REMARK  2 active torsions:
REMARK  status: ('A' for Active; 'I' for Inactive)
REMARK    1  A    between atoms: C_4  and  O_7 
REMARK    2  A    between atoms: O_10  and  C_12 
ROOT
HETATM    1  C   UNL     1       2.003   7.951  40.223  1.00  0.00    -0.001 C 
HETATM    2  C   UNL     1       2.484   9.194  40.694  1.00  0.00     0.002 C 
HETATM    3  C   UNL     1       2.810   6.812  40.147  1.00  0.00     0.010 C 
HETATM    4  C   UNL     1       4.080   6.841  39.344  1.00  0.00     0.078 C 
HETATM    5  C   UNL     1       3.724   9.662  40.500  1.00  0.00     0.032 C 
HETATM    6  C   UNL     1       5.191   7.627  40.012  1.00  0.00     0.105 C 
HETATM    7  C   UNL     1       3.807   7.385  37.954  1.00  0.00     0.051 C 
HETATM    8  C   UNL     1       4.919   8.966  40.559  1.00  0.00     0.046 C 
ENDROOT
BRANCH   4   9
HETATM    9  O   UNL     1       4.504   5.499  39.191  1.00  0.00    -0.386 OA
ATOM     10  HO  UNL     1       5.307   5.517  38.683  1.00  0.00     0.211 HD
ENDBRANCH   4   9
BRANCH   8  11
HETATM   11  O   UNL     1       5.883   9.487  41.364  1.00  0.00    -0.365 OA
ATOM     12  HO  UNL     1       6.703   9.009  41.404  1.00  0.00     0.217 HD
ENDBRANCH   8  11
TORSDOF 2
