REMARK  3 active torsions:
REMARK  status: ('A' for Active; 'I' for Inactive)
REMARK    1  A    between atoms: O_3  and  C_13 
REMARK       I    between atoms: C_5  and  N_6 
REMARK    2  A    between atoms: C_5  and  C_11 
REMARK    3  A    between atoms: C_9  and  C_16 
ROOT
HETATM    1  C   UNL     1       6.041   8.442  29.751  1.00  0.00     0.054 C 
HETATM    2  C   UNL     1       7.879   7.531  31.032  1.00  0.00     0.073 C 
HETATM    3  C   UNL     1       7.078   6.459  31.392  1.00  0.00     0.022 C 
HETATM    4  C   UNL     1       5.252   7.377  30.159  1.00  0.00     0.034 C 
HETATM    5  C   UNL     1       7.359   8.541  30.198  1.00  0.00     0.083 C 
HETATM    6  C   UNL     1       5.830   6.300  30.830  1.00  0.00     0.018 C 
ENDROOT
BRANCH   4   7
HETATM    7  C   UNL     1       3.769   7.320  30.042  1.00  0.00     0.249 C 
HETATM    8  O   UNL     1       3.324   6.873  28.976  1.00  0.00    -0.268 OA
HETATM    9  N   UNL     1       3.095   7.290  31.199  1.00  0.00    -0.366 N 
ATOM     10  HN2 UNL     1       2.079   7.251  31.119  1.00  0.00     0.159 HD
ATOM     11  HN1 UNL     1       3.461   7.658  32.077  1.00  0.00     0.159 HD
ENDBRANCH   4   7
BRANCH   5  12
HETATM   12  O   UNL     1       8.097   9.640  29.895  1.00  0.00    -0.360 OA
ATOM     13  HO  UNL     1       8.994   9.707  30.199  1.00  0.00     0.217 HD
ENDBRANCH   5  12
BRANCH   2  14
HETATM   14  C   UNL     1       9.170   7.694  31.776  1.00  0.00     0.212 C 
HETATM   15  O   UNL     1       9.941   6.713  31.806  1.00  0.00    -0.644 OA
HETATM   16  O   UNL     1       9.434   8.747  32.351  1.00  0.00    -0.644 OA
ENDBRANCH   2  14
TORSDOF 3
