MODEL 1
REMARK VINA RESULT:      -7.8      0.000      0.000
REMARK  12 active torsions:
REMARK  status: ('A' for Active; 'I' for Inactive)
REMARK    1  A    between atoms: C_4  and  C_27 
REMARK    2  A    between atoms: C_4  and  C_32 
REMARK    3  A    between atoms: C_8  and  C_24 
REMARK    4  A    between atoms: C_8  and  C_41 
REMARK    5  A    between atoms: C_10  and  C_16 
REMARK    6  A    between atoms: C_10  and  C_37 
REMARK    7  A    between atoms: C_12  and  C_26 
REMARK    8  A    between atoms: C_12  and  N_28 
REMARK    9  A    between atoms: C_16  and  N_28 
REMARK   10  A    between atoms: C_21  and  C_25 
REMARK   11  A    between atoms: C_23  and  C_43 
REMARK   12  A    between atoms: C_37  and  C_41 
ROOT
HETATM    1  C   UNL     1      17.085   8.256  21.220  1.00  0.00     0.030 C 
HETATM    2  C   UNL     1      14.886   7.303  21.953  1.00  0.00     0.000 C 
HETATM    3  C   UNL     1      15.857   7.666  21.051  1.00  0.00     0.002 C 
HETATM    4  O   UNL     1      20.129  10.174  25.837  1.00  0.00    -0.319 OA
HETATM    5  C   UNL     1      17.718   8.605  22.419  1.00  0.00     0.043 C 
HETATM    6  C   UNL     1      16.119   7.727  24.060  1.00  0.00     0.014 C 
HETATM    7  C   UNL     1      20.367   9.751  24.535  1.00  0.00     0.113 C 
HETATM    8  C   UNL     1      15.004   7.359  23.349  1.00  0.00     0.001 C 
HETATM    9  C   UNL     1      22.326  10.025  25.646  1.00  0.00    -0.005 C 
HETATM   10  C   UNL     1      18.493   8.202  24.438  1.00  0.00     0.046 C 
HETATM   11  C   UNL     1      19.297   9.144  23.864  1.00  0.00     0.068 C 
HETATM   12  C   UNL     1      17.382   8.082  23.641  1.00  0.00    -0.007 C 
HETATM   13  N   UNL     1      18.797   9.404  22.622  1.00  0.00    -0.353 N 
ATOM     14  HN  UNL     1      19.171  10.082  21.959  1.00  0.00     0.166 HD
HETATM   15  C   UNL     1      21.337  10.696  26.299  1.00  0.00     0.152 C 
HETATM   16  C   UNL     1      21.753   9.459  24.446  1.00  0.00     0.016 C 
ENDROOT
BRANCH  16  17
HETATM   17  C   UNL     1      22.343   8.757  23.330  1.00  0.00    -0.040 A 
HETATM   18  C   UNL     1      22.944   9.399  22.228  1.00  0.00     0.009 A 
HETATM   19  C   UNL     1      23.316   8.452  21.273  1.00  0.00     0.010 A 
HETATM   20  C   UNL     1      23.015   7.157  21.731  1.00  0.00    -0.025 A 
HETATM   21  C   UNL     1      22.366   7.269  23.095  1.00  0.00     0.080 A 
BRANCH  20  22
HETATM   22  C   UNL     1      23.307   5.959  20.921  1.00  0.00     0.066 C 
HETATM   23  N   UNL     1      23.785   4.912  21.621  1.00  0.00    -0.300 N 
HETATM   24  N   UNL     1      23.801   3.696  21.155  1.00  0.00    -0.311 N 
ATOM     25  HN  UNL     1      24.150   5.078  22.559  1.00  0.00     0.187 HD
HETATM   26  C   UNL     1      23.842   3.520  19.820  1.00  0.00     0.108 C 
ATOM     27  HN  UNL     1      23.783   2.896  21.786  1.00  0.00     0.186 HD
HETATM   28  C   UNL     1      23.494   4.525  18.935  1.00  0.00     0.033 C 
HETATM   29  C   UNL     1      23.085   5.775  19.483  1.00  0.00     0.010 C 
BRANCH  29  30
HETATM   30  C   UNL     1      22.485   6.794  18.591  1.00  0.00     0.031 C 
HETATM   31  C   UNL     1      23.288   7.658  17.674  1.00  0.00     0.061 C 
BRANCH  30  32
HETATM   32  C   UNL     1      21.057   6.953  18.670  1.00  0.00     0.095 C 
HETATM   33  N   UNL     1      20.022   7.388  18.966  1.00  0.00    -0.192 NA
ENDBRANCH  30  32
ENDBRANCH  29  30
ENDBRANCH  20  22
ENDBRANCH  16  17
BRANCH   9  34
HETATM   34  C   UNL     1      23.728   9.972  26.203  1.00  0.00     0.155 C 
BRANCH  34  35
HETATM   35  N   UNL     1      24.626  10.862  25.458  1.00  0.00    -0.417 N 
ATOM     36  HN  UNL     1      25.129  10.557  24.624  1.00  0.00     0.153 HD
BRANCH  35  37
HETATM   37  C   UNL     1      24.751  12.232  26.001  1.00  0.00     0.114 C 
BRANCH  37  38
HETATM   38  C   UNL     1      24.307  13.299  25.012  1.00  0.00     0.019 C 
BRANCH  38  39
HETATM   39  C   UNL     1      23.976  12.743  23.623  1.00  0.00     0.002 C 
BRANCH  39  40
HETATM   40  C   UNL     1      22.489  12.988  23.362  1.00  0.00     0.000 C 
BRANCH  40  41
HETATM   41  C   UNL     1      22.006  14.361  23.786  1.00  0.00    -0.000 C 
BRANCH  41  42
HETATM   42  C   UNL     1      20.692  14.358  24.531  1.00  0.00    -0.005 C 
HETATM   43  C   UNL     1      20.750  14.161  26.028  1.00  0.00     0.005 C 
ENDBRANCH  41  42
ENDBRANCH  40  41
ENDBRANCH  39  40
ENDBRANCH  38  39
ENDBRANCH  37  38
ENDBRANCH  35  37
ENDBRANCH  34  35
ENDBRANCH   9  34
TORSDOF 12
ENDMDL
MODEL 2
REMARK VINA RESULT:      -7.7      1.641      2.146
REMARK  12 active torsions:
REMARK  status: ('A' for Active; 'I' for Inactive)
REMARK    1  A    between atoms: C_4  and  C_27 
REMARK    2  A    between atoms: C_4  and  C_32 
REMARK    3  A    between atoms: C_8  and  C_24 
REMARK    4  A    between atoms: C_8  and  C_41 
REMARK    5  A    between atoms: C_10  and  C_16 
REMARK    6  A    between atoms: C_10  and  C_37 
REMARK    7  A    between atoms: C_12  and  C_26 
REMARK    8  A    between atoms: C_12  and  N_28 
REMARK    9  A    between atoms: C_16  and  N_28 
REMARK   10  A    between atoms: C_21  and  C_25 
REMARK   11  A    between atoms: C_23  and  C_43 
REMARK   12  A    between atoms: C_37  and  C_41 
ROOT
HETATM    1  C   UNL     1      17.631   7.887  19.656  1.00  0.00     0.030 C 
HETATM    2  C   UNL     1      15.328   7.165  20.327  1.00  0.00     0.000 C 
HETATM    3  C   UNL     1      16.405   7.295  19.484  1.00  0.00     0.002 C 
HETATM    4  O   UNL     1      20.241  10.752  24.043  1.00  0.00    -0.319 OA
HETATM    5  C   UNL     1      18.147   8.489  20.811  1.00  0.00     0.043 C 
HETATM    6  C   UNL     1      16.344   8.036  22.413  1.00  0.00     0.014 C 
HETATM    7  C   UNL     1      20.599  10.040  22.906  1.00  0.00     0.113 C 
HETATM    8  C   UNL     1      15.297   7.535  21.679  1.00  0.00     0.001 C 
HETATM    9  C   UNL     1      22.437  10.525  24.144  1.00  0.00    -0.005 C 
HETATM   10  C   UNL     1      18.681   8.543  22.944  1.00  0.00     0.046 C 
HETATM   11  C   UNL     1      19.582   9.315  22.270  1.00  0.00     0.068 C 
HETATM   12  C   UNL     1      17.659   8.264  22.072  1.00  0.00    -0.007 C 
HETATM   13  N   UNL     1      19.231   9.294  20.953  1.00  0.00    -0.353 N 
ATOM     14  HN  UNL     1      19.703   9.797  20.201  1.00  0.00     0.166 HD
HETATM   15  C   UNL     1      21.413  11.345  24.512  1.00  0.00     0.152 C 
HETATM   16  C   UNL     1      21.972   9.711  23.044  1.00  0.00     0.016 C 
ENDROOT
BRANCH  16  17
HETATM   17  C   UNL     1      22.649   8.762  22.189  1.00  0.00    -0.040 A 
HETATM   18  C   UNL     1      23.564   9.129  21.181  1.00  0.00     0.009 A 
HETATM   19  C   UNL     1      23.955   7.998  20.463  1.00  0.00     0.010 A 
HETATM   20  C   UNL     1      23.347   6.848  20.999  1.00  0.00    -0.025 A 
HETATM   21  C   UNL     1      22.462   7.268  22.155  1.00  0.00     0.080 A 
BRANCH  20  22
HETATM   22  C   UNL     1      23.588   5.507  20.434  1.00  0.00     0.066 C 
HETATM   23  N   UNL     1      23.722   4.529  21.351  1.00  0.00    -0.300 N 
HETATM   24  N   UNL     1      23.623   3.264  21.057  1.00  0.00    -0.311 N 
ATOM     25  HN  UNL     1      23.909   4.790  22.319  1.00  0.00     0.187 HD
HETATM   26  C   UNL     1      23.907   2.872  19.800  1.00  0.00     0.108 C 
ATOM     27  HN  UNL     1      23.337   2.586  21.762  1.00  0.00     0.186 HD
HETATM   28  C   UNL     1      23.929   3.762  18.739  1.00  0.00     0.033 C 
HETATM   29  C   UNL     1      23.639   5.128  19.019  1.00  0.00     0.010 C 
BRANCH  29  30
HETATM   30  C   UNL     1      23.421   6.066  17.893  1.00  0.00     0.031 C 
HETATM   31  C   UNL     1      22.117   6.748  17.634  1.00  0.00     0.061 C 
BRANCH  30  32
HETATM   32  C   UNL     1      24.535   6.273  17.006  1.00  0.00     0.095 C 
HETATM   33  N   UNL     1      25.213   6.189  16.068  1.00  0.00    -0.192 NA
ENDBRANCH  30  32
ENDBRANCH  29  30
ENDBRANCH  20  22
ENDBRANCH  16  17
BRANCH   9  34
HETATM   34  C   UNL     1      23.767  10.576  24.856  1.00  0.00     0.155 C 
BRANCH  34  35
HETATM   35  N   UNL     1      23.637  10.132  26.249  1.00  0.00    -0.417 N 
ATOM     36  HN  UNL     1      23.032   9.357  26.520  1.00  0.00     0.153 HD
BRANCH  35  37
HETATM   37  C   UNL     1      24.444  10.889  27.231  1.00  0.00     0.114 C 
BRANCH  37  38
HETATM   38  C   UNL     1      23.969  12.324  27.400  1.00  0.00     0.019 C 
BRANCH  38  39
HETATM   39  C   UNL     1      22.548  12.433  27.965  1.00  0.00     0.002 C 
BRANCH  39  40
HETATM   40  C   UNL     1      21.915  13.705  27.399  1.00  0.00     0.000 C 
BRANCH  40  41
HETATM   41  C   UNL     1      22.808  14.465  26.439  1.00  0.00    -0.000 C 
BRANCH  41  42
HETATM   42  C   UNL     1      22.103  14.986  25.209  1.00  0.00    -0.005 C 
HETATM   43  C   UNL     1      22.746  14.701  23.873  1.00  0.00     0.005 C 
ENDBRANCH  41  42
ENDBRANCH  40  41
ENDBRANCH  39  40
ENDBRANCH  38  39
ENDBRANCH  37  38
ENDBRANCH  35  37
ENDBRANCH  34  35
ENDBRANCH   9  34
TORSDOF 12
ENDMDL
MODEL 3
REMARK VINA RESULT:      -7.7      1.712      2.666
REMARK  12 active torsions:
REMARK  status: ('A' for Active; 'I' for Inactive)
REMARK    1  A    between atoms: C_4  and  C_27 
REMARK    2  A    between atoms: C_4  and  C_32 
REMARK    3  A    between atoms: C_8  and  C_24 
REMARK    4  A    between atoms: C_8  and  C_41 
REMARK    5  A    between atoms: C_10  and  C_16 
REMARK    6  A    between atoms: C_10  and  C_37 
REMARK    7  A    between atoms: C_12  and  C_26 
REMARK    8  A    between atoms: C_12  and  N_28 
REMARK    9  A    between atoms: C_16  and  N_28 
REMARK   10  A    between atoms: C_21  and  C_25 
REMARK   11  A    between atoms: C_23  and  C_43 
REMARK   12  A    between atoms: C_37  and  C_41 
ROOT
HETATM    1  C   UNL     1      18.280   7.743  21.247  1.00  0.00     0.030 C 
HETATM    2  C   UNL     1      16.498   7.383  22.971  1.00  0.00     0.000 C 
HETATM    3  C   UNL     1      17.167   7.155  21.793  1.00  0.00     0.002 C 
HETATM    4  O   UNL     1      21.895  12.040  22.902  1.00  0.00    -0.319 OA
HETATM    5  C   UNL     1      19.094   8.737  21.805  1.00  0.00     0.043 C 
HETATM    6  C   UNL     1      18.076   8.978  24.025  1.00  0.00     0.014 C 
HETATM    7  C   UNL     1      21.907  10.935  22.061  1.00  0.00     0.113 C 
HETATM    8  C   UNL     1      16.911   8.251  23.992  1.00  0.00     0.001 C 
HETATM    9  C   UNL     1      23.986  11.829  22.220  1.00  0.00    -0.005 C 
HETATM   10  C   UNL     1      20.355   9.607  23.384  1.00  0.00     0.046 C 
HETATM   11  C   UNL     1      20.836  10.039  22.182  1.00  0.00     0.068 C 
HETATM   12  C   UNL     1      19.133   9.030  23.144  1.00  0.00    -0.007 C 
HETATM   13  N   UNL     1      20.037   9.513  21.211  1.00  0.00    -0.353 N 
ATOM     14  HN  UNL     1      20.131   9.675  20.208  1.00  0.00     0.166 HD
HETATM   15  C   UNL     1      23.066  12.746  22.628  1.00  0.00     0.152 C 
HETATM   16  C   UNL     1      23.268  10.660  21.767  1.00  0.00     0.016 C 
ENDROOT
BRANCH  16  17
HETATM   17  C   UNL     1      23.708   9.441  21.128  1.00  0.00    -0.040 A 
HETATM   18  C   UNL     1      24.603   9.405  20.039  1.00  0.00     0.009 A 
HETATM   19  C   UNL     1      24.741   8.094  19.582  1.00  0.00     0.010 A 
HETATM   20  C   UNL     1      23.978   7.220  20.378  1.00  0.00    -0.025 A 
HETATM   21  C   UNL     1      23.260   8.035  21.434  1.00  0.00     0.080 A 
BRANCH  20  22
HETATM   22  C   UNL     1      23.942   5.768  20.121  1.00  0.00     0.066 C 
HETATM   23  N   UNL     1      23.935   5.003  21.231  1.00  0.00    -0.300 N 
HETATM   24  N   UNL     1      23.591   3.747  21.222  1.00  0.00    -0.311 N 
ATOM     25  HN  UNL     1      24.211   5.426  22.116  1.00  0.00     0.187 HD
HETATM   26  C   UNL     1      23.740   3.046  20.081  1.00  0.00     0.108 C 
ATOM     27  HN  UNL     1      23.217   3.303  22.061  1.00  0.00     0.186 HD
HETATM   28  C   UNL     1      23.877   3.666  18.851  1.00  0.00     0.033 C 
HETATM   29  C   UNL     1      23.857   5.090  18.824  1.00  0.00     0.010 C 
BRANCH  29  30
HETATM   30  C   UNL     1      23.765   5.787  17.520  1.00  0.00     0.031 C 
HETATM   31  C   UNL     1      24.936   5.995  16.615  1.00  0.00     0.061 C 
BRANCH  30  32
HETATM   32  C   UNL     1      22.472   6.306  17.161  1.00  0.00     0.095 C 
HETATM   33  N   UNL     1      21.654   6.893  16.583  1.00  0.00    -0.192 NA
ENDBRANCH  30  32
ENDBRANCH  29  30
ENDBRANCH  20  22
ENDBRANCH  16  17
BRANCH   9  34
HETATM   34  C   UNL     1      25.464  12.128  22.289  1.00  0.00     0.155 C 
BRANCH  34  35
HETATM   35  N   UNL     1      25.780  12.960  23.456  1.00  0.00    -0.417 N 
ATOM     36  HN  UNL     1      25.365  13.880  23.598  1.00  0.00     0.153 HD
BRANCH  35  37
HETATM   37  C   UNL     1      26.743  12.368  24.411  1.00  0.00     0.114 C 
BRANCH  37  38
HETATM   38  C   UNL     1      26.139  11.237  25.229  1.00  0.00     0.019 C 
BRANCH  38  39
HETATM   39  C   UNL     1      24.761  11.574  25.810  1.00  0.00     0.002 C 
BRANCH  39  40
HETATM   40  C   UNL     1      23.827  10.400  25.512  1.00  0.00     0.000 C 
BRANCH  40  41
HETATM   41  C   UNL     1      22.559  10.394  26.341  1.00  0.00    -0.000 C 
BRANCH  41  42
HETATM   42  C   UNL     1      21.802  11.701  26.332  1.00  0.00    -0.005 C 
HETATM   43  C   UNL     1      20.300  11.629  26.481  1.00  0.00     0.005 C 
ENDBRANCH  41  42
ENDBRANCH  40  41
ENDBRANCH  39  40
ENDBRANCH  38  39
ENDBRANCH  37  38
ENDBRANCH  35  37
ENDBRANCH  34  35
ENDBRANCH   9  34
TORSDOF 12
ENDMDL
MODEL 4
REMARK VINA RESULT:      -7.6      3.006      7.810
REMARK  12 active torsions:
REMARK  status: ('A' for Active; 'I' for Inactive)
REMARK    1  A    between atoms: C_4  and  C_27 
REMARK    2  A    between atoms: C_4  and  C_32 
REMARK    3  A    between atoms: C_8  and  C_24 
REMARK    4  A    between atoms: C_8  and  C_41 
REMARK    5  A    between atoms: C_10  and  C_16 
REMARK    6  A    between atoms: C_10  and  C_37 
REMARK    7  A    between atoms: C_12  and  C_26 
REMARK    8  A    between atoms: C_12  and  N_28 
REMARK    9  A    between atoms: C_16  and  N_28 
REMARK   10  A    between atoms: C_21  and  C_25 
REMARK   11  A    between atoms: C_23  and  C_43 
REMARK   12  A    between atoms: C_37  and  C_41 
ROOT
HETATM    1  C   UNL     1      17.605   6.874  22.525  1.00  0.00     0.030 C 
HETATM    2  C   UNL     1      15.275   7.791  22.600  1.00  0.00     0.000 C 
HETATM    3  C   UNL     1      16.483   7.395  23.120  1.00  0.00     0.002 C 
HETATM    4  O   UNL     1      19.086   5.488  17.034  1.00  0.00    -0.319 OA
HETATM    5  C   UNL     1      17.838   6.656  21.162  1.00  0.00     0.043 C 
HETATM    6  C   UNL     1      15.796   7.602  20.185  1.00  0.00     0.014 C 
HETATM    7  C   UNL     1      19.712   5.808  18.232  1.00  0.00     0.113 C 
HETATM    8  C   UNL     1      14.952   7.860  21.237  1.00  0.00     0.001 C 
HETATM    9  C   UNL     1      21.231   5.713  16.551  1.00  0.00    -0.005 C 
HETATM   10  C   UNL     1      17.940   7.262  19.049  1.00  0.00     0.046 C 
HETATM   11  C   UNL     1      18.895   6.309  19.255  1.00  0.00     0.068 C 
HETATM   12  C   UNL     1      17.131   7.266  20.159  1.00  0.00    -0.007 C 
HETATM   13  N   UNL     1      18.812   5.924  20.560  1.00  0.00    -0.353 N 
ATOM     14  HN  UNL     1      19.383   5.208  21.009  1.00  0.00     0.166 HD
HETATM   15  C   UNL     1      20.097   5.059  16.175  1.00  0.00     0.152 C 
HETATM   16  C   UNL     1      21.052   6.150  17.916  1.00  0.00     0.016 C 
ENDROOT
BRANCH  16  17
HETATM   17  C   UNL     1      21.951   6.779  18.857  1.00  0.00    -0.040 A 
HETATM   18  C   UNL     1      22.880   6.071  19.647  1.00  0.00     0.009 A 
HETATM   19  C   UNL     1      23.517   6.948  20.527  1.00  0.00     0.010 A 
HETATM   20  C   UNL     1      23.063   8.262  20.317  1.00  0.00    -0.025 A 
HETATM   21  C   UNL     1      22.019   8.240  19.218  1.00  0.00     0.080 A 
BRANCH  20  22
HETATM   22  C   UNL     1      23.573   9.397  21.109  1.00  0.00     0.066 C 
HETATM   23  N   UNL     1      24.559  10.097  20.515  1.00  0.00    -0.300 N 
HETATM   24  N   UNL     1      24.912  11.290  20.900  1.00  0.00    -0.311 N 
ATOM     25  HN  UNL     1      25.051   9.674  19.728  1.00  0.00     0.187 HD
HETATM   26  C   UNL     1      24.692  11.644  22.181  1.00  0.00     0.108 C 
ATOM     27  HN  UNL     1      25.346  11.941  20.246  1.00  0.00     0.186 HD
HETATM   28  C   UNL     1      23.793  10.966  22.986  1.00  0.00     0.033 C 
HETATM   29  C   UNL     1      23.095   9.864  22.415  1.00  0.00     0.010 C 
BRANCH  29  30
HETATM   30  C   UNL     1      21.963   9.261  23.156  1.00  0.00     0.031 C 
HETATM   31  C   UNL     1      22.141   8.299  24.285  1.00  0.00     0.061 C 
BRANCH  30  32
HETATM   32  C   UNL     1      20.642   9.619  22.711  1.00  0.00     0.095 C 
HETATM   33  N   UNL     1      19.724   9.747  22.013  1.00  0.00    -0.192 NA
ENDBRANCH  30  32
ENDBRANCH  29  30
ENDBRANCH  20  22
ENDBRANCH  16  17
BRANCH   9  34
HETATM   34  C   UNL     1      22.388   5.873  15.595  1.00  0.00     0.155 C 
BRANCH  34  35
HETATM   35  N   UNL     1      23.203   4.652  15.543  1.00  0.00    -0.417 N 
ATOM     36  HN  UNL     1      23.093   3.954  14.808  1.00  0.00     0.153 HD
BRANCH  35  37
HETATM   37  C   UNL     1      24.193   4.508  16.634  1.00  0.00     0.114 C 
BRANCH  37  38
HETATM   38  C   UNL     1      24.104   3.159  17.332  1.00  0.00     0.019 C 
BRANCH  38  39
HETATM   39  C   UNL     1      22.842   2.368  16.971  1.00  0.00     0.002 C 
BRANCH  39  40
HETATM   40  C   UNL     1      22.334   1.689  18.244  1.00  0.00     0.000 C 
BRANCH  40  41
HETATM   41  C   UNL     1      22.412   2.561  19.482  1.00  0.00    -0.000 C 
BRANCH  41  42
HETATM   42  C   UNL     1      21.340   2.284  20.509  1.00  0.00    -0.005 C 
HETATM   43  C   UNL     1      19.914   2.590  20.116  1.00  0.00     0.005 C 
ENDBRANCH  41  42
ENDBRANCH  40  41
ENDBRANCH  39  40
ENDBRANCH  38  39
ENDBRANCH  37  38
ENDBRANCH  35  37
ENDBRANCH  34  35
ENDBRANCH   9  34
TORSDOF 12
ENDMDL
MODEL 5
REMARK VINA RESULT:      -7.6      2.229      7.195
REMARK  12 active torsions:
REMARK  status: ('A' for Active; 'I' for Inactive)
REMARK    1  A    between atoms: C_4  and  C_27 
REMARK    2  A    between atoms: C_4  and  C_32 
REMARK    3  A    between atoms: C_8  and  C_24 
REMARK    4  A    between atoms: C_8  and  C_41 
REMARK    5  A    between atoms: C_10  and  C_16 
REMARK    6  A    between atoms: C_10  and  C_37 
REMARK    7  A    between atoms: C_12  and  C_26 
REMARK    8  A    between atoms: C_12  and  N_28 
REMARK    9  A    between atoms: C_16  and  N_28 
REMARK   10  A    between atoms: C_21  and  C_25 
REMARK   11  A    between atoms: C_23  and  C_43 
REMARK   12  A    between atoms: C_37  and  C_41 
ROOT
HETATM    1  C   UNL     1      22.753  11.333  23.077  1.00  0.00     0.030 C 
HETATM    2  C   UNL     1      22.953  13.827  23.190  1.00  0.00     0.000 C 
HETATM    3  C   UNL     1      23.362  12.549  22.897  1.00  0.00     0.002 C 
HETATM    4  O   UNL     1      17.639   9.582  25.323  1.00  0.00    -0.319 OA
HETATM    5  C   UNL     1      21.472  11.073  23.580  1.00  0.00     0.043 C 
HETATM    6  C   UNL     1      20.616  13.355  23.866  1.00  0.00     0.014 C 
HETATM    7  C   UNL     1      18.603   9.114  24.440  1.00  0.00     0.113 C 
HETATM    8  C   UNL     1      21.685  14.193  23.665  1.00  0.00     0.001 C 
HETATM    9  C   UNL     1      16.786   7.756  24.416  1.00  0.00    -0.005 C 
HETATM   10  C   UNL     1      19.286  11.310  23.643  1.00  0.00     0.046 C 
HETATM   11  C   UNL     1      19.577  10.032  24.026  1.00  0.00     0.068 C 
HETATM   12  C   UNL     1      20.469  12.006  23.632  1.00  0.00    -0.007 C 
HETATM   13  N   UNL     1      20.934   9.901  24.005  1.00  0.00    -0.353 N 
ATOM     14  HN  UNL     1      21.456   9.064  24.264  1.00  0.00     0.166 HD
HETATM   15  C   UNL     1      16.771   8.513  25.548  1.00  0.00     0.152 C 
HETATM   16  C   UNL     1      18.005   8.060  23.702  1.00  0.00     0.016 C 
ENDROOT
BRANCH  16  17
HETATM   17  C   UNL     1      18.601   7.486  22.517  1.00  0.00    -0.040 A 
HETATM   18  C   UNL     1      18.937   6.122  22.391  1.00  0.00     0.009 A 
HETATM   19  C   UNL     1      19.593   5.907  21.178  1.00  0.00     0.010 A 
HETATM   20  C   UNL     1      19.672   7.108  20.449  1.00  0.00    -0.025 A 
HETATM   21  C   UNL     1      19.032   8.210  21.269  1.00  0.00     0.080 A 
BRANCH  20  22
HETATM   22  C   UNL     1      20.314   7.170  19.123  1.00  0.00     0.066 C 
HETATM   23  N   UNL     1      19.457   7.283  18.090  1.00  0.00    -0.300 N 
HETATM   24  N   UNL     1      19.827   7.664  16.900  1.00  0.00    -0.311 N 
ATOM     25  HN  UNL     1      18.474   7.061  18.245  1.00  0.00     0.187 HD
HETATM   26  C   UNL     1      21.103   7.453  16.525  1.00  0.00     0.108 C 
ATOM     27  HN  UNL     1      19.165   8.113  16.268  1.00  0.00     0.186 HD
HETATM   28  C   UNL     1      22.108   7.207  17.445  1.00  0.00     0.033 C 
HETATM   29  C   UNL     1      21.750   7.180  18.823  1.00  0.00     0.010 C 
BRANCH  29  30
HETATM   30  C   UNL     1      22.819   7.154  19.848  1.00  0.00     0.031 C 
HETATM   31  C   UNL     1      23.318   5.896  20.482  1.00  0.00     0.061 C 
BRANCH  30  32
HETATM   32  C   UNL     1      23.351   8.429  20.252  1.00  0.00     0.095 C 
HETATM   33  N   UNL     1      23.931   9.433  20.205  1.00  0.00    -0.192 NA
ENDBRANCH  30  32
ENDBRANCH  29  30
ENDBRANCH  20  22
ENDBRANCH  16  17
BRANCH   9  34
HETATM   34  C   UNL     1      15.653   6.810  24.100  1.00  0.00     0.155 C 
BRANCH  34  35
HETATM   35  N   UNL     1      14.654   7.453  23.238  1.00  0.00    -0.417 N 
ATOM     36  HN  UNL     1      13.957   8.103  23.602  1.00  0.00     0.153 HD
BRANCH  35  37
HETATM   37  C   UNL     1      14.729   7.090  21.806  1.00  0.00     0.114 C 
BRANCH  37  38
HETATM   38  C   UNL     1      15.252   8.226  20.939  1.00  0.00     0.019 C 
BRANCH  38  39
HETATM   39  C   UNL     1      15.875   7.751  19.622  1.00  0.00     0.002 C 
BRANCH  39  40
HETATM   40  C   UNL     1      16.144   6.250  19.746  1.00  0.00     0.000 C 
BRANCH  40  41
HETATM   41  C   UNL     1      15.680   5.439  18.553  1.00  0.00    -0.000 C 
BRANCH  41  42
HETATM   42  C   UNL     1      14.189   5.203  18.500  1.00  0.00    -0.005 C 
HETATM   43  C   UNL     1      13.613   4.723  17.189  1.00  0.00     0.005 C 
ENDBRANCH  41  42
ENDBRANCH  40  41
ENDBRANCH  39  40
ENDBRANCH  38  39
ENDBRANCH  37  38
ENDBRANCH  35  37
ENDBRANCH  34  35
ENDBRANCH   9  34
TORSDOF 12
ENDMDL
MODEL 6
REMARK VINA RESULT:      -7.6      2.368      6.202
REMARK  12 active torsions:
REMARK  status: ('A' for Active; 'I' for Inactive)
REMARK    1  A    between atoms: C_4  and  C_27 
REMARK    2  A    between atoms: C_4  and  C_32 
REMARK    3  A    between atoms: C_8  and  C_24 
REMARK    4  A    between atoms: C_8  and  C_41 
REMARK    5  A    between atoms: C_10  and  C_16 
REMARK    6  A    between atoms: C_10  and  C_37 
REMARK    7  A    between atoms: C_12  and  C_26 
REMARK    8  A    between atoms: C_12  and  N_28 
REMARK    9  A    between atoms: C_16  and  N_28 
REMARK   10  A    between atoms: C_21  and  C_25 
REMARK   11  A    between atoms: C_23  and  C_43 
REMARK   12  A    between atoms: C_37  and  C_41 
ROOT
HETATM    1  C   UNL     1      23.306   4.803  18.858  1.00  0.00     0.030 C 
HETATM    2  C   UNL     1      24.528   4.313  16.726  1.00  0.00     0.000 C 
HETATM    3  C   UNL     1      23.683   4.047  17.777  1.00  0.00     0.002 C 
HETATM    4  O   UNL     1      24.603  10.181  20.773  1.00  0.00    -0.319 OA
HETATM    5  C   UNL     1      23.658   6.126  19.152  1.00  0.00     0.043 C 
HETATM    6  C   UNL     1      24.955   6.716  17.154  1.00  0.00     0.014 C 
HETATM    7  C   UNL     1      23.588   9.243  20.911  1.00  0.00     0.113 C 
HETATM    8  C   UNL     1      25.136   5.547  16.457  1.00  0.00     0.001 C 
HETATM    9  C   UNL     1      22.984  11.206  21.874  1.00  0.00    -0.005 C 
HETATM   10  C   UNL     1      23.856   8.269  18.697  1.00  0.00     0.046 C 
HETATM   11  C   UNL     1      23.618   8.149  20.036  1.00  0.00     0.068 C 
HETATM   12  C   UNL     1      24.140   7.013  18.224  1.00  0.00    -0.007 C 
HETATM   13  N   UNL     1      23.518   6.818  20.313  1.00  0.00    -0.353 N 
ATOM     14  HN  UNL     1      23.365   6.410  21.235  1.00  0.00     0.166 HD
HETATM   15  C   UNL     1      24.336  11.178  21.710  1.00  0.00     0.152 C 
HETATM   16  C   UNL     1      22.464   9.930  21.438  1.00  0.00     0.016 C 
ENDROOT
BRANCH  16  17
HETATM   17  C   UNL     1      21.139   9.357  21.490  1.00  0.00    -0.040 A 
HETATM   18  C   UNL     1      20.474   9.025  22.688  1.00  0.00     0.009 A 
HETATM   19  C   UNL     1      19.265   8.392  22.398  1.00  0.00     0.010 A 
HETATM   20  C   UNL     1      19.073   8.324  21.006  1.00  0.00    -0.025 A 
HETATM   21  C   UNL     1      20.275   8.947  20.326  1.00  0.00     0.080 A 
BRANCH  20  22
HETATM   22  C   UNL     1      17.870   7.706  20.417  1.00  0.00     0.066 C 
HETATM   23  N   UNL     1      16.712   8.310  20.745  1.00  0.00    -0.300 N 
HETATM   24  N   UNL     1      15.602   8.118  20.091  1.00  0.00    -0.311 N 
ATOM     25  HN  UNL     1      16.702   8.946  21.542  1.00  0.00     0.187 HD
HETATM   26  C   UNL     1      15.440   6.957  19.427  1.00  0.00     0.108 C 
ATOM     27  HN  UNL     1      14.873   8.831  20.080  1.00  0.00     0.186 HD
HETATM   28  C   UNL     1      16.510   6.142  19.100  1.00  0.00     0.033 C 
HETATM   29  C   UNL     1      17.810   6.570  19.492  1.00  0.00     0.010 C 
BRANCH  29  30
HETATM   30  C   UNL     1      18.996   5.856  18.964  1.00  0.00     0.031 C 
HETATM   31  C   UNL     1      19.672   4.739  19.690  1.00  0.00     0.061 C 
BRANCH  30  32
HETATM   32  C   UNL     1      19.513   6.318  17.702  1.00  0.00     0.095 C 
HETATM   33  N   UNL     1      19.828   6.314  16.585  1.00  0.00    -0.192 NA
ENDBRANCH  30  32
ENDBRANCH  29  30
ENDBRANCH  20  22
ENDBRANCH  16  17
BRANCH   9  34
HETATM   34  C   UNL     1      22.294  12.428  22.427  1.00  0.00     0.155 C 
BRANCH  34  35
HETATM   35  N   UNL     1      23.222  13.562  22.520  1.00  0.00    -0.417 N 
ATOM     36  HN  UNL     1      24.098  13.594  21.998  1.00  0.00     0.153 HD
BRANCH  35  37
HETATM   37  C   UNL     1      22.798  14.653  23.425  1.00  0.00     0.114 C 
BRANCH  37  38
HETATM   38  C   UNL     1      23.198  14.405  24.872  1.00  0.00     0.019 C 
BRANCH  38  39
HETATM   39  C   UNL     1      22.183  14.945  25.886  1.00  0.00     0.002 C 
BRANCH  39  40
HETATM   40  C   UNL     1      20.792  14.488  25.444  1.00  0.00     0.000 C 
BRANCH  40  41
HETATM   41  C   UNL     1      20.233  13.337  26.256  1.00  0.00    -0.000 C 
BRANCH  41  42
HETATM   42  C   UNL     1      20.216  12.012  25.530  1.00  0.00    -0.005 C 
HETATM   43  C   UNL     1      21.388  11.087  25.758  1.00  0.00     0.005 C 
ENDBRANCH  41  42
ENDBRANCH  40  41
ENDBRANCH  39  40
ENDBRANCH  38  39
ENDBRANCH  37  38
ENDBRANCH  35  37
ENDBRANCH  34  35
ENDBRANCH   9  34
TORSDOF 12
ENDMDL
MODEL 7
REMARK VINA RESULT:      -7.5      2.466      7.822
REMARK  12 active torsions:
REMARK  status: ('A' for Active; 'I' for Inactive)
REMARK    1  A    between atoms: C_4  and  C_27 
REMARK    2  A    between atoms: C_4  and  C_32 
REMARK    3  A    between atoms: C_8  and  C_24 
REMARK    4  A    between atoms: C_8  and  C_41 
REMARK    5  A    between atoms: C_10  and  C_16 
REMARK    6  A    between atoms: C_10  and  C_37 
REMARK    7  A    between atoms: C_12  and  C_26 
REMARK    8  A    between atoms: C_12  and  N_28 
REMARK    9  A    between atoms: C_16  and  N_28 
REMARK   10  A    between atoms: C_21  and  C_25 
REMARK   11  A    between atoms: C_23  and  C_43 
REMARK   12  A    between atoms: C_37  and  C_41 
ROOT
HETATM    1  C   UNL     1      20.778  13.248  23.526  1.00  0.00     0.030 C 
HETATM    2  C   UNL     1      21.694  14.527  25.476  1.00  0.00     0.000 C 
HETATM    3  C   UNL     1      20.720  14.078  24.617  1.00  0.00     0.002 C 
HETATM    4  O   UNL     1      25.064  10.365  20.771  1.00  0.00    -0.319 OA
HETATM    5  C   UNL     1      21.891  12.567  23.016  1.00  0.00     0.043 C 
HETATM    6  C   UNL     1      23.592  13.142  24.688  1.00  0.00     0.014 C 
HETATM    7  C   UNL     1      23.685  10.290  20.917  1.00  0.00     0.113 C 
HETATM    8  C   UNL     1      23.032  14.109  25.487  1.00  0.00     0.001 C 
HETATM    9  C   UNL     1      24.463   8.459  19.827  1.00  0.00    -0.005 C 
HETATM   10  C   UNL     1      23.628  11.226  23.162  1.00  0.00     0.046 C 
HETATM   11  C   UNL     1      23.110  11.101  21.906  1.00  0.00     0.068 C 
HETATM   12  C   UNL     1      23.031  12.321  23.735  1.00  0.00    -0.007 C 
HETATM   13  N   UNL     1      22.048  11.951  21.816  1.00  0.00    -0.353 N 
ATOM     14  HN  UNL     1      21.470  12.098  20.989  1.00  0.00     0.166 HD
HETATM   15  C   UNL     1      25.396   9.450  19.772  1.00  0.00     0.152 C 
HETATM   16  C   UNL     1      23.299   8.991  20.497  1.00  0.00     0.016 C 
ENDROOT
BRANCH  16  17
HETATM   17  C   UNL     1      21.983   8.441  20.733  1.00  0.00    -0.040 A 
HETATM   18  C   UNL     1      21.748   7.240  21.434  1.00  0.00     0.009 A 
HETATM   19  C   UNL     1      20.389   6.927  21.394  1.00  0.00     0.010 A 
HETATM   20  C   UNL     1      19.680   7.929  20.706  1.00  0.00    -0.025 A 
HETATM   21  C   UNL     1      20.667   8.977  20.234  1.00  0.00     0.080 A 
BRANCH  20  22
HETATM   22  C   UNL     1      18.219   7.855  20.516  1.00  0.00     0.066 C 
HETATM   23  N   UNL     1      17.833   7.400  19.308  1.00  0.00    -0.300 N 
HETATM   24  N   UNL     1      16.627   6.971  19.065  1.00  0.00    -0.311 N 
ATOM     25  HN  UNL     1      18.515   7.390  18.550  1.00  0.00     0.187 HD
HETATM   26  C   UNL     1      15.613   7.442  19.817  1.00  0.00     0.108 C 
ATOM     27  HN  UNL     1      16.455   6.294  18.323  1.00  0.00     0.186 HD
HETATM   28  C   UNL     1      15.827   8.047  21.043  1.00  0.00     0.033 C 
HETATM   29  C   UNL     1      17.173   8.163  21.496  1.00  0.00     0.010 C 
BRANCH  29  30
HETATM   30  C   UNL     1      17.432   8.587  22.892  1.00  0.00     0.031 C 
HETATM   31  C   UNL     1      18.328   9.727  23.251  1.00  0.00     0.061 C 
BRANCH  30  32
HETATM   32  C   UNL     1      16.797   7.812  23.925  1.00  0.00     0.095 C 
HETATM   33  N   UNL     1      15.974   7.409  24.637  1.00  0.00    -0.192 NA
ENDBRANCH  30  32
ENDBRANCH  29  30
ENDBRANCH  20  22
ENDBRANCH  16  17
BRANCH   9  34
HETATM   34  C   UNL     1      24.744   7.095  19.245  1.00  0.00     0.155 C 
BRANCH  34  35
HETATM   35  N   UNL     1      24.767   7.142  17.778  1.00  0.00    -0.417 N 
ATOM     36  HN  UNL     1      25.452   7.692  17.260  1.00  0.00     0.153 HD
BRANCH  35  37
HETATM   37  C   UNL     1      23.725   6.335  17.105  1.00  0.00     0.114 C 
BRANCH  37  38
HETATM   38  C   UNL     1      22.323   6.659  17.597  1.00  0.00     0.019 C 
BRANCH  38  39
HETATM   39  C   UNL     1      21.389   5.445  17.616  1.00  0.00     0.002 C 
BRANCH  39  40
HETATM   40  C   UNL     1      21.718   4.620  18.861  1.00  0.00     0.000 C 
BRANCH  40  41
HETATM   41  C   UNL     1      22.383   3.291  18.563  1.00  0.00    -0.000 C 
BRANCH  41  42
HETATM   42  C   UNL     1      23.748   3.122  19.188  1.00  0.00    -0.005 C 
HETATM   43  C   UNL     1      23.952   3.706  20.566  1.00  0.00     0.005 C 
ENDBRANCH  41  42
ENDBRANCH  40  41
ENDBRANCH  39  40
ENDBRANCH  38  39
ENDBRANCH  37  38
ENDBRANCH  35  37
ENDBRANCH  34  35
ENDBRANCH   9  34
TORSDOF 12
ENDMDL
MODEL 8
REMARK VINA RESULT:      -7.5      2.331      6.403
REMARK  12 active torsions:
REMARK  status: ('A' for Active; 'I' for Inactive)
REMARK    1  A    between atoms: C_4  and  C_27 
REMARK    2  A    between atoms: C_4  and  C_32 
REMARK    3  A    between atoms: C_8  and  C_24 
REMARK    4  A    between atoms: C_8  and  C_41 
REMARK    5  A    between atoms: C_10  and  C_16 
REMARK    6  A    between atoms: C_10  and  C_37 
REMARK    7  A    between atoms: C_12  and  C_26 
REMARK    8  A    between atoms: C_12  and  N_28 
REMARK    9  A    between atoms: C_16  and  N_28 
REMARK   10  A    between atoms: C_21  and  C_25 
REMARK   11  A    between atoms: C_23  and  C_43 
REMARK   12  A    between atoms: C_37  and  C_41 
ROOT
HETATM    1  C   UNL     1      23.701   4.598  19.300  1.00  0.00     0.030 C 
HETATM    2  C   UNL     1      24.239   4.118  16.900  1.00  0.00     0.000 C 
HETATM    3  C   UNL     1      23.824   3.820  18.176  1.00  0.00     0.002 C 
HETATM    4  O   UNL     1      24.710  10.229  20.539  1.00  0.00    -0.319 OA
HETATM    5  C   UNL     1      23.924   5.975  19.427  1.00  0.00     0.043 C 
HETATM    6  C   UNL     1      24.411   6.582  17.099  1.00  0.00     0.014 C 
HETATM    7  C   UNL     1      23.947   9.176  21.027  1.00  0.00     0.113 C 
HETATM    8  C   UNL     1      24.535   5.399  16.413  1.00  0.00     0.001 C 
HETATM    9  C   UNL     1      23.392  11.107  22.080  1.00  0.00    -0.005 C 
HETATM   10  C   UNL     1      23.639   8.085  18.874  1.00  0.00     0.046 C 
HETATM   11  C   UNL     1      23.861   8.034  20.220  1.00  0.00     0.068 C 
HETATM   12  C   UNL     1      23.945   6.846  18.368  1.00  0.00    -0.007 C 
HETATM   13  N   UNL     1      24.058   6.726  20.550  1.00  0.00    -0.353 N 
ATOM     14  HN  UNL     1      24.270   6.372  21.483  1.00  0.00     0.166 HD
HETATM   15  C   UNL     1      24.608  11.249  21.485  1.00  0.00     0.152 C 
HETATM   16  C   UNL     1      22.959   9.744  21.872  1.00  0.00     0.016 C 
ENDROOT
BRANCH  16  17
HETATM   17  C   UNL     1      21.823   9.003  22.370  1.00  0.00    -0.040 A 
HETATM   18  C   UNL     1      21.832   8.263  23.570  1.00  0.00     0.009 A 
HETATM   19  C   UNL     1      20.626   7.576  23.712  1.00  0.00     0.010 A 
HETATM   20  C   UNL     1      19.768   7.873  22.637  1.00  0.00    -0.025 A 
HETATM   21  C   UNL     1      20.487   8.819  21.697  1.00  0.00     0.080 A 
BRANCH  20  22
HETATM   22  C   UNL     1      18.420   7.285  22.534  1.00  0.00     0.066 C 
HETATM   23  N   UNL     1      17.595   7.593  23.554  1.00  0.00    -0.300 N 
HETATM   24  N   UNL     1      16.303   7.440  23.490  1.00  0.00    -0.311 N 
ATOM     25  HN  UNL     1      17.999   7.964  24.414  1.00  0.00     0.187 HD
HETATM   26  C   UNL     1      15.805   6.510  22.653  1.00  0.00     0.108 C 
ATOM     27  HN  UNL     1      15.682   8.012  24.062  1.00  0.00     0.186 HD
HETATM   28  C   UNL     1      16.550   5.989  21.608  1.00  0.00     0.033 C 
HETATM   29  C   UNL     1      17.880   6.469  21.442  1.00  0.00     0.010 C 
BRANCH  29  30
HETATM   30  C   UNL     1      18.627   6.118  20.211  1.00  0.00     0.031 C 
HETATM   31  C   UNL     1      19.537   4.937  20.112  1.00  0.00     0.061 C 
BRANCH  30  32
HETATM   32  C   UNL     1      18.469   7.006  19.090  1.00  0.00     0.095 C 
HETATM   33  N   UNL     1      18.710   7.826  18.305  1.00  0.00    -0.192 NA
ENDBRANCH  30  32
ENDBRANCH  29  30
ENDBRANCH  20  22
ENDBRANCH  16  17
BRANCH   9  34
HETATM   34  C   UNL     1      22.737  12.264  22.795  1.00  0.00     0.155 C 
BRANCH  34  35
HETATM   35  N   UNL     1      21.310  12.351  22.460  1.00  0.00    -0.417 N 
ATOM     36  HN  UNL     1      20.975  12.351  21.497  1.00  0.00     0.153 HD
BRANCH  35  37
HETATM   37  C   UNL     1      20.395  12.441  23.619  1.00  0.00     0.114 C 
BRANCH  37  38
HETATM   38  C   UNL     1      19.270  11.419  23.559  1.00  0.00     0.019 C 
BRANCH  38  39
HETATM   39  C   UNL     1      19.007  10.723  24.899  1.00  0.00     0.002 C 
BRANCH  39  40
HETATM   40  C   UNL     1      20.262  10.874  25.759  1.00  0.00     0.000 C 
BRANCH  40  41
HETATM   41  C   UNL     1      20.442   9.774  26.787  1.00  0.00    -0.000 C 
BRANCH  41  42
HETATM   42  C   UNL     1      19.178   9.017  27.119  1.00  0.00    -0.005 C 
HETATM   43  C   UNL     1      19.224   7.513  26.998  1.00  0.00     0.005 C 
ENDBRANCH  41  42
ENDBRANCH  40  41
ENDBRANCH  39  40
ENDBRANCH  38  39
ENDBRANCH  37  38
ENDBRANCH  35  37
ENDBRANCH  34  35
ENDBRANCH   9  34
TORSDOF 12
ENDMDL
MODEL 9
REMARK VINA RESULT:      -7.5      2.426      6.675
REMARK  12 active torsions:
REMARK  status: ('A' for Active; 'I' for Inactive)
REMARK    1  A    between atoms: C_4  and  C_27 
REMARK    2  A    between atoms: C_4  and  C_32 
REMARK    3  A    between atoms: C_8  and  C_24 
REMARK    4  A    between atoms: C_8  and  C_41 
REMARK    5  A    between atoms: C_10  and  C_16 
REMARK    6  A    between atoms: C_10  and  C_37 
REMARK    7  A    between atoms: C_12  and  C_26 
REMARK    8  A    between atoms: C_12  and  N_28 
REMARK    9  A    between atoms: C_16  and  N_28 
REMARK   10  A    between atoms: C_21  and  C_25 
REMARK   11  A    between atoms: C_23  and  C_43 
REMARK   12  A    between atoms: C_37  and  C_41 
ROOT
HETATM    1  C   UNL     1      23.819   4.000  20.568  1.00  0.00     0.030 C 
HETATM    2  C   UNL     1      23.926   2.989  18.278  1.00  0.00     0.000 C 
HETATM    3  C   UNL     1      23.837   2.981  19.649  1.00  0.00     0.002 C 
HETATM    4  O   UNL     1      24.106   9.838  20.246  1.00  0.00    -0.319 OA
HETATM    5  C   UNL     1      23.830   5.380  20.329  1.00  0.00     0.043 C 
HETATM    6  C   UNL     1      23.722   5.426  17.878  1.00  0.00     0.014 C 
HETATM    7  C   UNL     1      23.646   8.865  21.123  1.00  0.00     0.113 C 
HETATM    8  C   UNL     1      23.899   4.129  17.463  1.00  0.00     0.001 C 
HETATM    9  C   UNL     1      23.003  10.926  21.822  1.00  0.00    -0.005 C 
HETATM   10  C   UNL     1      23.090   7.234  19.405  1.00  0.00     0.046 C 
HETATM   11  C   UNL     1      23.588   7.553  20.635  1.00  0.00     0.068 C 
HETATM   12  C   UNL     1      23.488   5.950  19.130  1.00  0.00    -0.007 C 
HETATM   13  N   UNL     1      24.064   6.403  21.191  1.00  0.00    -0.353 N 
ATOM     14  HN  UNL     1      24.518   6.324  22.101  1.00  0.00     0.166 HD
HETATM   15  C   UNL     1      24.031  11.047  20.937  1.00  0.00     0.152 C 
HETATM   16  C   UNL     1      22.771   9.515  22.032  1.00  0.00     0.016 C 
ENDROOT
BRANCH  16  17
HETATM   17  C   UNL     1      21.900   8.802  22.939  1.00  0.00    -0.040 A 
HETATM   18  C   UNL     1      22.350   8.133  24.096  1.00  0.00     0.009 A 
HETATM   19  C   UNL     1      21.287   7.454  24.693  1.00  0.00     0.010 A 
HETATM   20  C   UNL     1      20.099   7.686  23.977  1.00  0.00    -0.025 A 
HETATM   21  C   UNL     1      20.418   8.578  22.794  1.00  0.00     0.080 A 
BRANCH  20  22
HETATM   22  C   UNL     1      18.814   7.091  24.390  1.00  0.00     0.066 C 
HETATM   23  N   UNL     1      18.530   5.910  23.806  1.00  0.00    -0.300 N 
HETATM   24  N   UNL     1      17.625   5.094  24.263  1.00  0.00    -0.311 N 
ATOM     25  HN  UNL     1      19.048   5.643  22.969  1.00  0.00     0.187 HD
HETATM   26  C   UNL     1      16.606   5.601  24.984  1.00  0.00     0.108 C 
ATOM     27  HN  UNL     1      17.686   4.093  24.080  1.00  0.00     0.186 HD
HETATM   28  C   UNL     1      16.672   6.854  25.569  1.00  0.00     0.033 C 
HETATM   29  C   UNL     1      17.867   7.607  25.383  1.00  0.00     0.010 C 
BRANCH  29  30
HETATM   30  C   UNL     1      18.075   8.841  26.177  1.00  0.00     0.031 C 
HETATM   31  C   UNL     1      17.639  10.194  25.718  1.00  0.00     0.061 C 
BRANCH  30  32
HETATM   32  C   UNL     1      18.767   8.689  27.429  1.00  0.00     0.095 C 
HETATM   33  N   UNL     1      19.455   8.237  28.247  1.00  0.00    -0.192 NA
ENDBRANCH  30  32
ENDBRANCH  29  30
ENDBRANCH  20  22
ENDBRANCH  16  17
BRANCH   9  34
HETATM   34  C   UNL     1      22.325  12.145  22.397  1.00  0.00     0.155 C 
BRANCH  34  35
HETATM   35  N   UNL     1      23.293  13.222  22.640  1.00  0.00    -0.417 N 
ATOM     36  HN  UNL     1      24.260  13.168  22.321  1.00  0.00     0.153 HD
BRANCH  35  37
HETATM   37  C   UNL     1      22.766  14.389  23.381  1.00  0.00     0.114 C 
BRANCH  37  38
HETATM   38  C   UNL     1      21.385  14.137  23.968  1.00  0.00     0.019 C 
BRANCH  38  39
HETATM   39  C   UNL     1      21.243  14.608  25.419  1.00  0.00     0.002 C 
BRANCH  39  40
HETATM   40  C   UNL     1      20.577  13.484  26.214  1.00  0.00     0.000 C 
BRANCH  40  41
HETATM   41  C   UNL     1      20.585  12.142  25.510  1.00  0.00    -0.000 C 
BRANCH  41  42
HETATM   42  C   UNL     1      21.469  11.103  26.159  1.00  0.00    -0.005 C 
HETATM   43  C   UNL     1      22.956  11.221  25.926  1.00  0.00     0.005 C 
ENDBRANCH  41  42
ENDBRANCH  40  41
ENDBRANCH  39  40
ENDBRANCH  38  39
ENDBRANCH  37  38
ENDBRANCH  35  37
ENDBRANCH  34  35
ENDBRANCH   9  34
TORSDOF 12
ENDMDL
