REMARK  2 active torsions:
REMARK  status: ('A' for Active; 'I' for Inactive)
REMARK    1  A    between atoms: C_8  and  C_9 
REMARK    2  A    between atoms: C_8  and  C_12 
ROOT
HETATM    1  C   UNL     1     183.908 124.220  37.516  1.00  0.00     0.006 C 
HETATM    2  C   UNL     1     187.073 125.921  36.080  1.00  0.00     0.016 C 
HETATM    3  C   UNL     1     185.373 128.470  35.474  1.00  0.00     0.005 C 
HETATM    4  C   UNL     1     185.583 125.797  36.430  1.00  0.00    -0.036 C 
HETATM    5  C   UNL     1     183.852 124.733  38.938  1.00  0.00     0.005 C 
HETATM    6  C   UNL     1     184.752 125.999  35.159  1.00  0.00     0.014 C 
HETATM    7  C   UNL     1     184.796 127.401  34.562  1.00  0.00    -0.013 C 
HETATM    8  C   UNL     1     186.148 124.354  38.385  1.00  0.00     0.010 C 
HETATM    9  C   UNL     1     184.951 128.269  36.931  1.00  0.00     0.006 C 
HETATM   10  C   UNL     1     185.354 124.409  37.063  1.00  0.00    -0.006 C 
HETATM   11  C   UNL     1     185.201 126.874  37.432  1.00  0.00    -0.006 C 
HETATM   12  C   UNL     1     185.256 125.189  39.305  1.00  0.00    -0.014 C 
HETATM   13  C   UNL     1     185.433 126.655  38.890  1.00  0.00     0.010 C 
ENDROOT
BRANCH   7  14
HETATM   14  C   UNL     1     185.448 127.487  33.189  1.00  0.00     0.014 C 
BRANCH  14  15
HETATM   15  C   UNL     1     184.479 127.749  32.043  1.00  0.00    -0.040 C 
HETATM   16  C   UNL     1     184.704 129.094  31.361  1.00  0.00     0.010 C 
HETATM   17  C   UNL     1     183.309 129.555  30.943  1.00  0.00     0.005 C 
HETATM   18  C   UNL     1     182.350 128.432  31.334  1.00  0.00    -0.014 C 
HETATM   19  C   UNL     1     183.039 127.781  32.545  1.00  0.00     0.014 C 
HETATM   20  C   UNL     1     182.245 127.326  30.261  1.00  0.00     0.005 C 
HETATM   21  C   UNL     1     183.397 126.330  30.179  1.00  0.00     0.001 C 
HETATM   22  C   UNL     1     184.629 126.646  30.999  1.00  0.00     0.009 C 
ENDBRANCH  14  15
ENDBRANCH   7  14
TORSDOF 2
