MODEL 1
REMARK VINA RESULT:      -7.6      0.000      0.000
REMARK  4 active torsions:
REMARK  status: ('A' for Active; 'I' for Inactive)
REMARK    1  A    between atoms: C_5  and  C_12 
REMARK       I    between atoms: C_10  and  N_22 
REMARK    2  A    between atoms: C_10  and  C_25 
REMARK    3  A    between atoms: C_12  and  O_27 
REMARK    4  A    between atoms: C_20  and  C_26 
ROOT
HETATM    1  C   UNL     1      25.889   8.532 -18.863  1.00  0.00     0.091 C 
HETATM    2  C   UNL     1      26.311   7.234 -20.832  1.00  0.00     0.012 C 
HETATM    3  O   UNL     1      27.647  11.664 -19.284  1.00  0.00    -0.287 OA
HETATM    4  C   UNL     1      25.519   7.458 -19.700  1.00  0.00    -0.001 C 
HETATM    5  O   UNL     1      25.547   8.434 -17.555  1.00  0.00    -0.345 OA
HETATM    6  C   UNL     1      26.256  11.298 -17.483  1.00  0.00     0.067 C 
HETATM    7  C   UNL     1      26.857   8.357 -21.479  1.00  0.00     0.002 C 
HETATM    8  C   UNL     1      26.809   9.602 -20.845  1.00  0.00     0.018 C 
HETATM    9  C   UNL     1      26.452   9.679 -19.485  1.00  0.00     0.048 C 
HETATM   10  C   UNL     1      26.762  10.963 -18.762  1.00  0.00     0.185 C 
HETATM   11  C   UNL     1      26.369   8.973 -16.533  1.00  0.00     0.216 C 
HETATM   12  C   UNL     1      26.088  10.434 -16.404  1.00  0.00    -0.004 C 
ENDROOT
BRANCH  12  13
HETATM   13  C   UNL     1      25.470  10.986 -15.188  1.00  0.00     0.040 C 
HETATM   14  C   UNL     1      24.330  10.361 -14.659  1.00  0.00     0.030 C 
HETATM   15  C   UNL     1      24.377   9.553 -13.508  1.00  0.00     0.003 C 
HETATM   16  C   UNL     1      25.227   9.884 -12.473  1.00  0.00     0.018 C 
HETATM   17  C   UNL     1      25.671  11.201 -12.252  1.00  0.00     0.047 C 
HETATM   18  C   UNL     1      26.169  12.049 -13.219  1.00  0.00     0.105 C 
HETATM   19  N   UNL     1      26.054  12.051 -14.552  1.00  0.00    -0.364 N 
ATOM     20  HN  UNL     1      26.401  12.842 -15.093  1.00  0.00     0.165 HD
BRANCH  17  21
HETATM   21  C   UNL     1      25.623  11.672 -10.825  1.00  0.00     0.250 C 
HETATM   22  O   UNL     1      26.532  12.358 -10.366  1.00  0.00    -0.268 OA
HETATM   23  N   UNL     1      24.565  11.343 -10.069  1.00  0.00    -0.366 N 
ATOM     24  HN2 UNL     1      24.532  11.663  -9.102  1.00  0.00     0.159 HD
ATOM     25  HN1 UNL     1      23.810  10.773 -10.450  1.00  0.00     0.159 HD
ENDBRANCH  17  21
ENDBRANCH  12  13
BRANCH   4  26
HETATM   26  C   UNL     1      24.257   6.684 -19.449  1.00  0.00     0.205 C 
BRANCH  26  27
HETATM   27  O   UNL     1      24.485   5.688 -18.475  1.00  0.00    -0.396 OA
ATOM     28  HO  UNL     1      23.972   5.870 -17.697  1.00  0.00     0.209 HD
ENDBRANCH  26  27
ENDBRANCH   4  26
TORSDOF 4
ENDMDL
MODEL 2
REMARK VINA RESULT:      -7.4      2.192      3.803
REMARK  4 active torsions:
REMARK  status: ('A' for Active; 'I' for Inactive)
REMARK    1  A    between atoms: C_5  and  C_12 
REMARK       I    between atoms: C_10  and  N_22 
REMARK    2  A    between atoms: C_10  and  C_25 
REMARK    3  A    between atoms: C_12  and  O_27 
REMARK    4  A    between atoms: C_20  and  C_26 
ROOT
HETATM    1  C   UNL     1      24.853   8.529 -16.766  1.00  0.00     0.091 C 
HETATM    2  C   UNL     1      24.185   7.347 -18.740  1.00  0.00     0.012 C 
HETATM    3  O   UNL     1      21.980   8.597 -14.572  1.00  0.00    -0.287 OA
HETATM    4  C   UNL     1      25.223   7.819 -17.928  1.00  0.00    -0.001 C 
HETATM    5  O   UNL     1      25.739   9.443 -16.299  1.00  0.00    -0.345 OA
HETATM    6  C   UNL     1      24.030   9.401 -13.893  1.00  0.00     0.067 C 
HETATM    7  C   UNL     1      23.006   6.916 -18.107  1.00  0.00     0.002 C 
HETATM    8  C   UNL     1      22.812   7.204 -16.753  1.00  0.00     0.018 C 
HETATM    9  C   UNL     1      23.661   8.124 -16.107  1.00  0.00     0.048 C 
HETATM   10  C   UNL     1      23.203   8.672 -14.781  1.00  0.00     0.185 C 
HETATM   11  C   UNL     1      25.306  10.639 -15.671  1.00  0.00     0.216 C 
HETATM   12  C   UNL     1      24.990  10.348 -14.241  1.00  0.00    -0.004 C 
ENDROOT
BRANCH  12  13
HETATM   13  C   UNL     1      25.791  10.928 -13.151  1.00  0.00     0.040 C 
HETATM   14  C   UNL     1      26.602  12.042 -13.419  1.00  0.00     0.030 C 
HETATM   15  C   UNL     1      26.258  13.343 -13.011  1.00  0.00     0.003 C 
HETATM   16  C   UNL     1      25.619  13.536 -11.803  1.00  0.00     0.018 C 
HETATM   17  C   UNL     1      25.728  12.624 -10.737  1.00  0.00     0.047 C 
HETATM   18  C   UNL     1      25.589  11.256 -10.839  1.00  0.00     0.105 C 
HETATM   19  N   UNL     1      25.678  10.423 -11.881  1.00  0.00    -0.364 N 
ATOM     20  HN  UNL     1      25.661   9.414 -11.733  1.00  0.00     0.165 HD
BRANCH  17  21
HETATM   21  C   UNL     1      25.976  13.233  -9.385  1.00  0.00     0.250 C 
HETATM   22  O   UNL     1      27.021  13.002  -8.782  1.00  0.00    -0.268 OA
HETATM   23  N   UNL     1      25.046  14.042  -8.857  1.00  0.00    -0.366 N 
ATOM     24  HN2 UNL     1      25.215  14.455  -7.941  1.00  0.00     0.159 HD
ATOM     25  HN1 UNL     1      24.179  14.234  -9.358  1.00  0.00     0.159 HD
ENDBRANCH  17  21
ENDBRANCH  12  13
BRANCH   4  26
HETATM   26  C   UNL     1      26.661   7.480 -18.199  1.00  0.00     0.205 C 
BRANCH  26  27
HETATM   27  O   UNL     1      27.418   8.661 -18.345  1.00  0.00    -0.396 OA
ATOM     28  HO  UNL     1      27.041   9.208 -19.024  1.00  0.00     0.209 HD
ENDBRANCH  26  27
ENDBRANCH   4  26
TORSDOF 4
ENDMDL
MODEL 3
REMARK VINA RESULT:      -7.4      3.757      5.691
REMARK  4 active torsions:
REMARK  status: ('A' for Active; 'I' for Inactive)
REMARK    1  A    between atoms: C_5  and  C_12 
REMARK       I    between atoms: C_10  and  N_22 
REMARK    2  A    between atoms: C_10  and  C_25 
REMARK    3  A    between atoms: C_12  and  O_27 
REMARK    4  A    between atoms: C_20  and  C_26 
ROOT
HETATM    1  C   UNL     1      25.670   8.494 -18.207  1.00  0.00     0.091 C 
HETATM    2  C   UNL     1      24.766   6.276 -18.209  1.00  0.00     0.012 C 
HETATM    3  O   UNL     1      26.996   9.080 -21.519  1.00  0.00    -0.287 OA
HETATM    4  C   UNL     1      24.817   7.540 -17.612  1.00  0.00    -0.001 C 
HETATM    5  O   UNL     1      26.169   9.459 -17.395  1.00  0.00    -0.345 OA
HETATM    6  C   UNL     1      26.935  10.753 -19.935  1.00  0.00     0.067 C 
HETATM    7  C   UNL     1      24.878   6.209 -19.609  1.00  0.00     0.002 C 
HETATM    8  C   UNL     1      25.284   7.345 -20.317  1.00  0.00     0.018 C 
HETATM    9  C   UNL     1      25.812   8.449 -19.620  1.00  0.00     0.048 C 
HETATM   10  C   UNL     1      26.561   9.479 -20.425  1.00  0.00     0.185 C 
HETATM   11  C   UNL     1      27.466   9.996 -17.597  1.00  0.00     0.216 C 
HETATM   12  C   UNL     1      27.396  11.048 -18.655  1.00  0.00    -0.004 C 
ENDROOT
BRANCH  12  13
HETATM   13  C   UNL     1      27.655  12.463 -18.340  1.00  0.00     0.040 C 
HETATM   14  C   UNL     1      28.949  12.976 -18.521  1.00  0.00     0.030 C 
HETATM   15  C   UNL     1      29.286  13.809 -19.603  1.00  0.00     0.003 C 
HETATM   16  C   UNL     1      28.370  14.728 -20.072  1.00  0.00     0.018 C 
HETATM   17  C   UNL     1      27.340  15.246 -19.266  1.00  0.00     0.047 C 
HETATM   18  C   UNL     1      26.505  14.501 -18.460  1.00  0.00     0.105 C 
HETATM   19  N   UNL     1      26.620  13.271 -17.947  1.00  0.00    -0.364 N 
ATOM     20  HN  UNL     1      25.939  12.935 -17.266  1.00  0.00     0.165 HD
BRANCH  17  21
HETATM   21  C   UNL     1      27.137  16.733 -19.347  1.00  0.00     0.250 C 
HETATM   22  O   UNL     1      27.635  17.476 -18.505  1.00  0.00    -0.268 OA
HETATM   23  N   UNL     1      26.417  17.235 -20.362  1.00  0.00    -0.366 N 
ATOM     24  HN2 UNL     1      26.280  18.244 -20.417  1.00  0.00     0.159 HD
ATOM     25  HN1 UNL     1      26.004  16.619 -21.061  1.00  0.00     0.159 HD
ENDBRANCH  17  21
ENDBRANCH  12  13
BRANCH   4  26
HETATM   26  C   UNL     1      23.913   7.918 -16.473  1.00  0.00     0.205 C 
BRANCH  26  27
HETATM   27  O   UNL     1      22.605   7.448 -16.717  1.00  0.00    -0.396 OA
ATOM     28  HO  UNL     1      22.213   7.141 -15.907  1.00  0.00     0.209 HD
ENDBRANCH  26  27
ENDBRANCH   4  26
TORSDOF 4
ENDMDL
MODEL 4
REMARK VINA RESULT:      -7.2      3.510      8.161
REMARK  4 active torsions:
REMARK  status: ('A' for Active; 'I' for Inactive)
REMARK    1  A    between atoms: C_5  and  C_12 
REMARK       I    between atoms: C_10  and  N_22 
REMARK    2  A    between atoms: C_10  and  C_25 
REMARK    3  A    between atoms: C_12  and  O_27 
REMARK    4  A    between atoms: C_20  and  C_26 
ROOT
HETATM    1  C   UNL     1      25.547  10.616 -16.033  1.00  0.00     0.091 C 
HETATM    2  C   UNL     1      25.318  10.989 -13.677  1.00  0.00     0.012 C 
HETATM    3  O   UNL     1      25.523   7.035 -16.528  1.00  0.00    -0.287 OA
HETATM    4  C   UNL     1      25.220  11.495 -14.978  1.00  0.00    -0.001 C 
HETATM    5  O   UNL     1      26.006  11.179 -17.178  1.00  0.00    -0.345 OA
HETATM    6  C   UNL     1      25.534   8.495 -18.311  1.00  0.00     0.067 C 
HETATM    7  C   UNL     1      24.984   9.638 -13.476  1.00  0.00     0.002 C 
HETATM    8  C   UNL     1      24.821   8.801 -14.585  1.00  0.00     0.018 C 
HETATM    9  C   UNL     1      25.232   9.242 -15.857  1.00  0.00     0.048 C 
HETATM   10  C   UNL     1      25.375   8.200 -16.935  1.00  0.00     0.185 C 
HETATM   11  C   UNL     1      26.975  10.529 -17.984  1.00  0.00     0.216 C 
HETATM   12  C   UNL     1      26.288   9.530 -18.857  1.00  0.00    -0.004 C 
ENDROOT
BRANCH  12  13
HETATM   13  C   UNL     1      26.248   9.696 -20.319  1.00  0.00     0.040 C 
HETATM   14  C   UNL     1      25.984  10.967 -20.853  1.00  0.00     0.030 C 
HETATM   15  C   UNL     1      26.989  11.770 -21.422  1.00  0.00     0.003 C 
HETATM   16  C   UNL     1      28.009  11.183 -22.144  1.00  0.00     0.018 C 
HETATM   17  C   UNL     1      27.865   9.934 -22.775  1.00  0.00     0.047 C 
HETATM   18  C   UNL     1      27.332   8.802 -22.194  1.00  0.00     0.105 C 
HETATM   19  N   UNL     1      26.538   8.631 -21.132  1.00  0.00    -0.364 N 
ATOM     20  HN  UNL     1      26.149   7.711 -20.927  1.00  0.00     0.165 HD
BRANCH  17  21
HETATM   21  C   UNL     1      28.383   9.854 -24.184  1.00  0.00     0.250 C 
HETATM   22  O   UNL     1      29.029  10.783 -24.662  1.00  0.00    -0.268 OA
HETATM   23  N   UNL     1      28.141   8.748 -24.903  1.00  0.00    -0.366 N 
ATOM     24  HN2 UNL     1      28.493   8.694 -25.858  1.00  0.00     0.159 HD
ATOM     25  HN1 UNL     1      27.605   7.977 -24.506  1.00  0.00     0.159 HD
ENDBRANCH  17  21
ENDBRANCH  12  13
BRANCH   4  26
HETATM   26  C   UNL     1      24.668  12.864 -15.258  1.00  0.00     0.205 C 
BRANCH  26  27
HETATM   27  O   UNL     1      23.351  12.966 -14.760  1.00  0.00    -0.396 OA
ATOM     28  HO  UNL     1      23.341  12.783 -13.828  1.00  0.00     0.209 HD
ENDBRANCH  26  27
ENDBRANCH   4  26
TORSDOF 4
ENDMDL
MODEL 5
REMARK VINA RESULT:      -7.1      2.655      7.498
REMARK  4 active torsions:
REMARK  status: ('A' for Active; 'I' for Inactive)
REMARK    1  A    between atoms: C_5  and  C_12 
REMARK       I    between atoms: C_10  and  N_22 
REMARK    2  A    between atoms: C_10  and  C_25 
REMARK    3  A    between atoms: C_12  and  O_27 
REMARK    4  A    between atoms: C_20  and  C_26 
ROOT
HETATM    1  C   UNL     1      25.727  12.277 -13.155  1.00  0.00     0.091 C 
HETATM    2  C   UNL     1      25.440  13.928 -11.443  1.00  0.00     0.012 C 
HETATM    3  O   UNL     1      26.809  14.033 -16.124  1.00  0.00    -0.287 OA
HETATM    4  C   UNL     1      25.618  12.582 -11.782  1.00  0.00    -0.001 C 
HETATM    5  O   UNL     1      25.335  11.037 -13.539  1.00  0.00    -0.345 OA
HETATM    6  C   UNL     1      26.707  11.732 -16.059  1.00  0.00     0.067 C 
HETATM    7  C   UNL     1      26.089  14.891 -12.235  1.00  0.00     0.002 C 
HETATM    8  C   UNL     1      26.661  14.504 -13.452  1.00  0.00     0.018 C 
HETATM    9  C   UNL     1      26.370  13.234 -13.985  1.00  0.00     0.048 C 
HETATM   10  C   UNL     1      26.702  13.003 -15.436  1.00  0.00     0.185 C 
HETATM   11  C   UNL     1      24.733  10.811 -14.803  1.00  0.00     0.216 C 
HETATM   12  C   UNL     1      25.804  10.695 -15.837  1.00  0.00    -0.004 C 
ENDROOT
BRANCH  12  13
HETATM   13  C   UNL     1      26.047   9.426 -16.543  1.00  0.00     0.040 C 
HETATM   14  C   UNL     1      25.351   8.277 -16.137  1.00  0.00     0.030 C 
HETATM   15  C   UNL     1      24.273   7.749 -16.870  1.00  0.00     0.003 C 
HETATM   16  C   UNL     1      24.293   7.797 -18.250  1.00  0.00     0.018 C 
HETATM   17  C   UNL     1      25.491   7.868 -18.985  1.00  0.00     0.047 C 
HETATM   18  C   UNL     1      26.539   8.724 -18.724  1.00  0.00     0.105 C 
HETATM   19  N   UNL     1      26.889   9.401 -17.625  1.00  0.00    -0.364 N 
ATOM     20  HN  UNL     1      27.779   9.897 -17.591  1.00  0.00     0.165 HD
BRANCH  17  21
HETATM   21  C   UNL     1      25.580   6.947 -20.170  1.00  0.00     0.250 C 
HETATM   22  O   UNL     1      25.168   5.793 -20.093  1.00  0.00    -0.268 OA
HETATM   23  N   UNL     1      26.100   7.412 -21.315  1.00  0.00    -0.366 N 
ATOM     24  HN2 UNL     1      26.160   6.788 -22.119  1.00  0.00     0.159 HD
ATOM     25  HN1 UNL     1      26.442   8.371 -21.380  1.00  0.00     0.159 HD
ENDBRANCH  17  21
ENDBRANCH  12  13
BRANCH   4  26
HETATM   26  C   UNL     1      25.816  11.520 -10.737  1.00  0.00     0.205 C 
BRANCH  26  27
HETATM   27  O   UNL     1      24.645  10.745 -10.607  1.00  0.00    -0.396 OA
ATOM     28  HO  UNL     1      24.659  10.269  -9.785  1.00  0.00     0.209 HD
ENDBRANCH  26  27
ENDBRANCH   4  26
TORSDOF 4
ENDMDL
MODEL 6
REMARK VINA RESULT:      -7.1      4.311      6.976
REMARK  4 active torsions:
REMARK  status: ('A' for Active; 'I' for Inactive)
REMARK    1  A    between atoms: C_5  and  C_12 
REMARK       I    between atoms: C_10  and  N_22 
REMARK    2  A    between atoms: C_10  and  C_25 
REMARK    3  A    between atoms: C_12  and  O_27 
REMARK    4  A    between atoms: C_20  and  C_26 
ROOT
HETATM    1  C   UNL     1      26.701   9.496 -20.411  1.00  0.00     0.091 C 
HETATM    2  C   UNL     1      26.208   7.205 -20.906  1.00  0.00     0.012 C 
HETATM    3  O   UNL     1      26.059   9.961 -16.884  1.00  0.00    -0.287 OA
HETATM    4  C   UNL     1      26.850   8.392 -21.276  1.00  0.00    -0.001 C 
HETATM    5  O   UNL     1      26.796  10.728 -20.970  1.00  0.00    -0.345 OA
HETATM    6  C   UNL     1      26.985  11.635 -18.168  1.00  0.00     0.067 C 
HETATM    7  C   UNL     1      26.131   6.904 -19.535  1.00  0.00     0.002 C 
HETATM    8  C   UNL     1      26.458   7.891 -18.599  1.00  0.00     0.018 C 
HETATM    9  C   UNL     1      26.612   9.226 -19.019  1.00  0.00     0.048 C 
HETATM   10  C   UNL     1      26.600  10.290 -17.953  1.00  0.00     0.185 C 
HETATM   11  C   UNL     1      26.031  11.820 -20.487  1.00  0.00     0.216 C 
HETATM   12  C   UNL     1      26.718  12.405 -19.297  1.00  0.00    -0.004 C 
ENDROOT
BRANCH  12  13
HETATM   13  C   UNL     1      27.284  13.764 -19.336  1.00  0.00     0.040 C 
HETATM   14  C   UNL     1      28.437  14.044 -18.587  1.00  0.00     0.030 C 
HETATM   15  C   UNL     1      29.707  14.179 -19.177  1.00  0.00     0.003 C 
HETATM   16  C   UNL     1      29.826  14.767 -20.420  1.00  0.00     0.018 C 
HETATM   17  C   UNL     1      28.877  15.679 -20.918  1.00  0.00     0.047 C 
HETATM   18  C   UNL     1      27.510  15.501 -20.894  1.00  0.00     0.105 C 
HETATM   19  N   UNL     1      26.724  14.709 -20.156  1.00  0.00    -0.364 N 
ATOM     20  HN  UNL     1      25.709  14.809 -20.202  1.00  0.00     0.165 HD
BRANCH  17  21
HETATM   21  C   UNL     1      29.439  16.917 -21.558  1.00  0.00     0.250 C 
HETATM   22  O   UNL     1      30.650  17.122 -21.556  1.00  0.00    -0.268 OA
HETATM   23  N   UNL     1      28.599  17.783 -22.143  1.00  0.00    -0.366 N 
ATOM     24  HN2 UNL     1      28.981  18.623 -22.578  1.00  0.00     0.159 HD
ATOM     25  HN1 UNL     1      27.594  17.613 -22.145  1.00  0.00     0.159 HD
ENDBRANCH  17  21
ENDBRANCH  12  13
BRANCH   4  26
HETATM   26  C   UNL     1      27.765   8.461 -22.466  1.00  0.00     0.205 C 
BRANCH  26  27
HETATM   27  O   UNL     1      27.099   9.062 -23.555  1.00  0.00    -0.396 OA
ATOM     28  HO  UNL     1      26.343   8.541 -23.802  1.00  0.00     0.209 HD
ENDBRANCH  26  27
ENDBRANCH   4  26
TORSDOF 4
ENDMDL
MODEL 7
REMARK VINA RESULT:      -7.1      3.456      6.919
REMARK  4 active torsions:
REMARK  status: ('A' for Active; 'I' for Inactive)
REMARK    1  A    between atoms: C_5  and  C_12 
REMARK       I    between atoms: C_10  and  N_22 
REMARK    2  A    between atoms: C_10  and  C_25 
REMARK    3  A    between atoms: C_12  and  O_27 
REMARK    4  A    between atoms: C_20  and  C_26 
ROOT
HETATM    1  C   UNL     1      26.653  13.984 -17.629  1.00  0.00     0.091 C 
HETATM    2  C   UNL     1      26.885  16.356 -17.873  1.00  0.00     0.012 C 
HETATM    3  O   UNL     1      24.557  13.435 -14.734  1.00  0.00    -0.287 OA
HETATM    4  C   UNL     1      26.977  15.085 -18.450  1.00  0.00    -0.001 C 
HETATM    5  O   UNL     1      27.247  12.802 -17.927  1.00  0.00    -0.345 OA
HETATM    6  C   UNL     1      25.236  11.689 -16.075  1.00  0.00     0.067 C 
HETATM    7  C   UNL     1      25.863  16.573 -16.932  1.00  0.00     0.002 C 
HETATM    8  C   UNL     1      25.156  15.478 -16.425  1.00  0.00     0.018 C 
HETATM    9  C   UNL     1      25.630  14.173 -16.661  1.00  0.00     0.048 C 
HETATM   10  C   UNL     1      25.061  13.068 -15.810  1.00  0.00     0.185 C 
HETATM   11  C   UNL     1      27.600  11.876 -16.913  1.00  0.00     0.216 C 
HETATM   12  C   UNL     1      26.393  11.074 -16.548  1.00  0.00    -0.004 C 
ENDROOT
BRANCH  12  13
HETATM   13  C   UNL     1      26.325   9.630 -16.826  1.00  0.00     0.040 C 
HETATM   14  C   UNL     1      25.737   8.780 -15.877  1.00  0.00     0.030 C 
HETATM   15  C   UNL     1      24.452   8.233 -16.047  1.00  0.00     0.003 C 
HETATM   16  C   UNL     1      24.026   7.862 -17.306  1.00  0.00     0.018 C 
HETATM   17  C   UNL     1      24.922   7.519 -18.336  1.00  0.00     0.047 C 
HETATM   18  C   UNL     1      26.043   8.238 -18.691  1.00  0.00     0.105 C 
HETATM   19  N   UNL     1      26.767   9.150 -18.032  1.00  0.00    -0.364 N 
ATOM     20  HN  UNL     1      27.646   9.487 -18.425  1.00  0.00     0.165 HD
BRANCH  17  21
HETATM   21  C   UNL     1      24.571   6.284 -19.117  1.00  0.00     0.250 C 
HETATM   22  O   UNL     1      25.184   6.003 -20.143  1.00  0.00    -0.268 OA
HETATM   23  N   UNL     1      23.591   5.487 -18.666  1.00  0.00    -0.366 N 
ATOM     24  HN2 UNL     1      23.353   4.649 -19.196  1.00  0.00     0.159 HD
ATOM     25  HN1 UNL     1      23.082   5.720 -17.813  1.00  0.00     0.159 HD
ENDBRANCH  17  21
ENDBRANCH  12  13
BRANCH   4  26
HETATM   26  C   UNL     1      27.277  14.896 -19.910  1.00  0.00     0.205 C 
BRANCH  26  27
HETATM   27  O   UNL     1      26.725  15.957 -20.659  1.00  0.00    -0.396 OA
ATOM     28  HO  UNL     1      27.412  16.554 -20.933  1.00  0.00     0.209 HD
ENDBRANCH  26  27
ENDBRANCH   4  26
TORSDOF 4
ENDMDL
MODEL 8
REMARK VINA RESULT:      -7.0      1.880      2.262
REMARK  4 active torsions:
REMARK  status: ('A' for Active; 'I' for Inactive)
REMARK    1  A    between atoms: C_5  and  C_12 
REMARK       I    between atoms: C_10  and  N_22 
REMARK    2  A    between atoms: C_10  and  C_25 
REMARK    3  A    between atoms: C_12  and  O_27 
REMARK    4  A    between atoms: C_20  and  C_26 
ROOT
HETATM    1  C   UNL     1      25.080   7.961 -17.818  1.00  0.00     0.091 C 
HETATM    2  C   UNL     1      25.297   6.291 -19.522  1.00  0.00     0.012 C 
HETATM    3  O   UNL     1      28.035  10.036 -18.010  1.00  0.00    -0.287 OA
HETATM    4  C   UNL     1      24.467   6.994 -18.642  1.00  0.00    -0.001 C 
HETATM    5  O   UNL     1      24.477   8.226 -16.632  1.00  0.00    -0.345 OA
HETATM    6  C   UNL     1      26.295  10.552 -16.591  1.00  0.00     0.067 C 
HETATM    7  C   UNL     1      26.380   6.984 -20.091  1.00  0.00     0.002 C 
HETATM    8  C   UNL     1      26.736   8.237 -19.579  1.00  0.00     0.018 C 
HETATM    9  C   UNL     1      26.183   8.674 -18.360  1.00  0.00     0.048 C 
HETATM   10  C   UNL     1      26.855   9.836 -17.676  1.00  0.00     0.185 C 
HETATM   11  C   UNL     1      25.231   8.563 -15.479  1.00  0.00     0.216 C 
HETATM   12  C   UNL     1      25.570  10.017 -15.529  1.00  0.00    -0.004 C 
ENDROOT
BRANCH  12  13
HETATM   13  C   UNL     1      25.014  10.963 -14.547  1.00  0.00     0.040 C 
HETATM   14  C   UNL     1      25.146  10.681 -13.179  1.00  0.00     0.030 C 
HETATM   15  C   UNL     1      26.071  11.349 -12.356  1.00  0.00     0.003 C 
HETATM   16  C   UNL     1      26.332  12.688 -12.565  1.00  0.00     0.018 C 
HETATM   17  C   UNL     1      25.408  13.550 -13.185  1.00  0.00     0.047 C 
HETATM   18  C   UNL     1      24.721  13.280 -14.349  1.00  0.00     0.105 C 
HETATM   19  N   UNL     1      24.444  12.133 -14.979  1.00  0.00    -0.364 N 
ATOM     20  HN  UNL     1      23.810  12.128 -15.779  1.00  0.00     0.165 HD
BRANCH  17  21
HETATM   21  C   UNL     1      25.212  14.881 -12.515  1.00  0.00     0.250 C 
HETATM   22  O   UNL     1      26.039  15.777 -12.659  1.00  0.00    -0.268 OA
HETATM   23  N   UNL     1      24.113  15.078 -11.772  1.00  0.00    -0.366 N 
ATOM     24  HN2 UNL     1      23.979  15.981 -11.319  1.00  0.00     0.159 HD
ATOM     25  HN1 UNL     1      23.426  14.334 -11.653  1.00  0.00     0.159 HD
ENDBRANCH  17  21
ENDBRANCH  12  13
BRANCH   4  26
HETATM   26  C   UNL     1      22.973   6.830 -18.658  1.00  0.00     0.205 C 
BRANCH  26  27
HETATM   27  O   UNL     1      22.473   6.824 -17.339  1.00  0.00    -0.396 OA
ATOM     28  HO  UNL     1      22.443   7.710 -16.997  1.00  0.00     0.209 HD
ENDBRANCH  26  27
ENDBRANCH   4  26
TORSDOF 4
ENDMDL
MODEL 9
REMARK VINA RESULT:      -7.0      4.676      6.980
REMARK  4 active torsions:
REMARK  status: ('A' for Active; 'I' for Inactive)
REMARK    1  A    between atoms: C_5  and  C_12 
REMARK       I    between atoms: C_10  and  N_22 
REMARK    2  A    between atoms: C_10  and  C_25 
REMARK    3  A    between atoms: C_12  and  O_27 
REMARK    4  A    between atoms: C_20  and  C_26 
ROOT
HETATM    1  C   UNL     1      28.332  12.586 -21.536  1.00  0.00     0.091 C 
HETATM    2  C   UNL     1      29.252  14.718 -22.126  1.00  0.00     0.012 C 
HETATM    3  O   UNL     1      28.193  10.635 -24.576  1.00  0.00    -0.287 OA
HETATM    4  C   UNL     1      28.960  13.782 -21.128  1.00  0.00    -0.001 C 
HETATM    5  O   UNL     1      27.556  11.959 -20.617  1.00  0.00    -0.345 OA
HETATM    6  C   UNL     1      27.660   9.715 -22.532  1.00  0.00     0.067 C 
HETATM    7  C   UNL     1      29.624  14.230 -23.390  1.00  0.00     0.002 C 
HETATM    8  C   UNL     1      29.448  12.873 -23.679  1.00  0.00     0.018 C 
HETATM    9  C   UNL     1      28.680  12.071 -22.813  1.00  0.00     0.048 C 
HETATM   10  C   UNL     1      28.218  10.736 -23.337  1.00  0.00     0.185 C 
HETATM   11  C   UNL     1      26.388  11.249 -20.998  1.00  0.00     0.216 C 
HETATM   12  C   UNL     1      26.781   9.885 -21.465  1.00  0.00    -0.004 C 
ENDROOT
BRANCH  12  13
HETATM   13  C   UNL     1      26.387   8.681 -20.716  1.00  0.00     0.040 C 
HETATM   14  C   UNL     1      27.118   8.318 -19.575  1.00  0.00     0.030 C 
HETATM   15  C   UNL     1      26.632   8.520 -18.270  1.00  0.00     0.003 C 
HETATM   16  C   UNL     1      25.286   8.363 -18.008  1.00  0.00     0.018 C 
HETATM   17  C   UNL     1      24.454   7.548 -18.796  1.00  0.00     0.047 C 
HETATM   18  C   UNL     1      24.406   7.550 -20.175  1.00  0.00     0.105 C 
HETATM   19  N   UNL     1      25.274   7.978 -21.099  1.00  0.00    -0.364 N 
ATOM     20  HN  UNL     1      25.108   7.781 -22.086  1.00  0.00     0.165 HD
BRANCH  17  21
HETATM   21  C   UNL     1      23.524   6.642 -18.037  1.00  0.00     0.250 C 
HETATM   22  O   UNL     1      22.844   7.083 -17.115  1.00  0.00    -0.268 OA
HETATM   23  N   UNL     1      23.441   5.352 -18.394  1.00  0.00    -0.366 N 
ATOM     24  HN2 UNL     1      22.810   4.739 -17.879  1.00  0.00     0.159 HD
ATOM     25  HN1 UNL     1      24.006   4.987 -19.159  1.00  0.00     0.159 HD
ENDBRANCH  17  21
ENDBRANCH  12  13
BRANCH   4  26
HETATM   26  C   UNL     1      29.410  13.970 -19.706  1.00  0.00     0.205 C 
BRANCH  26  27
HETATM   27  O   UNL     1      28.299  14.233 -18.878  1.00  0.00    -0.396 OA
ATOM     28  HO  UNL     1      28.273  13.611 -18.160  1.00  0.00     0.209 HD
ENDBRANCH  26  27
ENDBRANCH   4  26
TORSDOF 4
ENDMDL
