REMARK  5 active torsions:
REMARK  status: ('A' for Active; 'I' for Inactive)
REMARK    1  A    between atoms: C_1  and  S_2 
REMARK    2  A    between atoms: N_3  and  O_37 
REMARK    3  A    between atoms: C_8  and  O_41 
REMARK    4  A    between atoms: C_12  and  C_20 
REMARK    5  A    between atoms: P_35  and  C_39 
ROOT
HETATM    1  C   UNL     1      11.452  47.349  21.790  1.00  0.00     0.091 C 
HETATM    2  N   UNL     1      10.463  44.107  21.887  1.00  0.00    -0.247 N 
HETATM    3  C   UNL     1      10.332  48.680  19.874  1.00  0.00     0.001 C 
HETATM    4  C   UNL     1      10.774  42.669  19.577  1.00  0.00     0.013 C 
HETATM    5  O   UNL     1       6.078  42.753  19.009  1.00  0.00    -0.268 OA
HETATM    6  C   UNL     1       7.150  43.207  19.404  1.00  0.00     0.254 C 
HETATM    7  C   UNL     1      14.093  44.789  21.529  1.00  0.00     0.036 C 
HETATM    8  C   UNL     1      11.689  44.179  21.239  1.00  0.00     0.069 C 
HETATM    9  C   UNL     1       9.632  47.599  17.776  1.00  0.00    -0.008 C 
HETATM   10  C   UNL     1       9.478  42.937  20.026  1.00  0.00    -0.013 C 
HETATM   11  C   UNL     1      13.953  47.056  21.928  1.00  0.00     0.035 C 
HETATM   12  C   UNL     1       8.322  42.356  19.526  1.00  0.00     0.051 C 
HETATM   13  C   UNL     1       8.472  45.116  20.400  1.00  0.00     0.210 C 
HETATM   14  C   UNL     1      12.633  46.546  21.802  1.00  0.00     0.002 C 
HETATM   15  N   UNL     1       9.304  45.753  19.365  1.00  0.00    -0.396 N 
ATOM     16  HN  UNL     1      10.296  45.536  19.273  1.00  0.00     0.155 HD
HETATM   17  N   UNL     1       7.270  44.541  19.785  1.00  0.00    -0.334 N 
ATOM     18  HN  UNL     1       6.473  45.157  19.627  1.00  0.00     0.165 HD
HETATM   19  C   UNL     1      11.863  43.321  20.147  1.00  0.00     0.033 C 
HETATM   20  C   UNL     1      10.391  48.498  18.456  1.00  0.00    -0.002 C 
HETATM   21  C   UNL     1       9.251  43.977  21.088  1.00  0.00     0.191 C 
HETATM   22  C   UNL     1       8.650  46.706  18.478  1.00  0.00     0.143 C 
HETATM   23  C   UNL     1      11.234  48.291  20.795  1.00  0.00     0.027 C 
HETATM   24  C   UNL     1      12.724  45.126  21.549  1.00  0.00     0.006 C 
HETATM   25  C   UNL     1      14.812  45.982  21.646  1.00  0.00     0.070 C 
ENDROOT
BRANCH  12  26
HETATM   26  C   UNL     1       8.216  40.936  19.260  1.00  0.00    -0.017 A 
HETATM   27  C   UNL     1       8.298  40.452  17.953  1.00  0.00     0.012 A 
HETATM   28  C   UNL     1       8.320  39.077  17.718  1.00  0.00     0.004 A 
HETATM   29  C   UNL     1       8.148  38.193  18.765  1.00  0.00     0.036 A 
HETATM   30  C   UNL     1       8.059  38.662  20.066  1.00  0.00     0.066 A 
HETATM   31  C   UNL     1       8.061  40.033  20.320  1.00  0.00     0.049 A 
BRANCH  30  32
HETATM   32  O   UNL     1       7.988  37.760  21.081  1.00  0.00    -0.361 OA
ATOM     33  HO  UNL     1       7.987  36.826  20.908  1.00  0.00     0.217 HD
ENDBRANCH  30  32
ENDBRANCH  12  26
BRANCH   2  34
HETATM   34  O   UNL     1      10.398  43.621  23.187  1.00  0.00    -0.286 OA
ATOM     35  HO  UNL     1       9.559  43.572  23.630  1.00  0.00     0.244 HD
ENDBRANCH   2  34
BRANCH  25  36
HETATM   36  P   UNL     1      16.537  46.049  21.301  1.00  0.00     0.295 P 
HETATM   37  O   UNL     1      16.794  47.250  20.456  1.00  0.00    -0.636 OA
HETATM   38  O   UNL     1      17.314  46.107  22.604  1.00  0.00    -0.636 OA
HETATM   39  O   UNL     1      16.950  44.816  20.579  1.00  0.00    -0.636 OA
ENDBRANCH  25  36
BRANCH   1  40
HETATM   40  S   UNL     1      10.332  47.207  23.167  1.00  0.00     0.138 S 
HETATM   41  O   UNL     1       8.980  46.703  22.786  1.00  0.00    -0.591 OA
HETATM   42  O   UNL     1      10.162  48.572  23.703  1.00  0.00    -0.591 OA
HETATM   43  O   UNL     1      10.889  46.281  24.192  1.00  0.00    -0.591 OA
ENDBRANCH   1  40
TORSDOF 5
