MODEL 1
REMARK VINA RESULT:      -7.9      0.000      0.000
REMARK  3 active torsions:
REMARK  status: ('A' for Active; 'I' for Inactive)
REMARK    1  A    between atoms: C_2  and  C_19 
REMARK    2  A    between atoms: C_8  and  C_9 
REMARK    3  A    between atoms: N_20  and  C_23 
ROOT
HETATM    1  C   UNL     1      -2.747  38.834  18.367  1.00  0.00    -0.025 C 
HETATM    2  C   UNL     1      -1.911  39.090  19.495  1.00  0.00    -0.025 C 
HETATM    3  C   UNL     1      -3.831  39.731  18.458  1.00  0.00     0.014 C 
HETATM    4  C   UNL     1      -3.545  40.667  19.449  1.00  0.00     0.031 C 
HETATM    5  C   UNL     1      -1.028  38.075  20.168  1.00  0.00     0.051 C 
HETATM    6  C   UNL     1      -2.224  40.409  19.926  1.00  0.00     0.038 C 
ENDROOT
BRANCH   6   7
HETATM    7  N   UNL     1      -1.397  41.387  20.457  1.00  0.00    -0.365 N 
HETATM    8  C   UNL     1      -0.267  42.010  20.113  1.00  0.00     0.099 C 
ATOM      9  HN  UNL     1      -1.748  41.721  21.354  1.00  0.00     0.165 HD
BRANCH   8  10
HETATM   10  C   UNL     1      -0.116  42.666  18.817  1.00  0.00    -0.021 A 
HETATM   11  C   UNL     1       0.066  44.052  18.716  1.00  0.00     0.013 A 
HETATM   12  C   UNL     1       0.236  44.632  17.461  1.00  0.00     0.001 A 
HETATM   13  C   UNL     1       0.170  43.857  16.301  1.00  0.00     0.000 A 
HETATM   14  C   UNL     1       0.005  42.476  16.391  1.00  0.00     0.001 A 
HETATM   15  C   UNL     1      -0.141  41.889  17.651  1.00  0.00     0.013 A 
ENDBRANCH   8  10
ENDBRANCH   6   7
BRANCH   1  16
HETATM   16  C   UNL     1      -2.355  38.111  17.121  1.00  0.00    -0.064 C 
HETATM   17  C   UNL     1      -1.460  38.794  16.089  1.00  0.00     0.016 C 
HETATM   18  C   UNL     1      -2.319  39.725  15.220  1.00  0.00     0.010 C 
HETATM   19  C   UNL     1      -1.232  37.577  15.184  1.00  0.00     0.018 C 
HETATM   20  C   UNL     1      -3.116  38.719  14.386  1.00  0.00     0.010 C 
HETATM   21  C   UNL     1      -2.708  37.376  14.967  1.00  0.00    -0.040 C 
HETATM   22  C   UNL     1      -3.388  37.292  16.343  1.00  0.00     0.044 C 
HETATM   23  C   UNL     1      -3.019  36.171  14.087  1.00  0.00     0.015 C 
ENDBRANCH   1  16
TORSDOF 3
ENDMDL
MODEL 2
REMARK VINA RESULT:      -7.8      0.950      1.902
REMARK  3 active torsions:
REMARK  status: ('A' for Active; 'I' for Inactive)
REMARK    1  A    between atoms: C_2  and  C_19 
REMARK    2  A    between atoms: C_8  and  C_9 
REMARK    3  A    between atoms: N_20  and  C_23 
ROOT
HETATM    1  C   UNL     1      -3.101  38.880  18.143  1.00  0.00    -0.025 C 
HETATM    2  C   UNL     1      -1.817  39.008  18.753  1.00  0.00    -0.025 C 
HETATM    3  C   UNL     1      -4.006  39.592  18.958  1.00  0.00     0.014 C 
HETATM    4  C   UNL     1      -3.274  40.335  19.882  1.00  0.00     0.031 C 
HETATM    5  C   UNL     1      -0.705  38.001  18.649  1.00  0.00     0.051 C 
HETATM    6  C   UNL     1      -1.889  40.159  19.584  1.00  0.00     0.038 C 
ENDROOT
BRANCH   6   7
HETATM    7  N   UNL     1      -0.919  41.108  19.870  1.00  0.00    -0.365 N 
HETATM    8  C   UNL     1       0.188  41.584  19.294  1.00  0.00     0.099 C 
ATOM      9  HN  UNL     1      -1.100  41.566  20.762  1.00  0.00     0.165 HD
BRANCH   8  10
HETATM   10  C   UNL     1       0.185  42.083  17.921  1.00  0.00    -0.021 A 
HETATM   11  C   UNL     1       0.147  41.209  16.826  1.00  0.00     0.013 A 
HETATM   12  C   UNL     1       0.116  41.729  15.534  1.00  0.00     0.001 A 
HETATM   13  C   UNL     1       0.178  43.107  15.317  1.00  0.00     0.000 A 
HETATM   14  C   UNL     1       0.200  43.986  16.400  1.00  0.00     0.001 A 
HETATM   15  C   UNL     1       0.207  43.466  17.697  1.00  0.00     0.013 A 
ENDBRANCH   8  10
ENDBRANCH   6   7
BRANCH   1  16
HETATM   16  C   UNL     1      -3.375  38.484  16.730  1.00  0.00    -0.064 C 
HETATM   17  C   UNL     1      -3.203  37.030  16.296  1.00  0.00     0.016 C 
HETATM   18  C   UNL     1      -1.715  36.758  16.033  1.00  0.00     0.010 C 
HETATM   19  C   UNL     1      -3.792  37.170  14.886  1.00  0.00     0.018 C 
HETATM   20  C   UNL     1      -1.482  37.542  14.739  1.00  0.00     0.010 C 
HETATM   21  C   UNL     1      -2.809  38.247  14.510  1.00  0.00    -0.040 C 
HETATM   22  C   UNL     1      -2.882  39.356  15.572  1.00  0.00     0.044 C 
HETATM   23  C   UNL     1      -3.023  38.776  13.097  1.00  0.00     0.015 C 
ENDBRANCH   1  16
TORSDOF 3
ENDMDL
MODEL 3
REMARK VINA RESULT:      -7.7      1.859      5.541
REMARK  3 active torsions:
REMARK  status: ('A' for Active; 'I' for Inactive)
REMARK    1  A    between atoms: C_2  and  C_19 
REMARK    2  A    between atoms: C_8  and  C_9 
REMARK    3  A    between atoms: N_20  and  C_23 
ROOT
HETATM    1  C   UNL     1      -1.319  38.870  19.098  1.00  0.00    -0.025 C 
HETATM    2  C   UNL     1      -2.098  38.399  17.998  1.00  0.00    -0.025 C 
HETATM    3  C   UNL     1      -0.625  37.751  19.606  1.00  0.00     0.014 C 
HETATM    4  C   UNL     1      -0.769  36.698  18.706  1.00  0.00     0.031 C 
HETATM    5  C   UNL     1      -3.398  39.001  17.538  1.00  0.00     0.051 C 
HETATM    6  C   UNL     1      -1.488  37.188  17.573  1.00  0.00     0.038 C 
ENDROOT
BRANCH   6   7
HETATM    7  N   UNL     1      -1.349  36.667  16.295  1.00  0.00    -0.365 N 
HETATM    8  C   UNL     1      -1.907  36.846  15.096  1.00  0.00     0.099 C 
ATOM      9  HN  UNL     1      -0.623  35.952  16.264  1.00  0.00     0.165 HD
BRANCH   8  10
HETATM   10  C   UNL     1      -2.003  38.169  14.484  1.00  0.00    -0.021 A 
HETATM   11  C   UNL     1      -1.096  39.190  14.803  1.00  0.00     0.013 A 
HETATM   12  C   UNL     1      -1.207  40.427  14.172  1.00  0.00     0.001 A 
HETATM   13  C   UNL     1      -2.243  40.680  13.271  1.00  0.00     0.000 A 
HETATM   14  C   UNL     1      -3.141  39.667  12.935  1.00  0.00     0.001 A 
HETATM   15  C   UNL     1      -3.016  38.417  13.548  1.00  0.00     0.013 A 
ENDBRANCH   8  10
ENDBRANCH   6   7
BRANCH   1  16
HETATM   16  C   UNL     1      -0.947  40.288  19.377  1.00  0.00    -0.064 C 
HETATM   17  C   UNL     1      -1.771  41.116  20.360  1.00  0.00     0.016 C 
HETATM   18  C   UNL     1      -3.028  41.637  19.647  1.00  0.00     0.010 C 
HETATM   19  C   UNL     1      -0.855  42.346  20.406  1.00  0.00     0.018 C 
HETATM   20  C   UNL     1      -2.435  42.691  18.709  1.00  0.00     0.010 C 
HETATM   21  C   UNL     1      -0.937  42.544  18.915  1.00  0.00    -0.040 C 
HETATM   22  C   UNL     1      -0.547  41.223  18.232  1.00  0.00     0.044 C 
HETATM   23  C   UNL     1      -0.100  43.722  18.429  1.00  0.00     0.015 C 
ENDBRANCH   1  16
TORSDOF 3
ENDMDL
MODEL 4
REMARK VINA RESULT:      -7.5      2.698      4.940
REMARK  3 active torsions:
REMARK  status: ('A' for Active; 'I' for Inactive)
REMARK    1  A    between atoms: C_2  and  C_19 
REMARK    2  A    between atoms: C_8  and  C_9 
REMARK    3  A    between atoms: N_20  and  C_23 
ROOT
HETATM    1  C   UNL     1      -2.326  39.446  14.121  1.00  0.00    -0.025 C 
HETATM    2  C   UNL     1      -1.875  39.143  15.441  1.00  0.00    -0.025 C 
HETATM    3  C   UNL     1      -3.116  38.354  13.705  1.00  0.00     0.014 C 
HETATM    4  C   UNL     1      -3.353  37.538  14.809  1.00  0.00     0.031 C 
HETATM    5  C   UNL     1      -0.593  39.639  16.053  1.00  0.00     0.051 C 
HETATM    6  C   UNL     1      -2.779  38.173  15.953  1.00  0.00     0.038 C 
ENDROOT
BRANCH   6   7
HETATM    7  N   UNL     1      -3.255  38.000  17.243  1.00  0.00    -0.365 N 
HETATM    8  C   UNL     1      -3.112  38.594  18.431  1.00  0.00     0.099 C 
ATOM      9  HN  UNL     1      -3.887  37.202  17.301  1.00  0.00     0.165 HD
BRANCH   8  10
HETATM   10  C   UNL     1      -3.330  40.028  18.603  1.00  0.00    -0.021 A 
HETATM   11  C   UNL     1      -4.171  40.748  17.744  1.00  0.00     0.013 A 
HETATM   12  C   UNL     1      -4.374  42.109  17.964  1.00  0.00     0.001 A 
HETATM   13  C   UNL     1      -3.706  42.773  18.995  1.00  0.00     0.000 A 
HETATM   14  C   UNL     1      -2.880  42.063  19.866  1.00  0.00     0.001 A 
HETATM   15  C   UNL     1      -2.695  40.693  19.661  1.00  0.00     0.013 A 
ENDBRANCH   8  10
ENDBRANCH   6   7
BRANCH   1  16
HETATM   16  C   UNL     1      -2.353  40.795  13.482  1.00  0.00    -0.064 C 
HETATM   17  C   UNL     1      -2.815  42.012  14.281  1.00  0.00     0.016 C 
HETATM   18  C   UNL     1      -4.351  42.044  14.301  1.00  0.00     0.010 C 
HETATM   19  C   UNL     1      -2.452  43.083  13.246  1.00  0.00     0.018 C 
HETATM   20  C   UNL     1      -4.669  42.431  12.855  1.00  0.00     0.010 C 
HETATM   21  C   UNL     1      -3.305  42.442  12.184  1.00  0.00    -0.040 C 
HETATM   22  C   UNL     1      -2.889  40.967  12.058  1.00  0.00     0.044 C 
HETATM   23  C   UNL     1      -3.248  43.181  10.852  1.00  0.00     0.015 C 
ENDBRANCH   1  16
TORSDOF 3
ENDMDL
MODEL 5
REMARK VINA RESULT:      -7.4      2.717      5.567
REMARK  3 active torsions:
REMARK  status: ('A' for Active; 'I' for Inactive)
REMARK    1  A    between atoms: C_2  and  C_19 
REMARK    2  A    between atoms: C_8  and  C_9 
REMARK    3  A    between atoms: N_20  and  C_23 
ROOT
HETATM    1  C   UNL     1      -2.623  39.556  13.589  1.00  0.00    -0.025 C 
HETATM    2  C   UNL     1      -1.610  39.126  14.498  1.00  0.00    -0.025 C 
HETATM    3  C   UNL     1      -3.102  38.396  12.944  1.00  0.00     0.014 C 
HETATM    4  C   UNL     1      -2.592  37.282  13.607  1.00  0.00     0.031 C 
HETATM    5  C   UNL     1      -0.434  39.955  14.939  1.00  0.00     0.051 C 
HETATM    6  C   UNL     1      -1.855  37.747  14.739  1.00  0.00     0.038 C 
ENDROOT
BRANCH   6   7
HETATM    7  N   UNL     1      -1.688  37.007  15.899  1.00  0.00    -0.365 N 
HETATM    8  C   UNL     1      -1.306  37.229  17.159  1.00  0.00     0.099 C 
ATOM      9  HN  UNL     1      -1.921  36.026  15.749  1.00  0.00     0.165 HD
BRANCH   8  10
HETATM   10  C   UNL     1      -1.927  38.266  17.978  1.00  0.00    -0.021 A 
HETATM   11  C   UNL     1      -1.180  39.020  18.894  1.00  0.00     0.013 A 
HETATM   12  C   UNL     1      -1.808  40.020  19.633  1.00  0.00     0.001 A 
HETATM   13  C   UNL     1      -3.182  40.242  19.512  1.00  0.00     0.000 A 
HETATM   14  C   UNL     1      -3.931  39.509  18.592  1.00  0.00     0.001 A 
HETATM   15  C   UNL     1      -3.297  38.522  17.833  1.00  0.00     0.013 A 
ENDBRANCH   8  10
ENDBRANCH   6   7
BRANCH   1  16
HETATM   16  C   UNL     1      -3.350  40.859  13.625  1.00  0.00    -0.064 C 
HETATM   17  C   UNL     1      -3.304  41.795  12.420  1.00  0.00     0.016 C 
HETATM   18  C   UNL     1      -1.987  42.584  12.448  1.00  0.00     0.010 C 
HETATM   19  C   UNL     1      -4.338  42.814  12.916  1.00  0.00     0.018 C 
HETATM   20  C   UNL     1      -2.223  43.535  13.625  1.00  0.00     0.010 C 
HETATM   21  C   UNL     1      -3.564  43.084  14.179  1.00  0.00    -0.040 C 
HETATM   22  C   UNL     1      -3.298  41.740  14.876  1.00  0.00     0.044 C 
HETATM   23  C   UNL     1      -4.255  44.090  15.093  1.00  0.00     0.015 C 
ENDBRANCH   1  16
TORSDOF 3
ENDMDL
MODEL 6
REMARK VINA RESULT:      -7.4      2.157      5.353
REMARK  3 active torsions:
REMARK  status: ('A' for Active; 'I' for Inactive)
REMARK    1  A    between atoms: C_2  and  C_19 
REMARK    2  A    between atoms: C_8  and  C_9 
REMARK    3  A    between atoms: N_20  and  C_23 
ROOT
HETATM    1  C   UNL     1      -1.701  41.607  17.725  1.00  0.00    -0.025 C 
HETATM    2  C   UNL     1      -1.950  40.496  18.585  1.00  0.00    -0.025 C 
HETATM    3  C   UNL     1      -0.300  41.748  17.647  1.00  0.00     0.014 C 
HETATM    4  C   UNL     1       0.288  40.624  18.223  1.00  0.00     0.031 C 
HETATM    5  C   UNL     1      -3.175  40.320  19.440  1.00  0.00     0.051 C 
HETATM    6  C   UNL     1      -0.758  39.722  18.586  1.00  0.00     0.038 C 
ENDROOT
BRANCH   6   7
HETATM    7  N   UNL     1      -0.594  38.347  18.648  1.00  0.00    -0.365 N 
HETATM    8  C   UNL     1      -1.306  37.258  18.346  1.00  0.00     0.099 C 
ATOM      9  HN  UNL     1       0.319  38.099  19.029  1.00  0.00     0.165 HD
BRANCH   8  10
HETATM   10  C   UNL     1      -1.896  37.070  17.023  1.00  0.00    -0.021 A 
HETATM   11  C   UNL     1      -1.135  36.604  15.942  1.00  0.00     0.013 A 
HETATM   12  C   UNL     1      -1.747  36.411  14.705  1.00  0.00     0.001 A 
HETATM   13  C   UNL     1      -3.093  36.730  14.516  1.00  0.00     0.000 A 
HETATM   14  C   UNL     1      -3.863  37.180  15.589  1.00  0.00     0.001 A 
HETATM   15  C   UNL     1      -3.257  37.350  16.836  1.00  0.00     0.013 A 
ENDBRANCH   8  10
ENDBRANCH   6   7
BRANCH   1  16
HETATM   16  C   UNL     1      -2.662  42.207  16.753  1.00  0.00    -0.064 C 
HETATM   17  C   UNL     1      -3.657  41.318  16.011  1.00  0.00     0.016 C 
HETATM   18  C   UNL     1      -2.945  40.655  14.822  1.00  0.00     0.010 C 
HETATM   19  C   UNL     1      -4.476  42.436  15.354  1.00  0.00     0.018 C 
HETATM   20  C   UNL     1      -2.758  41.842  13.874  1.00  0.00     0.010 C 
HETATM   21  C   UNL     1      -3.261  43.024  14.685  1.00  0.00    -0.040 C 
HETATM   22  C   UNL     1      -2.195  43.277  15.763  1.00  0.00     0.044 C 
HETATM   23  C   UNL     1      -3.580  44.274  13.873  1.00  0.00     0.015 C 
ENDBRANCH   1  16
TORSDOF 3
ENDMDL
MODEL 7
REMARK VINA RESULT:      -7.3      2.286      4.682
REMARK  3 active torsions:
REMARK  status: ('A' for Active; 'I' for Inactive)
REMARK    1  A    between atoms: C_2  and  C_19 
REMARK    2  A    between atoms: C_8  and  C_9 
REMARK    3  A    between atoms: N_20  and  C_23 
ROOT
HETATM    1  C   UNL     1      -3.205  39.259  15.846  1.00  0.00    -0.025 C 
HETATM    2  C   UNL     1      -3.249  40.449  15.060  1.00  0.00    -0.025 C 
HETATM    3  C   UNL     1      -3.014  38.190  14.946  1.00  0.00     0.014 C 
HETATM    4  C   UNL     1      -2.697  38.718  13.697  1.00  0.00     0.031 C 
HETATM    5  C   UNL     1      -4.001  41.700  15.423  1.00  0.00     0.051 C 
HETATM    6  C   UNL     1      -2.599  40.136  13.835  1.00  0.00     0.038 C 
ENDROOT
BRANCH   6   7
HETATM    7  N   UNL     1      -1.794  40.929  13.031  1.00  0.00    -0.365 N 
HETATM    8  C   UNL     1      -1.496  42.225  12.914  1.00  0.00     0.099 C 
ATOM      9  HN  UNL     1      -1.294  40.369  12.341  1.00  0.00     0.165 HD
BRANCH   8  10
HETATM   10  C   UNL     1      -1.035  43.013  14.055  1.00  0.00    -0.021 A 
HETATM   11  C   UNL     1      -0.132  42.487  14.989  1.00  0.00     0.013 A 
HETATM   12  C   UNL     1       0.305  43.284  16.045  1.00  0.00     0.001 A 
HETATM   13  C   UNL     1      -0.189  44.579  16.214  1.00  0.00     0.000 A 
HETATM   14  C   UNL     1      -1.075  45.117  15.282  1.00  0.00     0.001 A 
HETATM   15  C   UNL     1      -1.495  44.328  14.208  1.00  0.00     0.013 A 
ENDBRANCH   8  10
ENDBRANCH   6   7
BRANCH   1  16
HETATM   16  C   UNL     1      -2.955  39.177  17.315  1.00  0.00    -0.064 C 
HETATM   17  C   UNL     1      -2.236  40.316  18.035  1.00  0.00     0.016 C 
HETATM   18  C   UNL     1      -0.722  40.170  17.817  1.00  0.00     0.010 C 
HETATM   19  C   UNL     1      -2.438  39.809  19.468  1.00  0.00     0.018 C 
HETATM   20  C   UNL     1      -0.404  38.949  18.685  1.00  0.00     0.010 C 
HETATM   21  C   UNL     1      -1.770  38.494  19.168  1.00  0.00    -0.040 C 
HETATM   22  C   UNL     1      -2.462  37.871  17.945  1.00  0.00     0.044 C 
HETATM   23  C   UNL     1      -1.749  37.554  20.369  1.00  0.00     0.015 C 
ENDBRANCH   1  16
TORSDOF 3
ENDMDL
MODEL 8
REMARK VINA RESULT:      -7.3      1.539      5.744
REMARK  3 active torsions:
REMARK  status: ('A' for Active; 'I' for Inactive)
REMARK    1  A    between atoms: C_2  and  C_19 
REMARK    2  A    between atoms: C_8  and  C_9 
REMARK    3  A    between atoms: N_20  and  C_23 
ROOT
HETATM    1  C   UNL     1      -0.970  41.160  18.479  1.00  0.00    -0.025 C 
HETATM    2  C   UNL     1      -2.079  40.333  18.830  1.00  0.00    -0.025 C 
HETATM    3  C   UNL     1       0.171  40.332  18.496  1.00  0.00     0.014 C 
HETATM    4  C   UNL     1      -0.249  39.007  18.599  1.00  0.00     0.031 C 
HETATM    5  C   UNL     1      -3.329  40.806  19.519  1.00  0.00     0.051 C 
HETATM    6  C   UNL     1      -1.676  38.997  18.555  1.00  0.00     0.038 C 
ENDROOT
BRANCH   6   7
HETATM    7  N   UNL     1      -2.419  37.928  18.079  1.00  0.00    -0.365 N 
HETATM    8  C   UNL     1      -3.367  37.723  17.161  1.00  0.00     0.099 C 
ATOM      9  HN  UNL     1      -2.175  37.064  18.560  1.00  0.00     0.165 HD
BRANCH   8  10
HETATM   10  C   UNL     1      -3.198  38.150  15.774  1.00  0.00    -0.021 A 
HETATM   11  C   UNL     1      -3.000  37.223  14.742  1.00  0.00     0.013 A 
HETATM   12  C   UNL     1      -2.874  37.674  13.430  1.00  0.00     0.001 A 
HETATM   13  C   UNL     1      -2.885  39.040  13.139  1.00  0.00     0.000 A 
HETATM   14  C   UNL     1      -3.097  39.970  14.157  1.00  0.00     0.001 A 
HETATM   15  C   UNL     1      -3.249  39.517  15.470  1.00  0.00     0.013 A 
ENDBRANCH   8  10
ENDBRANCH   6   7
BRANCH   1  16
HETATM   16  C   UNL     1      -1.036  42.487  17.798  1.00  0.00    -0.064 C 
HETATM   17  C   UNL     1      -1.580  42.591  16.375  1.00  0.00     0.016 C 
HETATM   18  C   UNL     1      -0.475  42.193  15.386  1.00  0.00     0.010 C 
HETATM   19  C   UNL     1      -1.606  44.122  16.280  1.00  0.00     0.018 C 
HETATM   20  C   UNL     1       0.475  43.389  15.489  1.00  0.00     0.010 C 
HETATM   21  C   UNL     1      -0.137  44.232  16.594  1.00  0.00    -0.040 C 
HETATM   22  C   UNL     1       0.134  43.469  17.901  1.00  0.00     0.044 C 
HETATM   23  C   UNL     1       0.349  45.676  16.649  1.00  0.00     0.015 C 
ENDBRANCH   1  16
TORSDOF 3
ENDMDL
MODEL 9
REMARK VINA RESULT:      -7.2      2.035      4.848
REMARK  3 active torsions:
REMARK  status: ('A' for Active; 'I' for Inactive)
REMARK    1  A    between atoms: C_2  and  C_19 
REMARK    2  A    between atoms: C_8  and  C_9 
REMARK    3  A    between atoms: N_20  and  C_23 
ROOT
HETATM    1  C   UNL     1      -1.545  41.925  17.524  1.00  0.00    -0.025 C 
HETATM    2  C   UNL     1      -2.363  41.331  18.532  1.00  0.00    -0.025 C 
HETATM    3  C   UNL     1      -0.291  42.173  18.121  1.00  0.00     0.014 C 
HETATM    4  C   UNL     1      -0.256  41.531  19.356  1.00  0.00     0.031 C 
HETATM    5  C   UNL     1      -3.862  41.441  18.606  1.00  0.00     0.051 C 
HETATM    6  C   UNL     1      -1.471  40.793  19.499  1.00  0.00     0.038 C 
ENDROOT
BRANCH   6   7
HETATM    7  N   UNL     1      -1.580  39.640  20.260  1.00  0.00    -0.365 N 
HETATM    8  C   UNL     1      -2.071  38.407  20.111  1.00  0.00     0.099 C 
ATOM      9  HN  UNL     1      -1.175  39.768  21.187  1.00  0.00     0.165 HD
BRANCH   8  10
HETATM   10  C   UNL     1      -1.687  37.559  18.985  1.00  0.00    -0.021 A 
HETATM   11  C   UNL     1      -0.843  36.454  19.157  1.00  0.00     0.013 A 
HETATM   12  C   UNL     1      -0.527  35.655  18.060  1.00  0.00     0.001 A 
HETATM   13  C   UNL     1      -0.995  35.975  16.784  1.00  0.00     0.000 A 
HETATM   14  C   UNL     1      -1.848  37.063  16.605  1.00  0.00     0.001 A 
HETATM   15  C   UNL     1      -2.186  37.851  17.709  1.00  0.00     0.013 A 
ENDBRANCH   8  10
ENDBRANCH   6   7
BRANCH   1  16
HETATM   16  C   UNL     1      -1.782  41.880  16.052  1.00  0.00    -0.064 C 
HETATM   17  C   UNL     1      -2.262  43.128  15.314  1.00  0.00     0.016 C 
HETATM   18  C   UNL     1      -3.779  43.270  15.505  1.00  0.00     0.010 C 
HETATM   19  C   UNL     1      -2.134  42.581  13.887  1.00  0.00     0.018 C 
HETATM   20  C   UNL     1      -4.307  42.124  14.638  1.00  0.00     0.010 C 
HETATM   21  C   UNL     1      -3.043  41.417  14.181  1.00  0.00    -0.040 C 
HETATM   22  C   UNL     1      -2.501  40.685  15.419  1.00  0.00     0.044 C 
HETATM   23  C   UNL     1      -3.220  40.488  12.985  1.00  0.00     0.015 C 
ENDBRANCH   1  16
TORSDOF 3
ENDMDL
