MODEL 1
REMARK VINA RESULT:     -10.2      0.000      0.000
REMARK  4 active torsions:
REMARK  status: ('A' for Active; 'I' for Inactive)
REMARK    1  A    between atoms: C_5  and  C_7 
REMARK    2  A    between atoms: C_5  and  C_14 
REMARK    3  A    between atoms: C_8  and  C_20 
REMARK    4  A    between atoms: C_18  and  C_19 
ROOT
HETATM    1  C   UNL     1       8.117 -38.637  51.073  1.00  0.00    -0.044 C 
HETATM    2  C   UNL     1       8.020 -40.098  53.447  1.00  0.00     0.001 C 
HETATM    3  C   UNL     1       7.208 -40.478  52.382  1.00  0.00     0.013 C 
HETATM    4  C   UNL     1       7.322 -39.817  51.154  1.00  0.00    -0.018 C 
HETATM    5  C   UNL     1       8.798 -38.174  52.210  1.00  0.00     0.008 C 
HETATM    6  C   UNL     1       8.839 -38.978  53.351  1.00  0.00     0.001 C 
ENDROOT
BRANCH   1   7
HETATM    7  C   UNL     1       8.287 -37.896  49.774  1.00  0.00     0.066 C 
BRANCH   7   8
HETATM    8  C   UNL     1       9.612 -37.633  49.307  1.00  0.00    -0.021 C 
HETATM    9  C   UNL     1      10.167 -36.570  48.734  1.00  0.00     0.007 C 
BRANCH   9  10
HETATM   10  C   UNL     1      10.372 -36.338  47.291  1.00  0.00    -0.036 C 
HETATM   11  C   UNL     1       9.649 -37.159  46.436  1.00  0.00     0.011 C 
HETATM   12  C   UNL     1       9.126 -36.999  45.187  1.00  0.00     0.001 C 
HETATM   13  C   UNL     1       9.223 -35.828  44.425  1.00  0.00     0.000 C 
HETATM   14  C   UNL     1      10.233 -34.904  44.628  1.00  0.00     0.000 C 
HETATM   15  C   UNL     1      11.314 -34.970  45.490  1.00  0.00     0.001 C 
HETATM   16  C   UNL     1      11.340 -35.418  46.808  1.00  0.00     0.011 C 
ENDBRANCH   9  10
ENDBRANCH   7   8
ENDBRANCH   1   7
BRANCH   4  17
HETATM   17  C   UNL     1       6.671 -40.429  49.949  1.00  0.00    -0.010 A 
HETATM   18  C   UNL     1       7.407 -41.136  48.988  1.00  0.00     0.018 A 
HETATM   19  C   UNL     1       6.745 -41.597  47.851  1.00  0.00     0.062 A 
HETATM   20  C   UNL     1       5.396 -41.320  47.677  1.00  0.00     0.188 A 
HETATM   21  F   UNL     1       4.752 -41.783  46.605  1.00  0.00    -0.186 F 
HETATM   22  N   UNL     1       4.683 -40.641  48.616  1.00  0.00    -0.342 N 
HETATM   23  C   UNL     1       5.303 -40.264  49.747  1.00  0.00     0.102 A 
ATOM     24  HN  UNL     1       3.698 -40.422  48.465  1.00  0.00     0.167 HD
ENDBRANCH   4  17
TORSDOF 4
ENDMDL
MODEL 2
REMARK VINA RESULT:     -10.0      0.749      1.392
REMARK  4 active torsions:
REMARK  status: ('A' for Active; 'I' for Inactive)
REMARK    1  A    between atoms: C_5  and  C_7 
REMARK    2  A    between atoms: C_5  and  C_14 
REMARK    3  A    between atoms: C_8  and  C_20 
REMARK    4  A    between atoms: C_18  and  C_19 
ROOT
HETATM    1  C   UNL     1       8.096 -38.814  51.135  1.00  0.00    -0.044 C 
HETATM    2  C   UNL     1       8.279 -40.486  53.360  1.00  0.00     0.001 C 
HETATM    3  C   UNL     1       7.396 -40.814  52.335  1.00  0.00     0.013 C 
HETATM    4  C   UNL     1       7.369 -40.040  51.170  1.00  0.00    -0.018 C 
HETATM    5  C   UNL     1       8.853 -38.418  52.249  1.00  0.00     0.008 C 
HETATM    6  C   UNL     1       9.033 -39.318  53.302  1.00  0.00     0.001 C 
ENDROOT
BRANCH   1   7
HETATM    7  C   UNL     1       8.115 -37.952  49.902  1.00  0.00     0.066 C 
BRANCH   7   8
HETATM    8  C   UNL     1       9.325 -37.870  49.145  1.00  0.00    -0.021 C 
HETATM    9  C   UNL     1      10.214 -36.896  48.976  1.00  0.00     0.007 C 
BRANCH   9  10
HETATM   10  C   UNL     1      10.282 -35.933  47.859  1.00  0.00    -0.036 C 
HETATM   11  C   UNL     1      11.476 -35.237  47.731  1.00  0.00     0.011 C 
HETATM   12  C   UNL     1      12.158 -34.713  46.672  1.00  0.00     0.001 C 
HETATM   13  C   UNL     1      11.738 -34.786  45.338  1.00  0.00     0.000 C 
HETATM   14  C   UNL     1      10.408 -34.953  44.997  1.00  0.00     0.000 C 
HETATM   15  C   UNL     1       9.296 -34.998  45.821  1.00  0.00     0.001 C 
HETATM   16  C   UNL     1       9.155 -35.646  47.045  1.00  0.00     0.011 C 
ENDBRANCH   9  10
ENDBRANCH   7   8
ENDBRANCH   1   7
BRANCH   4  17
HETATM   17  C   UNL     1       6.643 -40.576  49.972  1.00  0.00    -0.010 A 
HETATM   18  C   UNL     1       7.308 -41.278  48.957  1.00  0.00     0.018 A 
HETATM   19  C   UNL     1       6.581 -41.666  47.832  1.00  0.00     0.062 A 
HETATM   20  C   UNL     1       5.240 -41.323  47.723  1.00  0.00     0.188 A 
HETATM   21  F   UNL     1       4.534 -41.716  46.663  1.00  0.00    -0.186 F 
HETATM   22  N   UNL     1       4.597 -40.648  48.715  1.00  0.00    -0.342 N 
HETATM   23  C   UNL     1       5.277 -40.343  49.833  1.00  0.00     0.102 A 
ATOM     24  HN  UNL     1       3.618 -40.380  48.612  1.00  0.00     0.167 HD
ENDBRANCH   4  17
TORSDOF 4
ENDMDL
MODEL 3
REMARK VINA RESULT:      -9.9      1.188      1.970
REMARK  4 active torsions:
REMARK  status: ('A' for Active; 'I' for Inactive)
REMARK    1  A    between atoms: C_5  and  C_7 
REMARK    2  A    between atoms: C_5  and  C_14 
REMARK    3  A    between atoms: C_8  and  C_20 
REMARK    4  A    between atoms: C_18  and  C_19 
ROOT
HETATM    1  C   UNL     1       7.376 -38.942  51.054  1.00  0.00    -0.044 C 
HETATM    2  C   UNL     1       7.086 -40.672  53.223  1.00  0.00     0.001 C 
HETATM    3  C   UNL     1       6.547 -41.031  51.991  1.00  0.00     0.013 C 
HETATM    4  C   UNL     1       6.774 -40.221  50.873  1.00  0.00    -0.018 C 
HETATM    5  C   UNL     1       7.763 -38.528  52.339  1.00  0.00     0.008 C 
HETATM    6  C   UNL     1       7.724 -39.447  53.389  1.00  0.00     0.001 C 
ENDROOT
BRANCH   1   7
HETATM    7  C   UNL     1       7.659 -38.038  49.885  1.00  0.00     0.066 C 
BRANCH   7   8
HETATM    8  C   UNL     1       8.985 -38.004  49.353  1.00  0.00    -0.021 C 
HETATM    9  C   UNL     1       9.913 -37.053  49.319  1.00  0.00     0.007 C 
BRANCH   9  10
HETATM   10  C   UNL     1      10.202 -36.127  48.207  1.00  0.00    -0.036 C 
HETATM   11  C   UNL     1      11.244 -35.233  48.417  1.00  0.00     0.011 C 
HETATM   12  C   UNL     1      12.152 -34.628  47.599  1.00  0.00     0.001 C 
HETATM   13  C   UNL     1      12.225 -34.813  46.213  1.00  0.00     0.000 C 
HETATM   14  C   UNL     1      11.133 -35.225  45.470  1.00  0.00     0.000 C 
HETATM   15  C   UNL     1       9.831 -35.443  45.884  1.00  0.00     0.001 C 
HETATM   16  C   UNL     1       9.387 -36.070  47.046  1.00  0.00     0.011 C 
ENDBRANCH   9  10
ENDBRANCH   7   8
ENDBRANCH   1   7
BRANCH   4  17
HETATM   17  C   UNL     1       6.452 -40.770  49.514  1.00  0.00    -0.010 A 
HETATM   18  C   UNL     1       5.165 -40.680  48.965  1.00  0.00     0.018 A 
HETATM   19  C   UNL     1       4.923 -41.294  47.737  1.00  0.00     0.062 A 
HETATM   20  C   UNL     1       5.936 -42.003  47.107  1.00  0.00     0.188 A 
HETATM   21  F   UNL     1       5.718 -42.567  45.919  1.00  0.00    -0.186 F 
HETATM   22  N   UNL     1       7.186 -42.080  47.640  1.00  0.00    -0.342 N 
HETATM   23  C   UNL     1       7.441 -41.424  48.784  1.00  0.00     0.102 A 
ATOM     24  HN  UNL     1       7.916 -42.625  47.179  1.00  0.00     0.167 HD
ENDBRANCH   4  17
TORSDOF 4
ENDMDL
MODEL 4
REMARK VINA RESULT:      -9.7      3.535      5.366
REMARK  4 active torsions:
REMARK  status: ('A' for Active; 'I' for Inactive)
REMARK    1  A    between atoms: C_5  and  C_7 
REMARK    2  A    between atoms: C_5  and  C_14 
REMARK    3  A    between atoms: C_8  and  C_20 
REMARK    4  A    between atoms: C_18  and  C_19 
ROOT
HETATM    1  C   UNL     1       5.566 -41.431  51.787  1.00  0.00    -0.044 C 
HETATM    2  C   UNL     1       5.787 -39.866  54.085  1.00  0.00     0.001 C 
HETATM    3  C   UNL     1       5.833 -41.252  54.201  1.00  0.00     0.013 C 
HETATM    4  C   UNL     1       5.826 -42.044  53.048  1.00  0.00    -0.018 C 
HETATM    5  C   UNL     1       5.356 -40.045  51.715  1.00  0.00     0.008 C 
HETATM    6  C   UNL     1       5.590 -39.262  52.847  1.00  0.00     0.001 C 
ENDROOT
BRANCH   1   7
HETATM    7  C   UNL     1       5.564 -42.233  50.514  1.00  0.00     0.066 C 
BRANCH   7   8
HETATM    8  C   UNL     1       6.454 -41.849  49.464  1.00  0.00    -0.021 C 
HETATM    9  C   UNL     1       7.775 -41.718  49.410  1.00  0.00     0.007 C 
BRANCH   9  10
HETATM   10  C   UNL     1       8.557 -40.476  49.569  1.00  0.00    -0.036 C 
HETATM   11  C   UNL     1       8.784 -39.750  48.407  1.00  0.00     0.011 C 
HETATM   12  C   UNL     1       8.949 -38.424  48.137  1.00  0.00     0.001 C 
HETATM   13  C   UNL     1       8.912 -37.403  49.095  1.00  0.00     0.000 C 
HETATM   14  C   UNL     1       9.186 -37.642  50.430  1.00  0.00     0.000 C 
HETATM   15  C   UNL     1       9.598 -38.816  51.038  1.00  0.00     0.001 C 
HETATM   16  C   UNL     1       9.145 -40.112  50.809  1.00  0.00     0.011 C 
ENDBRANCH   9  10
ENDBRANCH   7   8
ENDBRANCH   1   7
BRANCH   4  17
HETATM   17  C   UNL     1       6.179 -43.497  53.175  1.00  0.00    -0.010 A 
HETATM   18  C   UNL     1       7.447 -43.983  52.830  1.00  0.00     0.018 A 
HETATM   19  C   UNL     1       7.670 -45.359  52.890  1.00  0.00     0.062 A 
HETATM   20  C   UNL     1       6.635 -46.211  53.251  1.00  0.00     0.188 A 
HETATM   21  F   UNL     1       6.851 -47.524  53.339  1.00  0.00    -0.186 F 
HETATM   22  N   UNL     1       5.408 -45.733  53.595  1.00  0.00    -0.342 N 
HETATM   23  C   UNL     1       5.216 -44.403  53.612  1.00  0.00     0.102 A 
ATOM     24  HN  UNL     1       4.649 -46.371  53.834  1.00  0.00     0.167 HD
ENDBRANCH   4  17
TORSDOF 4
ENDMDL
MODEL 5
REMARK VINA RESULT:      -9.6      2.512      3.967
REMARK  4 active torsions:
REMARK  status: ('A' for Active; 'I' for Inactive)
REMARK    1  A    between atoms: C_5  and  C_7 
REMARK    2  A    between atoms: C_5  and  C_14 
REMARK    3  A    between atoms: C_8  and  C_20 
REMARK    4  A    between atoms: C_18  and  C_19 
ROOT
HETATM    1  C   UNL     1       7.064 -39.803  49.483  1.00  0.00    -0.044 C 
HETATM    2  C   UNL     1       5.747 -42.109  48.631  1.00  0.00     0.001 C 
HETATM    3  C   UNL     1       5.876 -41.866  49.995  1.00  0.00     0.013 C 
HETATM    4  C   UNL     1       6.444 -40.666  50.434  1.00  0.00    -0.018 C 
HETATM    5  C   UNL     1       7.068 -40.151  48.123  1.00  0.00     0.008 C 
HETATM    6  C   UNL     1       6.303 -41.239  47.698  1.00  0.00     0.001 C 
ENDROOT
BRANCH   1   7
HETATM    7  C   UNL     1       7.675 -38.492  49.899  1.00  0.00     0.066 C 
BRANCH   7   8
HETATM    8  C   UNL     1       9.085 -38.315  49.739  1.00  0.00    -0.021 C 
HETATM    9  C   UNL     1       9.827 -37.258  49.427  1.00  0.00     0.007 C 
BRANCH   9  10
HETATM   10  C   UNL     1      10.344 -36.892  48.094  1.00  0.00    -0.036 C 
HETATM   11  C   UNL     1       9.802 -37.587  47.021  1.00  0.00     0.011 C 
HETATM   12  C   UNL     1       9.564 -37.277  45.714  1.00  0.00     0.001 C 
HETATM   13  C   UNL     1       9.853 -36.041  45.122  1.00  0.00     0.000 C 
HETATM   14  C   UNL     1      10.818 -35.192  45.633  1.00  0.00     0.000 C 
HETATM   15  C   UNL     1      11.686 -35.396  46.692  1.00  0.00     0.001 C 
HETATM   16  C   UNL     1      11.416 -35.976  47.930  1.00  0.00     0.011 C 
ENDBRANCH   9  10
ENDBRANCH   7   8
ENDBRANCH   1   7
BRANCH   4  17
HETATM   17  C   UNL     1       6.299 -40.292  51.880  1.00  0.00    -0.010 A 
HETATM   18  C   UNL     1       7.404 -40.221  52.740  1.00  0.00     0.018 A 
HETATM   19  C   UNL     1       7.178 -39.956  54.091  1.00  0.00     0.062 A 
HETATM   20  C   UNL     1       5.879 -39.805  54.557  1.00  0.00     0.188 A 
HETATM   21  F   UNL     1       5.659 -39.523  55.841  1.00  0.00    -0.186 F 
HETATM   22  N   UNL     1       4.810 -39.866  53.716  1.00  0.00    -0.342 N 
HETATM   23  C   UNL     1       5.033 -40.044  52.403  1.00  0.00     0.102 A 
ATOM     24  HN  UNL     1       3.859 -39.779  54.076  1.00  0.00     0.167 HD
ENDBRANCH   4  17
TORSDOF 4
ENDMDL
MODEL 6
REMARK VINA RESULT:      -9.4      3.345      6.123
REMARK  4 active torsions:
REMARK  status: ('A' for Active; 'I' for Inactive)
REMARK    1  A    between atoms: C_5  and  C_7 
REMARK    2  A    between atoms: C_5  and  C_14 
REMARK    3  A    between atoms: C_8  and  C_20 
REMARK    4  A    between atoms: C_18  and  C_19 
ROOT
HETATM    1  C   UNL     1       7.326 -41.070  52.280  1.00  0.00    -0.044 C 
HETATM    2  C   UNL     1       5.031 -39.993  53.442  1.00  0.00     0.001 C 
HETATM    3  C   UNL     1       5.947 -39.141  52.833  1.00  0.00     0.013 C 
HETATM    4  C   UNL     1       7.049 -39.677  52.159  1.00  0.00    -0.018 C 
HETATM    5  C   UNL     1       6.475 -41.887  53.043  1.00  0.00     0.008 C 
HETATM    6  C   UNL     1       5.271 -41.361  53.514  1.00  0.00     0.001 C 
ENDROOT
BRANCH   1   7
HETATM    7  C   UNL     1       8.488 -41.702  51.563  1.00  0.00     0.066 C 
BRANCH   7   8
HETATM    8  C   UNL     1       8.317 -42.094  50.199  1.00  0.00    -0.021 C 
HETATM    9  C   UNL     1       7.677 -41.534  49.178  1.00  0.00     0.007 C 
BRANCH   9  10
HETATM   10  C   UNL     1       6.315 -41.842  48.700  1.00  0.00    -0.036 C 
HETATM   11  C   UNL     1       5.886 -41.125  47.591  1.00  0.00     0.011 C 
HETATM   12  C   UNL     1       5.037 -41.396  46.558  1.00  0.00     0.001 C 
HETATM   13  C   UNL     1       4.349 -42.604  46.387  1.00  0.00     0.000 C 
HETATM   14  C   UNL     1       4.071 -43.445  47.450  1.00  0.00     0.000 C 
HETATM   15  C   UNL     1       4.317 -43.255  48.799  1.00  0.00     0.001 C 
HETATM   16  C   UNL     1       5.454 -42.724  49.403  1.00  0.00     0.011 C 
ENDBRANCH   9  10
ENDBRANCH   7   8
ENDBRANCH   1   7
BRANCH   4  17
HETATM   17  C   UNL     1       7.847 -38.777  51.262  1.00  0.00    -0.010 A 
HETATM   18  C   UNL     1       7.392 -38.408  49.988  1.00  0.00     0.018 A 
HETATM   19  C   UNL     1       8.231 -37.643  49.179  1.00  0.00     0.062 A 
HETATM   20  C   UNL     1       9.497 -37.296  49.630  1.00  0.00     0.188 A 
HETATM   21  F   UNL     1      10.292 -36.540  48.871  1.00  0.00    -0.186 F 
HETATM   22  N   UNL     1       9.932 -37.649  50.870  1.00  0.00    -0.342 N 
HETATM   23  C   UNL     1       9.094 -38.320  51.679  1.00  0.00     0.102 A 
ATOM     24  HN  UNL     1      10.874 -37.410  51.180  1.00  0.00     0.167 HD
ENDBRANCH   4  17
TORSDOF 4
ENDMDL
MODEL 7
REMARK VINA RESULT:      -9.3      2.694      4.404
REMARK  4 active torsions:
REMARK  status: ('A' for Active; 'I' for Inactive)
REMARK    1  A    between atoms: C_5  and  C_7 
REMARK    2  A    between atoms: C_5  and  C_14 
REMARK    3  A    between atoms: C_8  and  C_20 
REMARK    4  A    between atoms: C_18  and  C_19 
ROOT
HETATM    1  C   UNL     1       7.286 -40.552  48.862  1.00  0.00    -0.044 C 
HETATM    2  C   UNL     1       4.726 -41.595  49.237  1.00  0.00     0.001 C 
HETATM    3  C   UNL     1       5.591 -41.511  50.325  1.00  0.00     0.013 C 
HETATM    4  C   UNL     1       6.839 -40.897  50.171  1.00  0.00    -0.018 C 
HETATM    5  C   UNL     1       6.460 -40.800  47.754  1.00  0.00     0.008 C 
HETATM    6  C   UNL     1       5.141 -41.206  47.968  1.00  0.00     0.001 C 
ENDROOT
BRANCH   1   7
HETATM    7  C   UNL     1       8.611 -39.874  48.642  1.00  0.00     0.066 C 
BRANCH   7   8
HETATM    8  C   UNL     1       8.785 -38.540  49.125  1.00  0.00    -0.021 C 
HETATM    9  C   UNL     1       8.521 -37.352  48.593  1.00  0.00     0.007 C 
BRANCH   9  10
HETATM   10  C   UNL     1       9.462 -36.462  47.884  1.00  0.00    -0.036 C 
HETATM   11  C   UNL     1      10.729 -36.352  48.441  1.00  0.00     0.011 C 
HETATM   12  C   UNL     1      11.973 -36.128  47.929  1.00  0.00     0.001 C 
HETATM   13  C   UNL     1      12.255 -35.946  46.569  1.00  0.00     0.000 C 
HETATM   14  C   UNL     1      11.297 -35.500  45.676  1.00  0.00     0.000 C 
HETATM   15  C   UNL     1       9.997 -35.095  45.923  1.00  0.00     0.001 C 
HETATM   16  C   UNL     1       9.059 -35.674  46.774  1.00  0.00     0.011 C 
ENDBRANCH   9  10
ENDBRANCH   7   8
ENDBRANCH   1   7
BRANCH   4  17
HETATM   17  C   UNL     1       7.621 -40.547  51.403  1.00  0.00    -0.010 A 
HETATM   18  C   UNL     1       7.262 -39.470  52.226  1.00  0.00     0.018 A 
HETATM   19  C   UNL     1       8.090 -39.153  53.302  1.00  0.00     0.062 A 
HETATM   20  C   UNL     1       9.256 -39.876  53.514  1.00  0.00     0.188 A 
HETATM   21  F   UNL     1      10.036 -39.595  54.558  1.00  0.00    -0.186 F 
HETATM   22  N   UNL     1       9.595 -40.926  52.717  1.00  0.00    -0.342 N 
HETATM   23  C   UNL     1       8.758 -41.281  51.728  1.00  0.00     0.102 A 
ATOM     24  HN  UNL     1      10.467 -41.434  52.868  1.00  0.00     0.167 HD
ENDBRANCH   4  17
TORSDOF 4
ENDMDL
MODEL 8
REMARK VINA RESULT:      -9.3      3.729      5.595
REMARK  4 active torsions:
REMARK  status: ('A' for Active; 'I' for Inactive)
REMARK    1  A    between atoms: C_5  and  C_7 
REMARK    2  A    between atoms: C_5  and  C_14 
REMARK    3  A    between atoms: C_8  and  C_20 
REMARK    4  A    between atoms: C_18  and  C_19 
ROOT
HETATM    1  C   UNL     1       5.907 -41.707  51.444  1.00  0.00    -0.044 C 
HETATM    2  C   UNL     1       4.650 -42.621  49.127  1.00  0.00     0.001 C 
HETATM    3  C   UNL     1       5.259 -43.540  49.977  1.00  0.00     0.013 C 
HETATM    4  C   UNL     1       5.803 -43.106  51.190  1.00  0.00    -0.018 C 
HETATM    5  C   UNL     1       5.434 -40.788  50.493  1.00  0.00     0.008 C 
HETATM    6  C   UNL     1       4.701 -41.258  49.401  1.00  0.00     0.001 C 
ENDROOT
BRANCH   1   7
HETATM    7  C   UNL     1       6.468 -41.187  52.739  1.00  0.00     0.066 C 
BRANCH   7   8
HETATM    8  C   UNL     1       7.797 -40.659  52.744  1.00  0.00    -0.021 C 
HETATM    9  C   UNL     1       8.287 -39.460  52.450  1.00  0.00     0.007 C 
BRANCH   9  10
HETATM   10  C   UNL     1       8.877 -39.025  51.169  1.00  0.00    -0.036 C 
HETATM   11  C   UNL     1       8.815 -39.945  50.130  1.00  0.00     0.011 C 
HETATM   12  C   UNL     1       8.725 -39.836  48.773  1.00  0.00     0.001 C 
HETATM   13  C   UNL     1       8.669 -38.626  48.072  1.00  0.00     0.000 C 
HETATM   14  C   UNL     1       9.169 -37.449  48.600  1.00  0.00     0.000 C 
HETATM   15  C   UNL     1       9.845 -37.247  49.791  1.00  0.00     0.001 C 
HETATM   16  C   UNL     1       9.574 -37.796  51.041  1.00  0.00     0.011 C 
ENDBRANCH   9  10
ENDBRANCH   7   8
ENDBRANCH   1   7
BRANCH   4  17
HETATM   17  C   UNL     1       6.176 -44.136  52.216  1.00  0.00    -0.010 A 
HETATM   18  C   UNL     1       7.490 -44.607  52.348  1.00  0.00     0.018 A 
HETATM   19  C   UNL     1       7.740 -45.630  53.263  1.00  0.00     0.062 A 
HETATM   20  C   UNL     1       6.692 -46.178  53.988  1.00  0.00     0.188 A 
HETATM   21  F   UNL     1       6.930 -47.136  54.885  1.00  0.00    -0.186 F 
HETATM   22  N   UNL     1       5.419 -45.712  53.863  1.00  0.00    -0.342 N 
HETATM   23  C   UNL     1       5.192 -44.675  53.040  1.00  0.00     0.102 A 
ATOM     24  HN  UNL     1       4.654 -46.140  54.385  1.00  0.00     0.167 HD
ENDBRANCH   4  17
TORSDOF 4
ENDMDL
MODEL 9
REMARK VINA RESULT:      -9.1      2.925      7.080
REMARK  4 active torsions:
REMARK  status: ('A' for Active; 'I' for Inactive)
REMARK    1  A    between atoms: C_5  and  C_7 
REMARK    2  A    between atoms: C_5  and  C_14 
REMARK    3  A    between atoms: C_8  and  C_20 
REMARK    4  A    between atoms: C_18  and  C_19 
ROOT
HETATM    1  C   UNL     1       6.686 -39.411  50.400  1.00  0.00    -0.044 C 
HETATM    2  C   UNL     1       8.925 -38.796  48.855  1.00  0.00     0.001 C 
HETATM    3  C   UNL     1       8.159 -39.911  48.526  1.00  0.00     0.013 C 
HETATM    4  C   UNL     1       6.978 -40.171  49.229  1.00  0.00    -0.018 C 
HETATM    5  C   UNL     1       7.564 -38.396  50.811  1.00  0.00     0.008 C 
HETATM    6  C   UNL     1       8.610 -38.019  49.965  1.00  0.00     0.001 C 
ENDROOT
BRANCH   1   7
HETATM    7  C   UNL     1       5.422 -39.639  51.184  1.00  0.00     0.066 C 
BRANCH   7   8
HETATM    8  C   UNL     1       5.503 -40.364  52.413  1.00  0.00    -0.021 C 
HETATM    9  C   UNL     1       6.366 -41.265  52.868  1.00  0.00     0.007 C 
BRANCH   9  10
HETATM   10  C   UNL     1       6.228 -42.734  52.829  1.00  0.00    -0.036 C 
HETATM   11  C   UNL     1       5.004 -43.239  53.250  1.00  0.00     0.011 C 
HETATM   12  C   UNL     1       4.271 -44.341  52.920  1.00  0.00     0.001 C 
HETATM   13  C   UNL     1       4.652 -45.299  51.972  1.00  0.00     0.000 C 
HETATM   14  C   UNL     1       5.977 -45.503  51.629  1.00  0.00     0.000 C 
HETATM   15  C   UNL     1       7.114 -44.917  52.158  1.00  0.00     0.001 C 
HETATM   16  C   UNL     1       7.318 -43.583  52.502  1.00  0.00     0.011 C 
ENDBRANCH   9  10
ENDBRANCH   7   8
ENDBRANCH   1   7
BRANCH   4  17
HETATM   17  C   UNL     1       6.022 -41.183  48.671  1.00  0.00    -0.010 A 
HETATM   18  C   UNL     1       5.719 -42.370  49.353  1.00  0.00     0.018 A 
HETATM   19  C   UNL     1       4.890 -43.302  48.729  1.00  0.00     0.062 A 
HETATM   20  C   UNL     1       4.419 -43.057  47.447  1.00  0.00     0.188 A 
HETATM   21  F   UNL     1       3.603 -43.931  46.856  1.00  0.00    -0.186 F 
HETATM   22  N   UNL     1       4.709 -41.899  46.792  1.00  0.00    -0.342 N 
HETATM   23  C   UNL     1       5.442 -40.968  47.424  1.00  0.00     0.102 A 
ATOM     24  HN  UNL     1       4.376 -41.742  45.840  1.00  0.00     0.167 HD
ENDBRANCH   4  17
TORSDOF 4
ENDMDL
