MODEL 1
REMARK VINA RESULT:      -6.8      0.000      0.000
REMARK  4 active torsions:
REMARK  status: ('A' for Active; 'I' for Inactive)
REMARK    1  A    between atoms: O_1  and  C_10 
REMARK    2  A    between atoms: O_3  and  C_17 
REMARK    3  A    between atoms: O_5  and  C_16 
REMARK    4  A    between atoms: C_7  and  O_13 
ROOT
HETATM    1  C   UNL     1     -57.721   2.464 -18.659  1.00  0.00     0.137 C 
HETATM    2  N   UNL     1     -57.543   1.716 -15.847  1.00  0.00    -0.328 N 
ATOM      3  HN  UNL     1     -57.370   1.618 -14.846  1.00  0.00     0.168 HD
HETATM    4  C   UNL     1     -56.745   2.954 -17.775  1.00  0.00     0.117 C 
HETATM    5  C   UNL     1     -58.507   0.902 -16.329  1.00  0.00     0.281 C 
HETATM    6  O   UNL     1     -59.515   0.614 -15.643  1.00  0.00    -0.265 OA
HETATM    7  C   UNL     1     -56.784   2.617 -16.448  1.00  0.00     0.130 C 
HETATM    8  C   UNL     1     -58.381   0.360 -17.653  1.00  0.00     0.171 C 
HETATM    9  C   UNL     1     -58.037   1.128 -18.757  1.00  0.00     0.141 C 
ENDROOT
BRANCH   1  10
HETATM   10  O   UNL     1     -58.458   3.399 -19.297  1.00  0.00    -0.356 OA
ATOM     11  HO  UNL     1     -58.746   4.132 -18.765  1.00  0.00     0.218 HD
ENDBRANCH   1  10
BRANCH   4  12
HETATM   12  O   UNL     1     -55.781   3.796 -18.260  1.00  0.00    -0.357 OA
ATOM     13  HO  UNL     1     -56.022   4.688 -18.481  1.00  0.00     0.218 HD
ENDBRANCH   4  12
BRANCH   9  14
HETATM   14  O   UNL     1     -57.852   0.514 -19.948  1.00  0.00    -0.355 OA
ATOM     15  HO  UNL     1     -56.987   0.175 -20.147  1.00  0.00     0.218 HD
ENDBRANCH   9  14
BRANCH   8  16
HETATM   16  O   UNL     1     -58.913  -0.883 -17.824  1.00  0.00    -0.354 OA
ATOM     17  HO  UNL     1     -58.928  -1.428 -17.046  1.00  0.00     0.218 HD
ENDBRANCH   8  16
TORSDOF 4
ENDMDL
MODEL 2
REMARK VINA RESULT:      -6.5      1.923      3.302
REMARK  4 active torsions:
REMARK  status: ('A' for Active; 'I' for Inactive)
REMARK    1  A    between atoms: O_1  and  C_10 
REMARK    2  A    between atoms: O_3  and  C_17 
REMARK    3  A    between atoms: O_5  and  C_16 
REMARK    4  A    between atoms: C_7  and  O_13 
ROOT
HETATM    1  C   UNL     1     -57.761   0.302 -18.030  1.00  0.00     0.137 C 
HETATM    2  N   UNL     1     -57.243   3.172 -18.004  1.00  0.00    -0.328 N 
ATOM      3  HN  UNL     1     -57.143   4.172 -18.176  1.00  0.00     0.168 HD
HETATM    4  C   UNL     1     -57.725   1.106 -19.182  1.00  0.00     0.117 C 
HETATM    5  C   UNL     1     -57.029   2.800 -16.723  1.00  0.00     0.281 C 
HETATM    6  O   UNL     1     -57.369   3.539 -15.769  1.00  0.00    -0.265 OA
HETATM    7  C   UNL     1     -57.559   2.462 -19.074  1.00  0.00     0.130 C 
HETATM    8  C   UNL     1     -56.405   1.537 -16.444  1.00  0.00     0.171 C 
HETATM    9  C   UNL     1     -56.791   0.352 -17.054  1.00  0.00     0.141 C 
ENDROOT
BRANCH   1  10
HETATM   10  O   UNL     1     -58.894  -0.410 -17.845  1.00  0.00    -0.356 OA
ATOM     11  HO  UNL     1     -58.862  -1.067 -17.161  1.00  0.00     0.218 HD
ENDBRANCH   1  10
BRANCH   4  12
HETATM   12  O   UNL     1     -57.892   0.512 -20.404  1.00  0.00    -0.357 OA
ATOM     13  HO  UNL     1     -58.689   0.022 -20.570  1.00  0.00     0.218 HD
ENDBRANCH   4  12
BRANCH   9  14
HETATM   14  O   UNL     1     -56.086  -0.774 -16.799  1.00  0.00    -0.355 OA
ATOM     15  HO  UNL     1     -55.158  -0.776 -17.001  1.00  0.00     0.218 HD
ENDBRANCH   9  14
BRANCH   8  16
HETATM   16  O   UNL     1     -55.623   1.509 -15.330  1.00  0.00    -0.354 OA
ATOM     17  HO  UNL     1     -55.542   0.659 -14.912  1.00  0.00     0.218 HD
ENDBRANCH   8  16
TORSDOF 4
ENDMDL
MODEL 3
REMARK VINA RESULT:      -6.4      1.338      3.417
REMARK  4 active torsions:
REMARK  status: ('A' for Active; 'I' for Inactive)
REMARK    1  A    between atoms: O_1  and  C_10 
REMARK    2  A    between atoms: O_3  and  C_17 
REMARK    3  A    between atoms: O_5  and  C_16 
REMARK    4  A    between atoms: C_7  and  O_13 
ROOT
HETATM    1  C   UNL     1     -57.183   0.407 -17.098  1.00  0.00     0.137 C 
HETATM    2  N   UNL     1     -57.263   3.191 -16.236  1.00  0.00    -0.328 N 
ATOM      3  HN  UNL     1     -57.289   4.088 -15.751  1.00  0.00     0.168 HD
HETATM    4  C   UNL     1     -57.563   0.820 -15.811  1.00  0.00     0.117 C 
HETATM    5  C   UNL     1     -57.003   3.278 -17.558  1.00  0.00     0.281 C 
HETATM    6  O   UNL     1     -56.220   4.147 -18.008  1.00  0.00    -0.265 OA
HETATM    7  C   UNL     1     -57.491   2.143 -15.461  1.00  0.00     0.130 C 
HETATM    8  C   UNL     1     -57.628   2.358 -18.467  1.00  0.00     0.171 C 
HETATM    9  C   UNL     1     -57.674   0.989 -18.245  1.00  0.00     0.141 C 
ENDROOT
BRANCH   1  10
HETATM   10  O   UNL     1     -56.174  -0.490 -17.154  1.00  0.00    -0.356 OA
ATOM     11  HO  UNL     1     -55.946  -0.906 -16.331  1.00  0.00     0.218 HD
ENDBRANCH   1  10
BRANCH   4  12
HETATM   12  O   UNL     1     -57.972  -0.125 -14.909  1.00  0.00    -0.357 OA
ATOM     13  HO  UNL     1     -58.609   0.119 -14.248  1.00  0.00     0.218 HD
ENDBRANCH   4  12
BRANCH   9  14
HETATM   14  O   UNL     1     -58.364   0.210 -19.110  1.00  0.00    -0.355 OA
ATOM     15  HO  UNL     1     -57.873  -0.286 -19.754  1.00  0.00     0.218 HD
ENDBRANCH   9  14
BRANCH   8  16
HETATM   16  O   UNL     1     -57.904   2.860 -19.703  1.00  0.00    -0.354 OA
ATOM     17  HO  UNL     1     -57.620   2.321 -20.432  1.00  0.00     0.218 HD
ENDBRANCH   8  16
TORSDOF 4
ENDMDL
MODEL 4
REMARK VINA RESULT:      -6.4      2.092      3.250
REMARK  4 active torsions:
REMARK  status: ('A' for Active; 'I' for Inactive)
REMARK    1  A    between atoms: O_1  and  C_10 
REMARK    2  A    between atoms: O_3  and  C_17 
REMARK    3  A    between atoms: O_5  and  C_16 
REMARK    4  A    between atoms: C_7  and  O_13 
ROOT
HETATM    1  C   UNL     1     -55.972   1.010 -16.177  1.00  0.00     0.137 C 
HETATM    2  N   UNL     1     -57.548   3.189 -17.305  1.00  0.00    -0.328 N 
ATOM      3  HN  UNL     1     -58.039   4.052 -17.539  1.00  0.00     0.168 HD
HETATM    4  C   UNL     1     -56.410   2.125 -15.443  1.00  0.00     0.117 C 
HETATM    5  C   UNL     1     -57.495   2.286 -18.307  1.00  0.00     0.281 C 
HETATM    6  O   UNL     1     -57.386   2.650 -19.502  1.00  0.00    -0.265 OA
HETATM    7  C   UNL     1     -57.074   3.147 -16.071  1.00  0.00     0.130 C 
HETATM    8  C   UNL     1     -57.560   0.884 -18.005  1.00  0.00     0.171 C 
HETATM    9  C   UNL     1     -56.801   0.289 -17.006  1.00  0.00     0.141 C 
ENDROOT
BRANCH   1  10
HETATM   10  O   UNL     1     -54.641   0.779 -16.156  1.00  0.00    -0.356 OA
ATOM     11  HO  UNL     1     -54.202   0.817 -16.997  1.00  0.00     0.218 HD
ENDBRANCH   1  10
BRANCH   4  12
HETATM   12  O   UNL     1     -56.132   2.183 -14.104  1.00  0.00    -0.357 OA
ATOM     13  HO  UNL     1     -55.269   1.921 -13.805  1.00  0.00     0.218 HD
ENDBRANCH   4  12
BRANCH   9  14
HETATM   14  O   UNL     1     -56.995  -1.021 -16.731  1.00  0.00    -0.355 OA
ATOM     15  HO  UNL     1     -56.854  -1.316 -15.839  1.00  0.00     0.218 HD
ENDBRANCH   9  14
BRANCH   8  16
HETATM   16  O   UNL     1     -58.174   0.114 -18.946  1.00  0.00    -0.354 OA
ATOM     17  HO  UNL     1     -57.990   0.352 -19.848  1.00  0.00     0.218 HD
ENDBRANCH   8  16
TORSDOF 4
ENDMDL
MODEL 5
REMARK VINA RESULT:      -6.4      1.839      3.132
REMARK  4 active torsions:
REMARK  status: ('A' for Active; 'I' for Inactive)
REMARK    1  A    between atoms: O_1  and  C_10 
REMARK    2  A    between atoms: O_3  and  C_17 
REMARK    3  A    between atoms: O_5  and  C_16 
REMARK    4  A    between atoms: C_7  and  O_13 
ROOT
HETATM    1  C   UNL     1     -56.914   3.118 -17.729  1.00  0.00     0.137 C 
HETATM    2  N   UNL     1     -57.524   0.304 -18.191  1.00  0.00    -0.328 N 
ATOM      3  HN  UNL     1     -57.795  -0.618 -18.533  1.00  0.00     0.168 HD
HETATM    4  C   UNL     1     -57.763   2.654 -18.747  1.00  0.00     0.117 C 
HETATM    5  C   UNL     1     -56.815   0.288 -17.043  1.00  0.00     0.281 C 
HETATM    6  O   UNL     1     -55.995  -0.629 -16.800  1.00  0.00    -0.265 OA
HETATM    7  C   UNL     1     -57.929   1.309 -18.950  1.00  0.00     0.130 C 
HETATM    8  C   UNL     1     -56.995   1.340 -16.082  1.00  0.00     0.171 C 
HETATM    9  C   UNL     1     -57.007   2.685 -16.425  1.00  0.00     0.141 C 
ENDROOT
BRANCH   1  10
HETATM   10  O   UNL     1     -55.883   3.893 -18.130  1.00  0.00    -0.356 OA
ATOM     11  HO  UNL     1     -55.032   3.662 -17.779  1.00  0.00     0.218 HD
ENDBRANCH   1  10
BRANCH   4  12
HETATM   12  O   UNL     1     -58.390   3.570 -19.549  1.00  0.00    -0.357 OA
ATOM     13  HO  UNL     1     -57.860   4.162 -20.069  1.00  0.00     0.218 HD
ENDBRANCH   4  12
BRANCH   9  14
HETATM   14  O   UNL     1     -57.274   3.601 -15.467  1.00  0.00    -0.355 OA
ATOM     15  HO  UNL     1     -58.175   3.698 -15.180  1.00  0.00     0.218 HD
ENDBRANCH   9  14
BRANCH   8  16
HETATM   16  O   UNL     1     -56.848   0.968 -14.780  1.00  0.00    -0.354 OA
ATOM     17  HO  UNL     1     -55.981   1.102 -14.414  1.00  0.00     0.218 HD
ENDBRANCH   8  16
TORSDOF 4
ENDMDL
MODEL 6
REMARK VINA RESULT:      -6.2      1.545      2.929
REMARK  4 active torsions:
REMARK  status: ('A' for Active; 'I' for Inactive)
REMARK    1  A    between atoms: O_1  and  C_10 
REMARK    2  A    between atoms: O_3  and  C_17 
REMARK    3  A    between atoms: O_5  and  C_16 
REMARK    4  A    between atoms: C_7  and  O_13 
ROOT
HETATM    1  C   UNL     1     -56.336   1.963 -16.690  1.00  0.00     0.137 C 
HETATM    2  N   UNL     1     -58.552   1.303 -18.467  1.00  0.00    -0.328 N 
ATOM      3  HN  UNL     1     -59.236   1.195 -19.216  1.00  0.00     0.168 HD
HETATM    4  C   UNL     1     -56.701   2.729 -17.809  1.00  0.00     0.117 C 
HETATM    5  C   UNL     1     -58.669   0.402 -17.468  1.00  0.00     0.281 C 
HETATM    6  O   UNL     1     -59.021  -0.779 -17.699  1.00  0.00    -0.265 OA
HETATM    7  C   UNL     1     -57.702   2.302 -18.642  1.00  0.00     0.130 C 
HETATM    8  C   UNL     1     -58.384   0.797 -16.117  1.00  0.00     0.171 C 
HETATM    9  C   UNL     1     -57.249   1.514 -15.762  1.00  0.00     0.141 C 
ENDROOT
BRANCH   1  10
HETATM   10  O   UNL     1     -55.052   1.544 -16.657  1.00  0.00    -0.356 OA
ATOM     11  HO  UNL     1     -54.907   0.639 -16.907  1.00  0.00     0.218 HD
ENDBRANCH   1  10
BRANCH   4  12
HETATM   12  O   UNL     1     -56.017   3.886 -18.066  1.00  0.00    -0.357 OA
ATOM     13  HO  UNL     1     -55.091   3.927 -17.856  1.00  0.00     0.218 HD
ENDBRANCH   4  12
BRANCH   9  14
HETATM   14  O   UNL     1     -57.109   1.922 -14.480  1.00  0.00    -0.355 OA
ATOM     15  HO  UNL     1     -56.266   1.796 -14.060  1.00  0.00     0.218 HD
ENDBRANCH   9  14
BRANCH   8  16
HETATM   16  O   UNL     1     -59.126   0.173 -15.160  1.00  0.00    -0.354 OA
ATOM     17  HO  UNL     1     -59.809  -0.401 -15.487  1.00  0.00     0.218 HD
ENDBRANCH   8  16
TORSDOF 4
ENDMDL
MODEL 7
REMARK VINA RESULT:      -6.1      1.273      1.700
REMARK  4 active torsions:
REMARK  status: ('A' for Active; 'I' for Inactive)
REMARK    1  A    between atoms: O_1  and  C_10 
REMARK    2  A    between atoms: O_3  and  C_17 
REMARK    3  A    between atoms: O_5  and  C_16 
REMARK    4  A    between atoms: C_7  and  O_13 
ROOT
HETATM    1  C   UNL     1     -57.511   3.719 -19.259  1.00  0.00     0.137 C 
HETATM    2  N   UNL     1     -57.449   1.933 -16.955  1.00  0.00    -0.328 N 
ATOM      3  HN  UNL     1     -57.358   1.467 -16.052  1.00  0.00     0.168 HD
HETATM    4  C   UNL     1     -56.760   3.960 -18.097  1.00  0.00     0.117 C 
HETATM    5  C   UNL     1     -58.157   1.240 -17.872  1.00  0.00     0.281 C 
HETATM    6  O   UNL     1     -59.139   0.537 -17.536  1.00  0.00    -0.265 OA
HETATM    7  C   UNL     1     -56.853   3.112 -17.025  1.00  0.00     0.130 C 
HETATM    8  C   UNL     1     -57.785   1.309 -19.257  1.00  0.00     0.171 C 
HETATM    9  C   UNL     1     -57.513   2.505 -19.909  1.00  0.00     0.141 C 
ENDROOT
BRANCH   1  10
HETATM   10  O   UNL     1     -58.371   4.697 -19.617  1.00  0.00    -0.356 OA
ATOM     11  HO  UNL     1     -58.564   4.759 -20.545  1.00  0.00     0.218 HD
ENDBRANCH   1  10
BRANCH   4  12
HETATM   12  O   UNL     1     -55.962   5.072 -18.048  1.00  0.00    -0.357 OA
ATOM     13  HO  UNL     1     -55.246   5.149 -18.666  1.00  0.00     0.218 HD
ENDBRANCH   4  12
BRANCH   9  14
HETATM   14  O   UNL     1     -57.081   2.467 -21.190  1.00  0.00    -0.355 OA
ATOM     15  HO  UNL     1     -57.604   1.991 -21.825  1.00  0.00     0.218 HD
ENDBRANCH   9  14
BRANCH   8  16
HETATM   16  O   UNL     1     -58.010   0.175 -19.977  1.00  0.00    -0.354 OA
ATOM     17  HO  UNL     1     -57.604  -0.612 -19.631  1.00  0.00     0.218 HD
ENDBRANCH   8  16
TORSDOF 4
ENDMDL
MODEL 8
REMARK VINA RESULT:      -5.9      1.351      3.542
REMARK  4 active torsions:
REMARK  status: ('A' for Active; 'I' for Inactive)
REMARK    1  A    between atoms: O_1  and  C_10 
REMARK    2  A    between atoms: O_3  and  C_17 
REMARK    3  A    between atoms: O_5  and  C_16 
REMARK    4  A    between atoms: C_7  and  O_13 
ROOT
HETATM    1  C   UNL     1     -58.020   0.691 -18.542  1.00  0.00     0.137 C 
HETATM    2  N   UNL     1     -56.662   0.256 -15.999  1.00  0.00    -0.328 N 
ATOM      3  HN  UNL     1     -56.286  -0.069 -15.107  1.00  0.00     0.168 HD
HETATM    4  C   UNL     1     -58.441  -0.236 -17.574  1.00  0.00     0.117 C 
HETATM    5  C   UNL     1     -56.016   1.320 -16.523  1.00  0.00     0.281 C 
HETATM    6  O   UNL     1     -54.778   1.458 -16.387  1.00  0.00    -0.265 OA
HETATM    7  C   UNL     1     -57.696  -0.439 -16.442  1.00  0.00     0.130 C 
HETATM    8  C   UNL     1     -56.757   2.310 -17.253  1.00  0.00     0.171 C 
HETATM    9  C   UNL     1     -57.685   1.991 -18.235  1.00  0.00     0.141 C 
ENDROOT
BRANCH   1  10
HETATM   10  O   UNL     1     -57.800   0.192 -19.778  1.00  0.00    -0.356 OA
ATOM     11  HO  UNL     1     -57.670   0.834 -20.465  1.00  0.00     0.218 HD
ENDBRANCH   1  10
BRANCH   4  12
HETATM   12  O   UNL     1     -59.587  -0.951 -17.801  1.00  0.00    -0.357 OA
ATOM     13  HO  UNL     1     -60.407  -0.482 -17.897  1.00  0.00     0.218 HD
ENDBRANCH   4  12
BRANCH   9  14
HETATM   14  O   UNL     1     -58.401   2.986 -18.805  1.00  0.00    -0.355 OA
ATOM     15  HO  UNL     1     -59.203   3.262 -18.377  1.00  0.00     0.218 HD
ENDBRANCH   9  14
BRANCH   8  16
HETATM   16  O   UNL     1     -56.283   3.583 -17.149  1.00  0.00    -0.354 OA
ATOM     17  HO  UNL     1     -55.517   3.686 -16.596  1.00  0.00     0.218 HD
ENDBRANCH   8  16
TORSDOF 4
ENDMDL
MODEL 9
REMARK VINA RESULT:      -5.9      2.069      3.209
REMARK  4 active torsions:
REMARK  status: ('A' for Active; 'I' for Inactive)
REMARK    1  A    between atoms: O_1  and  C_10 
REMARK    2  A    between atoms: O_3  and  C_17 
REMARK    3  A    between atoms: O_5  and  C_16 
REMARK    4  A    between atoms: C_7  and  O_13 
ROOT
HETATM    1  C   UNL     1     -56.175   2.148 -16.223  1.00  0.00     0.137 C 
HETATM    2  N   UNL     1     -57.536  -0.169 -17.356  1.00  0.00    -0.328 N 
ATOM      3  HN  UNL     1     -57.890  -1.084 -17.635  1.00  0.00     0.168 HD
HETATM    4  C   UNL     1     -55.662   0.841 -16.191  1.00  0.00     0.117 C 
HETATM    5  C   UNL     1     -58.303   0.871 -17.749  1.00  0.00     0.281 C 
HETATM    6  O   UNL     1     -59.552   0.776 -17.791  1.00  0.00    -0.265 OA
HETATM    7  C   UNL     1     -56.406  -0.205 -16.671  1.00  0.00     0.130 C 
HETATM    8  C   UNL     1     -57.681   2.110 -18.123  1.00  0.00     0.171 C 
HETATM    9  C   UNL     1     -56.691   2.720 -17.365  1.00  0.00     0.141 C 
ENDROOT
BRANCH   1  10
HETATM   10  O   UNL     1     -56.291   2.764 -15.027  1.00  0.00    -0.356 OA
ATOM     11  HO  UNL     1     -56.522   3.685 -15.057  1.00  0.00     0.218 HD
ENDBRANCH   1  10
BRANCH   4  12
HETATM   12  O   UNL     1     -54.425   0.633 -15.642  1.00  0.00    -0.357 OA
ATOM     13  HO  UNL     1     -54.319  -0.063 -15.004  1.00  0.00     0.218 HD
ENDBRANCH   4  12
BRANCH   9  14
HETATM   14  O   UNL     1     -56.098   3.838 -17.842  1.00  0.00    -0.355 OA
ATOM     15  HO  UNL     1     -55.184   3.786 -18.095  1.00  0.00     0.218 HD
ENDBRANCH   9  14
BRANCH   8  16
HETATM   16  O   UNL     1     -58.324   2.811 -19.098  1.00  0.00    -0.354 OA
ATOM     17  HO  UNL     1     -59.192   2.494 -19.320  1.00  0.00     0.218 HD
ENDBRANCH   8  16
TORSDOF 4
ENDMDL
