MODEL 1
REMARK VINA RESULT:      -6.8      0.000      0.000
REMARK  5 active torsions:
REMARK  status: ('A' for Active; 'I' for Inactive)
REMARK    1  A    between atoms: N_2  and  C_12 
REMARK    2  A    between atoms: O_6  and  C_10 
REMARK    3  A    between atoms: C_8  and  C_12 
REMARK    4  A    between atoms: C_8  and  C_14 
REMARK    5  A    between atoms: C_13  and  C_14 
ROOT
HETATM    1  C   UNL     1     -56.659   2.307 -17.439  1.00  0.00     0.041 C 
HETATM    2  C   UNL     1     -56.144   1.351 -16.361  1.00  0.00     0.036 C 
HETATM    3  C   UNL     1     -56.882   0.025 -16.204  1.00  0.00     0.118 C 
HETATM    4  C   UNL     1     -57.681   1.721 -18.374  1.00  0.00    -0.030 C 
HETATM    5  C   UNL     1     -58.733   0.810 -17.832  1.00  0.00     0.041 C 
HETATM    6  C   UNL     1     -58.380   0.083 -16.538  1.00  0.00     0.036 C 
ENDROOT
BRANCH   4   7
HETATM    7  C   UNL     1     -57.517   1.961 -19.822  1.00  0.00     0.172 C 
HETATM    8  O   UNL     1     -57.573   1.050 -20.615  1.00  0.00    -0.289 OA
BRANCH   7   9
HETATM    9  C   UNL     1     -57.261   3.379 -20.310  1.00  0.00     0.055 C 
BRANCH   9  10
HETATM   10  C   UNL     1     -56.719   3.808 -21.656  1.00  0.00     0.261 C 
BRANCH  10  11
HETATM   11  N   UNL     1     -55.664   4.806 -21.655  1.00  0.00    -0.076 N 
ATOM     12  HN3 UNL     1     -55.591   5.222 -20.726  1.00  0.00     0.274 HD
ATOM     13  HN2 UNL     1     -54.758   4.343 -21.727  1.00  0.00     0.274 HD
ATOM     14  HN1 UNL     1     -55.725   5.546 -22.355  1.00  0.00     0.274 HD
ENDBRANCH  10  11
ENDBRANCH   9  10
ENDBRANCH   7   9
ENDBRANCH   4   7
BRANCH   3  15
HETATM   15  O   UNL     1     -56.237  -0.992 -16.966  1.00  0.00    -0.396 OA
ATOM     16  HO  UNL     1     -56.141  -1.781 -16.446  1.00  0.00     0.210 HD
ENDBRANCH   3  15
TORSDOF 5
ENDMDL
MODEL 2
REMARK VINA RESULT:      -6.6      1.406      1.418
REMARK  5 active torsions:
REMARK  status: ('A' for Active; 'I' for Inactive)
REMARK    1  A    between atoms: N_2  and  C_12 
REMARK    2  A    between atoms: O_6  and  C_10 
REMARK    3  A    between atoms: C_8  and  C_12 
REMARK    4  A    between atoms: C_8  and  C_14 
REMARK    5  A    between atoms: C_13  and  C_14 
ROOT
HETATM    1  C   UNL     1     -57.257   2.445 -16.247  1.00  0.00     0.041 C 
HETATM    2  C   UNL     1     -56.965   1.144 -15.495  1.00  0.00     0.036 C 
HETATM    3  C   UNL     1     -57.373  -0.156 -16.181  1.00  0.00     0.118 C 
HETATM    4  C   UNL     1     -57.693   2.271 -17.676  1.00  0.00    -0.030 C 
HETATM    5  C   UNL     1     -58.623   1.156 -18.028  1.00  0.00     0.041 C 
HETATM    6  C   UNL     1     -58.610  -0.042 -17.083  1.00  0.00     0.036 C 
ENDROOT
BRANCH   4   7
HETATM    7  C   UNL     1     -57.069   3.128 -18.703  1.00  0.00     0.172 C 
HETATM    8  O   UNL     1     -56.380   4.073 -18.393  1.00  0.00    -0.289 OA
BRANCH   7   9
HETATM    9  C   UNL     1     -57.315   2.816 -20.172  1.00  0.00     0.055 C 
BRANCH   9  10
HETATM   10  C   UNL     1     -57.048   3.710 -21.363  1.00  0.00     0.261 C 
BRANCH  10  11
HETATM   11  N   UNL     1     -55.986   4.691 -21.226  1.00  0.00    -0.076 N 
ATOM     12  HN3 UNL     1     -55.162   4.246 -20.821  1.00  0.00     0.274 HD
ATOM     13  HN2 UNL     1     -55.631   4.939 -22.150  1.00  0.00     0.274 HD
ATOM     14  HN1 UNL     1     -56.204   5.542 -20.707  1.00  0.00     0.274 HD
ENDBRANCH  10  11
ENDBRANCH   9  10
ENDBRANCH   7   9
ENDBRANCH   4   7
BRANCH   3  15
HETATM   15  O   UNL     1     -56.272  -0.698 -16.905  1.00  0.00    -0.396 OA
ATOM     16  HO  UNL     1     -56.190  -1.628 -16.730  1.00  0.00     0.210 HD
ENDBRANCH   3  15
TORSDOF 5
ENDMDL
MODEL 3
REMARK VINA RESULT:      -6.5      2.834      5.200
REMARK  5 active torsions:
REMARK  status: ('A' for Active; 'I' for Inactive)
REMARK    1  A    between atoms: N_2  and  C_12 
REMARK    2  A    between atoms: O_6  and  C_10 
REMARK    3  A    between atoms: C_8  and  C_12 
REMARK    4  A    between atoms: C_8  and  C_14 
REMARK    5  A    between atoms: C_13  and  C_14 
ROOT
HETATM    1  C   UNL     1     -56.672   3.715 -21.631  1.00  0.00     0.041 C 
HETATM    2  C   UNL     1     -56.114   5.135 -21.508  1.00  0.00     0.036 C 
HETATM    3  C   UNL     1     -56.813   6.069 -20.526  1.00  0.00     0.118 C 
HETATM    4  C   UNL     1     -57.693   3.340 -20.593  1.00  0.00    -0.030 C 
HETATM    5  C   UNL     1     -58.711   4.348 -20.168  1.00  0.00     0.041 C 
HETATM    6  C   UNL     1     -58.317   5.809 -20.356  1.00  0.00     0.036 C 
ENDROOT
BRANCH   4   7
HETATM    7  C   UNL     1     -57.559   2.029 -19.928  1.00  0.00     0.172 C 
HETATM    8  O   UNL     1     -57.438   1.012 -20.572  1.00  0.00    -0.289 OA
BRANCH   7   9
HETATM    9  C   UNL     1     -57.590   1.967 -18.408  1.00  0.00     0.055 C 
BRANCH   9  10
HETATM   10  C   UNL     1     -57.923   0.774 -17.540  1.00  0.00     0.261 C 
BRANCH  10  11
HETATM   11  N   UNL     1     -58.828  -0.216 -18.097  1.00  0.00    -0.076 N 
ATOM     12  HN3 UNL     1     -58.295  -1.032 -18.401  1.00  0.00     0.274 HD
ATOM     13  HN2 UNL     1     -59.387  -0.625 -17.348  1.00  0.00     0.274 HD
ATOM     14  HN1 UNL     1     -59.442   0.090 -18.851  1.00  0.00     0.274 HD
ENDBRANCH  10  11
ENDBRANCH   9  10
ENDBRANCH   7   9
ENDBRANCH   4   7
BRANCH   3  15
HETATM   15  O   UNL     1     -56.153   6.040 -19.263  1.00  0.00    -0.396 OA
ATOM     16  HO  UNL     1     -55.223   5.891 -19.382  1.00  0.00     0.210 HD
ENDBRANCH   3  15
TORSDOF 5
ENDMDL
MODEL 4
REMARK VINA RESULT:      -6.3      2.773      5.129
REMARK  5 active torsions:
REMARK  status: ('A' for Active; 'I' for Inactive)
REMARK    1  A    between atoms: N_2  and  C_12 
REMARK    2  A    between atoms: O_6  and  C_10 
REMARK    3  A    between atoms: C_8  and  C_12 
REMARK    4  A    between atoms: C_8  and  C_14 
REMARK    5  A    between atoms: C_13  and  C_14 
ROOT
HETATM    1  C   UNL     1     -57.540   1.825 -20.331  1.00  0.00     0.041 C 
HETATM    2  C   UNL     1     -57.028   2.576 -21.563  1.00  0.00     0.036 C 
HETATM    3  C   UNL     1     -56.939   4.095 -21.457  1.00  0.00     0.118 C 
HETATM    4  C   UNL     1     -57.667   2.657 -19.085  1.00  0.00    -0.030 C 
HETATM    5  C   UNL     1     -58.178   4.057 -19.186  1.00  0.00     0.041 C 
HETATM    6  C   UNL     1     -57.990   4.736 -20.540  1.00  0.00     0.036 C 
ENDROOT
BRANCH   4   7
HETATM    7  C   UNL     1     -57.143   2.100 -17.821  1.00  0.00     0.172 C 
HETATM    8  O   UNL     1     -56.069   2.444 -17.386  1.00  0.00    -0.289 OA
BRANCH   7   9
HETATM    9  C   UNL     1     -57.973   1.068 -17.072  1.00  0.00     0.055 C 
BRANCH   9  10
HETATM   10  C   UNL     1     -57.483  -0.188 -16.387  1.00  0.00     0.261 C 
BRANCH  10  11
HETATM   11  N   UNL     1     -56.275  -0.800 -16.914  1.00  0.00    -0.076 N 
ATOM     12  HN3 UNL     1     -55.544  -0.092 -16.996  1.00  0.00     0.274 HD
ATOM     13  HN2 UNL     1     -55.868  -1.412 -16.208  1.00  0.00     0.274 HD
ATOM     14  HN1 UNL     1     -56.359  -1.306 -17.796  1.00  0.00     0.274 HD
ENDBRANCH  10  11
ENDBRANCH   9  10
ENDBRANCH   7   9
ENDBRANCH   4   7
BRANCH   3  15
HETATM   15  O   UNL     1     -55.626   4.486 -21.065  1.00  0.00    -0.396 OA
ATOM     16  HO  UNL     1     -54.980   3.918 -21.467  1.00  0.00     0.210 HD
ENDBRANCH   3  15
TORSDOF 5
ENDMDL
MODEL 5
REMARK VINA RESULT:      -6.2      2.855      5.051
REMARK  5 active torsions:
REMARK  status: ('A' for Active; 'I' for Inactive)
REMARK    1  A    between atoms: N_2  and  C_12 
REMARK    2  A    between atoms: O_6  and  C_10 
REMARK    3  A    between atoms: C_8  and  C_12 
REMARK    4  A    between atoms: C_8  and  C_14 
REMARK    5  A    between atoms: C_13  and  C_14 
ROOT
HETATM    1  C   UNL     1     -57.517   1.574 -20.224  1.00  0.00     0.041 C 
HETATM    2  C   UNL     1     -57.037   2.292 -21.488  1.00  0.00     0.036 C 
HETATM    3  C   UNL     1     -57.021   3.816 -21.451  1.00  0.00     0.118 C 
HETATM    4  C   UNL     1     -57.688   2.454 -19.017  1.00  0.00    -0.030 C 
HETATM    5  C   UNL     1     -58.265   3.822 -19.183  1.00  0.00     0.041 C 
HETATM    6  C   UNL     1     -58.105   4.447 -20.566  1.00  0.00     0.036 C 
ENDROOT
BRANCH   4   7
HETATM    7  C   UNL     1     -57.143   1.981 -17.729  1.00  0.00     0.172 C 
HETATM    8  O   UNL     1     -56.693   0.865 -17.614  1.00  0.00    -0.289 OA
BRANCH   7   9
HETATM    9  C   UNL     1     -57.167   2.919 -16.531  1.00  0.00     0.055 C 
BRANCH   9  10
HETATM   10  C   UNL     1     -57.423   2.560 -15.083  1.00  0.00     0.261 C 
BRANCH  10  11
HETATM   11  N   UNL     1     -56.467   3.046 -14.104  1.00  0.00    -0.076 N 
ATOM     12  HN3 UNL     1     -56.226   2.292 -13.460  1.00  0.00     0.274 HD
ATOM     13  HN2 UNL     1     -55.566   3.203 -14.557  1.00  0.00     0.274 HD
ATOM     14  HN1 UNL     1     -56.729   3.877 -13.573  1.00  0.00     0.274 HD
ENDBRANCH  10  11
ENDBRANCH   9  10
ENDBRANCH   7   9
ENDBRANCH   4   7
BRANCH   3  15
HETATM   15  O   UNL     1     -55.730   4.287 -21.075  1.00  0.00    -0.396 OA
ATOM     16  HO  UNL     1     -55.060   3.867 -21.601  1.00  0.00     0.210 HD
ENDBRANCH   3  15
TORSDOF 5
ENDMDL
MODEL 6
REMARK VINA RESULT:      -6.2      1.638      1.993
REMARK  5 active torsions:
REMARK  status: ('A' for Active; 'I' for Inactive)
REMARK    1  A    between atoms: N_2  and  C_12 
REMARK    2  A    between atoms: O_6  and  C_10 
REMARK    3  A    between atoms: C_8  and  C_12 
REMARK    4  A    between atoms: C_8  and  C_14 
REMARK    5  A    between atoms: C_13  and  C_14 
ROOT
HETATM    1  C   UNL     1     -56.529   0.786 -17.540  1.00  0.00     0.041 C 
HETATM    2  C   UNL     1     -57.112   0.003 -16.361  1.00  0.00     0.036 C 
HETATM    3  C   UNL     1     -57.915   0.796 -15.335  1.00  0.00     0.118 C 
HETATM    4  C   UNL     1     -57.019   2.201 -17.669  1.00  0.00    -0.030 C 
HETATM    5  C   UNL     1     -57.209   3.027 -16.439  1.00  0.00     0.041 C 
HETATM    6  C   UNL     1     -57.457   2.250 -15.150  1.00  0.00     0.036 C 
ENDROOT
BRANCH   4   7
HETATM    7  C   UNL     1     -57.431   2.675 -19.006  1.00  0.00     0.172 C 
HETATM    8  O   UNL     1     -57.571   1.903 -19.926  1.00  0.00    -0.289 OA
BRANCH   7   9
HETATM    9  C   UNL     1     -57.666   4.163 -19.219  1.00  0.00     0.055 C 
BRANCH   9  10
HETATM   10  C   UNL     1     -57.176   5.020 -20.366  1.00  0.00     0.261 C 
BRANCH  10  11
HETATM   11  N   UNL     1     -56.076   4.496 -21.158  1.00  0.00    -0.076 N 
ATOM     12  HN3 UNL     1     -55.957   3.502 -20.959  1.00  0.00     0.274 HD
ATOM     13  HN2 UNL     1     -56.351   4.461 -22.139  1.00  0.00     0.274 HD
ATOM     14  HN1 UNL     1     -55.177   4.971 -21.073  1.00  0.00     0.274 HD
ENDBRANCH  10  11
ENDBRANCH   9  10
ENDBRANCH   7   9
ENDBRANCH   4   7
BRANCH   3  15
HETATM   15  O   UNL     1     -59.304   0.744 -15.648  1.00  0.00    -0.396 OA
ATOM     16  HO  UNL     1     -59.685   1.613 -15.599  1.00  0.00     0.210 HD
ENDBRANCH   3  15
TORSDOF 5
ENDMDL
MODEL 7
REMARK VINA RESULT:      -6.1      2.040      3.067
REMARK  5 active torsions:
REMARK  status: ('A' for Active; 'I' for Inactive)
REMARK    1  A    between atoms: N_2  and  C_12 
REMARK    2  A    between atoms: O_6  and  C_10 
REMARK    3  A    between atoms: C_8  and  C_12 
REMARK    4  A    between atoms: C_8  and  C_14 
REMARK    5  A    between atoms: C_13  and  C_14 
ROOT
HETATM    1  C   UNL     1     -57.299   2.446 -20.634  1.00  0.00     0.041 C 
HETATM    2  C   UNL     1     -57.597   1.076 -20.020  1.00  0.00     0.036 C 
HETATM    3  C   UNL     1     -57.805   1.028 -18.510  1.00  0.00     0.118 C 
HETATM    4  C   UNL     1     -57.484   3.614 -19.706  1.00  0.00    -0.030 C 
HETATM    5  C   UNL     1     -57.055   3.493 -18.280  1.00  0.00     0.041 C 
HETATM    6  C   UNL     1     -57.007   2.075 -17.720  1.00  0.00     0.036 C 
ENDROOT
BRANCH   4   7
HETATM    7  C   UNL     1     -58.216   4.794 -20.209  1.00  0.00     0.172 C 
HETATM    8  O   UNL     1     -59.363   4.703 -20.584  1.00  0.00    -0.289 OA
BRANCH   7   9
HETATM    9  C   UNL     1     -57.502   6.136 -20.265  1.00  0.00     0.055 C 
BRANCH   9  10
HETATM   10  C   UNL     1     -56.041   6.392 -20.562  1.00  0.00     0.261 C 
BRANCH  10  11
HETATM   11  N   UNL     1     -55.445   5.631 -21.646  1.00  0.00    -0.076 N 
ATOM     12  HN3 UNL     1     -54.524   6.014 -21.864  1.00  0.00     0.274 HD
ATOM     13  HN2 UNL     1     -55.189   4.703 -21.309  1.00  0.00     0.274 HD
ATOM     14  HN1 UNL     1     -55.989   5.543 -22.505  1.00  0.00     0.274 HD
ENDBRANCH  10  11
ENDBRANCH   9  10
ENDBRANCH   7   9
ENDBRANCH   4   7
BRANCH   3  15
HETATM   15  O   UNL     1     -59.193   1.116 -18.200  1.00  0.00    -0.396 OA
ATOM     16  HO  UNL     1     -59.694   1.305 -18.985  1.00  0.00     0.210 HD
ENDBRANCH   3  15
TORSDOF 5
ENDMDL
MODEL 8
REMARK VINA RESULT:      -6.1      2.933      4.928
REMARK  5 active torsions:
REMARK  status: ('A' for Active; 'I' for Inactive)
REMARK    1  A    between atoms: N_2  and  C_12 
REMARK    2  A    between atoms: O_6  and  C_10 
REMARK    3  A    between atoms: C_8  and  C_12 
REMARK    4  A    between atoms: C_8  and  C_14 
REMARK    5  A    between atoms: C_13  and  C_14 
ROOT
HETATM    1  C   UNL     1     -56.501   3.338 -18.014  1.00  0.00     0.041 C 
HETATM    2  C   UNL     1     -56.821   4.390 -19.078  1.00  0.00     0.036 C 
HETATM    3  C   UNL     1     -57.708   3.951 -20.238  1.00  0.00     0.118 C 
HETATM    4  C   UNL     1     -57.294   2.065 -18.118  1.00  0.00    -0.030 C 
HETATM    5  C   UNL     1     -57.578   1.486 -19.465  1.00  0.00     0.041 C 
HETATM    6  C   UNL     1     -57.566   2.473 -20.628  1.00  0.00     0.036 C 
ENDROOT
BRANCH   4   7
HETATM    7  C   UNL     1     -57.886   1.512 -16.883  1.00  0.00     0.172 C 
HETATM    8  O   UNL     1     -58.591   0.530 -16.915  1.00  0.00    -0.289 OA
BRANCH   7   9
HETATM    9  C   UNL     1     -57.606   2.205 -15.558  1.00  0.00     0.055 C 
BRANCH   9  10
HETATM   10  C   UNL     1     -56.523   1.875 -14.554  1.00  0.00     0.261 C 
BRANCH  10  11
HETATM   11  N   UNL     1     -55.997   2.976 -13.766  1.00  0.00    -0.076 N 
ATOM     12  HN3 UNL     1     -55.807   3.771 -14.377  1.00  0.00     0.274 HD
ATOM     13  HN2 UNL     1     -56.738   3.360 -13.180  1.00  0.00     0.274 HD
ATOM     14  HN1 UNL     1     -55.175   2.784 -13.193  1.00  0.00     0.274 HD
ENDBRANCH  10  11
ENDBRANCH   9  10
ENDBRANCH   7   9
ENDBRANCH   4   7
BRANCH   3  15
HETATM   15  O   UNL     1     -59.070   4.269 -19.966  1.00  0.00    -0.396 OA
ATOM     16  HO  UNL     1     -59.155   4.634 -19.093  1.00  0.00     0.210 HD
ENDBRANCH   3  15
TORSDOF 5
ENDMDL
MODEL 9
REMARK VINA RESULT:      -6.1      3.345      5.195
REMARK  5 active torsions:
REMARK  status: ('A' for Active; 'I' for Inactive)
REMARK    1  A    between atoms: N_2  and  C_12 
REMARK    2  A    between atoms: O_6  and  C_10 
REMARK    3  A    between atoms: C_8  and  C_12 
REMARK    4  A    between atoms: C_8  and  C_14 
REMARK    5  A    between atoms: C_13  and  C_14 
ROOT
HETATM    1  C   UNL     1     -56.506   2.729 -17.517  1.00  0.00     0.041 C 
HETATM    2  C   UNL     1     -56.559   3.940 -18.451  1.00  0.00     0.036 C 
HETATM    3  C   UNL     1     -57.325   3.770 -19.759  1.00  0.00     0.118 C 
HETATM    4  C   UNL     1     -57.417   1.594 -17.893  1.00  0.00    -0.030 C 
HETATM    5  C   UNL     1     -57.581   1.231 -19.333  1.00  0.00     0.041 C 
HETATM    6  C   UNL     1     -57.300   2.347 -20.335  1.00  0.00     0.036 C 
ENDROOT
BRANCH   4   7
HETATM    7  C   UNL     1     -58.228   0.971 -16.828  1.00  0.00     0.172 C 
HETATM    8  O   UNL     1     -58.260   1.438 -15.713  1.00  0.00    -0.289 OA
BRANCH   7   9
HETATM    9  C   UNL     1     -59.022  -0.288 -17.148  1.00  0.00     0.055 C 
BRANCH   9  10
HETATM   10  C   UNL     1     -59.077  -1.571 -16.350  1.00  0.00     0.261 C 
BRANCH  10  11
HETATM   11  N   UNL     1     -59.076  -1.449 -14.902  1.00  0.00    -0.076 N 
ATOM     12  HN3 UNL     1     -59.681  -0.675 -14.626  1.00  0.00     0.274 HD
ATOM     13  HN2 UNL     1     -59.580  -2.237 -14.495  1.00  0.00     0.274 HD
ATOM     14  HN1 UNL     1     -58.169  -1.353 -14.446  1.00  0.00     0.274 HD
ENDBRANCH  10  11
ENDBRANCH   9  10
ENDBRANCH   7   9
ENDBRANCH   4   7
BRANCH   3  15
HETATM   15  O   UNL     1     -58.667   4.226 -19.607  1.00  0.00    -0.396 OA
ATOM     16  HO  UNL     1     -59.277   3.527 -19.812  1.00  0.00     0.210 HD
ENDBRANCH   3  15
TORSDOF 5
ENDMDL
