MODEL 1
REMARK VINA RESULT:      -4.2      0.000      0.000
REMARK  0 active torsions:
REMARK  status: ('A' for Active; 'I' for Inactive)
ROOT
HETATM    1  C   UNL     1       1.993  -4.854 -11.111  1.00  0.00     0.053 C 
HETATM    2  N   UNL     1       5.241  -3.895 -10.134  1.00  0.00    -0.070 N 
ATOM      3  HN1 UNL     1       6.201  -3.555 -10.093  1.00  0.00     0.277 HD
ATOM      4  HN2 UNL     1       5.410  -4.901 -10.121  1.00  0.00     0.277 HD
HETATM    5  C   UNL     1       4.605  -3.493 -11.416  1.00  0.00     0.194 C 
HETATM    6  C   UNL     1       2.872  -5.226 -12.218  1.00  0.00     0.173 C 
HETATM    7  C   UNL     1       4.317  -4.776 -12.214  1.00  0.00     0.118 C 
HETATM    8  C   UNL     1       3.034  -3.926  -8.969  1.00  0.00     0.038 C 
HETATM    9  C   UNL     1       3.298  -2.726 -11.158  1.00  0.00     0.044 C 
HETATM   10  C   UNL     1       2.356  -3.606 -10.305  1.00  0.00     0.042 C 
HETATM   11  C   UNL     1       4.494  -3.482  -8.919  1.00  0.00     0.233 C 
HETATM   12  N   UNL     1       0.796  -5.319 -11.064  1.00  0.00    -0.399 N 
ATOM     13  HN1 UNL     1       0.183  -5.059 -10.292  1.00  0.00     0.156 HD
ATOM     14  HN2 UNL     1       0.554  -6.152 -11.602  1.00  0.00     0.156 HD
HETATM   15  O   UNL     1       2.370  -5.801 -13.202  1.00  0.00    -0.291 OA
ENDROOT
TORSDOF 0
ENDMDL
MODEL 2
REMARK VINA RESULT:      -4.0      5.524      7.070
REMARK  0 active torsions:
REMARK  status: ('A' for Active; 'I' for Inactive)
ROOT
HETATM    1  C   UNL     1       6.078  -1.858 -16.486  1.00  0.00     0.053 C 
HETATM    2  N   UNL     1       4.854  -5.162 -16.428  1.00  0.00    -0.070 N 
ATOM      3  HN1 UNL     1       4.326  -6.018 -16.260  1.00  0.00     0.277 HD
ATOM      4  HN2 UNL     1       5.654  -5.326 -15.818  1.00  0.00     0.277 HD
HETATM    5  C   UNL     1       4.081  -3.980 -15.963  1.00  0.00     0.194 C 
HETATM    6  C   UNL     1       5.622  -2.093 -15.118  1.00  0.00     0.173 C 
HETATM    7  C   UNL     1       4.853  -3.353 -14.789  1.00  0.00     0.118 C 
HETATM    8  C   UNL     1       6.037  -3.797 -18.150  1.00  0.00     0.038 C 
HETATM    9  C   UNL     1       3.921  -2.954 -17.097  1.00  0.00     0.044 C 
HETATM   10  C   UNL     1       5.319  -2.553 -17.617  1.00  0.00     0.042 C 
HETATM   11  C   UNL     1       5.290  -5.094 -17.845  1.00  0.00     0.233 C 
HETATM   12  N   UNL     1       6.817  -0.838 -16.745  1.00  0.00    -0.399 N 
ATOM     13  HN1 UNL     1       7.135  -0.674 -17.700  1.00  0.00     0.156 HD
ATOM     14  HN2 UNL     1       7.323  -0.374 -15.991  1.00  0.00     0.156 HD
HETATM   15  O   UNL     1       5.772  -1.182 -14.281  1.00  0.00    -0.291 OA
ENDROOT
TORSDOF 0
ENDMDL
MODEL 3
REMARK VINA RESULT:      -3.9      5.136      6.464
REMARK  0 active torsions:
REMARK  status: ('A' for Active; 'I' for Inactive)
ROOT
HETATM    1  C   UNL     1       5.210  -2.551 -14.910  1.00  0.00     0.053 C 
HETATM    2  N   UNL     1       6.024  -3.983 -18.026  1.00  0.00    -0.070 N 
ATOM      3  HN1 UNL     1       6.024  -4.483 -18.914  1.00  0.00     0.277 HD
ATOM      4  HN2 UNL     1       6.557  -4.639 -17.455  1.00  0.00     0.277 HD
HETATM    5  C   UNL     1       4.637  -3.854 -17.506  1.00  0.00     0.194 C 
HETATM    6  C   UNL     1       4.568  -3.863 -14.928  1.00  0.00     0.173 C 
HETATM    7  C   UNL     1       4.550  -4.672 -16.207  1.00  0.00     0.118 C 
HETATM    8  C   UNL     1       6.730  -1.894 -16.857  1.00  0.00     0.038 C 
HETATM    9  C   UNL     1       4.296  -2.381 -17.226  1.00  0.00     0.044 C 
HETATM   10  C   UNL     1       5.332  -1.801 -16.237  1.00  0.00     0.042 C 
HETATM   11  C   UNL     1       6.756  -2.698 -18.155  1.00  0.00     0.233 C 
HETATM   12  N   UNL     1       5.315  -1.908 -13.802  1.00  0.00    -0.399 N 
ATOM     13  HN1 UNL     1       5.763  -0.992 -13.789  1.00  0.00     0.156 HD
ATOM     14  HN2 UNL     1       5.234  -2.408 -12.916  1.00  0.00     0.156 HD
HETATM   15  O   UNL     1       3.941  -4.227 -13.916  1.00  0.00    -0.291 OA
ENDROOT
TORSDOF 0
ENDMDL
MODEL 4
REMARK VINA RESULT:      -3.8      3.128      4.762
REMARK  0 active torsions:
REMARK  status: ('A' for Active; 'I' for Inactive)
ROOT
HETATM    1  C   UNL     1       4.465  -4.146 -12.821  1.00  0.00     0.053 C 
HETATM    2  N   UNL     1       3.126  -5.013 -15.963  1.00  0.00    -0.070 N 
ATOM      3  HN1 UNL     1       2.954  -5.168 -16.956  1.00  0.00     0.277 HD
ATOM      4  HN2 UNL     1       2.535  -4.196 -15.808  1.00  0.00     0.277 HD
HETATM    5  C   UNL     1       4.553  -4.671 -15.733  1.00  0.00     0.194 C 
HETATM    6  C   UNL     1       4.852  -3.072 -13.732  1.00  0.00     0.173 C 
HETATM    7  C   UNL     1       4.607  -3.223 -15.218  1.00  0.00     0.118 C 
HETATM    8  C   UNL     1       2.921  -5.994 -13.678  1.00  0.00     0.038 C 
HETATM    9  C   UNL     1       5.182  -5.622 -14.702  1.00  0.00     0.044 C 
HETATM   10  C   UNL     1       4.363  -5.561 -13.393  1.00  0.00     0.042 C 
HETATM   11  C   UNL     1       2.632  -6.164 -15.167  1.00  0.00     0.233 C 
HETATM   12  N   UNL     1       4.581  -3.978 -11.551  1.00  0.00    -0.399 N 
ATOM     13  HN1 UNL     1       4.311  -4.728 -10.916  1.00  0.00     0.156 HD
ATOM     14  HN2 UNL     1       4.649  -3.034 -11.170  1.00  0.00     0.156 HD
HETATM   15  O   UNL     1       5.492  -2.108 -13.271  1.00  0.00    -0.291 OA
ENDROOT
TORSDOF 0
ENDMDL
MODEL 5
REMARK VINA RESULT:      -3.7      5.034      6.453
REMARK  0 active torsions:
REMARK  status: ('A' for Active; 'I' for Inactive)
ROOT
HETATM    1  C   UNL     1       5.036  -3.386 -14.795  1.00  0.00     0.053 C 
HETATM    2  N   UNL     1       3.335  -3.171 -17.874  1.00  0.00    -0.070 N 
ATOM      3  HN1 UNL     1       3.047  -2.982 -18.834  1.00  0.00     0.277 HD
ATOM      4  HN2 UNL     1       2.767  -2.482 -17.382  1.00  0.00     0.277 HD
HETATM    5  C   UNL     1       4.780  -2.872 -17.700  1.00  0.00     0.194 C 
HETATM    6  C   UNL     1       5.314  -2.048 -15.315  1.00  0.00     0.173 C 
HETATM    7  C   UNL     1       4.895  -1.689 -16.724  1.00  0.00     0.118 C 
HETATM    8  C   UNL     1       3.400  -4.886 -16.063  1.00  0.00     0.038 C 
HETATM    9  C   UNL     1       5.525  -4.094 -17.138  1.00  0.00     0.044 C 
HETATM   10  C   UNL     1       4.866  -4.520 -15.807  1.00  0.00     0.042 C 
HETATM   11  C   UNL     1       2.937  -4.545 -17.477  1.00  0.00     0.233 C 
HETATM   12  N   UNL     1       5.301  -3.660 -13.567  1.00  0.00    -0.399 N 
ATOM     13  HN1 UNL     1       5.107  -4.593 -13.205  1.00  0.00     0.156 HD
ATOM     14  HN2 UNL     1       5.414  -2.904 -12.892  1.00  0.00     0.156 HD
HETATM   15  O   UNL     1       6.004  -1.278 -14.622  1.00  0.00    -0.291 OA
ENDROOT
TORSDOF 0
ENDMDL
MODEL 6
REMARK VINA RESULT:      -3.7      2.892      4.380
REMARK  0 active torsions:
REMARK  status: ('A' for Active; 'I' for Inactive)
ROOT
HETATM    1  C   UNL     1       3.098  -5.821 -12.911  1.00  0.00     0.053 C 
HETATM    2  N   UNL     1       4.280  -3.719 -15.481  1.00  0.00    -0.070 N 
ATOM      3  HN1 UNL     1       4.818  -3.085 -16.070  1.00  0.00     0.277 HD
ATOM      4  HN2 UNL     1       3.585  -3.070 -15.113  1.00  0.00     0.277 HD
HETATM    5  C   UNL     1       5.129  -4.247 -14.381  1.00  0.00     0.194 C 
HETATM    6  C   UNL     1       3.764  -4.705 -12.242  1.00  0.00     0.173 C 
HETATM    7  C   UNL     1       4.561  -3.710 -13.057  1.00  0.00     0.118 C 
HETATM    8  C   UNL     1       2.853  -5.766 -15.455  1.00  0.00     0.038 C 
HETATM    9  C   UNL     1       5.119  -5.784 -14.375  1.00  0.00     0.044 C 
HETATM   10  C   UNL     1       3.660  -6.279 -14.257  1.00  0.00     0.042 C 
HETATM   11  C   UNL     1       3.624  -4.762 -16.308  1.00  0.00     0.233 C 
HETATM   12  N   UNL     1       2.339  -6.608 -12.235  1.00  0.00    -0.399 N 
ATOM     13  HN1 UNL     1       1.875  -7.386 -12.701  1.00  0.00     0.156 HD
ATOM     14  HN2 UNL     1       1.964  -6.302 -11.337  1.00  0.00     0.156 HD
HETATM   15  O   UNL     1       3.759  -4.675 -10.997  1.00  0.00    -0.291 OA
ENDROOT
TORSDOF 0
ENDMDL
MODEL 7
REMARK VINA RESULT:      -3.6      3.490      5.313
REMARK  0 active torsions:
REMARK  status: ('A' for Active; 'I' for Inactive)
ROOT
HETATM    1  C   UNL     1       4.174  -5.855 -13.317  1.00  0.00     0.053 C 
HETATM    2  N   UNL     1       4.071  -9.276 -14.160  1.00  0.00    -0.070 N 
ATOM      3  HN1 UNL     1       3.798 -10.217 -14.440  1.00  0.00     0.277 HD
ATOM      4  HN2 UNL     1       4.152  -9.409 -13.152  1.00  0.00     0.277 HD
HETATM    5  C   UNL     1       2.985  -8.310 -14.469  1.00  0.00     0.194 C 
HETATM    6  C   UNL     1       2.914  -6.363 -12.779  1.00  0.00     0.173 C 
HETATM    7  C   UNL     1       2.456  -7.761 -13.133  1.00  0.00     0.118 C 
HETATM    8  C   UNL     1       5.810  -7.501 -14.390  1.00  0.00     0.038 C 
HETATM    9  C   UNL     1       3.512  -7.158 -15.341  1.00  0.00     0.044 C 
HETATM   10  C   UNL     1       4.694  -6.475 -14.615  1.00  0.00     0.042 C 
HETATM   11  C   UNL     1       5.391  -8.926 -14.742  1.00  0.00     0.233 C 
HETATM   12  N   UNL     1       4.613  -4.708 -12.938  1.00  0.00    -0.399 N 
ATOM     13  HN1 UNL     1       5.492  -4.354 -13.313  1.00  0.00     0.156 HD
ATOM     14  HN2 UNL     1       4.267  -4.295 -12.072  1.00  0.00     0.156 HD
HETATM   15  O   UNL     1       2.187  -5.580 -12.140  1.00  0.00    -0.291 OA
ENDROOT
TORSDOF 0
ENDMDL
MODEL 8
REMARK VINA RESULT:      -3.5     10.687     12.025
REMARK  0 active torsions:
REMARK  status: ('A' for Active; 'I' for Inactive)
ROOT
HETATM    1  C   UNL     1       0.764  -1.169  -0.279  1.00  0.00     0.053 C 
HETATM    2  N   UNL     1      -2.512  -2.420  -0.618  1.00  0.00    -0.070 N 
ATOM      3  HN1 UNL     1      -3.348  -3.002  -0.675  1.00  0.00     0.277 HD
ATOM      4  HN2 UNL     1      -2.355  -2.242  -1.610  1.00  0.00     0.277 HD
HETATM    5  C   UNL     1      -1.381  -3.195  -0.045  1.00  0.00     0.194 C 
HETATM    6  C   UNL     1       0.891  -2.434  -0.999  1.00  0.00     0.173 C 
HETATM    7  C   UNL     1      -0.313  -3.339  -1.142  1.00  0.00     0.118 C 
HETATM    8  C   UNL     1      -1.572  -0.276   0.246  1.00  0.00     0.038 C 
HETATM    9  C   UNL     1      -0.789  -2.472   1.176  1.00  0.00     0.044 C 
HETATM   10  C   UNL     1      -0.353  -1.050   0.758  1.00  0.00     0.042 C 
HETATM   11  C   UNL     1      -2.814  -1.152   0.092  1.00  0.00     0.233 C 
HETATM   12  N   UNL     1       1.759  -0.354  -0.243  1.00  0.00    -0.399 N 
ATOM     13  HN1 UNL     1       1.670   0.529   0.259  1.00  0.00     0.156 HD
ATOM     14  HN2 UNL     1       2.504  -0.433  -0.935  1.00  0.00     0.156 HD
HETATM   15  O   UNL     1       2.025  -2.793  -1.368  1.00  0.00    -0.291 OA
ENDROOT
TORSDOF 0
ENDMDL
MODEL 9
REMARK VINA RESULT:      -3.5      3.631      5.217
REMARK  0 active torsions:
REMARK  status: ('A' for Active; 'I' for Inactive)
ROOT
HETATM    1  C   UNL     1       3.015  -7.474 -13.335  1.00  0.00     0.053 C 
HETATM    2  N   UNL     1       4.503  -5.826 -16.072  1.00  0.00    -0.070 N 
ATOM      3  HN1 UNL     1       5.068  -5.238 -16.684  1.00  0.00     0.277 HD
ATOM      4  HN2 UNL     1       3.628  -5.300 -16.083  1.00  0.00     0.277 HD
HETATM    5  C   UNL     1       5.076  -5.846 -14.701  1.00  0.00     0.194 C 
HETATM    6  C   UNL     1       3.253  -6.101 -12.895  1.00  0.00     0.173 C 
HETATM    7  C   UNL     1       4.065  -5.165 -13.763  1.00  0.00     0.118 C 
HETATM    8  C   UNL     1       3.510  -8.095 -15.765  1.00  0.00     0.038 C 
HETATM    9  C   UNL     1       5.334  -7.290 -14.240  1.00  0.00     0.044 C 
HETATM   10  C   UNL     1       4.013  -8.088 -14.318  1.00  0.00     0.042 C 
HETATM   11  C   UNL     1       4.307  -7.166 -16.678  1.00  0.00     0.233 C 
HETATM   12  N   UNL     1       2.242  -8.239 -12.648  1.00  0.00    -0.399 N 
ATOM     13  HN1 UNL     1       2.077  -9.196 -12.955  1.00  0.00     0.156 HD
ATOM     14  HN2 UNL     1       1.576  -7.829 -11.993  1.00  0.00     0.156 HD
HETATM   15  O   UNL     1       2.883  -5.775 -11.752  1.00  0.00    -0.291 OA
ENDROOT
TORSDOF 0
ENDMDL
