MODEL 1
REMARK VINA RESULT:      -8.8      0.000      0.000
REMARK  7 active torsions:
REMARK  status: ('A' for Active; 'I' for Inactive)
REMARK    1  A    between atoms: O_1  and  C_10 
REMARK    2  A    between atoms: C_4  and  C_10 
REMARK    3  A    between atoms: C_6  and  C_7 
REMARK    4  A    between atoms: C_6  and  O_24 
REMARK    5  A    between atoms: C_8  and  C_10 
REMARK    6  A    between atoms: C_10  and  O_21 
REMARK    7  A    between atoms: O_19  and  C_31 
ROOT
HETATM    1  C   UNL     1      16.082   3.042 113.966  1.00  0.00     0.053 C 
HETATM    2  C   UNL     1      15.301   2.081 114.871  1.00  0.00     0.112 C 
HETATM    3  C   UNL     1      15.670   4.486 114.286  1.00  0.00     0.054 C 
HETATM    4  C   UNL     1      14.872   4.421 115.605  1.00  0.00     0.045 C 
HETATM    5  C   UNL     1      14.694   2.952 115.979  1.00  0.00     0.155 C 
ENDROOT
BRANCH   3   6
HETATM    6  C   UNL     1      14.815   5.284 113.263  1.00  0.00     0.174 C 
BRANCH   6   7
HETATM    7  O   UNL     1      13.710   5.827 113.954  1.00  0.00    -0.364 OA
ATOM      8  HO  UNL     1      13.160   6.225 113.290  1.00  0.00     0.213 HD
ENDBRANCH   6   7
BRANCH   6   9
HETATM    9  C   UNL     1      15.504   6.460 112.595  1.00  0.00     0.127 C 
HETATM   10  C   UNL     1      15.836   7.635 113.513  1.00  0.00     0.057 C 
HETATM   11  C   UNL     1      17.328   7.789 113.329  1.00  0.00    -0.043 C 
HETATM   12  C   UNL     1      17.791   7.036 112.271  1.00  0.00     0.017 C 
HETATM   13  C   UNL     1      18.117   8.621 114.096  1.00  0.00     0.008 C 
HETATM   14  C   UNL     1      19.055   7.101 111.741  1.00  0.00     0.015 C 
HETATM   15  C   UNL     1      16.700   6.227 111.720  1.00  0.00     0.169 C 
HETATM   16  C   UNL     1      20.064   7.985 111.980  1.00  0.00     0.001 C 
HETATM   17  C   UNL     1      20.154   9.069 112.799  1.00  0.00     0.000 C 
HETATM   18  C   UNL     1      19.242   9.335 113.808  1.00  0.00     0.001 C 
HETATM   19  O   UNL     1      16.703   5.562 110.708  1.00  0.00    -0.292 OA
ENDBRANCH   6   9
BRANCH   6  20
HETATM   20  O   UNL     1      14.274   4.456 112.284  1.00  0.00    -0.364 OA
ATOM     21  HO  UNL     1      14.937   3.798 112.111  1.00  0.00     0.213 HD
ENDBRANCH   6  20
ENDBRANCH   3   6
BRANCH   2  22
HETATM   22  C   UNL     1      15.913   0.880 115.594  1.00  0.00     0.190 C 
HETATM   23  C   UNL     1      16.923   1.243 116.714  1.00  0.00     0.235 C 
HETATM   24  N   UNL     1      16.758   0.293 117.847  1.00  0.00    -0.059 N 
HETATM   25  C   UNL     1      18.312   1.014 116.074  1.00  0.00     0.149 C 
HETATM   26  C   UNL     1      16.657  -1.113 117.375  1.00  0.00     0.227 C 
ATOM     27  HN2 UNL     1      17.503   0.401 118.535  1.00  0.00     0.278 HD
ATOM     28  HN1 UNL     1      15.962   0.546 118.432  1.00  0.00     0.278 HD
HETATM   29  C   UNL     1      15.383  -1.260 116.523  1.00  0.00     0.203 C 
HETATM   30  C   UNL     1      17.842  -1.468 116.457  1.00  0.00     0.149 C 
HETATM   31  O   UNL     1      14.890   0.053 116.183  1.00  0.00    -0.378 OA
HETATM   32  N   UNL     1      18.770  -0.377 116.215  1.00  0.00    -0.417 N 
ATOM     33  HN  UNL     1      19.766  -0.580 116.140  1.00  0.00     0.153 HD
ENDBRANCH   2  22
BRANCH   2  34
HETATM   34  O   UNL     1      14.265   1.533 114.052  1.00  0.00    -0.384 OA
ATOM     35  HO  UNL     1      13.605   1.208 114.654  1.00  0.00     0.210 HD
ENDBRANCH   2  34
BRANCH   5  36
HETATM   36  O   UNL     1      13.352   2.561 116.273  1.00  0.00    -0.392 OA
ATOM     37  HO  UNL     1      13.186   2.567 117.209  1.00  0.00     0.210 HD
ENDBRANCH   5  36
TORSDOF 7
ENDMDL
MODEL 2
REMARK VINA RESULT:      -8.6      1.235      1.562
REMARK  7 active torsions:
REMARK  status: ('A' for Active; 'I' for Inactive)
REMARK    1  A    between atoms: O_1  and  C_10 
REMARK    2  A    between atoms: C_4  and  C_10 
REMARK    3  A    between atoms: C_6  and  C_7 
REMARK    4  A    between atoms: C_6  and  O_24 
REMARK    5  A    between atoms: C_8  and  C_10 
REMARK    6  A    between atoms: C_10  and  O_21 
REMARK    7  A    between atoms: O_19  and  C_31 
ROOT
HETATM    1  C   UNL     1      16.886   3.832 113.815  1.00  0.00     0.053 C 
HETATM    2  C   UNL     1      16.571   2.334 113.916  1.00  0.00     0.112 C 
HETATM    3  C   UNL     1      15.677   4.637 114.311  1.00  0.00     0.054 C 
HETATM    4  C   UNL     1      14.747   3.626 115.013  1.00  0.00     0.045 C 
HETATM    5  C   UNL     1      15.326   2.229 114.808  1.00  0.00     0.155 C 
ENDROOT
BRANCH   3   6
HETATM    6  C   UNL     1      14.816   5.434 113.293  1.00  0.00     0.174 C 
BRANCH   6   7
HETATM    7  O   UNL     1      13.696   5.947 113.982  1.00  0.00    -0.364 OA
ATOM      8  HO  UNL     1      13.860   6.876 114.089  1.00  0.00     0.213 HD
ENDBRANCH   6   7
BRANCH   6   9
HETATM    9  C   UNL     1      15.488   6.631 112.646  1.00  0.00     0.127 C 
HETATM   10  C   UNL     1      15.900   7.749 113.603  1.00  0.00     0.057 C 
HETATM   11  C   UNL     1      17.381   7.886 113.335  1.00  0.00    -0.043 C 
HETATM   12  C   UNL     1      17.762   7.183 112.213  1.00  0.00     0.017 C 
HETATM   13  C   UNL     1      18.232   8.661 114.095  1.00  0.00     0.008 C 
HETATM   14  C   UNL     1      18.994   7.254 111.610  1.00  0.00     0.015 C 
HETATM   15  C   UNL     1      16.623   6.425 111.688  1.00  0.00     0.169 C 
HETATM   16  C   UNL     1      20.034   8.105 111.833  1.00  0.00     0.001 C 
HETATM   17  C   UNL     1      20.196   9.141 112.701  1.00  0.00     0.000 C 
HETATM   18  C   UNL     1      19.353   9.370 113.776  1.00  0.00     0.001 C 
HETATM   19  O   UNL     1      16.551   5.816 110.644  1.00  0.00    -0.292 OA
ENDBRANCH   6   9
BRANCH   6  20
HETATM   20  O   UNL     1      14.298   4.610 112.297  1.00  0.00    -0.364 OA
ATOM     21  HO  UNL     1      13.698   4.021 112.740  1.00  0.00     0.213 HD
ENDBRANCH   6  20
ENDBRANCH   3   6
BRANCH   2  22
HETATM   22  C   UNL     1      17.540   1.278 114.453  1.00  0.00     0.190 C 
HETATM   23  C   UNL     1      17.696   1.267 115.996  1.00  0.00     0.235 C 
HETATM   24  N   UNL     1      17.824  -0.141 116.463  1.00  0.00    -0.059 N 
HETATM   25  C   UNL     1      19.033   1.999 116.256  1.00  0.00     0.149 C 
HETATM   26  C   UNL     1      18.773  -0.915 115.621  1.00  0.00     0.227 C 
ATOM     27  HN2 UNL     1      18.081  -0.183 117.449  1.00  0.00     0.278 HD
ATOM     28  HN1 UNL     1      16.914  -0.599 116.515  1.00  0.00     0.278 HD
HETATM   29  C   UNL     1      18.210  -1.003 114.191  1.00  0.00     0.203 C 
HETATM   30  C   UNL     1      20.128  -0.188 115.516  1.00  0.00     0.149 C 
HETATM   31  O   UNL     1      17.141  -0.046 114.046  1.00  0.00    -0.378 OA
HETATM   32  N   UNL     1      20.188   1.088 116.207  1.00  0.00    -0.417 N 
ATOM     33  HN  UNL     1      21.054   1.360 116.671  1.00  0.00     0.153 HD
ENDBRANCH   2  22
BRANCH   2  34
HETATM   34  O   UNL     1      16.261   1.911 112.586  1.00  0.00    -0.384 OA
ATOM     35  HO  UNL     1      17.088   1.901 112.119  1.00  0.00     0.210 HD
ENDBRANCH   2  34
BRANCH   5  36
HETATM   36  O   UNL     1      14.405   1.260 114.305  1.00  0.00    -0.392 OA
ATOM     37  HO  UNL     1      14.303   0.532 114.908  1.00  0.00     0.210 HD
ENDBRANCH   5  36
TORSDOF 7
ENDMDL
MODEL 3
REMARK VINA RESULT:      -8.5      1.383      1.999
REMARK  7 active torsions:
REMARK  status: ('A' for Active; 'I' for Inactive)
REMARK    1  A    between atoms: O_1  and  C_10 
REMARK    2  A    between atoms: C_4  and  C_10 
REMARK    3  A    between atoms: C_6  and  C_7 
REMARK    4  A    between atoms: C_6  and  O_24 
REMARK    5  A    between atoms: C_8  and  C_10 
REMARK    6  A    between atoms: C_10  and  O_21 
REMARK    7  A    between atoms: O_19  and  C_31 
ROOT
HETATM    1  C   UNL     1      16.832   3.760 113.956  1.00  0.00     0.053 C 
HETATM    2  C   UNL     1      16.512   2.269 114.121  1.00  0.00     0.112 C 
HETATM    3  C   UNL     1      15.612   4.589 114.379  1.00  0.00     0.054 C 
HETATM    4  C   UNL     1      14.661   3.614 115.103  1.00  0.00     0.045 C 
HETATM    5  C   UNL     1      15.243   2.208 114.982  1.00  0.00     0.155 C 
ENDROOT
BRANCH   3   6
HETATM    6  C   UNL     1      14.780   5.336 113.300  1.00  0.00     0.174 C 
BRANCH   6   7
HETATM    7  O   UNL     1      13.618   5.842 113.923  1.00  0.00    -0.364 OA
ATOM      8  HO  UNL     1      13.445   6.678 113.509  1.00  0.00     0.213 HD
ENDBRANCH   6   7
BRANCH   6   9
HETATM    9  C   UNL     1      15.453   6.530 112.649  1.00  0.00     0.127 C 
HETATM   10  C   UNL     1      15.842   7.663 113.598  1.00  0.00     0.057 C 
HETATM   11  C   UNL     1      17.326   7.807 113.352  1.00  0.00    -0.043 C 
HETATM   12  C   UNL     1      17.730   7.093 112.245  1.00  0.00     0.017 C 
HETATM   13  C   UNL     1      18.160   8.598 114.116  1.00  0.00     0.008 C 
HETATM   14  C   UNL     1      18.971   7.165 111.660  1.00  0.00     0.015 C 
HETATM   15  C   UNL     1      16.605   6.320 111.711  1.00  0.00     0.169 C 
HETATM   16  C   UNL     1      20.001   8.027 111.889  1.00  0.00     0.001 C 
HETATM   17  C   UNL     1      20.142   9.075 112.747  1.00  0.00     0.000 C 
HETATM   18  C   UNL     1      19.280   9.310 113.805  1.00  0.00     0.001 C 
HETATM   19  O   UNL     1      16.553   5.698 110.674  1.00  0.00    -0.292 OA
ENDBRANCH   6   9
BRANCH   6  20
HETATM   20  O   UNL     1      14.326   4.472 112.307  1.00  0.00    -0.364 OA
ATOM     21  HO  UNL     1      14.954   3.760 112.282  1.00  0.00     0.213 HD
ENDBRANCH   6  20
ENDBRANCH   3   6
BRANCH   2  22
HETATM   22  C   UNL     1      17.463   1.241 114.735  1.00  0.00     0.190 C 
HETATM   23  C   UNL     1      18.052   0.219 113.727  1.00  0.00     0.235 C 
HETATM   24  N   UNL     1      19.467  -0.063 114.089  1.00  0.00    -0.059 N 
HETATM   25  C   UNL     1      17.219  -1.065 113.945  1.00  0.00     0.149 C 
HETATM   26  C   UNL     1      19.626  -0.294 115.548  1.00  0.00     0.227 C 
ATOM     27  HN2 UNL     1      19.842  -0.841 113.546  1.00  0.00     0.278 HD
ATOM     28  HN1 UNL     1      20.090   0.675 113.759  1.00  0.00     0.278 HD
HETATM   29  C   UNL     1      19.258   0.999 116.299  1.00  0.00     0.203 C 
HETATM   30  C   UNL     1      18.650  -1.380 116.039  1.00  0.00     0.149 C 
HETATM   31  O   UNL     1      18.570   1.888 115.394  1.00  0.00    -0.378 OA
HETATM   32  N   UNL     1      17.771  -1.914 115.014  1.00  0.00    -0.417 N 
ATOM     33  HN  UNL     1      17.529  -2.904 115.034  1.00  0.00     0.153 HD
ENDBRANCH   2  22
BRANCH   2  34
HETATM   34  O   UNL     1      16.237   1.783 112.805  1.00  0.00    -0.384 OA
ATOM     35  HO  UNL     1      16.455   2.495 112.216  1.00  0.00     0.210 HD
ENDBRANCH   2  34
BRANCH   5  36
HETATM   36  O   UNL     1      14.334   1.217 114.502  1.00  0.00    -0.392 OA
ATOM     37  HO  UNL     1      14.142   0.569 115.170  1.00  0.00     0.210 HD
ENDBRANCH   5  36
TORSDOF 7
ENDMDL
MODEL 4
REMARK VINA RESULT:      -8.4      2.017      3.419
REMARK  7 active torsions:
REMARK  status: ('A' for Active; 'I' for Inactive)
REMARK    1  A    between atoms: O_1  and  C_10 
REMARK    2  A    between atoms: C_4  and  C_10 
REMARK    3  A    between atoms: C_6  and  C_7 
REMARK    4  A    between atoms: C_6  and  O_24 
REMARK    5  A    between atoms: C_8  and  C_10 
REMARK    6  A    between atoms: C_10  and  O_21 
REMARK    7  A    between atoms: O_19  and  C_31 
ROOT
HETATM    1  C   UNL     1      17.153   4.982 113.744  1.00  0.00     0.053 C 
HETATM    2  C   UNL     1      16.105   3.869 113.617  1.00  0.00     0.112 C 
HETATM    3  C   UNL     1      16.610   6.264 113.099  1.00  0.00     0.054 C 
HETATM    4  C   UNL     1      15.105   6.021 112.863  1.00  0.00     0.045 C 
HETATM    5  C   UNL     1      14.797   4.571 113.227  1.00  0.00     0.155 C 
ENDROOT
BRANCH   3   6
HETATM    6  C   UNL     1      17.218   6.766 111.760  1.00  0.00     0.174 C 
BRANCH   6   7
HETATM    7  O   UNL     1      16.232   7.531 111.098  1.00  0.00    -0.364 OA
ATOM      8  HO  UNL     1      16.276   8.399 111.482  1.00  0.00     0.213 HD
ENDBRANCH   6   7
BRANCH   6   9
HETATM    9  C   UNL     1      18.432   7.669 111.877  1.00  0.00     0.127 C 
HETATM   10  C   UNL     1      19.240   7.520 113.166  1.00  0.00     0.057 C 
HETATM   11  C   UNL     1      20.624   7.198 112.654  1.00  0.00    -0.043 C 
HETATM   12  C   UNL     1      20.723   7.396 111.294  1.00  0.00     0.017 C 
HETATM   13  C   UNL     1      21.671   6.803 113.462  1.00  0.00     0.008 C 
HETATM   14  C   UNL     1      21.888   7.365 110.568  1.00  0.00     0.015 C 
HETATM   15  C   UNL     1      19.412   7.754 110.745  1.00  0.00     0.169 C 
HETATM   16  C   UNL     1      23.183   7.312 110.987  1.00  0.00     0.001 C 
HETATM   17  C   UNL     1      23.741   7.274 112.228  1.00  0.00     0.000 C 
HETATM   18  C   UNL     1      23.017   7.005 113.378  1.00  0.00     0.001 C 
HETATM   19  O   UNL     1      19.151   8.136 109.626  1.00  0.00    -0.292 OA
ENDBRANCH   6   9
BRANCH   6  20
HETATM   20  O   UNL     1      17.514   5.713 110.899  1.00  0.00    -0.364 OA
ATOM     21  HO  UNL     1      17.755   6.118 110.075  1.00  0.00     0.213 HD
ENDBRANCH   6  20
ENDBRANCH   3   6
BRANCH   2  22
HETATM   22  C   UNL     1      15.723   2.905 114.741  1.00  0.00     0.190 C 
HETATM   23  C   UNL     1      14.803   3.512 115.832  1.00  0.00     0.235 C 
HETATM   24  N   UNL     1      13.821   2.483 116.270  1.00  0.00    -0.059 N 
HETATM   25  C   UNL     1      15.752   3.825 117.011  1.00  0.00     0.149 C 
HETATM   26  C   UNL     1      14.471   1.168 116.505  1.00  0.00     0.227 C 
ATOM     27  HN2 UNL     1      13.299   2.792 117.091  1.00  0.00     0.278 HD
ATOM     28  HN1 UNL     1      13.047   2.403 115.610  1.00  0.00     0.278 HD
HETATM   29  C   UNL     1      15.043   0.651 115.172  1.00  0.00     0.203 C 
HETATM   30  C   UNL     1      15.664   1.312 117.468  1.00  0.00     0.149 C 
HETATM   31  O   UNL     1      15.064   1.734 114.218  1.00  0.00    -0.378 OA
HETATM   32  N   UNL     1      15.929   2.671 117.908  1.00  0.00    -0.417 N 
ATOM     33  HN  UNL     1      16.245   2.831 118.864  1.00  0.00     0.153 HD
ENDBRANCH   2  22
BRANCH   2  34
HETATM   34  O   UNL     1      16.552   3.034 112.546  1.00  0.00    -0.384 OA
ATOM     35  HO  UNL     1      15.869   3.070 111.887  1.00  0.00     0.210 HD
ENDBRANCH   2  34
BRANCH   5  36
HETATM   36  O   UNL     1      14.087   3.835 112.230  1.00  0.00    -0.392 OA
ATOM     37  HO  UNL     1      14.672   3.284 111.723  1.00  0.00     0.210 HD
ENDBRANCH   5  36
TORSDOF 7
ENDMDL
MODEL 5
REMARK VINA RESULT:      -8.1      2.088      3.602
REMARK  7 active torsions:
REMARK  status: ('A' for Active; 'I' for Inactive)
REMARK    1  A    between atoms: O_1  and  C_10 
REMARK    2  A    between atoms: C_4  and  C_10 
REMARK    3  A    between atoms: C_6  and  C_7 
REMARK    4  A    between atoms: C_6  and  O_24 
REMARK    5  A    between atoms: C_8  and  C_10 
REMARK    6  A    between atoms: C_10  and  O_21 
REMARK    7  A    between atoms: O_19  and  C_31 
ROOT
HETATM    1  C   UNL     1      17.153   4.890 113.749  1.00  0.00     0.053 C 
HETATM    2  C   UNL     1      16.178   3.713 113.622  1.00  0.00     0.112 C 
HETATM    3  C   UNL     1      16.594   6.095 112.980  1.00  0.00     0.054 C 
HETATM    4  C   UNL     1      15.127   5.750 112.651  1.00  0.00     0.045 C 
HETATM    5  C   UNL     1      14.868   4.311 113.090  1.00  0.00     0.155 C 
ENDROOT
BRANCH   3   6
HETATM    6  C   UNL     1      17.275   6.544 111.658  1.00  0.00     0.174 C 
BRANCH   6   7
HETATM    7  O   UNL     1      16.515   7.606 111.120  1.00  0.00    -0.364 OA
ATOM      8  HO  UNL     1      16.605   8.326 111.733  1.00  0.00     0.213 HD
ENDBRANCH   6   7
BRANCH   6   9
HETATM    9  C   UNL     1      18.692   7.072 111.786  1.00  0.00     0.127 C 
HETATM   10  C   UNL     1      19.456   7.229 110.471  1.00  0.00     0.057 C 
HETATM   11  C   UNL     1      19.850   8.688 110.489  1.00  0.00    -0.043 C 
HETATM   12  C   UNL     1      19.624   9.262 111.721  1.00  0.00     0.017 C 
HETATM   13  C   UNL     1      20.413   9.346 109.415  1.00  0.00     0.008 C 
HETATM   14  C   UNL     1      20.043  10.512 112.106  1.00  0.00     0.015 C 
HETATM   15  C   UNL     1      18.962   8.299 112.606  1.00  0.00     0.169 C 
HETATM   16  C   UNL     1      20.883  11.386 111.486  1.00  0.00     0.001 C 
HETATM   17  C   UNL     1      21.571  11.316 110.313  1.00  0.00     0.000 C 
HETATM   18  C   UNL     1      21.316  10.365 109.339  1.00  0.00     0.001 C 
HETATM   19  O   UNL     1      18.743   8.405 113.792  1.00  0.00    -0.292 OA
ENDBRANCH   6   9
BRANCH   6  20
HETATM   20  O   UNL     1      17.248   5.539 110.695  1.00  0.00    -0.364 OA
ATOM     21  HO  UNL     1      17.056   4.738 111.168  1.00  0.00     0.213 HD
ENDBRANCH   6  20
ENDBRANCH   3   6
BRANCH   2  22
HETATM   22  C   UNL     1      15.763   2.802 114.779  1.00  0.00     0.190 C 
HETATM   23  C   UNL     1      14.832   3.467 115.826  1.00  0.00     0.235 C 
HETATM   24  N   UNL     1      13.828   2.471 116.289  1.00  0.00    -0.059 N 
HETATM   25  C   UNL     1      15.764   3.817 117.008  1.00  0.00     0.149 C 
HETATM   26  C   UNL     1      14.455   1.158 116.591  1.00  0.00     0.227 C 
ATOM     27  HN2 UNL     1      13.296   2.822 117.086  1.00  0.00     0.278 HD
ATOM     28  HN1 UNL     1      13.065   2.373 115.619  1.00  0.00     0.278 HD
HETATM   29  C   UNL     1      15.044   0.579 115.292  1.00  0.00     0.203 C 
HETATM   30  C   UNL     1      15.633   1.328 117.570  1.00  0.00     0.149 C 
HETATM   31  O   UNL     1      15.097   1.619 114.294  1.00  0.00    -0.378 OA
HETATM   32  N   UNL     1      15.908   2.701 117.956  1.00  0.00    -0.417 N 
ATOM     33  HN  UNL     1      16.210   2.896 118.910  1.00  0.00     0.153 HD
ENDBRANCH   2  22
BRANCH   2  34
HETATM   34  O   UNL     1      16.751   2.838 112.648  1.00  0.00    -0.384 OA
ATOM     35  HO  UNL     1      17.656   2.718 112.908  1.00  0.00     0.210 HD
ENDBRANCH   2  34
BRANCH   5  36
HETATM   36  O   UNL     1      14.278   3.472 112.097  1.00  0.00    -0.392 OA
ATOM     37  HO  UNL     1      14.731   3.546 111.266  1.00  0.00     0.210 HD
ENDBRANCH   5  36
TORSDOF 7
ENDMDL
MODEL 6
REMARK VINA RESULT:      -8.0      1.852      2.411
REMARK  7 active torsions:
REMARK  status: ('A' for Active; 'I' for Inactive)
REMARK    1  A    between atoms: O_1  and  C_10 
REMARK    2  A    between atoms: C_4  and  C_10 
REMARK    3  A    between atoms: C_6  and  C_7 
REMARK    4  A    between atoms: C_6  and  O_24 
REMARK    5  A    between atoms: C_8  and  C_10 
REMARK    6  A    between atoms: C_10  and  O_21 
REMARK    7  A    between atoms: O_19  and  C_31 
ROOT
HETATM    1  C   UNL     1      16.418   2.601 114.703  1.00  0.00     0.053 C 
HETATM    2  C   UNL     1      15.718   1.279 115.043  1.00  0.00     0.112 C 
HETATM    3  C   UNL     1      16.289   3.562 115.893  1.00  0.00     0.054 C 
HETATM    4  C   UNL     1      15.787   2.712 117.078  1.00  0.00     0.045 C 
HETATM    5  C   UNL     1      15.486   1.308 116.560  1.00  0.00     0.155 C 
ENDROOT
BRANCH   3   6
HETATM    6  C   UNL     1      15.359   4.802 115.780  1.00  0.00     0.174 C 
BRANCH   6   7
HETATM    7  O   UNL     1      14.926   5.137 117.082  1.00  0.00    -0.364 OA
ATOM      8  HO  UNL     1      15.716   5.307 117.582  1.00  0.00     0.213 HD
ENDBRANCH   6   7
BRANCH   6   9
HETATM    9  C   UNL     1      15.994   6.061 115.218  1.00  0.00     0.127 C 
HETATM   10  C   UNL     1      17.465   6.271 115.575  1.00  0.00     0.057 C 
HETATM   11  C   UNL     1      18.121   6.393 114.220  1.00  0.00    -0.043 C 
HETATM   12  C   UNL     1      17.189   6.524 113.213  1.00  0.00     0.017 C 
HETATM   13  C   UNL     1      19.487   6.419 114.025  1.00  0.00     0.008 C 
HETATM   14  C   UNL     1      17.469   6.833 111.905  1.00  0.00     0.015 C 
HETATM   15  C   UNL     1      15.837   6.392 113.764  1.00  0.00     0.169 C 
HETATM   16  C   UNL     1      18.635   7.239 111.328  1.00  0.00     0.001 C 
HETATM   17  C   UNL     1      19.876   7.468 111.839  1.00  0.00     0.000 C 
HETATM   18  C   UNL     1      20.266   7.049 113.101  1.00  0.00     0.001 C 
HETATM   19  O   UNL     1      14.782   6.592 113.205  1.00  0.00    -0.292 OA
ENDBRANCH   6   9
BRANCH   6  20
HETATM   20  O   UNL     1      14.201   4.516 115.063  1.00  0.00    -0.364 OA
ATOM     21  HO  UNL     1      13.533   4.344 115.715  1.00  0.00     0.213 HD
ENDBRANCH   6  20
ENDBRANCH   3   6
BRANCH   2  22
HETATM   22  C   UNL     1      16.294  -0.107 114.751  1.00  0.00     0.190 C 
HETATM   23  C   UNL     1      17.842  -0.191 114.803  1.00  0.00     0.235 C 
HETATM   24  N   UNL     1      18.240  -1.493 115.404  1.00  0.00    -0.059 N 
HETATM   25  C   UNL     1      18.282  -0.173 113.322  1.00  0.00     0.149 C 
HETATM   26  C   UNL     1      17.461  -2.623 114.833  1.00  0.00     0.227 C 
ATOM     27  HN2 UNL     1      19.244  -1.651 115.317  1.00  0.00     0.278 HD
ATOM     28  HN1 UNL     1      18.170  -1.470 116.421  1.00  0.00     0.278 HD
HETATM   29  C   UNL     1      15.977  -2.437 115.197  1.00  0.00     0.203 C 
HETATM   30  C   UNL     1      17.540  -2.619 113.295  1.00  0.00     0.149 C 
HETATM   31  O   UNL     1      15.774  -1.089 115.670  1.00  0.00    -0.378 OA
HETATM   32  N   UNL     1      18.304  -1.520 112.729  1.00  0.00    -0.417 N 
ATOM     33  HN  UNL     1      18.871  -1.687 111.898  1.00  0.00     0.153 HD
ENDBRANCH   2  22
BRANCH   2  34
HETATM   34  O   UNL     1      14.466   1.315 114.353  1.00  0.00    -0.384 OA
ATOM     35  HO  UNL     1      14.580   0.770 113.583  1.00  0.00     0.210 HD
ENDBRANCH   2  34
BRANCH   5  36
HETATM   36  O   UNL     1      14.195   0.801 116.900  1.00  0.00    -0.392 OA
ATOM     37  HO  UNL     1      13.513   1.215 116.384  1.00  0.00     0.210 HD
ENDBRANCH   5  36
TORSDOF 7
ENDMDL
MODEL 7
REMARK VINA RESULT:      -8.0      3.131      7.795
REMARK  7 active torsions:
REMARK  status: ('A' for Active; 'I' for Inactive)
REMARK    1  A    between atoms: O_1  and  C_10 
REMARK    2  A    between atoms: C_4  and  C_10 
REMARK    3  A    between atoms: C_6  and  C_7 
REMARK    4  A    between atoms: C_6  and  O_24 
REMARK    5  A    between atoms: C_8  and  C_10 
REMARK    6  A    between atoms: C_10  and  O_21 
REMARK    7  A    between atoms: O_19  and  C_31 
ROOT
HETATM    1  C   UNL     1      16.927   5.762 111.674  1.00  0.00     0.053 C 
HETATM    2  C   UNL     1      17.807   6.812 112.365  1.00  0.00     0.112 C 
HETATM    3  C   UNL     1      15.457   6.019 112.034  1.00  0.00     0.054 C 
HETATM    4  C   UNL     1      15.413   7.416 112.687  1.00  0.00     0.045 C 
HETATM    5  C   UNL     1      16.848   7.912 112.841  1.00  0.00     0.155 C 
ENDROOT
BRANCH   3   6
HETATM    6  C   UNL     1      14.717   5.037 112.983  1.00  0.00     0.174 C 
BRANCH   6   7
HETATM    7  O   UNL     1      14.006   4.115 112.183  1.00  0.00    -0.364 OA
ATOM      8  HO  UNL     1      13.238   3.873 112.686  1.00  0.00     0.213 HD
ENDBRANCH   6   7
BRANCH   6   9
HETATM    9  C   UNL     1      15.597   4.201 113.894  1.00  0.00     0.127 C 
HETATM   10  C   UNL     1      15.252   4.266 115.381  1.00  0.00     0.057 C 
HETATM   11  C   UNL     1      15.023   2.815 115.733  1.00  0.00    -0.043 C 
HETATM   12  C   UNL     1      15.433   1.975 114.720  1.00  0.00     0.017 C 
HETATM   13  C   UNL     1      14.512   2.387 116.941  1.00  0.00     0.008 C 
HETATM   14  C   UNL     1      15.523   0.608 114.808  1.00  0.00     0.015 C 
HETATM   15  C   UNL     1      15.864   2.763 113.562  1.00  0.00     0.169 C 
HETATM   16  C   UNL     1      15.413  -0.213 115.889  1.00  0.00     0.001 C 
HETATM   17  C   UNL     1      15.183   0.040 117.208  1.00  0.00     0.000 C 
HETATM   18  C   UNL     1      14.733   1.262 117.679  1.00  0.00     0.001 C 
HETATM   19  O   UNL     1      16.415   2.372 112.558  1.00  0.00    -0.292 OA
ENDBRANCH   6   9
BRANCH   6  20
HETATM   20  O   UNL     1      13.753   5.686 113.750  1.00  0.00    -0.364 OA
ATOM     21  HO  UNL     1      14.127   5.761 114.620  1.00  0.00     0.213 HD
ENDBRANCH   6  20
ENDBRANCH   3   6
BRANCH   2  22
HETATM   22  C   UNL     1      18.965   7.551 111.693  1.00  0.00     0.190 C 
HETATM   23  C   UNL     1      20.342   7.363 112.381  1.00  0.00     0.235 C 
HETATM   24  N   UNL     1      21.400   7.272 111.339  1.00  0.00    -0.059 N 
HETATM   25  C   UNL     1      20.553   8.663 113.190  1.00  0.00     0.149 C 
HETATM   26  C   UNL     1      21.236   8.318 110.297  1.00  0.00     0.227 C 
ATOM     27  HN2 UNL     1      22.332   7.301 111.752  1.00  0.00     0.278 HD
ATOM     28  HN1 UNL     1      21.437   6.339 110.927  1.00  0.00     0.278 HD
HETATM   29  C   UNL     1      19.907   8.079 109.558  1.00  0.00     0.203 C 
HETATM   30  C   UNL     1      21.137   9.716 110.936  1.00  0.00     0.149 C 
HETATM   31  O   UNL     1      19.108   7.147 110.316  1.00  0.00    -0.378 OA
HETATM   32  N   UNL     1      21.183   9.724 112.388  1.00  0.00    -0.417 N 
ATOM     33  HN  UNL     1      21.665  10.485 112.865  1.00  0.00     0.153 HD
ENDBRANCH   2  22
BRANCH   2  34
HETATM   34  O   UNL     1      18.391   6.149 113.489  1.00  0.00    -0.384 OA
ATOM     35  HO  UNL     1      18.502   6.817 114.155  1.00  0.00     0.210 HD
ENDBRANCH   2  34
BRANCH   5  36
HETATM   36  O   UNL     1      17.192   8.373 114.148  1.00  0.00    -0.392 OA
ATOM     37  HO  UNL     1      18.091   8.679 114.183  1.00  0.00     0.210 HD
ENDBRANCH   5  36
TORSDOF 7
ENDMDL
MODEL 8
REMARK VINA RESULT:      -7.7      1.921      2.776
REMARK  7 active torsions:
REMARK  status: ('A' for Active; 'I' for Inactive)
REMARK    1  A    between atoms: O_1  and  C_10 
REMARK    2  A    between atoms: C_4  and  C_10 
REMARK    3  A    between atoms: C_6  and  C_7 
REMARK    4  A    between atoms: C_6  and  O_24 
REMARK    5  A    between atoms: C_8  and  C_10 
REMARK    6  A    between atoms: C_10  and  O_21 
REMARK    7  A    between atoms: O_19  and  C_31 
ROOT
HETATM    1  C   UNL     1      16.402   3.428 115.182  1.00  0.00     0.053 C 
HETATM    2  C   UNL     1      16.819   1.952 115.224  1.00  0.00     0.112 C 
HETATM    3  C   UNL     1      15.153   3.575 114.303  1.00  0.00     0.054 C 
HETATM    4  C   UNL     1      14.622   2.146 114.068  1.00  0.00     0.045 C 
HETATM    5  C   UNL     1      15.621   1.164 114.675  1.00  0.00     0.155 C 
ENDROOT
BRANCH   3   6
HETATM    6  C   UNL     1      15.268   4.264 112.915  1.00  0.00     0.174 C 
BRANCH   6   7
HETATM    7  O   UNL     1      14.131   3.905 112.159  1.00  0.00    -0.364 OA
ATOM      8  HO  UNL     1      14.432   3.264 111.527  1.00  0.00     0.213 HD
ENDBRANCH   6   7
BRANCH   6   9
HETATM    9  C   UNL     1      15.297   5.782 112.926  1.00  0.00     0.127 C 
HETATM   10  C   UNL     1      14.507   6.446 114.053  1.00  0.00     0.057 C 
HETATM   11  C   UNL     1      15.553   7.299 114.732  1.00  0.00    -0.043 C 
HETATM   12  C   UNL     1      16.710   7.375 113.988  1.00  0.00     0.017 C 
HETATM   13  C   UNL     1      15.351   7.960 115.926  1.00  0.00     0.008 C 
HETATM   14  C   UNL     1      17.769   8.211 114.244  1.00  0.00     0.015 C 
HETATM   15  C   UNL     1      16.605   6.505 112.812  1.00  0.00     0.169 C 
HETATM   16  C   UNL     1      17.880   9.240 115.130  1.00  0.00     0.001 C 
HETATM   17  C   UNL     1      17.007   9.770 116.030  1.00  0.00     0.000 C 
HETATM   18  C   UNL     1      15.835   9.139 116.412  1.00  0.00     0.001 C 
HETATM   19  O   UNL     1      17.363   6.430 111.871  1.00  0.00    -0.292 OA
ENDBRANCH   6   9
BRANCH   6  20
HETATM   20  O   UNL     1      16.361   3.793 112.193  1.00  0.00    -0.364 OA
ATOM     21  HO  UNL     1      16.053   3.691 111.301  1.00  0.00     0.213 HD
ENDBRANCH   6  20
ENDBRANCH   3   6
BRANCH   2  22
HETATM   22  C   UNL     1      17.244   1.206 116.490  1.00  0.00     0.190 C 
HETATM   23  C   UNL     1      16.075   0.788 117.420  1.00  0.00     0.235 C 
HETATM   24  N   UNL     1      16.369  -0.550 118.001  1.00  0.00    -0.059 N 
HETATM   25  C   UNL     1      16.088   1.836 118.555  1.00  0.00     0.149 C 
HETATM   26  C   UNL     1      17.769  -0.639 118.493  1.00  0.00     0.227 C 
ATOM     27  HN2 UNL     1      15.702  -0.792 118.733  1.00  0.00     0.278 HD
ATOM     28  HN1 UNL     1      16.159  -1.298 117.340  1.00  0.00     0.278 HD
HETATM   29  C   UNL     1      18.726  -0.490 117.297  1.00  0.00     0.203 C 
HETATM   30  C   UNL     1      18.085   0.520 119.456  1.00  0.00     0.149 C 
HETATM   31  O   UNL     1      17.989   0.015 116.164  1.00  0.00    -0.378 OA
HETATM   32  N   UNL     1      16.996   1.461 119.652  1.00  0.00    -0.417 N 
ATOM     33  HN  UNL     1      16.856   1.873 120.574  1.00  0.00     0.153 HD
ENDBRANCH   2  22
BRANCH   2  34
HETATM   34  O   UNL     1      17.932   1.838 114.333  1.00  0.00    -0.384 OA
ATOM     35  HO  UNL     1      18.671   1.586 114.874  1.00  0.00     0.210 HD
ENDBRANCH   2  34
BRANCH   5  36
HETATM   36  O   UNL     1      16.042   0.114 113.805  1.00  0.00    -0.392 OA
ATOM     37  HO  UNL     1      15.410  -0.037 113.111  1.00  0.00     0.210 HD
ENDBRANCH   5  36
TORSDOF 7
ENDMDL
MODEL 9
REMARK VINA RESULT:      -7.7      2.005      3.434
REMARK  7 active torsions:
REMARK  status: ('A' for Active; 'I' for Inactive)
REMARK    1  A    between atoms: O_1  and  C_10 
REMARK    2  A    between atoms: C_4  and  C_10 
REMARK    3  A    between atoms: C_6  and  C_7 
REMARK    4  A    between atoms: C_6  and  O_24 
REMARK    5  A    between atoms: C_8  and  C_10 
REMARK    6  A    between atoms: C_10  and  O_21 
REMARK    7  A    between atoms: O_19  and  C_31 
ROOT
HETATM    1  C   UNL     1      16.597   1.277 114.609  1.00  0.00     0.053 C 
HETATM    2  C   UNL     1      16.621  -0.148 115.178  1.00  0.00     0.112 C 
HETATM    3  C   UNL     1      16.184   2.256 115.717  1.00  0.00     0.054 C 
HETATM    4  C   UNL     1      16.266   1.467 117.040  1.00  0.00     0.045 C 
HETATM    5  C   UNL     1      16.580   0.011 116.704  1.00  0.00     0.155 C 
ENDROOT
BRANCH   3   6
HETATM    6  C   UNL     1      14.786   2.931 115.662  1.00  0.00     0.174 C 
BRANCH   6   7
HETATM    7  O   UNL     1      14.451   3.337 116.972  1.00  0.00    -0.364 OA
ATOM      8  HO  UNL     1      13.772   2.740 117.262  1.00  0.00     0.213 HD
ENDBRANCH   6   7
BRANCH   6   9
HETATM    9  C   UNL     1      14.682   4.178 114.802  1.00  0.00     0.127 C 
HETATM   10  C   UNL     1      15.395   5.414 115.348  1.00  0.00     0.057 C 
HETATM   11  C   UNL     1      16.331   5.782 114.221  1.00  0.00    -0.043 C 
HETATM   12  C   UNL     1      16.045   5.078 113.071  1.00  0.00     0.017 C 
HETATM   13  C   UNL     1      17.316   6.743 114.320  1.00  0.00     0.008 C 
HETATM   14  C   UNL     1      16.592   5.316 111.835  1.00  0.00     0.015 C 
HETATM   15  C   UNL     1      14.984   4.101 113.335  1.00  0.00     0.169 C 
HETATM   16  C   UNL     1      17.372   6.346 111.403  1.00  0.00     0.001 C 
HETATM   17  C   UNL     1      17.855   7.453 112.032  1.00  0.00     0.000 C 
HETATM   18  C   UNL     1      17.844   7.608 113.409  1.00  0.00     0.001 C 
HETATM   19  O   UNL     1      14.384   3.418 112.536  1.00  0.00    -0.292 OA
ENDBRANCH   6   9
BRANCH   6  20
HETATM   20  O   UNL     1      13.792   2.032 115.283  1.00  0.00    -0.364 OA
ATOM     21  HO  UNL     1      14.157   1.540 114.558  1.00  0.00     0.213 HD
ENDBRANCH   6  20
ENDBRANCH   3   6
BRANCH   2  22
HETATM   22  C   UNL     1      17.726  -1.170 114.910  1.00  0.00     0.190 C 
HETATM   23  C   UNL     1      18.912  -0.637 114.065  1.00  0.00     0.235 C 
HETATM   24  N   UNL     1      20.181  -1.219 114.582  1.00  0.00    -0.059 N 
HETATM   25  C   UNL     1      18.656  -1.189 112.644  1.00  0.00     0.149 C 
HETATM   26  C   UNL     1      20.053  -2.678 114.832  1.00  0.00     0.227 C 
ATOM     27  HN2 UNL     1      20.964  -1.015 113.961  1.00  0.00     0.278 HD
ATOM     28  HN1 UNL     1      20.504  -0.726 115.414  1.00  0.00     0.278 HD
HETATM   29  C   UNL     1      19.013  -2.903 115.944  1.00  0.00     0.203 C 
HETATM   30  C   UNL     1      19.522  -3.403 113.581  1.00  0.00     0.149 C 
HETATM   31  O   UNL     1      18.267  -1.684 116.144  1.00  0.00    -0.378 OA
HETATM   32  N   UNL     1      19.225  -2.533 112.456  1.00  0.00    -0.417 N 
ATOM     33  HN  UNL     1      19.415  -2.863 111.510  1.00  0.00     0.153 HD
ENDBRANCH   2  22
BRANCH   2  34
HETATM   34  O   UNL     1      15.419  -0.770 114.717  1.00  0.00    -0.384 OA
ATOM     35  HO  UNL     1      14.716  -0.173 114.943  1.00  0.00     0.210 HD
ENDBRANCH   2  34
BRANCH   5  36
HETATM   36  O   UNL     1      15.712  -0.949 117.306  1.00  0.00    -0.392 OA
ATOM     37  HO  UNL     1      16.184  -1.733 117.560  1.00  0.00     0.210 HD
ENDBRANCH   5  36
TORSDOF 7
ENDMDL
