REMARK  2 active torsions:
REMARK  status: ('A' for Active; 'I' for Inactive)
REMARK    1  A    between atoms: C_3  and  C_18 
REMARK    2  A    between atoms: C_9  and  C_15 
ROOT
HETATM    1  C   UNL     1      43.994  36.949  17.821  1.00  0.00     0.013 C 
HETATM    2  C   UNL     1      44.257  35.191  15.725  1.00  0.00     0.013 C 
HETATM    3  C   UNL     1      43.036  35.274  16.409  1.00  0.00    -0.026 C 
HETATM    4  C   UNL     1      45.180  36.223  15.877  1.00  0.00     0.013 C 
HETATM    5  C   UNL     1      44.950  37.200  16.837  1.00  0.00    -0.026 C 
HETATM    6  C   UNL     1      43.010  35.992  17.598  1.00  0.00     0.013 C 
ENDROOT
BRANCH   3   7
HETATM    7  C   UNL     1      41.881  34.788  15.820  1.00  0.00    -0.025 C 
HETATM    8  C   UNL     1      40.812  34.255  16.535  1.00  0.00     0.013 C 
HETATM    9  C   UNL     1      39.530  34.328  16.000  1.00  0.00     0.013 C 
HETATM   10  C   UNL     1      39.344  35.117  14.856  1.00  0.00    -0.026 C 
HETATM   11  C   UNL     1      40.432  35.461  14.074  1.00  0.00    -0.025 C 
HETATM   12  C   UNL     1      38.050  35.527  14.609  1.00  0.00     0.012 C 
HETATM   13  C   UNL     1      40.377  36.174  12.916  1.00  0.00     0.012 C 
HETATM   14  C   UNL     1      41.694  35.043  14.469  1.00  0.00     0.024 C 
HETATM   15  C   UNL     1      39.409  36.934  12.375  1.00  0.00     0.001 C 
HETATM   16  C   UNL     1      38.133  37.156  12.790  1.00  0.00     0.000 C 
HETATM   17  C   UNL     1      37.582  36.578  13.894  1.00  0.00     0.001 C 
ENDBRANCH   3   7
BRANCH   5  18
HETATM   18  C   UNL     1      45.620  38.451  16.823  1.00  0.00    -0.026 C 
HETATM   19  C   UNL     1      45.048  39.549  16.203  1.00  0.00     0.012 C 
HETATM   20  C   UNL     1      45.474  40.839  16.477  1.00  0.00     0.001 C 
HETATM   21  C   UNL     1      46.398  41.056  17.476  1.00  0.00     0.000 C 
HETATM   22  C   UNL     1      47.047  39.973  18.029  1.00  0.00     0.001 C 
HETATM   23  C   UNL     1      46.726  38.677  17.637  1.00  0.00     0.012 C 
ENDBRANCH   5  18
TORSDOF 2
