MODEL 1
REMARK VINA RESULT:      -8.4      0.000      0.000
REMARK  2 active torsions:
REMARK  status: ('A' for Active; 'I' for Inactive)
REMARK    1  A    between atoms: C_1  and  O_9 
REMARK       I    between atoms: C_6  and  N_18 
REMARK    2  A    between atoms: C_6  and  C_25 
ROOT
HETATM    1  C   UNL     1       3.406  -4.708 -40.396  1.00  0.00     0.246 C 
HETATM    2  N   UNL     1       4.192  -5.619 -37.943  1.00  0.00    -0.351 N 
ATOM      3  HN  UNL     1       4.440  -4.805 -37.381  1.00  0.00     0.163 HD
HETATM    4  C   UNL     1       1.732  -7.405 -39.030  1.00  0.00     0.020 C 
HETATM    5  C   UNL     1       3.744  -5.397 -42.798  1.00  0.00     0.256 C 
HETATM    6  C   UNL     1       3.395  -5.564 -39.135  1.00  0.00     0.143 C 
HETATM    7  N   UNL     1       3.433  -5.674 -41.491  1.00  0.00    -0.319 N 
HETATM    8  O   UNL     1       4.152  -6.290 -43.539  1.00  0.00    -0.267 OA
HETATM    9  C   UNL     1       3.236  -7.056 -41.053  1.00  0.00     0.140 C 
HETATM   10  C   UNL     1       4.583  -6.913 -37.647  1.00  0.00     0.218 C 
HETATM   11  C   UNL     1       4.216  -7.808 -38.837  1.00  0.00     0.115 C 
HETATM   12  C   UNL     1       3.114  -7.003 -39.525  1.00  0.00     0.005 C 
HETATM   13  O   UNL     1       4.261  -7.333 -36.496  1.00  0.00    -0.274 OA
ENDROOT
BRANCH   5  14
HETATM   14  C   UNL     1       3.617  -4.027 -43.376  1.00  0.00     0.033 C 
HETATM   15  C   UNL     1       2.829  -3.794 -44.506  1.00  0.00     0.018 C 
HETATM   16  C   UNL     1       2.975  -2.622 -45.243  1.00  0.00     0.014 C 
HETATM   17  C   UNL     1       3.795  -1.587 -44.752  1.00  0.00    -0.009 C 
HETATM   18  C   UNL     1       4.705  -1.903 -43.695  1.00  0.00    -0.008 C 
HETATM   19  C   UNL     1       3.691  -0.288 -45.286  1.00  0.00     0.105 C 
HETATM   20  C   UNL     1       5.978  -1.343 -43.632  1.00  0.00     0.105 C 
HETATM   21  C   UNL     1       4.369  -2.975 -42.858  1.00  0.00     0.030 C 
HETATM   22  N   UNL     1       6.473  -0.462 -44.523  1.00  0.00    -0.318 N 
HETATM   23  C   UNL     1       5.946   0.669 -45.091  1.00  0.00     0.324 C 
ATOM     24  HN  UNL     1       7.420  -0.679 -44.835  1.00  0.00     0.170 HD
HETATM   25  O   UNL     1       6.767   1.524 -45.434  1.00  0.00    -0.247 OA
HETATM   26  N   UNL     1       4.656   0.625 -45.499  1.00  0.00    -0.318 N 
ATOM     27  HN  UNL     1       4.366   1.421 -46.066  1.00  0.00     0.170 HD
ENDBRANCH   5  14
BRANCH   1  28
HETATM   28  O   UNL     1       2.235  -3.942 -40.504  1.00  0.00    -0.374 OA
ATOM     29  HO  UNL     1       2.262  -3.373 -41.266  1.00  0.00     0.212 HD
ENDBRANCH   1  28
TORSDOF 2
ENDMDL
MODEL 2
REMARK VINA RESULT:      -8.3      2.114      8.137
REMARK  2 active torsions:
REMARK  status: ('A' for Active; 'I' for Inactive)
REMARK    1  A    between atoms: C_1  and  O_9 
REMARK       I    between atoms: C_6  and  N_18 
REMARK    2  A    between atoms: C_6  and  C_25 
ROOT
HETATM    1  C   UNL     1       4.656  -4.015 -44.403  1.00  0.00     0.246 C 
HETATM    2  N   UNL     1       6.611  -2.667 -45.755  1.00  0.00    -0.351 N 
ATOM      3  HN  UNL     1       7.235  -3.365 -46.162  1.00  0.00     0.163 HD
HETATM    4  C   UNL     1       3.788  -1.143 -46.116  1.00  0.00     0.020 C 
HETATM    5  C   UNL     1       3.445  -3.764 -42.205  1.00  0.00     0.256 C 
HETATM    6  C   UNL     1       5.281  -2.948 -45.292  1.00  0.00     0.143 C 
HETATM    7  N   UNL     1       3.924  -3.261 -43.388  1.00  0.00    -0.319 N 
HETATM    8  O   UNL     1       3.235  -3.012 -41.255  1.00  0.00    -0.267 OA
HETATM    9  C   UNL     1       3.858  -1.826 -43.666  1.00  0.00     0.140 C 
HETATM   10  C   UNL     1       6.944  -1.336 -45.581  1.00  0.00     0.218 C 
HETATM   11  C   UNL     1       5.849  -0.675 -44.736  1.00  0.00     0.115 C 
HETATM   12  C   UNL     1       4.657  -1.606 -44.956  1.00  0.00     0.005 C 
HETATM   13  O   UNL     1       7.307  -0.721 -46.628  1.00  0.00    -0.274 OA
ENDROOT
BRANCH   5  14
HETATM   14  C   UNL     1       3.169  -5.217 -42.009  1.00  0.00     0.033 C 
HETATM   15  C   UNL     1       1.932  -5.767 -42.357  1.00  0.00     0.018 C 
HETATM   16  C   UNL     1       1.547  -7.012 -41.870  1.00  0.00     0.014 C 
HETATM   17  C   UNL     1       2.475  -7.803 -41.164  1.00  0.00    -0.009 C 
HETATM   18  C   UNL     1       3.663  -7.166 -40.684  1.00  0.00    -0.008 C 
HETATM   19  C   UNL     1       2.231  -9.175 -40.967  1.00  0.00     0.105 C 
HETATM   20  C   UNL     1       4.227  -7.499 -39.456  1.00  0.00     0.105 C 
HETATM   21  C   UNL     1       4.105  -6.029 -41.373  1.00  0.00     0.030 C 
HETATM   22  N   UNL     1       3.741  -8.434 -38.617  1.00  0.00    -0.318 N 
HETATM   23  C   UNL     1       3.300  -9.716 -38.822  1.00  0.00     0.324 C 
ATOM     24  HN  UNL     1       3.690  -8.130 -37.644  1.00  0.00     0.170 HD
HETATM   25  O   UNL     1       3.416 -10.478 -37.858  1.00  0.00    -0.247 OA
HETATM   26  N   UNL     1       2.523  -9.948 -39.905  1.00  0.00    -0.318 N 
ATOM     27  HN  UNL     1       2.082 -10.868 -39.918  1.00  0.00     0.170 HD
ENDBRANCH   5  14
BRANCH   1  28
HETATM   28  O   UNL     1       3.744  -4.806 -45.117  1.00  0.00    -0.374 OA
ATOM     29  HO  UNL     1       3.112  -5.217 -44.537  1.00  0.00     0.212 HD
ENDBRANCH   1  28
TORSDOF 2
ENDMDL
MODEL 3
REMARK VINA RESULT:      -8.2      2.442      3.213
REMARK  2 active torsions:
REMARK  status: ('A' for Active; 'I' for Inactive)
REMARK    1  A    between atoms: C_1  and  O_9 
REMARK       I    between atoms: C_6  and  N_18 
REMARK    2  A    between atoms: C_6  and  C_25 
ROOT
HETATM    1  C   UNL     1       3.840  -5.835 -43.232  1.00  0.00     0.246 C 
HETATM    2  N   UNL     1       4.354  -7.701 -41.302  1.00  0.00    -0.351 N 
ATOM      3  HN  UNL     1       5.299  -8.051 -41.462  1.00  0.00     0.163 HD
HETATM    4  C   UNL     1       2.635  -5.275 -40.042  1.00  0.00     0.020 C 
HETATM    5  C   UNL     1       1.887  -5.214 -44.702  1.00  0.00     0.256 C 
HETATM    6  C   UNL     1       3.846  -6.474 -41.848  1.00  0.00     0.143 C 
HETATM    7  N   UNL     1       2.435  -5.525 -43.483  1.00  0.00    -0.319 N 
HETATM    8  O   UNL     1       0.686  -5.386 -44.902  1.00  0.00    -0.267 OA
HETATM    9  C   UNL     1       1.578  -5.720 -42.313  1.00  0.00     0.140 C 
HETATM   10  C   UNL     1       3.406  -8.349 -40.531  1.00  0.00     0.218 C 
HETATM   11  C   UNL     1       2.062  -7.637 -40.724  1.00  0.00     0.115 C 
HETATM   12  C   UNL     1       2.492  -6.250 -41.201  1.00  0.00     0.005 C 
HETATM   13  O   UNL     1       3.752  -8.604 -39.338  1.00  0.00    -0.274 OA
ENDROOT
BRANCH   5  14
HETATM   14  C   UNL     1       2.702  -4.672 -45.828  1.00  0.00     0.033 C 
HETATM   15  C   UNL     1       3.600  -5.486 -46.523  1.00  0.00     0.018 C 
HETATM   16  C   UNL     1       4.593  -4.928 -47.321  1.00  0.00     0.014 C 
HETATM   17  C   UNL     1       4.590  -3.541 -47.571  1.00  0.00    -0.009 C 
HETATM   18  C   UNL     1       3.775  -2.716 -46.733  1.00  0.00    -0.008 C 
HETATM   19  C   UNL     1       5.354  -3.009 -48.628  1.00  0.00     0.105 C 
HETATM   20  C   UNL     1       4.187  -1.449 -46.330  1.00  0.00     0.105 C 
HETATM   21  C   UNL     1       2.659  -3.313 -46.134  1.00  0.00     0.030 C 
HETATM   22  N   UNL     1       5.354  -0.874 -46.680  1.00  0.00    -0.318 N 
HETATM   23  C   UNL     1       5.998  -0.758 -47.885  1.00  0.00     0.324 C 
ATOM     24  HN  UNL     1       5.853  -0.445 -45.901  1.00  0.00     0.170 HD
HETATM   25  O   UNL     1       6.734   0.226 -48.002  1.00  0.00    -0.247 OA
HETATM   26  N   UNL     1       6.021  -1.843 -48.693  1.00  0.00    -0.318 N 
ATOM     27  HN  UNL     1       6.653  -1.762 -49.490  1.00  0.00     0.170 HD
ENDBRANCH   5  14
BRANCH   1  28
HETATM   28  O   UNL     1       4.571  -4.638 -43.246  1.00  0.00    -0.374 OA
ATOM     29  HO  UNL     1       5.505  -4.803 -43.300  1.00  0.00     0.212 HD
ENDBRANCH   1  28
TORSDOF 2
ENDMDL
MODEL 4
REMARK VINA RESULT:      -8.2      2.848      4.079
REMARK  2 active torsions:
REMARK  status: ('A' for Active; 'I' for Inactive)
REMARK    1  A    between atoms: C_1  and  O_9 
REMARK       I    between atoms: C_6  and  N_18 
REMARK    2  A    between atoms: C_6  and  C_25 
ROOT
HETATM    1  C   UNL     1       3.645  -8.049 -39.438  1.00  0.00     0.246 C 
HETATM    2  N   UNL     1       4.014 -10.408 -38.108  1.00  0.00    -0.351 N 
ATOM      3  HN  UNL     1       4.987 -10.684 -38.244  1.00  0.00     0.163 HD
HETATM    4  C   UNL     1       2.042  -8.497 -36.410  1.00  0.00     0.020 C 
HETATM    5  C   UNL     1       1.856  -7.029 -40.892  1.00  0.00     0.256 C 
HETATM    6  C   UNL     1       3.517  -9.078 -38.321  1.00  0.00     0.143 C 
HETATM    7  N   UNL     1       2.268  -7.691 -39.763  1.00  0.00    -0.319 N 
HETATM    8  O   UNL     1       0.697  -7.143 -41.287  1.00  0.00    -0.267 OA
HETATM    9  C   UNL     1       1.287  -8.240 -38.826  1.00  0.00     0.140 C 
HETATM   10  C   UNL     1       3.013 -11.269 -37.697  1.00  0.00     0.218 C 
HETATM   11  C   UNL     1       1.670 -10.545 -37.838  1.00  0.00     0.115 C 
HETATM   12  C   UNL     1       2.086  -9.075 -37.817  1.00  0.00     0.005 C 
HETATM   13  O   UNL     1       3.226 -11.871 -36.601  1.00  0.00    -0.274 OA
ENDROOT
BRANCH   5  14
HETATM   14  C   UNL     1       2.773  -6.162 -41.689  1.00  0.00     0.033 C 
HETATM   15  C   UNL     1       3.033  -4.845 -41.302  1.00  0.00     0.018 C 
HETATM   16  C   UNL     1       3.593  -3.940 -42.198  1.00  0.00     0.014 C 
HETATM   17  C   UNL     1       4.061  -4.394 -43.447  1.00  0.00    -0.009 C 
HETATM   18  C   UNL     1       3.644  -5.691 -43.883  1.00  0.00    -0.008 C 
HETATM   19  C   UNL     1       4.926  -3.590 -44.215  1.00  0.00     0.105 C 
HETATM   20  C   UNL     1       3.357  -5.958 -45.219  1.00  0.00     0.105 C 
HETATM   21  C   UNL     1       3.301  -6.621 -42.893  1.00  0.00     0.030 C 
HETATM   22  N   UNL     1       3.447  -5.058 -46.217  1.00  0.00    -0.318 N 
HETATM   23  C   UNL     1       4.417  -4.148 -46.552  1.00  0.00     0.324 C 
ATOM     24  HN  UNL     1       2.641  -5.052 -46.842  1.00  0.00     0.170 HD
HETATM   25  O   UNL     1       4.479  -3.855 -47.749  1.00  0.00    -0.247 OA
HETATM   26  N   UNL     1       4.990  -3.443 -45.550  1.00  0.00    -0.318 N 
ATOM     27  HN  UNL     1       5.573  -2.665 -45.862  1.00  0.00     0.170 HD
ENDBRANCH   5  14
BRANCH   1  28
HETATM   28  O   UNL     1       4.315  -6.897 -38.998  1.00  0.00    -0.374 OA
ATOM     29  HO  UNL     1       5.109  -6.745 -39.497  1.00  0.00     0.212 HD
ENDBRANCH   1  28
TORSDOF 2
ENDMDL
MODEL 5
REMARK VINA RESULT:      -8.2      1.996      2.432
REMARK  2 active torsions:
REMARK  status: ('A' for Active; 'I' for Inactive)
REMARK    1  A    between atoms: C_1  and  O_9 
REMARK       I    between atoms: C_6  and  N_18 
REMARK    2  A    between atoms: C_6  and  C_25 
ROOT
HETATM    1  C   UNL     1       2.131  -6.664 -40.653  1.00  0.00     0.246 C 
HETATM    2  N   UNL     1       1.508  -6.890 -38.002  1.00  0.00    -0.351 N 
ATOM      3  HN  UNL     1       0.827  -6.161 -37.786  1.00  0.00     0.163 HD
HETATM    4  C   UNL     1       1.886  -9.828 -39.285  1.00  0.00     0.020 C 
HETATM    5  C   UNL     1       4.219  -6.805 -42.060  1.00  0.00     0.256 C 
HETATM    6  C   UNL     1       1.806  -7.347 -39.329  1.00  0.00     0.143 C 
HETATM    7  N   UNL     1       3.380  -7.284 -41.085  1.00  0.00    -0.319 N 
HETATM    8  O   UNL     1       5.406  -7.125 -42.066  1.00  0.00    -0.267 OA
HETATM    9  C   UNL     1       3.773  -8.432 -40.268  1.00  0.00     0.140 C 
HETATM   10  C   UNL     1       2.255  -7.559 -37.049  1.00  0.00     0.218 C 
HETATM   11  C   UNL     1       3.314  -8.397 -37.774  1.00  0.00     0.115 C 
HETATM   12  C   UNL     1       2.711  -8.554 -39.169  1.00  0.00     0.005 C 
HETATM   13  O   UNL     1       1.589  -8.141 -36.141  1.00  0.00    -0.274 OA
ENDROOT
BRANCH   5  14
HETATM   14  C   UNL     1       3.748  -5.883 -43.135  1.00  0.00     0.033 C 
HETATM   15  C   UNL     1       3.245  -6.382 -44.339  1.00  0.00     0.018 C 
HETATM   16  C   UNL     1       3.132  -5.560 -45.456  1.00  0.00     0.014 C 
HETATM   17  C   UNL     1       3.361  -4.175 -45.329  1.00  0.00    -0.009 C 
HETATM   18  C   UNL     1       4.023  -3.716 -44.146  1.00  0.00    -0.008 C 
HETATM   19  C   UNL     1       2.926  -3.290 -46.333  1.00  0.00     0.105 C 
HETATM   20  C   UNL     1       4.940  -2.669 -44.180  1.00  0.00     0.105 C 
HETATM   21  C   UNL     1       3.903  -4.506 -42.996  1.00  0.00     0.030 C 
HETATM   22  N   UNL     1       5.286  -1.988 -45.290  1.00  0.00    -0.318 N 
HETATM   23  C   UNL     1       4.542  -1.440 -46.303  1.00  0.00     0.324 C 
ATOM     24  HN  UNL     1       6.291  -1.856 -45.397  1.00  0.00     0.170 HD
HETATM   25  O   UNL     1       5.050  -0.467 -46.868  1.00  0.00    -0.247 OA
HETATM   26  N   UNL     1       3.508  -2.165 -46.788  1.00  0.00    -0.318 N 
ATOM     27  HN  UNL     1       3.100  -1.796 -47.647  1.00  0.00     0.170 HD
ENDBRANCH   5  14
BRANCH   1  28
HETATM   28  O   UNL     1       1.145  -6.924 -41.617  1.00  0.00    -0.374 OA
ATOM     29  HO  UNL     1       0.965  -6.155 -42.145  1.00  0.00     0.212 HD
ENDBRANCH   1  28
TORSDOF 2
ENDMDL
MODEL 6
REMARK VINA RESULT:      -8.1      1.783      8.145
REMARK  2 active torsions:
REMARK  status: ('A' for Active; 'I' for Inactive)
REMARK    1  A    between atoms: C_1  and  O_9 
REMARK       I    between atoms: C_6  and  N_18 
REMARK    2  A    between atoms: C_6  and  C_25 
ROOT
HETATM    1  C   UNL     1       4.220  -3.708 -43.489  1.00  0.00     0.246 C 
HETATM    2  N   UNL     1       5.107  -1.259 -44.316  1.00  0.00    -0.351 N 
ATOM      3  HN  UNL     1       5.980  -1.069 -43.823  1.00  0.00     0.163 HD
HETATM    4  C   UNL     1       3.789  -2.838 -46.805  1.00  0.00     0.020 C 
HETATM    5  C   UNL     1       2.003  -4.738 -42.871  1.00  0.00     0.256 C 
HETATM    6  C   UNL     1       4.523  -2.564 -44.449  1.00  0.00     0.143 C 
HETATM    7  N   UNL     1       2.805  -3.996 -43.701  1.00  0.00    -0.319 N 
HETATM    8  O   UNL     1       0.784  -4.581 -42.886  1.00  0.00    -0.267 OA
HETATM    9  C   UNL     1       2.231  -3.284 -44.843  1.00  0.00     0.140 C 
HETATM   10  C   UNL     1       4.341  -0.289 -44.938  1.00  0.00     0.218 C 
HETATM   11  C   UNL     1       3.009  -0.925 -45.355  1.00  0.00     0.115 C 
HETATM   12  C   UNL     1       3.358  -2.411 -45.409  1.00  0.00     0.005 C 
HETATM   13  O   UNL     1       4.941   0.404 -45.813  1.00  0.00    -0.274 OA
ENDROOT
BRANCH   5  14
HETATM   14  C   UNL     1       2.556  -5.746 -41.919  1.00  0.00     0.033 C 
HETATM   15  C   UNL     1       2.794  -7.062 -42.325  1.00  0.00     0.018 C 
HETATM   16  C   UNL     1       2.974  -8.072 -41.385  1.00  0.00     0.014 C 
HETATM   17  C   UNL     1       3.091  -7.743 -40.020  1.00  0.00    -0.009 C 
HETATM   18  C   UNL     1       2.688  -6.431 -39.615  1.00  0.00    -0.008 C 
HETATM   19  C   UNL     1       3.609  -8.681 -39.106  1.00  0.00     0.105 C 
HETATM   20  C   UNL     1       2.044  -6.205 -38.402  1.00  0.00     0.105 C 
HETATM   21  C   UNL     1       2.744  -5.416 -40.579  1.00  0.00     0.030 C 
HETATM   22  N   UNL     1       1.748  -7.161 -37.501  1.00  0.00    -0.318 N 
HETATM   23  C   UNL     1       2.484  -8.193 -36.977  1.00  0.00     0.324 C 
ATOM     24  HN  UNL     1       0.796  -7.107 -37.139  1.00  0.00     0.170 HD
HETATM   25  O   UNL     1       2.159  -8.555 -35.843  1.00  0.00    -0.247 OA
HETATM   26  N   UNL     1       3.260  -8.905 -37.827  1.00  0.00    -0.318 N 
ATOM     27  HN  UNL     1       3.647  -9.760 -37.427  1.00  0.00     0.170 HD
ENDBRANCH   5  14
BRANCH   1  28
HETATM   28  O   UNL     1       4.963  -4.854 -43.810  1.00  0.00    -0.374 OA
ATOM     29  HO  UNL     1       5.570  -5.081 -43.113  1.00  0.00     0.212 HD
ENDBRANCH   1  28
TORSDOF 2
ENDMDL
MODEL 7
REMARK VINA RESULT:      -8.1      2.492      3.445
REMARK  2 active torsions:
REMARK  status: ('A' for Active; 'I' for Inactive)
REMARK    1  A    between atoms: C_1  and  O_9 
REMARK       I    between atoms: C_6  and  N_18 
REMARK    2  A    between atoms: C_6  and  C_25 
ROOT
HETATM    1  C   UNL     1       3.451  -7.912 -40.025  1.00  0.00     0.246 C 
HETATM    2  N   UNL     1       4.144 -10.034 -38.449  1.00  0.00    -0.351 N 
ATOM      3  HN  UNL     1       5.097 -10.299 -38.698  1.00  0.00     0.163 HD
HETATM    4  C   UNL     1       2.360  -7.949 -36.747  1.00  0.00     0.020 C 
HETATM    5  C   UNL     1       1.408  -7.172 -41.304  1.00  0.00     0.256 C 
HETATM    6  C   UNL     1       3.551  -8.766 -38.767  1.00  0.00     0.143 C 
HETATM    7  N   UNL     1       2.023  -7.646 -40.173  1.00  0.00    -0.319 N 
HETATM    8  O   UNL     1       0.209  -7.377 -41.487  1.00  0.00    -0.267 OA
HETATM    9  C   UNL     1       1.229  -8.078 -39.022  1.00  0.00     0.140 C 
HETATM   10  C   UNL     1       3.264 -10.853 -37.763  1.00  0.00     0.218 C 
HETATM   11  C   UNL     1       1.879 -10.197 -37.789  1.00  0.00     0.115 C 
HETATM   12  C   UNL     1       2.216  -8.729 -38.046  1.00  0.00     0.005 C 
HETATM   13  O   UNL     1       3.674 -11.278 -36.642  1.00  0.00    -0.274 OA
ENDROOT
BRANCH   5  14
HETATM   14  C   UNL     1       2.144  -6.408 -42.353  1.00  0.00     0.033 C 
HETATM   15  C   UNL     1       3.032  -7.050 -43.219  1.00  0.00     0.018 C 
HETATM   16  C   UNL     1       3.963  -6.319 -43.951  1.00  0.00     0.014 C 
HETATM   17  C   UNL     1       3.899  -4.911 -43.953  1.00  0.00    -0.009 C 
HETATM   18  C   UNL     1       3.100  -4.280 -42.948  1.00  0.00    -0.008 C 
HETATM   19  C   UNL     1       4.588  -4.172 -44.933  1.00  0.00     0.105 C 
HETATM   20  C   UNL     1       3.488  -3.085 -42.347  1.00  0.00     0.105 C 
HETATM   21  C   UNL     1       2.037  -5.020 -42.414  1.00  0.00     0.030 C 
HETATM   22  N   UNL     1       4.615  -2.408 -42.643  1.00  0.00    -0.318 N 
HETATM   23  C   UNL     1       5.191  -2.057 -43.837  1.00  0.00     0.324 C 
ATOM     24  HN  UNL     1       5.138  -2.099 -41.824  1.00  0.00     0.170 HD
HETATM   25  O   UNL     1       5.885  -1.037 -43.812  1.00  0.00    -0.247 OA
HETATM   26  N   UNL     1       5.210  -2.984 -44.823  1.00  0.00    -0.318 N 
ATOM     27  HN  UNL     1       5.797  -2.739 -45.620  1.00  0.00     0.170 HD
ENDBRANCH   5  14
BRANCH   1  28
HETATM   28  O   UNL     1       4.120  -6.688 -39.867  1.00  0.00    -0.374 OA
ATOM     29  HO  UNL     1       4.748  -6.726 -39.155  1.00  0.00     0.212 HD
ENDBRANCH   1  28
TORSDOF 2
ENDMDL
MODEL 8
REMARK VINA RESULT:      -8.1      2.091      2.109
REMARK  2 active torsions:
REMARK  status: ('A' for Active; 'I' for Inactive)
REMARK    1  A    between atoms: C_1  and  O_9 
REMARK       I    between atoms: C_6  and  N_18 
REMARK    2  A    between atoms: C_6  and  C_25 
ROOT
HETATM    1  C   UNL     1       3.399  -4.966 -40.918  1.00  0.00     0.246 C 
HETATM    2  N   UNL     1       4.142  -5.073 -38.291  1.00  0.00    -0.351 N 
ATOM      3  HN  UNL     1       4.368  -4.122 -38.000  1.00  0.00     0.163 HD
HETATM    4  C   UNL     1       1.728  -7.150 -38.825  1.00  0.00     0.020 C 
HETATM    5  C   UNL     1       3.798  -6.346 -42.991  1.00  0.00     0.256 C 
HETATM    6  C   UNL     1       3.370  -5.398 -39.457  1.00  0.00     0.143 C 
HETATM    7  N   UNL     1       3.461  -6.219 -41.667  1.00  0.00    -0.319 N 
HETATM    8  O   UNL     1       4.232  -7.415 -43.417  1.00  0.00    -0.267 OA
HETATM    9  C   UNL     1       3.272  -7.405 -40.832  1.00  0.00     0.140 C 
HETATM   10  C   UNL     1       4.542  -6.209 -37.609  1.00  0.00     0.218 C 
HETATM   11  C   UNL     1       4.212  -7.429 -38.476  1.00  0.00     0.115 C 
HETATM   12  C   UNL     1       3.115  -6.892 -39.395  1.00  0.00     0.005 C 
HETATM   13  O   UNL     1       4.200  -6.264 -36.390  1.00  0.00    -0.274 OA
ENDROOT
BRANCH   5  14
HETATM   14  C   UNL     1       3.666  -5.220 -43.960  1.00  0.00     0.033 C 
HETATM   15  C   UNL     1       2.527  -5.087 -44.758  1.00  0.00     0.018 C 
HETATM   16  C   UNL     1       2.539  -4.267 -45.882  1.00  0.00     0.014 C 
HETATM   17  C   UNL     1       3.648  -3.431 -46.124  1.00  0.00    -0.009 C 
HETATM   18  C   UNL     1       4.853  -3.697 -45.400  1.00  0.00    -0.008 C 
HETATM   19  C   UNL     1       3.544  -2.364 -47.036  1.00  0.00     0.105 C 
HETATM   20  C   UNL     1       6.107  -3.549 -45.985  1.00  0.00     0.105 C 
HETATM   21  C   UNL     1       4.728  -4.341 -44.161  1.00  0.00     0.030 C 
HETATM   22  N   UNL     1       6.319  -3.143 -47.252  1.00  0.00    -0.318 N 
HETATM   23  C   UNL     1       5.795  -2.112 -47.988  1.00  0.00     0.324 C 
ATOM     24  HN  UNL     1       6.997  -3.711 -47.759  1.00  0.00     0.170 HD
HETATM   25  O   UNL     1       6.524  -1.673 -48.882  1.00  0.00    -0.247 OA
HETATM   26  N   UNL     1       4.466  -1.880 -47.888  1.00  0.00    -0.318 N 
ATOM     27  HN  UNL     1       4.099  -1.224 -48.579  1.00  0.00     0.170 HD
ENDBRANCH   5  14
BRANCH   1  28
HETATM   28  O   UNL     1       2.222  -4.290 -41.275  1.00  0.00    -0.374 OA
ATOM     29  HO  UNL     1       2.348  -3.348 -41.271  1.00  0.00     0.212 HD
ENDBRANCH   1  28
TORSDOF 2
ENDMDL
MODEL 9
REMARK VINA RESULT:      -8.1      2.249      8.048
REMARK  2 active torsions:
REMARK  status: ('A' for Active; 'I' for Inactive)
REMARK    1  A    between atoms: C_1  and  O_9 
REMARK       I    between atoms: C_6  and  N_18 
REMARK    2  A    between atoms: C_6  and  C_25 
ROOT
HETATM    1  C   UNL     1       4.300  -4.462 -43.528  1.00  0.00     0.246 C 
HETATM    2  N   UNL     1       5.773  -2.821 -45.143  1.00  0.00    -0.351 N 
ATOM      3  HN  UNL     1       6.609  -2.555 -44.623  1.00  0.00     0.163 HD
HETATM    4  C   UNL     1       4.415  -5.157 -46.911  1.00  0.00     0.020 C 
HETATM    5  C   UNL     1       1.862  -4.763 -42.961  1.00  0.00     0.256 C 
HETATM    6  C   UNL     1       4.940  -3.942 -44.810  1.00  0.00     0.143 C 
HETATM    7  N   UNL     1       2.886  -4.608 -43.861  1.00  0.00    -0.319 N 
HETATM    8  O   UNL     1       0.713  -4.456 -43.274  1.00  0.00    -0.267 OA
HETATM    9  C   UNL     1       2.601  -4.425 -45.284  1.00  0.00     0.140 C 
HETATM   10  C   UNL     1       5.302  -2.146 -46.254  1.00  0.00     0.218 C 
HETATM   11  C   UNL     1       3.916  -2.702 -46.602  1.00  0.00     0.115 C 
HETATM   12  C   UNL     1       3.942  -4.081 -45.944  1.00  0.00     0.005 C 
HETATM   13  O   UNL     1       6.126  -2.025 -47.211  1.00  0.00    -0.274 OA
ENDROOT
BRANCH   5  14
HETATM   14  C   UNL     1       2.083  -5.290 -41.583  1.00  0.00     0.033 C 
HETATM   15  C   UNL     1       2.818  -4.563 -40.644  1.00  0.00     0.018 C 
HETATM   16  C   UNL     1       3.317  -5.179 -39.500  1.00  0.00     0.014 C 
HETATM   17  C   UNL     1       2.933  -6.501 -39.197  1.00  0.00    -0.009 C 
HETATM   18  C   UNL     1       2.322  -7.272 -40.236  1.00  0.00    -0.008 C 
HETATM   19  C   UNL     1       3.135  -7.018 -37.903  1.00  0.00     0.105 C 
HETATM   20  C   UNL     1       2.576  -8.632 -40.384  1.00  0.00     0.105 C 
HETATM   21  C   UNL     1       1.648  -6.570 -41.244  1.00  0.00     0.030 C 
HETATM   22  N   UNL     1       3.390  -9.352 -39.588  1.00  0.00    -0.318 N 
HETATM   23  C   UNL     1       3.517  -9.423 -38.224  1.00  0.00     0.324 C 
ATOM     24  HN  UNL     1       4.035  -9.958 -40.095  1.00  0.00     0.170 HD
HETATM   25  O   UNL     1       3.938 -10.497 -37.786  1.00  0.00    -0.247 OA
HETATM   26  N   UNL     1       3.474  -8.264 -37.527  1.00  0.00    -0.318 N 
ATOM     27  HN  UNL     1       3.744  -8.351 -36.548  1.00  0.00     0.170 HD
ENDBRANCH   5  14
BRANCH   1  28
HETATM   28  O   UNL     1       4.809  -5.722 -43.177  1.00  0.00    -0.374 OA
ATOM     29  HO  UNL     1       5.028  -6.234 -43.947  1.00  0.00     0.212 HD
ENDBRANCH   1  28
TORSDOF 2
ENDMDL
