MODEL 1
REMARK VINA RESULT:      -8.9      0.000      0.000
REMARK  2 active torsions:
REMARK  status: ('A' for Active; 'I' for Inactive)
REMARK    1  A    between atoms: C_3  and  C_19 
REMARK    2  A    between atoms: C_13  and  C_18 
ROOT
HETATM    1  C   UNL     1       2.880  -6.399 -41.023  1.00  0.00    -0.029 C 
HETATM    2  C   UNL     1       2.987  -6.547 -43.543  1.00  0.00     0.086 C 
HETATM    3  C   UNL     1       3.787  -6.463 -38.939  1.00  0.00     0.190 C 
HETATM    4  C   UNL     1       3.270  -3.621 -41.293  1.00  0.00     0.011 C 
HETATM    5  C   UNL     1       4.573  -4.045 -43.440  1.00  0.00     0.162 C 
HETATM    6  O   UNL     1       4.863  -6.503 -38.339  1.00  0.00    -0.287 OA
HETATM    7  C   UNL     1       3.303  -5.765 -44.741  1.00  0.00     0.242 C 
HETATM    8  C   UNL     1       2.485  -7.753 -40.452  1.00  0.00     0.084 C 
HETATM    9  C   UNL     1       3.178  -5.891 -42.323  1.00  0.00    -0.015 C 
HETATM   10  N   UNL     1       4.448  -4.922 -44.612  1.00  0.00    -0.353 N 
ATOM     11  HN  UNL     1       5.174  -4.928 -45.328  1.00  0.00     0.163 HD
HETATM   12  O   UNL     1       2.928  -6.054 -45.855  1.00  0.00    -0.269 OA
HETATM   13  C   UNL     1       2.738  -7.546 -38.948  1.00  0.00     0.007 C 
HETATM   14  C   UNL     1       3.659  -4.495 -42.346  1.00  0.00    -0.029 C 
HETATM   15  C   UNL     1       3.305  -5.579 -39.940  1.00  0.00     0.022 C 
HETATM   16  C   UNL     1       3.152  -4.170 -40.003  1.00  0.00     0.017 C 
ENDROOT
BRANCH  13  17
HETATM   17  C   UNL     1       2.224  -7.955 -37.585  1.00  0.00    -0.025 C 
HETATM   18  C   UNL     1       2.707  -9.101 -36.882  1.00  0.00     0.030 C 
HETATM   19  C   UNL     1       2.089  -9.826 -35.824  1.00  0.00     0.041 C 
HETATM   20  C   UNL     1       0.772  -9.682 -35.335  1.00  0.00     0.018 C 
HETATM   21  C   UNL     1      -0.108  -8.599 -35.480  1.00  0.00     0.001 C 
HETATM   22  C   UNL     1       0.066  -7.484 -36.313  1.00  0.00     0.001 C 
HETATM   23  C   UNL     1       1.165  -7.144 -37.120  1.00  0.00     0.012 C 
BRANCH  19  24
HETATM   24  C   UNL     1       2.983 -10.727 -34.959  1.00  0.00     0.209 C 
HETATM   25  O   UNL     1       2.590 -11.035 -33.806  1.00  0.00    -0.644 OA
HETATM   26  O   UNL     1       4.176 -10.916 -35.292  1.00  0.00    -0.644 OA
ENDBRANCH  19  24
ENDBRANCH  13  17
TORSDOF 2
ENDMDL
MODEL 2
REMARK VINA RESULT:      -8.5      2.662      4.091
REMARK  2 active torsions:
REMARK  status: ('A' for Active; 'I' for Inactive)
REMARK    1  A    between atoms: C_3  and  C_19 
REMARK    2  A    between atoms: C_13  and  C_18 
ROOT
HETATM    1  C   UNL     1       3.525  -5.109 -44.214  1.00  0.00    -0.029 C 
HETATM    2  C   UNL     1       4.856  -4.551 -46.288  1.00  0.00     0.086 C 
HETATM    3  C   UNL     1       2.769  -4.702 -42.108  1.00  0.00     0.190 C 
HETATM    4  C   UNL     1       1.326  -3.835 -45.433  1.00  0.00     0.011 C 
HETATM    5  C   UNL     1       2.941  -2.326 -46.696  1.00  0.00     0.162 C 
HETATM    6  O   UNL     1       2.722  -3.834 -41.235  1.00  0.00    -0.287 OA
HETATM    7  C   UNL     1       4.802  -3.777 -47.530  1.00  0.00     0.242 C 
HETATM    8  C   UNL     1       4.352  -6.008 -43.307  1.00  0.00     0.084 C 
HETATM    9  C   UNL     1       3.752  -4.415 -45.440  1.00  0.00    -0.015 C 
HETATM   10  N   UNL     1       4.225  -2.478 -47.393  1.00  0.00    -0.353 N 
ATOM     11  HN  UNL     1       4.702  -1.661 -47.776  1.00  0.00     0.163 HD
HETATM   12  O   UNL     1       5.505  -3.992 -48.492  1.00  0.00    -0.269 OA
HETATM   13  C   UNL     1       3.513  -6.010 -42.016  1.00  0.00     0.007 C 
HETATM   14  C   UNL     1       2.647  -3.533 -45.865  1.00  0.00    -0.029 C 
HETATM   15  C   UNL     1       2.387  -4.677 -43.476  1.00  0.00     0.022 C 
HETATM   16  C   UNL     1       1.172  -4.373 -44.141  1.00  0.00     0.017 C 
ENDROOT
BRANCH  13  17
HETATM   17  C   UNL     1       3.132  -6.886 -40.844  1.00  0.00    -0.025 C 
HETATM   18  C   UNL     1       3.781  -6.815 -39.573  1.00  0.00     0.030 C 
HETATM   19  C   UNL     1       3.820  -7.787 -38.533  1.00  0.00     0.041 C 
HETATM   20  C   UNL     1       3.363  -9.123 -38.586  1.00  0.00     0.018 C 
HETATM   21  C   UNL     1       2.457  -9.709 -39.480  1.00  0.00     0.001 C 
HETATM   22  C   UNL     1       1.942  -9.132 -40.650  1.00  0.00     0.001 C 
HETATM   23  C   UNL     1       2.133  -7.835 -41.157  1.00  0.00     0.012 C 
BRANCH  19  24
HETATM   24  C   UNL     1       4.201  -7.309 -37.124  1.00  0.00     0.209 C 
HETATM   25  O   UNL     1       4.222  -8.149 -36.190  1.00  0.00    -0.644 OA
HETATM   26  O   UNL     1       4.222  -6.082 -36.872  1.00  0.00    -0.644 OA
ENDBRANCH  19  24
ENDBRANCH  13  17
TORSDOF 2
ENDMDL
MODEL 3
REMARK VINA RESULT:      -8.5      3.028      5.363
REMARK  2 active torsions:
REMARK  status: ('A' for Active; 'I' for Inactive)
REMARK    1  A    between atoms: C_3  and  C_19 
REMARK    2  A    between atoms: C_13  and  C_18 
ROOT
HETATM    1  C   UNL     1       3.820  -2.939 -43.794  1.00  0.00    -0.029 C 
HETATM    2  C   UNL     1       4.861  -0.724 -44.418  1.00  0.00     0.086 C 
HETATM    3  C   UNL     1       2.066  -4.291 -43.275  1.00  0.00     0.190 C 
HETATM    4  C   UNL     1       3.656  -3.499 -46.551  1.00  0.00     0.011 C 
HETATM    5  C   UNL     1       3.457  -1.002 -47.013  1.00  0.00     0.162 C 
HETATM    6  O   UNL     1       0.835  -4.332 -43.247  1.00  0.00    -0.287 OA
HETATM    7  C   UNL     1       5.139   0.149 -45.562  1.00  0.00     0.242 C 
HETATM    8  C   UNL     1       3.884  -3.122 -42.285  1.00  0.00     0.084 C 
HETATM    9  C   UNL     1       4.153  -1.895 -44.707  1.00  0.00    -0.015 C 
HETATM   10  N   UNL     1       4.079   0.231 -46.514  1.00  0.00    -0.353 N 
ATOM     11  HN  UNL     1       3.756   1.140 -46.846  1.00  0.00     0.163 HD
HETATM   12  O   UNL     1       5.972   1.028 -45.555  1.00  0.00    -0.269 OA
HETATM   13  C   UNL     1       2.982  -4.353 -42.079  1.00  0.00     0.007 C 
HETATM   14  C   UNL     1       3.766  -2.152 -46.109  1.00  0.00    -0.029 C 
HETATM   15  C   UNL     1       2.969  -3.953 -44.318  1.00  0.00     0.022 C 
HETATM   16  C   UNL     1       3.165  -4.446 -45.634  1.00  0.00     0.017 C 
ENDROOT
BRANCH  13  17
HETATM   17  C   UNL     1       2.814  -5.574 -41.203  1.00  0.00    -0.025 C 
HETATM   18  C   UNL     1       3.141  -5.587 -39.812  1.00  0.00     0.030 C 
HETATM   19  C   UNL     1       3.410  -6.702 -38.967  1.00  0.00     0.041 C 
HETATM   20  C   UNL     1       3.583  -8.050 -39.350  1.00  0.00     0.018 C 
HETATM   21  C   UNL     1       3.182  -8.689 -40.532  1.00  0.00     0.001 C 
HETATM   22  C   UNL     1       2.680  -8.073 -41.688  1.00  0.00     0.001 C 
HETATM   23  C   UNL     1       2.385  -6.718 -41.913  1.00  0.00     0.012 C 
BRANCH  19  24
HETATM   24  C   UNL     1       3.302  -6.489 -37.450  1.00  0.00     0.209 C 
HETATM   25  O   UNL     1       2.162  -6.489 -36.923  1.00  0.00    -0.644 OA
HETATM   26  O   UNL     1       4.293  -6.061 -36.814  1.00  0.00    -0.644 OA
ENDBRANCH  19  24
ENDBRANCH  13  17
TORSDOF 2
ENDMDL
MODEL 4
REMARK VINA RESULT:      -8.4      3.190      8.834
REMARK  2 active torsions:
REMARK  status: ('A' for Active; 'I' for Inactive)
REMARK    1  A    between atoms: C_3  and  C_19 
REMARK    2  A    between atoms: C_13  and  C_18 
ROOT
HETATM    1  C   UNL     1       3.739  -6.295 -41.163  1.00  0.00    -0.029 C 
HETATM    2  C   UNL     1       3.647  -8.392 -39.757  1.00  0.00     0.086 C 
HETATM    3  C   UNL     1       2.833  -4.713 -42.523  1.00  0.00     0.190 C 
HETATM    4  C   UNL     1       3.174  -4.844 -38.814  1.00  0.00     0.011 C 
HETATM    5  C   UNL     1       1.906  -6.859 -37.912  1.00  0.00     0.162 C 
HETATM    6  O   UNL     1       1.761  -4.304 -42.971  1.00  0.00    -0.287 OA
HETATM    7  C   UNL     1       3.285  -8.884 -38.425  1.00  0.00     0.242 C 
HETATM    8  C   UNL     1       4.218  -6.644 -42.564  1.00  0.00     0.084 C 
HETATM    9  C   UNL     1       3.412  -7.033 -39.986  1.00  0.00    -0.015 C 
HETATM   10  N   UNL     1       2.089  -8.316 -37.891  1.00  0.00    -0.353 N 
ATOM     11  HN  UNL     1       1.366  -8.919 -37.497  1.00  0.00     0.163 HD
HETATM   12  O   UNL     1       3.680  -9.930 -37.960  1.00  0.00    -0.269 OA
HETATM   13  C   UNL     1       3.949  -5.333 -43.325  1.00  0.00     0.007 C 
HETATM   14  C   UNL     1       2.844  -6.225 -38.888  1.00  0.00    -0.029 C 
HETATM   15  C   UNL     1       3.260  -4.955 -41.190  1.00  0.00     0.022 C 
HETATM   16  C   UNL     1       3.325  -4.145 -40.026  1.00  0.00     0.017 C 
ENDROOT
BRANCH  13  17
HETATM   17  C   UNL     1       4.484  -4.477 -44.451  1.00  0.00    -0.025 C 
HETATM   18  C   UNL     1       5.116  -3.213 -44.238  1.00  0.00     0.030 C 
HETATM   19  C   UNL     1       5.311  -2.144 -45.158  1.00  0.00     0.041 C 
HETATM   20  C   UNL     1       4.771  -2.018 -46.458  1.00  0.00     0.018 C 
HETATM   21  C   UNL     1       4.249  -3.014 -47.295  1.00  0.00     0.001 C 
HETATM   22  C   UNL     1       3.973  -4.344 -46.944  1.00  0.00     0.001 C 
HETATM   23  C   UNL     1       4.221  -5.010 -45.733  1.00  0.00     0.012 C 
BRANCH  19  24
HETATM   24  C   UNL     1       6.381  -1.097 -44.819  1.00  0.00     0.209 C 
HETATM   25  O   UNL     1       7.197  -0.761 -45.714  1.00  0.00    -0.644 OA
HETATM   26  O   UNL     1       6.597  -0.799 -43.622  1.00  0.00    -0.644 OA
ENDBRANCH  19  24
ENDBRANCH  13  17
TORSDOF 2
ENDMDL
MODEL 5
REMARK VINA RESULT:      -8.4      5.581      9.790
REMARK  2 active torsions:
REMARK  status: ('A' for Active; 'I' for Inactive)
REMARK    1  A    between atoms: C_3  and  C_19 
REMARK    2  A    between atoms: C_13  and  C_18 
ROOT
HETATM    1  C   UNL     1       2.405  -4.617 -44.408  1.00  0.00    -0.029 C 
HETATM    2  C   UNL     1       0.029  -5.423 -44.711  1.00  0.00     0.086 C 
HETATM    3  C   UNL     1       4.032  -3.420 -43.364  1.00  0.00     0.190 C 
HETATM    4  C   UNL     1       2.855  -6.918 -42.845  1.00  0.00     0.011 C 
HETATM    5  C   UNL     1       0.400  -6.900 -42.168  1.00  0.00     0.162 C 
HETATM    6  O   UNL     1       4.262  -2.753 -42.354  1.00  0.00    -0.287 OA
HETATM    7  C   UNL     1      -0.927  -6.425 -44.236  1.00  0.00     0.242 C 
HETATM    8  C   UNL     1       2.645  -3.403 -45.294  1.00  0.00     0.084 C 
HETATM    9  C   UNL     1       1.280  -5.434 -44.086  1.00  0.00    -0.015 C 
HETATM   10  N   UNL     1      -0.890  -6.658 -42.828  1.00  0.00    -0.353 N 
ATOM     11  HN  UNL     1      -1.753  -6.657 -42.284  1.00  0.00     0.163 HD
HETATM   12  O   UNL     1      -1.923  -6.751 -44.843  1.00  0.00    -0.269 OA
HETATM   13  C   UNL     1       4.008  -2.904 -44.780  1.00  0.00     0.007 C 
HETATM   14  C   UNL     1       1.529  -6.441 -43.034  1.00  0.00    -0.029 C 
HETATM   15  C   UNL     1       3.511  -4.732 -43.521  1.00  0.00     0.022 C 
HETATM   16  C   UNL     1       3.908  -6.002 -43.028  1.00  0.00     0.017 C 
ENDROOT
BRANCH  13  17
HETATM   17  C   UNL     1       5.279  -2.226 -45.239  1.00  0.00    -0.025 C 
HETATM   18  C   UNL     1       5.688  -0.939 -44.775  1.00  0.00     0.030 C 
HETATM   19  C   UNL     1       6.602  -0.022 -45.370  1.00  0.00     0.041 C 
HETATM   20  C   UNL     1       7.190  -0.103 -46.651  1.00  0.00     0.018 C 
HETATM   21  C   UNL     1       7.337  -1.221 -47.485  1.00  0.00     0.001 C 
HETATM   22  C   UNL     1       6.754  -2.484 -47.302  1.00  0.00     0.001 C 
HETATM   23  C   UNL     1       5.973  -2.953 -46.233  1.00  0.00     0.012 C 
BRANCH  19  24
HETATM   24  C   UNL     1       7.195   1.076 -44.475  1.00  0.00     0.209 C 
HETATM   25  O   UNL     1       8.017   0.745 -43.584  1.00  0.00    -0.644 OA
HETATM   26  O   UNL     1       6.670   2.213 -44.460  1.00  0.00    -0.644 OA
ENDBRANCH  19  24
ENDBRANCH  13  17
TORSDOF 2
ENDMDL
MODEL 6
REMARK VINA RESULT:      -8.3      1.683      2.408
REMARK  2 active torsions:
REMARK  status: ('A' for Active; 'I' for Inactive)
REMARK    1  A    between atoms: C_3  and  C_19 
REMARK    2  A    between atoms: C_13  and  C_18 
ROOT
HETATM    1  C   UNL     1       3.055  -5.824 -40.250  1.00  0.00    -0.029 C 
HETATM    2  C   UNL     1       3.574  -3.718 -41.547  1.00  0.00     0.086 C 
HETATM    3  C   UNL     1       1.782  -7.637 -39.735  1.00  0.00     0.190 C 
HETATM    4  C   UNL     1       4.586  -7.227 -42.155  1.00  0.00     0.011 C 
HETATM    5  C   UNL     1       3.959  -5.480 -43.899  1.00  0.00     0.162 C 
HETATM    6  O   UNL     1       0.809  -8.290 -40.114  1.00  0.00    -0.287 OA
HETATM    7  C   UNL     1       4.162  -3.241 -42.800  1.00  0.00     0.242 C 
HETATM    8  C   UNL     1       2.338  -5.460 -38.959  1.00  0.00     0.084 C 
HETATM    9  C   UNL     1       3.512  -5.107 -41.396  1.00  0.00    -0.015 C 
HETATM   10  N   UNL     1       3.821  -4.019 -43.948  1.00  0.00    -0.353 N 
ATOM     11  HN  UNL     1       3.484  -3.563 -44.796  1.00  0.00     0.163 HD
HETATM   12  O   UNL     1       4.560  -2.110 -42.973  1.00  0.00    -0.269 OA
HETATM   13  C   UNL     1       1.872  -6.840 -38.458  1.00  0.00     0.007 C 
HETATM   14  C   UNL     1       4.043  -5.954 -42.484  1.00  0.00    -0.029 C 
HETATM   15  C   UNL     1       2.963  -7.235 -40.415  1.00  0.00     0.022 C 
HETATM   16  C   UNL     1       3.976  -7.945 -41.110  1.00  0.00     0.017 C 
ENDROOT
BRANCH  13  17
HETATM   17  C   UNL     1       1.616  -7.624 -37.191  1.00  0.00    -0.025 C 
HETATM   18  C   UNL     1       2.441  -8.710 -36.767  1.00  0.00     0.030 C 
HETATM   19  C   UNL     1       2.136  -9.764 -35.858  1.00  0.00     0.041 C 
HETATM   20  C   UNL     1       0.879 -10.075 -35.292  1.00  0.00     0.018 C 
HETATM   21  C   UNL     1      -0.256  -9.262 -35.166  1.00  0.00     0.001 C 
HETATM   22  C   UNL     1      -0.454  -8.003 -35.754  1.00  0.00     0.001 C 
HETATM   23  C   UNL     1       0.437  -7.232 -36.518  1.00  0.00     0.012 C 
BRANCH  19  24
HETATM   24  C   UNL     1       3.310 -10.538 -35.242  1.00  0.00     0.209 C 
HETATM   25  O   UNL     1       4.405 -10.557 -35.857  1.00  0.00    -0.644 OA
HETATM   26  O   UNL     1       3.097 -11.342 -34.305  1.00  0.00    -0.644 OA
ENDBRANCH  19  24
ENDBRANCH  13  17
TORSDOF 2
ENDMDL
MODEL 7
REMARK VINA RESULT:      -8.2      1.624      2.367
REMARK  2 active torsions:
REMARK  status: ('A' for Active; 'I' for Inactive)
REMARK    1  A    between atoms: C_3  and  C_19 
REMARK    2  A    between atoms: C_13  and  C_18 
ROOT
HETATM    1  C   UNL     1       3.169  -6.745 -41.544  1.00  0.00    -0.029 C 
HETATM    2  C   UNL     1       3.506  -6.437 -44.029  1.00  0.00     0.086 C 
HETATM    3  C   UNL     1       3.900  -7.003 -39.406  1.00  0.00     0.190 C 
HETATM    4  C   UNL     1       3.032  -3.938 -41.339  1.00  0.00     0.011 C 
HETATM    5  C   UNL     1       4.561  -3.747 -43.367  1.00  0.00     0.162 C 
HETATM    6  O   UNL     1       4.911  -6.953 -38.703  1.00  0.00    -0.287 OA
HETATM    7  C   UNL     1       3.759  -5.417 -45.049  1.00  0.00     0.242 C 
HETATM    8  C   UNL     1       3.000  -8.225 -41.235  1.00  0.00     0.084 C 
HETATM    9  C   UNL     1       3.466  -5.977 -42.709  1.00  0.00    -0.015 C 
HETATM   10  N   UNL     1       4.703  -4.418 -44.665  1.00  0.00    -0.353 N 
ATOM     11  HN  UNL     1       5.472  -4.171 -45.289  1.00  0.00     0.163 HD
HETATM   12  O   UNL     1       3.538  -5.573 -46.230  1.00  0.00    -0.269 OA
HETATM   13  C   UNL     1       3.085  -8.238 -39.698  1.00  0.00     0.007 C 
HETATM   14  C   UNL     1       3.667  -4.534 -42.463  1.00  0.00    -0.029 C 
HETATM   15  C   UNL     1       3.338  -6.060 -40.307  1.00  0.00     0.022 C 
HETATM   16  C   UNL     1       2.919  -4.712 -40.170  1.00  0.00     0.017 C 
ENDROOT
BRANCH  13  17
HETATM   17  C   UNL     1       2.553  -8.960 -38.480  1.00  0.00    -0.025 C 
HETATM   18  C   UNL     1       1.538  -8.418 -37.634  1.00  0.00     0.030 C 
HETATM   19  C   UNL     1       1.216  -8.762 -36.290  1.00  0.00     0.041 C 
HETATM   20  C   UNL     1       1.942  -9.607 -35.420  1.00  0.00     0.018 C 
HETATM   21  C   UNL     1       2.900 -10.581 -35.735  1.00  0.00     0.001 C 
HETATM   22  C   UNL     1       3.490 -10.801 -36.988  1.00  0.00     0.001 C 
HETATM   23  C   UNL     1       3.218 -10.179 -38.217  1.00  0.00     0.012 C 
BRANCH  19  24
HETATM   24  C   UNL     1      -0.167  -8.357 -35.761  1.00  0.00     0.209 C 
HETATM   25  O   UNL     1      -0.858  -7.554 -36.437  1.00  0.00    -0.644 OA
HETATM   26  O   UNL     1      -0.472  -8.608 -34.572  1.00  0.00    -0.644 OA
ENDBRANCH  19  24
ENDBRANCH  13  17
TORSDOF 2
ENDMDL
MODEL 8
REMARK VINA RESULT:      -8.1      3.267      8.908
REMARK  2 active torsions:
REMARK  status: ('A' for Active; 'I' for Inactive)
REMARK    1  A    between atoms: C_3  and  C_19 
REMARK    2  A    between atoms: C_13  and  C_18 
ROOT
HETATM    1  C   UNL     1       2.806  -5.592 -40.791  1.00  0.00    -0.029 C 
HETATM    2  C   UNL     1       3.956  -5.608 -38.542  1.00  0.00     0.086 C 
HETATM    3  C   UNL     1       2.661  -6.078 -43.008  1.00  0.00     0.190 C 
HETATM    4  C   UNL     1       1.516  -7.973 -40.010  1.00  0.00     0.011 C 
HETATM    5  C   UNL     1       3.519  -8.539 -38.544  1.00  0.00     0.162 C 
HETATM    6  O   UNL     1       3.200  -6.727 -43.906  1.00  0.00    -0.287 OA
HETATM    7  C   UNL     1       4.176  -6.438 -37.355  1.00  0.00     0.242 C 
HETATM    8  C   UNL     1       3.119  -4.289 -41.512  1.00  0.00     0.084 C 
HETATM    9  C   UNL     1       3.218  -6.203 -39.569  1.00  0.00    -0.015 C 
HETATM   10  N   UNL     1       4.417  -7.817 -37.633  1.00  0.00    -0.353 N 
ATOM     11  HN  UNL     1       5.208  -8.297 -37.203  1.00  0.00     0.163 HD
HETATM   12  O   UNL     1       4.525  -6.001 -36.280  1.00  0.00    -0.269 OA
HETATM   13  C   UNL     1       2.582  -4.575 -42.926  1.00  0.00     0.007 C 
HETATM   14  C   UNL     1       2.724  -7.581 -39.370  1.00  0.00    -0.029 C 
HETATM   15  C   UNL     1       2.186  -6.467 -41.727  1.00  0.00     0.022 C 
HETATM   16  C   UNL     1       1.257  -7.446 -41.289  1.00  0.00     0.017 C 
ENDROOT
BRANCH  13  17
HETATM   17  C   UNL     1       1.936  -3.899 -44.114  1.00  0.00    -0.025 C 
HETATM   18  C   UNL     1       2.626  -2.972 -44.954  1.00  0.00     0.030 C 
HETATM   19  C   UNL     1       2.088  -1.988 -45.832  1.00  0.00     0.041 C 
HETATM   20  C   UNL     1       0.739  -1.584 -45.948  1.00  0.00     0.018 C 
HETATM   21  C   UNL     1      -0.421  -2.259 -45.544  1.00  0.00     0.001 C 
HETATM   22  C   UNL     1      -0.484  -3.416 -44.753  1.00  0.00     0.001 C 
HETATM   23  C   UNL     1       0.565  -4.209 -44.258  1.00  0.00     0.012 C 
BRANCH  19  24
HETATM   24  C   UNL     1       3.006  -1.431 -46.930  1.00  0.00     0.209 C 
HETATM   25  O   UNL     1       3.784  -2.222 -47.520  1.00  0.00    -0.644 OA
HETATM   26  O   UNL     1       3.163  -0.193 -47.036  1.00  0.00    -0.644 OA
ENDBRANCH  19  24
ENDBRANCH  13  17
TORSDOF 2
ENDMDL
MODEL 9
REMARK VINA RESULT:      -8.1      3.007      8.522
REMARK  2 active torsions:
REMARK  status: ('A' for Active; 'I' for Inactive)
REMARK    1  A    between atoms: C_3  and  C_19 
REMARK    2  A    between atoms: C_13  and  C_18 
ROOT
HETATM    1  C   UNL     1       2.517  -7.021 -40.082  1.00  0.00    -0.029 C 
HETATM    2  C   UNL     1       1.544  -6.972 -37.751  1.00  0.00     0.086 C 
HETATM    3  C   UNL     1       4.225  -7.201 -41.573  1.00  0.00     0.190 C 
HETATM    4  C   UNL     1       1.962  -9.784 -40.123  1.00  0.00     0.011 C 
HETATM    5  C   UNL     1       2.251  -9.846 -37.594  1.00  0.00     0.162 C 
HETATM    6  O   UNL     1       5.418  -7.493 -41.665  1.00  0.00    -0.287 OA
HETATM    7  C   UNL     1       1.072  -7.842 -36.670  1.00  0.00     0.242 C 
HETATM    8  C   UNL     1       2.805  -5.599 -40.541  1.00  0.00     0.084 C 
HETATM    9  C   UNL     1       2.061  -7.627 -38.873  1.00  0.00    -0.015 C 
HETATM   10  N   UNL     1       1.873  -9.003 -36.452  1.00  0.00    -0.353 N 
ATOM     11  HN  UNL     1       2.181  -9.245 -35.510  1.00  0.00     0.163 HD
HETATM   12  O   UNL     1       0.342  -7.474 -35.776  1.00  0.00    -0.269 OA
HETATM   13  C   UNL     1       3.623  -5.841 -41.822  1.00  0.00     0.007 C 
HETATM   14  C   UNL     1       2.075  -9.104 -38.879  1.00  0.00    -0.029 C 
HETATM   15  C   UNL     1       3.128  -7.909 -41.012  1.00  0.00     0.022 C 
HETATM   16  C   UNL     1       2.579  -9.196 -41.243  1.00  0.00     0.017 C 
ENDROOT
BRANCH  13  17
HETATM   17  C   UNL     1       3.896  -5.259 -43.191  1.00  0.00    -0.025 C 
HETATM   18  C   UNL     1       4.467  -3.964 -43.387  1.00  0.00     0.030 C 
HETATM   19  C   UNL     1       4.426  -3.135 -44.545  1.00  0.00     0.041 C 
HETATM   20  C   UNL     1       3.662  -3.330 -45.717  1.00  0.00     0.018 C 
HETATM   21  C   UNL     1       3.072  -4.508 -46.198  1.00  0.00     0.001 C 
HETATM   22  C   UNL     1       2.952  -5.725 -45.512  1.00  0.00     0.001 C 
HETATM   23  C   UNL     1       3.451  -6.084 -44.249  1.00  0.00     0.012 C 
BRANCH  19  24
HETATM   24  C   UNL     1       5.466  -2.011 -44.654  1.00  0.00     0.209 C 
HETATM   25  O   UNL     1       6.227  -1.991 -45.653  1.00  0.00    -0.644 OA
HETATM   26  O   UNL     1       5.721  -1.305 -43.650  1.00  0.00    -0.644 OA
ENDBRANCH  19  24
ENDBRANCH  13  17
TORSDOF 2
ENDMDL
