MODEL 1
REMARK VINA RESULT:      -9.6      0.000      0.000
REMARK  1 active torsions:
REMARK  status: ('A' for Active; 'I' for Inactive)
REMARK    1  A    between atoms: O_4  and  C_14 
ROOT
HETATM    1  C   UNL     1     -20.355 -36.135   2.542  1.00  0.00     0.001 C 
HETATM    2  C   UNL     1     -18.579 -32.624   2.150  1.00  0.00    -0.047 C 
HETATM    3  C   UNL     1     -18.943 -34.012   2.601  1.00  0.00     0.023 C 
HETATM    4  C   UNL     1     -17.088 -31.145   0.971  1.00  0.00     0.037 C 
HETATM    5  C   UNL     1     -19.447 -35.167   4.730  1.00  0.00     0.005 C 
HETATM    6  C   UNL     1     -17.622 -30.704   3.300  1.00  0.00     0.044 C 
HETATM    7  C   UNL     1     -17.823 -32.342   0.996  1.00  0.00     0.011 C 
HETATM    8  C   UNL     1     -19.512 -33.824   4.004  1.00  0.00    -0.002 C 
HETATM    9  C   UNL     1     -18.714 -32.652   4.579  1.00  0.00     0.044 C 
HETATM   10  C   UNL     1     -18.218 -31.936   3.358  1.00  0.00    -0.048 C 
HETATM   11  C   UNL     1     -19.939 -34.849   1.808  1.00  0.00     0.010 C 
HETATM   12  C   UNL     1     -17.142 -30.258   2.051  1.00  0.00     0.066 C 
HETATM   13  C   UNL     1     -20.295 -36.234   4.046  1.00  0.00     0.000 C 
ENDROOT
BRANCH  12  14
HETATM   14  O   UNL     1     -16.898 -28.927   1.861  1.00  0.00    -0.361 OA
ATOM     15  HO  UNL     1     -16.821 -28.344   2.607  1.00  0.00     0.217 HD
ENDBRANCH  12  14
TORSDOF 1
ENDMDL
MODEL 2
REMARK VINA RESULT:      -8.8      2.364      5.018
REMARK  1 active torsions:
REMARK  status: ('A' for Active; 'I' for Inactive)
REMARK    1  A    between atoms: O_4  and  C_14 
ROOT
HETATM    1  C   UNL     1     -16.475 -30.376   0.141  1.00  0.00     0.001 C 
HETATM    2  C   UNL     1     -18.387 -33.073   2.310  1.00  0.00    -0.047 C 
HETATM    3  C   UNL     1     -17.937 -31.778   1.691  1.00  0.00     0.023 C 
HETATM    4  C   UNL     1     -20.037 -34.815   2.517  1.00  0.00     0.037 C 
HETATM    5  C   UNL     1     -17.179 -29.553   2.459  1.00  0.00     0.005 C 
HETATM    6  C   UNL     1     -19.277 -33.640   4.504  1.00  0.00     0.044 C 
HETATM    7  C   UNL     1     -19.268 -33.980   1.690  1.00  0.00     0.011 C 
HETATM    8  C   UNL     1     -17.231 -31.036   2.821  1.00  0.00    -0.002 C 
HETATM    9  C   UNL     1     -18.000 -31.447   4.079  1.00  0.00     0.044 C 
HETATM   10  C   UNL     1     -18.641 -32.744   3.686  1.00  0.00    -0.048 C 
HETATM   11  C   UNL     1     -17.005 -31.779   0.486  1.00  0.00     0.010 C 
HETATM   12  C   UNL     1     -19.897 -34.757   3.908  1.00  0.00     0.066 C 
HETATM   13  C   UNL     1     -16.375 -29.296   1.188  1.00  0.00     0.000 C 
ENDROOT
BRANCH  12  14
HETATM   14  O   UNL     1     -20.200 -35.847   4.675  1.00  0.00    -0.361 OA
ATOM     15  HO  UNL     1     -20.462 -35.735   5.581  1.00  0.00     0.217 HD
ENDBRANCH  12  14
TORSDOF 1
ENDMDL
MODEL 3
REMARK VINA RESULT:      -8.5      1.170      2.774
REMARK  1 active torsions:
REMARK  status: ('A' for Active; 'I' for Inactive)
REMARK    1  A    between atoms: O_4  and  C_14 
ROOT
HETATM    1  C   UNL     1     -19.557 -33.766   4.723  1.00  0.00     0.001 C 
HETATM    2  C   UNL     1     -17.271 -31.138   2.852  1.00  0.00    -0.047 C 
HETATM    3  C   UNL     1     -18.392 -32.075   3.211  1.00  0.00     0.023 C 
HETATM    4  C   UNL     1     -16.446 -28.892   2.578  1.00  0.00     0.037 C 
HETATM    5  C   UNL     1     -19.588 -33.975   2.173  1.00  0.00     0.005 C 
HETATM    6  C   UNL     1     -16.292 -30.461   0.729  1.00  0.00     0.044 C 
HETATM    7  C   UNL     1     -17.143 -29.830   3.358  1.00  0.00     0.011 C 
HETATM    8  C   UNL     1     -18.251 -33.236   2.232  1.00  0.00    -0.002 C 
HETATM    9  C   UNL     1     -17.727 -32.585   0.950  1.00  0.00     0.044 C 
HETATM   10  C   UNL     1     -17.091 -31.318   1.438  1.00  0.00    -0.048 C 
HETATM   11  C   UNL     1     -18.492 -32.662   4.613  1.00  0.00     0.010 C 
HETATM   12  C   UNL     1     -15.875 -29.270   1.358  1.00  0.00     0.066 C 
HETATM   13  C   UNL     1     -19.977 -34.574   3.520  1.00  0.00     0.000 C 
ENDROOT
BRANCH  12  14
HETATM   14  O   UNL     1     -14.801 -28.587   0.860  1.00  0.00    -0.361 OA
ATOM     15  HO  UNL     1     -14.188 -28.166   1.451  1.00  0.00     0.217 HD
ENDBRANCH  12  14
TORSDOF 1
ENDMDL
MODEL 4
REMARK VINA RESULT:      -7.9      2.328      5.470
REMARK  1 active torsions:
REMARK  status: ('A' for Active; 'I' for Inactive)
REMARK    1  A    between atoms: O_4  and  C_14 
ROOT
HETATM    1  C   UNL     1     -16.488 -28.891   2.645  1.00  0.00     0.001 C 
HETATM    2  C   UNL     1     -18.479 -32.249   3.274  1.00  0.00    -0.047 C 
HETATM    3  C   UNL     1     -17.436 -31.249   2.854  1.00  0.00     0.023 C 
HETATM    4  C   UNL     1     -19.183 -34.031   4.733  1.00  0.00     0.037 C 
HETATM    5  C   UNL     1     -16.227 -30.631   0.787  1.00  0.00     0.005 C 
HETATM    6  C   UNL     1     -19.227 -34.362   2.326  1.00  0.00     0.044 C 
HETATM    7  C   UNL     1     -18.600 -32.762   4.579  1.00  0.00     0.011 C 
HETATM    8  C   UNL     1     -17.532 -31.210   1.332  1.00  0.00    -0.002 C 
HETATM    9  C   UNL     1     -17.906 -32.641   0.942  1.00  0.00     0.044 C 
HETATM   10  C   UNL     1     -18.533 -33.189   2.189  1.00  0.00    -0.048 C 
HETATM   11  C   UNL     1     -17.492 -29.812   3.357  1.00  0.00     0.010 C 
HETATM   12  C   UNL     1     -19.651 -34.734   3.617  1.00  0.00     0.066 C 
HETATM   13  C   UNL     1     -15.990 -29.199   1.255  1.00  0.00     0.000 C 
ENDROOT
BRANCH  12  14
HETATM   14  O   UNL     1     -20.645 -35.662   3.758  1.00  0.00    -0.361 OA
ATOM     15  HO  UNL     1     -21.505 -35.499   3.389  1.00  0.00     0.217 HD
ENDBRANCH  12  14
TORSDOF 1
ENDMDL
MODEL 5
REMARK VINA RESULT:      -7.8      4.560      6.795
REMARK  1 active torsions:
REMARK  status: ('A' for Active; 'I' for Inactive)
REMARK    1  A    between atoms: O_4  and  C_14 
ROOT
HETATM    1  C   UNL     1     -16.622 -29.622   0.116  1.00  0.00     0.001 C 
HETATM    2  C   UNL     1     -13.422 -28.172   1.930  1.00  0.00    -0.047 C 
HETATM    3  C   UNL     1     -14.490 -29.096   1.413  1.00  0.00     0.023 C 
HETATM    4  C   UNL     1     -11.149 -27.377   1.862  1.00  0.00     0.037 C 
HETATM    5  C   UNL     1     -16.066 -30.763   2.338  1.00  0.00     0.005 C 
HETATM    6  C   UNL     1     -12.087 -28.153   3.965  1.00  0.00     0.044 C 
HETATM    7  C   UNL     1     -12.317 -27.740   1.171  1.00  0.00     0.011 C 
HETATM    8  C   UNL     1     -15.298 -29.480   2.649  1.00  0.00    -0.002 C 
HETATM    9  C   UNL     1     -14.265 -29.511   3.778  1.00  0.00     0.044 C 
HETATM   10  C   UNL     1     -13.163 -28.632   3.266  1.00  0.00    -0.048 C 
HETATM   11  C   UNL     1     -15.472 -28.627   0.347  1.00  0.00     0.010 C 
HETATM   12  C   UNL     1     -11.113 -27.418   3.261  1.00  0.00     0.066 C 
HETATM   13  C   UNL     1     -17.060 -30.579   1.196  1.00  0.00     0.000 C 
ENDROOT
BRANCH  12  14
HETATM   14  O   UNL     1     -10.248 -26.614   3.949  1.00  0.00    -0.361 OA
ATOM     15  HO  UNL     1     -10.014 -25.760   3.605  1.00  0.00     0.217 HD
ENDBRANCH  12  14
TORSDOF 1
ENDMDL
MODEL 6
REMARK VINA RESULT:      -7.7      1.004      1.256
REMARK  1 active torsions:
REMARK  status: ('A' for Active; 'I' for Inactive)
REMARK    1  A    between atoms: O_4  and  C_14 
ROOT
HETATM    1  C   UNL     1     -20.291 -34.778   2.185  1.00  0.00     0.001 C 
HETATM    2  C   UNL     1     -18.167 -31.454   1.910  1.00  0.00    -0.047 C 
HETATM    3  C   UNL     1     -18.641 -32.836   2.271  1.00  0.00     0.023 C 
HETATM    4  C   UNL     1     -16.649 -30.026   0.703  1.00  0.00     0.037 C 
HETATM    5  C   UNL     1     -19.044 -34.148   4.329  1.00  0.00     0.005 C 
HETATM    6  C   UNL     1     -16.872 -29.779   3.110  1.00  0.00     0.044 C 
HETATM    7  C   UNL     1     -17.513 -31.134   0.705  1.00  0.00     0.011 C 
HETATM    8  C   UNL     1     -19.028 -32.737   3.743  1.00  0.00    -0.002 C 
HETATM    9  C   UNL     1     -18.040 -31.723   4.325  1.00  0.00     0.044 C 
HETATM   10  C   UNL     1     -17.598 -30.940   3.125  1.00  0.00    -0.048 C 
HETATM   11  C   UNL     1     -19.808 -33.474   1.529  1.00  0.00     0.010 C 
HETATM   12  C   UNL     1     -16.481 -29.258   1.860  1.00  0.00     0.066 C 
HETATM   13  C   UNL     1     -20.080 -35.041   3.655  1.00  0.00     0.000 C 
ENDROOT
BRANCH  12  14
HETATM   14  O   UNL     1     -16.104 -27.947   1.765  1.00  0.00    -0.361 OA
ATOM     15  HO  UNL     1     -15.708 -27.510   2.509  1.00  0.00     0.217 HD
ENDBRANCH  12  14
TORSDOF 1
ENDMDL
MODEL 7
REMARK VINA RESULT:      -7.6      2.795      5.538
REMARK  1 active torsions:
REMARK  status: ('A' for Active; 'I' for Inactive)
REMARK    1  A    between atoms: O_4  and  C_14 
ROOT
HETATM    1  C   UNL     1     -17.351 -30.744   3.098  1.00  0.00     0.001 C 
HETATM    2  C   UNL     1     -19.211 -34.109   4.018  1.00  0.00    -0.047 C 
HETATM    3  C   UNL     1     -18.311 -33.091   3.375  1.00  0.00     0.023 C 
HETATM    4  C   UNL     1     -19.493 -36.031   5.442  1.00  0.00     0.037 C 
HETATM    5  C   UNL     1     -17.821 -32.266   1.095  1.00  0.00     0.005 C 
HETATM    6  C   UNL     1     -20.352 -36.085   3.169  1.00  0.00     0.044 C 
HETATM    7  C   UNL     1     -18.922 -34.765   5.230  1.00  0.00     0.011 C 
HETATM    8  C   UNL     1     -18.903 -32.876   1.986  1.00  0.00    -0.002 C 
HETATM    9  C   UNL     1     -19.468 -34.245   1.602  1.00  0.00     0.044 C 
HETATM   10  C   UNL     1     -19.676 -34.919   2.926  1.00  0.00    -0.048 C 
HETATM   11  C   UNL     1     -18.114 -31.719   4.010  1.00  0.00     0.010 C 
HETATM   12  C   UNL     1     -20.344 -36.593   4.484  1.00  0.00     0.066 C 
HETATM   13  C   UNL     1     -17.361 -30.902   1.598  1.00  0.00     0.000 C 
ENDROOT
BRANCH  12  14
HETATM   14  O   UNL     1     -21.287 -37.510   4.857  1.00  0.00    -0.361 OA
ATOM     15  HO  UNL     1     -21.067 -38.197   5.474  1.00  0.00     0.217 HD
ENDBRANCH  12  14
TORSDOF 1
ENDMDL
MODEL 8
REMARK VINA RESULT:      -7.6      5.801      8.984
REMARK  1 active torsions:
REMARK  status: ('A' for Active; 'I' for Inactive)
REMARK    1  A    between atoms: O_4  and  C_14 
ROOT
HETATM    1  C   UNL     1      -9.498 -28.297   5.148  1.00  0.00     0.001 C 
HETATM    2  C   UNL     1     -13.017 -28.514   3.358  1.00  0.00    -0.047 C 
HETATM    3  C   UNL     1     -11.543 -28.578   3.649  1.00  0.00     0.023 C 
HETATM    4  C   UNL     1     -15.110 -29.641   2.971  1.00  0.00     0.037 C 
HETATM    5  C   UNL     1      -9.446 -27.721   2.655  1.00  0.00     0.005 C 
HETATM    6  C   UNL     1     -14.289 -28.041   1.336  1.00  0.00     0.044 C 
HETATM    7  C   UNL     1     -13.940 -29.508   3.737  1.00  0.00     0.011 C 
HETATM    8  C   UNL     1     -10.939 -27.444   2.827  1.00  0.00    -0.002 C 
HETATM    9  C   UNL     1     -11.812 -27.383   1.572  1.00  0.00     0.044 C 
HETATM   10  C   UNL     1     -13.096 -28.021   2.010  1.00  0.00    -0.048 C 
HETATM   11  C   UNL     1     -11.028 -28.438   5.076  1.00  0.00     0.010 C 
HETATM   12  C   UNL     1     -15.350 -28.785   1.890  1.00  0.00     0.066 C 
HETATM   13  C   UNL     1      -8.706 -27.747   3.989  1.00  0.00     0.000 C 
ENDROOT
BRANCH  12  14
HETATM   14  O   UNL     1     -16.631 -28.536   1.482  1.00  0.00    -0.361 OA
ATOM     15  HO  UNL     1     -16.792 -27.997   0.717  1.00  0.00     0.217 HD
ENDBRANCH  12  14
TORSDOF 1
ENDMDL
MODEL 9
REMARK VINA RESULT:      -7.2      4.492      7.827
REMARK  1 active torsions:
REMARK  status: ('A' for Active; 'I' for Inactive)
REMARK    1  A    between atoms: O_4  and  C_14 
ROOT
HETATM    1  C   UNL     1     -10.788 -26.934   1.853  1.00  0.00     0.001 C 
HETATM    2  C   UNL     1     -14.206 -28.903   1.592  1.00  0.00    -0.047 C 
HETATM    3  C   UNL     1     -13.101 -27.990   2.046  1.00  0.00     0.023 C 
HETATM    4  C   UNL     1     -16.389 -29.201   0.619  1.00  0.00     0.037 C 
HETATM    5  C   UNL     1     -11.800 -27.584   4.111  1.00  0.00     0.005 C 
HETATM    6  C   UNL     1     -15.898 -30.181   2.787  1.00  0.00     0.044 C 
HETATM    7  C   UNL     1     -15.129 -28.581   0.578  1.00  0.00     0.011 C 
HETATM    8  C   UNL     1     -12.557 -28.644   3.313  1.00  0.00    -0.002 C 
HETATM    9  C   UNL     1     -13.784 -29.294   3.956  1.00  0.00     0.044 C 
HETATM   10  C   UNL     1     -14.731 -29.464   2.806  1.00  0.00    -0.048 C 
HETATM   11  C   UNL     1     -11.916 -27.693   1.135  1.00  0.00     0.010 C 
HETATM   12  C   UNL     1     -16.690 -30.128   1.622  1.00  0.00     0.066 C 
HETATM   13  C   UNL     1     -10.602 -27.032   3.346  1.00  0.00     0.000 C 
ENDROOT
BRANCH  12  14
HETATM   14  O   UNL     1     -17.633 -31.093   1.405  1.00  0.00    -0.361 OA
ATOM     15  HO  UNL     1     -18.486 -30.857   1.060  1.00  0.00     0.217 HD
ENDBRANCH  12  14
TORSDOF 1
ENDMDL
