REMARK  2 active torsions:
REMARK  status: ('A' for Active; 'I' for Inactive)
REMARK    1  A    between atoms: C_4  and  O_14 
REMARK    2  A    between atoms: C_11  and  O_16 
ROOT
HETATM    1  N   UNL     1       5.761  46.071   7.850  1.00  0.00    -0.375 N 
ATOM      2  HN  UNL     1       6.601  45.831   8.377  1.00  0.00     0.160 HD
HETATM    3  O   UNL     1       2.698  46.220   9.919  1.00  0.00    -0.320 OA
HETATM    4  C   UNL     1       6.207  44.669   5.727  1.00  0.00     0.099 C 
HETATM    5  C   UNL     1       4.019  45.898   9.605  1.00  0.00     0.282 C 
HETATM    6  C   UNL     1       2.108  46.877   7.700  1.00  0.00     0.037 C 
HETATM    7  C   UNL     1       2.060  47.313   9.160  1.00  0.00     0.179 C 
HETATM    8  C   UNL     1       4.137  46.129   6.078  1.00  0.00     0.180 C 
HETATM    9  C   UNL     1       3.519  46.520   7.372  1.00  0.00     0.055 C 
HETATM   10  C   UNL     1       4.161  44.794   4.270  1.00  0.00     0.207 C 
HETATM   11  C   UNL     1       5.432  44.025   4.607  1.00  0.00     0.200 C 
HETATM   12  O   UNL     1       4.582  44.982  10.143  1.00  0.00    -0.263 OA
HETATM   13  O   UNL     1       3.477  44.996   5.519  1.00  0.00    -0.376 OA
HETATM   14  C   UNL     1       4.563  46.699   8.424  1.00  0.00     0.188 C 
HETATM   15  C   UNL     1       5.582  45.840   6.427  1.00  0.00     0.067 C 
ENDROOT
BRANCH   4  16
HETATM   16  O   UNL     1       6.813  43.724   6.586  1.00  0.00    -0.360 OA
ATOM     17  HO  UNL     1       7.302  44.130   7.292  1.00  0.00     0.217 HD
ENDBRANCH   4  16
BRANCH  11  18
HETATM   18  O   UNL     1       6.283  44.082   3.475  1.00  0.00    -0.387 OA
ATOM     19  HO  UNL     1       5.794  43.676   2.769  1.00  0.00     0.210 HD
ENDBRANCH  11  18
TORSDOF 2
