REMARK  1 active torsions:
REMARK  status: ('A' for Active; 'I' for Inactive)
REMARK    1  A    between atoms: N_8  and  C_15 
ROOT
HETATM    1  N   UNL     1       5.918  44.103   4.438  1.00  0.00    -0.042 N 
ATOM      2  HN1 UNL     1       6.187  43.158   4.165  1.00  0.00     0.280 HD
ATOM      3  HN2 UNL     1       6.406  44.599   3.693  1.00  0.00     0.280 HD
HETATM    4  C   UNL     1       1.475  46.648   7.474  1.00  0.00     0.007 C 
HETATM    5  C   UNL     1       5.240  45.842   7.659  1.00  0.00     0.048 C 
HETATM    6  C   UNL     1       0.741  46.507   8.642  1.00  0.00     0.001 C 
HETATM    7  C   UNL     1       3.826  46.180   8.119  1.00  0.00    -0.051 C 
HETATM    8  C   UNL     1       4.353  45.567   5.308  1.00  0.00     0.028 C 
HETATM    9  C   UNL     1       5.102  44.918   6.466  1.00  0.00     0.054 C 
HETATM   10  C   UNL     1       1.271  46.386   9.929  1.00  0.00     0.000 C 
HETATM   11  C   UNL     1       6.387  44.467   5.766  1.00  0.00     0.385 C 
HETATM   12  C   UNL     1       3.846  44.516   3.038  1.00  0.00     0.040 C 
HETATM   13  C   UNL     1       3.718  46.524   9.457  1.00  0.00     0.007 C 
HETATM   14  C   UNL     1       4.459  44.317   4.414  1.00  0.00     0.189 C 
HETATM   15  C   UNL     1       2.759  46.211   7.171  1.00  0.00    -0.051 C 
HETATM   16  C   UNL     1       2.887  45.654   5.760  1.00  0.00     0.046 C 
HETATM   17  C   UNL     1       2.588  46.633  10.244  1.00  0.00     0.001 C 
ENDROOT
BRANCH  11  18
HETATM   18  N   UNL     1       7.052  43.428   6.459  1.00  0.00    -0.050 N 
ATOM     19  HN3 UNL     1       6.461  42.598   6.506  1.00  0.00     0.276 HD
ATOM     20  HN2 UNL     1       7.822  43.063   5.898  1.00  0.00     0.276 HD
ATOM     21  HN1 UNL     1       7.381  43.683   7.390  1.00  0.00     0.276 HD
ENDBRANCH  11  18
TORSDOF 1
