REMARK  4 active torsions:
REMARK  status: ('A' for Active; 'I' for Inactive)
REMARK    1  A    between atoms: C_2  and  C_4 
REMARK    2  A    between atoms: C_6  and  O_17 
REMARK    3  A    between atoms: C_7  and  C_12 
REMARK    4  A    between atoms: C_22  and  C_26 
ROOT
HETATM    1  C   UNL     1      87.972 121.180 134.290  1.00  0.00    -0.002 C 
HETATM    2  C   UNL     1      88.134 121.013 131.925  1.00  0.00    -0.045 C 
HETATM    3  C   UNL     1      87.942 121.085 130.548  1.00  0.00    -0.054 C 
HETATM    4  C   UNL     1      87.646 121.944 133.002  1.00  0.00     0.045 C 
HETATM    5  C   UNL     1      88.850 119.964 132.459  1.00  0.00    -0.050 C 
HETATM    6  C   UNL     1      86.767 121.752 129.908  1.00  0.00     0.049 C 
HETATM    7  C   UNL     1      88.849 120.409 129.741  1.00  0.00     0.019 C 
HETATM    8  C   UNL     1      89.781 119.306 131.667  1.00  0.00     0.020 C 
HETATM    9  C   UNL     1      88.559 119.815 133.926  1.00  0.00     0.044 C 
HETATM   10  C   UNL     1      89.890 119.692 130.328  1.00  0.00    -0.025 C 
ENDROOT
BRANCH  10  11
HETATM   11  C   UNL     1      91.095 119.448 129.549  1.00  0.00    -0.025 C 
HETATM   12  C   UNL     1      92.061 120.436 129.448  1.00  0.00     0.012 C 
HETATM   13  C   UNL     1      92.836 120.491 128.295  1.00  0.00     0.002 C 
HETATM   14  C   UNL     1      92.761 119.452 127.376  1.00  0.00     0.018 C 
HETATM   15  C   UNL     1      92.208 118.252 127.815  1.00  0.00     0.041 C 
HETATM   16  C   UNL     1      91.282 118.260 128.852  1.00  0.00     0.030 C 
BRANCH  15  17
HETATM   17  C   UNL     1      92.543 116.951 127.138  1.00  0.00     0.209 C 
HETATM   18  O   UNL     1      93.261 116.128 127.751  1.00  0.00    -0.644 OA
HETATM   19  O   UNL     1      92.085 116.747 125.987  1.00  0.00    -0.644 OA
ENDBRANCH  15  17
ENDBRANCH  10  11
BRANCH   1  20
HETATM   20  C   UNL     1      88.890 121.936 135.210  1.00  0.00    -0.007 C 
HETATM   21  C   UNL     1      90.046 122.900 135.017  1.00  0.00     0.007 C 
HETATM   22  C   UNL     1      90.413 123.393 136.415  1.00  0.00     0.032 C 
HETATM   23  C   UNL     1      89.688 122.434 137.376  1.00  0.00     0.118 C 
HETATM   24  C   UNL     1      88.386 122.082 136.637  1.00  0.00     0.036 C 
BRANCH  23  25
HETATM   25  O   UNL     1      89.404 123.081 138.608  1.00  0.00    -0.396 OA
ATOM     26  HO  UNL     1      88.956 122.489 139.201  1.00  0.00     0.210 HD
ENDBRANCH  23  25
ENDBRANCH   1  20
TORSDOF 4
