MODEL 1
REMARK VINA RESULT:      -5.6      0.000      0.000
REMARK  0 active torsions:
REMARK  status: ('A' for Active; 'I' for Inactive)
ROOT
HETATM    1  C   UNL     1       5.716   1.324  10.458  1.00  0.00    -0.010 C 
HETATM    2  C   UNL     1       5.906   2.431  11.526  1.00  0.00     0.009 C 
HETATM    3  C   UNL     1       7.160   1.036   9.967  1.00  0.00     0.009 C 
HETATM    4  C   UNL     1       4.365   4.382   9.556  1.00  0.00     0.001 C 
HETATM    5  C   UNL     1       7.522   3.514   9.821  1.00  0.00     0.009 C 
HETATM    6  C   UNL     1       6.510   3.722  10.958  1.00  0.00    -0.014 C 
HETATM    7  C   UNL     1       6.074   2.239   8.194  1.00  0.00     0.009 C 
HETATM    8  C   UNL     1       5.396   4.746  10.651  1.00  0.00     0.004 C 
HETATM    9  C   UNL     1       7.376   2.225   9.009  1.00  0.00    -0.013 C 
HETATM   10  C   UNL     1       4.989   1.808   9.188  1.00  0.00    -0.010 C 
HETATM   11  C   UNL     1       3.928   2.908   9.377  1.00  0.00     0.005 C 
ENDROOT
TORSDOF 0
ENDMDL
MODEL 2
REMARK VINA RESULT:      -5.6      0.956      2.832
REMARK  0 active torsions:
REMARK  status: ('A' for Active; 'I' for Inactive)
ROOT
HETATM    1  C   UNL     1       6.541   3.320  10.999  1.00  0.00    -0.010 C 
HETATM    2  C   UNL     1       5.160   3.542  10.332  1.00  0.00     0.009 C 
HETATM    3  C   UNL     1       7.543   3.444   9.820  1.00  0.00     0.009 C 
HETATM    4  C   UNL     1       4.517   0.511  11.013  1.00  0.00     0.001 C 
HETATM    5  C   UNL     1       6.029   1.958   8.481  1.00  0.00     0.009 C 
HETATM    6  C   UNL     1       4.822   2.482   9.275  1.00  0.00    -0.014 C 
HETATM    7  C   UNL     1       7.452   1.111  10.386  1.00  0.00     0.009 C 
HETATM    8  C   UNL     1       3.923   1.384   9.882  1.00  0.00     0.004 C 
HETATM    9  C   UNL     1       7.391   2.052   9.174  1.00  0.00    -0.013 C 
HETATM   10  C   UNL     1       6.757   1.883  11.513  1.00  0.00    -0.010 C 
HETATM   11  C   UNL     1       5.509   1.138  12.022  1.00  0.00     0.005 C 
ENDROOT
TORSDOF 0
ENDMDL
MODEL 3
REMARK VINA RESULT:      -5.5      1.157      2.526
REMARK  0 active torsions:
REMARK  status: ('A' for Active; 'I' for Inactive)
ROOT
HETATM    1  C   UNL     1       7.211   1.495   9.184  1.00  0.00    -0.010 C 
HETATM    2  C   UNL     1       7.501   0.964  10.611  1.00  0.00     0.009 C 
HETATM    3  C   UNL     1       7.619   2.990   9.258  1.00  0.00     0.009 C 
HETATM    4  C   UNL     1       4.369   0.585  10.941  1.00  0.00     0.001 C 
HETATM    5  C   UNL     1       6.371   3.143  11.429  1.00  0.00     0.009 C 
HETATM    6  C   UNL     1       6.667   1.658  11.696  1.00  0.00    -0.014 C 
HETATM    7  C   UNL     1       5.218   2.949   9.193  1.00  0.00     0.009 C 
HETATM    8  C   UNL     1       5.428   0.807  12.047  1.00  0.00     0.004 C 
HETATM    9  C   UNL     1       6.384   3.585   9.964  1.00  0.00    -0.013 C 
HETATM   10  C   UNL     1       5.711   1.542   8.835  1.00  0.00    -0.010 C 
HETATM   11  C   UNL     1       4.821   0.455   9.466  1.00  0.00     0.005 C 
ENDROOT
TORSDOF 0
ENDMDL
MODEL 4
REMARK VINA RESULT:      -5.5      1.041      2.826
REMARK  0 active torsions:
REMARK  status: ('A' for Active; 'I' for Inactive)
ROOT
HETATM    1  C   UNL     1       7.521   1.329  10.480  1.00  0.00    -0.010 C 
HETATM    2  C   UNL     1       7.244   1.766   9.019  1.00  0.00     0.009 C 
HETATM    3  C   UNL     1       6.941  -0.108  10.550  1.00  0.00     0.009 C 
HETATM    4  C   UNL     1       5.225   3.906  10.204  1.00  0.00     0.001 C 
HETATM    5  C   UNL     1       4.894   0.745   9.376  1.00  0.00     0.009 C 
HETATM    6  C   UNL     1       5.750   1.812   8.675  1.00  0.00    -0.014 C 
HETATM    7  C   UNL     1       5.426   1.292  11.782  1.00  0.00     0.009 C 
HETATM    8  C   UNL     1       5.213   3.254   8.801  1.00  0.00     0.004 C 
HETATM    9  C   UNL     1       5.438   0.202  10.700  1.00  0.00    -0.013 C 
HETATM   10  C   UNL     1       6.699   2.108  11.525  1.00  0.00    -0.010 C 
HETATM   11  C   UNL     1       6.370   3.575  11.191  1.00  0.00     0.005 C 
ENDROOT
TORSDOF 0
ENDMDL
MODEL 5
REMARK VINA RESULT:      -5.5      1.306      2.734
REMARK  0 active torsions:
REMARK  status: ('A' for Active; 'I' for Inactive)
ROOT
HETATM    1  C   UNL     1       5.264   0.333  10.688  1.00  0.00    -0.010 C 
HETATM    2  C   UNL     1       4.383   1.447  10.067  1.00  0.00     0.009 C 
HETATM    3  C   UNL     1       5.584   0.867  12.109  1.00  0.00     0.009 C 
HETATM    4  C   UNL     1       6.766   1.990   8.045  1.00  0.00     0.001 C 
HETATM    5  C   UNL     1       6.112   3.089  11.070  1.00  0.00     0.009 C 
HETATM    6  C   UNL     1       5.109   2.793   9.944  1.00  0.00    -0.014 C 
HETATM    7  C   UNL     1       7.613   1.073  10.839  1.00  0.00     0.009 C 
HETATM    8  C   UNL     1       5.669   2.973   8.517  1.00  0.00     0.004 C 
HETATM    9  C   UNL     1       6.707   1.874  11.786  1.00  0.00    -0.013 C 
HETATM   10  C   UNL     1       6.650   0.199  10.027  1.00  0.00    -0.010 C 
HETATM   11  C   UNL     1       6.730   0.518   8.523  1.00  0.00     0.005 C 
ENDROOT
TORSDOF 0
ENDMDL
MODEL 6
REMARK VINA RESULT:      -5.4      1.360      3.355
REMARK  0 active torsions:
REMARK  status: ('A' for Active; 'I' for Inactive)
ROOT
HETATM    1  C   UNL     1       7.068   1.437  11.470  1.00  0.00    -0.010 C 
HETATM    2  C   UNL     1       7.544   0.317  10.510  1.00  0.00     0.009 C 
HETATM    3  C   UNL     1       5.691   0.928  11.974  1.00  0.00     0.009 C 
HETATM    4  C   UNL     1       7.229   2.417   8.153  1.00  0.00     0.001 C 
HETATM    5  C   UNL     1       5.123   0.351   9.599  1.00  0.00     0.009 C 
HETATM    6  C   UNL     1       6.614   0.116   9.307  1.00  0.00    -0.014 C 
HETATM    7  C   UNL     1       5.229   2.726  10.448  1.00  0.00     0.009 C 
HETATM    8  C   UNL     1       7.157   0.873   8.076  1.00  0.00     0.004 C 
HETATM    9  C   UNL     1       4.800   1.286  10.767  1.00  0.00    -0.013 C 
HETATM   10  C   UNL     1       6.730   2.761  10.757  1.00  0.00    -0.010 C 
HETATM   11  C   UNL     1       7.556   3.100   9.503  1.00  0.00     0.005 C 
ENDROOT
TORSDOF 0
ENDMDL
MODEL 7
REMARK VINA RESULT:      -5.4      1.000      3.111
REMARK  0 active torsions:
REMARK  status: ('A' for Active; 'I' for Inactive)
ROOT
HETATM    1  C   UNL     1       4.683   3.171   9.514  1.00  0.00    -0.010 C 
HETATM    2  C   UNL     1       5.466   3.088   8.179  1.00  0.00     0.009 C 
HETATM    3  C   UNL     1       5.459   4.238  10.330  1.00  0.00     0.009 C 
HETATM    4  C   UNL     1       6.285   0.141   9.020  1.00  0.00     0.001 C 
HETATM    5  C   UNL     1       7.587   3.088   9.660  1.00  0.00     0.009 C 
HETATM    6  C   UNL     1       6.917   2.624   8.357  1.00  0.00    -0.014 C 
HETATM    7  C   UNL     1       5.969   2.116  11.336  1.00  0.00     0.009 C 
HETATM    8  C   UNL     1       7.036   1.110   8.076  1.00  0.00     0.004 C 
HETATM    9  C   UNL     1       6.651   3.397  10.832  1.00  0.00    -0.013 C 
HETATM   10  C   UNL     1       4.794   1.898  10.376  1.00  0.00    -0.010 C 
HETATM   11  C   UNL     1       4.922   0.562   9.621  1.00  0.00     0.005 C 
ENDROOT
TORSDOF 0
ENDMDL
MODEL 8
REMARK VINA RESULT:      -5.4      1.310      3.534
REMARK  0 active torsions:
REMARK  status: ('A' for Active; 'I' for Inactive)
ROOT
HETATM    1  C   UNL     1       6.708   2.085  11.619  1.00  0.00    -0.010 C 
HETATM    2  C   UNL     1       5.574   1.165  12.140  1.00  0.00     0.009 C 
HETATM    3  C   UNL     1       5.950   3.305  11.032  1.00  0.00     0.009 C 
HETATM    4  C   UNL     1       6.414  -0.894   9.878  1.00  0.00     0.001 C 
HETATM    5  C   UNL     1       4.393   1.695   9.901  1.00  0.00     0.009 C 
HETATM    6  C   UNL     1       4.630   0.682  11.032  1.00  0.00    -0.014 C 
HETATM    7  C   UNL     1       6.776   2.057   9.153  1.00  0.00     0.009 C 
HETATM    8  C   UNL     1       5.035  -0.730  10.559  1.00  0.00     0.004 C 
HETATM    9  C   UNL     1       5.498   2.730   9.675  1.00  0.00    -0.013 C 
HETATM   10  C   UNL     1       7.465   1.507  10.408  1.00  0.00    -0.010 C 
HETATM   11  C   UNL     1       7.606  -0.025  10.348  1.00  0.00     0.005 C 
ENDROOT
TORSDOF 0
ENDMDL
MODEL 9
REMARK VINA RESULT:      -5.3      1.502      2.034
REMARK  0 active torsions:
REMARK  status: ('A' for Active; 'I' for Inactive)
ROOT
HETATM    1  C   UNL     1       5.093  -0.102  11.263  1.00  0.00    -0.010 C 
HETATM    2  C   UNL     1       5.613   0.960  12.265  1.00  0.00     0.009 C 
HETATM    3  C   UNL     1       6.312  -1.038  11.053  1.00  0.00     0.009 C 
HETATM    4  C   UNL     1       5.344   3.080   9.921  1.00  0.00     0.001 C 
HETATM    5  C   UNL     1       7.740   1.008  10.793  1.00  0.00     0.009 C 
HETATM    6  C   UNL     1       6.787   1.782  11.719  1.00  0.00    -0.014 C 
HETATM    7  C   UNL     1       6.095   0.249   9.036  1.00  0.00     0.009 C 
HETATM    8  C   UNL     1       6.284   3.126  11.149  1.00  0.00     0.004 C 
HETATM    9  C   UNL     1       7.145  -0.199  10.064  1.00  0.00    -0.013 C 
HETATM   10  C   UNL     1       4.816   0.460   9.855  1.00  0.00    -0.010 C 
HETATM   11  C   UNL     1       4.331   1.919   9.777  1.00  0.00     0.005 C 
ENDROOT
TORSDOF 0
ENDMDL
