MODEL 1
REMARK VINA RESULT:     -11.8      0.000      0.000
REMARK  6 active torsions:
REMARK  status: ('A' for Active; 'I' for Inactive)
REMARK    1  A    between atoms: C_13  and  C_36 
REMARK    2  A    between atoms: C_17  and  C_39 
REMARK    3  A    between atoms: C_18  and  C_21 
REMARK    4  A    between atoms: C_19  and  N_32 
REMARK    5  A    between atoms: C_25  and  N_32 
REMARK    6  A    between atoms: C_29  and  C_34 
ROOT
HETATM    1  C   UNL     1      23.249   9.646   5.026  1.00  0.00     0.129 C 
HETATM    2  C   UNL     1      21.571   8.618   4.063  1.00  0.00     0.164 C 
HETATM    3  O   UNL     1      24.805   9.492   3.187  1.00  0.00    -0.284 OA
HETATM    4  C   UNL     1      22.637   8.422   3.163  1.00  0.00     0.080 C 
HETATM    5  O   UNL     1      21.985   9.169   5.242  1.00  0.00    -0.289 OA
HETATM    6  C   UNL     1      23.714   9.225   3.720  1.00  0.00     0.221 C 
ENDROOT
BRANCH   2   7
HETATM    7  N   UNL     1      20.259   8.429   3.770  1.00  0.00    -0.336 N 
ATOM      8  HN  UNL     1      19.770   9.168   3.266  1.00  0.00     0.168 HD
BRANCH   7   9
HETATM    9  C   UNL     1      19.546   7.295   4.115  1.00  0.00     0.035 C 
HETATM   10  C   UNL     1      18.838   7.201   5.309  1.00  0.00     0.045 C 
HETATM   11  C   UNL     1      17.828   6.247   5.427  1.00  0.00     0.017 C 
HETATM   12  C   UNL     1      16.923   6.264   6.501  1.00  0.00     0.157 C 
HETATM   13  C   UNL     1      17.824   5.143   4.571  1.00  0.00     0.016 C 
HETATM   14  N   UNL     1      15.809   7.036   6.480  1.00  0.00    -0.345 N 
HETATM   15  O   UNL     1      17.190   5.402   7.517  1.00  0.00    -0.304 OA
HETATM   16  C   UNL     1      15.136   7.172   7.637  1.00  0.00     0.106 C 
ATOM     17  HN  UNL     1      15.494   7.494   5.624  1.00  0.00     0.167 HD
HETATM   18  C   UNL     1      15.487   6.400   8.761  1.00  0.00     0.035 C 
HETATM   19  C   UNL     1      16.735   5.819   8.751  1.00  0.00     0.160 C 
HETATM   20  C   UNL     1      18.670   5.139   3.471  1.00  0.00     0.003 C 
HETATM   21  C   UNL     1      19.519   6.209   3.234  1.00  0.00     0.029 C 
BRANCH  18  22
HETATM   22  C   UNL     1      14.612   6.230   9.891  1.00  0.00     0.088 C 
HETATM   23  C   UNL     1      15.107   6.019  11.179  1.00  0.00     0.038 C 
HETATM   24  C   UNL     1      14.338   6.397  12.278  1.00  0.00     0.005 C 
HETATM   25  C   UNL     1      13.008   6.758  12.079  1.00  0.00     0.025 C 
HETATM   26  C   UNL     1      12.483   6.673  10.793  1.00  0.00     0.142 C 
HETATM   27  O   UNL     1      13.279   6.486   9.703  1.00  0.00    -0.322 OA
ENDBRANCH  18  22
ENDBRANCH   7   9
ENDBRANCH   2   7
BRANCH   4  28
HETATM   28  C   UNL     1      22.589   7.645   1.905  1.00  0.00     0.005 C 
HETATM   29  C   UNL     1      22.244   8.284   0.725  1.00  0.00     0.153 C 
HETATM   30  O   UNL     1      22.318   7.642  -0.479  1.00  0.00    -0.334 OA
HETATM   31  C   UNL     1      21.918   6.324  -0.405  1.00  0.00     0.141 C 
HETATM   32  C   UNL     1      22.386   5.592   0.669  1.00  0.00     0.025 C 
HETATM   33  C   UNL     1      22.807   6.248   1.840  1.00  0.00     0.016 C 
ENDBRANCH   4  28
BRANCH   1  34
HETATM   34  C   UNL     1      23.861  10.559   5.966  1.00  0.00     0.043 C 
HETATM   35  C   UNL     1      24.191  10.267   7.204  1.00  0.00     0.022 C 
BRANCH  35  36
HETATM   36  C   UNL     1      23.574  10.375   8.492  1.00  0.00     0.005 C 
HETATM   37  C   UNL     1      23.397  11.615   9.086  1.00  0.00     0.031 C 
HETATM   38  C   UNL     1      22.499  11.968  10.102  1.00  0.00    -0.024 C 
HETATM   39  C   UNL     1      21.662  10.970  10.683  1.00  0.00    -0.019 C 
HETATM   40  C   UNL     1      22.329  13.306  10.472  1.00  0.00     0.012 C 
HETATM   41  C   UNL     1      21.809   9.633  10.339  1.00  0.00     0.062 C 
HETATM   42  C   UNL     1      20.660  11.368  11.587  1.00  0.00     0.012 C 
HETATM   43  S   UNL     1      23.059   8.955   9.339  1.00  0.00    -0.101 SA
HETATM   44  C   UNL     1      20.364  12.721  11.742  1.00  0.00     0.001 C 
HETATM   45  C   UNL     1      21.224  13.692  11.223  1.00  0.00     0.001 C 
ENDBRANCH  35  36
ENDBRANCH   1  34
TORSDOF 6
ENDMDL
MODEL 2
REMARK VINA RESULT:     -11.8      1.769      2.678
REMARK  6 active torsions:
REMARK  status: ('A' for Active; 'I' for Inactive)
REMARK    1  A    between atoms: C_13  and  C_36 
REMARK    2  A    between atoms: C_17  and  C_39 
REMARK    3  A    between atoms: C_18  and  C_21 
REMARK    4  A    between atoms: C_19  and  N_32 
REMARK    5  A    between atoms: C_25  and  N_32 
REMARK    6  A    between atoms: C_29  and  C_34 
ROOT
HETATM    1  C   UNL     1      23.543   8.089   5.263  1.00  0.00     0.129 C 
HETATM    2  C   UNL     1      23.178   7.226   3.283  1.00  0.00     0.164 C 
HETATM    3  O   UNL     1      22.948  10.365   4.725  1.00  0.00    -0.284 OA
HETATM    4  C   UNL     1      23.064   8.612   3.063  1.00  0.00     0.080 C 
HETATM    5  O   UNL     1      23.649   6.937   4.532  1.00  0.00    -0.289 OA
HETATM    6  C   UNL     1      23.156   9.184   4.397  1.00  0.00     0.221 C 
ENDROOT
BRANCH   2   7
HETATM    7  N   UNL     1      22.743   6.263   2.430  1.00  0.00    -0.336 N 
ATOM      8  HN  UNL     1      23.416   5.864   1.775  1.00  0.00     0.168 HD
BRANCH   7   9
HETATM    9  C   UNL     1      21.444   5.791   2.395  1.00  0.00     0.035 C 
HETATM   10  C   UNL     1      20.633   5.771   3.526  1.00  0.00     0.045 C 
HETATM   11  C   UNL     1      19.250   5.686   3.370  1.00  0.00     0.017 C 
HETATM   12  C   UNL     1      18.373   5.908   4.444  1.00  0.00     0.157 C 
HETATM   13  C   UNL     1      18.724   5.189   2.174  1.00  0.00     0.016 C 
HETATM   14  N   UNL     1      17.978   7.157   4.793  1.00  0.00    -0.345 N 
HETATM   15  O   UNL     1      17.886   4.795   5.054  1.00  0.00    -0.304 OA
HETATM   16  C   UNL     1      17.340   7.291   5.970  1.00  0.00     0.106 C 
ATOM     17  HN  UNL     1      18.156   7.960   4.190  1.00  0.00     0.167 HD
HETATM   18  C   UNL     1      16.954   6.154   6.705  1.00  0.00     0.035 C 
HETATM   19  C   UNL     1      17.575   4.967   6.387  1.00  0.00     0.160 C 
HETATM   20  C   UNL     1      19.567   5.022   1.084  1.00  0.00     0.003 C 
HETATM   21  C   UNL     1      20.915   5.329   1.186  1.00  0.00     0.029 C 
BRANCH  18  22
HETATM   22  C   UNL     1      15.979   6.206   7.762  1.00  0.00     0.088 C 
HETATM   23  C   UNL     1      16.279   5.789   9.061  1.00  0.00     0.038 C 
HETATM   24  C   UNL     1      15.572   6.331  10.133  1.00  0.00     0.005 C 
HETATM   25  C   UNL     1      14.435   7.093   9.877  1.00  0.00     0.025 C 
HETATM   26  C   UNL     1      14.018   7.237   8.556  1.00  0.00     0.142 C 
HETATM   27  O   UNL     1      14.807   6.868   7.509  1.00  0.00    -0.322 OA
ENDBRANCH  18  22
ENDBRANCH   7   9
ENDBRANCH   2   7
BRANCH   4  28
HETATM   28  C   UNL     1      22.813   9.275   1.765  1.00  0.00     0.005 C 
HETATM   29  C   UNL     1      23.513   8.857   0.643  1.00  0.00     0.153 C 
HETATM   30  O   UNL     1      23.219   9.343  -0.599  1.00  0.00    -0.334 OA
HETATM   31  C   UNL     1      22.910  10.687  -0.587  1.00  0.00     0.141 C 
HETATM   32  C   UNL     1      22.066  11.120   0.417  1.00  0.00     0.025 C 
HETATM   33  C   UNL     1      21.939  10.376   1.603  1.00  0.00     0.016 C 
ENDBRANCH   4  28
BRANCH   1  34
HETATM   34  C   UNL     1      23.661   8.057   6.704  1.00  0.00     0.043 C 
HETATM   35  C   UNL     1      22.853   8.661   7.547  1.00  0.00     0.022 C 
BRANCH  35  36
HETATM   36  C   UNL     1      22.819   9.922   8.224  1.00  0.00     0.005 C 
HETATM   37  C   UNL     1      21.958  10.126   9.291  1.00  0.00     0.031 C 
HETATM   38  C   UNL     1      22.045  11.092  10.302  1.00  0.00    -0.024 C 
HETATM   39  C   UNL     1      23.097  12.054  10.271  1.00  0.00    -0.019 C 
HETATM   40  C   UNL     1      21.183  11.053  11.403  1.00  0.00     0.012 C 
HETATM   41  C   UNL     1      23.966  12.120   9.190  1.00  0.00     0.062 C 
HETATM   42  C   UNL     1      23.262  12.914  11.372  1.00  0.00     0.012 C 
HETATM   43  S   UNL     1      23.839  11.223   7.706  1.00  0.00    -0.101 SA
HETATM   44  C   UNL     1      22.545  12.685  12.545  1.00  0.00     0.001 C 
HETATM   45  C   UNL     1      21.474  11.787  12.549  1.00  0.00     0.001 C 
ENDBRANCH  35  36
ENDBRANCH   1  34
TORSDOF 6
ENDMDL
MODEL 3
REMARK VINA RESULT:     -11.3      1.740      2.202
REMARK  6 active torsions:
REMARK  status: ('A' for Active; 'I' for Inactive)
REMARK    1  A    between atoms: C_13  and  C_36 
REMARK    2  A    between atoms: C_17  and  C_39 
REMARK    3  A    between atoms: C_18  and  C_21 
REMARK    4  A    between atoms: C_19  and  N_32 
REMARK    5  A    between atoms: C_25  and  N_32 
REMARK    6  A    between atoms: C_29  and  C_34 
ROOT
HETATM    1  C   UNL     1      22.538   9.676   3.896  1.00  0.00     0.129 C 
HETATM    2  C   UNL     1      22.851   7.686   3.035  1.00  0.00     0.164 C 
HETATM    3  O   UNL     1      22.809  10.941   1.859  1.00  0.00    -0.284 OA
HETATM    4  C   UNL     1      23.186   8.556   1.980  1.00  0.00     0.080 C 
HETATM    5  O   UNL     1      22.659   8.350   4.213  1.00  0.00    -0.289 OA
HETATM    6  C   UNL     1      22.839   9.872   2.492  1.00  0.00     0.221 C 
ENDROOT
BRANCH   2   7
HETATM    7  N   UNL     1      22.599   6.358   2.901  1.00  0.00    -0.336 N 
ATOM      8  HN  UNL     1      23.396   5.725   2.825  1.00  0.00     0.168 HD
BRANCH   7   9
HETATM    9  C   UNL     1      21.329   5.813   2.859  1.00  0.00     0.035 C 
HETATM   10  C   UNL     1      20.489   5.809   3.969  1.00  0.00     0.045 C 
HETATM   11  C   UNL     1      19.118   5.638   3.783  1.00  0.00     0.017 C 
HETATM   12  C   UNL     1      18.201   5.868   4.821  1.00  0.00     0.157 C 
HETATM   13  C   UNL     1      18.654   5.049   2.604  1.00  0.00     0.016 C 
HETATM   14  N   UNL     1      17.728   7.110   5.091  1.00  0.00    -0.345 N 
HETATM   15  O   UNL     1      17.758   4.765   5.479  1.00  0.00    -0.304 OA
HETATM   16  C   UNL     1      17.051   7.272   6.242  1.00  0.00     0.106 C 
ATOM     17  HN  UNL     1      17.879   7.889   4.449  1.00  0.00     0.167 HD
HETATM   18  C   UNL     1      16.708   6.156   7.029  1.00  0.00     0.035 C 
HETATM   19  C   UNL     1      17.400   4.990   6.792  1.00  0.00     0.160 C 
HETATM   20  C   UNL     1      19.534   4.871   1.546  1.00  0.00     0.003 C 
HETATM   21  C   UNL     1      20.861   5.258   1.664  1.00  0.00     0.029 C 
BRANCH  18  22
HETATM   22  C   UNL     1      15.701   6.210   8.057  1.00  0.00     0.088 C 
HETATM   23  C   UNL     1      15.998   5.928   9.392  1.00  0.00     0.038 C 
HETATM   24  C   UNL     1      15.219   6.493  10.400  1.00  0.00     0.005 C 
HETATM   25  C   UNL     1      14.030   7.131  10.056  1.00  0.00     0.025 C 
HETATM   26  C   UNL     1      13.639   7.131   8.720  1.00  0.00     0.142 C 
HETATM   27  O   UNL     1      14.486   6.747   7.724  1.00  0.00    -0.322 OA
ENDBRANCH  18  22
ENDBRANCH   7   9
ENDBRANCH   2   7
BRANCH   4  28
HETATM   28  C   UNL     1      23.683   8.161   0.644  1.00  0.00     0.005 C 
HETATM   29  C   UNL     1      25.035   8.277   0.362  1.00  0.00     0.153 C 
HETATM   30  O   UNL     1      25.561   7.800  -0.806  1.00  0.00    -0.334 OA
HETATM   31  C   UNL     1      24.732   8.007  -1.888  1.00  0.00     0.141 C 
HETATM   32  C   UNL     1      23.391   7.732  -1.704  1.00  0.00     0.025 C 
HETATM   33  C   UNL     1      22.842   7.730  -0.409  1.00  0.00     0.016 C 
ENDBRANCH   4  28
BRANCH   1  34
HETATM   34  C   UNL     1      22.020  10.618   4.863  1.00  0.00     0.043 C 
HETATM   35  C   UNL     1      22.700  11.131   5.864  1.00  0.00     0.022 C 
BRANCH  35  36
HETATM   36  C   UNL     1      22.904  10.815   7.245  1.00  0.00     0.005 C 
HETATM   37  C   UNL     1      23.352  11.783   8.130  1.00  0.00     0.031 C 
HETATM   38  C   UNL     1      23.238  11.800   9.526  1.00  0.00    -0.024 C 
HETATM   39  C   UNL     1      22.638  10.694  10.200  1.00  0.00    -0.019 C 
HETATM   40  C   UNL     1      23.596  12.936  10.259  1.00  0.00     0.012 C 
HETATM   41  C   UNL     1      22.275   9.552   9.500  1.00  0.00     0.062 C 
HETATM   42  C   UNL     1      22.388  10.796  11.580  1.00  0.00     0.012 C 
HETATM   43  S   UNL     1      22.613   9.211   7.829  1.00  0.00    -0.101 SA
HETATM   44  C   UNL     1      22.533  12.024  12.223  1.00  0.00     0.001 C 
HETATM   45  C   UNL     1      23.179  13.082  11.578  1.00  0.00     0.001 C 
ENDBRANCH  35  36
ENDBRANCH   1  34
TORSDOF 6
ENDMDL
MODEL 4
REMARK VINA RESULT:     -10.6      3.617      9.538
REMARK  6 active torsions:
REMARK  status: ('A' for Active; 'I' for Inactive)
REMARK    1  A    between atoms: C_13  and  C_36 
REMARK    2  A    between atoms: C_17  and  C_39 
REMARK    3  A    between atoms: C_18  and  C_21 
REMARK    4  A    between atoms: C_19  and  N_32 
REMARK    5  A    between atoms: C_25  and  N_32 
REMARK    6  A    between atoms: C_29  and  C_34 
ROOT
HETATM    1  C   UNL     1      19.867   5.164   0.753  1.00  0.00     0.129 C 
HETATM    2  C   UNL     1      20.766   5.477   2.726  1.00  0.00     0.164 C 
HETATM    3  O   UNL     1      17.572   5.551   1.391  1.00  0.00    -0.284 OA
HETATM    4  C   UNL     1      19.383   5.473   2.992  1.00  0.00     0.080 C 
HETATM    5  O   UNL     1      21.048   5.103   1.443  1.00  0.00    -0.289 OA
HETATM    6  C   UNL     1      18.776   5.415   1.672  1.00  0.00     0.221 C 
ENDROOT
BRANCH   2   7
HETATM    7  N   UNL     1      21.721   5.933   3.576  1.00  0.00    -0.336 N 
ATOM      8  HN  UNL     1      22.195   5.255   4.173  1.00  0.00     0.168 HD
BRANCH   7   9
HETATM    9  C   UNL     1      22.091   7.262   3.682  1.00  0.00     0.035 C 
HETATM   10  C   UNL     1      21.928   7.984   4.861  1.00  0.00     0.045 C 
HETATM   11  C   UNL     1      22.669   9.149   5.053  1.00  0.00     0.017 C 
HETATM   12  C   UNL     1      22.735   9.781   6.305  1.00  0.00     0.157 C 
HETATM   13  C   UNL     1      23.206   9.810   3.945  1.00  0.00     0.016 C 
HETATM   14  N   UNL     1      23.623   9.391   7.253  1.00  0.00    -0.345 N 
HETATM   15  O   UNL     1      21.915  10.851   6.475  1.00  0.00    -0.304 OA
HETATM   16  C   UNL     1      23.452   9.885   8.492  1.00  0.00     0.106 C 
ATOM     17  HN  UNL     1      24.387   8.751   7.036  1.00  0.00     0.167 HD
HETATM   18  C   UNL     1      22.499  10.893   8.733  1.00  0.00     0.035 C 
HETATM   19  C   UNL     1      21.521  11.065   7.780  1.00  0.00     0.160 C 
HETATM   20  C   UNL     1      23.203   9.174   2.712  1.00  0.00     0.003 C 
HETATM   21  C   UNL     1      22.661   7.905   2.578  1.00  0.00     0.029 C 
BRANCH  18  22
HETATM   22  C   UNL     1      22.508  11.703   9.923  1.00  0.00     0.088 C 
HETATM   23  C   UNL     1      21.652  11.445  10.995  1.00  0.00     0.038 C 
HETATM   24  C   UNL     1      22.025  11.840  12.278  1.00  0.00     0.005 C 
HETATM   25  C   UNL     1      23.122  12.684  12.433  1.00  0.00     0.025 C 
HETATM   26  C   UNL     1      23.770  13.144  11.290  1.00  0.00     0.142 C 
HETATM   27  O   UNL     1      23.524  12.612  10.061  1.00  0.00    -0.322 OA
ENDBRANCH  18  22
ENDBRANCH   7   9
ENDBRANCH   2   7
BRANCH   4  28
HETATM   28  C   UNL     1      18.747   5.596   4.322  1.00  0.00     0.005 C 
HETATM   29  C   UNL     1      18.521   4.455   5.075  1.00  0.00     0.153 C 
HETATM   30  O   UNL     1      18.063   4.531   6.360  1.00  0.00    -0.334 OA
HETATM   31  C   UNL     1      17.123   5.525   6.534  1.00  0.00     0.141 C 
HETATM   32  C   UNL     1      17.394   6.744   5.945  1.00  0.00     0.025 C 
HETATM   33  C   UNL     1      18.281   6.822   4.856  1.00  0.00     0.016 C 
ENDBRANCH   4  28
BRANCH   1  34
HETATM   34  C   UNL     1      19.860   5.132  -0.692  1.00  0.00     0.043 C 
HETATM   35  C   UNL     1      20.889   4.830  -1.452  1.00  0.00     0.022 C 
BRANCH  35  36
HETATM   36  C   UNL     1      21.930   5.551  -2.118  1.00  0.00     0.005 C 
HETATM   37  C   UNL     1      22.645   6.533  -1.451  1.00  0.00     0.031 C 
HETATM   38  C   UNL     1      23.908   7.052  -1.766  1.00  0.00    -0.024 C 
HETATM   39  C   UNL     1      24.587   6.596  -2.935  1.00  0.00    -0.019 C 
HETATM   40  C   UNL     1      24.562   7.923  -0.889  1.00  0.00     0.012 C 
HETATM   41  C   UNL     1      23.962   5.735  -3.826  1.00  0.00     0.062 C 
HETATM   42  C   UNL     1      25.914   7.008  -3.151  1.00  0.00     0.012 C 
HETATM   43  S   UNL     1      22.301   5.223  -3.778  1.00  0.00    -0.101 SA
HETATM   44  C   UNL     1      26.608   7.672  -2.141  1.00  0.00     0.001 C 
HETATM   45  C   UNL     1      25.924   8.170  -1.030  1.00  0.00     0.001 C 
ENDBRANCH  35  36
ENDBRANCH   1  34
TORSDOF 6
ENDMDL
MODEL 5
REMARK VINA RESULT:     -10.5      4.780      9.336
REMARK  6 active torsions:
REMARK  status: ('A' for Active; 'I' for Inactive)
REMARK    1  A    between atoms: C_13  and  C_36 
REMARK    2  A    between atoms: C_17  and  C_39 
REMARK    3  A    between atoms: C_18  and  C_21 
REMARK    4  A    between atoms: C_19  and  N_32 
REMARK    5  A    between atoms: C_25  and  N_32 
REMARK    6  A    between atoms: C_29  and  C_34 
ROOT
HETATM    1  C   UNL     1      24.487  12.792   6.990  1.00  0.00     0.129 C 
HETATM    2  C   UNL     1      23.591  11.481   8.500  1.00  0.00     0.164 C 
HETATM    3  O   UNL     1      23.989  14.893   8.068  1.00  0.00    -0.284 OA
HETATM    4  C   UNL     1      23.190  12.769   8.904  1.00  0.00     0.080 C 
HETATM    5  O   UNL     1      24.187  11.486   7.271  1.00  0.00    -0.289 OA
HETATM    6  C   UNL     1      23.902  13.655   7.997  1.00  0.00     0.221 C 
ENDROOT
BRANCH   2   7
HETATM    7  N   UNL     1      23.537  10.369   9.276  1.00  0.00    -0.336 N 
ATOM      8  HN  UNL     1      23.632  10.484  10.285  1.00  0.00     0.168 HD
BRANCH   7   9
HETATM    9  C   UNL     1      23.362   9.088   8.782  1.00  0.00     0.035 C 
HETATM   10  C   UNL     1      22.803   8.848   7.531  1.00  0.00     0.045 C 
HETATM   11  C   UNL     1      23.021   7.618   6.913  1.00  0.00     0.017 C 
HETATM   12  C   UNL     1      22.697   7.404   5.564  1.00  0.00     0.157 C 
HETATM   13  C   UNL     1      23.392   6.517   7.690  1.00  0.00     0.016 C 
HETATM   14  N   UNL     1      23.550   7.742   4.565  1.00  0.00    -0.345 N 
HETATM   15  O   UNL     1      21.519   6.767   5.328  1.00  0.00    -0.304 OA
HETATM   16  C   UNL     1      23.062   7.727   3.312  1.00  0.00     0.106 C 
ATOM     17  HN  UNL     1      24.519   7.997   4.756  1.00  0.00     0.167 HD
HETATM   18  C   UNL     1      21.778   7.211   3.052  1.00  0.00     0.035 C 
HETATM   19  C   UNL     1      20.925   7.096   4.127  1.00  0.00     0.160 C 
HETATM   20  C   UNL     1      23.774   6.720   9.009  1.00  0.00     0.003 C 
HETATM   21  C   UNL     1      23.771   7.995   9.553  1.00  0.00     0.029 C 
BRANCH  18  22
HETATM   22  C   UNL     1      21.342   6.838   1.732  1.00  0.00     0.088 C 
HETATM   23  C   UNL     1      22.227   6.788   0.653  1.00  0.00     0.038 C 
HETATM   24  C   UNL     1      21.951   5.940  -0.418  1.00  0.00     0.005 C 
HETATM   25  C   UNL     1      20.696   5.341  -0.500  1.00  0.00     0.025 C 
HETATM   26  C   UNL     1      19.746   5.658   0.467  1.00  0.00     0.142 C 
HETATM   27  O   UNL     1      20.075   6.333   1.604  1.00  0.00    -0.322 OA
ENDBRANCH  18  22
ENDBRANCH   7   9
ENDBRANCH   2   7
BRANCH   4  28
HETATM   28  C   UNL     1      22.319  13.094  10.055  1.00  0.00     0.005 C 
HETATM   29  C   UNL     1      22.831  13.007  11.340  1.00  0.00     0.153 C 
HETATM   30  O   UNL     1      22.110  13.426  12.422  1.00  0.00    -0.334 OA
HETATM   31  C   UNL     1      20.769  13.121  12.320  1.00  0.00     0.141 C 
HETATM   32  C   UNL     1      20.170  13.360  11.099  1.00  0.00     0.025 C 
HETATM   33  C   UNL     1      20.949  13.426   9.930  1.00  0.00     0.016 C 
ENDBRANCH   4  28
BRANCH   1  34
HETATM   34  C   UNL     1      25.396  13.122   5.916  1.00  0.00     0.043 C 
HETATM   35  C   UNL     1      25.090  13.139   4.638  1.00  0.00     0.022 C 
BRANCH  35  36
HETATM   36  C   UNL     1      25.159  12.217   3.546  1.00  0.00     0.005 C 
HETATM   37  C   UNL     1      24.007  11.627   3.048  1.00  0.00     0.031 C 
HETATM   38  C   UNL     1      23.807  11.042   1.791  1.00  0.00    -0.024 C 
HETATM   39  C   UNL     1      24.892  10.962   0.868  1.00  0.00    -0.019 C 
HETATM   40  C   UNL     1      22.530  10.642   1.384  1.00  0.00     0.012 C 
HETATM   41  C   UNL     1      26.171  11.348   1.244  1.00  0.00     0.062 C 
HETATM   42  C   UNL     1      24.636  10.517  -0.441  1.00  0.00     0.012 C 
HETATM   43  S   UNL     1      26.686  11.807   2.840  1.00  0.00    -0.101 SA
HETATM   44  C   UNL     1      23.322  10.362  -0.877  1.00  0.00     0.001 C 
HETATM   45  C   UNL     1      22.271  10.378   0.043  1.00  0.00     0.001 C 
ENDBRANCH  35  36
ENDBRANCH   1  34
TORSDOF 6
ENDMDL
MODEL 6
REMARK VINA RESULT:     -10.5      4.708      9.266
REMARK  6 active torsions:
REMARK  status: ('A' for Active; 'I' for Inactive)
REMARK    1  A    between atoms: C_13  and  C_36 
REMARK    2  A    between atoms: C_17  and  C_39 
REMARK    3  A    between atoms: C_18  and  C_21 
REMARK    4  A    between atoms: C_19  and  N_32 
REMARK    5  A    between atoms: C_25  and  N_32 
REMARK    6  A    between atoms: C_29  and  C_34 
ROOT
HETATM    1  C   UNL     1      25.769  12.947   8.242  1.00  0.00     0.129 C 
HETATM    2  C   UNL     1      23.667  12.331   8.256  1.00  0.00     0.164 C 
HETATM    3  O   UNL     1      25.897  13.670  10.541  1.00  0.00    -0.284 OA
HETATM    4  C   UNL     1      23.829  12.974   9.499  1.00  0.00     0.080 C 
HETATM    5  O   UNL     1      24.755  12.490   7.445  1.00  0.00    -0.289 OA
HETATM    6  C   UNL     1      25.255  13.253   9.561  1.00  0.00     0.221 C 
ENDROOT
BRANCH   2   7
HETATM    7  N   UNL     1      22.628  11.522   7.927  1.00  0.00    -0.336 N 
ATOM      8  HN  UNL     1      21.717  11.952   7.767  1.00  0.00     0.168 HD
BRANCH   7   9
HETATM    9  C   UNL     1      22.729  10.148   7.796  1.00  0.00     0.035 C 
HETATM   10  C   UNL     1      22.162   9.463   6.726  1.00  0.00     0.045 C 
HETATM   11  C   UNL     1      22.624   8.185   6.415  1.00  0.00     0.017 C 
HETATM   12  C   UNL     1      22.273   7.548   5.214  1.00  0.00     0.157 C 
HETATM   13  C   UNL     1      23.295   7.443   7.390  1.00  0.00     0.016 C 
HETATM   14  N   UNL     1      22.955   7.772   4.064  1.00  0.00    -0.345 N 
HETATM   15  O   UNL     1      21.266   6.638   5.296  1.00  0.00    -0.304 OA
HETATM   16  C   UNL     1      22.404   7.312   2.926  1.00  0.00     0.106 C 
ATOM     17  HN  UNL     1      23.846   8.267   4.061  1.00  0.00     0.167 HD
HETATM   18  C   UNL     1      21.264   6.487   2.968  1.00  0.00     0.035 C 
HETATM   19  C   UNL     1      20.534   6.493   4.136  1.00  0.00     0.160 C 
HETATM   20  C   UNL     1      23.703   8.074   8.557  1.00  0.00     0.003 C 
HETATM   21  C   UNL     1      23.433   9.419   8.759  1.00  0.00     0.029 C 
BRANCH  18  22
HETATM   22  C   UNL     1      20.844   5.684   1.850  1.00  0.00     0.088 C 
HETATM   23  C   UNL     1      19.576   5.102   1.798  1.00  0.00     0.038 C 
HETATM   24  C   UNL     1      19.001   4.822   0.560  1.00  0.00     0.005 C 
HETATM   25  C   UNL     1      19.789   4.911  -0.585  1.00  0.00     0.025 C 
HETATM   26  C   UNL     1      21.138   5.223  -0.439  1.00  0.00     0.142 C 
HETATM   27  O   UNL     1      21.647   5.674   0.741  1.00  0.00    -0.322 OA
ENDBRANCH  18  22
ENDBRANCH   7   9
ENDBRANCH   2   7
BRANCH   4  28
HETATM   28  C   UNL     1      22.774  13.201  10.510  1.00  0.00     0.005 C 
HETATM   29  C   UNL     1      22.967  12.748  11.806  1.00  0.00     0.153 C 
HETATM   30  O   UNL     1      22.086  13.053  12.804  1.00  0.00    -0.334 OA
HETATM   31  C   UNL     1      20.773  13.031  12.381  1.00  0.00     0.141 C 
HETATM   32  C   UNL     1      20.502  13.634  11.168  1.00  0.00     0.025 C 
HETATM   33  C   UNL     1      21.526  13.802  10.219  1.00  0.00     0.016 C 
ENDBRANCH   4  28
BRANCH   1  34
HETATM   34  C   UNL     1      27.137  12.926   7.774  1.00  0.00     0.043 C 
HETATM   35  C   UNL     1      27.517  13.109   6.529  1.00  0.00     0.022 C 
BRANCH  35  36
HETATM   36  C   UNL     1      27.800  12.274   5.401  1.00  0.00     0.005 C 
HETATM   37  C   UNL     1      26.849  11.382   4.928  1.00  0.00     0.031 C 
HETATM   38  C   UNL     1      26.768  10.794   3.660  1.00  0.00    -0.024 C 
HETATM   39  C   UNL     1      27.781  11.060   2.691  1.00  0.00    -0.019 C 
HETATM   40  C   UNL     1      25.647  10.044   3.290  1.00  0.00     0.012 C 
HETATM   41  C   UNL     1      28.908  11.798   3.029  1.00  0.00     0.062 C 
HETATM   42  C   UNL     1      27.603  10.590   1.378  1.00  0.00     0.012 C 
HETATM   43  S   UNL     1      29.343  12.350   4.619  1.00  0.00    -0.101 SA
HETATM   44  C   UNL     1      26.372  10.064   0.990  1.00  0.00     0.001 C 
HETATM   45  C   UNL     1      25.409   9.747   1.952  1.00  0.00     0.001 C 
ENDBRANCH  35  36
ENDBRANCH   1  34
TORSDOF 6
ENDMDL
MODEL 7
REMARK VINA RESULT:     -10.4      4.685      8.709
REMARK  6 active torsions:
REMARK  status: ('A' for Active; 'I' for Inactive)
REMARK    1  A    between atoms: C_13  and  C_36 
REMARK    2  A    between atoms: C_17  and  C_39 
REMARK    3  A    between atoms: C_18  and  C_21 
REMARK    4  A    between atoms: C_19  and  N_32 
REMARK    5  A    between atoms: C_25  and  N_32 
REMARK    6  A    between atoms: C_29  and  C_34 
ROOT
HETATM    1  C   UNL     1      23.529   7.511   5.613  1.00  0.00     0.129 C 
HETATM    2  C   UNL     1      24.144   7.238   3.528  1.00  0.00     0.164 C 
HETATM    3  O   UNL     1      21.316   6.570   5.410  1.00  0.00    -0.284 OA
HETATM    4  C   UNL     1      22.774   6.912   3.512  1.00  0.00     0.080 C 
HETATM    5  O   UNL     1      24.534   7.774   4.723  1.00  0.00    -0.289 OA
HETATM    6  C   UNL     1      22.393   6.945   4.915  1.00  0.00     0.221 C 
ENDROOT
BRANCH   2   7
HETATM    7  N   UNL     1      25.029   6.935   2.544  1.00  0.00    -0.336 N 
ATOM      8  HN  UNL     1      25.397   5.984   2.508  1.00  0.00     0.168 HD
BRANCH   7   9
HETATM    9  C   UNL     1      25.461   7.836   1.589  1.00  0.00     0.035 C 
HETATM   10  C   UNL     1      24.588   8.712   0.949  1.00  0.00     0.045 C 
HETATM   11  C   UNL     1      25.102   9.848   0.325  1.00  0.00     0.017 C 
HETATM   12  C   UNL     1      24.265  10.884  -0.119  1.00  0.00     0.157 C 
HETATM   13  C   UNL     1      26.450   9.881  -0.038  1.00  0.00     0.016 C 
HETATM   14  N   UNL     1      23.849  11.870   0.715  1.00  0.00    -0.345 N 
HETATM   15  O   UNL     1      23.967  10.883  -1.445  1.00  0.00    -0.304 OA
HETATM   16  C   UNL     1      22.867  12.674   0.272  1.00  0.00     0.106 C 
ATOM     17  HN  UNL     1      24.264  11.996   1.639  1.00  0.00     0.167 HD
HETATM   18  C   UNL     1      22.427  12.593  -1.063  1.00  0.00     0.035 C 
HETATM   19  C   UNL     1      22.746  11.446  -1.755  1.00  0.00     0.160 C 
HETATM   20  C   UNL     1      27.303   8.897   0.442  1.00  0.00     0.003 C 
HETATM   21  C   UNL     1      26.819   7.886   1.258  1.00  0.00     0.029 C 
BRANCH  18  22
HETATM   22  C   UNL     1      21.656  13.633  -1.692  1.00  0.00     0.088 C 
HETATM   23  C   UNL     1      20.756  13.360  -2.724  1.00  0.00     0.038 C 
HETATM   24  C   UNL     1      19.673  14.211  -2.931  1.00  0.00     0.005 C 
HETATM   25  C   UNL     1      19.638  15.433  -2.263  1.00  0.00     0.025 C 
HETATM   26  C   UNL     1      20.718  15.779  -1.456  1.00  0.00     0.142 C 
HETATM   27  O   UNL     1      21.677  14.874  -1.113  1.00  0.00    -0.322 OA
ENDBRANCH  18  22
ENDBRANCH   7   9
ENDBRANCH   2   7
BRANCH   4  28
HETATM   28  C   UNL     1      21.978   6.537   2.323  1.00  0.00     0.005 C 
HETATM   29  C   UNL     1      21.698   7.497   1.363  1.00  0.00     0.153 C 
HETATM   30  O   UNL     1      21.085   7.168   0.187  1.00  0.00    -0.334 OA
HETATM   31  C   UNL     1      20.100   6.216   0.347  1.00  0.00     0.141 C 
HETATM   32  C   UNL     1      20.402   5.142   1.160  1.00  0.00     0.025 C 
HETATM   33  C   UNL     1      21.412   5.253   2.133  1.00  0.00     0.016 C 
ENDBRANCH   4  28
BRANCH   1  34
HETATM   34  C   UNL     1      23.749   7.663   7.034  1.00  0.00     0.043 C 
HETATM   35  C   UNL     1      22.931   8.264   7.870  1.00  0.00     0.022 C 
BRANCH  35  36
HETATM   36  C   UNL     1      22.787   9.583   8.406  1.00  0.00     0.005 C 
HETATM   37  C   UNL     1      21.974   9.811   9.506  1.00  0.00     0.031 C 
HETATM   38  C   UNL     1      22.005  10.892  10.397  1.00  0.00    -0.024 C 
HETATM   39  C   UNL     1      22.930  11.957  10.184  1.00  0.00    -0.019 C 
HETATM   40  C   UNL     1      21.222  10.885  11.556  1.00  0.00     0.012 C 
HETATM   41  C   UNL     1      23.718  11.993   9.041  1.00  0.00     0.062 C 
HETATM   42  C   UNL     1      23.056  12.952  11.170  1.00  0.00     0.012 C 
HETATM   43  S   UNL     1      23.610  10.921   7.677  1.00  0.00    -0.101 SA
HETATM   44  C   UNL     1      22.444  12.781  12.410  1.00  0.00     0.001 C 
HETATM   45  C   UNL     1      21.492  11.775  12.591  1.00  0.00     0.001 C 
ENDBRANCH  35  36
ENDBRANCH   1  34
TORSDOF 6
ENDMDL
MODEL 8
REMARK VINA RESULT:     -10.4      3.763      9.120
REMARK  6 active torsions:
REMARK  status: ('A' for Active; 'I' for Inactive)
REMARK    1  A    between atoms: C_13  and  C_36 
REMARK    2  A    between atoms: C_17  and  C_39 
REMARK    3  A    between atoms: C_18  and  C_21 
REMARK    4  A    between atoms: C_19  and  N_32 
REMARK    5  A    between atoms: C_25  and  N_32 
REMARK    6  A    between atoms: C_29  and  C_34 
ROOT
HETATM    1  C   UNL     1      20.820   5.423   0.411  1.00  0.00     0.129 C 
HETATM    2  C   UNL     1      21.417   5.581   2.513  1.00  0.00     0.164 C 
HETATM    3  O   UNL     1      18.487   5.963   0.708  1.00  0.00    -0.284 OA
HETATM    4  C   UNL     1      20.012   5.675   2.562  1.00  0.00     0.080 C 
HETATM    5  O   UNL     1      21.869   5.239   1.270  1.00  0.00    -0.289 OA
HETATM    6  C   UNL     1      19.618   5.721   1.163  1.00  0.00     0.221 C 
ENDROOT
BRANCH   2   7
HETATM    7  N   UNL     1      22.256   5.924   3.523  1.00  0.00    -0.336 N 
ATOM      8  HN  UNL     1      22.550   5.192   4.171  1.00  0.00     0.168 HD
BRANCH   7   9
HETATM    9  C   UNL     1      22.736   7.205   3.728  1.00  0.00     0.035 C 
HETATM   10  C   UNL     1      22.426   7.937   4.871  1.00  0.00     0.045 C 
HETATM   11  C   UNL     1      23.235   9.015   5.227  1.00  0.00     0.017 C 
HETATM   12  C   UNL     1      23.125   9.634   6.483  1.00  0.00     0.157 C 
HETATM   13  C   UNL     1      24.041   9.618   4.257  1.00  0.00     0.016 C 
HETATM   14  N   UNL     1      23.768   9.149   7.573  1.00  0.00    -0.345 N 
HETATM   15  O   UNL     1      22.405  10.786   6.517  1.00  0.00    -0.304 OA
HETATM   16  C   UNL     1      23.415   9.655   8.768  1.00  0.00     0.106 C 
ATOM     17  HN  UNL     1      24.489   8.431   7.491  1.00  0.00     0.167 HD
HETATM   18  C   UNL     1      22.545  10.759   8.846  1.00  0.00     0.035 C 
HETATM   19  C   UNL     1      21.792  11.038   7.728  1.00  0.00     0.160 C 
HETATM   20  C   UNL     1      24.208   8.988   3.032  1.00  0.00     0.003 C 
HETATM   21  C   UNL     1      23.571   7.785   2.768  1.00  0.00     0.029 C 
BRANCH  18  22
HETATM   22  C   UNL     1      22.411  11.561  10.034  1.00  0.00     0.088 C 
HETATM   23  C   UNL     1      21.954  12.880   9.983  1.00  0.00     0.038 C 
HETATM   24  C   UNL     1      21.326  13.430  11.099  1.00  0.00     0.005 C 
HETATM   25  C   UNL     1      21.375  12.741  12.308  1.00  0.00     0.025 C 
HETATM   26  C   UNL     1      22.099  11.554  12.366  1.00  0.00     0.142 C 
HETATM   27  O   UNL     1      22.549  10.931  11.242  1.00  0.00    -0.322 OA
ENDBRANCH  18  22
ENDBRANCH   7   9
ENDBRANCH   2   7
BRANCH   4  28
HETATM   28  C   UNL     1      19.185   5.792   3.782  1.00  0.00     0.005 C 
HETATM   29  C   UNL     1      18.501   4.681   4.248  1.00  0.00     0.153 C 
HETATM   30  O   UNL     1      17.836   4.704   5.442  1.00  0.00    -0.334 OA
HETATM   31  C   UNL     1      17.199   5.905   5.674  1.00  0.00     0.141 C 
HETATM   32  C   UNL     1      17.915   7.051   5.390  1.00  0.00     0.025 C 
HETATM   33  C   UNL     1      18.986   7.008   4.480  1.00  0.00     0.016 C 
ENDBRANCH   4  28
BRANCH   1  34
HETATM   34  C   UNL     1      21.039   5.453  -1.018  1.00  0.00     0.043 C 
HETATM   35  C   UNL     1      22.209   5.374  -1.610  1.00  0.00     0.022 C 
BRANCH  35  36
HETATM   36  C   UNL     1      23.188   6.300  -2.094  1.00  0.00     0.005 C 
HETATM   37  C   UNL     1      23.399   7.506  -1.444  1.00  0.00     0.031 C 
HETATM   38  C   UNL     1      24.525   8.336  -1.501  1.00  0.00    -0.024 C 
HETATM   39  C   UNL     1      25.617   7.988  -2.351  1.00  0.00    -0.019 C 
HETATM   40  C   UNL     1      24.645   9.439  -0.649  1.00  0.00     0.012 C 
HETATM   41  C   UNL     1      25.527   6.902  -3.210  1.00  0.00     0.062 C 
HETATM   42  C   UNL     1      26.800   8.744  -2.278  1.00  0.00     0.012 C 
HETATM   43  S   UNL     1      24.112   5.937  -3.513  1.00  0.00    -0.101 SA
HETATM   44  C   UNL     1      26.968   9.673  -1.253  1.00  0.00     0.001 C 
HETATM   45  C   UNL     1      25.879  10.055  -0.466  1.00  0.00     0.001 C 
ENDBRANCH  35  36
ENDBRANCH   1  34
TORSDOF 6
ENDMDL
MODEL 9
REMARK VINA RESULT:     -10.2      4.536     10.781
REMARK  6 active torsions:
REMARK  status: ('A' for Active; 'I' for Inactive)
REMARK    1  A    between atoms: C_13  and  C_36 
REMARK    2  A    between atoms: C_17  and  C_39 
REMARK    3  A    between atoms: C_18  and  C_21 
REMARK    4  A    between atoms: C_19  and  N_32 
REMARK    5  A    between atoms: C_25  and  N_32 
REMARK    6  A    between atoms: C_29  and  C_34 
ROOT
HETATM    1  C   UNL     1      22.896   8.622   6.689  1.00  0.00     0.129 C 
HETATM    2  C   UNL     1      23.237  10.770   6.427  1.00  0.00     0.164 C 
HETATM    3  O   UNL     1      22.030   8.717   8.939  1.00  0.00    -0.284 OA
HETATM    4  C   UNL     1      22.916  10.653   7.793  1.00  0.00     0.080 C 
HETATM    5  O   UNL     1      23.413   9.553   5.830  1.00  0.00    -0.289 OA
HETATM    6  C   UNL     1      22.543   9.255   7.943  1.00  0.00     0.221 C 
ENDROOT
BRANCH   2   7
HETATM    7  N   UNL     1      23.237  11.931   5.723  1.00  0.00    -0.336 N 
ATOM      8  HN  UNL     1      22.708  12.718   6.098  1.00  0.00     0.168 HD
BRANCH   7   9
HETATM    9  C   UNL     1      23.910  12.111   4.528  1.00  0.00     0.035 C 
HETATM   10  C   UNL     1      23.914  11.143   3.528  1.00  0.00     0.045 C 
HETATM   11  C   UNL     1      24.237  11.514   2.224  1.00  0.00     0.017 C 
HETATM   12  C   UNL     1      24.022  10.650   1.138  1.00  0.00     0.157 C 
HETATM   13  C   UNL     1      24.958  12.690   2.004  1.00  0.00     0.016 C 
HETATM   14  N   UNL     1      22.817  10.568   0.521  1.00  0.00    -0.345 N 
HETATM   15  O   UNL     1      25.111   9.967   0.697  1.00  0.00    -0.304 OA
HETATM   16  C   UNL     1      22.637   9.550  -0.339  1.00  0.00     0.106 C 
ATOM     17  HN  UNL     1      22.079  11.249   0.702  1.00  0.00     0.167 HD
HETATM   18  C   UNL     1      23.717   8.724  -0.702  1.00  0.00     0.035 C 
HETATM   19  C   UNL     1      24.822   8.748   0.119  1.00  0.00     0.160 C 
HETATM   20  C   UNL     1      25.128  13.584   3.052  1.00  0.00     0.003 C 
HETATM   21  C   UNL     1      24.600  13.306   4.304  1.00  0.00     0.029 C 
BRANCH  18  22
HETATM   22  C   UNL     1      23.687   7.867  -1.858  1.00  0.00     0.088 C 
HETATM   23  C   UNL     1      23.349   6.515  -1.762  1.00  0.00     0.038 C 
HETATM   24  C   UNL     1      22.802   5.867  -2.868  1.00  0.00     0.005 C 
HETATM   25  C   UNL     1      22.820   6.509  -4.104  1.00  0.00     0.025 C 
HETATM   26  C   UNL     1      23.435   7.754  -4.196  1.00  0.00     0.142 C 
HETATM   27  O   UNL     1      23.798   8.460  -3.088  1.00  0.00    -0.322 OA
ENDBRANCH  18  22
ENDBRANCH   7   9
ENDBRANCH   2   7
BRANCH   4  28
HETATM   28  C   UNL     1      22.888  11.751   8.783  1.00  0.00     0.005 C 
HETATM   29  C   UNL     1      24.068  12.404   9.106  1.00  0.00     0.153 C 
HETATM   30  O   UNL     1      24.071  13.509   9.909  1.00  0.00    -0.334 OA
HETATM   31  C   UNL     1      23.167  13.418  10.946  1.00  0.00     0.141 C 
HETATM   32  C   UNL     1      21.911  12.936  10.633  1.00  0.00     0.025 C 
HETATM   33  C   UNL     1      21.725  12.141   9.488  1.00  0.00     0.016 C 
ENDBRANCH   4  28
BRANCH   1  34
HETATM   34  C   UNL     1      22.638   7.272   6.239  1.00  0.00     0.043 C 
HETATM   35  C   UNL     1      22.386   6.920   4.998  1.00  0.00     0.022 C 
BRANCH  35  36
HETATM   36  C   UNL     1      21.217   6.720   4.196  1.00  0.00     0.005 C 
HETATM   37  C   UNL     1      21.290   6.790   2.814  1.00  0.00     0.031 C 
HETATM   38  C   UNL     1      20.402   6.254   1.871  1.00  0.00    -0.024 C 
HETATM   39  C   UNL     1      19.227   5.578   2.312  1.00  0.00    -0.019 C 
HETATM   40  C   UNL     1      20.713   6.270   0.508  1.00  0.00     0.012 C 
HETATM   41  C   UNL     1      18.890   5.548   3.659  1.00  0.00     0.062 C 
HETATM   42  C   UNL     1      18.432   4.912   1.362  1.00  0.00     0.012 C 
HETATM   43  S   UNL     1      19.686   6.408   4.943  1.00  0.00    -0.101 SA
HETATM   44  C   UNL     1      18.900   4.744   0.061  1.00  0.00     0.001 C 
HETATM   45  C   UNL     1      20.015   5.460  -0.382  1.00  0.00     0.001 C 
ENDBRANCH  35  36
ENDBRANCH   1  34
TORSDOF 6
ENDMDL
