REMARK  3 active torsions:
REMARK  status: ('A' for Active; 'I' for Inactive)
REMARK    1  A    between atoms: O_3  and  C_5 
REMARK    2  A    between atoms: C_5  and  C_9 
REMARK    3  A    between atoms: C_9  and  C_11 
ROOT
HETATM    1  C   UNL     1     -35.866  10.051  -3.255  1.00  0.00     0.018 C 
HETATM    2  C   UNL     1     -35.603  10.148  -4.600  1.00  0.00     0.015 C 
HETATM    3  N   UNL     1     -33.714  10.214  -2.146  1.00  0.00    -0.375 N 
ATOM      4  HN  UNL     1     -33.255  10.144  -1.238  1.00  0.00     0.164 HD
HETATM    5  C   UNL     1     -33.188  10.456  -4.519  1.00  0.00     0.031 C 
HETATM    6  C   UNL     1     -34.351  10.164  -5.219  1.00  0.00     0.002 C 
HETATM    7  C   UNL     1     -32.982  10.569  -3.182  1.00  0.00     0.088 C 
HETATM    8  C   UNL     1     -35.014   9.941  -2.210  1.00  0.00     0.087 C 
ENDROOT
BRANCH   6   9
HETATM    9  C   UNL     1     -34.296  10.205  -6.681  1.00  0.00     0.127 C 
HETATM   10  F   UNL     1     -35.055   9.440  -7.383  1.00  0.00    -0.208 F 
BRANCH   9  11
HETATM   11  C   UNL     1     -33.167  10.838  -7.401  1.00  0.00     0.235 C 
BRANCH  11  12
HETATM   12  O   UNL     1     -32.314   9.918  -8.002  1.00  0.00    -0.394 OA
ATOM     13  HO  UNL     1     -31.590  10.324  -8.464  1.00  0.00     0.209 HD
ENDBRANCH  11  12
ENDBRANCH   9  11
ENDBRANCH   6   9
TORSDOF 3
