MODEL 1
REMARK VINA RESULT:      -8.6      0.000      0.000
REMARK  5 active torsions:
REMARK  status: ('A' for Active; 'I' for Inactive)
REMARK    1  A    between atoms: C_3  and  O_28 
REMARK    2  A    between atoms: O_7  and  C_12 
REMARK    3  A    between atoms: C_12  and  O_19 
REMARK    4  A    between atoms: C_16  and  O_21 
REMARK    5  A    between atoms: O_23  and  C_31 
ROOT
HETATM    1  C   UNL     1      -2.736   4.264  15.039  1.00  0.00     0.093 C 
HETATM    2  C   UNL     1      -4.754   2.271  14.272  1.00  0.00    -0.017 C 
HETATM    3  C   UNL     1      -1.289   3.774  11.892  1.00  0.00     0.098 C 
HETATM    4  C   UNL     1      -6.290   4.102  13.526  1.00  0.00     0.044 C 
HETATM    5  C   UNL     1      -4.039   4.195  15.752  1.00  0.00     0.036 C 
HETATM    6  C   UNL     1      -6.298   4.575  14.991  1.00  0.00    -0.007 C 
HETATM    7  C   UNL     1      -5.267   3.043  13.231  1.00  0.00    -0.048 C 
HETATM    8  C   UNL     1      -6.283   3.312  15.868  1.00  0.00     0.048 C 
HETATM    9  C   UNL     1      -2.578   4.459  10.002  1.00  0.00     0.016 C 
HETATM   10  C   UNL     1      -2.721   2.071  10.728  1.00  0.00     0.221 C 
HETATM   11  C   UNL     1      -1.717   6.566  11.046  1.00  0.00     0.038 C 
HETATM   12  C   UNL     1      -4.981   5.297  15.301  1.00  0.00     0.014 C 
HETATM   13  C   UNL     1      -4.803   2.837  11.939  1.00  0.00     0.020 C 
HETATM   14  C   UNL     1      -4.825   2.882  15.657  1.00  0.00     0.090 C 
HETATM   15  C   UNL     1      -4.154   1.044  13.986  1.00  0.00     0.011 C 
HETATM   16  C   UNL     1      -2.242   5.775  10.060  1.00  0.00     0.004 C 
HETATM   17  C   UNL     1      -2.188   3.466  10.868  1.00  0.00     0.043 C 
HETATM   18  C   UNL     1      -2.109   4.725  14.017  1.00  0.00    -0.138 C 
HETATM   19  C   UNL     1      -1.533   4.866  12.733  1.00  0.00     0.072 C 
HETATM   20  C   UNL     1      -3.810   1.871  11.760  1.00  0.00     0.009 C 
HETATM   21  C   UNL     1      -1.200   6.126  12.253  1.00  0.00     0.086 C 
HETATM   22  C   UNL     1      -3.762   0.801  12.666  1.00  0.00     0.013 C 
ENDROOT
BRANCH  10  23
HETATM   23  O   UNL     1      -1.714   1.118  10.840  1.00  0.00    -0.358 OA
ATOM     24  HO  UNL     1      -1.331   1.162   9.972  1.00  0.00     0.213 HD
ENDBRANCH  10  23
BRANCH  10  25
HETATM   25  O   UNL     1      -3.193   1.802   9.443  1.00  0.00    -0.358 OA
ATOM     26  HO  UNL     1      -4.129   1.887   9.577  1.00  0.00     0.213 HD
ENDBRANCH  10  25
BRANCH   3  27
HETATM   27  O   UNL     1      -0.112   3.103  11.968  1.00  0.00    -0.358 OA
ATOM     28  HO  UNL     1       0.645   3.433  11.496  1.00  0.00     0.217 HD
ENDBRANCH   3  27
BRANCH  21  29
HETATM   29  O   UNL     1      -0.282   6.883  12.924  1.00  0.00    -0.359 OA
ATOM     30  HO  UNL     1      -0.318   7.831  12.875  1.00  0.00     0.217 HD
ENDBRANCH  21  29
BRANCH  14  31
HETATM   31  O   UNL     1      -4.427   1.977  16.669  1.00  0.00    -0.385 OA
ATOM     32  HO  UNL     1      -5.076   1.302  16.830  1.00  0.00     0.211 HD
ENDBRANCH  14  31
TORSDOF 5
ENDMDL
MODEL 2
REMARK VINA RESULT:      -8.0      1.581      4.122
REMARK  5 active torsions:
REMARK  status: ('A' for Active; 'I' for Inactive)
REMARK    1  A    between atoms: C_3  and  O_28 
REMARK    2  A    between atoms: O_7  and  C_12 
REMARK    3  A    between atoms: C_12  and  O_19 
REMARK    4  A    between atoms: C_16  and  O_21 
REMARK    5  A    between atoms: O_23  and  C_31 
ROOT
HETATM    1  C   UNL     1      -5.640   3.438  13.190  1.00  0.00     0.093 C 
HETATM    2  C   UNL     1      -4.161   4.757  15.360  1.00  0.00    -0.017 C 
HETATM    3  C   UNL     1      -2.969   4.265  11.087  1.00  0.00     0.098 C 
HETATM    4  C   UNL     1      -3.212   2.551  16.065  1.00  0.00     0.044 C 
HETATM    5  C   UNL     1      -5.963   3.145  14.611  1.00  0.00     0.036 C 
HETATM    6  C   UNL     1      -4.659   2.121  16.366  1.00  0.00    -0.007 C 
HETATM    7  C   UNL     1      -3.102   3.853  15.325  1.00  0.00    -0.048 C 
HETATM    8  C   UNL     1      -5.379   3.351  16.945  1.00  0.00     0.048 C 
HETATM    9  C   UNL     1      -0.878   3.206  11.544  1.00  0.00     0.016 C 
HETATM   10  C   UNL     1      -1.299   5.467  12.525  1.00  0.00     0.221 C 
HETATM   11  C   UNL     1      -2.319   1.453  10.486  1.00  0.00     0.038 C 
HETATM   12  C   UNL     1      -5.384   1.812  15.051  1.00  0.00     0.014 C 
HETATM   13  C   UNL     1      -1.970   4.159  14.582  1.00  0.00     0.020 C 
HETATM   14  C   UNL     1      -5.529   4.177  15.660  1.00  0.00     0.090 C 
HETATM   15  C   UNL     1      -3.929   6.099  15.056  1.00  0.00     0.011 C 
HETATM   16  C   UNL     1      -1.154   2.043  10.897  1.00  0.00     0.004 C 
HETATM   17  C   UNL     1      -1.715   4.285  11.701  1.00  0.00     0.043 C 
HETATM   18  C   UNL     1      -4.876   3.158  12.196  1.00  0.00    -0.138 C 
HETATM   19  C   UNL     1      -3.816   3.164  11.259  1.00  0.00     0.072 C 
HETATM   20  C   UNL     1      -1.973   5.366  13.877  1.00  0.00     0.009 C 
HETATM   21  C   UNL     1      -3.571   2.044  10.476  1.00  0.00     0.086 C 
HETATM   22  C   UNL     1      -2.748   6.420  14.382  1.00  0.00     0.013 C 
ENDROOT
BRANCH  10  23
HETATM   23  O   UNL     1      -1.585   6.670  11.889  1.00  0.00    -0.358 OA
ATOM     24  HO  UNL     1      -1.995   7.152  12.597  1.00  0.00     0.213 HD
ENDBRANCH  10  23
BRANCH  10  25
HETATM   25  O   UNL     1       0.086   5.567  12.662  1.00  0.00    -0.358 OA
ATOM     26  HO  UNL     1       0.204   5.220  13.538  1.00  0.00     0.213 HD
ENDBRANCH  10  25
BRANCH   3  27
HETATM   27  O   UNL     1      -3.294   5.246  10.206  1.00  0.00    -0.358 OA
ATOM     28  HO  UNL     1      -3.546   6.102  10.533  1.00  0.00     0.217 HD
ENDBRANCH   3  27
BRANCH  21  29
HETATM   29  O   UNL     1      -4.536   1.593   9.621  1.00  0.00    -0.359 OA
ATOM     30  HO  UNL     1      -5.023   2.207   9.084  1.00  0.00     0.217 HD
ENDBRANCH  21  29
BRANCH  14  31
HETATM   31  O   UNL     1      -6.517   5.175  15.828  1.00  0.00    -0.385 OA
ATOM     32  HO  UNL     1      -7.395   4.816  15.869  1.00  0.00     0.211 HD
ENDBRANCH  14  31
TORSDOF 5
ENDMDL
MODEL 3
REMARK VINA RESULT:      -7.3      1.892      5.251
REMARK  5 active torsions:
REMARK  status: ('A' for Active; 'I' for Inactive)
REMARK    1  A    between atoms: C_3  and  O_28 
REMARK    2  A    between atoms: O_7  and  C_12 
REMARK    3  A    between atoms: C_12  and  O_19 
REMARK    4  A    between atoms: C_16  and  O_21 
REMARK    5  A    between atoms: O_23  and  C_31 
ROOT
HETATM    1  C   UNL     1      -3.818   6.496  12.728  1.00  0.00     0.093 C 
HETATM    2  C   UNL     1      -2.355   5.144  10.569  1.00  0.00    -0.017 C 
HETATM    3  C   UNL     1      -5.455   3.458  13.303  1.00  0.00     0.098 C 
HETATM    4  C   UNL     1      -0.461   4.674  12.136  1.00  0.00     0.044 C 
HETATM    5  C   UNL     1      -2.543   7.059  12.212  1.00  0.00     0.036 C 
HETATM    6  C   UNL     1      -0.288   6.199  12.248  1.00  0.00    -0.007 C 
HETATM    7  C   UNL     1      -1.714   4.251  11.424  1.00  0.00    -0.048 C 
HETATM    8  C   UNL     1      -0.567   6.783  10.852  1.00  0.00     0.048 C 
HETATM    9  C   UNL     1      -4.112   1.652  14.100  1.00  0.00     0.016 C 
HETATM   10  C   UNL     1      -4.509   1.834  11.638  1.00  0.00     0.221 C 
HETATM   11  C   UNL     1      -4.415   3.195  16.049  1.00  0.00     0.038 C 
HETATM   12  C   UNL     1      -1.386   6.773  13.151  1.00  0.00     0.014 C 
HETATM   13  C   UNL     1      -2.261   2.991  11.628  1.00  0.00     0.020 C 
HETATM   14  C   UNL     1      -2.092   6.616  10.815  1.00  0.00     0.090 C 
HETATM   15  C   UNL     1      -3.238   4.656   9.603  1.00  0.00     0.011 C 
HETATM   16  C   UNL     1      -4.128   2.019  15.408  1.00  0.00     0.004 C 
HETATM   17  C   UNL     1      -4.693   2.317  13.047  1.00  0.00     0.043 C 
HETATM   18  C   UNL     1      -4.357   5.656  13.537  1.00  0.00    -0.138 C 
HETATM   19  C   UNL     1      -4.931   4.489  14.092  1.00  0.00     0.072 C 
HETATM   20  C   UNL     1      -3.460   2.699  10.972  1.00  0.00     0.009 C 
HETATM   21  C   UNL     1      -4.976   4.321  15.470  1.00  0.00     0.086 C 
HETATM   22  C   UNL     1      -3.724   3.356   9.761  1.00  0.00     0.013 C 
ENDROOT
BRANCH  10  23
HETATM   23  O   UNL     1      -5.706   1.829  10.931  1.00  0.00    -0.358 OA
ATOM     24  HO  UNL     1      -5.460   2.327  10.161  1.00  0.00     0.213 HD
ENDBRANCH  10  23
BRANCH  10  25
HETATM   25  O   UNL     1      -4.161   0.485  11.573  1.00  0.00    -0.358 OA
ATOM     26  HO  UNL     1      -3.885   0.329  12.468  1.00  0.00     0.213 HD
ENDBRANCH  10  25
BRANCH   3  27
HETATM   27  O   UNL     1      -6.754   3.493  12.910  1.00  0.00    -0.358 OA
ATOM     28  HO  UNL     1      -7.052   4.198  12.347  1.00  0.00     0.217 HD
ENDBRANCH   3  27
BRANCH  21  29
HETATM   29  O   UNL     1      -5.665   5.217  16.237  1.00  0.00    -0.359 OA
ATOM     30  HO  UNL     1      -6.584   5.074  16.428  1.00  0.00     0.217 HD
ENDBRANCH  21  29
BRANCH  14  31
HETATM   31  O   UNL     1      -2.654   7.442   9.813  1.00  0.00    -0.385 OA
ATOM     32  HO  UNL     1      -3.597   7.515   9.889  1.00  0.00     0.211 HD
ENDBRANCH  14  31
TORSDOF 5
ENDMDL
MODEL 4
REMARK VINA RESULT:      -7.2      2.177      4.209
REMARK  5 active torsions:
REMARK  status: ('A' for Active; 'I' for Inactive)
REMARK    1  A    between atoms: C_3  and  O_28 
REMARK    2  A    between atoms: O_7  and  C_12 
REMARK    3  A    between atoms: C_12  and  O_19 
REMARK    4  A    between atoms: C_16  and  O_21 
REMARK    5  A    between atoms: O_23  and  C_31 
ROOT
HETATM    1  C   UNL     1      -4.885   2.943  12.250  1.00  0.00     0.093 C 
HETATM    2  C   UNL     1      -5.275   5.775  12.928  1.00  0.00    -0.017 C 
HETATM    3  C   UNL     1      -2.950   4.026   9.543  1.00  0.00     0.098 C 
HETATM    4  C   UNL     1      -3.361   5.662  14.537  1.00  0.00     0.044 C 
HETATM    5  C   UNL     1      -5.310   3.341  13.617  1.00  0.00     0.036 C 
HETATM    6  C   UNL     1      -4.194   4.634  15.323  1.00  0.00    -0.007 C 
HETATM    7  C   UNL     1      -3.926   6.004  13.188  1.00  0.00    -0.048 C 
HETATM    8  C   UNL     1      -5.660   5.092  15.242  1.00  0.00     0.048 C 
HETATM    9  C   UNL     1      -0.900   5.131  10.066  1.00  0.00     0.016 C 
HETATM   10  C   UNL     1      -2.930   6.533   9.663  1.00  0.00     0.221 C 
HETATM   11  C   UNL     1      -0.503   2.699  10.513  1.00  0.00     0.038 C 
HETATM   12  C   UNL     1      -4.154   3.283  14.600  1.00  0.00     0.014 C 
HETATM   13  C   UNL     1      -3.117   6.520  12.184  1.00  0.00     0.020 C 
HETATM   14  C   UNL     1      -5.954   4.723  13.782  1.00  0.00     0.090 C 
HETATM   15  C   UNL     1      -5.897   6.455  11.879  1.00  0.00     0.011 C 
HETATM   16  C   UNL     1      -0.167   4.003  10.264  1.00  0.00     0.004 C 
HETATM   17  C   UNL     1      -2.237   5.206   9.759  1.00  0.00     0.043 C 
HETATM   18  C   UNL     1      -3.891   2.777  11.454  1.00  0.00    -0.138 C 
HETATM   19  C   UNL     1      -2.887   2.987  10.479  1.00  0.00     0.072 C 
HETATM   20  C   UNL     1      -3.710   6.756  10.941  1.00  0.00     0.009 C 
HETATM   21  C   UNL     1      -1.775   2.157  10.435  1.00  0.00     0.086 C 
HETATM   22  C   UNL     1      -5.082   7.048  10.912  1.00  0.00     0.013 C 
ENDROOT
BRANCH  10  23
HETATM   23  O   UNL     1      -3.740   6.615   8.536  1.00  0.00    -0.358 OA
ATOM     24  HO  UNL     1      -4.075   7.500   8.622  1.00  0.00     0.213 HD
ENDBRANCH  10  23
BRANCH  10  25
HETATM   25  O   UNL     1      -2.045   7.586   9.426  1.00  0.00    -0.358 OA
ATOM     26  HO  UNL     1      -2.453   7.993   8.671  1.00  0.00     0.213 HD
ENDBRANCH  10  25
BRANCH   3  27
HETATM   27  O   UNL     1      -3.579   3.836   8.355  1.00  0.00    -0.358 OA
ATOM     28  HO  UNL     1      -3.214   4.221   7.567  1.00  0.00     0.217 HD
ENDBRANCH   3  27
BRANCH  21  29
HETATM   29  O   UNL     1      -1.938   0.820  10.209  1.00  0.00    -0.359 OA
ATOM     30  HO  UNL     1      -1.767   0.457   9.348  1.00  0.00     0.217 HD
ENDBRANCH  21  29
BRANCH  14  31
HETATM   31  O   UNL     1      -7.350   4.662  13.560  1.00  0.00    -0.385 OA
ATOM     32  HO  UNL     1      -7.572   4.194  12.765  1.00  0.00     0.211 HD
ENDBRANCH  14  31
TORSDOF 5
ENDMDL
MODEL 5
REMARK VINA RESULT:      -7.2      3.019      5.655
REMARK  5 active torsions:
REMARK  status: ('A' for Active; 'I' for Inactive)
REMARK    1  A    between atoms: C_3  and  O_28 
REMARK    2  A    between atoms: O_7  and  C_12 
REMARK    3  A    between atoms: C_12  and  O_19 
REMARK    4  A    between atoms: C_16  and  O_21 
REMARK    5  A    between atoms: O_23  and  C_31 
ROOT
HETATM    1  C   UNL     1      -2.574   8.333  11.139  1.00  0.00     0.093 C 
HETATM    2  C   UNL     1      -1.180   6.872  13.274  1.00  0.00    -0.017 C 
HETATM    3  C   UNL     1      -4.955   5.769  11.163  1.00  0.00     0.098 C 
HETATM    4  C   UNL     1      -2.341   8.268  14.998  1.00  0.00     0.044 C 
HETATM    5  C   UNL     1      -1.594   9.028  12.015  1.00  0.00     0.036 C 
HETATM    6  C   UNL     1      -1.610   9.477  14.387  1.00  0.00    -0.007 C 
HETATM    7  C   UNL     1      -2.223   7.009  14.188  1.00  0.00    -0.048 C 
HETATM    8  C   UNL     1      -0.205   8.995  13.989  1.00  0.00     0.048 C 
HETATM    9  C   UNL     1      -6.279   5.555  13.138  1.00  0.00     0.016 C 
HETATM   10  C   UNL     1      -4.218   4.154  12.937  1.00  0.00     0.221 C 
HETATM   11  C   UNL     1      -7.163   7.565  11.934  1.00  0.00     0.038 C 
HETATM   12  C   UNL     1      -2.288   9.871  13.069  1.00  0.00     0.014 C 
HETATM   13  C   UNL     1      -3.155   5.987  14.315  1.00  0.00     0.020 C 
HETATM   14  C   UNL     1      -0.570   8.159  12.755  1.00  0.00     0.090 C 
HETATM   15  C   UNL     1      -0.808   5.598  12.842  1.00  0.00     0.011 C 
HETATM   16  C   UNL     1      -7.180   6.522  12.821  1.00  0.00     0.004 C 
HETATM   17  C   UNL     1      -5.177   5.179  12.408  1.00  0.00     0.043 C 
HETATM   18  C   UNL     1      -3.790   7.941  11.010  1.00  0.00    -0.138 C 
HETATM   19  C   UNL     1      -4.972   7.163  11.035  1.00  0.00     0.072 C 
HETATM   20  C   UNL     1      -3.004   4.875  13.483  1.00  0.00     0.009 C 
HETATM   21  C   UNL     1      -6.213   7.780  10.949  1.00  0.00     0.086 C 
HETATM   22  C   UNL     1      -1.711   4.551  13.045  1.00  0.00     0.013 C 
ENDROOT
BRANCH  10  23
HETATM   23  O   UNL     1      -3.877   3.215  11.970  1.00  0.00    -0.358 OA
ATOM     24  HO  UNL     1      -4.313   3.578  11.208  1.00  0.00     0.213 HD
ENDBRANCH  10  23
BRANCH  10  25
HETATM   25  O   UNL     1      -4.791   3.332  13.908  1.00  0.00    -0.358 OA
ATOM     26  HO  UNL     1      -4.014   2.954  14.302  1.00  0.00     0.213 HD
ENDBRANCH  10  25
BRANCH   3  27
HETATM   27  O   UNL     1      -4.874   4.984  10.058  1.00  0.00    -0.358 OA
ATOM     28  HO  UNL     1      -5.562   4.353   9.883  1.00  0.00     0.217 HD
ENDBRANCH   3  27
BRANCH  21  29
HETATM   29  O   UNL     1      -6.528   8.512   9.840  1.00  0.00    -0.359 OA
ATOM     30  HO  UNL     1      -6.503   9.462   9.872  1.00  0.00     0.217 HD
ENDBRANCH  21  29
BRANCH  14  31
HETATM   31  O   UNL     1       0.576   7.932  11.957  1.00  0.00    -0.385 OA
ATOM     32  HO  UNL     1       0.499   8.317  11.093  1.00  0.00     0.211 HD
ENDBRANCH  14  31
TORSDOF 5
ENDMDL
MODEL 6
REMARK VINA RESULT:      -7.2      2.252      5.409
REMARK  5 active torsions:
REMARK  status: ('A' for Active; 'I' for Inactive)
REMARK    1  A    between atoms: C_3  and  O_28 
REMARK    2  A    between atoms: O_7  and  C_12 
REMARK    3  A    between atoms: C_12  and  O_19 
REMARK    4  A    between atoms: C_16  and  O_21 
REMARK    5  A    between atoms: O_23  and  C_31 
ROOT
HETATM    1  C   UNL     1      -2.643   5.885   9.792  1.00  0.00     0.093 C 
HETATM    2  C   UNL     1      -3.619   7.534  12.019  1.00  0.00    -0.017 C 
HETATM    3  C   UNL     1      -2.071   3.349  12.134  1.00  0.00     0.098 C 
HETATM    4  C   UNL     1      -5.971   6.841  11.513  1.00  0.00     0.044 C 
HETATM    5  C   UNL     1      -3.507   7.067   9.534  1.00  0.00     0.036 C 
HETATM    6  C   UNL     1      -5.793   7.539  10.152  1.00  0.00    -0.007 C 
HETATM    7  C   UNL     1      -4.699   6.699  12.298  1.00  0.00    -0.048 C 
HETATM    8  C   UNL     1      -4.947   8.798  10.404  1.00  0.00     0.048 C 
HETATM    9  C   UNL     1      -3.997   2.412  13.190  1.00  0.00     0.016 C 
HETATM   10  C   UNL     1      -2.800   4.275  14.351  1.00  0.00     0.221 C 
HETATM   11  C   UNL     1      -3.968   1.483  10.865  1.00  0.00     0.038 C 
HETATM   12  C   UNL     1      -4.938   6.657   9.234  1.00  0.00     0.014 C 
HETATM   13  C   UNL     1      -4.571   5.727  13.282  1.00  0.00     0.020 C 
HETATM   14  C   UNL     1      -3.580   8.138  10.629  1.00  0.00     0.090 C 
HETATM   15  C   UNL     1      -2.621   7.711  12.979  1.00  0.00     0.011 C 
HETATM   16  C   UNL     1      -4.313   1.550  12.188  1.00  0.00     0.004 C 
HETATM   17  C   UNL     1      -2.965   3.320  13.206  1.00  0.00     0.043 C 
HETATM   18  C   UNL     1      -2.615   4.638  10.100  1.00  0.00    -0.138 C 
HETATM   19  C   UNL     1      -2.552   3.423  10.821  1.00  0.00     0.072 C 
HETATM   20  C   UNL     1      -3.335   5.625  13.926  1.00  0.00     0.009 C 
HETATM   21  C   UNL     1      -2.994   2.243  10.238  1.00  0.00     0.086 C 
HETATM   22  C   UNL     1      -2.545   6.781  14.019  1.00  0.00     0.013 C 
ENDROOT
BRANCH  10  23
HETATM   23  O   UNL     1      -1.478   4.348  14.778  1.00  0.00    -0.358 OA
ATOM     24  HO  UNL     1      -1.505   3.776  15.536  1.00  0.00     0.213 HD
ENDBRANCH  10  23
BRANCH  10  25
HETATM   25  O   UNL     1      -3.426   3.832  15.516  1.00  0.00    -0.358 OA
ATOM     26  HO  UNL     1      -4.335   4.013  15.308  1.00  0.00     0.213 HD
ENDBRANCH  10  25
BRANCH   3  27
HETATM   27  O   UNL     1      -0.748   3.154  12.365  1.00  0.00    -0.358 OA
ATOM     28  HO  UNL     1      -0.243   2.618  11.765  1.00  0.00     0.217 HD
ENDBRANCH   3  27
BRANCH  21  29
HETATM   29  O   UNL     1      -2.391   1.784   9.102  1.00  0.00    -0.359 OA
ATOM     30  HO  UNL     1      -1.645   1.199   9.160  1.00  0.00     0.217 HD
ENDBRANCH  21  29
BRANCH  14  31
HETATM   31  O   UNL     1      -2.543   9.089  10.480  1.00  0.00    -0.385 OA
ATOM     32  HO  UNL     1      -2.320   9.244   9.570  1.00  0.00     0.211 HD
ENDBRANCH  14  31
TORSDOF 5
ENDMDL
MODEL 7
REMARK VINA RESULT:      -7.1      2.581      5.117
REMARK  5 active torsions:
REMARK  status: ('A' for Active; 'I' for Inactive)
REMARK    1  A    between atoms: C_3  and  O_28 
REMARK    2  A    between atoms: O_7  and  C_12 
REMARK    3  A    between atoms: C_12  and  O_19 
REMARK    4  A    between atoms: C_16  and  O_21 
REMARK    5  A    between atoms: O_23  and  C_31 
ROOT
HETATM    1  C   UNL     1      -4.322   5.682  11.576  1.00  0.00     0.093 C 
HETATM    2  C   UNL     1      -1.652   6.884  11.814  1.00  0.00    -0.017 C 
HETATM    3  C   UNL     1      -2.863   3.238   9.542  1.00  0.00     0.098 C 
HETATM    4  C   UNL     1      -1.275   5.643  13.955  1.00  0.00     0.044 C 
HETATM    5  C   UNL     1      -4.011   6.616  12.690  1.00  0.00     0.036 C 
HETATM    6  C   UNL     1      -2.456   6.446  14.529  1.00  0.00    -0.007 C 
HETATM    7  C   UNL     1      -1.104   5.784  12.470  1.00  0.00    -0.048 C 
HETATM    8  C   UNL     1      -2.362   7.863  13.937  1.00  0.00     0.048 C 
HETATM    9  C   UNL     1      -1.292   1.775  10.585  1.00  0.00     0.016 C 
HETATM   10  C   UNL     1      -0.421   3.807   9.417  1.00  0.00     0.221 C 
HETATM   11  C   UNL     1      -3.549   1.030  11.370  1.00  0.00     0.038 C 
HETATM   12  C   UNL     1      -3.773   5.872  13.992  1.00  0.00     0.014 C 
HETATM   13  C   UNL     1      -0.430   4.819  11.733  1.00  0.00     0.020 C 
HETATM   14  C   UNL     1      -2.819   7.563  12.503  1.00  0.00     0.090 C 
HETATM   15  C   UNL     1      -1.161   7.252  10.560  1.00  0.00     0.011 C 
HETATM   16  C   UNL     1      -2.208   0.924  11.116  1.00  0.00     0.004 C 
HETATM   17  C   UNL     1      -1.543   2.914   9.859  1.00  0.00     0.043 C 
HETATM   18  C   UNL     1      -4.262   4.468  11.162  1.00  0.00    -0.138 C 
HETATM   19  C   UNL     1      -3.839   3.267  10.545  1.00  0.00     0.072 C 
HETATM   20  C   UNL     1      -0.365   4.998  10.349  1.00  0.00     0.009 C 
HETATM   21  C   UNL     1      -4.381   2.052  10.941  1.00  0.00     0.086 C 
HETATM   22  C   UNL     1      -0.409   6.310   9.853  1.00  0.00     0.013 C 
ENDROOT
BRANCH  10  23
HETATM   23  O   UNL     1      -0.556   4.190   8.087  1.00  0.00    -0.358 OA
ATOM     24  HO  UNL     1      -1.502   4.237   8.011  1.00  0.00     0.213 HD
ENDBRANCH  10  23
BRANCH  10  25
HETATM   25  O   UNL     1       0.807   3.146   9.374  1.00  0.00    -0.358 OA
ATOM     26  HO  UNL     1       0.535   2.253   9.549  1.00  0.00     0.213 HD
ENDBRANCH  10  25
BRANCH   3  27
HETATM   27  O   UNL     1      -3.220   3.375   8.239  1.00  0.00    -0.358 OA
ATOM     28  HO  UNL     1      -3.188   4.234   7.835  1.00  0.00     0.217 HD
ENDBRANCH   3  27
BRANCH  21  29
HETATM   29  O   UNL     1      -5.722   1.834  10.807  1.00  0.00    -0.359 OA
ATOM     30  HO  UNL     1      -6.342   2.516  11.039  1.00  0.00     0.217 HD
ENDBRANCH  21  29
BRANCH  14  31
HETATM   31  O   UNL     1      -3.214   8.755  11.852  1.00  0.00    -0.385 OA
ATOM     32  HO  UNL     1      -4.071   9.055  12.132  1.00  0.00     0.211 HD
ENDBRANCH  14  31
TORSDOF 5
ENDMDL
MODEL 8
REMARK VINA RESULT:      -7.0      1.587      2.192
REMARK  5 active torsions:
REMARK  status: ('A' for Active; 'I' for Inactive)
REMARK    1  A    between atoms: C_3  and  O_28 
REMARK    2  A    between atoms: O_7  and  C_12 
REMARK    3  A    between atoms: C_12  and  O_19 
REMARK    4  A    between atoms: C_16  and  O_21 
REMARK    5  A    between atoms: O_23  and  C_31 
ROOT
HETATM    1  C   UNL     1      -2.452   4.892  14.806  1.00  0.00     0.093 C 
HETATM    2  C   UNL     1      -4.104   3.112  13.152  1.00  0.00    -0.017 C 
HETATM    3  C   UNL     1      -1.185   6.218  11.826  1.00  0.00     0.098 C 
HETATM    4  C   UNL     1      -6.014   4.721  13.315  1.00  0.00     0.044 C 
HETATM    5  C   UNL     1      -3.658   4.236  15.375  1.00  0.00     0.036 C 
HETATM    6  C   UNL     1      -6.000   4.452  14.830  1.00  0.00    -0.007 C 
HETATM    7  C   UNL     1      -4.834   4.152  12.581  1.00  0.00    -0.048 C 
HETATM    8  C   UNL     1      -5.676   2.960  15.015  1.00  0.00     0.048 C 
HETATM    9  C   UNL     1      -2.723   7.417  10.448  1.00  0.00     0.016 C 
HETATM   10  C   UNL     1      -2.349   4.991   9.970  1.00  0.00     0.221 C 
HETATM   11  C   UNL     1      -2.203   8.930  12.374  1.00  0.00     0.038 C 
HETATM   12  C   UNL     1      -4.826   5.202  15.470  1.00  0.00     0.014 C 
HETATM   13  C   UNL     1      -4.440   4.667  11.353  1.00  0.00     0.020 C 
HETATM   14  C   UNL     1      -4.183   2.985  14.660  1.00  0.00     0.090 C 
HETATM   15  C   UNL     1      -3.304   2.308  12.338  1.00  0.00     0.011 C 
HETATM   16  C   UNL     1      -2.641   8.595  11.121  1.00  0.00     0.004 C 
HETATM   17  C   UNL     1      -2.084   6.240  10.758  1.00  0.00     0.043 C 
HETATM   18  C   UNL     1      -2.005   5.890  14.131  1.00  0.00    -0.138 C 
HETATM   19  C   UNL     1      -1.567   6.723  13.075  1.00  0.00     0.072 C 
HETATM   20  C   UNL     1      -3.296   4.119  10.765  1.00  0.00     0.009 C 
HETATM   21  C   UNL     1      -1.520   8.100  13.247  1.00  0.00     0.086 C 
HETATM   22  C   UNL     1      -2.975   2.787  11.067  1.00  0.00     0.013 C 
ENDROOT
BRANCH  10  23
HETATM   23  O   UNL     1      -1.173   4.324   9.646  1.00  0.00    -0.358 OA
ATOM     24  HO  UNL     1      -1.103   4.527   8.721  1.00  0.00     0.213 HD
ENDBRANCH  10  23
BRANCH  10  25
HETATM   25  O   UNL     1      -2.858   5.255   8.699  1.00  0.00    -0.358 OA
ATOM     26  HO  UNL     1      -2.225   4.801   8.156  1.00  0.00     0.213 HD
ENDBRANCH  10  25
BRANCH   3  27
HETATM   27  O   UNL     1       0.102   5.846  11.605  1.00  0.00    -0.358 OA
ATOM     28  HO  UNL     1       0.696   5.761  12.342  1.00  0.00     0.217 HD
ENDBRANCH   3  27
BRANCH  21  29
HETATM   29  O   UNL     1      -0.715   8.633  14.213  1.00  0.00    -0.359 OA
ATOM     30  HO  UNL     1      -1.071   9.244  14.847  1.00  0.00     0.217 HD
ENDBRANCH  21  29
BRANCH  14  31
HETATM   31  O   UNL     1      -3.543   1.819  15.140  1.00  0.00    -0.385 OA
ATOM     32  HO  UNL     1      -2.926   2.004  15.838  1.00  0.00     0.211 HD
ENDBRANCH  14  31
TORSDOF 5
ENDMDL
MODEL 9
REMARK VINA RESULT:      -6.8      2.681      3.643
REMARK  5 active torsions:
REMARK  status: ('A' for Active; 'I' for Inactive)
REMARK    1  A    between atoms: C_3  and  O_28 
REMARK    2  A    between atoms: O_7  and  C_12 
REMARK    3  A    between atoms: C_12  and  O_19 
REMARK    4  A    between atoms: C_16  and  O_21 
REMARK    5  A    between atoms: O_23  and  C_31 
ROOT
HETATM    1  C   UNL     1      -3.307   6.622  13.175  1.00  0.00     0.093 C 
HETATM    2  C   UNL     1      -2.697   3.777  12.762  1.00  0.00    -0.017 C 
HETATM    3  C   UNL     1      -3.483   6.922   9.693  1.00  0.00     0.098 C 
HETATM    4  C   UNL     1      -5.116   3.207  13.058  1.00  0.00     0.044 C 
HETATM    5  C   UNL     1      -3.496   5.641  14.276  1.00  0.00     0.036 C 
HETATM    6  C   UNL     1      -4.981   3.749  14.492  1.00  0.00    -0.007 C 
HETATM    7  C   UNL     1      -3.930   3.492  12.181  1.00  0.00    -0.048 C 
HETATM    8  C   UNL     1      -3.587   3.338  14.995  1.00  0.00     0.048 C 
HETATM    9  C   UNL     1      -5.260   5.754   8.607  1.00  0.00     0.016 C 
HETATM   10  C   UNL     1      -3.034   4.629   8.776  1.00  0.00     0.221 C 
HETATM   11  C   UNL     1      -6.317   7.735   9.714  1.00  0.00     0.038 C 
HETATM   12  C   UNL     1      -4.960   5.282  14.458  1.00  0.00     0.014 C 
HETATM   13  C   UNL     1      -4.050   3.504  10.798  1.00  0.00     0.020 C 
HETATM   14  C   UNL     1      -2.730   4.316  14.179  1.00  0.00     0.090 C 
HETATM   15  C   UNL     1      -1.531   3.625  12.009  1.00  0.00     0.011 C 
HETATM   16  C   UNL     1      -6.217   6.692   8.833  1.00  0.00     0.004 C 
HETATM   17  C   UNL     1      -3.951   5.789   9.024  1.00  0.00     0.043 C 
HETATM   18  C   UNL     1      -3.826   7.154  12.127  1.00  0.00    -0.138 C 
HETATM   19  C   UNL     1      -4.191   7.431  10.789  1.00  0.00     0.072 C 
HETATM   20  C   UNL     1      -2.912   3.835  10.059  1.00  0.00     0.009 C 
HETATM   21  C   UNL     1      -5.300   8.221  10.519  1.00  0.00     0.086 C 
HETATM   22  C   UNL     1      -1.658   3.551  10.620  1.00  0.00     0.013 C 
ENDROOT
BRANCH  10  23
HETATM   23  O   UNL     1      -1.795   5.040   8.297  1.00  0.00    -0.358 OA
ATOM     24  HO  UNL     1      -1.613   4.356   7.663  1.00  0.00     0.213 HD
ENDBRANCH  10  23
BRANCH  10  25
HETATM   25  O   UNL     1      -3.464   3.819   7.724  1.00  0.00    -0.358 OA
ATOM     26  HO  UNL     1      -3.702   3.029   8.194  1.00  0.00     0.213 HD
ENDBRANCH  10  25
BRANCH   3  27
HETATM   27  O   UNL     1      -2.429   7.608   9.184  1.00  0.00    -0.358 OA
ATOM     28  HO  UNL     1      -2.297   7.630   8.243  1.00  0.00     0.217 HD
ENDBRANCH   3  27
BRANCH  21  29
HETATM   29  O   UNL     1      -5.334   9.513  10.963  1.00  0.00    -0.359 OA
ATOM     30  HO  UNL     1      -6.111   9.849  11.394  1.00  0.00     0.217 HD
ENDBRANCH  21  29
BRANCH  14  31
HETATM   31  O   UNL     1      -1.440   4.432  14.746  1.00  0.00    -0.385 OA
ATOM     32  HO  UNL     1      -1.397   4.084  15.628  1.00  0.00     0.211 HD
ENDBRANCH  14  31
TORSDOF 5
ENDMDL
