MODEL 1
REMARK VINA RESULT:      -9.9      0.000      0.000
REMARK  6 active torsions:
REMARK  status: ('A' for Active; 'I' for Inactive)
REMARK    1  A    between atoms: C_8  and  C_18 
REMARK    2  A    between atoms: C_8  and  C_35 
REMARK    3  A    between atoms: O_10  and  C_30 
REMARK    4  A    between atoms: C_13  and  C_26 
REMARK    5  A    between atoms: C_21  and  C_25 
REMARK    6  A    between atoms: O_22  and  C_36 
ROOT
HETATM    1  N   UNL     1       9.705  44.629  53.520  1.00  0.00    -0.338 N 
ATOM      2  HN  UNL     1       9.525  44.904  54.485  1.00  0.00     0.167 HD
HETATM    3  C   UNL     1       9.742  45.767  49.679  1.00  0.00    -0.032 C 
HETATM    4  C   UNL     1      10.537  46.747  49.123  1.00  0.00     0.045 C 
HETATM    5  C   UNL     1       8.732  44.359  52.617  1.00  0.00     0.116 C 
HETATM    6  C   UNL     1       9.962  45.002  50.839  1.00  0.00     0.052 C 
HETATM    7  C   UNL     1      10.927  44.493  53.002  1.00  0.00     0.098 C 
HETATM    8  C   UNL     1      12.336  45.551  51.244  1.00  0.00     0.019 C 
HETATM    9  C   UNL     1       8.450  45.553  48.935  1.00  0.00     0.050 C 
HETATM   10  C   UNL     1      11.739  47.248  49.554  1.00  0.00     0.066 C 
HETATM   11  C   UNL     1      12.625  46.505  50.309  1.00  0.00     0.037 C 
HETATM   12  C   UNL     1      11.118  45.032  51.672  1.00  0.00     0.022 C 
HETATM   13  N   UNL     1       8.968  44.187  51.297  1.00  0.00    -0.341 N 
ATOM     14  HN  UNL     1       8.462  43.524  50.711  1.00  0.00     0.167 HD
ENDROOT
BRANCH   7  15
HETATM   15  C   UNL     1      12.011  43.816  53.786  1.00  0.00     0.212 C 
HETATM   16  O   UNL     1      11.925  42.626  54.028  1.00  0.00    -0.285 OA
BRANCH  15  17
HETATM   17  C   UNL     1      13.182  44.600  54.291  1.00  0.00     0.051 C 
HETATM   18  C   UNL     1      14.483  44.242  53.933  1.00  0.00     0.036 C 
HETATM   19  C   UNL     1      15.552  45.014  54.422  1.00  0.00     0.041 C 
HETATM   20  C   UNL     1      15.311  46.333  54.841  1.00  0.00     0.021 C 
HETATM   21  C   UNL     1      14.020  46.706  55.202  1.00  0.00     0.038 C 
HETATM   22  C   UNL     1      13.017  45.732  55.126  1.00  0.00     0.080 C 
BRANCH  19  23
HETATM   23  C   UNL     1      16.915  44.440  54.429  1.00  0.00     0.209 C 
HETATM   24  O   UNL     1      17.774  44.934  53.668  1.00  0.00    -0.644 OA
HETATM   25  O   UNL     1      17.165  43.500  55.221  1.00  0.00    -0.644 OA
ENDBRANCH  19  23
BRANCH  22  26
HETATM   26  O   UNL     1      11.965  45.803  55.953  1.00  0.00    -0.360 OA
ATOM     27  HO  UNL     1      11.123  45.465  55.670  1.00  0.00     0.217 HD
ENDBRANCH  22  26
ENDBRANCH  15  17
ENDBRANCH   7  15
BRANCH   5  28
HETATM   28  C   UNL     1       7.396  44.222  53.053  1.00  0.00     0.008 C 
HETATM   29  C   UNL     1       7.074  44.516  54.366  1.00  0.00     0.015 C 
HETATM   30  C   UNL     1       5.931  45.153  54.800  1.00  0.00     0.001 C 
HETATM   31  C   UNL     1       4.849  45.585  54.076  1.00  0.00     0.000 C 
HETATM   32  C   UNL     1       4.532  45.250  52.777  1.00  0.00     0.000 C 
HETATM   33  C   UNL     1       5.201  44.400  51.929  1.00  0.00     0.001 C 
HETATM   34  C   UNL     1       6.454  43.850  52.093  1.00  0.00     0.015 C 
ENDBRANCH   5  28
BRANCH  10  35
HETATM   35  O   UNL     1      12.125  48.501  49.203  1.00  0.00    -0.361 OA
ATOM     36  HO  UNL     1      11.480  49.147  48.942  1.00  0.00     0.217 HD
ENDBRANCH  10  35
TORSDOF 6
ENDMDL
MODEL 2
REMARK VINA RESULT:      -9.8      1.775      2.717
REMARK  6 active torsions:
REMARK  status: ('A' for Active; 'I' for Inactive)
REMARK    1  A    between atoms: C_8  and  C_18 
REMARK    2  A    between atoms: C_8  and  C_35 
REMARK    3  A    between atoms: O_10  and  C_30 
REMARK    4  A    between atoms: C_13  and  C_26 
REMARK    5  A    between atoms: C_21  and  C_25 
REMARK    6  A    between atoms: O_22  and  C_36 
ROOT
HETATM    1  N   UNL     1       9.600  46.685  51.847  1.00  0.00    -0.338 N 
ATOM      2  HN  UNL     1       9.090  47.271  52.508  1.00  0.00     0.167 HD
HETATM    3  C   UNL     1       9.809  45.292  48.097  1.00  0.00    -0.032 C 
HETATM    4  C   UNL     1       9.992  46.041  46.954  1.00  0.00     0.045 C 
HETATM    5  C   UNL     1       9.184  45.460  51.446  1.00  0.00     0.116 C 
HETATM    6  C   UNL     1      10.170  45.595  49.422  1.00  0.00     0.052 C 
HETATM    7  C   UNL     1      10.754  47.038  51.278  1.00  0.00     0.098 C 
HETATM    8  C   UNL     1      11.638  47.538  49.006  1.00  0.00     0.019 C 
HETATM    9  C   UNL     1       9.074  43.998  47.852  1.00  0.00     0.050 C 
HETATM   10  C   UNL     1      10.558  47.280  46.802  1.00  0.00     0.066 C 
HETATM   11  C   UNL     1      11.520  47.768  47.664  1.00  0.00     0.037 C 
HETATM   12  C   UNL     1      10.883  46.747  49.866  1.00  0.00     0.022 C 
HETATM   13  N   UNL     1       9.756  44.775  50.430  1.00  0.00    -0.341 N 
ATOM     14  HN  UNL     1       9.865  43.761  50.419  1.00  0.00     0.167 HD
ENDROOT
BRANCH   7  15
HETATM   15  C   UNL     1      11.828  47.697  52.091  1.00  0.00     0.212 C 
HETATM   16  O   UNL     1      12.061  48.882  51.932  1.00  0.00    -0.285 OA
BRANCH  15  17
HETATM   17  C   UNL     1      12.625  46.903  53.079  1.00  0.00     0.051 C 
HETATM   18  C   UNL     1      12.914  45.559  52.840  1.00  0.00     0.036 C 
HETATM   19  C   UNL     1      13.676  44.856  53.790  1.00  0.00     0.041 C 
HETATM   20  C   UNL     1      14.498  45.570  54.677  1.00  0.00     0.021 C 
HETATM   21  C   UNL     1      14.222  46.911  54.927  1.00  0.00     0.038 C 
HETATM   22  C   UNL     1      13.127  47.483  54.270  1.00  0.00     0.080 C 
BRANCH  19  23
HETATM   23  C   UNL     1      13.639  43.376  53.796  1.00  0.00     0.209 C 
HETATM   24  O   UNL     1      14.607  42.754  53.312  1.00  0.00    -0.644 OA
HETATM   25  O   UNL     1      12.649  42.804  54.314  1.00  0.00    -0.644 OA
ENDBRANCH  19  23
BRANCH  22  26
HETATM   26  O   UNL     1      12.466  48.496  54.848  1.00  0.00    -0.360 OA
ATOM     27  HO  UNL     1      11.713  48.875  54.409  1.00  0.00     0.217 HD
ENDBRANCH  22  26
ENDBRANCH  15  17
ENDBRANCH   7  15
BRANCH   5  28
HETATM   28  C   UNL     1       8.115  44.831  52.121  1.00  0.00     0.008 C 
HETATM   29  C   UNL     1       8.221  44.578  53.478  1.00  0.00     0.015 C 
HETATM   30  C   UNL     1       7.212  44.703  54.409  1.00  0.00     0.001 C 
HETATM   31  C   UNL     1       5.896  45.041  54.225  1.00  0.00     0.000 C 
HETATM   32  C   UNL     1       5.208  45.081  53.031  1.00  0.00     0.000 C 
HETATM   33  C   UNL     1       5.668  44.771  51.773  1.00  0.00     0.001 C 
HETATM   34  C   UNL     1       6.970  44.558  51.373  1.00  0.00     0.015 C 
ENDBRANCH   5  28
BRANCH  10  35
HETATM   35  O   UNL     1      10.218  48.065  45.748  1.00  0.00    -0.361 OA
ATOM     36  HO  UNL     1       9.787  48.899  45.890  1.00  0.00     0.217 HD
ENDBRANCH  10  35
TORSDOF 6
ENDMDL
MODEL 3
REMARK VINA RESULT:      -9.6      1.217      2.003
REMARK  6 active torsions:
REMARK  status: ('A' for Active; 'I' for Inactive)
REMARK    1  A    between atoms: C_8  and  C_18 
REMARK    2  A    between atoms: C_8  and  C_35 
REMARK    3  A    between atoms: O_10  and  C_30 
REMARK    4  A    between atoms: C_13  and  C_26 
REMARK    5  A    between atoms: C_21  and  C_25 
REMARK    6  A    between atoms: O_22  and  C_36 
ROOT
HETATM    1  N   UNL     1       9.635  44.445  53.320  1.00  0.00    -0.338 N 
ATOM      2  HN  UNL     1       9.517  44.737  54.290  1.00  0.00     0.167 HD
HETATM    3  C   UNL     1       9.533  45.549  49.470  1.00  0.00    -0.032 C 
HETATM    4  C   UNL     1      10.345  46.485  48.865  1.00  0.00     0.045 C 
HETATM    5  C   UNL     1       8.605  44.216  52.470  1.00  0.00     0.116 C 
HETATM    6  C   UNL     1       9.773  44.783  50.625  1.00  0.00     0.052 C 
HETATM    7  C   UNL     1      10.820  44.246  52.743  1.00  0.00     0.098 C 
HETATM    8  C   UNL     1      12.189  45.219  50.906  1.00  0.00     0.019 C 
HETATM    9  C   UNL     1       8.196  45.392  48.794  1.00  0.00     0.050 C 
HETATM   10  C   UNL     1      11.590  46.930  49.230  1.00  0.00     0.066 C 
HETATM   11  C   UNL     1      12.475  46.151  49.947  1.00  0.00     0.037 C 
HETATM   12  C   UNL     1      10.970  44.764  51.399  1.00  0.00     0.022 C 
HETATM   13  N   UNL     1       8.766  44.022  51.142  1.00  0.00    -0.341 N 
ATOM     14  HN  UNL     1       8.199  43.379  50.588  1.00  0.00     0.167 HD
ENDROOT
BRANCH   7  15
HETATM   15  C   UNL     1      11.909  43.523  53.479  1.00  0.00     0.212 C 
HETATM   16  O   UNL     1      11.725  42.380  53.855  1.00  0.00    -0.285 OA
BRANCH  15  17
HETATM   17  C   UNL     1      13.208  44.208  53.772  1.00  0.00     0.051 C 
HETATM   18  C   UNL     1      13.227  45.459  54.390  1.00  0.00     0.036 C 
HETATM   19  C   UNL     1      14.471  46.059  54.656  1.00  0.00     0.041 C 
HETATM   20  C   UNL     1      15.619  45.253  54.738  1.00  0.00     0.021 C 
HETATM   21  C   UNL     1      15.616  44.004  54.126  1.00  0.00     0.038 C 
HETATM   22  C   UNL     1      14.453  43.611  53.453  1.00  0.00     0.080 C 
BRANCH  19  23
HETATM   23  C   UNL     1      14.533  47.517  54.901  1.00  0.00     0.209 C 
HETATM   24  O   UNL     1      13.486  48.110  55.233  1.00  0.00    -0.644 OA
HETATM   25  O   UNL     1      15.643  48.094  54.796  1.00  0.00    -0.644 OA
ENDBRANCH  19  23
BRANCH  22  26
HETATM   26  O   UNL     1      14.544  42.775  52.410  1.00  0.00    -0.360 OA
ATOM     27  HO  UNL     1      14.446  41.840  52.550  1.00  0.00     0.217 HD
ENDBRANCH  22  26
ENDBRANCH  15  17
ENDBRANCH   7  15
BRANCH   5  28
HETATM   28  C   UNL     1       7.288  44.147  52.973  1.00  0.00     0.008 C 
HETATM   29  C   UNL     1       7.050  44.452  54.302  1.00  0.00     0.015 C 
HETATM   30  C   UNL     1       5.965  45.147  54.795  1.00  0.00     0.001 C 
HETATM   31  C   UNL     1       4.873  45.639  54.128  1.00  0.00     0.000 C 
HETATM   32  C   UNL     1       4.472  45.328  52.847  1.00  0.00     0.000 C 
HETATM   33  C   UNL     1       5.051  44.447  51.964  1.00  0.00     0.001 C 
HETATM   34  C   UNL     1       6.280  43.831  52.062  1.00  0.00     0.015 C 
ENDBRANCH   5  28
BRANCH  10  35
HETATM   35  O   UNL     1      12.018  48.159  48.847  1.00  0.00    -0.361 OA
ATOM     36  HO  UNL     1      12.154  48.355  47.927  1.00  0.00     0.217 HD
ENDBRANCH  10  35
TORSDOF 6
ENDMDL
MODEL 4
REMARK VINA RESULT:      -9.0      2.541      5.556
REMARK  6 active torsions:
REMARK  status: ('A' for Active; 'I' for Inactive)
REMARK    1  A    between atoms: C_8  and  C_18 
REMARK    2  A    between atoms: C_8  and  C_35 
REMARK    3  A    between atoms: O_10  and  C_30 
REMARK    4  A    between atoms: C_13  and  C_26 
REMARK    5  A    between atoms: C_21  and  C_25 
REMARK    6  A    between atoms: O_22  and  C_36 
ROOT
HETATM    1  N   UNL     1      12.249  46.492  49.674  1.00  0.00    -0.338 N 
ATOM      2  HN  UNL     1      13.207  46.202  49.480  1.00  0.00     0.167 HD
HETATM    3  C   UNL     1       8.425  45.350  50.021  1.00  0.00    -0.032 C 
HETATM    4  C   UNL     1       7.915  44.465  50.947  1.00  0.00     0.045 C 
HETATM    5  C   UNL     1      11.299  46.645  48.720  1.00  0.00     0.116 C 
HETATM    6  C   UNL     1       9.586  46.140  50.097  1.00  0.00     0.052 C 
HETATM    7  C   UNL     1      11.786  46.764  50.894  1.00  0.00     0.098 C 
HETATM    8  C   UNL     1      10.106  45.867  52.496  1.00  0.00     0.019 C 
HETATM    9  C   UNL     1       7.619  45.413  48.749  1.00  0.00     0.050 C 
HETATM   10  C   UNL     1       8.406  44.107  52.177  1.00  0.00     0.066 C 
HETATM   11  C   UNL     1       9.194  44.948  52.936  1.00  0.00     0.037 C 
HETATM   12  C   UNL     1      10.472  46.245  51.208  1.00  0.00     0.022 C 
HETATM   13  N   UNL     1       9.990  46.838  48.996  1.00  0.00    -0.341 N 
ATOM     14  HN  UNL     1       9.375  47.437  48.446  1.00  0.00     0.167 HD
ENDROOT
BRANCH   7  15
HETATM   15  C   UNL     1      12.614  47.564  51.856  1.00  0.00     0.212 C 
HETATM   16  O   UNL     1      12.683  48.772  51.730  1.00  0.00    -0.285 OA
BRANCH  15  17
HETATM   17  C   UNL     1      13.371  46.881  52.953  1.00  0.00     0.051 C 
HETATM   18  C   UNL     1      13.986  45.648  52.730  1.00  0.00     0.036 C 
HETATM   19  C   UNL     1      14.695  45.050  53.786  1.00  0.00     0.041 C 
HETATM   20  C   UNL     1      15.163  45.850  54.841  1.00  0.00     0.021 C 
HETATM   21  C   UNL     1      14.558  47.081  55.078  1.00  0.00     0.038 C 
HETATM   22  C   UNL     1      13.504  47.460  54.239  1.00  0.00     0.080 C 
BRANCH  19  23
HETATM   23  C   UNL     1      14.984  43.599  53.733  1.00  0.00     0.209 C 
HETATM   24  O   UNL     1      15.986  43.214  53.095  1.00  0.00    -0.644 OA
HETATM   25  O   UNL     1      14.229  42.815  54.357  1.00  0.00    -0.644 OA
ENDBRANCH  19  23
BRANCH  22  26
HETATM   26  O   UNL     1      12.541  48.264  54.711  1.00  0.00    -0.360 OA
ATOM     27  HO  UNL     1      12.228  48.147  55.601  1.00  0.00     0.217 HD
ENDBRANCH  22  26
ENDBRANCH  15  17
ENDBRANCH   7  15
BRANCH   5  28
HETATM   28  C   UNL     1      11.671  46.631  47.358  1.00  0.00     0.008 C 
HETATM   29  C   UNL     1      12.898  46.103  46.992  1.00  0.00     0.015 C 
HETATM   30  C   UNL     1      13.152  45.338  45.873  1.00  0.00     0.001 C 
HETATM   31  C   UNL     1      12.304  44.971  44.860  1.00  0.00     0.000 C 
HETATM   32  C   UNL     1      11.061  45.499  44.585  1.00  0.00     0.000 C 
HETATM   33  C   UNL     1      10.405  46.517  45.237  1.00  0.00     0.001 C 
HETATM   34  C   UNL     1      10.731  47.102  46.442  1.00  0.00     0.015 C 
ENDBRANCH   5  28
BRANCH  10  35
HETATM   35  O   UNL     1       8.085  42.905  52.719  1.00  0.00    -0.361 OA
ATOM     36  HO  UNL     1       8.442  42.647  53.561  1.00  0.00     0.217 HD
ENDBRANCH  10  35
TORSDOF 6
ENDMDL
MODEL 5
REMARK VINA RESULT:      -8.8      2.890      5.599
REMARK  6 active torsions:
REMARK  status: ('A' for Active; 'I' for Inactive)
REMARK    1  A    between atoms: C_8  and  C_18 
REMARK    2  A    between atoms: C_8  and  C_35 
REMARK    3  A    between atoms: O_10  and  C_30 
REMARK    4  A    between atoms: C_13  and  C_26 
REMARK    5  A    between atoms: C_21  and  C_25 
REMARK    6  A    between atoms: O_22  and  C_36 
ROOT
HETATM    1  N   UNL     1      11.891  46.948  49.373  1.00  0.00    -0.338 N 
ATOM      2  HN  UNL     1      12.481  46.877  48.544  1.00  0.00     0.167 HD
HETATM    3  C   UNL     1       9.779  44.967  52.141  1.00  0.00    -0.032 C 
HETATM    4  C   UNL     1      10.275  44.072  53.065  1.00  0.00     0.045 C 
HETATM    5  C   UNL     1      10.546  46.787  49.360  1.00  0.00     0.116 C 
HETATM    6  C   UNL     1      10.443  46.014  51.477  1.00  0.00     0.052 C 
HETATM    7  C   UNL     1      12.356  47.210  50.595  1.00  0.00     0.098 C 
HETATM    8  C   UNL     1      12.521  46.086  52.810  1.00  0.00     0.019 C 
HETATM    9  C   UNL     1       8.333  44.724  51.791  1.00  0.00     0.050 C 
HETATM   10  C   UNL     1      11.544  43.951  53.571  1.00  0.00     0.066 C 
HETATM   11  C   UNL     1      12.413  45.020  53.659  1.00  0.00     0.037 C 
HETATM   12  C   UNL     1      11.794  46.424  51.673  1.00  0.00     0.022 C 
HETATM   13  N   UNL     1       9.797  46.687  50.481  1.00  0.00    -0.341 N 
ATOM     14  HN  UNL     1       8.857  47.071  50.572  1.00  0.00     0.167 HD
ENDROOT
BRANCH   7  15
HETATM   15  C   UNL     1      13.403  48.265  50.797  1.00  0.00     0.212 C 
HETATM   16  O   UNL     1      13.081  49.439  50.800  1.00  0.00    -0.285 OA
BRANCH  15  17
HETATM   17  C   UNL     1      14.840  47.882  50.970  1.00  0.00     0.051 C 
HETATM   18  C   UNL     1      15.499  47.136  49.992  1.00  0.00     0.036 C 
HETATM   19  C   UNL     1      16.852  46.809  50.194  1.00  0.00     0.041 C 
HETATM   20  C   UNL     1      17.622  47.583  51.078  1.00  0.00     0.021 C 
HETATM   21  C   UNL     1      16.979  48.331  52.060  1.00  0.00     0.038 C 
HETATM   22  C   UNL     1      15.582  48.273  52.112  1.00  0.00     0.080 C 
BRANCH  19  23
HETATM   23  C   UNL     1      17.448  45.694  49.424  1.00  0.00     0.209 C 
HETATM   24  O   UNL     1      16.789  45.197  48.488  1.00  0.00    -0.644 OA
HETATM   25  O   UNL     1      18.606  45.314  49.723  1.00  0.00    -0.644 OA
ENDBRANCH  19  23
BRANCH  22  26
HETATM   26  O   UNL     1      14.958  48.448  53.285  1.00  0.00    -0.360 OA
ATOM     27  HO  UNL     1      15.266  49.119  53.884  1.00  0.00     0.217 HD
ENDBRANCH  22  26
ENDBRANCH  15  17
ENDBRANCH   7  15
BRANCH   5  28
HETATM   28  C   UNL     1       9.862  46.740  48.126  1.00  0.00     0.008 C 
HETATM   29  C   UNL     1      10.323  47.498  47.062  1.00  0.00     0.015 C 
HETATM   30  C   UNL     1      10.354  47.108  45.740  1.00  0.00     0.001 C 
HETATM   31  C   UNL     1       9.905  45.946  45.166  1.00  0.00     0.000 C 
HETATM   32  C   UNL     1       9.079  45.002  45.737  1.00  0.00     0.000 C 
HETATM   33  C   UNL     1       8.502  45.019  46.985  1.00  0.00     0.001 C 
HETATM   34  C   UNL     1       8.779  45.865  48.037  1.00  0.00     0.015 C 
ENDBRANCH   5  28
BRANCH  10  35
HETATM   35  O   UNL     1      11.977  42.761  54.057  1.00  0.00    -0.361 OA
ATOM     36  HO  UNL     1      12.138  42.032  53.470  1.00  0.00     0.217 HD
ENDBRANCH  10  35
TORSDOF 6
ENDMDL
MODEL 6
REMARK VINA RESULT:      -8.8      3.285      7.312
REMARK  6 active torsions:
REMARK  status: ('A' for Active; 'I' for Inactive)
REMARK    1  A    between atoms: C_8  and  C_18 
REMARK    2  A    between atoms: C_8  and  C_35 
REMARK    3  A    between atoms: O_10  and  C_30 
REMARK    4  A    between atoms: C_13  and  C_26 
REMARK    5  A    between atoms: C_21  and  C_25 
REMARK    6  A    between atoms: O_22  and  C_36 
ROOT
HETATM    1  N   UNL     1      11.819  45.294  49.940  1.00  0.00    -0.338 N 
ATOM      2  HN  UNL     1      12.634  44.816  50.324  1.00  0.00     0.167 HD
HETATM    3  C   UNL     1      10.063  46.783  46.662  1.00  0.00    -0.032 C 
HETATM    4  C   UNL     1       9.663  46.070  45.552  1.00  0.00     0.045 C 
HETATM    5  C   UNL     1      11.808  46.602  49.587  1.00  0.00     0.116 C 
HETATM    6  C   UNL     1      10.245  46.336  47.983  1.00  0.00     0.052 C 
HETATM    7  C   UNL     1      10.642  44.704  49.729  1.00  0.00     0.098 C 
HETATM    8  C   UNL     1       9.164  44.120  47.814  1.00  0.00     0.019 C 
HETATM    9  C   UNL     1      10.382  48.225  46.363  1.00  0.00     0.050 C 
HETATM   10  C   UNL     1       9.352  44.739  45.432  1.00  0.00     0.066 C 
HETATM   11  C   UNL     1       8.865  43.993  46.486  1.00  0.00     0.037 C 
HETATM   12  C   UNL     1       9.983  45.026  48.481  1.00  0.00     0.022 C 
HETATM   13  N   UNL     1      10.795  47.180  48.903  1.00  0.00    -0.341 N 
ATOM     14  HN  UNL     1      10.479  48.137  49.056  1.00  0.00     0.167 HD
ENDROOT
BRANCH   7  15
HETATM   15  C   UNL     1      10.072  43.766  50.752  1.00  0.00     0.212 C 
HETATM   16  O   UNL     1      10.407  42.596  50.747  1.00  0.00    -0.285 OA
BRANCH  15  17
HETATM   17  C   UNL     1       9.079  44.257  51.759  1.00  0.00     0.051 C 
HETATM   18  C   UNL     1       7.709  44.147  51.517  1.00  0.00     0.036 C 
HETATM   19  C   UNL     1       6.813  44.612  52.496  1.00  0.00     0.041 C 
HETATM   20  C   UNL     1       7.251  44.734  53.825  1.00  0.00     0.021 C 
HETATM   21  C   UNL     1       8.614  44.846  54.083  1.00  0.00     0.038 C 
HETATM   22  C   UNL     1       9.486  44.830  52.989  1.00  0.00     0.080 C 
BRANCH  19  23
HETATM   23  C   UNL     1       5.414  44.906  52.116  1.00  0.00     0.209 C 
HETATM   24  O   UNL     1       4.664  45.433  52.964  1.00  0.00    -0.644 OA
HETATM   25  O   UNL     1       5.044  44.643  50.946  1.00  0.00    -0.644 OA
ENDBRANCH  19  23
BRANCH  22  26
HETATM   26  O   UNL     1      10.653  45.485  53.065  1.00  0.00    -0.360 OA
ATOM     27  HO  UNL     1      10.837  46.187  52.452  1.00  0.00     0.217 HD
ENDBRANCH  22  26
ENDBRANCH  15  17
ENDBRANCH   7  15
BRANCH   5  28
HETATM   28  C   UNL     1      12.886  47.434  49.961  1.00  0.00     0.008 C 
HETATM   29  C   UNL     1      12.959  47.915  51.257  1.00  0.00     0.015 C 
HETATM   30  C   UNL     1      14.105  48.049  52.011  1.00  0.00     0.001 C 
HETATM   31  C   UNL     1      15.409  47.802  51.662  1.00  0.00     0.000 C 
HETATM   32  C   UNL     1      15.906  47.612  50.391  1.00  0.00     0.000 C 
HETATM   33  C   UNL     1      15.227  47.650  49.196  1.00  0.00     0.001 C 
HETATM   34  C   UNL     1      13.864  47.671  48.994  1.00  0.00     0.015 C 
ENDBRANCH   5  28
BRANCH  10  35
HETATM   35  O   UNL     1       9.470  44.113  44.234  1.00  0.00    -0.361 OA
ATOM     36  HO  UNL     1       9.776  43.215  44.190  1.00  0.00     0.217 HD
ENDBRANCH  10  35
TORSDOF 6
ENDMDL
MODEL 7
REMARK VINA RESULT:      -8.8      2.927      6.045
REMARK  6 active torsions:
REMARK  status: ('A' for Active; 'I' for Inactive)
REMARK    1  A    between atoms: C_8  and  C_18 
REMARK    2  A    between atoms: C_8  and  C_35 
REMARK    3  A    between atoms: O_10  and  C_30 
REMARK    4  A    between atoms: C_13  and  C_26 
REMARK    5  A    between atoms: C_21  and  C_25 
REMARK    6  A    between atoms: O_22  and  C_36 
ROOT
HETATM    1  N   UNL     1      12.299  46.650  48.839  1.00  0.00    -0.338 N 
ATOM      2  HN  UNL     1      13.239  46.372  48.554  1.00  0.00     0.167 HD
HETATM    3  C   UNL     1       8.577  45.437  49.690  1.00  0.00    -0.032 C 
HETATM    4  C   UNL     1       8.204  44.599  50.719  1.00  0.00     0.045 C 
HETATM    5  C   UNL     1      11.243  46.720  47.993  1.00  0.00     0.116 C 
HETATM    6  C   UNL     1       9.714  46.259  49.585  1.00  0.00     0.052 C 
HETATM    7  C   UNL     1      11.969  46.986  50.086  1.00  0.00     0.098 C 
HETATM    8  C   UNL     1      10.510  46.150  51.921  1.00  0.00     0.019 C 
HETATM    9  C   UNL     1       7.632  45.400  48.517  1.00  0.00     0.050 C 
HETATM   10  C   UNL     1       8.842  44.330  51.903  1.00  0.00     0.066 C 
HETATM   11  C   UNL     1       9.683  45.237  52.515  1.00  0.00     0.037 C 
HETATM   12  C   UNL     1      10.716  46.455  50.579  1.00  0.00     0.022 C 
HETATM   13  N   UNL     1       9.969  46.896  48.406  1.00  0.00    -0.341 N 
ATOM     14  HN  UNL     1       9.276  47.444  47.895  1.00  0.00     0.167 HD
ENDROOT
BRANCH   7  15
HETATM   15  C   UNL     1      12.875  47.864  50.898  1.00  0.00     0.212 C 
HETATM   16  O   UNL     1      12.598  49.041  51.045  1.00  0.00    -0.285 OA
BRANCH  15  17
HETATM   17  C   UNL     1      14.124  47.307  51.507  1.00  0.00     0.051 C 
HETATM   18  C   UNL     1      14.086  46.677  52.752  1.00  0.00     0.036 C 
HETATM   19  C   UNL     1      15.282  46.159  53.279  1.00  0.00     0.041 C 
HETATM   20  C   UNL     1      16.345  45.862  52.411  1.00  0.00     0.021 C 
HETATM   21  C   UNL     1      16.398  46.483  51.166  1.00  0.00     0.038 C 
HETATM   22  C   UNL     1      15.373  47.381  50.844  1.00  0.00     0.080 C 
BRANCH  19  23
HETATM   23  C   UNL     1      15.372  45.882  54.731  1.00  0.00     0.209 C 
HETATM   24  O   UNL     1      14.802  46.662  55.522  1.00  0.00    -0.644 OA
HETATM   25  O   UNL     1      15.991  44.857  55.107  1.00  0.00    -0.644 OA
ENDBRANCH  19  23
BRANCH  22  26
HETATM   26  O   UNL     1      15.626  48.398  50.009  1.00  0.00    -0.360 OA
ATOM     27  HO  UNL     1      16.500  48.771  49.977  1.00  0.00     0.217 HD
ENDBRANCH  22  26
ENDBRANCH  15  17
ENDBRANCH   7  15
BRANCH   5  28
HETATM   28  C   UNL     1      11.459  46.629  46.600  1.00  0.00     0.008 C 
HETATM   29  C   UNL     1      12.699  46.235  46.127  1.00  0.00     0.015 C 
HETATM   30  C   UNL     1      12.932  45.411  45.047  1.00  0.00     0.001 C 
HETATM   31  C   UNL     1      12.036  44.845  44.176  1.00  0.00     0.000 C 
HETATM   32  C   UNL     1      10.708  45.179  44.017  1.00  0.00     0.000 C 
HETATM   33  C   UNL     1       9.993  46.158  44.666  1.00  0.00     0.001 C 
HETATM   34  C   UNL     1      10.366  46.888  45.774  1.00  0.00     0.015 C 
ENDBRANCH   5  28
BRANCH  10  35
HETATM   35  O   UNL     1       8.623  43.157  52.549  1.00  0.00    -0.361 OA
ATOM     36  HO  UNL     1       7.782  42.721  52.480  1.00  0.00     0.217 HD
ENDBRANCH  10  35
TORSDOF 6
ENDMDL
MODEL 8
REMARK VINA RESULT:      -8.6      2.130      3.649
REMARK  6 active torsions:
REMARK  status: ('A' for Active; 'I' for Inactive)
REMARK    1  A    between atoms: C_8  and  C_18 
REMARK    2  A    between atoms: C_8  and  C_35 
REMARK    3  A    between atoms: O_10  and  C_30 
REMARK    4  A    between atoms: C_13  and  C_26 
REMARK    5  A    between atoms: C_21  and  C_25 
REMARK    6  A    between atoms: O_22  and  C_36 
ROOT
HETATM    1  N   UNL     1       9.914  46.498  50.800  1.00  0.00    -0.338 N 
ATOM      2  HN  UNL     1       9.437  47.148  51.423  1.00  0.00     0.167 HD
HETATM    3  C   UNL     1       9.876  44.644  47.249  1.00  0.00    -0.032 C 
HETATM    4  C   UNL     1       9.939  45.247  46.010  1.00  0.00     0.045 C 
HETATM    5  C   UNL     1       9.515  45.220  50.591  1.00  0.00     0.116 C 
HETATM    6  C   UNL     1      10.330  45.124  48.490  1.00  0.00     0.052 C 
HETATM    7  C   UNL     1      11.005  46.807  50.097  1.00  0.00     0.098 C 
HETATM    8  C   UNL     1      11.685  47.038  47.714  1.00  0.00     0.019 C 
HETATM    9  C   UNL     1       9.175  43.311  47.229  1.00  0.00     0.050 C 
HETATM   10  C   UNL     1      10.443  46.472  45.658  1.00  0.00     0.066 C 
HETATM   11  C   UNL     1      11.452  47.092  46.368  1.00  0.00     0.037 C 
HETATM   12  C   UNL     1      11.032  46.342  48.726  1.00  0.00     0.022 C 
HETATM   13  N   UNL     1      10.029  44.428  49.624  1.00  0.00    -0.341 N 
ATOM     14  HN  UNL     1      10.176  43.424  49.730  1.00  0.00     0.167 HD
ENDROOT
BRANCH   7  15
HETATM   15  C   UNL     1      12.114  47.594  50.729  1.00  0.00     0.212 C 
HETATM   16  O   UNL     1      12.241  48.775  50.462  1.00  0.00    -0.285 OA
BRANCH  15  17
HETATM   17  C   UNL     1      13.076  46.931  51.665  1.00  0.00     0.051 C 
HETATM   18  C   UNL     1      12.834  46.918  53.039  1.00  0.00     0.036 C 
HETATM   19  C   UNL     1      13.759  46.273  53.879  1.00  0.00     0.041 C 
HETATM   20  C   UNL     1      14.611  45.295  53.340  1.00  0.00     0.021 C 
HETATM   21  C   UNL     1      14.864  45.296  51.972  1.00  0.00     0.038 C 
HETATM   22  C   UNL     1      14.245  46.283  51.196  1.00  0.00     0.080 C 
BRANCH  19  23
HETATM   23  C   UNL     1      13.773  46.596  55.323  1.00  0.00     0.209 C 
HETATM   24  O   UNL     1      12.701  46.524  55.960  1.00  0.00    -0.644 OA
HETATM   25  O   UNL     1      14.867  46.900  55.858  1.00  0.00    -0.644 OA
ENDBRANCH  19  23
BRANCH  22  26
HETATM   26  O   UNL     1      14.842  46.713  50.076  1.00  0.00    -0.360 OA
ATOM     27  HO  UNL     1      15.648  47.214  50.138  1.00  0.00     0.217 HD
ENDBRANCH  22  26
ENDBRANCH  15  17
ENDBRANCH   7  15
BRANCH   5  28
HETATM   28  C   UNL     1       8.528  44.653  51.427  1.00  0.00     0.008 C 
HETATM   29  C   UNL     1       8.804  44.454  52.769  1.00  0.00     0.015 C 
HETATM   30  C   UNL     1       7.928  44.649  53.816  1.00  0.00     0.001 C 
HETATM   31  C   UNL     1       6.607  45.018  53.787  1.00  0.00     0.000 C 
HETATM   32  C   UNL     1       5.771  45.028  52.691  1.00  0.00     0.000 C 
HETATM   33  C   UNL     1       6.056  44.652  51.400  1.00  0.00     0.001 C 
HETATM   34  C   UNL     1       7.289  44.383  50.846  1.00  0.00     0.015 C 
ENDBRANCH   5  28
BRANCH  10  35
HETATM   35  O   UNL     1       9.991  47.107  44.547  1.00  0.00    -0.361 OA
ATOM     36  HO  UNL     1      10.306  46.853  43.687  1.00  0.00     0.217 HD
ENDBRANCH  10  35
TORSDOF 6
ENDMDL
MODEL 9
REMARK VINA RESULT:      -8.5      3.024      6.503
REMARK  6 active torsions:
REMARK  status: ('A' for Active; 'I' for Inactive)
REMARK    1  A    between atoms: C_8  and  C_18 
REMARK    2  A    between atoms: C_8  and  C_35 
REMARK    3  A    between atoms: O_10  and  C_30 
REMARK    4  A    between atoms: C_13  and  C_26 
REMARK    5  A    between atoms: C_21  and  C_25 
REMARK    6  A    between atoms: O_22  and  C_36 
ROOT
HETATM    1  N   UNL     1       9.146  44.987  50.252  1.00  0.00    -0.338 N 
ATOM      2  HN  UNL     1       8.652  44.235  49.770  1.00  0.00     0.167 HD
HETATM    3  C   UNL     1      12.015  45.945  52.878  1.00  0.00    -0.032 C 
HETATM    4  C   UNL     1      13.363  45.688  52.748  1.00  0.00     0.045 C 
HETATM    5  C   UNL     1       8.937  45.318  51.549  1.00  0.00     0.116 C 
HETATM    6  C   UNL     1      11.037  46.073  51.876  1.00  0.00     0.052 C 
HETATM    7  C   UNL     1      10.071  45.756  49.677  1.00  0.00     0.098 C 
HETATM    8  C   UNL     1      12.505  46.226  49.895  1.00  0.00     0.019 C 
HETATM    9  C   UNL     1      11.562  46.048  54.312  1.00  0.00     0.050 C 
HETATM   10  C   UNL     1      14.108  45.476  51.616  1.00  0.00     0.066 C 
HETATM   11  C   UNL     1      13.760  46.006  50.389  1.00  0.00     0.037 C 
HETATM   12  C   UNL     1      11.252  46.030  50.467  1.00  0.00     0.022 C 
HETATM   13  N   UNL     1       9.724  46.177  52.234  1.00  0.00    -0.341 N 
ATOM     14  HN  UNL     1       9.378  46.828  52.938  1.00  0.00     0.167 HD
ENDROOT
BRANCH   7  15
HETATM   15  C   UNL     1       9.860  46.284  48.289  1.00  0.00     0.212 C 
HETATM   16  O   UNL     1       9.637  47.469  48.124  1.00  0.00    -0.285 OA
BRANCH  15  17
HETATM   17  C   UNL     1       9.901  45.358  47.113  1.00  0.00     0.051 C 
HETATM   18  C   UNL     1       9.837  43.976  47.295  1.00  0.00     0.036 C 
HETATM   19  C   UNL     1       9.867  43.146  46.160  1.00  0.00     0.041 C 
HETATM   20  C   UNL     1       9.499  43.675  44.912  1.00  0.00     0.021 C 
HETATM   21  C   UNL     1       9.560  45.051  44.714  1.00  0.00     0.038 C 
HETATM   22  C   UNL     1       9.987  45.844  45.785  1.00  0.00     0.080 C 
BRANCH  19  23
HETATM   23  C   UNL     1      10.228  41.720  46.317  1.00  0.00     0.209 C 
HETATM   24  O   UNL     1      10.526  41.065  45.296  1.00  0.00    -0.644 OA
HETATM   25  O   UNL     1      10.250  41.232  47.473  1.00  0.00    -0.644 OA
ENDBRANCH  19  23
BRANCH  22  26
HETATM   26  O   UNL     1      10.610  47.005  45.539  1.00  0.00    -0.360 OA
ATOM     27  HO  UNL     1      11.066  47.451  46.244  1.00  0.00     0.217 HD
ENDBRANCH  22  26
ENDBRANCH  15  17
ENDBRANCH   7  15
BRANCH   5  28
HETATM   28  C   UNL     1       7.833  44.771  52.239  1.00  0.00     0.008 C 
HETATM   29  C   UNL     1       7.928  44.537  53.600  1.00  0.00     0.015 C 
HETATM   30  C   UNL     1       6.932  44.743  54.531  1.00  0.00     0.001 C 
HETATM   31  C   UNL     1       5.638  45.159  54.343  1.00  0.00     0.000 C 
HETATM   32  C   UNL     1       4.950  45.219  53.150  1.00  0.00     0.000 C 
HETATM   33  C   UNL     1       5.386  44.857  51.897  1.00  0.00     0.001 C 
HETATM   34  C   UNL     1       6.670  44.555  51.498  1.00  0.00     0.015 C 
ENDBRANCH   5  28
BRANCH  10  35
HETATM   35  O   UNL     1      15.261  44.764  51.677  1.00  0.00    -0.361 OA
ATOM     36  HO  UNL     1      15.943  44.898  51.030  1.00  0.00     0.217 HD
ENDBRANCH  10  35
TORSDOF 6
ENDMDL
