REMARK  9 active torsions:
REMARK  status: ('A' for Active; 'I' for Inactive)
REMARK    1  A    between atoms: O_3  and  C_25 
REMARK    2  A    between atoms: C_5  and  C_18 
REMARK    3  A    between atoms: C_8  and  C_30 
REMARK    4  A    between atoms: C_9  and  C_18 
REMARK    5  A    between atoms: C_10  and  C_15 
REMARK    6  A    between atoms: C_11  and  O_42 
REMARK    7  A    between atoms: C_12  and  C_30 
REMARK    8  A    between atoms: C_30  and  C_31 
REMARK    9  A    between atoms: O_35  and  C_37 
ROOT
HETATM    1  C   UNL     1      20.329  30.318  15.317  1.00  0.00    -0.054 C 
HETATM    2  C   UNL     1      20.833  27.900  15.002  1.00  0.00     0.049 C 
HETATM    3  C   UNL     1      20.547  29.263  14.430  1.00  0.00    -0.045 C 
HETATM    4  C   UNL     1      19.597  30.030  16.615  1.00  0.00     0.049 C 
ENDROOT
BRANCH   3   5
HETATM    5  C   UNL     1      20.622  29.410  13.021  1.00  0.00    -0.019 C 
BRANCH   5   6
HETATM    6  C   UNL     1      19.470  29.353  12.231  1.00  0.00     0.016 C 
HETATM    7  C   UNL     1      18.793  28.392  11.581  1.00  0.00    -0.075 C 
HETATM    8  C   UNL     1      18.495  28.424  10.109  1.00  0.00     0.069 C 
HETATM    9  C   UNL     1      18.293  27.126  12.198  1.00  0.00     0.039 C 
HETATM   10  C   UNL     1      18.127  27.016   9.787  1.00  0.00    -0.066 C 
HETATM   11  C   UNL     1      18.012  26.440   8.491  1.00  0.00    -0.034 C 
HETATM   12  C   UNL     1      17.986  26.214  11.031  1.00  0.00     0.039 C 
HETATM   13  C   UNL     1      18.405  27.084   7.312  1.00  0.00     0.011 C 
HETATM   14  C   UNL     1      17.590  25.119   8.386  1.00  0.00     0.011 C 
HETATM   15  C   UNL     1      18.053  26.540   6.084  1.00  0.00     0.001 C 
HETATM   16  C   UNL     1      17.383  25.326   6.020  1.00  0.00     0.000 C 
HETATM   17  C   UNL     1      17.144  24.614   7.182  1.00  0.00     0.001 C 
ENDBRANCH   5   6
BRANCH   5  18
HETATM   18  C   UNL     1      21.924  29.521  12.476  1.00  0.00    -0.023 C 
HETATM   19  C   UNL     1      22.684  28.374  12.259  1.00  0.00     0.048 C 
HETATM   20  C   UNL     1      24.065  28.469  12.154  1.00  0.00     0.066 C 
HETATM   21  C   UNL     1      24.670  29.724  12.119  1.00  0.00     0.036 C 
HETATM   22  C   UNL     1      23.872  30.857  12.071  1.00  0.00     0.004 C 
HETATM   23  C   UNL     1      22.493  30.763  12.201  1.00  0.00     0.012 C 
BRANCH  20  24
HETATM   24  O   UNL     1      24.822  27.336  12.137  1.00  0.00    -0.361 OA
ATOM     25  HO  UNL     1      24.410  26.481  12.161  1.00  0.00     0.217 HD
ENDBRANCH  20  24
ENDBRANCH   5  18
ENDBRANCH   3   5
BRANCH   1  26
HETATM   26  C   UNL     1      20.769  31.621  15.100  1.00  0.00     0.020 C 
HETATM   27  C   UNL     1      20.045  32.791  15.347  1.00  0.00    -0.015 C 
BRANCH  27  28
HETATM   28  C   UNL     1      20.702  33.950  15.813  1.00  0.00    -0.022 C 
HETATM   29  C   UNL     1      20.276  35.202  15.360  1.00  0.00     0.015 C 
HETATM   30  C   UNL     1      20.975  36.348  15.710  1.00  0.00     0.040 C 
HETATM   31  C   UNL     1      22.156  36.250  16.419  1.00  0.00     0.098 C 
HETATM   32  C   UNL     1      22.667  34.976  16.727  1.00  0.00     0.099 C 
HETATM   33  C   UNL     1      21.817  33.869  16.655  1.00  0.00     0.051 C 
BRANCH  31  34
HETATM   34  O   UNL     1      22.793  37.357  16.862  1.00  0.00    -0.358 OA
ATOM     35  HO  UNL     1      22.448  38.217  16.654  1.00  0.00     0.217 HD
ENDBRANCH  31  34
BRANCH  32  36
HETATM   36  O   UNL     1      23.999  34.815  16.904  1.00  0.00    -0.358 OA
ATOM     37  HO  UNL     1      24.577  35.567  16.953  1.00  0.00     0.217 HD
ENDBRANCH  32  36
ENDBRANCH  27  28
BRANCH  27  38
HETATM   38  C   UNL     1      18.676  32.864  15.031  1.00  0.00    -0.025 A 
HETATM   39  C   UNL     1      18.281  32.980  13.707  1.00  0.00     0.012 A 
HETATM   40  C   UNL     1      16.937  33.070  13.381  1.00  0.00     0.001 A 
HETATM   41  C   UNL     1      15.966  32.921  14.353  1.00  0.00     0.000 A 
HETATM   42  C   UNL     1      16.342  32.802  15.678  1.00  0.00     0.001 A 
HETATM   43  C   UNL     1      17.692  32.812  16.017  1.00  0.00     0.012 A 
ENDBRANCH  27  38
ENDBRANCH   1  26
TORSDOF 9
