REMARK  2 active torsions:
REMARK  status: ('A' for Active; 'I' for Inactive)
REMARK    1  A    between atoms: C_1  and  O_6 
REMARK    2  A    between atoms: O_10  and  C_14 
ROOT
HETATM    1  C   UNL     1      65.320  35.477  10.122  1.00  0.00     0.114 C 
HETATM    2  C   UNL     1      67.446  35.640  11.616  1.00  0.00     0.014 C 
HETATM    3  C   UNL     1      65.207  36.175   8.756  1.00  0.00     0.062 C 
HETATM    4  C   UNL     1      66.351  32.784   7.940  1.00  0.00     0.008 C 
HETATM    5  C   UNL     1      66.754  35.790  10.445  1.00  0.00    -0.012 C 
HETATM    6  C   UNL     1      65.315  34.039   9.714  1.00  0.00    -0.012 C 
HETATM    7  C   UNL     1      65.275  32.929  10.533  1.00  0.00     0.011 C 
HETATM    8  C   UNL     1      66.412  35.398   8.161  1.00  0.00     0.056 C 
HETATM    9  C   UNL     1      68.793  35.803   9.162  1.00  0.00     0.045 C 
HETATM   10  C   UNL     1      69.492  35.658  10.354  1.00  0.00     0.066 C 
HETATM   11  C   UNL     1      67.427  35.746   9.222  1.00  0.00    -0.037 C 
HETATM   12  C   UNL     1      65.995  33.984   8.487  1.00  0.00    -0.040 C 
HETATM   13  C   UNL     1      65.819  31.749  10.055  1.00  0.00     0.001 C 
HETATM   14  C   UNL     1      68.823  35.443  11.551  1.00  0.00     0.037 C 
HETATM   15  C   UNL     1      66.313  31.673   8.764  1.00  0.00     0.001 C 
ENDROOT
BRANCH   1  16
HETATM   16  O   UNL     1      64.362  35.856  11.081  1.00  0.00    -0.380 OA
ATOM     17  HO  UNL     1      64.432  35.425  11.925  1.00  0.00     0.211 HD
ENDBRANCH   1  16
BRANCH  10  18
HETATM   18  O   UNL     1      70.837  35.770  10.338  1.00  0.00    -0.361 OA
ATOM     19  HO  UNL     1      71.315  35.671  11.153  1.00  0.00     0.217 HD
ENDBRANCH  10  18
TORSDOF 2
