REMARK  1 active torsions:
REMARK  status: ('A' for Active; 'I' for Inactive)
REMARK    1  A    between atoms: O_4  and  C_18 
ROOT
HETATM    1  C   UNL     1      21.738  94.660  43.731  1.00  0.00     0.052 C 
HETATM    2  C   UNL     1      21.654  92.256  43.087  1.00  0.00     0.005 C 
HETATM    3  C   UNL     1      18.582  98.190  45.940  1.00  0.00     0.009 C 
HETATM    4  C   UNL     1      19.569  95.873  43.864  1.00  0.00    -0.048 C 
HETATM    5  C   UNL     1      18.196  96.220  43.380  1.00  0.00     0.044 C 
HETATM    6  C   UNL     1      20.054  96.622  44.989  1.00  0.00    -0.069 C 
HETATM    7  C   UNL     1      19.096  96.765  46.124  1.00  0.00     0.015 C 
HETATM    8  C   UNL     1      20.311  94.759  43.416  1.00  0.00    -0.045 C 
HETATM    9  C   UNL     1      19.683  93.661  42.814  1.00  0.00     0.008 C 
HETATM   10  C   UNL     1      17.854  95.938  45.808  1.00  0.00     0.014 C 
HETATM   11  C   UNL     1      17.550  98.072  44.834  1.00  0.00     0.005 C 
HETATM   12  C   UNL     1      22.281  95.525  44.861  1.00  0.00     0.016 C 
HETATM   13  C   UNL     1      20.330  92.407  42.736  1.00  0.00    -0.001 C 
HETATM   14  C   UNL     1      21.535  96.820  45.055  1.00  0.00     0.036 C 
HETATM   15  C   UNL     1      17.304  96.591  44.576  1.00  0.00    -0.010 C 
HETATM   16  C   UNL     1      22.310  93.256  43.966  1.00  0.00     0.149 C 
ENDROOT
BRANCH  16  17
HETATM   17  O   UNL     1      23.682  93.320  43.581  1.00  0.00    -0.391 OA
ATOM     18  HO  UNL     1      24.036  92.451  43.727  1.00  0.00     0.210 HD
ENDBRANCH  16  17
TORSDOF 1
