MODEL 1
REMARK VINA RESULT:      -8.0      0.000      0.000
REMARK  3 active torsions:
REMARK  status: ('A' for Active; 'I' for Inactive)
REMARK    1  A    between atoms: O_6  and  C_16 
REMARK    2  A    between atoms: O_9  and  C_16 
REMARK    3  A    between atoms: C_11  and  C_14 
ROOT
HETATM    1  C   UNL     1      20.822  97.551  45.896  1.00  0.00     0.082 C 
HETATM    2  C   UNL     1      21.643  93.769  44.084  1.00  0.00     0.034 C 
HETATM    3  C   UNL     1      19.684  92.860  43.005  1.00  0.00     0.018 C 
HETATM    4  C   UNL     1      19.678  96.569  45.803  1.00  0.00     0.045 C 
HETATM    5  O   UNL     1      23.470  95.842  44.668  1.00  0.00    -0.286 OA
HETATM    6  C   UNL     1      21.261  95.012  44.553  1.00  0.00     0.023 C 
HETATM    7  C   UNL     1      20.916  92.694  43.630  1.00  0.00     0.041 C 
HETATM    8  C   UNL     1      18.708  93.692  43.514  1.00  0.00     0.002 C 
HETATM    9  C   UNL     1      21.739  97.487  44.672  1.00  0.00     0.227 C 
HETATM   10  C   UNL     1      22.287  96.079  44.491  1.00  0.00     0.221 C 
HETATM   11  C   UNL     1      19.932  95.390  44.888  1.00  0.00    -0.044 C 
HETATM   12  C   UNL     1      18.816  94.774  44.350  1.00  0.00     0.008 C 
ENDROOT
BRANCH   9  13
HETATM   13  O   UNL     1      22.819  98.390  44.836  1.00  0.00    -0.359 OA
ATOM     14  HO  UNL     1      23.270  98.503  44.008  1.00  0.00     0.213 HD
ENDBRANCH   9  13
BRANCH   9  15
HETATM   15  O   UNL     1      20.946  97.799  43.535  1.00  0.00    -0.359 OA
ATOM     16  HO  UNL     1      20.856  98.743  43.505  1.00  0.00     0.213 HD
ENDBRANCH   9  15
BRANCH   7  17
HETATM   17  C   UNL     1      21.504  91.302  43.722  1.00  0.00     0.209 C 
HETATM   18  O   UNL     1      21.568  90.585  42.714  1.00  0.00    -0.644 OA
HETATM   19  O   UNL     1      21.611  90.818  44.874  1.00  0.00    -0.644 OA
ENDBRANCH   7  17
TORSDOF 3
ENDMDL
MODEL 2
REMARK VINA RESULT:      -8.0      1.679      4.993
REMARK  3 active torsions:
REMARK  status: ('A' for Active; 'I' for Inactive)
REMARK    1  A    between atoms: O_6  and  C_16 
REMARK    2  A    between atoms: O_9  and  C_16 
REMARK    3  A    between atoms: C_11  and  C_14 
ROOT
HETATM    1  C   UNL     1      21.800  91.537  42.856  1.00  0.00     0.082 C 
HETATM    2  C   UNL     1      20.419  95.337  44.239  1.00  0.00     0.034 C 
HETATM    3  C   UNL     1      18.061  95.288  44.755  1.00  0.00     0.018 C 
HETATM    4  C   UNL     1      20.360  91.891  42.572  1.00  0.00     0.045 C 
HETATM    5  O   UNL     1      23.047  94.308  44.343  1.00  0.00    -0.286 OA
HETATM    6  C   UNL     1      20.745  94.041  43.884  1.00  0.00     0.023 C 
HETATM    7  C   UNL     1      19.210  95.977  44.377  1.00  0.00     0.041 C 
HETATM    8  C   UNL     1      17.703  94.085  44.181  1.00  0.00     0.002 C 
HETATM    9  C   UNL     1      22.265  92.055  44.219  1.00  0.00     0.227 C 
HETATM   10  C   UNL     1      22.082  93.563  44.306  1.00  0.00     0.221 C 
HETATM   11  C   UNL     1      19.841  93.087  43.342  1.00  0.00    -0.044 C 
HETATM   12  C   UNL     1      18.474  93.144  43.548  1.00  0.00     0.008 C 
ENDROOT
BRANCH   9  13
HETATM   13  O   UNL     1      23.633  91.740  44.410  1.00  0.00    -0.359 OA
ATOM     14  HO  UNL     1      23.932  92.096  45.238  1.00  0.00     0.213 HD
ENDBRANCH   9  13
BRANCH   9  15
HETATM   15  O   UNL     1      21.433  91.455  45.204  1.00  0.00    -0.359 OA
ATOM     16  HO  UNL     1      20.538  91.525  44.896  1.00  0.00     0.213 HD
ENDBRANCH   9  15
BRANCH   7  17
HETATM   17  C   UNL     1      19.136  97.480  44.210  1.00  0.00     0.209 C 
HETATM   18  O   UNL     1      18.234  98.125  44.761  1.00  0.00    -0.644 OA
HETATM   19  O   UNL     1      19.802  97.967  43.266  1.00  0.00    -0.644 OA
ENDBRANCH   7  17
TORSDOF 3
ENDMDL
MODEL 3
REMARK VINA RESULT:      -8.0      2.442      3.735
REMARK  3 active torsions:
REMARK  status: ('A' for Active; 'I' for Inactive)
REMARK    1  A    between atoms: O_6  and  C_16 
REMARK    2  A    between atoms: O_9  and  C_16 
REMARK    3  A    between atoms: C_11  and  C_14 
ROOT
HETATM    1  C   UNL     1      17.773  96.549  43.806  1.00  0.00     0.082 C 
HETATM    2  C   UNL     1      20.476  93.240  43.744  1.00  0.00     0.034 C 
HETATM    3  C   UNL     1      22.583  93.798  44.783  1.00  0.00     0.018 C 
HETATM    4  C   UNL     1      19.249  96.866  43.755  1.00  0.00     0.045 C 
HETATM    5  O   UNL     1      17.655  93.172  43.636  1.00  0.00    -0.286 OA
HETATM    6  C   UNL     1      19.680  94.359  43.902  1.00  0.00     0.023 C 
HETATM    7  C   UNL     1      21.830  93.046  43.885  1.00  0.00     0.041 C 
HETATM    8  C   UNL     1      22.463  95.169  44.875  1.00  0.00     0.002 C 
HETATM    9  C   UNL     1      17.476  95.319  44.668  1.00  0.00     0.227 C 
HETATM   10  C   UNL     1      18.241  94.110  44.151  1.00  0.00     0.221 C 
HETATM   11  C   UNL     1      20.157  95.691  44.048  1.00  0.00    -0.044 C 
HETATM   12  C   UNL     1      21.418  95.990  44.533  1.00  0.00     0.008 C 
ENDROOT
BRANCH   9  13
HETATM   13  O   UNL     1      16.087  95.038  44.639  1.00  0.00    -0.359 OA
ATOM     14  HO  UNL     1      15.702  95.241  45.482  1.00  0.00     0.213 HD
ENDBRANCH   9  13
BRANCH   9  15
HETATM   15  O   UNL     1      17.939  95.602  45.981  1.00  0.00    -0.359 OA
ATOM     16  HO  UNL     1      18.587  94.944  46.200  1.00  0.00     0.213 HD
ENDBRANCH   9  15
BRANCH   7  17
HETATM   17  C   UNL     1      22.509  91.928  43.122  1.00  0.00     0.209 C 
HETATM   18  O   UNL     1      21.848  90.965  42.710  1.00  0.00    -0.644 OA
HETATM   19  O   UNL     1      23.758  91.869  43.216  1.00  0.00    -0.644 OA
ENDBRANCH   7  17
TORSDOF 3
ENDMDL
MODEL 4
REMARK VINA RESULT:      -7.7      2.374      3.406
REMARK  3 active torsions:
REMARK  status: ('A' for Active; 'I' for Inactive)
REMARK    1  A    between atoms: O_6  and  C_16 
REMARK    2  A    between atoms: O_9  and  C_16 
REMARK    3  A    between atoms: C_11  and  C_14 
ROOT
HETATM    1  C   UNL     1      22.103  96.874  46.358  1.00  0.00     0.082 C 
HETATM    2  C   UNL     1      19.038  95.016  44.033  1.00  0.00     0.034 C 
HETATM    3  C   UNL     1      17.092  96.432  43.838  1.00  0.00     0.018 C 
HETATM    4  C   UNL     1      20.674  97.240  46.684  1.00  0.00     0.045 C 
HETATM    5  O   UNL     1      21.816  94.519  43.948  1.00  0.00    -0.286 OA
HETATM    6  C   UNL     1      19.967  95.762  44.733  1.00  0.00     0.023 C 
HETATM    7  C   UNL     1      17.684  95.173  43.846  1.00  0.00     0.041 C 
HETATM    8  C   UNL     1      17.377  97.384  44.796  1.00  0.00     0.002 C 
HETATM    9  C   UNL     1      22.318  96.669  44.857  1.00  0.00     0.227 C 
HETATM   10  C   UNL     1      21.382  95.593  44.327  1.00  0.00     0.221 C 
HETATM   11  C   UNL     1      19.660  96.807  45.647  1.00  0.00    -0.044 C 
HETATM   12  C   UNL     1      18.482  97.530  45.596  1.00  0.00     0.008 C 
ENDROOT
BRANCH   9  13
HETATM   13  O   UNL     1      23.659  96.280  44.615  1.00  0.00    -0.359 OA
ATOM     14  HO  UNL     1      23.910  95.596  45.223  1.00  0.00     0.213 HD
ENDBRANCH   9  13
BRANCH   9  15
HETATM   15  O   UNL     1      21.990  97.893  44.213  1.00  0.00    -0.359 OA
ATOM     16  HO  UNL     1      21.146  98.170  44.549  1.00  0.00     0.213 HD
ENDBRANCH   9  15
BRANCH   7  17
HETATM   17  C   UNL     1      16.826  93.962  43.544  1.00  0.00     0.209 C 
HETATM   18  O   UNL     1      17.271  92.822  43.731  1.00  0.00    -0.644 OA
HETATM   19  O   UNL     1      15.821  94.159  42.822  1.00  0.00    -0.644 OA
ENDBRANCH   7  17
TORSDOF 3
ENDMDL
MODEL 5
REMARK VINA RESULT:      -7.6      1.211      5.132
REMARK  3 active torsions:
REMARK  status: ('A' for Active; 'I' for Inactive)
REMARK    1  A    between atoms: O_6  and  C_16 
REMARK    2  A    between atoms: O_9  and  C_16 
REMARK    3  A    between atoms: C_11  and  C_14 
ROOT
HETATM    1  C   UNL     1      20.345  91.726  42.943  1.00  0.00     0.082 C 
HETATM    2  C   UNL     1      22.502  95.120  44.389  1.00  0.00     0.034 C 
HETATM    3  C   UNL     1      21.081  96.590  45.675  1.00  0.00     0.018 C 
HETATM    4  C   UNL     1      19.567  93.006  43.135  1.00  0.00     0.045 C 
HETATM    5  O   UNL     1      23.532  92.587  43.683  1.00  0.00    -0.286 OA
HETATM    6  C   UNL     1      21.706  94.040  44.055  1.00  0.00     0.023 C 
HETATM    7  C   UNL     1      22.199  96.371  44.874  1.00  0.00     0.041 C 
HETATM    8  C   UNL     1      19.839  96.079  45.359  1.00  0.00     0.002 C 
HETATM    9  C   UNL     1      21.415  91.534  44.021  1.00  0.00     0.227 C 
HETATM   10  C   UNL     1      22.372  92.716  44.038  1.00  0.00     0.221 C 
HETATM   11  C   UNL     1      20.290  94.071  43.932  1.00  0.00    -0.044 C 
HETATM   12  C   UNL     1      19.498  95.000  44.583  1.00  0.00     0.008 C 
ENDROOT
BRANCH   9  13
HETATM   13  O   UNL     1      22.146  90.347  43.763  1.00  0.00    -0.359 OA
ATOM     14  HO  UNL     1      22.870  90.278  44.373  1.00  0.00     0.213 HD
ENDBRANCH   9  13
BRANCH   9  15
HETATM   15  O   UNL     1      20.747  91.492  45.275  1.00  0.00    -0.359 OA
ATOM     16  HO  UNL     1      19.825  91.639  45.107  1.00  0.00     0.213 HD
ENDBRANCH   9  15
BRANCH   7  17
HETATM   17  C   UNL     1      23.148  97.522  44.617  1.00  0.00     0.209 C 
HETATM   18  O   UNL     1      22.708  98.628  44.275  1.00  0.00    -0.644 OA
HETATM   19  O   UNL     1      24.354  97.222  44.452  1.00  0.00    -0.644 OA
ENDBRANCH   7  17
TORSDOF 3
ENDMDL
MODEL 6
REMARK VINA RESULT:      -7.4      2.660      5.062
REMARK  3 active torsions:
REMARK  status: ('A' for Active; 'I' for Inactive)
REMARK    1  A    between atoms: O_6  and  C_16 
REMARK    2  A    between atoms: O_9  and  C_16 
REMARK    3  A    between atoms: C_11  and  C_14 
ROOT
HETATM    1  C   UNL     1      16.280  95.948  43.508  1.00  0.00     0.082 C 
HETATM    2  C   UNL     1      20.504  95.872  44.146  1.00  0.00     0.034 C 
HETATM    3  C   UNL     1      21.113  97.015  46.184  1.00  0.00     0.018 C 
HETATM    4  C   UNL     1      16.883  97.108  44.264  1.00  0.00     0.045 C 
HETATM    5  O   UNL     1      18.949  94.062  42.635  1.00  0.00    -0.286 OA
HETATM    6  C   UNL     1      19.123  95.904  44.105  1.00  0.00     0.023 C 
HETATM    7  C   UNL     1      21.419  96.567  44.902  1.00  0.00     0.041 C 
HETATM    8  C   UNL     1      19.928  97.660  46.474  1.00  0.00     0.002 C 
HETATM    9  C   UNL     1      16.966  94.621  43.843  1.00  0.00     0.227 C 
HETATM   10  C   UNL     1      18.456  94.704  43.548  1.00  0.00     0.221 C 
HETATM   11  C   UNL     1      18.306  96.885  44.730  1.00  0.00    -0.044 C 
HETATM   12  C   UNL     1      18.719  97.620  45.827  1.00  0.00     0.008 C 
ENDROOT
BRANCH   9  13
HETATM   13  O   UNL     1      16.395  93.579  43.070  1.00  0.00    -0.359 OA
ATOM     14  HO  UNL     1      15.831  93.047  43.617  1.00  0.00     0.213 HD
ENDBRANCH   9  13
BRANCH   9  15
HETATM   15  O   UNL     1      16.806  94.404  45.238  1.00  0.00    -0.359 OA
ATOM     16  HO  UNL     1      16.875  95.250  45.664  1.00  0.00     0.213 HD
ENDBRANCH   9  15
BRANCH   7  17
HETATM   17  C   UNL     1      22.824  96.771  44.374  1.00  0.00     0.209 C 
HETATM   18  O   UNL     1      23.667  95.871  44.485  1.00  0.00    -0.644 OA
HETATM   19  O   UNL     1      23.161  97.954  44.133  1.00  0.00    -0.644 OA
ENDBRANCH   7  17
TORSDOF 3
ENDMDL
MODEL 7
REMARK VINA RESULT:      -7.0      2.125      3.281
REMARK  3 active torsions:
REMARK  status: ('A' for Active; 'I' for Inactive)
REMARK    1  A    between atoms: O_6  and  C_16 
REMARK    2  A    between atoms: O_9  and  C_16 
REMARK    3  A    between atoms: C_11  and  C_14 
ROOT
HETATM    1  C   UNL     1      18.941  97.488  44.117  1.00  0.00     0.082 C 
HETATM    2  C   UNL     1      19.883  93.321  44.018  1.00  0.00     0.034 C 
HETATM    3  C   UNL     1      22.185  92.919  44.626  1.00  0.00     0.018 C 
HETATM    4  C   UNL     1      20.366  97.112  43.790  1.00  0.00     0.045 C 
HETATM    5  O   UNL     1      17.349  94.514  44.379  1.00  0.00    -0.286 OA
HETATM    6  C   UNL     1      19.696  94.683  44.166  1.00  0.00     0.023 C 
HETATM    7  C   UNL     1      21.020  92.549  43.960  1.00  0.00     0.041 C 
HETATM    8  C   UNL     1      22.688  94.203  44.570  1.00  0.00     0.002 C 
HETATM    9  C   UNL     1      18.321  96.552  45.158  1.00  0.00     0.227 C 
HETATM   10  C   UNL     1      18.372  95.110  44.674  1.00  0.00     0.221 C 
HETATM   11  C   UNL     1      20.718  95.667  44.071  1.00  0.00    -0.044 C 
HETATM   12  C   UNL     1      22.053  95.390  44.305  1.00  0.00     0.008 C 
ENDROOT
BRANCH   9  13
HETATM   13  O   UNL     1      16.972  96.919  45.389  1.00  0.00    -0.359 OA
ATOM     14  HO  UNL     1      16.551  96.267  45.935  1.00  0.00     0.213 HD
ENDBRANCH   9  13
BRANCH   9  15
HETATM   15  O   UNL     1      19.112  96.647  46.335  1.00  0.00    -0.359 OA
ATOM     16  HO  UNL     1      19.730  95.926  46.318  1.00  0.00     0.213 HD
ENDBRANCH   9  15
BRANCH   7  17
HETATM   17  C   UNL     1      20.984  91.219  43.238  1.00  0.00     0.209 C 
HETATM   18  O   UNL     1      20.312  90.282  43.691  1.00  0.00    -0.644 OA
HETATM   19  O   UNL     1      21.884  91.023  42.388  1.00  0.00    -0.644 OA
ENDBRANCH   7  17
TORSDOF 3
ENDMDL
MODEL 8
REMARK VINA RESULT:      -6.7      1.755      2.722
REMARK  3 active torsions:
REMARK  status: ('A' for Active; 'I' for Inactive)
REMARK    1  A    between atoms: O_6  and  C_16 
REMARK    2  A    between atoms: O_9  and  C_16 
REMARK    3  A    between atoms: C_11  and  C_14 
ROOT
HETATM    1  C   UNL     1      17.332  96.621  45.535  1.00  0.00     0.082 C 
HETATM    2  C   UNL     1      21.034  94.874  44.314  1.00  0.00     0.034 C 
HETATM    3  C   UNL     1      20.687  92.792  43.141  1.00  0.00     0.018 C 
HETATM    4  C   UNL     1      17.383  95.115  45.437  1.00  0.00     0.045 C 
HETATM    5  O   UNL     1      20.495  97.596  44.838  1.00  0.00    -0.286 OA
HETATM    6  C   UNL     1      19.768  95.363  44.578  1.00  0.00     0.023 C 
HETATM    7  C   UNL     1      21.478  93.634  43.918  1.00  0.00     0.041 C 
HETATM    8  C   UNL     1      19.358  92.560  43.429  1.00  0.00     0.002 C 
HETATM    9  C   UNL     1      18.158  97.300  44.441  1.00  0.00     0.227 C 
HETATM   10  C   UNL     1      19.605  96.833  44.500  1.00  0.00     0.221 C 
HETATM   11  C   UNL     1      18.595  94.572  44.711  1.00  0.00    -0.044 C 
HETATM   12  C   UNL     1      18.459  93.323  44.131  1.00  0.00     0.008 C 
ENDROOT
BRANCH   9  13
HETATM   13  O   UNL     1      18.116  98.706  44.612  1.00  0.00    -0.359 OA
ATOM     14  HO  UNL     1      17.406  99.070  44.097  1.00  0.00     0.213 HD
ENDBRANCH   9  13
BRANCH   9  15
HETATM   15  O   UNL     1      17.617  96.895  43.191  1.00  0.00    -0.359 OA
ATOM     16  HO  UNL     1      17.824  97.574  42.561  1.00  0.00     0.213 HD
ENDBRANCH   9  15
BRANCH   7  17
HETATM   17  C   UNL     1      22.892  93.205  44.249  1.00  0.00     0.209 C 
HETATM   18  O   UNL     1      23.291  92.076  43.934  1.00  0.00    -0.644 OA
HETATM   19  O   UNL     1      23.496  93.894  45.106  1.00  0.00    -0.644 OA
ENDBRANCH   7  17
TORSDOF 3
ENDMDL
MODEL 9
REMARK VINA RESULT:      -6.1      2.565      3.872
REMARK  3 active torsions:
REMARK  status: ('A' for Active; 'I' for Inactive)
REMARK    1  A    between atoms: O_6  and  C_16 
REMARK    2  A    between atoms: O_9  and  C_16 
REMARK    3  A    between atoms: C_11  and  C_14 
ROOT
HETATM    1  C   UNL     1      22.263  97.256  45.254  1.00  0.00     0.082 C 
HETATM    2  C   UNL     1      18.371  95.634  44.565  1.00  0.00     0.034 C 
HETATM    3  C   UNL     1      18.479  93.299  43.956  1.00  0.00     0.018 C 
HETATM    4  C   UNL     1      22.154  96.125  44.258  1.00  0.00     0.045 C 
HETATM    5  O   UNL     1      19.060  97.861  46.159  1.00  0.00    -0.286 OA
HETATM    6  C   UNL     1      19.675  96.005  44.832  1.00  0.00     0.023 C 
HETATM    7  C   UNL     1      17.837  94.535  43.933  1.00  0.00     0.041 C 
HETATM    8  C   UNL     1      19.829  93.168  43.705  1.00  0.00     0.002 C 
HETATM    9  C   UNL     1      21.301  97.083  46.432  1.00  0.00     0.227 C 
HETATM   10  C   UNL     1      19.867  96.974  45.936  1.00  0.00     0.221 C 
HETATM   11  C   UNL     1      20.833  95.388  44.283  1.00  0.00    -0.044 C 
HETATM   12  C   UNL     1      20.844  94.083  43.825  1.00  0.00     0.008 C 
ENDROOT
BRANCH   9  13
HETATM   13  O   UNL     1      21.409  98.194  47.305  1.00  0.00    -0.359 OA
ATOM     14  HO  UNL     1      21.794  97.918  48.128  1.00  0.00     0.213 HD
ENDBRANCH   9  13
BRANCH   9  15
HETATM   15  O   UNL     1      21.638  95.860  47.074  1.00  0.00    -0.359 OA
ATOM     16  HO  UNL     1      22.514  95.626  46.793  1.00  0.00     0.213 HD
ENDBRANCH   9  15
BRANCH   7  17
HETATM   17  C   UNL     1      16.477  94.637  43.276  1.00  0.00     0.209 C 
HETATM   18  O   UNL     1      15.740  95.602  43.518  1.00  0.00    -0.644 OA
HETATM   19  O   UNL     1      16.026  93.585  42.764  1.00  0.00    -0.644 OA
ENDBRANCH   7  17
TORSDOF 3
ENDMDL
