MODEL 1
REMARK VINA RESULT:      -7.5      0.000      0.000
REMARK  6 active torsions:
REMARK  status: ('A' for Active; 'I' for Inactive)
REMARK    1  A    between atoms: C_2  and  O_8 
REMARK    2  A    between atoms: C_2  and  O_10 
REMARK    3  A    between atoms: C_16  and  N_29 
REMARK    4  A    between atoms: C_17  and  O_18 
REMARK    5  A    between atoms: C_23  and  O_27 
REMARK    6  A    between atoms: C_25  and  N_29 
ROOT
HETATM    1  C   UNL     1      38.950  -8.884 -22.381  1.00  0.00     0.167 C 
HETATM    2  C   UNL     1      37.619 -10.761 -22.949  1.00  0.00     0.046 C 
HETATM    3  N   UNL     1      35.916 -12.424 -23.703  1.00  0.00    -0.345 N 
ATOM      4  HN  UNL     1      35.813 -12.789 -22.756  1.00  0.00     0.167 HD
HETATM    5  C   UNL     1      36.667 -12.029 -26.358  1.00  0.00     0.015 C 
HETATM    6  C   UNL     1      36.956 -11.087 -25.361  1.00  0.00    -0.006 C 
HETATM    7  C   UNL     1      36.760  -9.795 -22.109  1.00  0.00     0.021 C 
HETATM    8  C   UNL     1      38.044  -8.936 -24.567  1.00  0.00     0.030 C 
HETATM    9  C   UNL     1      37.485  -8.458 -22.256  1.00  0.00     0.049 C 
HETATM   10  C   UNL     1      35.160 -12.877 -24.753  1.00  0.00     0.105 C 
HETATM   11  C   UNL     1      37.352  -9.686 -25.711  1.00  0.00     0.157 C 
HETATM   12  C   UNL     1      37.153  -8.022 -23.698  1.00  0.00     0.018 C 
HETATM   13  C   UNL     1      36.820 -11.447 -24.020  1.00  0.00     0.024 C 
HETATM   14  C   UNL     1      38.737  -9.875 -23.563  1.00  0.00     0.065 C 
HETATM   15  C   UNL     1      35.793 -13.059 -25.994  1.00  0.00     0.049 C 
ENDROOT
BRANCH  10  16
HETATM   16  N   UNL     1      33.810 -13.112 -24.629  1.00  0.00    -0.343 N 
ATOM     17  HN  UNL     1      33.478 -14.031 -24.921  1.00  0.00     0.167 HD
BRANCH  16  18
HETATM   18  C   UNL     1      32.843 -12.219 -24.143  1.00  0.00     0.033 C 
HETATM   19  C   UNL     1      33.176 -10.869 -24.049  1.00  0.00     0.032 C 
HETATM   20  C   UNL     1      32.420 -10.047 -23.217  1.00  0.00     0.039 C 
HETATM   21  C   UNL     1      31.220 -10.512 -22.688  1.00  0.00     0.065 C 
HETATM   22  C   UNL     1      30.736 -11.765 -23.069  1.00  0.00     0.039 C 
HETATM   23  C   UNL     1      31.563 -12.632 -23.776  1.00  0.00     0.032 C 
BRANCH  21  24
HETATM   24  O   UNL     1      30.552  -9.758 -21.781  1.00  0.00    -0.361 OA
ATOM     25  HO  UNL     1      29.816  -9.219 -22.046  1.00  0.00     0.217 HD
ENDBRANCH  21  24
ENDBRANCH  16  18
ENDBRANCH  10  16
BRANCH  11  26
HETATM   26  O   UNL     1      36.171  -9.042 -26.147  1.00  0.00    -0.390 OA
ATOM     27  HO  UNL     1      35.768  -8.677 -25.369  1.00  0.00     0.210 HD
ENDBRANCH  11  26
BRANCH   1  28
HETATM   28  O   UNL     1      39.486  -9.566 -21.271  1.00  0.00    -0.365 OA
ATOM     29  HO  UNL     1      39.741 -10.438 -21.550  1.00  0.00     0.213 HD
ENDBRANCH   1  28
BRANCH   1  30
HETATM   30  O   UNL     1      39.863  -7.872 -22.768  1.00  0.00    -0.365 OA
ATOM     31  HO  UNL     1      39.631  -7.069 -22.316  1.00  0.00     0.213 HD
ENDBRANCH   1  30
TORSDOF 6
ENDMDL
MODEL 2
REMARK VINA RESULT:      -7.2      2.263      3.379
REMARK  6 active torsions:
REMARK  status: ('A' for Active; 'I' for Inactive)
REMARK    1  A    between atoms: C_2  and  O_8 
REMARK    2  A    between atoms: C_2  and  O_10 
REMARK    3  A    between atoms: C_16  and  N_29 
REMARK    4  A    between atoms: C_17  and  O_18 
REMARK    5  A    between atoms: C_23  and  O_27 
REMARK    6  A    between atoms: C_25  and  N_29 
ROOT
HETATM    1  C   UNL     1      40.501  -6.637 -23.022  1.00  0.00     0.167 C 
HETATM    2  C   UNL     1      38.303  -7.526 -22.999  1.00  0.00     0.046 C 
HETATM    3  N   UNL     1      36.178  -8.822 -23.193  1.00  0.00    -0.345 N 
ATOM      4  HN  UNL     1      35.742  -8.079 -23.739  1.00  0.00     0.167 HD
HETATM    5  C   UNL     1      36.990 -10.512 -21.131  1.00  0.00     0.015 C 
HETATM    6  C   UNL     1      37.907  -9.740 -21.857  1.00  0.00    -0.006 C 
HETATM    7  C   UNL     1      38.826  -7.568 -24.449  1.00  0.00     0.021 C 
HETATM    8  C   UNL     1      40.254  -8.872 -22.283  1.00  0.00     0.030 C 
HETATM    9  C   UNL     1      40.343  -7.498 -24.279  1.00  0.00     0.049 C 
HETATM   10  C   UNL     1      35.544 -10.008 -22.926  1.00  0.00     0.105 C 
HETATM   11  C   UNL     1      39.374 -10.037 -21.815  1.00  0.00     0.157 C 
HETATM   12  C   UNL     1      40.715  -8.901 -23.757  1.00  0.00     0.018 C 
HETATM   13  C   UNL     1      37.439  -8.710 -22.674  1.00  0.00     0.024 C 
HETATM   14  C   UNL     1      39.577  -7.500 -22.112  1.00  0.00     0.065 C 
HETATM   15  C   UNL     1      35.688 -10.560 -21.642  1.00  0.00     0.049 C 
ENDROOT
BRANCH  10  16
HETATM   16  N   UNL     1      34.818 -10.677 -23.884  1.00  0.00    -0.343 N 
ATOM     17  HN  UNL     1      35.307 -10.912 -24.747  1.00  0.00     0.167 HD
BRANCH  16  18
HETATM   18  C   UNL     1      33.473 -11.068 -23.797  1.00  0.00     0.033 C 
HETATM   19  C   UNL     1      32.524 -10.106 -23.452  1.00  0.00     0.032 C 
HETATM   20  C   UNL     1      31.287 -10.526 -22.969  1.00  0.00     0.039 C 
HETATM   21  C   UNL     1      30.926 -11.866 -23.061  1.00  0.00     0.065 C 
HETATM   22  C   UNL     1      31.766 -12.766 -23.721  1.00  0.00     0.039 C 
HETATM   23  C   UNL     1      33.056 -12.370 -24.064  1.00  0.00     0.032 C 
BRANCH  21  24
HETATM   24  O   UNL     1      29.778 -12.291 -22.478  1.00  0.00    -0.361 OA
ATOM     25  HO  UNL     1      29.186 -11.674 -22.066  1.00  0.00     0.217 HD
ENDBRANCH  21  24
ENDBRANCH  16  18
ENDBRANCH  10  16
BRANCH  11  26
HETATM   26  O   UNL     1      39.560 -11.204 -22.590  1.00  0.00    -0.390 OA
ATOM     27  HO  UNL     1      39.934 -11.852 -22.005  1.00  0.00     0.210 HD
ENDBRANCH  11  26
BRANCH   1  28
HETATM   28  O   UNL     1      39.998  -5.324 -23.113  1.00  0.00    -0.365 OA
ATOM     29  HO  UNL     1      39.116  -5.365 -23.464  1.00  0.00     0.213 HD
ENDBRANCH   1  28
BRANCH   1  30
HETATM   30  O   UNL     1      41.801  -6.581 -22.463  1.00  0.00    -0.365 OA
ATOM     31  HO  UNL     1      42.016  -5.671 -22.295  1.00  0.00     0.213 HD
ENDBRANCH   1  30
TORSDOF 6
ENDMDL
MODEL 3
REMARK VINA RESULT:      -7.1      3.570      5.777
REMARK  6 active torsions:
REMARK  status: ('A' for Active; 'I' for Inactive)
REMARK    1  A    between atoms: C_2  and  O_8 
REMARK    2  A    between atoms: C_2  and  O_10 
REMARK    3  A    between atoms: C_16  and  N_29 
REMARK    4  A    between atoms: C_17  and  O_18 
REMARK    5  A    between atoms: C_23  and  O_27 
REMARK    6  A    between atoms: C_25  and  N_29 
ROOT
HETATM    1  C   UNL     1      37.462 -16.759 -28.020  1.00  0.00     0.167 C 
HETATM    2  C   UNL     1      36.369 -14.920 -26.998  1.00  0.00     0.046 C 
HETATM    3  N   UNL     1      35.284 -13.217 -25.530  1.00  0.00    -0.345 N 
ATOM      4  HN  UNL     1      34.397 -13.315 -26.025  1.00  0.00     0.167 HD
HETATM    5  C   UNL     1      37.781 -12.351 -24.645  1.00  0.00     0.015 C 
HETATM    6  C   UNL     1      37.601 -13.614 -25.227  1.00  0.00    -0.006 C 
HETATM    7  C   UNL     1      35.660 -16.214 -26.550  1.00  0.00     0.021 C 
HETATM    8  C   UNL     1      38.502 -15.813 -26.116  1.00  0.00     0.030 C 
HETATM    9  C   UNL     1      36.709 -17.297 -26.800  1.00  0.00     0.049 C 
HETATM   10  C   UNL     1      35.431 -12.403 -24.437  1.00  0.00     0.105 C 
HETATM   11  C   UNL     1      38.636 -14.687 -25.085  1.00  0.00     0.157 C 
HETATM   12  C   UNL     1      37.734 -17.076 -25.668  1.00  0.00     0.018 C 
HETATM   13  C   UNL     1      36.414 -13.891 -25.906  1.00  0.00     0.024 C 
HETATM   14  C   UNL     1      37.798 -15.366 -27.410  1.00  0.00     0.065 C 
HETATM   15  C   UNL     1      36.613 -11.650 -24.328  1.00  0.00     0.049 C 
ENDROOT
BRANCH  10  16
HETATM   16  N   UNL     1      34.482 -12.340 -23.443  1.00  0.00    -0.343 N 
ATOM     17  HN  UNL     1      34.749 -12.714 -22.533  1.00  0.00     0.167 HD
BRANCH  16  18
HETATM   18  C   UNL     1      33.186 -11.814 -23.552  1.00  0.00     0.033 C 
HETATM   19  C   UNL     1      33.000 -10.453 -23.310  1.00  0.00     0.032 C 
HETATM   20  C   UNL     1      31.720  -9.993 -23.014  1.00  0.00     0.039 C 
HETATM   21  C   UNL     1      30.623 -10.829 -23.197  1.00  0.00     0.065 C 
HETATM   22  C   UNL     1      30.803 -12.093 -23.764  1.00  0.00     0.039 C 
HETATM   23  C   UNL     1      32.091 -12.596 -23.915  1.00  0.00     0.032 C 
BRANCH  21  24
HETATM   24  O   UNL     1      29.396 -10.422 -22.790  1.00  0.00    -0.361 OA
ATOM     25  HO  UNL     1      28.681 -11.041 -22.710  1.00  0.00     0.217 HD
ENDBRANCH  21  24
ENDBRANCH  16  18
ENDBRANCH  10  16
BRANCH  11  26
HETATM   26  O   UNL     1      38.536 -15.153 -23.754  1.00  0.00    -0.390 OA
ATOM     27  HO  UNL     1      39.195 -14.680 -23.259  1.00  0.00     0.210 HD
ENDBRANCH  11  26
BRANCH   1  28
HETATM   28  O   UNL     1      36.695 -16.599 -29.191  1.00  0.00    -0.365 OA
ATOM     29  HO  UNL     1      35.792 -16.443 -28.939  1.00  0.00     0.213 HD
ENDBRANCH   1  28
BRANCH   1  30
HETATM   30  O   UNL     1      38.662 -17.432 -28.359  1.00  0.00    -0.365 OA
ATOM     31  HO  UNL     1      39.257 -16.804 -28.753  1.00  0.00     0.213 HD
ENDBRANCH   1  30
TORSDOF 6
ENDMDL
MODEL 4
REMARK VINA RESULT:      -6.3      2.460      4.746
REMARK  6 active torsions:
REMARK  status: ('A' for Active; 'I' for Inactive)
REMARK    1  A    between atoms: C_2  and  O_8 
REMARK    2  A    between atoms: C_2  and  O_10 
REMARK    3  A    between atoms: C_16  and  N_29 
REMARK    4  A    between atoms: C_17  and  O_18 
REMARK    5  A    between atoms: C_23  and  O_27 
REMARK    6  A    between atoms: C_25  and  N_29 
ROOT
HETATM    1  C   UNL     1      38.747  -8.268 -23.169  1.00  0.00     0.167 C 
HETATM    2  C   UNL     1      37.090  -9.628 -24.181  1.00  0.00     0.046 C 
HETATM    3  N   UNL     1      35.448 -11.360 -24.911  1.00  0.00    -0.345 N 
ATOM      4  HN  UNL     1      35.904 -11.450 -25.819  1.00  0.00     0.167 HD
HETATM    5  C   UNL     1      33.736 -10.653 -22.828  1.00  0.00     0.015 C 
HETATM    6  C   UNL     1      35.102 -10.337 -22.801  1.00  0.00    -0.006 C 
HETATM    7  C   UNL     1      38.379 -10.462 -24.036  1.00  0.00     0.021 C 
HETATM    8  C   UNL     1      37.115  -9.214 -21.740  1.00  0.00     0.030 C 
HETATM    9  C   UNL     1      39.156  -9.726 -22.945  1.00  0.00     0.049 C 
HETATM   10  C   UNL     1      34.382 -12.140 -24.542  1.00  0.00     0.105 C 
HETATM   11  C   UNL     1      35.778  -9.934 -21.528  1.00  0.00     0.157 C 
HETATM   12  C   UNL     1      38.390 -10.080 -21.653  1.00  0.00     0.018 C 
HETATM   13  C   UNL     1      35.854 -10.453 -23.971  1.00  0.00     0.024 C 
HETATM   14  C   UNL     1      37.211  -8.512 -23.107  1.00  0.00     0.065 C 
HETATM   15  C   UNL     1      33.329 -11.531 -23.839  1.00  0.00     0.049 C 
ENDROOT
BRANCH  10  16
HETATM   16  N   UNL     1      34.342 -13.490 -24.806  1.00  0.00    -0.343 N 
ATOM     17  HN  UNL     1      33.489 -13.982 -24.542  1.00  0.00     0.167 HD
BRANCH  16  18
HETATM   18  C   UNL     1      35.354 -14.259 -25.400  1.00  0.00     0.033 C 
HETATM   19  C   UNL     1      35.293 -14.486 -26.775  1.00  0.00     0.032 C 
HETATM   20  C   UNL     1      36.019 -15.546 -27.313  1.00  0.00     0.039 C 
HETATM   21  C   UNL     1      36.967 -16.202 -26.535  1.00  0.00     0.065 C 
HETATM   22  C   UNL     1      37.251 -15.735 -25.250  1.00  0.00     0.039 C 
HETATM   23  C   UNL     1      36.421 -14.780 -24.671  1.00  0.00     0.032 C 
BRANCH  21  24
HETATM   24  O   UNL     1      37.580 -17.310 -27.020  1.00  0.00    -0.361 OA
ATOM     25  HO  UNL     1      37.472 -17.565 -27.928  1.00  0.00     0.217 HD
ENDBRANCH  21  24
ENDBRANCH  16  18
ENDBRANCH  10  16
BRANCH  11  26
HETATM   26  O   UNL     1      35.913 -11.115 -20.764  1.00  0.00    -0.390 OA
ATOM     27  HO  UNL     1      36.123 -11.806 -21.381  1.00  0.00     0.210 HD
ENDBRANCH  11  26
BRANCH   1  28
HETATM   28  O   UNL     1      39.098  -7.719 -24.418  1.00  0.00    -0.365 OA
ATOM     29  HO  UNL     1      40.018  -7.483 -24.394  1.00  0.00     0.213 HD
ENDBRANCH   1  28
BRANCH   1  30
HETATM   30  O   UNL     1      39.124  -7.352 -22.156  1.00  0.00    -0.365 OA
ATOM     31  HO  UNL     1      39.959  -6.967 -22.394  1.00  0.00     0.213 HD
ENDBRANCH   1  30
TORSDOF 6
ENDMDL
MODEL 5
REMARK VINA RESULT:      -6.2      4.246      6.673
REMARK  6 active torsions:
REMARK  status: ('A' for Active; 'I' for Inactive)
REMARK    1  A    between atoms: C_2  and  O_8 
REMARK    2  A    between atoms: C_2  and  O_10 
REMARK    3  A    between atoms: C_16  and  N_29 
REMARK    4  A    between atoms: C_17  and  O_18 
REMARK    5  A    between atoms: C_23  and  O_27 
REMARK    6  A    between atoms: C_25  and  N_29 
ROOT
HETATM    1  C   UNL     1      37.269 -10.273 -26.318  1.00  0.00     0.167 C 
HETATM    2  C   UNL     1      37.599 -12.531 -26.960  1.00  0.00     0.046 C 
HETATM    3  N   UNL     1      37.951 -14.992 -27.182  1.00  0.00    -0.345 N 
ATOM      4  HN  UNL     1      38.834 -14.850 -27.673  1.00  0.00     0.167 HD
HETATM    5  C   UNL     1      35.276 -15.458 -26.555  1.00  0.00     0.015 C 
HETATM    6  C   UNL     1      35.914 -14.256 -26.220  1.00  0.00    -0.006 C 
HETATM    7  C   UNL     1      38.701 -12.149 -25.952  1.00  0.00     0.021 C 
HETATM    8  C   UNL     1      35.886 -11.895 -25.290  1.00  0.00     0.030 C 
HETATM    9  C   UNL     1      38.114 -10.938 -25.228  1.00  0.00     0.049 C 
HETATM   10  C   UNL     1      37.481 -16.239 -26.859  1.00  0.00     0.105 C 
HETATM   11  C   UNL     1      35.321 -13.318 -25.214  1.00  0.00     0.157 C 
HETATM   12  C   UNL     1      37.033 -11.551 -24.314  1.00  0.00     0.018 C 
HETATM   13  C   UNL     1      37.148 -13.954 -26.795  1.00  0.00     0.024 C 
HETATM   14  C   UNL     1      36.438 -11.538 -26.682  1.00  0.00     0.065 C 
HETATM   15  C   UNL     1      36.106 -16.487 -27.011  1.00  0.00     0.049 C 
ENDROOT
BRANCH  10  16
HETATM   16  N   UNL     1      38.305 -17.221 -26.360  1.00  0.00    -0.343 N 
ATOM     17  HN  UNL     1      38.483 -18.020 -26.967  1.00  0.00     0.167 HD
BRANCH  16  18
HETATM   18  C   UNL     1      38.926 -17.236 -25.102  1.00  0.00     0.033 C 
HETATM   19  C   UNL     1      40.078 -18.004 -24.940  1.00  0.00     0.032 C 
HETATM   20  C   UNL     1      40.473 -18.361 -23.653  1.00  0.00     0.039 C 
HETATM   21  C   UNL     1      39.870 -17.762 -22.552  1.00  0.00     0.065 C 
HETATM   22  C   UNL     1      38.939 -16.739 -22.745  1.00  0.00     0.039 C 
HETATM   23  C   UNL     1      38.445 -16.496 -24.023  1.00  0.00     0.032 C 
BRANCH  21  24
HETATM   24  O   UNL     1      40.167 -18.201 -21.305  1.00  0.00    -0.361 OA
ATOM     25  HO  UNL     1      39.507 -18.204 -20.622  1.00  0.00     0.217 HD
ENDBRANCH  21  24
ENDBRANCH  16  18
ENDBRANCH  10  16
BRANCH  11  26
HETATM   26  O   UNL     1      35.525 -13.917 -23.951  1.00  0.00    -0.390 OA
ATOM     27  HO  UNL     1      34.970 -14.687 -23.932  1.00  0.00     0.210 HD
ENDBRANCH  11  26
BRANCH   1  28
HETATM   28  O   UNL     1      37.977  -9.820 -27.449  1.00  0.00    -0.365 OA
ATOM     29  HO  UNL     1      37.525 -10.124 -28.227  1.00  0.00     0.213 HD
ENDBRANCH   1  28
BRANCH   1  30
HETATM   30  O   UNL     1      36.400  -9.239 -25.891  1.00  0.00    -0.365 OA
ATOM     31  HO  UNL     1      35.515  -9.464 -26.153  1.00  0.00     0.213 HD
ENDBRANCH   1  30
TORSDOF 6
ENDMDL
MODEL 6
REMARK VINA RESULT:      -6.2      3.370      5.929
REMARK  6 active torsions:
REMARK  status: ('A' for Active; 'I' for Inactive)
REMARK    1  A    between atoms: C_2  and  O_8 
REMARK    2  A    between atoms: C_2  and  O_10 
REMARK    3  A    between atoms: C_16  and  N_29 
REMARK    4  A    between atoms: C_17  and  O_18 
REMARK    5  A    between atoms: C_23  and  O_27 
REMARK    6  A    between atoms: C_25  and  N_29 
ROOT
HETATM    1  C   UNL     1      37.354 -16.794 -26.712  1.00  0.00     0.167 C 
HETATM    2  C   UNL     1      35.928 -15.191 -25.704  1.00  0.00     0.046 C 
HETATM    3  N   UNL     1      34.801 -13.384 -24.402  1.00  0.00    -0.345 N 
ATOM      4  HN  UNL     1      34.140 -14.048 -23.999  1.00  0.00     0.167 HD
HETATM    5  C   UNL     1      36.025 -11.444 -25.985  1.00  0.00     0.015 C 
HETATM    6  C   UNL     1      36.529 -12.749 -25.895  1.00  0.00    -0.006 C 
HETATM    7  C   UNL     1      36.616 -15.998 -24.585  1.00  0.00     0.021 C 
HETATM    8  C   UNL     1      38.154 -14.570 -26.590  1.00  0.00     0.030 C 
HETATM    9  C   UNL     1      37.845 -16.585 -25.277  1.00  0.00     0.049 C 
HETATM   10  C   UNL     1      34.817 -12.057 -24.054  1.00  0.00     0.105 C 
HETATM   11  C   UNL     1      37.920 -13.075 -26.343  1.00  0.00     0.157 C 
HETATM   12  C   UNL     1      38.787 -15.373 -25.433  1.00  0.00     0.018 C 
HETATM   13  C   UNL     1      35.738 -13.750 -25.330  1.00  0.00     0.024 C 
HETATM   14  C   UNL     1      36.863 -15.334 -26.935  1.00  0.00     0.065 C 
HETATM   15  C   UNL     1      35.020 -11.109 -25.071  1.00  0.00     0.049 C 
ENDROOT
BRANCH  10  16
HETATM   16  N   UNL     1      34.681 -11.646 -22.748  1.00  0.00    -0.343 N 
ATOM     17  HN  UNL     1      33.918 -12.062 -22.215  1.00  0.00     0.167 HD
BRANCH  16  18
HETATM   18  C   UNL     1      35.484 -10.713 -22.074  1.00  0.00     0.033 C 
HETATM   19  C   UNL     1      34.860  -9.752 -21.281  1.00  0.00     0.032 C 
HETATM   20  C   UNL     1      35.566  -8.601 -20.941  1.00  0.00     0.039 C 
HETATM   21  C   UNL     1      36.934  -8.529 -21.183  1.00  0.00     0.065 C 
HETATM   22  C   UNL     1      37.608  -9.647 -21.680  1.00  0.00     0.039 C 
HETATM   23  C   UNL     1      36.876 -10.732 -22.154  1.00  0.00     0.032 C 
BRANCH  21  24
HETATM   24  O   UNL     1      37.592  -7.364 -20.968  1.00  0.00    -0.361 OA
ATOM     25  HO  UNL     1      37.163  -6.530 -21.118  1.00  0.00     0.217 HD
ENDBRANCH  21  24
ENDBRANCH  16  18
ENDBRANCH  10  16
BRANCH  11  26
HETATM   26  O   UNL     1      38.783 -12.545 -25.358  1.00  0.00    -0.390 OA
ATOM     27  HO  UNL     1      38.879 -13.223 -24.699  1.00  0.00     0.210 HD
ENDBRANCH  11  26
BRANCH   1  28
HETATM   28  O   UNL     1      36.280 -17.693 -26.866  1.00  0.00    -0.365 OA
ATOM     29  HO  UNL     1      36.257 -17.979 -27.772  1.00  0.00     0.213 HD
ENDBRANCH   1  28
BRANCH   1  30
HETATM   30  O   UNL     1      38.347 -17.114 -27.671  1.00  0.00    -0.365 OA
ATOM     31  HO  UNL     1      39.098 -17.477 -27.215  1.00  0.00     0.213 HD
ENDBRANCH   1  30
TORSDOF 6
ENDMDL
MODEL 7
REMARK VINA RESULT:      -6.2      3.595      6.022
REMARK  6 active torsions:
REMARK  status: ('A' for Active; 'I' for Inactive)
REMARK    1  A    between atoms: C_2  and  O_8 
REMARK    2  A    between atoms: C_2  and  O_10 
REMARK    3  A    between atoms: C_16  and  N_29 
REMARK    4  A    between atoms: C_17  and  O_18 
REMARK    5  A    between atoms: C_23  and  O_27 
REMARK    6  A    between atoms: C_25  and  N_29 
ROOT
HETATM    1  C   UNL     1      37.095 -16.743 -27.000  1.00  0.00     0.167 C 
HETATM    2  C   UNL     1      36.895 -14.381 -27.048  1.00  0.00     0.046 C 
HETATM    3  N   UNL     1      36.670 -11.929 -26.638  1.00  0.00    -0.345 N 
ATOM      4  HN  UNL     1      35.797 -11.893 -27.164  1.00  0.00     0.167 HD
HETATM    5  C   UNL     1      39.345 -11.785 -25.869  1.00  0.00     0.015 C 
HETATM    6  C   UNL     1      38.639 -12.997 -25.864  1.00  0.00    -0.006 C 
HETATM    7  C   UNL     1      35.746 -14.947 -26.190  1.00  0.00     0.021 C 
HETATM    8  C   UNL     1      38.524 -15.514 -25.568  1.00  0.00     0.030 C 
HETATM    9  C   UNL     1      36.252 -16.332 -25.790  1.00  0.00     0.049 C 
HETATM   10  C   UNL     1      37.191 -10.833 -25.999  1.00  0.00     0.105 C 
HETATM   11  C   UNL     1      39.155 -14.190 -25.122  1.00  0.00     0.157 C 
HETATM   12  C   UNL     1      37.334 -16.032 -24.732  1.00  0.00     0.018 C 
HETATM   13  C   UNL     1      37.409 -13.074 -26.518  1.00  0.00     0.024 C 
HETATM   14  C   UNL     1      37.998 -15.474 -27.014  1.00  0.00     0.065 C 
HETATM   15  C   UNL     1      38.580 -10.630 -26.060  1.00  0.00     0.049 C 
ENDROOT
BRANCH  10  16
HETATM   16  N   UNL     1      36.400  -9.967 -25.279  1.00  0.00    -0.343 N 
ATOM     17  HN  UNL     1      35.988  -9.189 -25.794  1.00  0.00     0.167 HD
BRANCH  16  18
HETATM   18  C   UNL     1      36.102 -10.043 -23.910  1.00  0.00     0.033 C 
HETATM   19  C   UNL     1      36.886  -9.311 -23.019  1.00  0.00     0.032 C 
HETATM   20  C   UNL     1      36.886  -9.670 -21.674  1.00  0.00     0.039 C 
HETATM   21  C   UNL     1      35.943 -10.575 -21.197  1.00  0.00     0.065 C 
HETATM   22  C   UNL     1      34.945 -11.048 -22.052  1.00  0.00     0.039 C 
HETATM   23  C   UNL     1      35.042 -10.803 -23.419  1.00  0.00     0.032 C 
BRANCH  21  24
HETATM   24  O   UNL     1      36.025 -11.016 -19.919  1.00  0.00    -0.361 OA
ATOM     25  HO  UNL     1      35.648 -11.851 -19.668  1.00  0.00     0.217 HD
ENDBRANCH  21  24
ENDBRANCH  16  18
ENDBRANCH  10  16
BRANCH  11  26
HETATM   26  O   UNL     1      38.943 -13.922 -23.751  1.00  0.00    -0.390 OA
ATOM     27  HO  UNL     1      38.740 -12.996 -23.691  1.00  0.00     0.210 HD
ENDBRANCH  11  26
BRANCH   1  28
HETATM   28  O   UNL     1      36.401 -16.853 -28.221  1.00  0.00    -0.365 OA
ATOM     29  HO  UNL     1      35.964 -17.697 -28.242  1.00  0.00     0.213 HD
ENDBRANCH   1  28
BRANCH   1  30
HETATM   30  O   UNL     1      37.900 -17.897 -26.837  1.00  0.00    -0.365 OA
ATOM     31  HO  UNL     1      38.390 -17.810 -26.028  1.00  0.00     0.213 HD
ENDBRANCH   1  30
TORSDOF 6
ENDMDL
MODEL 8
REMARK VINA RESULT:      -6.1      3.461      6.978
REMARK  6 active torsions:
REMARK  status: ('A' for Active; 'I' for Inactive)
REMARK    1  A    between atoms: C_2  and  O_8 
REMARK    2  A    between atoms: C_2  and  O_10 
REMARK    3  A    between atoms: C_16  and  N_29 
REMARK    4  A    between atoms: C_17  and  O_18 
REMARK    5  A    between atoms: C_23  and  O_27 
REMARK    6  A    between atoms: C_25  and  N_29 
ROOT
HETATM    1  C   UNL     1      34.333  -7.770 -19.415  1.00  0.00     0.167 C 
HETATM    2  C   UNL     1      35.631  -7.638 -21.394  1.00  0.00     0.046 C 
HETATM    3  N   UNL     1      37.286  -7.785 -23.258  1.00  0.00    -0.345 N 
ATOM      4  HN  UNL     1      37.457  -6.780 -23.222  1.00  0.00     0.167 HD
HETATM    5  C   UNL     1      36.348 -10.324 -23.925  1.00  0.00     0.015 C 
HETATM    6  C   UNL     1      36.126  -9.764 -22.659  1.00  0.00    -0.006 C 
HETATM    7  C   UNL     1      36.542  -7.306 -20.195  1.00  0.00     0.021 C 
HETATM    8  C   UNL     1      35.085  -9.813 -20.345  1.00  0.00     0.030 C 
HETATM    9  C   UNL     1      35.801  -7.921 -19.008  1.00  0.00     0.049 C 
HETATM   10  C   UNL     1      37.969  -8.619 -24.105  1.00  0.00     0.105 C 
HETATM   11  C   UNL     1      35.699 -10.611 -21.501  1.00  0.00     0.157 C 
HETATM   12  C   UNL     1      36.029  -9.436 -19.183  1.00  0.00     0.018 C 
HETATM   13  C   UNL     1      36.357  -8.402 -22.464  1.00  0.00     0.024 C 
HETATM   14  C   UNL     1      34.469  -8.476 -20.797  1.00  0.00     0.065 C 
HETATM   15  C   UNL     1      37.251  -9.642 -24.747  1.00  0.00     0.049 C 
ENDROOT
BRANCH  10  16
HETATM   16  N   UNL     1      39.326  -8.502 -24.303  1.00  0.00    -0.343 N 
ATOM     17  HN  UNL     1      39.683  -8.812 -25.207  1.00  0.00     0.167 HD
BRANCH  16  18
HETATM   18  C   UNL     1      40.267  -8.002 -23.392  1.00  0.00     0.033 C 
HETATM   19  C   UNL     1      40.688  -8.829 -22.352  1.00  0.00     0.032 C 
HETATM   20  C   UNL     1      41.283  -8.252 -21.233  1.00  0.00     0.039 C 
HETATM   21  C   UNL     1      41.666  -6.915 -21.263  1.00  0.00     0.065 C 
HETATM   22  C   UNL     1      41.535  -6.185 -22.447  1.00  0.00     0.039 C 
HETATM   23  C   UNL     1      40.808  -6.722 -23.505  1.00  0.00     0.032 C 
BRANCH  21  24
HETATM   24  O   UNL     1      42.128  -6.325 -20.134  1.00  0.00    -0.361 OA
ATOM     25  HO  UNL     1      41.949  -6.703 -19.281  1.00  0.00     0.217 HD
ENDBRANCH  21  24
ENDBRANCH  16  18
ENDBRANCH  10  16
BRANCH  11  26
HETATM   26  O   UNL     1      36.842 -11.343 -21.108  1.00  0.00    -0.390 OA
ATOM     27  HO  UNL     1      37.428 -10.717 -20.699  1.00  0.00     0.210 HD
ENDBRANCH  11  26
BRANCH   1  28
HETATM   28  O   UNL     1      33.879  -6.448 -19.592  1.00  0.00    -0.365 OA
ATOM     29  HO  UNL     1      33.127  -6.465 -20.172  1.00  0.00     0.213 HD
ENDBRANCH   1  28
BRANCH   1  30
HETATM   30  O   UNL     1      33.390  -8.464 -18.617  1.00  0.00    -0.365 OA
ATOM     31  HO  UNL     1      33.738  -8.535 -17.736  1.00  0.00     0.213 HD
ENDBRANCH   1  30
TORSDOF 6
ENDMDL
MODEL 9
REMARK VINA RESULT:      -6.1      4.313      5.626
REMARK  6 active torsions:
REMARK  status: ('A' for Active; 'I' for Inactive)
REMARK    1  A    between atoms: C_2  and  O_8 
REMARK    2  A    between atoms: C_2  and  O_10 
REMARK    3  A    between atoms: C_16  and  N_29 
REMARK    4  A    between atoms: C_17  and  O_18 
REMARK    5  A    between atoms: C_23  and  O_27 
REMARK    6  A    between atoms: C_25  and  N_29 
ROOT
HETATM    1  C   UNL     1      40.096 -17.545 -24.462  1.00  0.00     0.167 C 
HETATM    2  C   UNL     1      38.064 -16.337 -24.278  1.00  0.00     0.046 C 
HETATM    3  N   UNL     1      36.153 -14.731 -24.309  1.00  0.00    -0.345 N 
ATOM      4  HN  UNL     1      36.116 -14.712 -23.290  1.00  0.00     0.167 HD
HETATM    5  C   UNL     1      35.692 -15.291 -27.000  1.00  0.00     0.015 C 
HETATM    6  C   UNL     1      36.925 -15.561 -26.391  1.00  0.00    -0.006 C 
HETATM    7  C   UNL     1      39.204 -15.454 -23.731  1.00  0.00     0.021 C 
HETATM    8  C   UNL     1      39.275 -16.519 -26.430  1.00  0.00     0.030 C 
HETATM    9  C   UNL     1      40.456 -16.060 -24.363  1.00  0.00     0.049 C 
HETATM   10  C   UNL     1      35.338 -13.953 -25.090  1.00  0.00     0.105 C 
HETATM   11  C   UNL     1      38.152 -15.823 -27.208  1.00  0.00     0.157 C 
HETATM   12  C   UNL     1      40.373 -15.610 -25.836  1.00  0.00     0.018 C 
HETATM   13  C   UNL     1      37.021 -15.533 -24.999  1.00  0.00     0.024 C 
HETATM   14  C   UNL     1      38.760 -17.342 -25.236  1.00  0.00     0.065 C 
HETATM   15  C   UNL     1      34.792 -14.525 -26.252  1.00  0.00     0.049 C 
ENDROOT
BRANCH  10  16
HETATM   16  N   UNL     1      35.081 -12.635 -24.787  1.00  0.00    -0.343 N 
ATOM     17  HN  UNL     1      35.847 -11.977 -24.927  1.00  0.00     0.167 HD
BRANCH  16  18
HETATM   18  C   UNL     1      33.875 -12.105 -24.305  1.00  0.00     0.033 C 
HETATM   19  C   UNL     1      32.864 -12.989 -23.930  1.00  0.00     0.032 C 
HETATM   20  C   UNL     1      31.557 -12.517 -23.842  1.00  0.00     0.039 C 
HETATM   21  C   UNL     1      31.310 -11.149 -23.888  1.00  0.00     0.065 C 
HETATM   22  C   UNL     1      32.381 -10.253 -23.930  1.00  0.00     0.039 C 
HETATM   23  C   UNL     1      33.665 -10.734 -24.167  1.00  0.00     0.032 C 
BRANCH  21  24
HETATM   24  O   UNL     1      30.031 -10.701 -23.929  1.00  0.00    -0.361 OA
ATOM     25  HO  UNL     1      29.520 -10.621 -23.133  1.00  0.00     0.217 HD
ENDBRANCH  21  24
ENDBRANCH  16  18
ENDBRANCH  10  16
BRANCH  11  26
HETATM   26  O   UNL     1      38.549 -14.572 -27.732  1.00  0.00    -0.390 OA
ATOM     27  HO  UNL     1      38.642 -14.696 -28.669  1.00  0.00     0.210 HD
ENDBRANCH  11  26
BRANCH   1  28
HETATM   28  O   UNL     1      39.849 -18.198 -23.238  1.00  0.00    -0.365 OA
ATOM     29  HO  UNL     1      40.578 -18.780 -23.057  1.00  0.00     0.213 HD
ENDBRANCH   1  28
BRANCH   1  30
HETATM   30  O   UNL     1      40.973 -18.350 -25.230  1.00  0.00    -0.365 OA
ATOM     31  HO  UNL     1      41.214 -19.109 -24.712  1.00  0.00     0.213 HD
ENDBRANCH   1  30
TORSDOF 6
ENDMDL
