REMARK  1 active torsions:
REMARK  status: ('A' for Active; 'I' for Inactive)
REMARK    1  A    between atoms: C_2  and  O_12 
ROOT
HETATM    1  C   UNL     1      39.707  69.568  31.044  1.00  0.00     0.123 C 
HETATM    2  C   UNL     1      41.115  72.763  31.934  1.00  0.00     0.176 C 
HETATM    3  C   UNL     1      42.915  68.929  33.591  1.00  0.00     0.002 C 
HETATM    4  C   UNL     1      41.611  69.409  33.459  1.00  0.00     0.030 C 
HETATM    5  C   UNL     1      38.608  70.327  30.297  1.00  0.00     0.022 C 
HETATM    6  C   UNL     1      43.920  69.839  33.875  1.00  0.00     0.000 C 
HETATM    7  C   UNL     1      41.292  70.583  32.808  1.00  0.00     0.039 C 
HETATM    8  N   UNL     1      40.443  70.594  31.745  1.00  0.00    -0.373 N 
HETATM    9  C   UNL     1      38.930  71.824  30.454  1.00  0.00     0.030 C 
HETATM   10  C   UNL     1      39.862  71.944  31.643  1.00  0.00     0.118 C 
HETATM   11  C   UNL     1      43.942  71.183  33.727  1.00  0.00     0.001 C 
HETATM   12  C   UNL     1      41.763  71.893  33.006  1.00  0.00    -0.001 C 
HETATM   13  C   UNL     1      42.978  72.173  33.589  1.00  0.00     0.012 C 
ENDROOT
BRANCH   2  14
HETATM   14  O   UNL     1      40.870  74.116  32.278  1.00  0.00    -0.389 OA
ATOM     15  HO  UNL     1      41.651  74.626  32.459  1.00  0.00     0.210 HD
ENDBRANCH   2  14
TORSDOF 1
