MODEL 1
REMARK VINA RESULT:      -8.6      0.000      0.000
REMARK  3 active torsions:
REMARK  status: ('A' for Active; 'I' for Inactive)
REMARK    1  A    between atoms: N_1  and  C_10 
REMARK    2  A    between atoms: N_1  and  C_12 
REMARK    3  A    between atoms: O_5  and  C_17 
ROOT
HETATM    1  N   UNL     1      52.808  60.891  18.045  1.00  0.00    -0.345 N 
ATOM      2  HN  UNL     1      53.595  61.345  18.510  1.00  0.00     0.166 HD
ENDROOT
BRANCH   1   3
HETATM    3  C   UNL     1      52.288  61.551  16.958  1.00  0.00     0.135 C 
HETATM    4  C   UNL     1      51.062  62.359  17.090  1.00  0.00     0.275 C 
HETATM    5  O   UNL     1      50.692  62.792  18.181  1.00  0.00    -0.266 OA
HETATM    6  N   UNL     1      50.370  62.619  15.935  1.00  0.00    -0.332 N 
HETATM    7  C   UNL     1      50.839  62.258  14.707  1.00  0.00     0.094 C 
ATOM      8  HN  UNL     1      49.474  63.101  15.997  1.00  0.00     0.168 HD
HETATM    9  C   UNL     1      52.116  61.811  14.535  1.00  0.00     0.056 C 
HETATM   10  C   UNL     1      52.842  61.433  15.673  1.00  0.00     0.099 C 
BRANCH  10  11
HETATM   11  O   UNL     1      54.121  60.985  15.538  1.00  0.00    -0.358 OA
ATOM     12  HO  UNL     1      54.628  60.783  16.316  1.00  0.00     0.217 HD
ENDBRANCH  10  11
ENDBRANCH   1   3
BRANCH   1  13
HETATM   13  C   UNL     1      52.397  59.697  18.582  1.00  0.00     0.102 A 
HETATM   14  C   UNL     1      53.033  58.481  18.040  1.00  0.00     0.275 A 
HETATM   15  O   UNL     1      54.023  58.545  17.326  1.00  0.00    -0.266 OA
HETATM   16  N   UNL     1      52.601  57.274  18.546  1.00  0.00    -0.289 N 
HETATM   17  C   UNL     1      51.584  57.140  19.487  1.00  0.00     0.248 A 
ATOM     18  HN  UNL     1      53.056  56.426  18.209  1.00  0.00     0.172 HD
HETATM   19  O   UNL     1      51.389  56.001  19.975  1.00  0.00    -0.268 OA
HETATM   20  C   UNL     1      51.032  58.318  20.034  1.00  0.00     0.077 A 
HETATM   21  C   UNL     1      51.398  59.553  19.528  1.00  0.00     0.040 A 
ENDBRANCH   1  13
TORSDOF 3
ENDMDL
MODEL 2
REMARK VINA RESULT:      -8.1      1.833      5.153
REMARK  3 active torsions:
REMARK  status: ('A' for Active; 'I' for Inactive)
REMARK    1  A    between atoms: N_1  and  C_10 
REMARK    2  A    between atoms: N_1  and  C_12 
REMARK    3  A    between atoms: O_5  and  C_17 
ROOT
HETATM    1  N   UNL     1      52.379  60.114  18.810  1.00  0.00    -0.345 N 
ATOM      2  HN  UNL     1      53.109  60.506  19.405  1.00  0.00     0.166 HD
ENDROOT
BRANCH   1   3
HETATM    3  C   UNL     1      51.628  59.106  19.364  1.00  0.00     0.135 C 
HETATM    4  C   UNL     1      50.473  59.421  20.225  1.00  0.00     0.275 C 
HETATM    5  O   UNL     1      49.908  60.514  20.169  1.00  0.00    -0.266 OA
HETATM    6  N   UNL     1      50.049  58.429  21.072  1.00  0.00    -0.332 N 
HETATM    7  C   UNL     1      50.581  57.175  21.051  1.00  0.00     0.094 C 
ATOM      8  HN  UNL     1      49.309  58.638  21.742  1.00  0.00     0.168 HD
HETATM    9  C   UNL     1      51.410  56.770  20.046  1.00  0.00     0.056 C 
HETATM   10  C   UNL     1      51.957  57.751  19.205  1.00  0.00     0.099 C 
BRANCH  10  11
HETATM   11  O   UNL     1      52.787  57.381  18.191  1.00  0.00    -0.358 OA
ATOM     12  HO  UNL     1      53.469  56.740  18.358  1.00  0.00     0.217 HD
ENDBRANCH  10  11
ENDBRANCH   1   3
BRANCH   1  13
HETATM   13  C   UNL     1      52.266  60.657  17.554  1.00  0.00     0.102 A 
HETATM   14  C   UNL     1      53.424  60.479  16.657  1.00  0.00     0.275 A 
HETATM   15  O   UNL     1      54.329  59.703  16.932  1.00  0.00    -0.266 OA
HETATM   16  N   UNL     1      53.338  61.052  15.408  1.00  0.00    -0.289 N 
HETATM   17  C   UNL     1      52.258  61.815  14.971  1.00  0.00     0.248 A 
ATOM     18  HN  UNL     1      54.113  60.907  14.761  1.00  0.00     0.172 HD
HETATM   19  O   UNL     1      52.234  62.153  13.763  1.00  0.00    -0.268 OA
HETATM   20  C   UNL     1      51.138  61.921  15.822  1.00  0.00     0.077 A 
HETATM   21  C   UNL     1      51.192  61.403  17.105  1.00  0.00     0.040 A 
ENDBRANCH   1  13
TORSDOF 3
ENDMDL
MODEL 3
REMARK VINA RESULT:      -8.1      1.370      1.655
REMARK  3 active torsions:
REMARK  status: ('A' for Active; 'I' for Inactive)
REMARK    1  A    between atoms: N_1  and  C_10 
REMARK    2  A    between atoms: N_1  and  C_12 
REMARK    3  A    between atoms: O_5  and  C_17 
ROOT
HETATM    1  N   UNL     1      52.259  61.871  17.067  1.00  0.00    -0.345 N 
ATOM      2  HN  UNL     1      53.021  62.497  17.329  1.00  0.00     0.166 HD
ENDROOT
BRANCH   1   3
HETATM    3  C   UNL     1      51.294  62.406  16.249  1.00  0.00     0.135 C 
HETATM    4  C   UNL     1      50.147  63.133  16.824  1.00  0.00     0.275 C 
HETATM    5  O   UNL     1      50.195  63.622  17.952  1.00  0.00    -0.266 OA
HETATM    6  N   UNL     1      49.035  63.253  16.029  1.00  0.00    -0.332 N 
HETATM    7  C   UNL     1      49.016  62.831  14.733  1.00  0.00     0.094 C 
ATOM      8  HN  UNL     1      48.193  63.674  16.421  1.00  0.00     0.168 HD
HETATM    9  C   UNL     1      50.159  62.465  14.087  1.00  0.00     0.056 C 
HETATM   10  C   UNL     1      51.307  62.228  14.857  1.00  0.00     0.099 C 
BRANCH  10  11
HETATM   11  O   UNL     1      52.466  61.863  14.243  1.00  0.00    -0.358 OA
ATOM     12  HO  UNL     1      52.437  61.537  13.350  1.00  0.00     0.217 HD
ENDBRANCH  10  11
ENDBRANCH   1   3
BRANCH   1  13
HETATM   13  C   UNL     1      52.323  60.597  17.575  1.00  0.00     0.102 A 
HETATM   14  C   UNL     1      53.174  59.641  16.842  1.00  0.00     0.275 A 
HETATM   15  O   UNL     1      53.951  60.016  15.975  1.00  0.00    -0.266 OA
HETATM   16  N   UNL     1      53.216  58.350  17.322  1.00  0.00    -0.289 N 
HETATM   17  C   UNL     1      52.476  57.896  18.411  1.00  0.00     0.248 A 
ATOM     18  HN  UNL     1      53.829  57.685  16.850  1.00  0.00     0.172 HD
HETATM   19  O   UNL     1      52.717  56.742  18.838  1.00  0.00    -0.268 OA
HETATM   20  C   UNL     1      51.716  58.842  19.132  1.00  0.00     0.077 A 
HETATM   21  C   UNL     1      51.604  60.140  18.665  1.00  0.00     0.040 A 
ENDBRANCH   1  13
TORSDOF 3
ENDMDL
MODEL 4
REMARK VINA RESULT:      -8.0      1.533      2.133
REMARK  3 active torsions:
REMARK  status: ('A' for Active; 'I' for Inactive)
REMARK    1  A    between atoms: N_1  and  C_10 
REMARK    2  A    between atoms: N_1  and  C_12 
REMARK    3  A    between atoms: O_5  and  C_17 
ROOT
HETATM    1  N   UNL     1      52.647  60.280  19.027  1.00  0.00    -0.345 N 
ATOM      2  HN  UNL     1      52.916  60.833  19.841  1.00  0.00     0.166 HD
ENDROOT
BRANCH   1   3
HETATM    3  C   UNL     1      52.768  60.902  17.809  1.00  0.00     0.135 C 
HETATM    4  C   UNL     1      51.703  61.794  17.315  1.00  0.00     0.275 C 
HETATM    5  O   UNL     1      50.895  62.317  18.083  1.00  0.00    -0.266 OA
HETATM    6  N   UNL     1      51.672  62.025  15.963  1.00  0.00    -0.332 N 
HETATM    7  C   UNL     1      52.637  61.558  15.122  1.00  0.00     0.094 C 
ATOM      8  HN  UNL     1      50.901  62.566  15.575  1.00  0.00     0.168 HD
HETATM    9  C   UNL     1      53.797  61.021  15.597  1.00  0.00     0.056 C 
HETATM   10  C   UNL     1      53.856  60.669  16.953  1.00  0.00     0.099 C 
BRANCH  10  11
HETATM   11  O   UNL     1      55.000  60.133  17.460  1.00  0.00    -0.358 OA
ATOM     12  HO  UNL     1      55.005  59.223  17.736  1.00  0.00     0.217 HD
ENDBRANCH  10  11
ENDBRANCH   1   3
BRANCH   1  13
HETATM   13  C   UNL     1      52.206  59.005  19.284  1.00  0.00     0.102 A 
HETATM   14  C   UNL     1      50.942  58.887  20.036  1.00  0.00     0.275 A 
HETATM   15  O   UNL     1      50.217  59.856  20.218  1.00  0.00    -0.266 OA
HETATM   16  N   UNL     1      50.510  57.613  20.331  1.00  0.00    -0.289 N 
HETATM   17  C   UNL     1      51.212  56.455  20.007  1.00  0.00     0.248 A 
ATOM     18  HN  UNL     1      49.620  57.512  20.818  1.00  0.00     0.172 HD
HETATM   19  O   UNL     1      50.640  55.355  20.197  1.00  0.00    -0.268 OA
HETATM   20  C   UNL     1      52.386  56.589  19.235  1.00  0.00     0.077 A 
HETATM   21  C   UNL     1      52.887  57.848  18.952  1.00  0.00     0.040 A 
ENDBRANCH   1  13
TORSDOF 3
ENDMDL
MODEL 5
REMARK VINA RESULT:      -7.7      1.370      5.661
REMARK  3 active torsions:
REMARK  status: ('A' for Active; 'I' for Inactive)
REMARK    1  A    between atoms: N_1  and  C_10 
REMARK    2  A    between atoms: N_1  and  C_12 
REMARK    3  A    between atoms: O_5  and  C_17 
ROOT
HETATM    1  N   UNL     1      52.685  61.095  18.153  1.00  0.00    -0.345 N 
ATOM      2  HN  UNL     1      53.302  61.728  18.663  1.00  0.00     0.166 HD
ENDROOT
BRANCH   1   3
HETATM    3  C   UNL     1      52.511  59.850  18.703  1.00  0.00     0.135 C 
HETATM    4  C   UNL     1      53.307  58.704  18.226  1.00  0.00     0.275 C 
HETATM    5  O   UNL     1      54.378  58.864  17.641  1.00  0.00    -0.266 OA
HETATM    6  N   UNL     1      52.803  57.455  18.486  1.00  0.00    -0.332 N 
HETATM    7  C   UNL     1      51.687  57.261  19.245  1.00  0.00     0.094 C 
ATOM      8  HN  UNL     1      53.280  56.641  18.097  1.00  0.00     0.168 HD
HETATM    9  C   UNL     1      51.133  58.277  19.967  1.00  0.00     0.056 C 
HETATM   10  C   UNL     1      51.535  59.589  19.678  1.00  0.00     0.099 C 
BRANCH  10  11
HETATM   11  O   UNL     1      51.002  60.626  20.381  1.00  0.00    -0.358 OA
ATOM     12  HO  UNL     1      51.517  61.036  21.067  1.00  0.00     0.217 HD
ENDBRANCH  10  11
ENDBRANCH   1   3
BRANCH   1  13
HETATM   13  C   UNL     1      52.131  61.593  16.999  1.00  0.00     0.102 A 
HETATM   14  C   UNL     1      50.847  62.306  17.144  1.00  0.00     0.275 A 
HETATM   15  O   UNL     1      50.421  62.634  18.242  1.00  0.00    -0.266 OA
HETATM   16  N   UNL     1      50.263  62.777  15.988  1.00  0.00    -0.289 N 
HETATM   17  C   UNL     1      50.784  62.578  14.712  1.00  0.00     0.248 A 
ATOM     18  HN  UNL     1      49.395  63.305  16.073  1.00  0.00     0.172 HD
HETATM   19  O   UNL     1      50.238  63.184  13.759  1.00  0.00    -0.268 OA
HETATM   20  C   UNL     1      52.041  61.946  14.603  1.00  0.00     0.077 A 
HETATM   21  C   UNL     1      52.647  61.414  15.729  1.00  0.00     0.040 A 
ENDBRANCH   1  13
TORSDOF 3
ENDMDL
MODEL 6
REMARK VINA RESULT:      -7.7      0.964      2.062
REMARK  3 active torsions:
REMARK  status: ('A' for Active; 'I' for Inactive)
REMARK    1  A    between atoms: N_1  and  C_10 
REMARK    2  A    between atoms: N_1  and  C_12 
REMARK    3  A    between atoms: O_5  and  C_17 
ROOT
HETATM    1  N   UNL     1      52.377  60.838  17.637  1.00  0.00    -0.345 N 
ATOM      2  HN  UNL     1      53.074  61.475  18.023  1.00  0.00     0.166 HD
ENDROOT
BRANCH   1   3
HETATM    3  C   UNL     1      51.771  61.239  16.472  1.00  0.00     0.135 C 
HETATM    4  C   UNL     1      52.567  61.444  15.248  1.00  0.00     0.275 C 
HETATM    5  O   UNL     1      53.669  60.913  15.100  1.00  0.00    -0.266 OA
HETATM    6  N   UNL     1      52.010  62.237  14.278  1.00  0.00    -0.332 N 
HETATM    7  C   UNL     1      50.740  62.723  14.373  1.00  0.00     0.094 C 
ATOM      8  HN  UNL     1      52.565  62.471  13.455  1.00  0.00     0.168 HD
HETATM    9  C   UNL     1      49.877  62.275  15.330  1.00  0.00     0.056 C 
HETATM   10  C   UNL     1      50.402  61.542  16.404  1.00  0.00     0.099 C 
BRANCH  10  11
HETATM   11  O   UNL     1      49.568  61.078  17.375  1.00  0.00    -0.358 OA
ATOM     12  HO  UNL     1      49.157  60.228  17.267  1.00  0.00     0.217 HD
ENDBRANCH  10  11
ENDBRANCH   1   3
BRANCH   1  13
HETATM   13  C   UNL     1      52.158  59.683  18.347  1.00  0.00     0.102 A 
HETATM   14  C   UNL     1      52.917  58.494  17.914  1.00  0.00     0.275 A 
HETATM   15  O   UNL     1      53.848  58.585  17.125  1.00  0.00    -0.266 OA
HETATM   16  N   UNL     1      52.678  57.320  18.595  1.00  0.00    -0.289 N 
HETATM   17  C   UNL     1      51.743  57.187  19.618  1.00  0.00     0.248 A 
ATOM     18  HN  UNL     1      53.220  56.497  18.333  1.00  0.00     0.172 HD
HETATM   19  O   UNL     1      51.728  56.107  20.256  1.00  0.00    -0.268 OA
HETATM   20  C   UNL     1      51.073  58.350  20.055  1.00  0.00     0.077 A 
HETATM   21  C   UNL     1      51.244  59.543  19.375  1.00  0.00     0.040 A 
ENDBRANCH   1  13
TORSDOF 3
ENDMDL
MODEL 7
REMARK VINA RESULT:      -7.7      1.579      5.446
REMARK  3 active torsions:
REMARK  status: ('A' for Active; 'I' for Inactive)
REMARK    1  A    between atoms: N_1  and  C_10 
REMARK    2  A    between atoms: N_1  and  C_12 
REMARK    3  A    between atoms: O_5  and  C_17 
ROOT
HETATM    1  N   UNL     1      52.385  60.668  18.266  1.00  0.00    -0.345 N 
ATOM      2  HN  UNL     1      52.972  61.348  18.749  1.00  0.00     0.166 HD
ENDROOT
BRANCH   1   3
HETATM    3  C   UNL     1      52.235  59.453  18.887  1.00  0.00     0.135 C 
HETATM    4  C   UNL     1      52.996  58.277  18.425  1.00  0.00     0.275 C 
HETATM    5  O   UNL     1      54.034  58.399  17.774  1.00  0.00    -0.266 OA
HETATM    6  N   UNL     1      52.500  57.047  18.775  1.00  0.00    -0.332 N 
HETATM    7  C   UNL     1      51.427  56.902  19.603  1.00  0.00     0.094 C 
ATOM      8  HN  UNL     1      52.950  56.212  18.402  1.00  0.00     0.168 HD
HETATM    9  C   UNL     1      50.920  57.957  20.303  1.00  0.00     0.056 C 
HETATM   10  C   UNL     1      51.313  59.250  19.927  1.00  0.00     0.099 C 
BRANCH  10  11
HETATM   11  O   UNL     1      50.827  60.325  20.606  1.00  0.00    -0.358 OA
ATOM     12  HO  UNL     1      50.262  60.184  21.358  1.00  0.00     0.217 HD
ENDBRANCH  10  11
ENDBRANCH   1   3
BRANCH   1  13
HETATM   13  C   UNL     1      51.841  61.079  17.074  1.00  0.00     0.102 A 
HETATM   14  C   UNL     1      52.792  61.341  15.976  1.00  0.00     0.275 A 
HETATM   15  O   UNL     1      53.962  60.995  16.051  1.00  0.00    -0.266 OA
HETATM   16  N   UNL     1      52.260  61.790  14.787  1.00  0.00    -0.289 N 
HETATM   17  C   UNL     1      50.908  62.050  14.584  1.00  0.00     0.248 A 
ATOM     18  HN  UNL     1      52.898  61.941  14.006  1.00  0.00     0.172 HD
HETATM   19  O   UNL     1      50.533  62.310  13.415  1.00  0.00    -0.268 OA
HETATM   20  C   UNL     1      50.011  61.735  15.627  1.00  0.00     0.077 A 
HETATM   21  C   UNL     1      50.498  61.325  16.857  1.00  0.00     0.040 A 
ENDBRANCH   1  13
TORSDOF 3
ENDMDL
MODEL 8
REMARK VINA RESULT:      -7.5      2.170      4.691
REMARK  3 active torsions:
REMARK  status: ('A' for Active; 'I' for Inactive)
REMARK    1  A    between atoms: N_1  and  C_10 
REMARK    2  A    between atoms: N_1  and  C_12 
REMARK    3  A    between atoms: O_5  and  C_17 
ROOT
HETATM    1  N   UNL     1      50.960  60.520  16.548  1.00  0.00    -0.345 N 
ATOM      2  HN  UNL     1      50.413  60.076  15.811  1.00  0.00     0.166 HD
ENDROOT
BRANCH   1   3
HETATM    3  C   UNL     1      52.299  60.214  16.572  1.00  0.00     0.135 C 
HETATM    4  C   UNL     1      52.825  59.238  17.544  1.00  0.00     0.275 C 
HETATM    5  O   UNL     1      52.094  58.400  18.074  1.00  0.00    -0.266 OA
HETATM    6  N   UNL     1      54.169  59.299  17.811  1.00  0.00    -0.332 N 
HETATM    7  C   UNL     1      55.009  60.134  17.136  1.00  0.00     0.094 C 
ATOM      8  HN  UNL     1      54.553  58.698  18.540  1.00  0.00     0.168 HD
HETATM    9  C   UNL     1      54.605  60.797  16.015  1.00  0.00     0.056 C 
HETATM   10  C   UNL     1      53.231  60.856  15.741  1.00  0.00     0.099 C 
BRANCH  10  11
HETATM   11  O   UNL     1      52.793  61.508  14.629  1.00  0.00    -0.358 OA
ATOM     12  HO  UNL     1      52.044  62.089  14.695  1.00  0.00     0.217 HD
ENDBRANCH  10  11
ENDBRANCH   1   3
BRANCH   1  13
HETATM   13  C   UNL     1      50.269  61.351  17.395  1.00  0.00     0.102 A 
HETATM   14  C   UNL     1      50.232  62.779  17.026  1.00  0.00     0.275 A 
HETATM   15  O   UNL     1      50.594  63.161  15.923  1.00  0.00    -0.266 OA
HETATM   16  N   UNL     1      49.573  63.628  17.889  1.00  0.00    -0.289 N 
HETATM   17  C   UNL     1      48.994  63.226  19.090  1.00  0.00     0.248 A 
ATOM     18  HN  UNL     1      49.505  64.612  17.631  1.00  0.00     0.172 HD
HETATM   19  O   UNL     1      48.296  64.065  19.709  1.00  0.00    -0.268 OA
HETATM   20  C   UNL     1      48.990  61.848  19.392  1.00  0.00     0.077 A 
HETATM   21  C   UNL     1      49.677  60.960  18.582  1.00  0.00     0.040 A 
ENDBRANCH   1  13
TORSDOF 3
ENDMDL
MODEL 9
REMARK VINA RESULT:      -7.3      2.464      4.258
REMARK  3 active torsions:
REMARK  status: ('A' for Active; 'I' for Inactive)
REMARK    1  A    between atoms: N_1  and  C_10 
REMARK    2  A    between atoms: N_1  and  C_12 
REMARK    3  A    between atoms: O_5  and  C_17 
ROOT
HETATM    1  N   UNL     1      50.352  60.280  17.792  1.00  0.00    -0.345 N 
ATOM      2  HN  UNL     1      49.805  59.446  17.575  1.00  0.00     0.166 HD
ENDROOT
BRANCH   1   3
HETATM    3  C   UNL     1      49.668  61.311  18.388  1.00  0.00     0.135 C 
HETATM    4  C   UNL     1      49.126  62.416  17.576  1.00  0.00     0.275 C 
HETATM    5  O   UNL     1      48.913  62.285  16.370  1.00  0.00    -0.266 OA
HETATM    6  N   UNL     1      48.855  63.588  18.236  1.00  0.00    -0.332 N 
HETATM    7  C   UNL     1      48.963  63.704  19.589  1.00  0.00     0.094 C 
ATOM      8  HN  UNL     1      48.561  64.400  17.694  1.00  0.00     0.168 HD
HETATM    9  C   UNL     1      49.137  62.611  20.386  1.00  0.00     0.056 C 
HETATM   10  C   UNL     1      49.515  61.405  19.780  1.00  0.00     0.099 C 
BRANCH  10  11
HETATM   11  O   UNL     1      49.695  60.294  20.546  1.00  0.00    -0.358 OA
ATOM     12  HO  UNL     1      50.452  60.242  21.119  1.00  0.00     0.217 HD
ENDBRANCH  10  11
ENDBRANCH   1   3
BRANCH   1  13
HETATM   13  C   UNL     1      51.681  60.235  17.452  1.00  0.00     0.102 A 
HETATM   14  C   UNL     1      52.578  59.548  18.402  1.00  0.00     0.275 A 
HETATM   15  O   UNL     1      52.135  58.866  19.315  1.00  0.00    -0.266 OA
HETATM   16  N   UNL     1      53.919  59.530  18.089  1.00  0.00    -0.289 N 
HETATM   17  C   UNL     1      54.470  60.152  16.972  1.00  0.00     0.248 A 
ATOM     18  HN  UNL     1      54.548  59.028  18.716  1.00  0.00     0.172 HD
HETATM   19  O   UNL     1      55.680  59.935  16.722  1.00  0.00    -0.268 OA
HETATM   20  C   UNL     1      53.588  60.750  16.048  1.00  0.00     0.077 A 
HETATM   21  C   UNL     1      52.237  60.836  16.337  1.00  0.00     0.040 A 
ENDBRANCH   1  13
TORSDOF 3
ENDMDL
