MODEL 1
REMARK VINA RESULT:     -10.2      0.000      0.000
REMARK  7 active torsions:
REMARK  status: ('A' for Active; 'I' for Inactive)
REMARK    1  A    between atoms: O_4  and  C_38 
REMARK    2  A    between atoms: C_7  and  C_17 
REMARK    3  A    between atoms: C_7  and  C_19 
REMARK    4  A    between atoms: C_8  and  N_14 
REMARK    5  A    between atoms: C_12  and  C_29 
REMARK    6  A    between atoms: C_18  and  N_31 
REMARK    7  A    between atoms: C_36  and  C_39 
ROOT
HETATM    1  C   UNL     1     -30.732 -12.402 -19.504  1.00  0.00     0.027 C 
HETATM    2  C   UNL     1     -30.280 -11.428 -21.579  1.00  0.00     0.030 C 
HETATM    3  C   UNL     1     -31.587 -11.712 -22.003  1.00  0.00     0.103 C 
HETATM    4  N   UNL     1     -32.221 -12.683 -21.336  1.00  0.00    -0.368 N 
ATOM      5  HN  UNL     1     -33.143 -13.012 -21.622  1.00  0.00     0.165 HD
HETATM    6  C   UNL     1     -30.059 -11.398 -20.202  1.00  0.00     0.019 C 
HETATM    7  C   UNL     1     -31.583 -13.208 -20.268  1.00  0.00     0.018 C 
ENDROOT
BRANCH   2   8
HETATM    8  C   UNL     1     -29.217 -11.188 -22.587  1.00  0.00     0.193 C 
HETATM    9  O   UNL     1     -29.438 -10.603 -23.627  1.00  0.00    -0.287 OA
BRANCH   8  10
HETATM   10  C   UNL     1     -27.826 -11.613 -22.227  1.00  0.00     0.016 A 
HETATM   11  C   UNL     1     -26.905 -10.665 -21.810  1.00  0.00     0.030 A 
HETATM   12  C   UNL     1     -25.594 -11.066 -21.530  1.00  0.00     0.011 A 
HETATM   13  C   UNL     1     -25.228 -12.407 -21.631  1.00  0.00     0.018 A 
HETATM   14  C   UNL     1     -24.560 -10.164 -21.095  1.00  0.00     0.079 C 
HETATM   15  C   UNL     1     -23.858 -12.674 -21.488  1.00  0.00     0.153 C 
HETATM   16  C   UNL     1     -26.195 -13.365 -21.951  1.00  0.00     0.016 A 
HETATM   17  C   UNL     1     -23.130 -11.949 -20.536  1.00  0.00     0.068 C 
HETATM   18  F   UNL     1     -23.175 -12.952 -22.617  1.00  0.00    -0.203 F 
HETATM   19  C   UNL     1     -23.580 -10.645 -20.229  1.00  0.00     0.069 C 
HETATM   20  C   UNL     1     -27.493 -12.969 -22.222  1.00  0.00     0.016 A 
BRANCH  17  21
HETATM   21  N   UNL     1     -21.988 -12.457 -20.003  1.00  0.00    -0.397 N 
ATOM     22  HN2 UNL     1     -21.209 -11.858 -19.728  1.00  0.00     0.156 HD
ATOM     23  HN1 UNL     1     -21.852 -13.465 -19.926  1.00  0.00     0.156 HD
ENDBRANCH  17  21
BRANCH  14  24
HETATM   24  O   UNL     1     -24.266  -9.162 -21.915  1.00  0.00    -0.360 OA
ATOM     25  HO  UNL     1     -23.720  -8.471 -21.559  1.00  0.00     0.217 HD
ENDBRANCH  14  24
ENDBRANCH   8  10
ENDBRANCH   2   8
BRANCH   7  26
HETATM   26  C   UNL     1     -31.941 -14.599 -19.874  1.00  0.00     0.005 C 
HETATM   27  C   UNL     1     -30.640 -15.384 -19.740  1.00  0.00     0.055 C 
HETATM   28  C   UNL     1     -31.158 -16.804 -19.944  1.00  0.00     0.138 C 
HETATM   29  C   UNL     1     -32.107 -16.682 -21.117  1.00  0.00     0.041 C 
HETATM   30  C   UNL     1     -31.909 -17.196 -18.693  1.00  0.00     0.122 C 
HETATM   31  C   UNL     1     -32.681 -15.278 -21.016  1.00  0.00     0.018 C 
HETATM   32  C   UNL     1     -32.892 -16.221 -18.116  1.00  0.00     0.019 C 
HETATM   33  C   UNL     1     -32.694 -14.764 -18.558  1.00  0.00     0.017 C 
BRANCH  28  34
HETATM   34  N   UNL     1     -30.043 -17.707 -20.197  1.00  0.00    -0.070 N 
ATOM     35  HN3 UNL     1     -29.293 -17.254 -20.720  1.00  0.00     0.275 HD
ATOM     36  HN2 UNL     1     -29.523 -17.921 -19.345  1.00  0.00     0.275 HD
ATOM     37  HN1 UNL     1     -30.377 -18.551 -20.662  1.00  0.00     0.275 HD
ENDBRANCH  28  34
BRANCH  30  38
HETATM   38  C   UNL     1     -31.445 -18.465 -18.073  1.00  0.00     0.179 C 
HETATM   39  O   UNL     1     -31.825 -19.537 -18.592  1.00  0.00    -0.648 OA
HETATM   40  O   UNL     1     -30.535 -18.357 -17.210  1.00  0.00    -0.648 OA
ENDBRANCH  30  38
ENDBRANCH   7  26
TORSDOF 7
ENDMDL
MODEL 2
REMARK VINA RESULT:     -10.1      3.597      5.426
REMARK  7 active torsions:
REMARK  status: ('A' for Active; 'I' for Inactive)
REMARK    1  A    between atoms: O_4  and  C_38 
REMARK    2  A    between atoms: C_7  and  C_17 
REMARK    3  A    between atoms: C_7  and  C_19 
REMARK    4  A    between atoms: C_8  and  N_14 
REMARK    5  A    between atoms: C_12  and  C_29 
REMARK    6  A    between atoms: C_18  and  N_31 
REMARK    7  A    between atoms: C_36  and  C_39 
ROOT
HETATM    1  C   UNL     1     -32.013 -13.946 -22.796  1.00  0.00     0.027 C 
HETATM    2  C   UNL     1     -30.329 -12.428 -22.234  1.00  0.00     0.030 C 
HETATM    3  C   UNL     1     -31.101 -11.960 -21.161  1.00  0.00     0.103 C 
HETATM    4  N   UNL     1     -32.415 -12.195 -21.239  1.00  0.00    -0.368 N 
ATOM      5  HN  UNL     1     -33.065 -11.825 -20.545  1.00  0.00     0.165 HD
HETATM    6  C   UNL     1     -30.643 -13.695 -22.728  1.00  0.00     0.019 C 
HETATM    7  C   UNL     1     -32.842 -12.945 -22.278  1.00  0.00     0.018 C 
ENDROOT
BRANCH   2   8
HETATM    8  C   UNL     1     -29.248 -11.575 -22.788  1.00  0.00     0.193 C 
HETATM    9  O   UNL     1     -29.484 -10.598 -23.469  1.00  0.00    -0.287 OA
BRANCH   8  10
HETATM   10  C   UNL     1     -27.843 -11.910 -22.391  1.00  0.00     0.016 A 
HETATM   11  C   UNL     1     -27.007 -10.913 -21.915  1.00  0.00     0.030 A 
HETATM   12  C   UNL     1     -25.680 -11.227 -21.599  1.00  0.00     0.011 A 
HETATM   13  C   UNL     1     -25.215 -12.535 -21.726  1.00  0.00     0.018 A 
HETATM   14  C   UNL     1     -24.729 -10.268 -21.103  1.00  0.00     0.079 C 
HETATM   15  C   UNL     1     -23.835 -12.708 -21.542  1.00  0.00     0.153 C 
HETATM   16  C   UNL     1     -26.099 -13.550 -22.107  1.00  0.00     0.016 A 
HETATM   17  C   UNL     1     -23.193 -11.964 -20.544  1.00  0.00     0.068 C 
HETATM   18  F   UNL     1     -23.096 -12.902 -22.654  1.00  0.00    -0.203 F 
HETATM   19  C   UNL     1     -23.746 -10.705 -20.216  1.00  0.00     0.069 C 
HETATM   20  C   UNL     1     -27.412 -13.238 -22.413  1.00  0.00     0.016 A 
BRANCH  17  21
HETATM   21  N   UNL     1     -22.036 -12.405 -19.986  1.00  0.00    -0.397 N 
ATOM     22  HN2 UNL     1     -21.991 -13.276 -19.457  1.00  0.00     0.156 HD
ATOM     23  HN1 UNL     1     -21.189 -11.837 -20.024  1.00  0.00     0.156 HD
ENDBRANCH  17  21
BRANCH  14  24
HETATM   24  O   UNL     1     -24.481  -9.223 -21.883  1.00  0.00    -0.360 OA
ATOM     25  HO  UNL     1     -24.693  -8.368 -21.525  1.00  0.00     0.217 HD
ENDBRANCH  14  24
ENDBRANCH   8  10
ENDBRANCH   2   8
BRANCH   7  26
HETATM   26  C   UNL     1     -34.250 -12.755 -22.726  1.00  0.00     0.005 C 
HETATM   27  C   UNL     1     -34.403 -11.295 -23.140  1.00  0.00     0.055 C 
HETATM   28  C   UNL     1     -35.909 -11.123 -22.976  1.00  0.00     0.138 C 
HETATM   29  C   UNL     1     -36.213 -11.800 -21.657  1.00  0.00     0.041 C 
HETATM   30  C   UNL     1     -36.575 -11.860 -24.115  1.00  0.00     0.122 C 
HETATM   31  C   UNL     1     -35.188 -12.916 -21.540  1.00  0.00     0.018 C 
HETATM   32  C   UNL     1     -36.109 -13.250 -24.435  1.00  0.00     0.019 C 
HETATM   33  C   UNL     1     -34.710 -13.601 -23.908  1.00  0.00     0.017 C 
BRANCH  28  34
HETATM   34  N   UNL     1     -36.252  -9.707 -22.990  1.00  0.00    -0.070 N 
ATOM     35  HN3 UNL     1     -36.380  -9.334 -22.049  1.00  0.00     0.275 HD
ATOM     36  HN2 UNL     1     -35.463  -9.125 -23.275  1.00  0.00     0.275 HD
ATOM     37  HN1 UNL     1     -37.071  -9.553 -23.577  1.00  0.00     0.275 HD
ENDBRANCH  28  34
BRANCH  30  38
HETATM   38  C   UNL     1     -37.519 -11.032 -24.911  1.00  0.00     0.179 C 
HETATM   39  O   UNL     1     -38.679 -10.886 -24.466  1.00  0.00    -0.648 OA
HETATM   40  O   UNL     1     -37.013 -10.369 -25.853  1.00  0.00    -0.648 OA
ENDBRANCH  30  38
ENDBRANCH   7  26
TORSDOF 7
ENDMDL
MODEL 3
REMARK VINA RESULT:     -10.1      1.187      1.576
REMARK  7 active torsions:
REMARK  status: ('A' for Active; 'I' for Inactive)
REMARK    1  A    between atoms: O_4  and  C_38 
REMARK    2  A    between atoms: C_7  and  C_17 
REMARK    3  A    between atoms: C_7  and  C_19 
REMARK    4  A    between atoms: C_8  and  N_14 
REMARK    5  A    between atoms: C_12  and  C_29 
REMARK    6  A    between atoms: C_18  and  N_31 
REMARK    7  A    between atoms: C_36  and  C_39 
ROOT
HETATM    1  C   UNL     1     -30.839 -12.879 -19.598  1.00  0.00     0.027 C 
HETATM    2  C   UNL     1     -30.387 -11.649 -21.532  1.00  0.00     0.030 C 
HETATM    3  C   UNL     1     -31.697 -11.866 -21.982  1.00  0.00     0.103 C 
HETATM    4  N   UNL     1     -32.336 -12.910 -21.444  1.00  0.00    -0.368 N 
ATOM      5  HN  UNL     1     -33.263 -13.193 -21.765  1.00  0.00     0.165 HD
HETATM    6  C   UNL     1     -30.161 -11.799 -20.163  1.00  0.00     0.019 C 
HETATM    7  C   UNL     1     -31.699 -13.574 -20.455  1.00  0.00     0.018 C 
ENDROOT
BRANCH   2   8
HETATM    8  C   UNL     1     -29.326 -11.289 -22.506  1.00  0.00     0.193 C 
HETATM    9  O   UNL     1     -29.559 -10.625 -23.494  1.00  0.00    -0.287 OA
BRANCH   8  10
HETATM   10  C   UNL     1     -27.924 -11.696 -22.169  1.00  0.00     0.016 A 
HETATM   11  C   UNL     1     -27.006 -10.736 -21.774  1.00  0.00     0.030 A 
HETATM   12  C   UNL     1     -25.685 -11.121 -21.517  1.00  0.00     0.011 A 
HETATM   13  C   UNL     1     -25.306 -12.459 -21.618  1.00  0.00     0.018 A 
HETATM   14  C   UNL     1     -24.653 -10.206 -21.106  1.00  0.00     0.079 C 
HETATM   15  C   UNL     1     -23.931 -12.710 -21.499  1.00  0.00     0.153 C 
HETATM   16  C   UNL     1     -26.268 -13.429 -21.915  1.00  0.00     0.016 A 
HETATM   17  C   UNL     1     -23.193 -11.972 -20.565  1.00  0.00     0.068 C 
HETATM   18  F   UNL     1     -23.266 -12.986 -22.640  1.00  0.00    -0.203 F 
HETATM   19  C   UNL     1     -23.652 -10.672 -20.256  1.00  0.00     0.069 C 
HETATM   20  C   UNL     1     -27.575 -13.049 -22.164  1.00  0.00     0.016 A 
BRANCH  17  21
HETATM   21  N   UNL     1     -22.036 -12.465 -20.051  1.00  0.00    -0.397 N 
ATOM     22  HN2 UNL     1     -22.025 -13.264 -19.418  1.00  0.00     0.156 HD
ATOM     23  HN1 UNL     1     -21.146 -12.001 -20.234  1.00  0.00     0.156 HD
ENDBRANCH  17  21
BRANCH  14  24
HETATM   24  O   UNL     1     -24.386  -9.205 -21.936  1.00  0.00    -0.360 OA
ATOM     25  HO  UNL     1     -24.630  -9.333 -22.846  1.00  0.00     0.217 HD
ENDBRANCH  14  24
ENDBRANCH   8  10
ENDBRANCH   2   8
BRANCH   7  26
HETATM   26  C   UNL     1     -32.066 -15.001 -20.242  1.00  0.00     0.005 C 
HETATM   27  C   UNL     1     -32.502 -15.148 -18.788  1.00  0.00     0.055 C 
HETATM   28  C   UNL     1     -32.253 -16.638 -18.579  1.00  0.00     0.138 C 
HETATM   29  C   UNL     1     -30.904 -16.877 -19.221  1.00  0.00     0.041 C 
HETATM   30  C   UNL     1     -33.334 -17.386 -19.324  1.00  0.00     0.122 C 
HETATM   31  C   UNL     1     -30.824 -15.871 -20.357  1.00  0.00     0.018 C 
HETATM   32  C   UNL     1     -33.651 -16.970 -20.730  1.00  0.00     0.019 C 
HETATM   33  C   UNL     1     -33.200 -15.550 -21.102  1.00  0.00     0.017 C 
BRANCH  28  34
HETATM   34  N   UNL     1     -32.278 -16.950 -17.156  1.00  0.00    -0.070 N 
ATOM     35  HN3 UNL     1     -32.213 -17.954 -16.983  1.00  0.00     0.275 HD
ATOM     36  HN2 UNL     1     -31.420 -16.662 -16.686  1.00  0.00     0.275 HD
ATOM     37  HN1 UNL     1     -33.106 -16.541 -16.725  1.00  0.00     0.275 HD
ENDBRANCH  28  34
BRANCH  30  38
HETATM   38  C   UNL     1     -34.090 -18.358 -18.492  1.00  0.00     0.179 C 
HETATM   39  O   UNL     1     -33.612 -19.507 -18.362  1.00  0.00    -0.648 OA
HETATM   40  O   UNL     1     -35.035 -17.883 -17.810  1.00  0.00    -0.648 OA
ENDBRANCH  30  38
ENDBRANCH   7  26
TORSDOF 7
ENDMDL
MODEL 4
REMARK VINA RESULT:      -9.4      3.378      5.326
REMARK  7 active torsions:
REMARK  status: ('A' for Active; 'I' for Inactive)
REMARK    1  A    between atoms: O_4  and  C_38 
REMARK    2  A    between atoms: C_7  and  C_17 
REMARK    3  A    between atoms: C_7  and  C_19 
REMARK    4  A    between atoms: C_8  and  N_14 
REMARK    5  A    between atoms: C_12  and  C_29 
REMARK    6  A    between atoms: C_18  and  N_31 
REMARK    7  A    between atoms: C_36  and  C_39 
ROOT
HETATM    1  C   UNL     1     -30.942 -11.885 -20.287  1.00  0.00     0.027 C 
HETATM    2  C   UNL     1     -29.150 -10.987 -21.487  1.00  0.00     0.030 C 
HETATM    3  C   UNL     1     -30.044 -10.400 -22.395  1.00  0.00     0.103 C 
HETATM    4  N   UNL     1     -31.266 -10.942 -22.446  1.00  0.00    -0.368 N 
ATOM      5  HN  UNL     1     -31.958 -10.635 -23.129  1.00  0.00     0.165 HD
HETATM    6  C   UNL     1     -29.662 -11.333 -20.236  1.00  0.00     0.019 C 
HETATM    7  C   UNL     1     -31.541 -11.917 -21.551  1.00  0.00     0.018 C 
ENDROOT
BRANCH   2   8
HETATM    8  C   UNL     1     -27.739 -11.215 -21.890  1.00  0.00     0.193 C 
HETATM    9  O   UNL     1     -26.978 -10.298 -22.112  1.00  0.00    -0.287 OA
BRANCH   8  10
HETATM   10  C   UNL     1     -27.259 -12.634 -21.917  1.00  0.00     0.016 A 
HETATM   11  C   UNL     1     -28.136 -13.651 -22.259  1.00  0.00     0.030 A 
HETATM   12  C   UNL     1     -27.691 -14.976 -22.226  1.00  0.00     0.011 A 
HETATM   13  C   UNL     1     -26.369 -15.269 -21.893  1.00  0.00     0.018 A 
HETATM   14  C   UNL     1     -28.519 -16.106 -22.557  1.00  0.00     0.079 C 
HETATM   15  C   UNL     1     -26.072 -16.632 -21.731  1.00  0.00     0.153 C 
HETATM   16  C   UNL     1     -25.469 -14.227 -21.653  1.00  0.00     0.016 A 
HETATM   17  C   UNL     1     -26.663 -17.554 -22.604  1.00  0.00     0.068 C 
HETATM   18  F   UNL     1     -25.933 -17.074 -20.465  1.00  0.00    -0.203 F 
HETATM   19  C   UNL     1     -27.922 -17.217 -23.150  1.00  0.00     0.069 C 
HETATM   20  C   UNL     1     -25.910 -12.915 -21.691  1.00  0.00     0.016 A 
BRANCH  17  21
HETATM   21  N   UNL     1     -26.081 -18.759 -22.837  1.00  0.00    -0.397 N 
ATOM     22  HN2 UNL     1     -26.438 -19.402 -23.545  1.00  0.00     0.156 HD
ATOM     23  HN1 UNL     1     -25.305 -19.083 -22.260  1.00  0.00     0.156 HD
ENDBRANCH  17  21
BRANCH  14  24
HETATM   24  O   UNL     1     -29.614 -16.270 -21.824  1.00  0.00    -0.360 OA
ATOM     25  HO  UNL     1     -30.261 -15.576 -21.869  1.00  0.00     0.217 HD
ENDBRANCH  14  24
ENDBRANCH   8  10
ENDBRANCH   2   8
BRANCH   7  26
HETATM   26  C   UNL     1     -32.594 -12.904 -21.918  1.00  0.00     0.005 C 
HETATM   27  C   UNL     1     -33.663 -12.158 -22.708  1.00  0.00     0.055 C 
HETATM   28  C   UNL     1     -34.860 -13.074 -22.477  1.00  0.00     0.138 C 
HETATM   29  C   UNL     1     -34.790 -13.402 -21.001  1.00  0.00     0.041 C 
HETATM   30  C   UNL     1     -34.646 -14.318 -23.307  1.00  0.00     0.122 C 
HETATM   31  C   UNL     1     -33.308 -13.378 -20.662  1.00  0.00     0.018 C 
HETATM   32  C   UNL     1     -33.300 -14.981 -23.263  1.00  0.00     0.019 C 
HETATM   33  C   UNL     1     -32.153 -14.086 -22.775  1.00  0.00     0.017 C 
BRANCH  28  34
HETATM   34  N   UNL     1     -36.089 -12.390 -22.857  1.00  0.00    -0.070 N 
ATOM     35  HN3 UNL     1     -35.932 -11.702 -23.594  1.00  0.00     0.275 HD
ATOM     36  HN2 UNL     1     -36.729 -13.004 -23.361  1.00  0.00     0.275 HD
ATOM     37  HN1 UNL     1     -36.526 -11.975 -22.034  1.00  0.00     0.275 HD
ENDBRANCH  28  34
BRANCH  30  38
HETATM   38  C   UNL     1     -35.770 -14.645 -24.222  1.00  0.00     0.179 C 
HETATM   39  O   UNL     1     -36.608 -15.489 -23.834  1.00  0.00    -0.648 OA
HETATM   40  O   UNL     1     -35.909 -13.889 -25.218  1.00  0.00    -0.648 OA
ENDBRANCH  30  38
ENDBRANCH   7  26
TORSDOF 7
ENDMDL
MODEL 5
REMARK VINA RESULT:      -9.1      4.662      8.804
REMARK  7 active torsions:
REMARK  status: ('A' for Active; 'I' for Inactive)
REMARK    1  A    between atoms: O_4  and  C_38 
REMARK    2  A    between atoms: C_7  and  C_17 
REMARK    3  A    between atoms: C_7  and  C_19 
REMARK    4  A    between atoms: C_8  and  N_14 
REMARK    5  A    between atoms: C_12  and  C_29 
REMARK    6  A    between atoms: C_18  and  N_31 
REMARK    7  A    between atoms: C_36  and  C_39 
ROOT
HETATM    1  C   UNL     1     -32.806 -15.561 -20.994  1.00  0.00     0.027 C 
HETATM    2  C   UNL     1     -34.354 -15.622 -22.743  1.00  0.00     0.030 C 
HETATM    3  C   UNL     1     -33.307 -15.621 -23.677  1.00  0.00     0.103 C 
HETATM    4  N   UNL     1     -32.131 -15.157 -23.238  1.00  0.00    -0.368 N 
ATOM      5  HN  UNL     1     -31.334 -15.046 -23.864  1.00  0.00     0.165 HD
HETATM    6  C   UNL     1     -34.039 -16.032 -21.447  1.00  0.00     0.019 C 
HETATM    7  C   UNL     1     -32.049 -14.844 -21.926  1.00  0.00     0.018 C 
ENDROOT
BRANCH   2   8
HETATM    8  C   UNL     1     -35.711 -15.190 -23.161  1.00  0.00     0.193 C 
HETATM    9  O   UNL     1     -36.658 -15.948 -23.153  1.00  0.00    -0.287 OA
BRANCH   8  10
HETATM   10  C   UNL     1     -35.891 -13.743 -23.505  1.00  0.00     0.016 A 
HETATM   11  C   UNL     1     -35.388 -12.768 -22.658  1.00  0.00     0.030 A 
HETATM   12  C   UNL     1     -35.611 -11.421 -22.961  1.00  0.00     0.011 A 
HETATM   13  C   UNL     1     -36.297 -11.061 -24.120  1.00  0.00     0.018 A 
HETATM   14  C   UNL     1     -35.138 -10.331 -22.149  1.00  0.00     0.079 C 
HETATM   15  C   UNL     1     -36.607  -9.698 -24.243  1.00  0.00     0.153 C 
HETATM   16  C   UNL     1     -36.706 -12.053 -25.017  1.00  0.00     0.016 A 
HETATM   17  C   UNL     1     -35.663  -8.755 -23.818  1.00  0.00     0.068 C 
HETATM   18  F   UNL     1     -37.888  -9.346 -24.011  1.00  0.00    -0.203 F 
HETATM   19  C   UNL     1     -34.786  -9.138 -22.778  1.00  0.00     0.069 C 
HETATM   20  C   UNL     1     -36.480 -13.385 -24.720  1.00  0.00     0.016 A 
BRANCH  17  21
HETATM   21  N   UNL     1     -35.659  -7.497 -24.332  1.00  0.00    -0.397 N 
ATOM     22  HN2 UNL     1     -34.885  -6.853 -24.171  1.00  0.00     0.156 HD
ATOM     23  HN1 UNL     1     -36.468  -7.139 -24.839  1.00  0.00     0.156 HD
ENDBRANCH  17  21
BRANCH  14  24
HETATM   24  O   UNL     1     -35.564 -10.302 -20.892  1.00  0.00    -0.360 OA
ATOM     25  HO  UNL     1     -34.897 -10.210 -20.221  1.00  0.00     0.217 HD
ENDBRANCH  14  24
ENDBRANCH   8  10
ENDBRANCH   2   8
BRANCH   7  26
HETATM   26  C   UNL     1     -31.031 -13.832 -21.528  1.00  0.00     0.005 C 
HETATM   27  C   UNL     1     -30.185 -13.527 -22.760  1.00  0.00     0.055 C 
HETATM   28  C   UNL     1     -28.912 -13.014 -22.095  1.00  0.00     0.138 C 
HETATM   29  C   UNL     1     -28.671 -13.990 -20.965  1.00  0.00     0.041 C 
HETATM   30  C   UNL     1     -29.210 -11.636 -21.551  1.00  0.00     0.122 C 
HETATM   31  C   UNL     1     -30.055 -14.452 -20.540  1.00  0.00     0.018 C 
HETATM   32  C   UNL     1     -30.478 -11.435 -20.774  1.00  0.00     0.019 C 
HETATM   33  C   UNL     1     -31.559 -12.498 -21.012  1.00  0.00     0.017 C 
BRANCH  28  34
HETATM   34  N   UNL     1     -27.827 -12.975 -23.066  1.00  0.00    -0.070 N 
ATOM     35  HN3 UNL     1     -26.914 -13.085 -22.624  1.00  0.00     0.275 HD
ATOM     36  HN2 UNL     1     -27.809 -13.809 -23.654  1.00  0.00     0.275 HD
ATOM     37  HN1 UNL     1     -27.884 -12.120 -23.618  1.00  0.00     0.275 HD
ENDBRANCH  28  34
BRANCH  30  38
HETATM   38  C   UNL     1     -28.270 -10.580 -22.010  1.00  0.00     0.179 C 
HETATM   39  O   UNL     1     -27.075 -10.672 -21.653  1.00  0.00    -0.648 OA
HETATM   40  O   UNL     1     -28.706  -9.800 -22.896  1.00  0.00    -0.648 OA
ENDBRANCH  30  38
ENDBRANCH   7  26
TORSDOF 7
ENDMDL
MODEL 6
REMARK VINA RESULT:      -9.1      3.257      8.026
REMARK  7 active torsions:
REMARK  status: ('A' for Active; 'I' for Inactive)
REMARK    1  A    between atoms: O_4  and  C_38 
REMARK    2  A    between atoms: C_7  and  C_17 
REMARK    3  A    between atoms: C_7  and  C_19 
REMARK    4  A    between atoms: C_8  and  N_14 
REMARK    5  A    between atoms: C_12  and  C_29 
REMARK    6  A    between atoms: C_18  and  N_31 
REMARK    7  A    between atoms: C_36  and  C_39 
ROOT
HETATM    1  C   UNL     1     -28.594 -16.590 -20.252  1.00  0.00     0.027 C 
HETATM    2  C   UNL     1     -30.557 -17.518 -21.115  1.00  0.00     0.030 C 
HETATM    3  C   UNL     1     -29.936 -17.687 -22.361  1.00  0.00     0.103 C 
HETATM    4  N   UNL     1     -28.866 -16.917 -22.591  1.00  0.00    -0.368 N 
ATOM      5  HN  UNL     1     -28.396 -16.912 -23.496  1.00  0.00     0.165 HD
HETATM    6  C   UNL     1     -29.718 -17.381 -20.009  1.00  0.00     0.019 C 
HETATM    7  C   UNL     1     -28.437 -16.145 -21.568  1.00  0.00     0.018 C 
ENDROOT
BRANCH   2   8
HETATM    8  C   UNL     1     -32.039 -17.486 -21.032  1.00  0.00     0.193 C 
HETATM    9  O   UNL     1     -32.682 -18.439 -20.643  1.00  0.00    -0.287 OA
BRANCH   8  10
HETATM   10  C   UNL     1     -32.712 -16.187 -21.355  1.00  0.00     0.016 A 
HETATM   11  C   UNL     1     -31.986 -15.008 -21.314  1.00  0.00     0.030 A 
HETATM   12  C   UNL     1     -32.639 -13.796 -21.563  1.00  0.00     0.011 A 
HETATM   13  C   UNL     1     -33.994 -13.777 -21.886  1.00  0.00     0.018 A 
HETATM   14  C   UNL     1     -31.981 -12.516 -21.541  1.00  0.00     0.079 C 
HETATM   15  C   UNL     1     -34.584 -12.505 -21.955  1.00  0.00     0.153 C 
HETATM   16  C   UNL     1     -34.689 -14.982 -22.026  1.00  0.00     0.016 A 
HETATM   17  C   UNL     1     -33.845 -11.453 -22.512  1.00  0.00     0.068 C 
HETATM   18  F   UNL     1     -35.369 -12.146 -20.919  1.00  0.00    -0.203 F 
HETATM   19  C   UNL     1     -32.438 -11.520 -22.403  1.00  0.00     0.069 C 
HETATM   20  C   UNL     1     -34.041 -16.181 -21.786  1.00  0.00     0.016 A 
BRANCH  17  21
HETATM   21  N   UNL     1     -34.472 -10.376 -23.052  1.00  0.00    -0.397 N 
ATOM     22  HN2 UNL     1     -34.837 -10.388 -24.005  1.00  0.00     0.156 HD
ATOM     23  HN1 UNL     1     -34.535  -9.498 -22.538  1.00  0.00     0.156 HD
ENDBRANCH  17  21
BRANCH  14  24
HETATM   24  O   UNL     1     -31.397 -12.170 -20.401  1.00  0.00    -0.360 OA
ATOM     25  HO  UNL     1     -31.080 -12.881 -19.855  1.00  0.00     0.217 HD
ENDBRANCH  14  24
ENDBRANCH   8  10
ENDBRANCH   2   8
BRANCH   7  26
HETATM   26  C   UNL     1     -27.680 -14.910 -21.915  1.00  0.00     0.005 C 
HETATM   27  C   UNL     1     -28.119 -13.818 -20.946  1.00  0.00     0.055 C 
HETATM   28  C   UNL     1     -27.769 -12.577 -21.759  1.00  0.00     0.138 C 
HETATM   29  C   UNL     1     -28.264 -12.901 -23.153  1.00  0.00     0.041 C 
HETATM   30  C   UNL     1     -26.265 -12.439 -21.750  1.00  0.00     0.122 C 
HETATM   31  C   UNL     1     -28.120 -14.408 -23.281  1.00  0.00     0.018 C 
HETATM   32  C   UNL     1     -25.435 -13.657 -22.031  1.00  0.00     0.019 C 
HETATM   33  C   UNL     1     -26.160 -14.995 -21.827  1.00  0.00     0.017 C 
BRANCH  28  34
HETATM   34  N   UNL     1     -28.411 -11.405 -21.177  1.00  0.00    -0.070 N 
ATOM     35  HN3 UNL     1     -28.869 -11.620 -20.291  1.00  0.00     0.275 HD
ATOM     36  HN2 UNL     1     -27.731 -10.727 -20.834  1.00  0.00     0.275 HD
ATOM     37  HN1 UNL     1     -29.057 -10.992 -21.850  1.00  0.00     0.275 HD
ENDBRANCH  28  34
BRANCH  30  38
HETATM   38  C   UNL     1     -25.774 -11.116 -21.282  1.00  0.00     0.179 C 
HETATM   39  O   UNL     1     -24.945 -11.102 -20.346  1.00  0.00    -0.648 OA
HETATM   40  O   UNL     1     -26.067 -10.130 -22.008  1.00  0.00    -0.648 OA
ENDBRANCH  30  38
ENDBRANCH   7  26
TORSDOF 7
ENDMDL
MODEL 7
REMARK VINA RESULT:      -9.0      3.056      8.448
REMARK  7 active torsions:
REMARK  status: ('A' for Active; 'I' for Inactive)
REMARK    1  A    between atoms: O_4  and  C_38 
REMARK    2  A    between atoms: C_7  and  C_17 
REMARK    3  A    between atoms: C_7  and  C_19 
REMARK    4  A    between atoms: C_8  and  N_14 
REMARK    5  A    between atoms: C_12  and  C_29 
REMARK    6  A    between atoms: C_18  and  N_31 
REMARK    7  A    between atoms: C_36  and  C_39 
ROOT
HETATM    1  C   UNL     1     -28.457 -16.690 -20.275  1.00  0.00     0.027 C 
HETATM    2  C   UNL     1     -30.526 -17.531 -20.961  1.00  0.00     0.030 C 
HETATM    3  C   UNL     1     -30.055 -17.631 -22.279  1.00  0.00     0.103 C 
HETATM    4  N   UNL     1     -29.002 -16.865 -22.583  1.00  0.00    -0.368 N 
ATOM      5  HN  UNL     1     -28.638 -16.811 -23.534  1.00  0.00     0.165 HD
HETATM    6  C   UNL     1     -29.563 -17.476 -19.952  1.00  0.00     0.019 C 
HETATM    7  C   UNL     1     -28.442 -16.165 -21.572  1.00  0.00     0.018 C 
ENDROOT
BRANCH   2   8
HETATM    8  C   UNL     1     -31.988 -17.481 -20.706  1.00  0.00     0.193 C 
HETATM    9  O   UNL     1     -32.641 -18.484 -20.512  1.00  0.00    -0.287 OA
BRANCH   8  10
HETATM   10  C   UNL     1     -32.615 -16.125 -20.598  1.00  0.00     0.016 A 
HETATM   11  C   UNL     1     -33.503 -15.698 -21.573  1.00  0.00     0.030 A 
HETATM   12  C   UNL     1     -34.039 -14.409 -21.490  1.00  0.00     0.011 A 
HETATM   13  C   UNL     1     -33.715 -13.576 -20.420  1.00  0.00     0.018 A 
HETATM   14  C   UNL     1     -34.964 -13.866 -22.450  1.00  0.00     0.079 C 
HETATM   15  C   UNL     1     -34.175 -12.254 -20.519  1.00  0.00     0.153 C 
HETATM   16  C   UNL     1     -32.902 -14.059 -19.390  1.00  0.00     0.016 A 
HETATM   17  C   UNL     1     -35.446 -12.026 -21.062  1.00  0.00     0.068 C 
HETATM   18  F   UNL     1     -33.258 -11.317 -20.837  1.00  0.00    -0.203 F 
HETATM   19  C   UNL     1     -35.926 -12.961 -22.006  1.00  0.00     0.069 C 
HETATM   20  C   UNL     1     -32.376 -15.336 -19.470  1.00  0.00     0.016 A 
BRANCH  17  21
HETATM   21  N   UNL     1     -36.140 -10.900 -20.751  1.00  0.00    -0.397 N 
ATOM     22  HN2 UNL     1     -36.547 -10.757 -19.827  1.00  0.00     0.156 HD
ATOM     23  HN1 UNL     1     -36.331 -10.193 -21.461  1.00  0.00     0.156 HD
ENDBRANCH  17  21
BRANCH  14  24
HETATM   24  O   UNL     1     -34.541 -13.800 -23.706  1.00  0.00    -0.360 OA
ATOM     25  HO  UNL     1     -33.600 -13.828 -23.838  1.00  0.00     0.217 HD
ENDBRANCH  14  24
ENDBRANCH   8  10
ENDBRANCH   2   8
BRANCH   7  26
HETATM   26  C   UNL     1     -27.700 -14.923 -21.928  1.00  0.00     0.005 C 
HETATM   27  C   UNL     1     -28.102 -13.849 -20.924  1.00  0.00     0.055 C 
HETATM   28  C   UNL     1     -27.788 -12.593 -21.730  1.00  0.00     0.138 C 
HETATM   29  C   UNL     1     -28.338 -12.894 -23.107  1.00  0.00     0.041 C 
HETATM   30  C   UNL     1     -26.284 -12.451 -21.779  1.00  0.00     0.122 C 
HETATM   31  C   UNL     1     -28.197 -14.399 -23.266  1.00  0.00     0.018 C 
HETATM   32  C   UNL     1     -25.464 -13.663 -22.114  1.00  0.00     0.019 C 
HETATM   33  C   UNL     1     -26.178 -15.006 -21.903  1.00  0.00     0.017 C 
BRANCH  28  34
HETATM   34  N   UNL     1     -28.407 -11.433 -21.102  1.00  0.00    -0.070 N 
ATOM     35  HN3 UNL     1     -28.593 -11.586 -20.111  1.00  0.00     0.275 HD
ATOM     36  HN2 UNL     1     -27.756 -10.652 -21.013  1.00  0.00     0.275 HD
ATOM     37  HN1 UNL     1     -29.250 -11.170 -21.613  1.00  0.00     0.275 HD
ENDBRANCH  28  34
BRANCH  30  38
HETATM   38  C   UNL     1     -25.777 -11.135 -21.309  1.00  0.00     0.179 C 
HETATM   39  O   UNL     1     -24.841 -11.137 -20.479  1.00  0.00    -0.648 OA
HETATM   40  O   UNL     1     -26.183 -10.129 -21.946  1.00  0.00    -0.648 OA
ENDBRANCH  30  38
ENDBRANCH   7  26
TORSDOF 7
ENDMDL
MODEL 8
REMARK VINA RESULT:      -8.9      4.044      6.347
REMARK  7 active torsions:
REMARK  status: ('A' for Active; 'I' for Inactive)
REMARK    1  A    between atoms: O_4  and  C_38 
REMARK    2  A    between atoms: C_7  and  C_17 
REMARK    3  A    between atoms: C_7  and  C_19 
REMARK    4  A    between atoms: C_8  and  N_14 
REMARK    5  A    between atoms: C_12  and  C_29 
REMARK    6  A    between atoms: C_18  and  N_31 
REMARK    7  A    between atoms: C_36  and  C_39 
ROOT
HETATM    1  C   UNL     1     -33.107 -14.427 -23.529  1.00  0.00     0.027 C 
HETATM    2  C   UNL     1     -32.231 -14.631 -21.373  1.00  0.00     0.030 C 
HETATM    3  C   UNL     1     -33.421 -15.234 -20.941  1.00  0.00     0.103 C 
HETATM    4  N   UNL     1     -34.502 -14.999 -21.692  1.00  0.00    -0.368 N 
ATOM      5  HN  UNL     1     -35.427 -15.331 -21.415  1.00  0.00     0.165 HD
HETATM    6  C   UNL     1     -31.976 -14.656 -22.745  1.00  0.00     0.019 C 
HETATM    7  C   UNL     1     -34.314 -14.304 -22.834  1.00  0.00     0.018 C 
ENDROOT
BRANCH   2   8
HETATM    8  C   UNL     1     -31.324 -14.001 -20.381  1.00  0.00     0.193 C 
HETATM    9  O   UNL     1     -31.719 -13.626 -19.296  1.00  0.00    -0.287 OA
BRANCH   8  10
HETATM   10  C   UNL     1     -29.869 -13.934 -20.732  1.00  0.00     0.016 A 
HETATM   11  C   UNL     1     -29.258 -12.701 -20.895  1.00  0.00     0.030 A 
HETATM   12  C   UNL     1     -27.913 -12.652 -21.278  1.00  0.00     0.011 A 
HETATM   13  C   UNL     1     -27.185 -13.828 -21.455  1.00  0.00     0.018 A 
HETATM   14  C   UNL     1     -27.184 -11.428 -21.480  1.00  0.00     0.079 C 
HETATM   15  C   UNL     1     -25.899 -13.671 -21.995  1.00  0.00     0.153 C 
HETATM   16  C   UNL     1     -27.787 -15.061 -21.184  1.00  0.00     0.016 A 
HETATM   17  C   UNL     1     -25.130 -12.575 -21.584  1.00  0.00     0.068 C 
HETATM   18  F   UNL     1     -25.743 -14.005 -23.292  1.00  0.00    -0.203 F 
HETATM   19  C   UNL     1     -25.822 -11.409 -21.184  1.00  0.00     0.069 C 
HETATM   20  C   UNL     1     -29.116 -15.108 -20.800  1.00  0.00     0.016 A 
BRANCH  17  21
HETATM   21  N   UNL     1     -23.774 -12.613 -21.656  1.00  0.00    -0.397 N 
ATOM     22  HN2 UNL     1     -23.201 -11.795 -21.451  1.00  0.00     0.156 HD
ATOM     23  HN1 UNL     1     -23.294 -13.450 -21.987  1.00  0.00     0.156 HD
ENDBRANCH  17  21
BRANCH  14  24
HETATM   24  O   UNL     1     -27.660 -10.602 -22.404  1.00  0.00    -0.360 OA
ATOM     25  HO  UNL     1     -27.870  -9.721 -22.116  1.00  0.00     0.217 HD
ENDBRANCH  14  24
ENDBRANCH   8  10
ENDBRANCH   2   8
BRANCH   7  26
HETATM   26  C   UNL     1     -35.478 -13.545 -23.372  1.00  0.00     0.005 C 
HETATM   27  C   UNL     1     -35.104 -12.067 -23.360  1.00  0.00     0.055 C 
HETATM   28  C   UNL     1     -36.492 -11.436 -23.334  1.00  0.00     0.138 C 
HETATM   29  C   UNL     1     -37.249 -12.259 -22.314  1.00  0.00     0.041 C 
HETATM   30  C   UNL     1     -37.095 -11.612 -24.709  1.00  0.00     0.122 C 
HETATM   31  C   UNL     1     -36.647 -13.651 -22.405  1.00  0.00     0.018 C 
HETATM   32  C   UNL     1     -37.005 -12.960 -25.360  1.00  0.00     0.019 C 
HETATM   33  C   UNL     1     -35.913 -13.880 -24.795  1.00  0.00     0.017 C 
BRANCH  28  34
HETATM   34  N   UNL     1     -36.390 -10.027 -22.978  1.00  0.00    -0.070 N 
ATOM     35  HN3 UNL     1     -35.471  -9.792 -22.604  1.00  0.00     0.275 HD
ATOM     36  HN2 UNL     1     -36.375  -9.424 -23.801  1.00  0.00     0.275 HD
ATOM     37  HN1 UNL     1     -37.140  -9.776 -22.334  1.00  0.00     0.275 HD
ENDBRANCH  28  34
BRANCH  30  38
HETATM   38  C   UNL     1     -37.566 -10.349 -25.336  1.00  0.00     0.179 C 
HETATM   39  O   UNL     1     -36.917  -9.909 -26.311  1.00  0.00    -0.648 OA
HETATM   40  O   UNL     1     -38.701  -9.943 -24.975  1.00  0.00    -0.648 OA
ENDBRANCH  30  38
ENDBRANCH   7  26
TORSDOF 7
ENDMDL
MODEL 9
REMARK VINA RESULT:      -8.9      3.844      6.420
REMARK  7 active torsions:
REMARK  status: ('A' for Active; 'I' for Inactive)
REMARK    1  A    between atoms: O_4  and  C_38 
REMARK    2  A    between atoms: C_7  and  C_17 
REMARK    3  A    between atoms: C_7  and  C_19 
REMARK    4  A    between atoms: C_8  and  N_14 
REMARK    5  A    between atoms: C_12  and  C_29 
REMARK    6  A    between atoms: C_18  and  N_31 
REMARK    7  A    between atoms: C_36  and  C_39 
ROOT
HETATM    1  C   UNL     1     -29.881 -18.383 -19.227  1.00  0.00     0.027 C 
HETATM    2  C   UNL     1     -31.797 -17.047 -19.224  1.00  0.00     0.030 C 
HETATM    3  C   UNL     1     -32.219 -17.640 -20.424  1.00  0.00     0.103 C 
HETATM    4  N   UNL     1     -31.263 -18.225 -21.154  1.00  0.00    -0.368 N 
ATOM      5  HN  UNL     1     -31.460 -18.614 -22.077  1.00  0.00     0.165 HD
HETATM    6  C   UNL     1     -30.869 -17.760 -18.464  1.00  0.00     0.019 C 
HETATM    7  C   UNL     1     -30.026 -18.279 -20.614  1.00  0.00     0.018 C 
ENDROOT
BRANCH   2   8
HETATM    8  C   UNL     1     -32.337 -15.721 -18.831  1.00  0.00     0.193 C 
HETATM    9  O   UNL     1     -33.101 -15.589 -17.898  1.00  0.00    -0.287 OA
BRANCH   8  10
HETATM   10  C   UNL     1     -31.822 -14.527 -19.575  1.00  0.00     0.016 A 
HETATM   11  C   UNL     1     -30.619 -14.610 -20.258  1.00  0.00     0.030 A 
HETATM   12  C   UNL     1     -30.121 -13.472 -20.903  1.00  0.00     0.011 A 
HETATM   13  C   UNL     1     -30.844 -12.280 -20.891  1.00  0.00     0.018 A 
HETATM   14  C   UNL     1     -28.882 -13.447 -21.635  1.00  0.00     0.079 C 
HETATM   15  C   UNL     1     -30.181 -11.164 -21.424  1.00  0.00     0.153 C 
HETATM   16  C   UNL     1     -32.104 -12.242 -20.288  1.00  0.00     0.016 A 
HETATM   17  C   UNL     1     -29.379 -11.339 -22.559  1.00  0.00     0.068 C 
HETATM   18  F   UNL     1     -29.704 -10.265 -20.539  1.00  0.00    -0.203 F 
HETATM   19  C   UNL     1     -28.781 -12.607 -22.742  1.00  0.00     0.069 C 
HETATM   20  C   UNL     1     -32.599 -13.370 -19.656  1.00  0.00     0.016 A 
BRANCH  17  21
HETATM   21  N   UNL     1     -29.122 -10.298 -23.394  1.00  0.00    -0.397 N 
ATOM     22  HN2 UNL     1     -28.174 -10.070 -23.693  1.00  0.00     0.156 HD
ATOM     23  HN1 UNL     1     -29.871  -9.672 -23.691  1.00  0.00     0.156 HD
ENDBRANCH  17  21
BRANCH  14  24
HETATM   24  O   UNL     1     -27.786 -13.757 -20.953  1.00  0.00    -0.360 OA
ATOM     25  HO  UNL     1     -27.873 -14.444 -20.302  1.00  0.00     0.217 HD
ENDBRANCH  14  24
ENDBRANCH   8  10
ENDBRANCH   2   8
BRANCH   7  26
HETATM   26  C   UNL     1     -28.874 -18.370 -21.553  1.00  0.00     0.005 C 
HETATM   27  C   UNL     1     -27.636 -17.887 -20.804  1.00  0.00     0.055 C 
HETATM   28  C   UNL     1     -26.754 -17.472 -21.977  1.00  0.00     0.138 C 
HETATM   29  C   UNL     1     -27.694 -16.720 -22.894  1.00  0.00     0.041 C 
HETATM   30  C   UNL     1     -26.263 -18.736 -22.643  1.00  0.00     0.122 C 
HETATM   31  C   UNL     1     -29.053 -17.365 -22.680  1.00  0.00     0.018 C 
HETATM   32  C   UNL     1     -27.256 -19.824 -22.928  1.00  0.00     0.019 C 
HETATM   33  C   UNL     1     -28.547 -19.755 -22.100  1.00  0.00     0.017 C 
BRANCH  28  34
HETATM   34  N   UNL     1     -25.643 -16.660 -21.499  1.00  0.00    -0.070 N 
ATOM     35  HN3 UNL     1     -25.189 -17.073 -20.683  1.00  0.00     0.275 HD
ATOM     36  HN2 UNL     1     -24.848 -16.683 -22.139  1.00  0.00     0.275 HD
ATOM     37  HN1 UNL     1     -25.960 -15.708 -21.318  1.00  0.00     0.275 HD
ENDBRANCH  28  34
BRANCH  30  38
HETATM   38  C   UNL     1     -24.785 -18.819 -22.784  1.00  0.00     0.179 C 
HETATM   39  O   UNL     1     -24.146 -19.381 -21.867  1.00  0.00    -0.648 OA
HETATM   40  O   UNL     1     -24.320 -18.512 -23.912  1.00  0.00    -0.648 OA
ENDBRANCH  30  38
ENDBRANCH   7  26
TORSDOF 7
ENDMDL
