MODEL 1
REMARK VINA RESULT:      -9.2      0.000      0.000
REMARK  10 active torsions:
REMARK  status: ('A' for Active; 'I' for Inactive)
REMARK    1  A    between atoms: C_2  and  C_5 
REMARK    2  A    between atoms: C_5  and  C_7 
REMARK    3  A    between atoms: C_7  and  C_18 
REMARK    4  A    between atoms: O_10  and  C_34 
REMARK    5  A    between atoms: C_14  and  C_35 
REMARK    6  A    between atoms: O_22  and  C_24 
REMARK    7  A    between atoms: O_26  and  C_36 
REMARK    8  A    between atoms: C_30  and  O_32 
REMARK    9  A    between atoms: C_34  and  C_35 
REMARK   10  A    between atoms: C_36  and  C_37 
ROOT
HETATM    1  O   UNL     1     -30.803 -13.808 -23.826  1.00  0.00    -0.288 OA
HETATM    2  C   UNL     1     -32.033 -14.746 -22.032  1.00  0.00     0.064 C 
HETATM    3  C   UNL     1     -30.947 -15.737 -20.035  1.00  0.00     0.001 C 
HETATM    4  C   UNL     1     -31.884 -15.718 -21.074  1.00  0.00     0.019 C 
HETATM    5  C   UNL     1     -30.980 -13.891 -22.564  1.00  0.00     0.206 C 
HETATM    6  C   UNL     1     -30.162 -13.413 -20.220  1.00  0.00     0.024 C 
HETATM    7  C   UNL     1     -30.094 -13.024 -21.653  1.00  0.00     0.170 C 
HETATM    8  C   UNL     1     -30.146 -14.672 -19.724  1.00  0.00    -0.000 C 
ENDROOT
BRANCH   7   9
HETATM    9  O   UNL     1     -30.691 -11.733 -21.743  1.00  0.00    -0.373 OA
ATOM     10  HO  UNL     1     -31.585 -11.921 -22.004  1.00  0.00     0.212 HD
ENDBRANCH   7   9
BRANCH   7  11
HETATM   11  C   UNL     1     -28.643 -12.860 -22.109  1.00  0.00     0.003 C 
HETATM   12  C   UNL     1     -27.764 -13.931 -22.243  1.00  0.00     0.013 C 
HETATM   13  C   UNL     1     -26.391 -13.788 -22.201  1.00  0.00     0.012 C 
HETATM   14  C   UNL     1     -25.592 -12.735 -21.816  1.00  0.00    -0.004 C 
HETATM   15  C   UNL     1     -24.125 -12.898 -21.494  1.00  0.00     0.160 C 
HETATM   16  C   UNL     1     -25.997 -11.431 -21.588  1.00  0.00     0.047 C 
HETATM   17  C   UNL     1     -23.700 -11.517 -21.050  1.00  0.00     0.056 C 
HETATM   18  C   UNL     1     -24.929 -10.646 -20.888  1.00  0.00     0.175 C 
HETATM   19  N   UNL     1     -27.134 -10.899 -22.018  1.00  0.00    -0.366 N 
HETATM   20  C   UNL     1     -28.219 -11.582 -22.379  1.00  0.00     0.099 C 
ATOM     21  HN  UNL     1     -27.181  -9.882 -22.076  1.00  0.00     0.165 HD
BRANCH  15  22
HETATM   22  O   UNL     1     -23.423 -13.336 -22.639  1.00  0.00    -0.390 OA
ATOM     23  HO  UNL     1     -23.125 -12.588 -23.144  1.00  0.00     0.210 HD
ENDBRANCH  15  22
BRANCH  17  24
HETATM   24  C   UNL     1     -22.583 -11.163 -20.118  1.00  0.00     0.036 C 
BRANCH  24  25
HETATM   25  C   UNL     1     -21.857 -12.230 -19.372  1.00  0.00     0.164 C 
BRANCH  25  26
HETATM   26  O   UNL     1     -20.641 -11.675 -18.903  1.00  0.00    -0.401 OA
ATOM     27  HO  UNL     1     -20.564 -10.800 -19.266  1.00  0.00     0.209 HD
ENDBRANCH  25  26
ENDBRANCH  24  25
ENDBRANCH  17  24
BRANCH  18  28
HETATM   28  O   UNL     1     -24.768  -9.348 -21.437  1.00  0.00    -0.389 OA
ATOM     29  HO  UNL     1     -25.584  -8.967 -21.738  1.00  0.00     0.210 HD
ENDBRANCH  18  28
ENDBRANCH   7  11
BRANCH   2  30
HETATM   30  C   UNL     1     -33.415 -14.519 -22.638  1.00  0.00     0.186 C 
HETATM   31  O   UNL     1     -33.919 -15.511 -23.219  1.00  0.00    -0.287 OA
BRANCH  30  32
HETATM   32  C   UNL     1     -34.137 -13.361 -22.435  1.00  0.00     0.068 C 
BRANCH  32  33
HETATM   33  C   UNL     1     -34.588 -12.221 -23.157  1.00  0.00    -0.017 C 
HETATM   34  C   UNL     1     -35.662 -12.235 -24.071  1.00  0.00     0.014 C 
HETATM   35  C   UNL     1     -36.253 -11.014 -24.425  1.00  0.00     0.018 C 
HETATM   36  C   UNL     1     -35.791  -9.845 -23.822  1.00  0.00     0.087 C 
HETATM   37  N   UNL     1     -34.600  -9.807 -23.188  1.00  0.00    -0.374 N 
HETATM   38  C   UNL     1     -33.967 -10.983 -22.917  1.00  0.00     0.099 C 
ATOM     39  HN  UNL     1     -34.182  -8.917 -22.918  1.00  0.00     0.164 HD
ENDBRANCH  32  33
ENDBRANCH  30  32
ENDBRANCH   2  30
TORSDOF 10
ENDMDL
MODEL 2
REMARK VINA RESULT:      -9.1      2.624      9.814
REMARK  10 active torsions:
REMARK  status: ('A' for Active; 'I' for Inactive)
REMARK    1  A    between atoms: C_2  and  C_5 
REMARK    2  A    between atoms: C_5  and  C_7 
REMARK    3  A    between atoms: C_7  and  C_18 
REMARK    4  A    between atoms: O_10  and  C_34 
REMARK    5  A    between atoms: C_14  and  C_35 
REMARK    6  A    between atoms: O_22  and  C_24 
REMARK    7  A    between atoms: O_26  and  C_36 
REMARK    8  A    between atoms: C_30  and  O_32 
REMARK    9  A    between atoms: C_34  and  C_35 
REMARK   10  A    between atoms: C_36  and  C_37 
ROOT
HETATM    1  O   UNL     1     -31.564 -10.888 -22.675  1.00  0.00    -0.288 OA
HETATM    2  C   UNL     1     -30.186 -11.815 -20.986  1.00  0.00     0.064 C 
HETATM    3  C   UNL     1     -31.087 -13.167 -19.113  1.00  0.00     0.001 C 
HETATM    4  C   UNL     1     -30.273 -12.171 -19.663  1.00  0.00     0.019 C 
HETATM    5  C   UNL     1     -31.252 -11.909 -21.976  1.00  0.00     0.206 C 
HETATM    6  C   UNL     1     -31.779 -14.259 -21.206  1.00  0.00     0.024 C 
HETATM    7  C   UNL     1     -31.989 -13.229 -22.257  1.00  0.00     0.170 C 
HETATM    8  C   UNL     1     -31.798 -14.060 -19.867  1.00  0.00    -0.000 C 
ENDROOT
BRANCH   7   9
HETATM    9  O   UNL     1     -31.346 -13.723 -23.430  1.00  0.00    -0.373 OA
ATOM     10  HO  UNL     1     -31.375 -12.984 -24.026  1.00  0.00     0.212 HD
ENDBRANCH   7   9
BRANCH   7  11
HETATM   11  C   UNL     1     -33.473 -13.094 -22.604  1.00  0.00     0.003 C 
HETATM   12  C   UNL     1     -34.150 -14.004 -23.411  1.00  0.00     0.013 C 
HETATM   13  C   UNL     1     -35.306 -13.687 -24.096  1.00  0.00     0.012 C 
HETATM   14  C   UNL     1     -35.915 -12.480 -24.354  1.00  0.00    -0.004 C 
HETATM   15  C   UNL     1     -36.968 -12.309 -25.425  1.00  0.00     0.160 C 
HETATM   16  C   UNL     1     -35.620 -11.263 -23.765  1.00  0.00     0.047 C 
HETATM   17  C   UNL     1     -37.271 -10.828 -25.396  1.00  0.00     0.056 C 
HETATM   18  C   UNL     1     -36.259 -10.130 -24.511  1.00  0.00     0.175 C 
HETATM   19  N   UNL     1     -34.949 -11.107 -22.631  1.00  0.00    -0.366 N 
HETATM   20  C   UNL     1     -34.133 -12.007 -22.085  1.00  0.00     0.099 C 
ATOM     21  HN  UNL     1     -35.068 -10.223 -22.136  1.00  0.00     0.165 HD
BRANCH  15  22
HETATM   22  O   UNL     1     -38.099 -13.097 -25.123  1.00  0.00    -0.390 OA
ATOM     23  HO  UNL     1     -38.492 -12.805 -24.308  1.00  0.00     0.210 HD
ENDBRANCH  15  22
BRANCH  17  24
HETATM   24  C   UNL     1     -37.776  -9.979 -26.520  1.00  0.00     0.036 C 
BRANCH  24  25
HETATM   25  C   UNL     1     -36.859  -9.036 -27.223  1.00  0.00     0.164 C 
BRANCH  25  26
HETATM   26  O   UNL     1     -36.894  -9.352 -28.603  1.00  0.00    -0.401 OA
ATOM     27  HO  UNL     1     -37.757  -9.700 -28.798  1.00  0.00     0.209 HD
ENDBRANCH  25  26
ENDBRANCH  24  25
ENDBRANCH  17  24
BRANCH  18  28
HETATM   28  O   UNL     1     -36.844  -9.175 -23.640  1.00  0.00    -0.389 OA
ATOM     29  HO  UNL     1     -37.727  -8.932 -23.893  1.00  0.00     0.210 HD
ENDBRANCH  18  28
ENDBRANCH   7  11
BRANCH   2  30
HETATM   30  C   UNL     1     -28.872 -11.240 -21.507  1.00  0.00     0.186 C 
HETATM   31  O   UNL     1     -28.772  -9.990 -21.458  1.00  0.00    -0.287 OA
BRANCH  30  32
HETATM   32  C   UNL     1     -27.801 -12.034 -21.862  1.00  0.00     0.068 C 
BRANCH  32  33
HETATM   33  C   UNL     1     -26.379 -11.997 -21.876  1.00  0.00    -0.017 C 
HETATM   34  C   UNL     1     -25.611 -10.879 -21.486  1.00  0.00     0.014 C 
HETATM   35  C   UNL     1     -24.257 -11.074 -21.179  1.00  0.00     0.018 C 
HETATM   36  C   UNL     1     -23.739 -12.368 -21.221  1.00  0.00     0.087 C 
HETATM   37  N   UNL     1     -24.388 -13.362 -21.863  1.00  0.00    -0.374 N 
HETATM   38  C   UNL     1     -25.677 -13.156 -22.251  1.00  0.00     0.099 C 
ATOM     39  HN  UNL     1     -23.922 -14.248 -22.055  1.00  0.00     0.164 HD
ENDBRANCH  32  33
ENDBRANCH  30  32
ENDBRANCH   2  30
TORSDOF 10
ENDMDL
MODEL 3
REMARK VINA RESULT:      -9.0      1.504      1.973
REMARK  10 active torsions:
REMARK  status: ('A' for Active; 'I' for Inactive)
REMARK    1  A    between atoms: C_2  and  C_5 
REMARK    2  A    between atoms: C_5  and  C_7 
REMARK    3  A    between atoms: C_7  and  C_18 
REMARK    4  A    between atoms: O_10  and  C_34 
REMARK    5  A    between atoms: C_14  and  C_35 
REMARK    6  A    between atoms: O_22  and  C_24 
REMARK    7  A    between atoms: O_26  and  C_36 
REMARK    8  A    between atoms: C_30  and  O_32 
REMARK    9  A    between atoms: C_34  and  C_35 
REMARK   10  A    between atoms: C_36  and  C_37 
ROOT
HETATM    1  O   UNL     1     -30.127 -16.014 -22.060  1.00  0.00    -0.288 OA
HETATM    2  C   UNL     1     -31.785 -15.180 -20.589  1.00  0.00     0.064 C 
HETATM    3  C   UNL     1     -31.397 -13.241 -19.093  1.00  0.00     0.001 C 
HETATM    4  C   UNL     1     -31.863 -14.529 -19.384  1.00  0.00     0.019 C 
HETATM    5  C   UNL     1     -30.752 -15.000 -21.601  1.00  0.00     0.206 C 
HETATM    6  C   UNL     1     -30.965 -12.489 -21.394  1.00  0.00     0.024 C 
HETATM    7  C   UNL     1     -30.420 -13.620 -22.192  1.00  0.00     0.170 C 
HETATM    8  C   UNL     1     -30.946 -12.371 -20.047  1.00  0.00    -0.000 C 
ENDROOT
BRANCH   7   9
HETATM    9  O   UNL     1     -31.128 -13.610 -23.429  1.00  0.00    -0.373 OA
ATOM     10  HO  UNL     1     -31.686 -12.844 -23.358  1.00  0.00     0.212 HD
ENDBRANCH   7   9
BRANCH   7  11
HETATM   11  C   UNL     1     -28.947 -13.388 -22.536  1.00  0.00     0.003 C 
HETATM   12  C   UNL     1     -27.996 -14.404 -22.526  1.00  0.00     0.013 C 
HETATM   13  C   UNL     1     -26.644 -14.168 -22.380  1.00  0.00     0.012 C 
HETATM   14  C   UNL     1     -25.947 -13.042 -22.003  1.00  0.00    -0.004 C 
HETATM   15  C   UNL     1     -24.506 -13.086 -21.551  1.00  0.00     0.160 C 
HETATM   16  C   UNL     1     -26.449 -11.756 -21.898  1.00  0.00     0.047 C 
HETATM   17  C   UNL     1     -24.206 -11.655 -21.167  1.00  0.00     0.056 C 
HETATM   18  C   UNL     1     -25.495 -10.860 -21.166  1.00  0.00     0.175 C 
HETATM   19  N   UNL     1     -27.575 -11.329 -22.454  1.00  0.00    -0.366 N 
HETATM   20  C   UNL     1     -28.581 -12.103 -22.856  1.00  0.00     0.099 C 
ATOM     21  HN  UNL     1     -27.679 -10.322 -22.584  1.00  0.00     0.165 HD
BRANCH  15  22
HETATM   22  O   UNL     1     -23.682 -13.546 -22.602  1.00  0.00    -0.390 OA
ATOM     23  HO  UNL     1     -23.417 -12.818 -23.151  1.00  0.00     0.210 HD
ENDBRANCH  15  22
BRANCH  17  24
HETATM   24  C   UNL     1     -23.198 -11.170 -20.173  1.00  0.00     0.036 C 
BRANCH  24  25
HETATM   25  C   UNL     1     -22.095 -12.066 -19.720  1.00  0.00     0.164 C 
BRANCH  25  26
HETATM   26  O   UNL     1     -21.019 -11.245 -19.303  1.00  0.00    -0.401 OA
ATOM     27  HO  UNL     1     -21.329 -10.704 -18.586  1.00  0.00     0.209 HD
ENDBRANCH  25  26
ENDBRANCH  24  25
ENDBRANCH  17  24
BRANCH  18  28
HETATM   28  O   UNL     1     -25.368  -9.591 -21.786  1.00  0.00    -0.389 OA
ATOM     29  HO  UNL     1     -26.160  -9.070 -21.736  1.00  0.00     0.210 HD
ENDBRANCH  18  28
ENDBRANCH   7  11
BRANCH   2  30
HETATM   30  C   UNL     1     -32.852 -16.215 -20.935  1.00  0.00     0.186 C 
HETATM   31  O   UNL     1     -32.842 -17.256 -20.232  1.00  0.00    -0.287 OA
BRANCH  30  32
HETATM   32  C   UNL     1     -33.860 -15.972 -21.844  1.00  0.00     0.068 C 
BRANCH  32  33
HETATM   33  C   UNL     1     -34.394 -14.900 -22.612  1.00  0.00    -0.017 C 
HETATM   34  C   UNL     1     -34.676 -14.977 -23.992  1.00  0.00     0.014 C 
HETATM   35  C   UNL     1     -35.534 -14.021 -24.553  1.00  0.00     0.018 C 
HETATM   36  C   UNL     1     -36.113 -13.067 -23.717  1.00  0.00     0.087 C 
HETATM   37  N   UNL     1     -35.621 -12.825 -22.484  1.00  0.00    -0.374 N 
HETATM   38  C   UNL     1     -34.716 -13.697 -21.959  1.00  0.00     0.099 C 
ATOM     39  HN  UNL     1     -35.921 -12.006 -21.955  1.00  0.00     0.164 HD
ENDBRANCH  32  33
ENDBRANCH  30  32
ENDBRANCH   2  30
TORSDOF 10
ENDMDL
MODEL 4
REMARK VINA RESULT:      -8.9      3.772      5.468
REMARK  10 active torsions:
REMARK  status: ('A' for Active; 'I' for Inactive)
REMARK    1  A    between atoms: C_2  and  C_5 
REMARK    2  A    between atoms: C_5  and  C_7 
REMARK    3  A    between atoms: C_7  and  C_18 
REMARK    4  A    between atoms: O_10  and  C_34 
REMARK    5  A    between atoms: C_14  and  C_35 
REMARK    6  A    between atoms: O_22  and  C_24 
REMARK    7  A    between atoms: O_26  and  C_36 
REMARK    8  A    between atoms: C_30  and  O_32 
REMARK    9  A    between atoms: C_34  and  C_35 
REMARK   10  A    between atoms: C_36  and  C_37 
ROOT
HETATM    1  O   UNL     1     -29.366 -16.460 -19.252  1.00  0.00    -0.288 OA
HETATM    2  C   UNL     1     -31.612 -17.023 -19.751  1.00  0.00     0.064 C 
HETATM    3  C   UNL     1     -32.801 -16.152 -21.746  1.00  0.00     0.001 C 
HETATM    4  C   UNL     1     -32.697 -16.474 -20.388  1.00  0.00     0.019 C 
HETATM    5  C   UNL     1     -30.214 -16.848 -20.124  1.00  0.00     0.206 C 
HETATM    6  C   UNL     1     -30.785 -17.316 -22.543  1.00  0.00     0.024 C 
HETATM    7  C   UNL     1     -29.700 -17.173 -21.537  1.00  0.00     0.170 C 
HETATM    8  C   UNL     1     -31.868 -16.516 -22.678  1.00  0.00    -0.000 C 
ENDROOT
BRANCH   7   9
HETATM    9  O   UNL     1     -29.124 -18.469 -21.388  1.00  0.00    -0.373 OA
ATOM     10  HO  UNL     1     -29.259 -18.869 -22.239  1.00  0.00     0.212 HD
ENDBRANCH   7   9
BRANCH   7  11
HETATM   11  C   UNL     1     -28.585 -16.264 -22.057  1.00  0.00     0.003 C 
HETATM   12  C   UNL     1     -27.233 -16.553 -21.898  1.00  0.00     0.013 C 
HETATM   13  C   UNL     1     -26.247 -15.588 -21.934  1.00  0.00     0.012 C 
HETATM   14  C   UNL     1     -26.311 -14.213 -21.892  1.00  0.00    -0.004 C 
HETATM   15  C   UNL     1     -25.113 -13.349 -21.575  1.00  0.00     0.160 C 
HETATM   16  C   UNL     1     -27.445 -13.434 -22.042  1.00  0.00     0.047 C 
HETATM   17  C   UNL     1     -25.676 -11.946 -21.561  1.00  0.00     0.056 C 
HETATM   18  C   UNL     1     -27.188 -12.016 -21.627  1.00  0.00     0.175 C 
HETATM   19  N   UNL     1     -28.588 -13.843 -22.577  1.00  0.00    -0.366 N 
HETATM   20  C   UNL     1     -28.974 -15.113 -22.697  1.00  0.00     0.099 C 
ATOM     21  HN  UNL     1     -29.224 -13.126 -22.926  1.00  0.00     0.165 HD
BRANCH  15  22
HETATM   22  O   UNL     1     -24.117 -13.520 -22.561  1.00  0.00    -0.390 OA
ATOM     23  HO  UNL     1     -24.045 -12.735 -23.091  1.00  0.00     0.210 HD
ENDBRANCH  15  22
BRANCH  17  24
HETATM   24  C   UNL     1     -25.160 -10.764 -20.801  1.00  0.00     0.036 C 
BRANCH  24  25
HETATM   25  C   UNL     1     -23.741 -10.331 -20.954  1.00  0.00     0.164 C 
BRANCH  25  26
HETATM   26  O   UNL     1     -23.747  -9.035 -21.525  1.00  0.00    -0.401 OA
ATOM     27  HO  UNL     1     -23.133  -8.500 -21.035  1.00  0.00     0.209 HD
ENDBRANCH  25  26
ENDBRANCH  24  25
ENDBRANCH  17  24
BRANCH  18  28
HETATM   28  O   UNL     1     -27.750 -11.080 -22.532  1.00  0.00    -0.389 OA
ATOM     29  HO  UNL     1     -28.699 -11.096 -22.543  1.00  0.00     0.210 HD
ENDBRANCH  18  28
ENDBRANCH   7  11
BRANCH   2  30
HETATM   30  C   UNL     1     -31.846 -17.891 -18.518  1.00  0.00     0.186 C 
HETATM   31  O   UNL     1     -31.424 -19.070 -18.600  1.00  0.00    -0.287 OA
BRANCH  30  32
HETATM   32  C   UNL     1     -32.341 -17.385 -17.334  1.00  0.00     0.068 C 
BRANCH  32  33
HETATM   33  C   UNL     1     -33.588 -17.099 -16.712  1.00  0.00    -0.017 C 
HETATM   34  C   UNL     1     -34.809 -17.714 -17.063  1.00  0.00     0.014 C 
HETATM   35  C   UNL     1     -35.875 -17.645 -16.157  1.00  0.00     0.018 C 
HETATM   36  C   UNL     1     -35.671 -17.021 -14.926  1.00  0.00     0.087 C 
HETATM   37  N   UNL     1     -34.620 -16.200 -14.723  1.00  0.00    -0.374 N 
HETATM   38  C   UNL     1     -33.615 -16.187 -15.643  1.00  0.00     0.099 C 
ATOM     39  HN  UNL     1     -34.578 -15.603 -13.898  1.00  0.00     0.164 HD
ENDBRANCH  32  33
ENDBRANCH  30  32
ENDBRANCH   2  30
TORSDOF 10
ENDMDL
MODEL 5
REMARK VINA RESULT:      -8.8      2.797      9.407
REMARK  10 active torsions:
REMARK  status: ('A' for Active; 'I' for Inactive)
REMARK    1  A    between atoms: C_2  and  C_5 
REMARK    2  A    between atoms: C_5  and  C_7 
REMARK    3  A    between atoms: C_7  and  C_18 
REMARK    4  A    between atoms: O_10  and  C_34 
REMARK    5  A    between atoms: C_14  and  C_35 
REMARK    6  A    between atoms: O_22  and  C_24 
REMARK    7  A    between atoms: O_26  and  C_36 
REMARK    8  A    between atoms: C_30  and  O_32 
REMARK    9  A    between atoms: C_34  and  C_35 
REMARK   10  A    between atoms: C_36  and  C_37 
ROOT
HETATM    1  O   UNL     1     -31.571 -13.235 -23.036  1.00  0.00    -0.288 OA
HETATM    2  C   UNL     1     -30.610 -14.445 -21.241  1.00  0.00     0.064 C 
HETATM    3  C   UNL     1     -31.929 -15.218 -19.288  1.00  0.00     0.001 C 
HETATM    4  C   UNL     1     -30.813 -14.632 -19.896  1.00  0.00     0.019 C 
HETATM    5  C   UNL     1     -31.643 -14.237 -22.248  1.00  0.00     0.206 C 
HETATM    6  C   UNL     1     -32.976 -16.166 -21.303  1.00  0.00     0.024 C 
HETATM    7  C   UNL     1     -32.807 -15.224 -22.440  1.00  0.00     0.170 C 
HETATM    8  C   UNL     1     -32.916 -15.859 -19.986  1.00  0.00    -0.000 C 
ENDROOT
BRANCH   7   9
HETATM    9  O   UNL     1     -32.389 -16.014 -23.551  1.00  0.00    -0.373 OA
ATOM     10  HO  UNL     1     -31.441 -15.967 -23.512  1.00  0.00     0.212 HD
ENDBRANCH   7   9
BRANCH   7  11
HETATM   11  C   UNL     1     -34.144 -14.596 -22.837  1.00  0.00     0.003 C 
HETATM   12  C   UNL     1     -34.864 -14.990 -23.961  1.00  0.00     0.013 C 
HETATM   13  C   UNL     1     -35.790 -14.178 -24.584  1.00  0.00     0.012 C 
HETATM   14  C   UNL     1     -36.063 -12.835 -24.455  1.00  0.00    -0.004 C 
HETATM   15  C   UNL     1     -36.858 -12.060 -25.481  1.00  0.00     0.160 C 
HETATM   16  C   UNL     1     -35.605 -11.991 -23.458  1.00  0.00     0.047 C 
HETATM   17  C   UNL     1     -36.824 -10.640 -24.963  1.00  0.00     0.056 C 
HETATM   18  C   UNL     1     -35.843 -10.553 -23.812  1.00  0.00     0.175 C 
HETATM   19  N   UNL     1     -35.114 -12.385 -22.290  1.00  0.00    -0.366 N 
HETATM   20  C   UNL     1     -34.622 -13.594 -22.027  1.00  0.00     0.099 C 
ATOM     21  HN  UNL     1     -35.114 -11.705 -21.530  1.00  0.00     0.165 HD
BRANCH  15  22
HETATM   22  O   UNL     1     -38.172 -12.573 -25.563  1.00  0.00    -0.390 OA
ATOM     23  HO  UNL     1     -38.156 -13.520 -25.495  1.00  0.00     0.210 HD
ENDBRANCH  15  22
BRANCH  17  24
HETATM   24  C   UNL     1     -36.934  -9.377 -25.759  1.00  0.00     0.036 C 
BRANCH  24  25
HETATM   25  C   UNL     1     -35.806  -8.402 -25.782  1.00  0.00     0.164 C 
BRANCH  25  26
HETATM   26  O   UNL     1     -36.082  -7.403 -24.817  1.00  0.00    -0.401 OA
ATOM     27  HO  UNL     1     -36.225  -6.585 -25.280  1.00  0.00     0.209 HD
ENDBRANCH  25  26
ENDBRANCH  24  25
ENDBRANCH  17  24
BRANCH  18  28
HETATM   28  O   UNL     1     -36.337  -9.803 -22.715  1.00  0.00    -0.389 OA
ATOM     29  HO  UNL     1     -36.115  -8.881 -22.763  1.00  0.00     0.210 HD
ENDBRANCH  18  28
ENDBRANCH   7  11
BRANCH   2  30
HETATM   30  C   UNL     1     -29.180 -14.427 -21.772  1.00  0.00     0.186 C 
HETATM   31  O   UNL     1     -28.994 -15.055 -22.843  1.00  0.00    -0.287 OA
BRANCH  30  32
HETATM   32  C   UNL     1     -28.187 -13.650 -21.213  1.00  0.00     0.068 C 
BRANCH  32  33
HETATM   33  C   UNL     1     -26.905 -13.125 -21.538  1.00  0.00    -0.017 C 
HETATM   34  C   UNL     1     -26.593 -11.750 -21.556  1.00  0.00     0.014 C 
HETATM   35  C   UNL     1     -25.244 -11.371 -21.513  1.00  0.00     0.018 C 
HETATM   36  C   UNL     1     -24.271 -12.364 -21.403  1.00  0.00     0.087 C 
HETATM   37  N   UNL     1     -24.554 -13.655 -21.677  1.00  0.00    -0.374 N 
HETATM   38  C   UNL     1     -25.858 -14.023 -21.812  1.00  0.00     0.099 C 
ATOM     39  HN  UNL     1     -23.806 -14.340 -21.781  1.00  0.00     0.164 HD
ENDBRANCH  32  33
ENDBRANCH  30  32
ENDBRANCH   2  30
TORSDOF 10
ENDMDL
MODEL 6
REMARK VINA RESULT:      -8.4      2.734      9.162
REMARK  10 active torsions:
REMARK  status: ('A' for Active; 'I' for Inactive)
REMARK    1  A    between atoms: C_2  and  C_5 
REMARK    2  A    between atoms: C_5  and  C_7 
REMARK    3  A    between atoms: C_7  and  C_18 
REMARK    4  A    between atoms: O_10  and  C_34 
REMARK    5  A    between atoms: C_14  and  C_35 
REMARK    6  A    between atoms: O_22  and  C_24 
REMARK    7  A    between atoms: O_26  and  C_36 
REMARK    8  A    between atoms: C_30  and  O_32 
REMARK    9  A    between atoms: C_34  and  C_35 
REMARK   10  A    between atoms: C_36  and  C_37 
ROOT
HETATM    1  O   UNL     1     -29.497 -13.247 -20.424  1.00  0.00    -0.288 OA
HETATM    2  C   UNL     1     -29.310 -15.396 -21.403  1.00  0.00     0.064 C 
HETATM    3  C   UNL     1     -31.285 -16.773 -22.000  1.00  0.00     0.001 C 
HETATM    4  C   UNL     1     -30.014 -16.574 -21.449  1.00  0.00     0.019 C 
HETATM    5  C   UNL     1     -29.878 -14.056 -21.336  1.00  0.00     0.206 C 
HETATM    6  C   UNL     1     -31.496 -14.631 -23.192  1.00  0.00     0.024 C 
HETATM    7  C   UNL     1     -30.893 -13.546 -22.374  1.00  0.00     0.170 C 
HETATM    8  C   UNL     1     -31.939 -15.828 -22.743  1.00  0.00    -0.000 C 
ENDROOT
BRANCH   7   9
HETATM    9  O   UNL     1     -30.093 -12.774 -23.267  1.00  0.00    -0.373 OA
ATOM     10  HO  UNL     1     -30.617 -11.996 -23.415  1.00  0.00     0.212 HD
ENDBRANCH   7   9
BRANCH   7  11
HETATM   11  C   UNL     1     -31.969 -12.603 -21.834  1.00  0.00     0.003 C 
HETATM   12  C   UNL     1     -32.913 -12.991 -20.887  1.00  0.00     0.013 C 
HETATM   13  C   UNL     1     -34.126 -12.352 -20.727  1.00  0.00     0.012 C 
HETATM   14  C   UNL     1     -34.784 -11.428 -21.509  1.00  0.00    -0.004 C 
HETATM   15  C   UNL     1     -36.256 -11.125 -21.351  1.00  0.00     0.160 C 
HETATM   16  C   UNL     1     -34.254 -10.720 -22.573  1.00  0.00     0.047 C 
HETATM   17  C   UNL     1     -36.538 -10.135 -22.458  1.00  0.00     0.056 C 
HETATM   18  C   UNL     1     -35.333 -10.053 -23.372  1.00  0.00     0.175 C 
HETATM   19  N   UNL     1     -32.959 -10.555 -22.812  1.00  0.00    -0.366 N 
HETATM   20  C   UNL     1     -31.981 -11.325 -22.336  1.00  0.00     0.099 C 
ATOM     21  HN  UNL     1     -32.690  -9.774 -23.410  1.00  0.00     0.165 HD
BRANCH  15  22
HETATM   22  O   UNL     1     -36.505 -10.587 -20.069  1.00  0.00    -0.390 OA
ATOM     23  HO  UNL     1     -36.344  -9.650 -20.072  1.00  0.00     0.210 HD
ENDBRANCH  15  22
BRANCH  17  24
HETATM   24  C   UNL     1     -37.841  -9.894 -23.154  1.00  0.00     0.036 C 
BRANCH  24  25
HETATM   25  C   UNL     1     -37.991 -10.215 -24.603  1.00  0.00     0.164 C 
BRANCH  25  26
HETATM   26  O   UNL     1     -38.948  -9.321 -25.144  1.00  0.00    -0.401 OA
ATOM     27  HO  UNL     1     -38.602  -8.440 -25.055  1.00  0.00     0.209 HD
ENDBRANCH  25  26
ENDBRANCH  24  25
ENDBRANCH  17  24
BRANCH  18  28
HETATM   28  O   UNL     1     -34.994  -8.724 -23.730  1.00  0.00    -0.389 OA
ATOM     29  HO  UNL     1     -34.304  -8.677 -24.380  1.00  0.00     0.210 HD
ENDBRANCH  18  28
ENDBRANCH   7  11
BRANCH   2  30
HETATM   30  C   UNL     1     -27.785 -15.451 -21.399  1.00  0.00     0.186 C 
HETATM   31  O   UNL     1     -27.281 -16.386 -20.730  1.00  0.00    -0.287 OA
BRANCH  30  32
HETATM   32  C   UNL     1     -27.008 -14.636 -22.195  1.00  0.00     0.068 C 
BRANCH  32  33
HETATM   33  C   UNL     1     -26.235 -13.445 -22.103  1.00  0.00    -0.017 C 
HETATM   34  C   UNL     1     -26.783 -12.146 -22.043  1.00  0.00     0.014 C 
HETATM   35  C   UNL     1     -25.973 -11.101 -21.578  1.00  0.00     0.018 C 
HETATM   36  C   UNL     1     -24.680 -11.395 -21.146  1.00  0.00     0.087 C 
HETATM   37  N   UNL     1     -24.080 -12.558 -21.473  1.00  0.00    -0.374 N 
HETATM   38  C   UNL     1     -24.836 -13.555 -22.012  1.00  0.00     0.099 C 
ATOM     39  HN  UNL     1     -23.080 -12.688 -21.321  1.00  0.00     0.164 HD
ENDBRANCH  32  33
ENDBRANCH  30  32
ENDBRANCH   2  30
TORSDOF 10
ENDMDL
MODEL 7
REMARK VINA RESULT:      -8.4      1.871      2.185
REMARK  10 active torsions:
REMARK  status: ('A' for Active; 'I' for Inactive)
REMARK    1  A    between atoms: C_2  and  C_5 
REMARK    2  A    between atoms: C_5  and  C_7 
REMARK    3  A    between atoms: C_7  and  C_18 
REMARK    4  A    between atoms: O_10  and  C_34 
REMARK    5  A    between atoms: C_14  and  C_35 
REMARK    6  A    between atoms: O_22  and  C_24 
REMARK    7  A    between atoms: O_26  and  C_36 
REMARK    8  A    between atoms: C_30  and  O_32 
REMARK    9  A    between atoms: C_34  and  C_35 
REMARK   10  A    between atoms: C_36  and  C_37 
ROOT
HETATM    1  O   UNL     1     -31.162 -12.757 -23.112  1.00  0.00    -0.288 OA
HETATM    2  C   UNL     1     -32.360 -14.279 -21.749  1.00  0.00     0.064 C 
HETATM    3  C   UNL     1     -31.293 -16.240 -20.670  1.00  0.00     0.001 C 
HETATM    4  C   UNL     1     -32.310 -15.602 -21.388  1.00  0.00     0.019 C 
HETATM    5  C   UNL     1     -31.218 -13.415 -22.019  1.00  0.00     0.206 C 
HETATM    6  C   UNL     1     -30.079 -14.237 -19.916  1.00  0.00     0.024 C 
HETATM    7  C   UNL     1     -30.085 -13.217 -20.998  1.00  0.00     0.170 C 
HETATM    8  C   UNL     1     -30.266 -15.569 -20.064  1.00  0.00    -0.000 C 
ENDROOT
BRANCH   7   9
HETATM    9  O   UNL     1     -30.416 -11.978 -20.374  1.00  0.00    -0.373 OA
ATOM     10  HO  UNL     1     -31.348 -12.056 -20.210  1.00  0.00     0.212 HD
ENDBRANCH   7   9
BRANCH   7  11
HETATM   11  C   UNL     1     -28.686 -13.040 -21.592  1.00  0.00     0.003 C 
HETATM   12  C   UNL     1     -27.793 -14.094 -21.759  1.00  0.00     0.013 C 
HETATM   13  C   UNL     1     -26.427 -13.917 -21.849  1.00  0.00     0.012 C 
HETATM   14  C   UNL     1     -25.627 -12.828 -21.588  1.00  0.00    -0.004 C 
HETATM   15  C   UNL     1     -24.132 -12.940 -21.395  1.00  0.00     0.160 C 
HETATM   16  C   UNL     1     -26.046 -11.524 -21.383  1.00  0.00     0.047 C 
HETATM   17  C   UNL     1     -23.708 -11.529 -21.055  1.00  0.00     0.056 C 
HETATM   18  C   UNL     1     -24.941 -10.681 -20.820  1.00  0.00     0.175 C 
HETATM   19  N   UNL     1     -27.232 -11.041 -21.729  1.00  0.00    -0.366 N 
HETATM   20  C   UNL     1     -28.326 -11.766 -21.958  1.00  0.00     0.099 C 
ATOM     21  HN  UNL     1     -27.313 -10.028 -21.828  1.00  0.00     0.165 HD
BRANCH  15  22
HETATM   22  O   UNL     1     -23.525 -13.414 -22.579  1.00  0.00    -0.390 OA
ATOM     23  HO  UNL     1     -23.185 -12.686 -23.085  1.00  0.00     0.210 HD
ENDBRANCH  15  22
BRANCH  17  24
HETATM   24  C   UNL     1     -22.522 -11.104 -20.247  1.00  0.00     0.036 C 
BRANCH  24  25
HETATM   25  C   UNL     1     -21.871 -12.058 -19.304  1.00  0.00     0.164 C 
BRANCH  25  26
HETATM   26  O   UNL     1     -20.582 -11.554 -19.003  1.00  0.00    -0.401 OA
ATOM     27  HO  UNL     1     -20.527 -11.446 -18.061  1.00  0.00     0.209 HD
ENDBRANCH  25  26
ENDBRANCH  24  25
ENDBRANCH  17  24
BRANCH  18  28
HETATM   28  O   UNL     1     -24.868  -9.408 -21.440  1.00  0.00    -0.389 OA
ATOM     29  HO  UNL     1     -25.385  -8.746 -20.995  1.00  0.00     0.210 HD
ENDBRANCH  18  28
ENDBRANCH   7  11
BRANCH   2  30
HETATM   30  C   UNL     1     -33.724 -13.613 -21.912  1.00  0.00     0.186 C 
HETATM   31  O   UNL     1     -33.837 -12.478 -21.388  1.00  0.00    -0.287 OA
BRANCH  30  32
HETATM   32  C   UNL     1     -34.718 -14.138 -22.711  1.00  0.00     0.068 C 
BRANCH  32  33
HETATM   33  C   UNL     1     -36.129 -14.326 -22.707  1.00  0.00    -0.017 C 
HETATM   34  C   UNL     1     -37.065 -13.296 -22.479  1.00  0.00     0.014 C 
HETATM   35  C   UNL     1     -38.395 -13.505 -22.868  1.00  0.00     0.018 C 
HETATM   36  C   UNL     1     -38.727 -14.697 -23.510  1.00  0.00     0.087 C 
HETATM   37  N   UNL     1     -37.910 -15.770 -23.461  1.00  0.00    -0.374 N 
HETATM   38  C   UNL     1     -36.640 -15.603 -22.999  1.00  0.00     0.099 C 
ATOM     39  HN  UNL     1     -38.237 -16.687 -23.763  1.00  0.00     0.164 HD
ENDBRANCH  32  33
ENDBRANCH  30  32
ENDBRANCH   2  30
TORSDOF 10
ENDMDL
MODEL 8
REMARK VINA RESULT:      -8.3      4.021      5.074
REMARK  10 active torsions:
REMARK  status: ('A' for Active; 'I' for Inactive)
REMARK    1  A    between atoms: C_2  and  C_5 
REMARK    2  A    between atoms: C_5  and  C_7 
REMARK    3  A    between atoms: C_7  and  C_18 
REMARK    4  A    between atoms: O_10  and  C_34 
REMARK    5  A    between atoms: C_14  and  C_35 
REMARK    6  A    between atoms: O_22  and  C_24 
REMARK    7  A    between atoms: O_26  and  C_36 
REMARK    8  A    between atoms: C_30  and  O_32 
REMARK    9  A    between atoms: C_34  and  C_35 
REMARK   10  A    between atoms: C_36  and  C_37 
ROOT
HETATM    1  O   UNL     1     -32.335 -11.445 -22.317  1.00  0.00    -0.288 OA
HETATM    2  C   UNL     1     -34.434 -12.389 -22.876  1.00  0.00     0.064 C 
HETATM    3  C   UNL     1     -34.658 -14.576 -24.023  1.00  0.00     0.001 C 
HETATM    4  C   UNL     1     -34.971 -13.227 -23.821  1.00  0.00     0.019 C 
HETATM    5  C   UNL     1     -33.093 -12.472 -22.312  1.00  0.00     0.206 C 
HETATM    6  C   UNL     1     -33.380 -14.959 -21.957  1.00  0.00     0.024 C 
HETATM    7  C   UNL     1     -32.566 -13.755 -21.646  1.00  0.00     0.170 C 
HETATM    8  C   UNL     1     -33.880 -15.304 -23.166  1.00  0.00    -0.000 C 
ENDROOT
BRANCH   7   9
HETATM    9  O   UNL     1     -32.746 -13.503 -20.254  1.00  0.00    -0.373 OA
ATOM     10  HO  UNL     1     -32.539 -14.338 -19.851  1.00  0.00     0.212 HD
ENDBRANCH   7   9
BRANCH   7  11
HETATM   11  C   UNL     1     -31.075 -14.034 -21.844  1.00  0.00     0.003 C 
HETATM   12  C   UNL     1     -30.433 -13.895 -23.071  1.00  0.00     0.013 C 
HETATM   13  C   UNL     1     -29.259 -14.550 -23.385  1.00  0.00     0.012 C 
HETATM   14  C   UNL     1     -28.595 -15.584 -22.766  1.00  0.00    -0.004 C 
HETATM   15  C   UNL     1     -27.527 -16.401 -23.458  1.00  0.00     0.160 C 
HETATM   16  C   UNL     1     -28.840 -16.082 -21.498  1.00  0.00     0.047 C 
HETATM   17  C   UNL     1     -27.159 -17.450 -22.435  1.00  0.00     0.056 C 
HETATM   18  C   UNL     1     -28.145 -17.395 -21.287  1.00  0.00     0.175 C 
HETATM   19  N   UNL     1     -29.511 -15.449 -20.546  1.00  0.00    -0.366 N 
HETATM   20  C   UNL     1     -30.371 -14.449 -20.740  1.00  0.00     0.099 C 
ATOM     21  HN  UNL     1     -29.357 -15.752 -19.584  1.00  0.00     0.165 HD
BRANCH  15  22
HETATM   22  O   UNL     1     -26.434 -15.576 -23.803  1.00  0.00    -0.390 OA
ATOM     23  HO  UNL     1     -25.955 -15.326 -23.021  1.00  0.00     0.210 HD
ENDBRANCH  15  22
BRANCH  17  24
HETATM   24  C   UNL     1     -26.608 -18.818 -22.690  1.00  0.00     0.036 C 
BRANCH  24  25
HETATM   25  C   UNL     1     -25.237 -18.986 -23.252  1.00  0.00     0.164 C 
BRANCH  25  26
HETATM   26  O   UNL     1     -25.246 -18.471 -24.571  1.00  0.00    -0.401 OA
ATOM     27  HO  UNL     1     -25.010 -19.179 -25.159  1.00  0.00     0.209 HD
ENDBRANCH  25  26
ENDBRANCH  24  25
ENDBRANCH  17  24
BRANCH  18  28
HETATM   28  O   UNL     1     -27.525 -17.476 -20.014  1.00  0.00    -0.389 OA
ATOM     29  HO  UNL     1     -27.206 -16.638 -19.701  1.00  0.00     0.210 HD
ENDBRANCH  18  28
ENDBRANCH   7  11
BRANCH   2  30
HETATM   30  C   UNL     1     -35.283 -11.234 -22.351  1.00  0.00     0.186 C 
HETATM   31  O   UNL     1     -35.860 -11.442 -21.256  1.00  0.00    -0.287 OA
BRANCH  30  32
HETATM   32  C   UNL     1     -35.298  -9.990 -22.947  1.00  0.00     0.068 C 
BRANCH  32  33
HETATM   33  C   UNL     1     -35.839  -9.339 -24.091  1.00  0.00    -0.017 C 
HETATM   34  C   UNL     1     -36.496 -10.007 -25.146  1.00  0.00     0.014 C 
HETATM   35  C   UNL     1     -37.306  -9.256 -26.008  1.00  0.00     0.018 C 
HETATM   36  C   UNL     1     -37.470  -7.894 -25.759  1.00  0.00     0.087 C 
HETATM   37  N   UNL     1     -36.627  -7.224 -24.946  1.00  0.00    -0.374 N 
HETATM   38  C   UNL     1     -35.768  -7.937 -24.165  1.00  0.00     0.099 C 
ATOM     39  HN  UNL     1     -36.633  -6.205 -24.916  1.00  0.00     0.164 HD
ENDBRANCH  32  33
ENDBRANCH  30  32
ENDBRANCH   2  30
TORSDOF 10
ENDMDL
MODEL 9
REMARK VINA RESULT:      -8.3      2.061      3.397
REMARK  10 active torsions:
REMARK  status: ('A' for Active; 'I' for Inactive)
REMARK    1  A    between atoms: C_2  and  C_5 
REMARK    2  A    between atoms: C_5  and  C_7 
REMARK    3  A    between atoms: C_7  and  C_18 
REMARK    4  A    between atoms: O_10  and  C_34 
REMARK    5  A    between atoms: C_14  and  C_35 
REMARK    6  A    between atoms: O_22  and  C_24 
REMARK    7  A    between atoms: O_26  and  C_36 
REMARK    8  A    between atoms: C_30  and  O_32 
REMARK    9  A    between atoms: C_34  and  C_35 
REMARK   10  A    between atoms: C_36  and  C_37 
ROOT
HETATM    1  O   UNL     1     -33.103 -11.508 -22.677  1.00  0.00    -0.288 OA
HETATM    2  C   UNL     1     -34.981 -12.914 -23.009  1.00  0.00     0.064 C 
HETATM    3  C   UNL     1     -34.871 -15.008 -24.332  1.00  0.00     0.001 C 
HETATM    4  C   UNL     1     -35.456 -13.797 -23.945  1.00  0.00     0.019 C 
HETATM    5  C   UNL     1     -33.582 -12.692 -22.665  1.00  0.00     0.206 C 
HETATM    6  C   UNL     1     -33.202 -15.188 -22.533  1.00  0.00     0.024 C 
HETATM    7  C   UNL     1     -32.658 -13.839 -22.224  1.00  0.00     0.170 C 
HETATM    8  C   UNL     1     -33.806 -15.570 -23.682  1.00  0.00    -0.000 C 
ENDROOT
BRANCH   7   9
HETATM    9  O   UNL     1     -32.651 -13.731 -20.802  1.00  0.00    -0.373 OA
ATOM     10  HO  UNL     1     -31.844 -13.264 -20.621  1.00  0.00     0.212 HD
ENDBRANCH   7   9
BRANCH   7  11
HETATM   11  C   UNL     1     -31.200 -13.720 -22.672  1.00  0.00     0.003 C 
HETATM   12  C   UNL     1     -30.318 -14.797 -22.679  1.00  0.00     0.013 C 
HETATM   13  C   UNL     1     -28.946 -14.646 -22.631  1.00  0.00     0.012 C 
HETATM   14  C   UNL     1     -28.155 -13.555 -22.349  1.00  0.00    -0.004 C 
HETATM   15  C   UNL     1     -26.692 -13.678 -21.989  1.00  0.00     0.160 C 
HETATM   16  C   UNL     1     -28.565 -12.236 -22.268  1.00  0.00     0.047 C 
HETATM   17  C   UNL     1     -26.276 -12.257 -21.689  1.00  0.00     0.056 C 
HETATM   18  C   UNL     1     -27.509 -11.377 -21.640  1.00  0.00     0.175 C 
HETATM   19  N   UNL     1     -29.696 -11.756 -22.769  1.00  0.00    -0.366 N 
HETATM   20  C   UNL     1     -30.775 -12.477 -23.072  1.00  0.00     0.099 C 
ATOM     21  HN  UNL     1     -29.744 -10.751 -22.936  1.00  0.00     0.165 HD
BRANCH  15  22
HETATM   22  O   UNL     1     -25.972 -14.234 -23.070  1.00  0.00    -0.390 OA
ATOM     23  HO  UNL     1     -26.391 -14.005 -23.892  1.00  0.00     0.210 HD
ENDBRANCH  15  22
BRANCH  17  24
HETATM   24  C   UNL     1     -25.175 -11.801 -20.784  1.00  0.00     0.036 C 
BRANCH  24  25
HETATM   25  C   UNL     1     -24.059 -10.966 -21.316  1.00  0.00     0.164 C 
BRANCH  25  26
HETATM   26  O   UNL     1     -24.534  -9.636 -21.429  1.00  0.00    -0.401 OA
ATOM     27  HO  UNL     1     -23.971  -9.083 -20.900  1.00  0.00     0.209 HD
ENDBRANCH  25  26
ENDBRANCH  24  25
ENDBRANCH  17  24
BRANCH  18  28
HETATM   28  O   UNL     1     -27.342 -10.145 -22.322  1.00  0.00    -0.389 OA
ATOM     29  HO  UNL     1     -26.847  -9.506 -21.822  1.00  0.00     0.210 HD
ENDBRANCH  18  28
ENDBRANCH   7  11
BRANCH   2  30
HETATM   30  C   UNL     1     -35.977 -12.046 -22.245  1.00  0.00     0.186 C 
HETATM   31  O   UNL     1     -36.123 -12.333 -21.032  1.00  0.00    -0.287 OA
BRANCH  30  32
HETATM   32  C   UNL     1     -36.564 -10.925 -22.794  1.00  0.00     0.068 C 
BRANCH  32  33
HETATM   33  C   UNL     1     -36.315  -9.952 -23.802  1.00  0.00    -0.017 C 
HETATM   34  C   UNL     1     -36.743 -10.071 -25.141  1.00  0.00     0.014 C 
HETATM   35  C   UNL     1     -36.780  -8.916 -25.934  1.00  0.00     0.018 C 
HETATM   36  C   UNL     1     -36.444  -7.693 -25.355  1.00  0.00     0.087 C 
HETATM   37  N   UNL     1     -35.771  -7.632 -24.188  1.00  0.00    -0.374 N 
HETATM   38  C   UNL     1     -35.646  -8.768 -23.446  1.00  0.00     0.099 C 
ATOM     39  HN  UNL     1     -35.364  -6.754 -23.867  1.00  0.00     0.164 HD
ENDBRANCH  32  33
ENDBRANCH  30  32
ENDBRANCH   2  30
TORSDOF 10
ENDMDL
