REMARK  10 active torsions:
REMARK  status: ('A' for Active; 'I' for Inactive)
REMARK       I    between atoms: N_1  and  C_31 
REMARK    1  A    between atoms: C_2  and  C_3 
REMARK    2  A    between atoms: C_2  and  O_24 
REMARK    3  A    between atoms: C_2  and  C_27 
REMARK    4  A    between atoms: C_5  and  O_21 
REMARK    5  A    between atoms: C_8  and  C_9 
REMARK    6  A    between atoms: C_8  and  C_27 
REMARK    7  A    between atoms: C_8  and  O_30 
REMARK    8  A    between atoms: C_9  and  O_21 
REMARK    9  A    between atoms: N_14  and  O_15 
REMARK   10  A    between atoms: O_30  and  C_31 
ROOT
HETATM    1  C   UNL     1       9.850  53.308  22.185  1.00  0.00     0.161 C 
ENDROOT
BRANCH   1   2
HETATM    2  C   UNL     1       8.704  54.219  22.612  1.00  0.00     0.201 C 
BRANCH   2   3
HETATM    3  O   UNL     1       8.659  54.868  23.834  1.00  0.00    -0.373 OA
BRANCH   3   4
HETATM    4  C   UNL     1       9.327  55.906  24.497  1.00  0.00     0.222 C 
HETATM    5  C   UNL     1       9.472  55.435  25.945  1.00  0.00     0.144 C 
HETATM    6  C   UNL     1      10.592  54.404  26.079  1.00  0.00     0.221 C 
HETATM    7  N   UNL     1      11.788  54.830  26.447  1.00  0.00    -0.345 N 
HETATM    8  O   UNL     1      10.421  53.237  25.738  1.00  0.00    -0.273 OA
HETATM    9  C   UNL     1      12.513  55.592  25.437  1.00  0.00     0.249 C 
ATOM     10  HN  UNL     1      12.176  54.639  27.371  1.00  0.00     0.164 HD
HETATM   11  N   UNL     1      11.815  55.740  24.175  1.00  0.00    -0.343 N 
HETATM   12  C   UNL     1      10.660  56.299  23.788  1.00  0.00     0.248 C 
ATOM     13  HN  UNL     1      12.323  55.319  23.397  1.00  0.00     0.164 HD
HETATM   14  O   UNL     1      10.592  57.065  22.836  1.00  0.00    -0.271 OA
ENDBRANCH   3   4
ENDBRANCH   2   3
ENDBRANCH   1   2
BRANCH   1  15
HETATM   15  C   UNL     1       9.476  52.682  20.833  1.00  0.00     0.081 C 
BRANCH  15  16
HETATM   16  C   UNL     1       9.052  53.670  19.751  1.00  0.00     0.226 C 
BRANCH  16  17
HETATM   17  C   UNL     1       9.148  55.074  20.114  1.00  0.00     0.091 C 
HETATM   18  N   UNL     1       9.063  56.221  20.112  1.00  0.00    -0.195 NA
ENDBRANCH  16  17
BRANCH  16  19
HETATM   19  O   UNL     1       9.800  53.410  18.578  1.00  0.00    -0.381 OA
ATOM     20  HO  UNL     1       9.737  52.492  18.341  1.00  0.00     0.211 HD
ENDBRANCH  16  19
ENDBRANCH  15  16
ENDBRANCH   1  15
BRANCH   1  21
HETATM   21  O   UNL     1      11.155  53.955  22.073  1.00  0.00    -0.294 OA
BRANCH  21  22
HETATM   22  C   UNL     1      12.305  53.082  22.358  1.00  0.00     0.403 C 
HETATM   23  N   UNL     1      13.515  53.620  21.981  1.00  0.00    -0.118 N 
HETATM   24  N   UNL     1      14.168  53.420  20.680  1.00  0.00    -0.189 N 
HETATM   25  N   UNL     1      14.259  54.692  22.516  1.00  0.00    -0.265 N 
HETATM   26  N   UNL     1      15.304  54.070  20.754  1.00  0.00    -0.141 N 
ATOM     27  HN  UNL     1      13.812  52.887  19.886  1.00  0.00     0.213 HD
HETATM   28  C   UNL     1      15.094  55.107  21.572  1.00  0.00     0.253 C 
ATOM     29  HN  UNL     1      14.171  55.078  23.456  1.00  0.00     0.190 HD
HETATM   30  O   UNL     1      12.208  51.939  22.879  1.00  0.00    -0.234 OA
BRANCH  26  31
HETATM   31  O   UNL     1      16.537  53.483  20.840  1.00  0.00    -0.266 OA
ATOM     32  HO  UNL     1      17.360  53.954  20.894  1.00  0.00     0.247 HD
ENDBRANCH  26  31
ENDBRANCH  21  22
ENDBRANCH   1  21
TORSDOF 10
