REMARK  4 active torsions:
REMARK  status: ('A' for Active; 'I' for Inactive)
REMARK    1  A    between atoms: C_4  and  O_35 
REMARK    2  A    between atoms: C_5  and  C_34 
REMARK    3  A    between atoms: N_11  and  C_30 
REMARK    4  A    between atoms: O_24  and  C_33 
ROOT
HETATM    1  C   UNL     1       5.161  18.582  10.515  1.00  0.00    -0.022 C 
HETATM    2  C   UNL     1       6.719  19.296   7.228  1.00  0.00     0.003 C 
HETATM    3  C   UNL     1       8.046  19.214   7.647  1.00  0.00     0.030 C 
HETATM    4  C   UNL     1       5.686  18.987   8.100  1.00  0.00     0.013 C 
HETATM    5  C   UNL     1       6.336  16.606  11.283  1.00  0.00     0.002 C 
HETATM    6  C   UNL     1       7.305  18.050   9.623  1.00  0.00     0.002 C 
HETATM    7  C   UNL     1       5.177  17.383  11.241  1.00  0.00     0.012 C 
HETATM    8  C   UNL     1       8.347  18.645   8.888  1.00  0.00     0.043 C 
HETATM    9  C   UNL     1       7.450  17.017  10.561  1.00  0.00     0.014 C 
HETATM   10  C   UNL     1       6.020  18.570   9.392  1.00  0.00    -0.013 C 
ENDROOT
BRANCH   8  11
HETATM   11  N   UNL     1       9.620  18.684   9.386  1.00  0.00    -0.351 N 
HETATM   12  C   UNL     1      10.766  18.022   9.332  1.00  0.00     0.135 C 
HETATM   13  C   UNL     1      11.931  18.502  10.135  1.00  0.00     0.390 C 
HETATM   14  C   UNL     1      11.114  16.958   8.347  1.00  0.00     0.271 C 
HETATM   15  N   UNL     1      13.154  17.764   9.863  1.00  0.00    -0.004 N 
HETATM   16  O   UNL     1      12.134  19.858   9.846  1.00  0.00    -0.276 OA
HETATM   17  C   UNL     1      13.391  17.829   8.426  1.00  0.00     0.398 C 
ATOM     18  HN2 UNL     1      13.948  18.092  10.413  1.00  0.00     0.285 HD
ATOM     19  HN1 UNL     1      13.131  16.809  10.220  1.00  0.00     0.285 HD
HETATM   20  N   UNL     1      12.358  17.002   7.797  1.00  0.00    -0.312 N 
HETATM   21  N   UNL     1      13.331  19.211   7.961  1.00  0.00    -0.306 N 
ATOM     22  HN  UNL     1      12.569  16.465   6.956  1.00  0.00     0.166 HD
HETATM   23  C   UNL     1      13.019  20.157   8.874  1.00  0.00     0.265 C 
ATOM     24  HN  UNL     1      13.517  19.453   6.988  1.00  0.00     0.167 HD
HETATM   25  O   UNL     1      10.315  16.047   8.139  1.00  0.00    -0.266 OA
ATOM     26  HN  UNL     1       9.720  19.490  10.004  1.00  0.00     0.166 HD
BRANCH  23  27
HETATM   27  O   UNL     1      13.727  21.267   9.149  1.00  0.00    -0.322 OA
HETATM   28  C   UNL     1      13.038  22.205  10.002  1.00  0.00     0.213 C 
ENDBRANCH  23  27
ENDBRANCH   8  11
BRANCH   1  29
HETATM   29  C   UNL     1       4.481  19.780  11.054  1.00  0.00    -0.058 C 
HETATM   30  C   UNL     1       4.389  20.085  12.532  1.00  0.00     0.046 C 
HETATM   31  C   UNL     1       3.099  20.899  12.520  1.00  0.00     0.079 C 
HETATM   32  C   UNL     1       5.450  21.145  12.862  1.00  0.00     0.245 C 
HETATM   33  C   UNL     1       3.674  21.918  11.548  1.00  0.00     0.228 C 
HETATM   34  N   UNL     1       4.856  22.390  12.299  1.00  0.00    -0.042 N 
HETATM   35  C   UNL     1       4.141  21.073  10.338  1.00  0.00     0.104 C 
ATOM     36  HN2 UNL     1       4.651  23.108  12.994  1.00  0.00     0.280 HD
ATOM     37  HN1 UNL     1       5.505  22.952  11.748  1.00  0.00     0.280 HD
BRANCH  33  38
HETATM   38  O   UNL     1       2.817  22.946  11.125  1.00  0.00    -0.365 OA
ATOM     39  HO  UNL     1       2.057  22.643  10.642  1.00  0.00     0.212 HD
ENDBRANCH  33  38
ENDBRANCH   1  29
TORSDOF 4
