MODEL 1
REMARK VINA RESULT:      -9.9      0.000      0.000
REMARK  3 active torsions:
REMARK  status: ('A' for Active; 'I' for Inactive)
REMARK    1  A    between atoms: C_5  and  N_27 
REMARK    2  A    between atoms: O_9  and  C_29 
REMARK    3  A    between atoms: C_21  and  N_27 
ROOT
HETATM    1  O   UNL     1      -4.731  15.619  25.121  1.00  0.00    -0.290 OA
HETATM    2  C   UNL     1      -3.937  17.515  23.311  1.00  0.00     0.018 C 
HETATM    3  C   UNL     1      -4.882  18.299  27.247  1.00  0.00    -0.000 C 
HETATM    4  C   UNL     1      -3.450  18.252  22.279  1.00  0.00     0.025 C 
HETATM    5  C   UNL     1      -4.016  17.776  24.651  1.00  0.00     0.025 C 
HETATM    6  C   UNL     1      -5.995  21.040  27.135  1.00  0.00     0.088 C 
HETATM    7  N   UNL     1      -4.894  20.628  26.571  1.00  0.00    -0.365 N 
ATOM      8  HN  UNL     1      -4.224  21.333  26.262  1.00  0.00     0.165 HD
HETATM    9  C   UNL     1      -5.834  18.267  28.234  1.00  0.00     0.012 C 
HETATM   10  C   UNL     1      -3.006  19.543  22.312  1.00  0.00     0.034 C 
HETATM   11  C   UNL     1      -2.556  20.161  23.451  1.00  0.00     0.024 C 
HETATM   12  C   UNL     1      -2.950  19.969  24.735  1.00  0.00     0.016 C 
HETATM   13  C   UNL     1      -3.836  19.037  25.220  1.00  0.00     0.005 C 
HETATM   14  C   UNL     1      -4.318  16.694  25.513  1.00  0.00     0.187 C 
HETATM   15  C   UNL     1      -6.887  19.126  28.350  1.00  0.00     0.002 C 
HETATM   16  C   UNL     1      -4.587  19.342  26.372  1.00  0.00     0.052 C 
HETATM   17  C   UNL     1      -6.937  20.377  27.823  1.00  0.00     0.017 C 
HETATM   18  C   UNL     1      -4.198  16.979  26.972  1.00  0.00     0.192 C 
HETATM   19 CL   UNL     1      -2.998  20.439  20.820  1.00  0.00    -0.084 Cl
ENDROOT
BRANCH  18  20
HETATM   20  N   UNL     1      -2.773  17.164  27.258  1.00  0.00    -0.374 N 
ATOM     21  HN  UNL     1      -2.318  18.042  27.008  1.00  0.00     0.160 HD
BRANCH  20  22
HETATM   22  C   UNL     1      -2.058  16.188  27.846  1.00  0.00     0.029 C 
HETATM   23  C   UNL     1      -2.608  14.904  27.977  1.00  0.00     0.032 C 
HETATM   24  C   UNL     1      -1.776  13.865  27.573  1.00  0.00     0.039 C 
HETATM   25  C   UNL     1      -0.479  14.211  27.201  1.00  0.00     0.068 C 
HETATM   26  C   UNL     1       0.125  15.284  27.862  1.00  0.00     0.039 C 
HETATM   27  C   UNL     1      -0.717  16.360  28.180  1.00  0.00     0.032 C 
BRANCH  25  28
HETATM   28  O   UNL     1       0.039  13.652  26.077  1.00  0.00    -0.356 OA
HETATM   29  C   UNL     1       0.116  12.241  26.031  1.00  0.00     0.210 C 
ENDBRANCH  25  28
ENDBRANCH  20  22
ENDBRANCH  18  20
TORSDOF 3
ENDMDL
MODEL 2
REMARK VINA RESULT:      -9.1      2.399      5.492
REMARK  3 active torsions:
REMARK  status: ('A' for Active; 'I' for Inactive)
REMARK    1  A    between atoms: C_5  and  N_27 
REMARK    2  A    between atoms: O_9  and  C_29 
REMARK    3  A    between atoms: C_21  and  N_27 
ROOT
HETATM    1  O   UNL     1      -3.512  21.002  26.702  1.00  0.00    -0.290 OA
HETATM    2  C   UNL     1      -3.011  20.281  24.108  1.00  0.00     0.018 C 
HETATM    3  C   UNL     1      -3.148  17.646  27.275  1.00  0.00    -0.000 C 
HETATM    4  C   UNL     1      -2.871  20.154  22.762  1.00  0.00     0.025 C 
HETATM    5  C   UNL     1      -3.276  19.359  25.081  1.00  0.00     0.025 C 
HETATM    6  C   UNL     1      -1.206  15.554  26.490  1.00  0.00     0.088 C 
HETATM    7  N   UNL     1      -2.143  16.060  25.740  1.00  0.00    -0.365 N 
ATOM      8  HN  UNL     1      -2.405  15.551  24.895  1.00  0.00     0.165 HD
HETATM    9  C   UNL     1      -2.625  17.266  28.485  1.00  0.00     0.012 C 
HETATM   10  C   UNL     1      -2.843  19.001  22.032  1.00  0.00     0.034 C 
HETATM   11  C   UNL     1      -3.394  17.819  22.458  1.00  0.00     0.024 C 
HETATM   12  C   UNL     1      -3.513  17.345  23.724  1.00  0.00     0.016 C 
HETATM   13  C   UNL     1      -3.191  17.978  24.901  1.00  0.00     0.005 C 
HETATM   14  C   UNL     1      -3.642  19.842  26.360  1.00  0.00     0.187 C 
HETATM   15  C   UNL     1      -1.439  16.620  28.669  1.00  0.00     0.002 C 
HETATM   16  C   UNL     1      -2.785  17.203  26.005  1.00  0.00     0.052 C 
HETATM   17  C   UNL     1      -0.808  15.861  27.736  1.00  0.00     0.017 C 
HETATM   18  C   UNL     1      -4.113  18.810  27.329  1.00  0.00     0.192 C 
HETATM   19 CL   UNL     1      -2.079  19.046  20.469  1.00  0.00    -0.084 Cl
ENDROOT
BRANCH  18  20
HETATM   20  N   UNL     1      -5.406  18.322  26.843  1.00  0.00    -0.374 N 
ATOM     21  HN  UNL     1      -5.480  17.945  25.898  1.00  0.00     0.160 HD
BRANCH  20  22
HETATM   22  C   UNL     1      -6.496  18.366  27.629  1.00  0.00     0.029 C 
HETATM   23  C   UNL     1      -7.027  17.178  28.151  1.00  0.00     0.032 C 
HETATM   24  C   UNL     1      -7.300  17.206  29.515  1.00  0.00     0.039 C 
HETATM   25  C   UNL     1      -7.123  18.426  30.163  1.00  0.00     0.068 C 
HETATM   26  C   UNL     1      -7.389  19.592  29.440  1.00  0.00     0.039 C 
HETATM   27  C   UNL     1      -7.023  19.572  28.086  1.00  0.00     0.032 C 
BRANCH  25  28
HETATM   28  O   UNL     1      -6.491  18.432  31.364  1.00  0.00    -0.356 OA
HETATM   29  C   UNL     1      -7.301  18.457  32.523  1.00  0.00     0.210 C 
ENDBRANCH  25  28
ENDBRANCH  20  22
ENDBRANCH  18  20
TORSDOF 3
ENDMDL
MODEL 3
REMARK VINA RESULT:      -8.8      2.824      4.654
REMARK  3 active torsions:
REMARK  status: ('A' for Active; 'I' for Inactive)
REMARK    1  A    between atoms: C_5  and  N_27 
REMARK    2  A    between atoms: O_9  and  C_29 
REMARK    3  A    between atoms: C_21  and  N_27 
ROOT
HETATM    1  O   UNL     1      -1.661  18.305  28.022  1.00  0.00    -0.290 OA
HETATM    2  C   UNL     1      -4.215  18.804  28.875  1.00  0.00     0.018 C 
HETATM    3  C   UNL     1      -3.267  16.815  25.390  1.00  0.00    -0.000 C 
HETATM    4  C   UNL     1      -5.370  19.087  29.531  1.00  0.00     0.025 C 
HETATM    5  C   UNL     1      -3.946  17.948  27.844  1.00  0.00     0.025 C 
HETATM    6  C   UNL     1      -5.499  17.531  23.582  1.00  0.00     0.088 C 
HETATM    7  N   UNL     1      -5.603  17.122  24.815  1.00  0.00    -0.365 N 
ATOM      8  HN  UNL     1      -6.513  16.787  25.132  1.00  0.00     0.165 HD
HETATM    9  C   UNL     1      -2.647  16.860  24.167  1.00  0.00     0.012 C 
HETATM   10  C   UNL     1      -6.628  18.651  29.231  1.00  0.00     0.034 C 
HETATM   11  C   UNL     1      -6.885  17.513  28.507  1.00  0.00     0.024 C 
HETATM   12  C   UNL     1      -6.151  16.958  27.510  1.00  0.00     0.016 C 
HETATM   13  C   UNL     1      -4.919  17.350  27.043  1.00  0.00     0.005 C 
HETATM   14  C   UNL     1      -2.588  17.666  27.562  1.00  0.00     0.187 C 
HETATM   15  C   UNL     1      -3.119  17.504  23.062  1.00  0.00     0.002 C 
HETATM   16  C   UNL     1      -4.594  17.114  25.693  1.00  0.00     0.052 C 
HETATM   17  C   UNL     1      -4.421  17.811  22.832  1.00  0.00     0.017 C 
HETATM   18  C   UNL     1      -2.347  16.580  26.568  1.00  0.00     0.192 C 
HETATM   19 CL   UNL     1      -7.975  19.585  29.817  1.00  0.00    -0.084 Cl
ENDROOT
BRANCH  18  20
HETATM   20  N   UNL     1      -2.761  15.323  27.195  1.00  0.00    -0.374 N 
ATOM     21  HN  UNL     1      -3.754  15.124  27.319  1.00  0.00     0.160 HD
BRANCH  20  22
HETATM   22  C   UNL     1      -1.846  14.428  27.609  1.00  0.00     0.029 C 
HETATM   23  C   UNL     1      -2.233  13.104  27.861  1.00  0.00     0.032 C 
HETATM   24  C   UNL     1      -1.420  12.135  27.281  1.00  0.00     0.039 C 
HETATM   25  C   UNL     1      -0.276  12.587  26.628  1.00  0.00     0.068 C 
HETATM   26  C   UNL     1       0.359  13.723  27.137  1.00  0.00     0.039 C 
HETATM   27  C   UNL     1      -0.486  14.727  27.634  1.00  0.00     0.032 C 
BRANCH  25  28
HETATM   28  O   UNL     1       0.028  12.053  25.418  1.00  0.00    -0.356 OA
HETATM   29  C   UNL     1       1.173  12.556  24.756  1.00  0.00     0.210 C 
ENDBRANCH  25  28
ENDBRANCH  20  22
ENDBRANCH  18  20
TORSDOF 3
ENDMDL
MODEL 4
REMARK VINA RESULT:      -8.1      3.698      6.895
REMARK  3 active torsions:
REMARK  status: ('A' for Active; 'I' for Inactive)
REMARK    1  A    between atoms: C_5  and  N_27 
REMARK    2  A    between atoms: O_9  and  C_29 
REMARK    3  A    between atoms: C_21  and  N_27 
ROOT
HETATM    1  O   UNL     1      -7.150  15.954  28.761  1.00  0.00    -0.290 OA
HETATM    2  C   UNL     1      -4.525  15.320  28.307  1.00  0.00     0.018 C 
HETATM    3  C   UNL     1      -6.094  19.119  27.992  1.00  0.00    -0.000 C 
HETATM    4  C   UNL     1      -3.277  14.789  28.219  1.00  0.00     0.025 C 
HETATM    5  C   UNL     1      -4.952  16.613  28.418  1.00  0.00     0.025 C 
HETATM    6  C   UNL     1      -4.444  20.350  25.865  1.00  0.00     0.088 C 
HETATM    7  N   UNL     1      -4.006  19.673  26.889  1.00  0.00    -0.365 N 
ATOM      8  HN  UNL     1      -3.019  19.760  27.131  1.00  0.00     0.165 HD
HETATM    9  C   UNL     1      -6.992  19.949  27.371  1.00  0.00     0.012 C 
HETATM   10  C   UNL     1      -2.093  15.458  28.095  1.00  0.00     0.034 C 
HETATM   11  C   UNL     1      -1.913  16.760  28.487  1.00  0.00     0.024 C 
HETATM   12  C   UNL     1      -2.810  17.779  28.490  1.00  0.00     0.016 C 
HETATM   13  C   UNL     1      -4.149  17.730  28.187  1.00  0.00     0.005 C 
HETATM   14  C   UNL     1      -6.305  16.829  28.775  1.00  0.00     0.187 C 
HETATM   15  C   UNL     1      -6.865  20.456  26.112  1.00  0.00     0.002 C 
HETATM   16  C   UNL     1      -4.768  18.873  27.642  1.00  0.00     0.052 C 
HETATM   17  C   UNL     1      -5.693  20.610  25.445  1.00  0.00     0.017 C 
HETATM   18  C   UNL     1      -6.675  18.242  29.079  1.00  0.00     0.192 C 
HETATM   19 CL   UNL     1      -0.740  14.598  27.418  1.00  0.00    -0.084 Cl
ENDROOT
BRANCH  18  20
HETATM   20  N   UNL     1      -6.004  18.603  30.329  1.00  0.00    -0.374 N 
ATOM     21  HN  UNL     1      -5.004  18.431  30.433  1.00  0.00     0.160 HD
BRANCH  20  22
HETATM   22  C   UNL     1      -6.692  19.157  31.343  1.00  0.00     0.029 C 
HETATM   23  C   UNL     1      -7.209  20.454  31.206  1.00  0.00     0.032 C 
HETATM   24  C   UNL     1      -8.543  20.597  31.575  1.00  0.00     0.039 C 
HETATM   25  C   UNL     1      -9.161  19.480  32.132  1.00  0.00     0.068 C 
HETATM   26  C   UNL     1      -8.378  18.622  32.910  1.00  0.00     0.039 C 
HETATM   27  C   UNL     1      -7.061  18.423  32.468  1.00  0.00     0.032 C 
BRANCH  25  28
HETATM   28  O   UNL     1     -10.410  19.158  31.711  1.00  0.00    -0.356 OA
HETATM   29  C   UNL     1     -11.207  18.377  32.581  1.00  0.00     0.210 C 
ENDBRANCH  25  28
ENDBRANCH  20  22
ENDBRANCH  18  20
TORSDOF 3
ENDMDL
MODEL 5
REMARK VINA RESULT:      -8.0      3.023      6.126
REMARK  3 active torsions:
REMARK  status: ('A' for Active; 'I' for Inactive)
REMARK    1  A    between atoms: C_5  and  N_27 
REMARK    2  A    between atoms: O_9  and  C_29 
REMARK    3  A    between atoms: C_21  and  N_27 
ROOT
HETATM    1  O   UNL     1      -5.106  13.686  28.250  1.00  0.00    -0.290 OA
HETATM    2  C   UNL     1      -2.464  13.160  27.754  1.00  0.00     0.018 C 
HETATM    3  C   UNL     1      -4.445  16.548  26.492  1.00  0.00    -0.000 C 
HETATM    4  C   UNL     1      -1.176  12.731  27.707  1.00  0.00     0.025 C 
HETATM    5  C   UNL     1      -3.018  14.388  27.522  1.00  0.00     0.025 C 
HETATM    6  C   UNL     1      -3.080  17.214  23.951  1.00  0.00     0.088 C 
HETATM    7  N   UNL     1      -2.506  16.914  25.081  1.00  0.00    -0.365 N 
ATOM      8  HN  UNL     1      -1.519  17.149  25.193  1.00  0.00     0.165 HD
HETATM    9  C   UNL     1      -5.466  17.078  25.743  1.00  0.00     0.012 C 
HETATM   10  C   UNL     1      -0.080  13.426  27.281  1.00  0.00     0.034 C 
HETATM   11  C   UNL     1      -0.014  14.796  27.256  1.00  0.00     0.024 C 
HETATM   12  C   UNL     1      -1.011  15.692  27.046  1.00  0.00     0.016 C 
HETATM   13  C   UNL     1      -2.355  15.446  26.898  1.00  0.00     0.005 C 
HETATM   14  C   UNL     1      -4.359  14.590  27.926  1.00  0.00     0.187 C 
HETATM   15  C   UNL     1      -5.477  17.192  24.385  1.00  0.00     0.002 C 
HETATM   16  C   UNL     1      -3.126  16.317  26.105  1.00  0.00     0.052 C 
HETATM   17  C   UNL     1      -4.374  17.234  23.594  1.00  0.00     0.017 C 
HETATM   18  C   UNL     1      -4.856  15.993  27.837  1.00  0.00     0.192 C 
HETATM   19 CL   UNL     1       1.308  12.516  26.759  1.00  0.00    -0.084 Cl
ENDROOT
BRANCH  18  20
HETATM   20  N   UNL     1      -4.146  16.767  28.858  1.00  0.00    -0.374 N 
ATOM     21  HN  UNL     1      -3.377  16.336  29.373  1.00  0.00     0.160 HD
BRANCH  20  22
HETATM   22  C   UNL     1      -4.496  18.038  29.125  1.00  0.00     0.029 C 
HETATM   23  C   UNL     1      -3.863  19.091  28.447  1.00  0.00     0.032 C 
HETATM   24  C   UNL     1      -4.722  20.045  27.912  1.00  0.00     0.039 C 
HETATM   25  C   UNL     1      -6.076  19.902  28.205  1.00  0.00     0.068 C 
HETATM   26  C   UNL     1      -6.421  19.369  29.451  1.00  0.00     0.039 C 
HETATM   27  C   UNL     1      -5.590  18.344  29.930  1.00  0.00     0.032 C 
BRANCH  25  28
HETATM   28  O   UNL     1      -6.974  20.066  27.200  1.00  0.00    -0.356 OA
HETATM   29  C   UNL     1      -6.493  20.595  25.980  1.00  0.00     0.210 C 
ENDBRANCH  25  28
ENDBRANCH  20  22
ENDBRANCH  18  20
TORSDOF 3
ENDMDL
MODEL 6
REMARK VINA RESULT:      -8.0      2.535      5.960
REMARK  3 active torsions:
REMARK  status: ('A' for Active; 'I' for Inactive)
REMARK    1  A    between atoms: C_5  and  N_27 
REMARK    2  A    between atoms: O_9  and  C_29 
REMARK    3  A    between atoms: C_21  and  N_27 
ROOT
HETATM    1  O   UNL     1      -2.766  20.315  24.811  1.00  0.00    -0.290 OA
HETATM    2  C   UNL     1      -3.757  18.213  23.361  1.00  0.00     0.018 C 
HETATM    3  C   UNL     1      -2.555  17.971  27.298  1.00  0.00    -0.000 C 
HETATM    4  C   UNL     1      -4.344  17.356  22.486  1.00  0.00     0.025 C 
HETATM    5  C   UNL     1      -3.590  18.148  24.717  1.00  0.00     0.025 C 
HETATM    6  C   UNL     1      -1.552  15.195  27.522  1.00  0.00     0.088 C 
HETATM    7  N   UNL     1      -2.675  15.570  26.978  1.00  0.00    -0.365 N 
ATOM      8  HN  UNL     1      -3.392  14.860  26.824  1.00  0.00     0.165 HD
HETATM    9  C   UNL     1      -1.533  18.104  28.203  1.00  0.00     0.012 C 
HETATM   10  C   UNL     1      -4.830  16.106  22.741  1.00  0.00     0.034 C 
HETATM   11  C   UNL     1      -5.218  15.683  23.987  1.00  0.00     0.024 C 
HETATM   12  C   UNL     1      -4.724  16.043  25.199  1.00  0.00     0.016 C 
HETATM   13  C   UNL     1      -3.772  16.994  25.478  1.00  0.00     0.005 C 
HETATM   14  C   UNL     1      -3.187  19.329  25.385  1.00  0.00     0.187 C 
HETATM   15  C   UNL     1      -0.506  17.223  28.375  1.00  0.00     0.002 C 
HETATM   16  C   UNL     1      -2.951  16.826  26.610  1.00  0.00     0.052 C 
HETATM   17  C   UNL     1      -0.539  15.908  28.039  1.00  0.00     0.017 C 
HETATM   18  C   UNL     1      -3.211  19.267  26.875  1.00  0.00     0.192 C 
HETATM   19 CL   UNL     1      -4.979  15.002  21.404  1.00  0.00    -0.084 Cl
ENDROOT
BRANCH  18  20
HETATM   20  N   UNL     1      -4.616  19.192  27.280  1.00  0.00    -0.374 N 
ATOM     21  HN  UNL     1      -5.336  19.027  26.577  1.00  0.00     0.160 HD
BRANCH  20  22
HETATM   22  C   UNL     1      -4.968  19.338  28.571  1.00  0.00     0.029 C 
HETATM   23  C   UNL     1      -5.268  20.614  29.070  1.00  0.00     0.032 C 
HETATM   24  C   UNL     1      -6.449  20.696  29.801  1.00  0.00     0.039 C 
HETATM   25  C   UNL     1      -7.119  19.499  30.042  1.00  0.00     0.068 C 
HETATM   26  C   UNL     1      -6.351  18.343  30.207  1.00  0.00     0.039 C 
HETATM   27  C   UNL     1      -5.213  18.241  29.393  1.00  0.00     0.032 C 
BRANCH  25  28
HETATM   28  O   UNL     1      -8.467  19.471  29.875  1.00  0.00    -0.356 OA
HETATM   29  C   UNL     1      -9.265  19.814  30.990  1.00  0.00     0.210 C 
ENDBRANCH  25  28
ENDBRANCH  20  22
ENDBRANCH  18  20
TORSDOF 3
ENDMDL
MODEL 7
REMARK VINA RESULT:      -7.8      3.048      4.887
REMARK  3 active torsions:
REMARK  status: ('A' for Active; 'I' for Inactive)
REMARK    1  A    between atoms: C_5  and  N_27 
REMARK    2  A    between atoms: O_9  and  C_29 
REMARK    3  A    between atoms: C_21  and  N_27 
ROOT
HETATM    1  O   UNL     1      -2.363  17.615  29.051  1.00  0.00    -0.290 OA
HETATM    2  C   UNL     1      -4.938  18.150  29.814  1.00  0.00     0.018 C 
HETATM    3  C   UNL     1      -3.756  17.448  25.928  1.00  0.00    -0.000 C 
HETATM    4  C   UNL     1      -6.133  18.345  30.430  1.00  0.00     0.025 C 
HETATM    5  C   UNL     1      -4.630  17.698  28.561  1.00  0.00     0.025 C 
HETATM    6  C   UNL     1      -5.635  19.102  24.347  1.00  0.00     0.088 C 
HETATM    7  N   UNL     1      -5.947  18.293  25.320  1.00  0.00    -0.365 N 
ATOM      8  HN  UNL     1      -6.922  18.007  25.409  1.00  0.00     0.165 HD
HETATM    9  C   UNL     1      -2.977  17.841  24.869  1.00  0.00     0.012 C 
HETATM   10  C   UNL     1      -7.380  18.244  29.884  1.00  0.00     0.034 C 
HETATM   11  C   UNL     1      -7.660  17.501  28.764  1.00  0.00     0.024 C 
HETATM   12  C   UNL     1      -6.865  17.243  27.695  1.00  0.00     0.016 C 
HETATM   13  C   UNL     1      -5.546  17.588  27.516  1.00  0.00     0.005 C 
HETATM   14  C   UNL     1      -3.285  17.335  28.308  1.00  0.00     0.187 C 
HETATM   15  C   UNL     1      -3.224  18.906  24.055  1.00  0.00     0.002 C 
HETATM   16  C   UNL     1      -5.071  17.813  26.209  1.00  0.00     0.052 C 
HETATM   17  C   UNL     1      -4.442  19.469  23.851  1.00  0.00     0.017 C 
HETATM   18  C   UNL     1      -3.033  16.664  27.000  1.00  0.00     0.192 C 
HETATM   19 CL   UNL     1      -8.683  19.093  30.666  1.00  0.00    -0.084 Cl
ENDROOT
BRANCH  18  20
HETATM   20  N   UNL     1      -3.662  15.342  27.067  1.00  0.00    -0.374 N 
ATOM     21  HN  UNL     1      -4.552  15.183  26.595  1.00  0.00     0.160 HD
BRANCH  20  22
HETATM   22  C   UNL     1      -3.079  14.338  27.746  1.00  0.00     0.029 C 
HETATM   23  C   UNL     1      -3.875  13.401  28.422  1.00  0.00     0.032 C 
HETATM   24  C   UNL     1      -3.543  12.071  28.187  1.00  0.00     0.039 C 
HETATM   25  C   UNL     1      -2.410  11.836  27.413  1.00  0.00     0.068 C 
HETATM   26  C   UNL     1      -1.351  12.743  27.515  1.00  0.00     0.039 C 
HETATM   27  C   UNL     1      -1.711  14.091  27.661  1.00  0.00     0.032 C 
BRANCH  25  28
HETATM   28  O   UNL     1      -2.477  10.888  26.443  1.00  0.00    -0.356 OA
HETATM   29  C   UNL     1      -1.257  10.461  25.868  1.00  0.00     0.210 C 
ENDBRANCH  25  28
ENDBRANCH  20  22
ENDBRANCH  18  20
TORSDOF 3
ENDMDL
MODEL 8
REMARK VINA RESULT:      -7.7      3.065      6.451
REMARK  3 active torsions:
REMARK  status: ('A' for Active; 'I' for Inactive)
REMARK    1  A    between atoms: C_5  and  N_27 
REMARK    2  A    between atoms: O_9  and  C_29 
REMARK    3  A    between atoms: C_21  and  N_27 
ROOT
HETATM    1  O   UNL     1      -6.003  15.296  28.302  1.00  0.00    -0.290 OA
HETATM    2  C   UNL     1      -3.546  14.121  28.017  1.00  0.00     0.018 C 
HETATM    3  C   UNL     1      -4.790  17.457  25.940  1.00  0.00    -0.000 C 
HETATM    4  C   UNL     1      -2.380  13.430  28.108  1.00  0.00     0.025 C 
HETATM    5  C   UNL     1      -3.831  15.349  27.488  1.00  0.00     0.025 C 
HETATM    6  C   UNL     1      -3.374  17.202  23.353  1.00  0.00     0.088 C 
HETATM    7  N   UNL     1      -2.851  17.061  24.538  1.00  0.00    -0.365 N 
ATOM      8  HN  UNL     1      -1.834  17.102  24.619  1.00  0.00     0.165 HD
HETATM    9  C   UNL     1      -5.692  18.000  25.060  1.00  0.00     0.012 C 
HETATM   10  C   UNL     1      -1.172  13.756  27.562  1.00  0.00     0.034 C 
HETATM   11  C   UNL     1      -0.816  15.036  27.218  1.00  0.00     0.024 C 
HETATM   12  C   UNL     1      -1.605  16.047  26.776  1.00  0.00     0.016 C 
HETATM   13  C   UNL     1      -2.974  16.064  26.652  1.00  0.00     0.005 C 
HETATM   14  C   UNL     1      -5.090  15.919  27.796  1.00  0.00     0.187 C 
HETATM   15  C   UNL     1      -5.710  17.791  23.713  1.00  0.00     0.002 C 
HETATM   16  C   UNL     1      -3.560  16.868  25.655  1.00  0.00     0.052 C 
HETATM   17  C   UNL     1      -4.642  17.411  22.965  1.00  0.00     0.017 C 
HETATM   18  C   UNL     1      -5.278  17.335  27.366  1.00  0.00     0.192 C 
HETATM   19 CL   UNL     1      -0.021  12.476  27.307  1.00  0.00    -0.084 Cl
ENDROOT
BRANCH  18  20
HETATM   20  N   UNL     1      -4.396  18.158  28.196  1.00  0.00    -0.374 N 
ATOM     21  HN  UNL     1      -3.398  18.194  27.990  1.00  0.00     0.160 HD
BRANCH  20  22
HETATM   22  C   UNL     1      -4.888  18.867  29.228  1.00  0.00     0.029 C 
HETATM   23  C   UNL     1      -5.150  20.236  29.071  1.00  0.00     0.032 C 
HETATM   24  C   UNL     1      -6.400  20.650  29.519  1.00  0.00     0.039 C 
HETATM   25  C   UNL     1      -7.182  19.694  30.162  1.00  0.00     0.068 C 
HETATM   26  C   UNL     1      -6.528  18.721  30.923  1.00  0.00     0.039 C 
HETATM   27  C   UNL     1      -5.311  18.253  30.405  1.00  0.00     0.032 C 
BRANCH  25  28
HETATM   28  O   UNL     1      -8.498  19.613  29.837  1.00  0.00    -0.356 OA
HETATM   29  C   UNL     1      -9.436  19.847  30.869  1.00  0.00     0.210 C 
ENDBRANCH  25  28
ENDBRANCH  20  22
ENDBRANCH  18  20
TORSDOF 3
ENDMDL
MODEL 9
REMARK VINA RESULT:      -7.4      6.987     10.627
REMARK  3 active torsions:
REMARK  status: ('A' for Active; 'I' for Inactive)
REMARK    1  A    between atoms: C_5  and  N_27 
REMARK    2  A    between atoms: O_9  and  C_29 
REMARK    3  A    between atoms: C_21  and  N_27 
ROOT
HETATM    1  O   UNL     1      -1.061   8.407  25.657  1.00  0.00    -0.290 OA
HETATM    2  C   UNL     1      -0.866  11.008  26.492  1.00  0.00     0.018 C 
HETATM    3  C   UNL     1       2.080   8.994  24.428  1.00  0.00    -0.000 C 
HETATM    4  C   UNL     1      -1.030  12.286  26.923  1.00  0.00     0.025 C 
HETATM    5  C   UNL     1       0.028  10.455  25.618  1.00  0.00     0.025 C 
HETATM    6  C   UNL     1       4.573  10.211  25.461  1.00  0.00     0.088 C 
HETATM    7  N   UNL     1       3.510  10.849  25.058  1.00  0.00    -0.365 N 
ATOM      8  HN  UNL     1       3.601  11.843  24.846  1.00  0.00     0.165 HD
HETATM    9  C   UNL     1       2.954   7.936  24.401  1.00  0.00     0.012 C 
HETATM   10  C   UNL     1      -0.229  13.362  26.666  1.00  0.00     0.034 C 
HETATM   11  C   UNL     1       0.608  13.442  25.582  1.00  0.00     0.024 C 
HETATM   12  C   UNL     1       1.268  12.445  24.942  1.00  0.00     0.016 C 
HETATM   13  C   UNL     1       1.184  11.091  25.167  1.00  0.00     0.005 C 
HETATM   14  C   UNL     1      -0.233   9.143  25.156  1.00  0.00     0.187 C 
HETATM   15  C   UNL     1       4.112   7.845  25.114  1.00  0.00     0.002 C 
HETATM   16  C   UNL     1       2.308  10.284  24.902  1.00  0.00     0.052 C 
HETATM   17  C   UNL     1       4.817   8.898  25.599  1.00  0.00     0.017 C 
HETATM   18  C   UNL     1       0.653   8.658  24.058  1.00  0.00     0.192 C 
HETATM   19 CL   UNL     1      -0.294  14.706  27.769  1.00  0.00    -0.084 Cl
ENDROOT
BRANCH  18  20
HETATM   20  N   UNL     1       0.322   9.437  22.862  1.00  0.00    -0.374 N 
ATOM     21  HN  UNL     1      -0.315  10.230  22.937  1.00  0.00     0.160 HD
BRANCH  20  22
HETATM   22  C   UNL     1       0.850   9.118  21.667  1.00  0.00     0.029 C 
HETATM   23  C   UNL     1       0.408   7.969  20.995  1.00  0.00     0.032 C 
HETATM   24  C   UNL     1       0.085   8.160  19.655  1.00  0.00     0.039 C 
HETATM   25  C   UNL     1       0.345   9.421  19.123  1.00  0.00     0.068 C 
HETATM   26  C   UNL     1       1.451  10.120  19.613  1.00  0.00     0.039 C 
HETATM   27  C   UNL     1       1.703   9.984  20.987  1.00  0.00     0.032 C 
BRANCH  25  28
HETATM   28  O   UNL     1      -0.602   9.996  18.338  1.00  0.00    -0.356 OA
HETATM   29  C   UNL     1      -0.169  10.594  17.132  1.00  0.00     0.210 C 
ENDBRANCH  25  28
ENDBRANCH  20  22
ENDBRANCH  18  20
TORSDOF 3
ENDMDL
