MODEL 1
REMARK VINA RESULT:      -6.3      0.000      0.000
REMARK  2 active torsions:
REMARK  status: ('A' for Active; 'I' for Inactive)
REMARK    1  A    between atoms: C_4  and  O_10 
REMARK    2  A    between atoms: O_7  and  C_12 
ROOT
HETATM    1  C   UNL     1      70.156  46.760  67.511  1.00  0.00     0.053 C 
HETATM    2  O   UNL     1      71.482  48.336  66.408  1.00  0.00    -0.293 OA
HETATM    3  C   UNL     1      71.532  44.701  65.895  1.00  0.00     0.026 C 
HETATM    4  C   UNL     1      69.059  44.790  66.323  1.00  0.00     0.050 C 
HETATM    5  C   UNL     1      69.264  45.792  67.418  1.00  0.00     0.036 C 
HETATM    6  C   UNL     1      70.988  46.308  64.116  1.00  0.00     0.045 C 
HETATM    7  C   UNL     1      70.148  44.356  65.328  1.00  0.00     0.072 C 
HETATM    8  C   UNL     1      70.168  45.032  63.966  1.00  0.00     0.129 C 
HETATM    9  C   UNL     1      71.712  46.165  65.467  1.00  0.00     0.063 C 
HETATM   10  C   UNL     1      71.167  47.145  66.488  1.00  0.00     0.153 C 
ENDROOT
BRANCH   4  11
HETATM   11  O   UNL     1      67.833  45.070  65.684  1.00  0.00    -0.364 OA
ATOM     12  HO  UNL     1      67.142  45.054  66.336  1.00  0.00     0.217 HD
ENDBRANCH   4  11
BRANCH   8  13
HETATM   13  O   UNL     1      68.941  45.162  63.295  1.00  0.00    -0.395 OA
ATOM     14  HO  UNL     1      68.192  44.746  63.708  1.00  0.00     0.210 HD
ENDBRANCH   8  13
TORSDOF 2
ENDMDL
MODEL 2
REMARK VINA RESULT:      -6.1      1.081      3.805
REMARK  2 active torsions:
REMARK  status: ('A' for Active; 'I' for Inactive)
REMARK    1  A    between atoms: C_4  and  O_10 
REMARK    2  A    between atoms: O_7  and  C_12 
ROOT
HETATM    1  C   UNL     1      70.910  45.561  64.172  1.00  0.00     0.053 C 
HETATM    2  O   UNL     1      68.713  44.825  63.875  1.00  0.00    -0.293 OA
HETATM    3  C   UNL     1      70.690  44.602  66.961  1.00  0.00     0.026 C 
HETATM    4  C   UNL     1      71.694  46.795  66.259  1.00  0.00     0.050 C 
HETATM    5  C   UNL     1      71.747  46.338  64.833  1.00  0.00     0.036 C 
HETATM    6  C   UNL     1      68.578  45.848  66.798  1.00  0.00     0.045 C 
HETATM    7  C   UNL     1      70.945  46.056  67.381  1.00  0.00     0.072 C 
HETATM    8  C   UNL     1      69.551  46.548  67.740  1.00  0.00     0.129 C 
HETATM    9  C   UNL     1      69.390  44.711  66.152  1.00  0.00     0.063 C 
HETATM   10  C   UNL     1      69.636  44.982  64.680  1.00  0.00     0.153 C 
ENDROOT
BRANCH   4  11
HETATM   11  O   UNL     1      71.445  48.183  66.275  1.00  0.00    -0.364 OA
ATOM     12  HO  UNL     1      71.411  48.494  65.378  1.00  0.00     0.217 HD
ENDBRANCH   4  11
BRANCH   8  13
HETATM   13  O   UNL     1      69.378  47.934  67.890  1.00  0.00    -0.395 OA
ATOM     14  HO  UNL     1      69.944  48.486  67.362  1.00  0.00     0.210 HD
ENDBRANCH   8  13
TORSDOF 2
ENDMDL
MODEL 3
REMARK VINA RESULT:      -6.0      1.780      3.899
REMARK  2 active torsions:
REMARK  status: ('A' for Active; 'I' for Inactive)
REMARK    1  A    between atoms: C_4  and  O_10 
REMARK    2  A    between atoms: O_7  and  C_12 
ROOT
HETATM    1  C   UNL     1      70.814  42.651  65.357  1.00  0.00     0.053 C 
HETATM    2  O   UNL     1      68.568  43.073  64.874  1.00  0.00    -0.293 OA
HETATM    3  C   UNL     1      70.535  44.573  67.588  1.00  0.00     0.026 C 
HETATM    4  C   UNL     1      72.469  44.483  65.987  1.00  0.00     0.050 C 
HETATM    5  C   UNL     1      72.034  43.133  65.504  1.00  0.00     0.036 C 
HETATM    6  C   UNL     1      69.489  45.887  65.793  1.00  0.00     0.045 C 
HETATM    7  C   UNL     1      71.622  45.399  66.886  1.00  0.00     0.072 C 
HETATM    8  C   UNL     1      70.819  46.500  66.211  1.00  0.00     0.129 C 
HETATM    9  C   UNL     1      69.411  44.544  66.541  1.00  0.00     0.063 C 
HETATM   10  C   UNL     1      69.533  43.375  65.582  1.00  0.00     0.153 C 
ENDROOT
BRANCH   4  11
HETATM   11  O   UNL     1      73.046  45.181  64.907  1.00  0.00    -0.364 OA
ATOM     12  HO  UNL     1      73.807  44.697  64.607  1.00  0.00     0.217 HD
ENDBRANCH   4  11
BRANCH   8  13
HETATM   13  O   UNL     1      71.477  47.272  65.239  1.00  0.00    -0.395 OA
ATOM     14  HO  UNL     1      71.451  46.935  64.350  1.00  0.00     0.210 HD
ENDBRANCH   8  13
TORSDOF 2
ENDMDL
MODEL 4
REMARK VINA RESULT:      -6.0      1.447      3.479
REMARK  2 active torsions:
REMARK  status: ('A' for Active; 'I' for Inactive)
REMARK    1  A    between atoms: C_4  and  O_10 
REMARK    2  A    between atoms: O_7  and  C_12 
ROOT
HETATM    1  C   UNL     1      68.788  45.296  66.280  1.00  0.00     0.053 C 
HETATM    2  O   UNL     1      69.211  43.094  65.626  1.00  0.00    -0.293 OA
HETATM    3  C   UNL     1      70.776  46.118  64.251  1.00  0.00     0.026 C 
HETATM    4  C   UNL     1      70.626  47.035  66.585  1.00  0.00     0.050 C 
HETATM    5  C   UNL     1      69.266  46.430  66.757  1.00  0.00     0.036 C 
HETATM    6  C   UNL     1      72.044  44.322  65.351  1.00  0.00     0.045 C 
HETATM    7  C   UNL     1      71.574  46.722  65.416  1.00  0.00     0.072 C 
HETATM    8  C   UNL     1      72.661  45.684  65.649  1.00  0.00     0.129 C 
HETATM    9  C   UNL     1      70.724  44.628  64.621  1.00  0.00     0.063 C 
HETATM   10  C   UNL     1      69.527  44.279  65.483  1.00  0.00     0.153 C 
ENDROOT
BRANCH   4  11
HETATM   11  O   UNL     1      71.287  47.010  67.830  1.00  0.00    -0.364 OA
ATOM     12  HO  UNL     1      70.780  47.519  68.452  1.00  0.00     0.217 HD
ENDBRANCH   4  11
BRANCH   8  13
HETATM   13  O   UNL     1      73.398  45.781  66.840  1.00  0.00    -0.395 OA
ATOM     14  HO  UNL     1      72.935  46.136  67.591  1.00  0.00     0.210 HD
ENDBRANCH   8  13
TORSDOF 2
ENDMDL
MODEL 5
REMARK VINA RESULT:      -5.8      2.040      3.680
REMARK  2 active torsions:
REMARK  status: ('A' for Active; 'I' for Inactive)
REMARK    1  A    between atoms: C_4  and  O_10 
REMARK    2  A    between atoms: O_7  and  C_12 
ROOT
HETATM    1  C   UNL     1      69.774  43.237  65.176  1.00  0.00     0.053 C 
HETATM    2  O   UNL     1      69.030  44.889  63.700  1.00  0.00    -0.293 OA
HETATM    3  C   UNL     1      69.972  45.369  67.216  1.00  0.00     0.026 C 
HETATM    4  C   UNL     1      71.702  43.594  66.805  1.00  0.00     0.050 C 
HETATM    5  C   UNL     1      70.728  42.808  65.981  1.00  0.00     0.036 C 
HETATM    6  C   UNL     1      71.106  46.495  65.349  1.00  0.00     0.045 C 
HETATM    7  C   UNL     1      71.470  45.038  67.280  1.00  0.00     0.072 C 
HETATM    8  C   UNL     1      72.093  46.157  66.460  1.00  0.00     0.129 C 
HETATM    9  C   UNL     1      69.790  45.809  65.756  1.00  0.00     0.063 C 
HETATM   10  C   UNL     1      69.465  44.653  64.831  1.00  0.00     0.153 C 
ENDROOT
BRANCH   4  11
HETATM   11  O   UNL     1      72.993  43.408  66.270  1.00  0.00    -0.364 OA
ATOM     12  HO  UNL     1      73.180  44.126  65.677  1.00  0.00     0.217 HD
ENDBRANCH   4  11
BRANCH   8  13
HETATM   13  O   UNL     1      73.433  45.998  66.069  1.00  0.00    -0.395 OA
ATOM     14  HO  UNL     1      73.991  45.520  66.672  1.00  0.00     0.210 HD
ENDBRANCH   8  13
TORSDOF 2
ENDMDL
MODEL 6
REMARK VINA RESULT:      -5.8      1.959      3.364
REMARK  2 active torsions:
REMARK  status: ('A' for Active; 'I' for Inactive)
REMARK    1  A    between atoms: C_4  and  O_10 
REMARK    2  A    between atoms: O_7  and  C_12 
ROOT
HETATM    1  C   UNL     1      72.742  44.499  65.797  1.00  0.00     0.053 C 
HETATM    2  O   UNL     1      72.257  42.226  66.028  1.00  0.00    -0.293 OA
HETATM    3  C   UNL     1      70.055  45.027  66.915  1.00  0.00     0.026 C 
HETATM    4  C   UNL     1      71.053  46.201  64.931  1.00  0.00     0.050 C 
HETATM    5  C   UNL     1      72.410  45.663  65.270  1.00  0.00     0.036 C 
HETATM    6  C   UNL     1      69.466  43.324  65.243  1.00  0.00     0.045 C 
HETATM    7  C   UNL     1      69.744  45.730  65.586  1.00  0.00     0.072 C 
HETATM    8  C   UNL     1      68.920  44.689  64.844  1.00  0.00     0.129 C 
HETATM    9  C   UNL     1      70.360  43.589  66.468  1.00  0.00     0.063 C 
HETATM   10  C   UNL     1      71.824  43.377  66.135  1.00  0.00     0.153 C 
ENDROOT
BRANCH   4  11
HETATM   11  O   UNL     1      70.945  46.292  63.528  1.00  0.00    -0.364 OA
ATOM     12  HO  UNL     1      71.524  45.647  63.138  1.00  0.00     0.217 HD
ENDBRANCH   4  11
BRANCH   8  13
HETATM   13  O   UNL     1      68.712  44.894  63.470  1.00  0.00    -0.395 OA
ATOM     14  HO  UNL     1      67.819  45.082  63.205  1.00  0.00     0.210 HD
ENDBRANCH   8  13
TORSDOF 2
ENDMDL
MODEL 7
REMARK VINA RESULT:      -5.8      1.964      3.020
REMARK  2 active torsions:
REMARK  status: ('A' for Active; 'I' for Inactive)
REMARK    1  A    between atoms: C_4  and  O_10 
REMARK    2  A    between atoms: O_7  and  C_12 
ROOT
HETATM    1  C   UNL     1      71.305  47.319  66.354  1.00  0.00     0.053 C 
HETATM    2  O   UNL     1      69.313  47.596  67.543  1.00  0.00    -0.293 OA
HETATM    3  C   UNL     1      69.773  45.608  64.490  1.00  0.00     0.026 C 
HETATM    4  C   UNL     1      72.055  45.079  65.398  1.00  0.00     0.050 C 
HETATM    5  C   UNL     1      72.214  46.490  65.877  1.00  0.00     0.036 C 
HETATM    6  C   UNL     1      69.021  44.650  66.624  1.00  0.00     0.045 C 
HETATM    7  C   UNL     1      70.735  44.479  64.887  1.00  0.00     0.072 C 
HETATM    8  C   UNL     1      69.905  43.665  65.868  1.00  0.00     0.129 C 
HETATM    9  C   UNL     1      69.106  45.963  65.827  1.00  0.00     0.063 C 
HETATM   10  C   UNL     1      69.866  47.025  66.598  1.00  0.00     0.153 C 
ENDROOT
BRANCH   4  11
HETATM   11  O   UNL     1      72.716  44.222  66.302  1.00  0.00    -0.364 OA
ATOM     12  HO  UNL     1      72.966  43.430  65.840  1.00  0.00     0.217 HD
ENDBRANCH   4  11
BRANCH   8  13
HETATM   13  O   UNL     1      70.582  42.716  66.650  1.00  0.00    -0.395 OA
ATOM     14  HO  UNL     1      71.113  43.060  67.359  1.00  0.00     0.210 HD
ENDBRANCH   8  13
TORSDOF 2
ENDMDL
MODEL 8
REMARK VINA RESULT:      -5.6      1.850      2.923
REMARK  2 active torsions:
REMARK  status: ('A' for Active; 'I' for Inactive)
REMARK    1  A    between atoms: C_4  and  O_10 
REMARK    2  A    between atoms: O_7  and  C_12 
ROOT
HETATM    1  C   UNL     1      70.681  44.979  68.244  1.00  0.00     0.053 C 
HETATM    2  O   UNL     1      71.544  42.931  67.524  1.00  0.00    -0.293 OA
HETATM    3  C   UNL     1      68.652  44.697  66.111  1.00  0.00     0.026 C 
HETATM    4  C   UNL     1      69.911  46.805  66.642  1.00  0.00     0.050 C 
HETATM    5  C   UNL     1      70.371  46.227  67.945  1.00  0.00     0.036 C 
HETATM    6  C   UNL     1      70.671  44.162  64.816  1.00  0.00     0.045 C 
HETATM    7  C   UNL     1      69.221  45.999  65.529  1.00  0.00     0.072 C 
HETATM    8  C   UNL     1      70.085  45.500  64.381  1.00  0.00     0.129 C 
HETATM    9  C   UNL     1      69.861  43.752  66.059  1.00  0.00     0.063 C 
HETATM   10  C   UNL     1      70.711  43.817  67.313  1.00  0.00     0.153 C 
ENDROOT
BRANCH   4  11
HETATM   11  O   UNL     1      70.928  47.644  66.141  1.00  0.00    -0.364 OA
ATOM     12  HO  UNL     1      71.769  47.244  66.328  1.00  0.00     0.217 HD
ENDBRANCH   4  11
BRANCH   8  13
HETATM   13  O   UNL     1      70.986  46.414  63.811  1.00  0.00    -0.395 OA
ATOM     14  HO  UNL     1      71.743  46.039  63.376  1.00  0.00     0.210 HD
ENDBRANCH   8  13
TORSDOF 2
ENDMDL
MODEL 9
REMARK VINA RESULT:      -5.5      1.598      2.741
REMARK  2 active torsions:
REMARK  status: ('A' for Active; 'I' for Inactive)
REMARK    1  A    between atoms: C_4  and  O_10 
REMARK    2  A    between atoms: O_7  and  C_12 
ROOT
HETATM    1  C   UNL     1      72.835  44.416  65.554  1.00  0.00     0.053 C 
HETATM    2  O   UNL     1      73.213  46.359  66.796  1.00  0.00    -0.293 OA
HETATM    3  C   UNL     1      70.712  45.918  64.145  1.00  0.00     0.026 C 
HETATM    4  C   UNL     1      70.502  43.560  64.988  1.00  0.00     0.050 C 
HETATM    5  C   UNL     1      71.985  43.477  65.183  1.00  0.00     0.036 C 
HETATM    6  C   UNL     1      70.134  46.489  66.465  1.00  0.00     0.045 C 
HETATM    7  C   UNL     1      69.738  44.859  64.684  1.00  0.00     0.072 C 
HETATM    8  C   UNL     1      69.078  45.578  65.850  1.00  0.00     0.129 C 
HETATM    9  C   UNL     1      71.274  46.538  65.432  1.00  0.00     0.063 C 
HETATM   10  C   UNL     1      72.507  45.816  65.942  1.00  0.00     0.153 C 
ENDROOT
BRANCH   4  11
HETATM   11  O   UNL     1      69.874  42.794  65.991  1.00  0.00    -0.364 OA
ATOM     12  HO  UNL     1      70.531  42.530  66.625  1.00  0.00     0.217 HD
ENDBRANCH   4  11
BRANCH   8  13
HETATM   13  O   UNL     1      68.337  44.795  66.751  1.00  0.00    -0.395 OA
ATOM     14  HO  UNL     1      68.773  44.568  67.564  1.00  0.00     0.210 HD
ENDBRANCH   8  13
TORSDOF 2
ENDMDL
