REMARK  3 active torsions:
REMARK  status: ('A' for Active; 'I' for Inactive)
REMARK    1  A    between atoms: C_4  and  C_5 
REMARK    2  A    between atoms: C_14  and  C_17 
REMARK    3  A    between atoms: C_18  and  O_26 
ROOT
HETATM    1  C   UNL     1     -28.869  21.054 -17.308  1.00  0.00    -0.039 C 
HETATM    2  C   UNL     1     -27.527  23.577 -16.382  1.00  0.00    -0.016 C 
HETATM    3  C   UNL     1     -28.334  24.845 -14.581  1.00  0.00     0.180 C 
HETATM    4  C   UNL     1     -26.771  23.249 -17.491  1.00  0.00    -0.044 C 
HETATM    5  C   UNL     1     -28.704  23.014 -15.913  1.00  0.00     0.076 C 
HETATM    6  C   UNL     1     -27.485  20.929 -17.417  1.00  0.00     0.009 C 
HETATM    7  C   UNL     1     -29.419  21.904 -16.366  1.00  0.00     0.045 C 
HETATM    8  C   UNL     1     -27.112  24.684 -15.443  1.00  0.00     0.068 C 
HETATM    9  C   UNL     1     -26.616  21.929 -17.828  1.00  0.00     0.009 C 
HETATM   10  O   UNL     1     -29.152  23.674 -14.793  1.00  0.00    -0.350 OA
ENDROOT
BRANCH   4  11
HETATM   11  C   UNL     1     -25.926  24.307 -18.149  1.00  0.00     0.028 C 
HETATM   12  C   UNL     1     -24.584  24.292 -17.394  1.00  0.00     0.048 C 
HETATM   13  C   UNL     1     -23.770  23.400 -18.289  1.00  0.00    -0.051 C 
HETATM   14  C   UNL     1     -22.724  22.631 -17.822  1.00  0.00     0.010 C 
HETATM   15  C   UNL     1     -24.291  23.373 -19.579  1.00  0.00    -0.051 C 
HETATM   16  C   UNL     1     -21.582  22.283 -18.533  1.00  0.00     0.037 C 
HETATM   17  C   UNL     1     -21.350  22.648 -19.853  1.00  0.00     0.065 C 
HETATM   18  C   UNL     1     -22.306  22.627 -20.837  1.00  0.00     0.037 C 
HETATM   19  C   UNL     1     -23.645  22.904 -20.688  1.00  0.00     0.010 C 
HETATM   20  C   UNL     1     -25.681  23.946 -19.626  1.00  0.00     0.048 C 
BRANCH  17  21
HETATM   21  O   UNL     1     -20.156  23.191 -20.222  1.00  0.00    -0.361 OA
ATOM     22  HO  UNL     1     -19.494  23.206 -19.541  1.00  0.00     0.217 HD
ENDBRANCH  17  21
ENDBRANCH   4  11
BRANCH   1  23
HETATM   23  C   UNL     1     -29.688  20.107 -18.133  1.00  0.00     0.048 C 
HETATM   24  C   UNL     1     -30.129  18.844 -17.437  1.00  0.00     0.144 C 
HETATM   25  C   UNL     1     -30.801  18.225 -18.646  1.00  0.00     0.057 C 
HETATM   26  O   UNL     1     -30.189  18.639 -16.279  1.00  0.00    -0.296 OA
HETATM   27  C   UNL     1     -31.754  19.367 -19.073  1.00  0.00     0.013 C 
HETATM   28  C   UNL     1     -29.618  18.227 -19.614  1.00  0.00     0.013 C 
HETATM   29  C   UNL     1     -30.953  20.650 -18.813  1.00  0.00     0.023 C 
HETATM   30  C   UNL     1     -28.896  19.539 -19.308  1.00  0.00     0.023 C 
ENDBRANCH   1  23
TORSDOF 3
