REMARK  6 active torsions:
REMARK  status: ('A' for Active; 'I' for Inactive)
REMARK    1  A    between atoms: O_3  and  C_20 
REMARK    2  A    between atoms: N_12  and  C_24 
REMARK    3  A    between atoms: C_18  and  O_25 
REMARK    4  A    between atoms: C_20  and  C_28 
REMARK    5  A    between atoms: C_20  and  O_30 
REMARK    6  A    between atoms: C_20  and  C_32 
ROOT
HETATM    1  C   UNL     1     -27.449  21.175 -17.692  1.00  0.00     0.188 C 
HETATM    2  N   UNL     1     -26.818  23.109 -19.124  1.00  0.00    -0.355 N 
ATOM      3  HN  UNL     1     -27.359  23.075 -19.988  1.00  0.00     0.166 HD
HETATM    4  C   UNL     1     -25.904  24.925 -17.106  1.00  0.00     0.041 C 
HETATM    5  N   UNL     1     -28.847  20.977 -17.259  1.00  0.00    -0.319 N 
HETATM    6  C   UNL     1     -27.371  22.658 -17.976  1.00  0.00     0.057 C 
HETATM    7  C   UNL     1     -27.147  24.607 -16.598  1.00  0.00     0.094 C 
HETATM    8  O   UNL     1     -29.662  21.164 -15.134  1.00  0.00    -0.247 OA
HETATM    9  C   UNL     1     -25.140  24.464 -18.142  1.00  0.00     0.034 C 
HETATM   10  C   UNL     1     -27.866  23.457 -16.951  1.00  0.00     0.094 C 
HETATM   11  C   UNL     1     -29.221  21.702 -16.143  1.00  0.00     0.324 C 
HETATM   12  C   UNL     1     -25.560  23.604 -19.148  1.00  0.00     0.077 C 
HETATM   13  N   UNL     1     -29.032  23.070 -16.269  1.00  0.00    -0.304 N 
ATOM     14  HN  UNL     1     -29.694  23.749 -15.892  1.00  0.00     0.171 HD
ENDROOT
BRANCH  12  15
HETATM   15  C   UNL     1     -24.631  23.156 -20.290  1.00  0.00     0.234 C 
BRANCH  15  16
HETATM   16  O   UNL     1     -24.336  24.193 -21.152  1.00  0.00    -0.357 OA
ATOM     17  HO  UNL     1     -25.137  24.626 -21.421  1.00  0.00     0.214 HD
ENDBRANCH  15  16
BRANCH  15  18
HETATM   18  C   UNL     1     -23.352  22.465 -19.860  1.00  0.00     0.012 C 
HETATM   19  C   UNL     1     -23.189  21.927 -18.580  1.00  0.00     0.030 C 
HETATM   20  C   UNL     1     -22.058  21.163 -18.318  1.00  0.00     0.088 C 
HETATM   21  N   UNL     1     -21.116  20.904 -19.234  1.00  0.00    -0.375 N 
HETATM   22  C   UNL     1     -21.247  21.471 -20.446  1.00  0.00     0.088 C 
ATOM     23  HN  UNL     1     -20.325  20.297 -19.019  1.00  0.00     0.164 HD
HETATM   24  C   UNL     1     -22.309  22.299 -20.772  1.00  0.00     0.030 C 
ENDBRANCH  15  18
BRANCH  15  25
HETATM   25  O   UNL     1     -25.372  22.349 -21.120  1.00  0.00    -0.357 OA
ATOM     26  HO  UNL     1     -25.575  21.635 -20.527  1.00  0.00     0.214 HD
ENDBRANCH  15  25
ENDBRANCH  12  15
BRANCH   7  27
HETATM   27  O   UNL     1     -27.746  25.468 -15.793  1.00  0.00    -0.358 OA
ATOM     28  HO  UNL     1     -28.602  25.249 -15.443  1.00  0.00     0.217 HD
ENDBRANCH   7  27
BRANCH   5  29
HETATM   29  C   UNL     1     -29.813  20.300 -18.118  1.00  0.00     0.037 C 
HETATM   30  C   UNL     1     -30.807  19.362 -17.442  1.00  0.00     0.036 C 
HETATM   31  C   UNL     1     -31.476  18.946 -18.764  1.00  0.00    -0.012 C 
HETATM   32  C   UNL     1     -30.269  18.385 -19.506  1.00  0.00     0.007 C 
HETATM   33  C   UNL     1     -31.800  20.283 -19.440  1.00  0.00     0.007 C 
HETATM   34  C   UNL     1     -29.143  19.333 -19.106  1.00  0.00     0.031 C 
HETATM   35  C   UNL     1     -30.681  21.223 -18.979  1.00  0.00     0.031 C 
ENDBRANCH   5  29
TORSDOF 6
