REMARK  2 active torsions:
REMARK  status: ('A' for Active; 'I' for Inactive)
REMARK    1  A    between atoms: O_2  and  C_12 
REMARK    2  A    between atoms: C_14  and  O_15 
ROOT
HETATM    1  C   UNL     1       8.547  16.766  93.132  1.00  0.00     0.224 C 
HETATM    2  C   UNL     1       9.911  17.363  93.357  1.00  0.00     0.140 C 
HETATM    3  O   UNL     1       7.925  16.225  94.029  1.00  0.00    -0.273 OA
HETATM    4  C   UNL     1       8.900  16.948  90.730  1.00  0.00     0.046 C 
HETATM    5  C   UNL     1      10.275  17.115  90.884  1.00  0.00     0.031 C 
HETATM    6  N   UNL     1       8.071  16.897  91.860  1.00  0.00    -0.326 N 
ATOM      7  HN  UNL     1       7.062  16.961  91.724  1.00  0.00     0.169 HD
HETATM    8  C   UNL     1      10.511  17.416  88.515  1.00  0.00     0.037 C 
HETATM    9  C   UNL     1       8.315  17.057  89.471  1.00  0.00     0.030 C 
HETATM   10  C   UNL     1      10.906  16.968  92.262  1.00  0.00     0.165 C 
HETATM   11  C   UNL     1       9.124  17.376  88.377  1.00  0.00     0.005 C 
HETATM   12  C   UNL     1      11.069  17.075  89.739  1.00  0.00     0.076 C 
ENDROOT
BRANCH  10  13
HETATM   13  O   UNL     1      11.945  17.955  92.311  1.00  0.00    -0.390 OA
ATOM     14  HO  UNL     1      12.562  17.710  91.632  1.00  0.00     0.210 HD
ENDBRANCH  10  13
BRANCH  12  15
HETATM   15  O   UNL     1      12.400  16.812  89.829  1.00  0.00    -0.360 OA
ATOM     16  HO  UNL     1      12.941  16.785  89.049  1.00  0.00     0.217 HD
ENDBRANCH  12  15
TORSDOF 2
