REMARK  1 active torsions:
REMARK  status: ('A' for Active; 'I' for Inactive)
REMARK    1  A    between atoms: C_4  and  C_9 
ROOT
HETATM    1  C   UNL     1     -39.422 -40.692 -11.438  1.00  0.00     0.045 C 
HETATM    2  C   UNL     1     -39.765 -42.066 -10.924  1.00  0.00     0.003 C 
HETATM    3  O   UNL     1     -43.195 -42.278 -11.866  1.00  0.00    -0.292 OA
HETATM    4  C   UNL     1     -41.744 -40.438 -12.243  1.00  0.00     0.017 C 
HETATM    5  C   UNL     1     -40.849 -42.761 -11.728  1.00  0.00     0.089 C 
HETATM    6  C   UNL     1     -40.541 -36.507 -12.763  1.00  0.00     0.012 C 
HETATM    7  C   UNL     1     -41.587 -36.496 -14.916  1.00  0.00     0.001 C 
HETATM    8  C   UNL     1     -40.641 -39.876 -11.613  1.00  0.00    -0.043 C 
HETATM    9  C   UNL     1     -41.883 -38.405 -13.472  1.00  0.00    -0.025 C 
HETATM   10  C   UNL     1     -42.397 -39.690 -13.224  1.00  0.00     0.028 C 
HETATM   11  C   UNL     1     -42.053 -41.858 -11.950  1.00  0.00     0.160 C 
HETATM   12  C   UNL     1     -41.073 -37.772 -12.517  1.00  0.00    -0.025 C 
HETATM   13  C   UNL     1     -42.088 -37.770 -14.702  1.00  0.00     0.012 C 
HETATM   14  C   UNL     1     -40.647 -38.504 -11.408  1.00  0.00     0.020 C 
HETATM   15  C   UNL     1     -40.954 -35.809 -13.884  1.00  0.00     0.001 C 
ENDROOT
BRANCH   2  16
HETATM   16  C   UNL     1     -38.383 -42.695 -10.843  1.00  0.00     0.021 C 
HETATM   17  C   UNL     1     -38.380 -44.201 -10.788  1.00  0.00     0.009 C 
HETATM   18  C   UNL     1     -37.342 -44.851  -9.889  1.00  0.00     0.033 C 
HETATM   19  C   UNL     1     -36.689 -43.898  -8.875  1.00  0.00     0.186 C 
HETATM   20  C   UNL     1     -37.757 -43.442  -7.865  1.00  0.00     0.035 C 
HETATM   21  N   UNL     1     -36.328 -42.671  -9.598  1.00  0.00    -0.066 N 
HETATM   22  C   UNL     1     -38.354 -42.147  -8.407  1.00  0.00     0.035 C 
HETATM   23  C   UNL     1     -37.610 -41.952  -9.743  1.00  0.00     0.191 C 
ATOM     24  HN2 UNL     1     -35.589 -42.125  -9.155  1.00  0.00     0.278 HD
ATOM     25  HN1 UNL     1     -35.835 -42.831 -10.477  1.00  0.00     0.278 HD
ENDBRANCH   2  16
TORSDOF 1
