MODEL 1
REMARK VINA RESULT:     -12.7      0.000      0.000
REMARK  2 active torsions:
REMARK  status: ('A' for Active; 'I' for Inactive)
REMARK    1  A    between atoms: O_1  and  C_17 
REMARK    2  A    between atoms: O_22  and  C_32 
ROOT
HETATM    1  C   UNL     1      -4.999  24.592  26.656  1.00  0.00     0.041 C 
HETATM    2  C   UNL     1      -3.570  20.818  27.636  1.00  0.00    -0.007 C 
HETATM    3  C   UNL     1      -4.266  24.425  27.984  1.00  0.00    -0.069 C 
HETATM    4  C   UNL     1      -4.949  26.046  26.195  1.00  0.00     0.013 C 
HETATM    5  N   UNL     1      -2.524  25.485  25.597  1.00  0.00    -0.292 N 
ATOM      6  HN  UNL     1      -1.857  25.230  26.325  1.00  0.00     0.174 HD
HETATM    7  C   UNL     1      -5.459  26.886  27.379  1.00  0.00     0.012 C 
HETATM    8  C   UNL     1      -3.377  18.382  30.252  1.00  0.00     0.088 C 
HETATM    9  C   UNL     1      -1.910  19.873  31.464  1.00  0.00     0.002 C 
HETATM   10  C   UNL     1      -3.086  27.286  27.186  1.00  0.00     0.031 C 
HETATM   11  C   UNL     1      -2.439  18.628  31.185  1.00  0.00     0.017 C 
HETATM   12  C   UNL     1      -3.515  26.508  25.941  1.00  0.00     0.099 C 
HETATM   13  O   UNL     1      -3.641  24.780  23.459  1.00  0.00    -0.176 OA
HETATM   14  O   UNL     1      -2.026  23.174  24.414  1.00  0.00    -0.259 OA
HETATM   15  C   UNL     1      -1.696  20.162  24.446  1.00  0.00     0.156 C 
HETATM   16  C   UNL     1      -3.172  21.394  29.914  1.00  0.00    -0.008 C 
HETATM   17  O   UNL     1      -1.220  25.289  23.465  1.00  0.00    -0.176 OA
HETATM   18  C   UNL     1      -2.903  20.117  26.626  1.00  0.00     0.022 C 
HETATM   19  C   UNL     1      -3.990  23.076  28.362  1.00  0.00    -0.032 C 
HETATM   20  C   UNL     1      -4.153  22.058  27.410  1.00  0.00     0.025 C 
HETATM   21  C   UNL     1      -1.660  22.398  23.266  1.00  0.00     0.199 C 
HETATM   22  N   UNL     1      -3.982  19.181  29.370  1.00  0.00    -0.365 N 
ATOM     23  HN  UNL     1      -4.834  18.825  28.938  1.00  0.00     0.165 HD
HETATM   24  S   UNL     1      -2.381  24.709  24.154  1.00  0.00     0.358 S 
HETATM   25  C   UNL     1      -3.917  25.600  28.842  1.00  0.00     0.039 C 
HETATM   26  C   UNL     1      -3.774  20.975  23.381  1.00  0.00     0.046 C 
HETATM   27  C   UNL     1      -2.908  19.962  25.322  1.00  0.00    -0.022 C 
HETATM   28  C   UNL     1      -4.145  19.948  24.445  1.00  0.00     0.150 C 
HETATM   29  C   UNL     1      -4.191  26.985  28.220  1.00  0.00    -0.008 C 
HETATM   30  C   UNL     1      -3.563  22.717  29.647  1.00  0.00     0.025 C 
HETATM   31  C   UNL     1      -2.254  20.998  23.288  1.00  0.00     0.047 C 
HETATM   32  C   UNL     1      -2.327  21.088  30.983  1.00  0.00     0.014 C 
HETATM   33  C   UNL     1      -3.578  20.415  28.991  1.00  0.00     0.052 C 
ENDROOT
BRANCH  15  34
HETATM   34  O   UNL     1      -1.246  18.907  23.928  1.00  0.00    -0.391 OA
ATOM     35  HO  UNL     1      -0.483  19.033  23.375  1.00  0.00     0.210 HD
ENDBRANCH  15  34
BRANCH  28  36
HETATM   36  O   UNL     1      -4.290  18.635  23.885  1.00  0.00    -0.391 OA
ATOM     37  HO  UNL     1      -3.449  18.206  23.776  1.00  0.00     0.210 HD
ENDBRANCH  28  36
TORSDOF 2
ENDMDL
MODEL 2
REMARK VINA RESULT:     -11.7      2.593      3.384
REMARK  2 active torsions:
REMARK  status: ('A' for Active; 'I' for Inactive)
REMARK    1  A    between atoms: O_1  and  C_17 
REMARK    2  A    between atoms: O_22  and  C_32 
ROOT
HETATM    1  C   UNL     1      -5.395  25.807  30.230  1.00  0.00     0.041 C 
HETATM    2  C   UNL     1      -3.947  22.134  28.943  1.00  0.00    -0.007 C 
HETATM    3  C   UNL     1      -4.393  25.079  31.121  1.00  0.00    -0.069 C 
HETATM    4  C   UNL     1      -5.386  27.304  30.525  1.00  0.00     0.013 C 
HETATM    5  N   UNL     1      -3.180  27.268  29.227  1.00  0.00    -0.292 N 
ATOM      6  HN  UNL     1      -2.379  26.744  29.579  1.00  0.00     0.174 HD
HETATM    7  C   UNL     1      -5.584  27.440  32.045  1.00  0.00     0.012 C 
HETATM    8  C   UNL     1      -3.284  18.764  29.955  1.00  0.00     0.088 C 
HETATM    9  C   UNL     1      -1.522  19.595  31.387  1.00  0.00     0.002 C 
HETATM   10  C   UNL     1      -3.298  28.048  31.564  1.00  0.00     0.031 C 
HETATM   11  C   UNL     1      -2.152  18.601  30.665  1.00  0.00     0.017 C 
HETATM   12  C   UNL     1      -4.026  27.931  30.223  1.00  0.00     0.099 C 
HETATM   13  O   UNL     1      -4.773  27.592  27.310  1.00  0.00    -0.176 OA
HETATM   14  O   UNL     1      -3.056  25.843  27.003  1.00  0.00    -0.259 OA
HETATM   15  C   UNL     1      -2.857  23.213  25.512  1.00  0.00     0.156 C 
HETATM   16  C   UNL     1      -3.030  21.578  31.071  1.00  0.00    -0.008 C 
HETATM   17  O   UNL     1      -2.391  28.205  27.040  1.00  0.00    -0.176 OA
HETATM   18  C   UNL     1      -3.551  22.048  27.603  1.00  0.00     0.022 C 
HETATM   19  C   UNL     1      -4.099  23.735  30.735  1.00  0.00    -0.032 C 
HETATM   20  C   UNL     1      -4.512  23.286  29.471  1.00  0.00     0.025 C 
HETATM   21  C   UNL     1      -2.987  25.737  25.576  1.00  0.00     0.199 C 
HETATM   22  N   UNL     1      -4.034  19.843  29.718  1.00  0.00    -0.365 N 
ATOM     23  HN  UNL     1      -4.976  19.678  29.363  1.00  0.00     0.165 HD
HETATM   24  S   UNL     1      -3.394  27.287  27.596  1.00  0.00     0.358 S 
HETATM   25  C   UNL     1      -3.812  25.722  32.340  1.00  0.00     0.039 C 
HETATM   26  C   UNL     1      -5.083  24.288  25.443  1.00  0.00     0.046 C 
HETATM   27  C   UNL     1      -3.852  22.535  26.421  1.00  0.00    -0.022 C 
HETATM   28  C   UNL     1      -5.252  22.854  25.935  1.00  0.00     0.150 C 
HETATM   29  C   UNL     1      -4.159  27.213  32.536  1.00  0.00    -0.008 C 
HETATM   30  C   UNL     1      -3.413  22.837  31.563  1.00  0.00     0.025 C 
HETATM   31  C   UNL     1      -3.621  24.459  25.049  1.00  0.00     0.047 C 
HETATM   32  C   UNL     1      -1.983  20.859  31.651  1.00  0.00     0.014 C 
HETATM   33  C   UNL     1      -3.672  21.134  29.902  1.00  0.00     0.052 C 
ENDROOT
BRANCH  15  34
HETATM   34  O   UNL     1      -2.587  22.393  24.372  1.00  0.00    -0.391 OA
ATOM     35  HO  UNL     1      -3.390  22.216  23.896  1.00  0.00     0.210 HD
ENDBRANCH  15  34
BRANCH  28  36
HETATM   36  O   UNL     1      -5.574  21.961  24.858  1.00  0.00    -0.391 OA
ATOM     37  HO  UNL     1      -5.852  22.435  24.082  1.00  0.00     0.210 HD
ENDBRANCH  28  36
TORSDOF 2
ENDMDL
MODEL 3
REMARK VINA RESULT:     -10.8      2.030      2.410
REMARK  2 active torsions:
REMARK  status: ('A' for Active; 'I' for Inactive)
REMARK    1  A    between atoms: O_1  and  C_17 
REMARK    2  A    between atoms: O_22  and  C_32 
ROOT
HETATM    1  C   UNL     1      -5.269  25.229  29.415  1.00  0.00     0.041 C 
HETATM    2  C   UNL     1      -3.574  21.464  28.970  1.00  0.00    -0.007 C 
HETATM    3  C   UNL     1      -4.310  24.742  30.498  1.00  0.00    -0.069 C 
HETATM    4  C   UNL     1      -5.345  26.754  29.414  1.00  0.00     0.013 C 
HETATM    5  N   UNL     1      -3.045  26.593  28.301  1.00  0.00    -0.292 N 
ATOM      6  HN  UNL     1      -2.253  26.191  28.803  1.00  0.00     0.174 HD
HETATM    7  C   UNL     1      -5.666  27.166  30.861  1.00  0.00     0.012 C 
HETATM    8  C   UNL     1      -2.852  18.393  30.661  1.00  0.00     0.088 C 
HETATM    9  C   UNL     1      -1.243  19.578  32.021  1.00  0.00     0.002 C 
HETATM   10  C   UNL     1      -3.377  27.797  30.428  1.00  0.00     0.031 C 
HETATM   11  C   UNL     1      -1.774  18.431  31.465  1.00  0.00     0.017 C 
HETATM   12  C   UNL     1      -3.992  27.386  29.089  1.00  0.00     0.099 C 
HETATM   13  O   UNL     1      -4.496  26.456  26.254  1.00  0.00    -0.176 OA
HETATM   14  O   UNL     1      -2.690  24.779  26.411  1.00  0.00    -0.259 OA
HETATM   15  C   UNL     1      -2.267  21.928  25.477  1.00  0.00     0.156 C 
HETATM   16  C   UNL     1      -2.803  21.378  31.223  1.00  0.00    -0.008 C 
HETATM   17  O   UNL     1      -2.128  27.138  26.032  1.00  0.00    -0.176 OA
HETATM   18  C   UNL     1      -3.072  21.147  27.702  1.00  0.00     0.022 C 
HETATM   19  C   UNL     1      -3.931  23.368  30.401  1.00  0.00    -0.032 C 
HETATM   20  C   UNL     1      -4.226  22.664  29.224  1.00  0.00     0.025 C 
HETATM   21  C   UNL     1      -2.506  24.406  25.039  1.00  0.00     0.199 C 
HETATM   22  N   UNL     1      -3.626  19.363  30.168  1.00  0.00    -0.365 N 
ATOM     23  HN  UNL     1      -4.530  19.081  29.789  1.00  0.00     0.165 HD
HETATM   24  S   UNL     1      -3.132  26.289  26.687  1.00  0.00     0.358 S 
HETATM   25  C   UNL     1      -3.853  25.638  31.605  1.00  0.00     0.039 C 
HETATM   26  C   UNL     1      -4.523  22.844  25.049  1.00  0.00     0.046 C 
HETATM   27  C   UNL     1      -3.300  21.381  26.431  1.00  0.00    -0.022 C 
HETATM   28  C   UNL     1      -4.670  21.523  25.797  1.00  0.00     0.150 C 
HETATM   29  C   UNL     1      -4.275  27.117  31.483  1.00  0.00    -0.008 C 
HETATM   30  C   UNL     1      -3.274  22.684  31.434  1.00  0.00     0.025 C 
HETATM   31  C   UNL     1      -3.044  23.018  24.730  1.00  0.00     0.047 C 
HETATM   32  C   UNL     1      -1.775  20.842  32.002  1.00  0.00     0.014 C 
HETATM   33  C   UNL     1      -3.333  20.683  30.122  1.00  0.00     0.052 C 
ENDROOT
BRANCH  15  34
HETATM   34  O   UNL     1      -1.876  20.921  24.540  1.00  0.00    -0.391 OA
ATOM     35  HO  UNL     1      -2.138  20.062  24.850  1.00  0.00     0.210 HD
ENDBRANCH  15  34
BRANCH  28  36
HETATM   36  O   UNL     1      -4.871  20.425  24.895  1.00  0.00    -0.391 OA
ATOM     37  HO  UNL     1      -4.651  20.662  24.002  1.00  0.00     0.210 HD
ENDBRANCH  28  36
TORSDOF 2
ENDMDL
