MODEL 1
REMARK VINA RESULT:      -8.5      0.000      0.000
REMARK  1 active torsions:
REMARK  status: ('A' for Active; 'I' for Inactive)
REMARK       I    between atoms: C_10  and  N_19 
REMARK       I    between atoms: C_10  and  N_27 
REMARK    1  A    between atoms: C_13  and  N_27 
ROOT
HETATM    1  F   UNL     1       9.920 -17.447 -18.500  1.00  0.00    -0.186 F 
HETATM    2  C   UNL     1      10.935 -17.156 -12.396  1.00  0.00     0.106 C 
HETATM    3  C   UNL     1      11.781 -17.085 -17.159  1.00  0.00     0.062 C 
HETATM    4  C   UNL     1      10.641 -15.684 -14.693  1.00  0.00     0.058 C 
HETATM    5  O   UNL     1      11.174 -14.358 -10.530  1.00  0.00    -0.246 OA
HETATM    6  O   UNL     1      10.743 -13.762 -13.331  1.00  0.00    -0.267 OA
HETATM    7  C   UNL     1      10.403 -15.180 -11.014  1.00  0.00     0.334 C 
HETATM    8  C   UNL     1      10.492 -16.741 -17.520  1.00  0.00     0.188 C 
HETATM    9  C   UNL     1      11.391 -16.882 -14.737  1.00  0.00    -0.018 C 
HETATM   10  C   UNL     1       9.889 -15.230 -15.757  1.00  0.00     0.108 C 
HETATM   11  N   UNL     1      10.676 -15.784 -12.268  1.00  0.00    -0.240 N 
HETATM   12  C   UNL     1      10.714 -14.965 -13.412  1.00  0.00     0.268 C 
HETATM   13  N   UNL     1       9.779 -15.740 -16.968  1.00  0.00    -0.342 N 
ATOM     14  HN  UNL     1       9.062 -15.324 -17.562  1.00  0.00     0.167 HD
HETATM   15  C   UNL     1      11.354 -17.699 -13.570  1.00  0.00     0.030 C 
HETATM   16  N   UNL     1       9.220 -15.585 -10.434  1.00  0.00    -0.307 N 
ATOM     17  HN  UNL     1       9.020 -16.580 -10.531  1.00  0.00     0.170 HD
HETATM   18  C   UNL     1      12.158 -17.264 -15.845  1.00  0.00     0.017 C 
ENDROOT
BRANCH  16  19
HETATM   19  C   UNL     1       8.245 -14.863  -9.734  1.00  0.00     0.047 C 
HETATM   20  C   UNL     1       8.433 -14.616  -8.372  1.00  0.00     0.030 C 
HETATM   21  C   UNL     1       7.512 -13.854  -7.664  1.00  0.00     0.003 C 
HETATM   22  C   UNL     1       6.350 -13.405  -8.289  1.00  0.00     0.012 C 
HETATM   23  C   UNL     1       6.092 -13.737  -9.616  1.00  0.00    -0.024 C 
HETATM   24  C   UNL     1       4.867 -13.457 -10.237  1.00  0.00     0.013 C 
HETATM   25  C   UNL     1       7.164 -14.242 -10.398  1.00  0.00     0.001 C 
HETATM   26  C   UNL     1       4.701 -13.754 -11.588  1.00  0.00     0.007 C 
HETATM   27  C   UNL     1       5.856 -13.790 -12.388  1.00  0.00    -0.061 C 
HETATM   28  C   UNL     1       7.084 -14.112 -11.802  1.00  0.00     0.021 C 
HETATM   29  C   UNL     1       5.765 -13.368 -13.834  1.00  0.00     0.048 C 
ENDBRANCH  16  19
TORSDOF 1
ENDMDL
MODEL 2
REMARK VINA RESULT:      -8.0      0.933      2.719
REMARK  1 active torsions:
REMARK  status: ('A' for Active; 'I' for Inactive)
REMARK       I    between atoms: C_10  and  N_19 
REMARK       I    between atoms: C_10  and  N_27 
REMARK    1  A    between atoms: C_13  and  N_27 
ROOT
HETATM    1  F   UNL     1      11.131 -17.988 -18.674  1.00  0.00    -0.186 F 
HETATM    2  C   UNL     1      10.632 -16.701 -12.635  1.00  0.00     0.106 C 
HETATM    3  C   UNL     1      12.578 -17.201 -17.036  1.00  0.00     0.062 C 
HETATM    4  C   UNL     1      10.758 -15.622 -15.154  1.00  0.00     0.058 C 
HETATM    5  O   UNL     1      10.160 -13.658 -11.261  1.00  0.00    -0.246 OA
HETATM    6  O   UNL     1      10.355 -13.528 -14.148  1.00  0.00    -0.267 OA
HETATM    7  C   UNL     1       9.605 -14.634 -11.758  1.00  0.00     0.334 C 
HETATM    8  C   UNL     1      11.386 -17.081 -17.725  1.00  0.00     0.188 C 
HETATM    9  C   UNL     1      11.605 -16.707 -14.829  1.00  0.00    -0.018 C 
HETATM   10  C   UNL     1      10.243 -15.425 -16.419  1.00  0.00     0.108 C 
HETATM   11  N   UNL     1      10.224 -15.370 -12.801  1.00  0.00    -0.240 N 
HETATM   12  C   UNL     1      10.457 -14.725 -14.029  1.00  0.00     0.268 C 
HETATM   13  N   UNL     1      10.472 -16.112 -17.521  1.00  0.00    -0.342 N 
ATOM     14  HN  UNL     1       9.882 -15.881 -18.320  1.00  0.00     0.167 HD
HETATM   15  C   UNL     1      11.367 -17.347 -13.579  1.00  0.00     0.030 C 
HETATM   16  N   UNL     1       8.361 -15.101 -11.393  1.00  0.00    -0.307 N 
ATOM     17  HN  UNL     1       8.283 -16.117 -11.362  1.00  0.00     0.170 HD
HETATM   18  C   UNL     1      12.646 -17.141 -15.661  1.00  0.00     0.017 C 
ENDROOT
BRANCH  16  19
HETATM   19  C   UNL     1       7.185 -14.419 -11.057  1.00  0.00     0.047 C 
HETATM   20  C   UNL     1       6.203 -14.239 -12.034  1.00  0.00     0.030 C 
HETATM   21  C   UNL     1       5.003 -13.619 -11.716  1.00  0.00     0.003 C 
HETATM   22  C   UNL     1       4.805 -13.093 -10.440  1.00  0.00     0.012 C 
HETATM   23  C   UNL     1       5.816 -13.164  -9.487  1.00  0.00    -0.024 C 
HETATM   24  C   UNL     1       5.733 -12.505  -8.251  1.00  0.00     0.013 C 
HETATM   25  C   UNL     1       6.895 -14.055  -9.723  1.00  0.00     0.001 C 
HETATM   26  C   UNL     1       6.750 -12.676  -7.315  1.00  0.00     0.007 C 
HETATM   27  C   UNL     1       7.498 -13.864  -7.383  1.00  0.00    -0.061 C 
HETATM   28  C   UNL     1       7.635 -14.517  -8.611  1.00  0.00     0.021 C 
HETATM   29  C   UNL     1       8.037 -14.470  -6.111  1.00  0.00     0.048 C 
ENDBRANCH  16  19
TORSDOF 1
ENDMDL
MODEL 3
REMARK VINA RESULT:      -7.9      2.379      3.953
REMARK  1 active torsions:
REMARK  status: ('A' for Active; 'I' for Inactive)
REMARK       I    between atoms: C_10  and  N_19 
REMARK       I    between atoms: C_10  and  N_27 
REMARK    1  A    between atoms: C_13  and  N_27 
ROOT
HETATM    1  F   UNL     1      10.884 -22.007 -14.699  1.00  0.00    -0.186 F 
HETATM    2  C   UNL     1      10.358 -16.112 -12.871  1.00  0.00     0.106 C 
HETATM    3  C   UNL     1      12.225 -20.116 -14.842  1.00  0.00     0.062 C 
HETATM    4  C   UNL     1      10.222 -17.814 -15.018  1.00  0.00     0.058 C 
HETATM    5  O   UNL     1       9.417 -13.493 -14.776  1.00  0.00    -0.246 OA
HETATM    6  O   UNL     1       9.499 -15.962 -16.287  1.00  0.00    -0.267 OA
HETATM    7  C   UNL     1       9.022 -14.420 -14.075  1.00  0.00     0.334 C 
HETATM    8  C   UNL     1      11.009 -20.731 -15.076  1.00  0.00     0.188 C 
HETATM    9  C   UNL     1      11.251 -17.993 -14.064  1.00  0.00    -0.018 C 
HETATM   10  C   UNL     1       9.642 -18.862 -15.703  1.00  0.00     0.108 C 
HETATM   11  N   UNL     1       9.725 -15.652 -14.034  1.00  0.00    -0.240 N 
HETATM   12  C   UNL     1       9.807 -16.416 -15.212  1.00  0.00     0.268 C 
HETATM   13  N   UNL     1       9.951 -20.143 -15.668  1.00  0.00    -0.342 N 
ATOM     14  HN  UNL     1       9.306 -20.770 -16.150  1.00  0.00     0.167 HD
HETATM   15  C   UNL     1      11.163 -17.207 -12.879  1.00  0.00     0.030 C 
HETATM   16  N   UNL     1       7.887 -14.387 -13.294  1.00  0.00    -0.307 N 
ATOM     17  HN  UNL     1       7.984 -14.843 -12.387  1.00  0.00     0.170 HD
HETATM   18  C   UNL     1      12.324 -18.873 -14.254  1.00  0.00     0.017 C 
ENDROOT
BRANCH  16  19
HETATM   19  C   UNL     1       6.623 -13.833 -13.532  1.00  0.00     0.047 C 
HETATM   20  C   UNL     1       6.189 -13.677 -14.851  1.00  0.00     0.030 C 
HETATM   21  C   UNL     1       4.918 -13.185 -15.117  1.00  0.00     0.003 C 
HETATM   22  C   UNL     1       4.100 -12.762 -14.070  1.00  0.00     0.012 C 
HETATM   23  C   UNL     1       4.559 -12.806 -12.758  1.00  0.00    -0.024 C 
HETATM   24  C   UNL     1       3.846 -12.238 -11.692  1.00  0.00     0.013 C 
HETATM   25  C   UNL     1       5.714 -13.583 -12.480  1.00  0.00     0.001 C 
HETATM   26  C   UNL     1       4.329 -12.380 -10.393  1.00  0.00     0.007 C 
HETATM   27  C   UNL     1       5.146 -13.492 -10.125  1.00  0.00    -0.061 C 
HETATM   28  C   UNL     1       5.903 -14.049 -11.160  1.00  0.00     0.021 C 
HETATM   29  C   UNL     1       5.100 -14.129  -8.758  1.00  0.00     0.048 C 
ENDBRANCH  16  19
TORSDOF 1
ENDMDL
MODEL 4
REMARK VINA RESULT:      -7.9      2.947      7.971
REMARK  1 active torsions:
REMARK  status: ('A' for Active; 'I' for Inactive)
REMARK       I    between atoms: C_10  and  N_19 
REMARK       I    between atoms: C_10  and  N_27 
REMARK    1  A    between atoms: C_13  and  N_27 
ROOT
HETATM    1  F   UNL     1       3.813 -14.252  -9.577  1.00  0.00    -0.186 F 
HETATM    2  C   UNL     1       6.790 -15.145 -14.935  1.00  0.00     0.106 C 
HETATM    3  C   UNL     1       4.616 -12.869 -11.261  1.00  0.00     0.062 C 
HETATM    4  C   UNL     1       7.066 -14.359 -12.321  1.00  0.00     0.058 C 
HETATM    5  O   UNL     1      10.107 -14.851 -15.464  1.00  0.00    -0.246 OA
HETATM    6  O   UNL     1       9.385 -14.239 -12.727  1.00  0.00    -0.267 OA
HETATM    7  C   UNL     1       9.211 -15.604 -15.094  1.00  0.00     0.334 C 
HETATM    8  C   UNL     1       4.847 -13.864 -10.330  1.00  0.00     0.188 C 
HETATM    9  C   UNL     1       5.930 -13.933 -13.050  1.00  0.00    -0.018 C 
HETATM   10  C   UNL     1       7.035 -14.615 -10.965  1.00  0.00     0.108 C 
HETATM   11  N   UNL     1       8.083 -15.103 -14.394  1.00  0.00    -0.240 N 
HETATM   12  C   UNL     1       8.283 -14.522 -13.129  1.00  0.00     0.268 C 
HETATM   13  N   UNL     1       6.037 -14.459 -10.118  1.00  0.00    -0.342 N 
ATOM     14  HN  UNL     1       6.185 -14.838  -9.182  1.00  0.00     0.167 HD
HETATM   15  C   UNL     1       5.743 -14.521 -14.334  1.00  0.00     0.030 C 
HETATM   16  N   UNL     1       9.201 -16.968 -15.287  1.00  0.00    -0.307 N 
ATOM     17  HN  UNL     1       8.288 -17.354 -15.528  1.00  0.00     0.170 HD
HETATM   18  C   UNL     1       5.031 -12.971 -12.571  1.00  0.00     0.017 C 
ENDROOT
BRANCH  16  19
HETATM   19  C   UNL     1      10.229 -17.916 -15.210  1.00  0.00     0.047 C 
HETATM   20  C   UNL     1      10.286 -18.765 -14.102  1.00  0.00     0.030 C 
HETATM   21  C   UNL     1      11.259 -19.752 -14.025  1.00  0.00     0.003 C 
HETATM   22  C   UNL     1      12.239 -19.846 -15.012  1.00  0.00     0.012 C 
HETATM   23  C   UNL     1      12.264 -18.937 -16.066  1.00  0.00    -0.024 C 
HETATM   24  C   UNL     1      13.320 -18.881 -16.987  1.00  0.00     0.013 C 
HETATM   25  C   UNL     1      11.107 -18.145 -16.292  1.00  0.00     0.001 C 
HETATM   26  C   UNL     1      13.247 -17.994 -18.059  1.00  0.00     0.007 C 
HETATM   27  C   UNL     1      11.967 -17.611 -18.495  1.00  0.00    -0.061 C 
HETATM   28  C   UNL     1      10.905 -17.614 -17.586  1.00  0.00     0.021 C 
HETATM   29  C   UNL     1      11.743 -17.320 -19.958  1.00  0.00     0.048 C 
ENDBRANCH  16  19
TORSDOF 1
ENDMDL
MODEL 5
REMARK VINA RESULT:      -7.8      2.762      3.273
REMARK  1 active torsions:
REMARK  status: ('A' for Active; 'I' for Inactive)
REMARK       I    between atoms: C_10  and  N_19 
REMARK       I    between atoms: C_10  and  N_27 
REMARK    1  A    between atoms: C_13  and  N_27 
ROOT
HETATM    1  F   UNL     1      13.564 -10.704 -16.628  1.00  0.00    -0.186 F 
HETATM    2  C   UNL     1       9.906 -15.096 -14.239  1.00  0.00     0.106 C 
HETATM    3  C   UNL     1      13.880 -12.883 -15.886  1.00  0.00     0.062 C 
HETATM    4  C   UNL     1      11.806 -13.203 -13.663  1.00  0.00     0.058 C 
HETATM    5  O   UNL     1       9.546 -15.855 -10.973  1.00  0.00    -0.246 OA
HETATM    6  O   UNL     1      11.463 -13.724 -11.389  1.00  0.00    -0.267 OA
HETATM    7  C   UNL     1       9.164 -15.126 -11.884  1.00  0.00     0.334 C 
HETATM    8  C   UNL     1      13.430 -11.598 -15.643  1.00  0.00     0.188 C 
HETATM    9  C   UNL     1      11.955 -13.993 -14.827  1.00  0.00    -0.018 C 
HETATM   10  C   UNL     1      12.232 -11.893 -13.586  1.00  0.00     0.108 C 
HETATM   11  N   UNL     1      10.058 -14.704 -12.902  1.00  0.00    -0.240 N 
HETATM   12  C   UNL     1      11.146 -13.888 -12.542  1.00  0.00     0.268 C 
HETATM   13  N   UNL     1      12.881 -11.180 -14.486  1.00  0.00    -0.342 N 
ATOM     14  HN  UNL     1      12.980 -10.187 -14.279  1.00  0.00     0.167 HD
HETATM   15  C   UNL     1      10.852 -14.823 -15.177  1.00  0.00     0.030 C 
HETATM   16  N   UNL     1       7.883 -14.635 -12.013  1.00  0.00    -0.307 N 
ATOM     17  HN  UNL     1       7.532 -14.617 -12.970  1.00  0.00     0.170 HD
HETATM   18  C   UNL     1      13.121 -13.998 -15.604  1.00  0.00     0.017 C 
ENDROOT
BRANCH  16  19
HETATM   19  C   UNL     1       6.980 -14.158 -11.055  1.00  0.00     0.047 C 
HETATM   20  C   UNL     1       7.367 -14.134  -9.712  1.00  0.00     0.030 C 
HETATM   21  C   UNL     1       6.516 -13.612  -8.747  1.00  0.00     0.003 C 
HETATM   22  C   UNL     1       5.235 -13.189  -9.100  1.00  0.00     0.012 C 
HETATM   23  C   UNL     1       4.793 -13.310 -10.414  1.00  0.00    -0.024 C 
HETATM   24  C   UNL     1       3.464 -13.061 -10.786  1.00  0.00     0.013 C 
HETATM   25  C   UNL     1       5.760 -13.551 -11.425  1.00  0.00     0.001 C 
HETATM   26  C   UNL     1       3.105 -13.132 -12.131  1.00  0.00     0.007 C 
HETATM   27  C   UNL     1       4.113 -12.903 -13.082  1.00  0.00    -0.061 C 
HETATM   28  C   UNL     1       5.442 -13.186 -12.752  1.00  0.00     0.021 C 
HETATM   29  C   UNL     1       3.755 -12.247 -14.393  1.00  0.00     0.048 C 
ENDBRANCH  16  19
TORSDOF 1
ENDMDL
MODEL 6
REMARK VINA RESULT:      -7.8      3.353      7.590
REMARK  1 active torsions:
REMARK  status: ('A' for Active; 'I' for Inactive)
REMARK       I    between atoms: C_10  and  N_19 
REMARK       I    between atoms: C_10  and  N_27 
REMARK    1  A    between atoms: C_13  and  N_27 
ROOT
HETATM    1  F   UNL     1       3.497 -14.035 -10.080  1.00  0.00    -0.186 F 
HETATM    2  C   UNL     1       7.419 -15.520 -14.640  1.00  0.00     0.106 C 
HETATM    3  C   UNL     1       4.584 -12.858 -11.762  1.00  0.00     0.062 C 
HETATM    4  C   UNL     1       7.200 -14.390 -12.149  1.00  0.00     0.058 C 
HETATM    5  O   UNL     1      10.774 -15.186 -14.593  1.00  0.00    -0.246 OA
HETATM    6  O   UNL     1       9.554 -14.247 -12.139  1.00  0.00    -0.267 OA
HETATM    7  C   UNL     1       9.832 -15.914 -14.294  1.00  0.00     0.334 C 
HETATM    8  C   UNL     1       4.648 -13.715 -10.679  1.00  0.00     0.188 C 
HETATM    9  C   UNL     1       6.215 -14.102 -13.122  1.00  0.00    -0.018 C 
HETATM   10  C   UNL     1       6.923 -14.468 -10.800  1.00  0.00     0.108 C 
HETATM   11  N   UNL     1       8.590 -15.364 -13.884  1.00  0.00    -0.240 N 
HETATM   12  C   UNL     1       8.547 -14.616 -12.693  1.00  0.00     0.268 C 
HETATM   13  N   UNL     1       5.784 -14.237 -10.176  1.00  0.00    -0.342 N 
ATOM     14  HN  UNL     1       5.760 -14.484  -9.187  1.00  0.00     0.167 HD
HETATM   15  C   UNL     1       6.273 -14.859 -14.328  1.00  0.00     0.030 C 
HETATM   16  N   UNL     1       9.870 -17.292 -14.300  1.00  0.00    -0.307 N 
ATOM     17  HN  UNL     1       9.020 -17.736 -14.648  1.00  0.00     0.170 HD
HETATM   18  C   UNL     1       5.234 -13.117 -12.949  1.00  0.00     0.017 C 
ENDROOT
BRANCH  16  19
HETATM   19  C   UNL     1      10.875 -18.186 -13.910  1.00  0.00     0.047 C 
HETATM   20  C   UNL     1      11.928 -17.719 -13.119  1.00  0.00     0.030 C 
HETATM   21  C   UNL     1      12.907 -18.593 -12.669  1.00  0.00     0.003 C 
HETATM   22  C   UNL     1      12.894 -19.927 -13.076  1.00  0.00     0.012 C 
HETATM   23  C   UNL     1      11.915 -20.383 -13.954  1.00  0.00    -0.024 C 
HETATM   24  C   UNL     1      11.955 -21.663 -14.526  1.00  0.00     0.013 C 
HETATM   25  C   UNL     1      10.768 -19.573 -14.155  1.00  0.00     0.001 C 
HETATM   26  C   UNL     1      10.906 -22.081 -15.341  1.00  0.00     0.007 C 
HETATM   27  C   UNL     1       9.649 -21.488 -15.133  1.00  0.00    -0.061 C 
HETATM   28  C   UNL     1       9.582 -20.195 -14.607  1.00  0.00     0.021 C 
HETATM   29  C   UNL     1       8.401 -22.302 -15.370  1.00  0.00     0.048 C 
ENDBRANCH  16  19
TORSDOF 1
ENDMDL
MODEL 7
REMARK VINA RESULT:      -7.8      2.190      3.570
REMARK  1 active torsions:
REMARK  status: ('A' for Active; 'I' for Inactive)
REMARK       I    between atoms: C_10  and  N_19 
REMARK       I    between atoms: C_10  and  N_27 
REMARK    1  A    between atoms: C_13  and  N_27 
ROOT
HETATM    1  F   UNL     1      11.051 -22.303 -14.986  1.00  0.00    -0.186 F 
HETATM    2  C   UNL     1      11.250 -16.646 -12.470  1.00  0.00     0.106 C 
HETATM    3  C   UNL     1      12.240 -20.354 -15.415  1.00  0.00     0.062 C 
HETATM    4  C   UNL     1      10.316 -18.130 -14.580  1.00  0.00     0.058 C 
HETATM    5  O   UNL     1       9.660 -13.891 -13.591  1.00  0.00    -0.246 OA
HETATM    6  O   UNL     1       9.168 -16.192 -15.279  1.00  0.00    -0.267 OA
HETATM    7  C   UNL     1       9.558 -14.899 -12.898  1.00  0.00     0.334 C 
HETATM    8  C   UNL     1      11.025 -20.992 -15.242  1.00  0.00     0.188 C 
HETATM    9  C   UNL     1      11.629 -18.361 -14.106  1.00  0.00    -0.018 C 
HETATM   10  C   UNL     1       9.522 -19.127 -15.107  1.00  0.00     0.108 C 
HETATM   11  N   UNL     1      10.225 -16.099 -13.256  1.00  0.00    -0.240 N 
HETATM   12  C   UNL     1       9.859 -16.738 -14.454  1.00  0.00     0.268 C 
HETATM   13  N   UNL     1       9.821 -20.392 -15.328  1.00  0.00    -0.342 N 
ATOM     14  HN  UNL     1       9.043 -20.993 -15.598  1.00  0.00     0.167 HD
HETATM   15  C   UNL     1      11.993 -17.701 -12.897  1.00  0.00     0.030 C 
HETATM   16  N   UNL     1       8.800 -14.990 -11.750  1.00  0.00    -0.307 N 
ATOM     17  HN  UNL     1       9.232 -15.530 -11.000  1.00  0.00     0.170 HD
HETATM   18  C   UNL     1      12.552 -19.173 -14.777  1.00  0.00     0.017 C 
ENDROOT
BRANCH  16  19
HETATM   19  C   UNL     1       7.539 -14.467 -11.437  1.00  0.00     0.047 C 
HETATM   20  C   UNL     1       6.593 -14.324 -12.455  1.00  0.00     0.030 C 
HETATM   21  C   UNL     1       5.316 -13.864 -12.164  1.00  0.00     0.003 C 
HETATM   22  C   UNL     1       4.997 -13.459 -10.869  1.00  0.00     0.012 C 
HETATM   23  C   UNL     1       5.961 -13.489  -9.866  1.00  0.00    -0.024 C 
HETATM   24  C   UNL     1       5.743 -12.936  -8.596  1.00  0.00     0.013 C 
HETATM   25  C   UNL     1       7.145 -14.237 -10.100  1.00  0.00     0.001 C 
HETATM   26  C   UNL     1       6.725 -13.064  -7.616  1.00  0.00     0.007 C 
HETATM   27  C   UNL     1       7.605 -14.155  -7.722  1.00  0.00    -0.061 C 
HETATM   28  C   UNL     1       7.876 -14.696  -8.982  1.00  0.00     0.021 C 
HETATM   29  C   UNL     1       8.146 -14.791  -6.464  1.00  0.00     0.048 C 
ENDBRANCH  16  19
TORSDOF 1
ENDMDL
MODEL 8
REMARK VINA RESULT:      -7.5      2.556      4.053
REMARK  1 active torsions:
REMARK  status: ('A' for Active; 'I' for Inactive)
REMARK       I    between atoms: C_10  and  N_19 
REMARK       I    between atoms: C_10  and  N_27 
REMARK    1  A    between atoms: C_13  and  N_27 
ROOT
HETATM    1  F   UNL     1      14.365 -15.336 -21.008  1.00  0.00    -0.186 F 
HETATM    2  C   UNL     1       9.650 -16.907 -17.311  1.00  0.00     0.106 C 
HETATM    3  C   UNL     1      13.181 -17.292 -20.594  1.00  0.00     0.062 C 
HETATM    4  C   UNL     1      12.368 -17.044 -17.658  1.00  0.00     0.058 C 
HETATM    5  O   UNL     1       9.869 -18.433 -14.311  1.00  0.00    -0.246 OA
HETATM    6  O   UNL     1      12.470 -18.042 -15.525  1.00  0.00    -0.267 OA
HETATM    7  C   UNL     1       9.896 -17.353 -14.894  1.00  0.00     0.334 C 
HETATM    8  C   UNL     1      13.927 -16.230 -20.116  1.00  0.00     0.188 C 
HETATM    9  C   UNL     1      11.522 -17.230 -18.777  1.00  0.00    -0.018 C 
HETATM   10  C   UNL     1      13.612 -16.455 -17.748  1.00  0.00     0.108 C 
HETATM   11  N   UNL     1      10.438 -17.245 -16.201  1.00  0.00    -0.240 N 
HETATM   12  C   UNL     1      11.806 -17.516 -16.384  1.00  0.00     0.268 C 
HETATM   13  N   UNL     1      14.255 -16.040 -18.823  1.00  0.00    -0.342 N 
ATOM     14  HN  UNL     1      15.108 -15.509 -18.653  1.00  0.00     0.167 HD
HETATM   15  C   UNL     1      10.137 -16.963 -18.578  1.00  0.00     0.030 C 
HETATM   16  N   UNL     1       9.442 -16.163 -14.367  1.00  0.00    -0.307 N 
ATOM     17  HN  UNL     1       8.951 -15.566 -15.032  1.00  0.00     0.170 HD
HETATM   18  C   UNL     1      11.988 -17.674 -20.022  1.00  0.00     0.017 C 
ENDROOT
BRANCH  16  19
HETATM   19  C   UNL     1       9.539 -15.634 -13.074  1.00  0.00     0.047 C 
HETATM   20  C   UNL     1      10.766 -15.689 -12.410  1.00  0.00     0.030 C 
HETATM   21  C   UNL     1      10.908 -15.121 -11.151  1.00  0.00     0.003 C 
HETATM   22  C   UNL     1       9.802 -14.570 -10.505  1.00  0.00     0.012 C 
HETATM   23  C   UNL     1       8.547 -14.607 -11.105  1.00  0.00    -0.024 C 
HETATM   24  C   UNL     1       7.379 -14.223 -10.431  1.00  0.00     0.013 C 
HETATM   25  C   UNL     1       8.479 -14.905 -12.491  1.00  0.00     0.001 C 
HETATM   26  C   UNL     1       6.165 -14.218 -11.114  1.00  0.00     0.007 C 
HETATM   27  C   UNL     1       6.209 -14.053 -12.509  1.00  0.00    -0.061 C 
HETATM   28  C   UNL     1       7.344 -14.470 -13.211  1.00  0.00     0.021 C 
HETATM   29  C   UNL     1       5.083 -13.326 -13.202  1.00  0.00     0.048 C 
ENDBRANCH  16  19
TORSDOF 1
ENDMDL
MODEL 9
REMARK VINA RESULT:      -7.4      4.539      7.698
REMARK  1 active torsions:
REMARK  status: ('A' for Active; 'I' for Inactive)
REMARK       I    between atoms: C_10  and  N_19 
REMARK       I    between atoms: C_10  and  N_27 
REMARK    1  A    between atoms: C_13  and  N_27 
ROOT
HETATM    1  F   UNL     1      11.637 -17.052  -4.937  1.00  0.00    -0.186 F 
HETATM    2  C   UNL     1       6.273 -14.238  -6.237  1.00  0.00     0.106 C 
HETATM    3  C   UNL     1      10.510 -15.198  -4.108  1.00  0.00     0.062 C 
HETATM    4  C   UNL     1       8.998 -14.119  -6.535  1.00  0.00     0.058 C 
HETATM    5  O   UNL     1       5.855 -11.497  -8.156  1.00  0.00    -0.246 OA
HETATM    6  O   UNL     1       8.643 -12.248  -7.927  1.00  0.00    -0.267 OA
HETATM    7  C   UNL     1       5.956 -12.720  -8.158  1.00  0.00     0.334 C 
HETATM    8  C   UNL     1      11.051 -15.876  -5.184  1.00  0.00     0.188 C 
HETATM    9  C   UNL     1       8.461 -14.515  -5.288  1.00  0.00    -0.018 C 
HETATM   10  C   UNL     1      10.189 -14.609  -7.029  1.00  0.00     0.108 C 
HETATM   11  N   UNL     1       6.789 -13.384  -7.222  1.00  0.00    -0.240 N 
HETATM   12  C   UNL     1       8.175 -13.148  -7.273  1.00  0.00     0.268 C 
HETATM   13  N   UNL     1      11.045 -15.432  -6.456  1.00  0.00    -0.342 N 
ATOM     14  HN  UNL     1      11.798 -15.776  -7.051  1.00  0.00     0.167 HD
HETATM   15  C   UNL     1       7.055 -14.742  -5.245  1.00  0.00     0.030 C 
HETATM   16  N   UNL     1       5.316 -13.560  -9.045  1.00  0.00    -0.307 N 
ATOM     17  HN  UNL     1       4.965 -14.423  -8.631  1.00  0.00     0.170 HD
HETATM   18  C   UNL     1       9.239 -14.666  -4.133  1.00  0.00     0.017 C 
ENDROOT
BRANCH  16  19
HETATM   19  C   UNL     1       5.065 -13.430 -10.416  1.00  0.00     0.047 C 
HETATM   20  C   UNL     1       3.877 -12.825 -10.834  1.00  0.00     0.030 C 
HETATM   21  C   UNL     1       3.627 -12.630 -12.185  1.00  0.00     0.003 C 
HETATM   22  C   UNL     1       4.521 -13.116 -13.138  1.00  0.00     0.012 C 
HETATM   23  C   UNL     1       5.654 -13.820 -12.743  1.00  0.00    -0.024 C 
HETATM   24  C   UNL     1       6.491 -14.473 -13.660  1.00  0.00     0.013 C 
HETATM   25  C   UNL     1       6.048 -13.743 -11.382  1.00  0.00     0.001 C 
HETATM   26  C   UNL     1       7.649 -15.099 -13.203  1.00  0.00     0.007 C 
HETATM   27  C   UNL     1       8.219 -14.615 -12.013  1.00  0.00    -0.061 C 
HETATM   28  C   UNL     1       7.399 -14.001 -11.062  1.00  0.00     0.021 C 
HETATM   29  C   UNL     1       9.717 -14.665 -11.840  1.00  0.00     0.048 C 
ENDBRANCH  16  19
TORSDOF 1
ENDMDL
