MODEL 1
REMARK VINA RESULT:      -5.6      0.000      0.000
REMARK  2 active torsions:
REMARK  status: ('A' for Active; 'I' for Inactive)
REMARK    1  A    between atoms: N_2  and  C_11 
REMARK    2  A    between atoms: N_2  and  C_12 
ROOT
HETATM    1  C   UNL     1      53.051  41.794  43.872  1.00  0.00     0.113 A 
HETATM    2  N   UNL     1      52.771  42.195  45.133  1.00  0.00    -0.392 N 
ATOM      3  HN  UNL     1      53.355  42.817  45.691  1.00  0.00     0.159 HD
HETATM    4  C   UNL     1      51.629  41.661  45.539  1.00  0.00     0.080 A 
HETATM    5  C   UNL     1      52.017  41.121  43.420  1.00  0.00     0.058 A 
HETATM    6  C   UNL     1      53.289  40.643  43.384  1.00  0.00     0.111 A 
HETATM    7  C   UNL     1      51.123  40.995  44.493  1.00  0.00    -0.001 A 
ENDROOT
BRANCH   6   8
HETATM    8  N   UNL     1      53.889  40.453  42.159  1.00  0.00    -0.391 N 
ATOM      9  HN  UNL     1      53.833  39.584  41.626  1.00  0.00     0.156 HD
BRANCH   8  10
HETATM   10  C   UNL     1      54.550  41.531  41.753  1.00  0.00     0.216 A 
HETATM   11  N   UNL     1      55.857  41.590  41.578  1.00  0.00    -0.374 N 
HETATM   12  C   UNL     1      55.226  41.840  40.706  1.00  0.00     0.103 A 
ATOM     13  HN  UNL     1      56.792  41.480  41.971  1.00  0.00     0.161 HD
ENDBRANCH   8  10
ENDBRANCH   6   8
TORSDOF 2
ENDMDL
MODEL 2
REMARK VINA RESULT:      -5.2      1.170      1.414
REMARK  2 active torsions:
REMARK  status: ('A' for Active; 'I' for Inactive)
REMARK    1  A    between atoms: N_2  and  C_11 
REMARK    2  A    between atoms: N_2  and  C_12 
ROOT
HETATM    1  C   UNL     1      52.543  40.683  43.422  1.00  0.00     0.113 A 
HETATM    2  N   UNL     1      51.222  40.560  43.682  1.00  0.00    -0.392 N 
ATOM      3  HN  UNL     1      50.569  40.000  43.135  1.00  0.00     0.159 HD
HETATM    4  C   UNL     1      50.899  41.273  44.750  1.00  0.00     0.080 A 
HETATM    5  C   UNL     1      53.091  41.359  44.407  1.00  0.00     0.058 A 
HETATM    6  C   UNL     1      53.251  41.691  43.098  1.00  0.00     0.111 A 
HETATM    7  C   UNL     1      52.041  41.776  45.236  1.00  0.00    -0.001 A 
ENDROOT
BRANCH   6   8
HETATM    8  N   UNL     1      54.503  41.584  42.536  1.00  0.00    -0.391 N 
ATOM      9  HN  UNL     1      55.352  41.388  43.069  1.00  0.00     0.156 HD
BRANCH   8  10
HETATM   10  C   UNL     1      54.479  41.765  41.221  1.00  0.00     0.216 A 
HETATM   11  N   UNL     1      55.495  42.211  40.505  1.00  0.00    -0.374 N 
HETATM   12  C   UNL     1      55.077  41.228  40.220  1.00  0.00     0.103 A 
ATOM     13  HN  UNL     1      56.182  42.945  40.335  1.00  0.00     0.161 HD
ENDBRANCH   8  10
ENDBRANCH   6   8
TORSDOF 2
ENDMDL
MODEL 3
REMARK VINA RESULT:      -5.1      1.224      4.347
REMARK  2 active torsions:
REMARK  status: ('A' for Active; 'I' for Inactive)
REMARK    1  A    between atoms: N_2  and  C_11 
REMARK    2  A    between atoms: N_2  and  C_12 
ROOT
HETATM    1  C   UNL     1      54.707  41.058  42.436  1.00  0.00     0.113 A 
HETATM    2  N   UNL     1      55.671  41.702  41.739  1.00  0.00    -0.392 N 
ATOM      3  HN  UNL     1      56.572  41.990  42.119  1.00  0.00     0.159 HD
HETATM    4  C   UNL     1      55.274  41.905  40.492  1.00  0.00     0.080 A 
HETATM    5  C   UNL     1      53.754  40.722  41.596  1.00  0.00     0.058 A 
HETATM    6  C   UNL     1      53.522  41.399  42.753  1.00  0.00     0.111 A 
HETATM    7  C   UNL     1      54.088  41.297  40.362  1.00  0.00    -0.001 A 
ENDROOT
BRANCH   6   8
HETATM    8  N   UNL     1      52.801  40.779  43.748  1.00  0.00    -0.391 N 
ATOM      9  HN  UNL     1      52.896  39.793  43.991  1.00  0.00     0.156 HD
BRANCH   8  10
HETATM   10  C   UNL     1      51.966  41.616  44.355  1.00  0.00     0.216 A 
HETATM   11  N   UNL     1      50.731  41.318  44.712  1.00  0.00    -0.374 N 
HETATM   12  C   UNL     1      51.411  41.663  45.512  1.00  0.00     0.103 A 
ATOM     13  HN  UNL     1      49.802  40.995  44.441  1.00  0.00     0.161 HD
ENDBRANCH   8  10
ENDBRANCH   6   8
TORSDOF 2
ENDMDL
MODEL 4
REMARK VINA RESULT:      -4.9      1.928      4.282
REMARK  2 active torsions:
REMARK  status: ('A' for Active; 'I' for Inactive)
REMARK    1  A    between atoms: N_2  and  C_11 
REMARK    2  A    between atoms: N_2  and  C_12 
ROOT
HETATM    1  C   UNL     1      52.663  40.438  41.245  1.00  0.00     0.113 A 
HETATM    2  N   UNL     1      52.252  39.352  40.554  1.00  0.00    -0.392 N 
ATOM      3  HN  UNL     1      51.370  38.862  40.706  1.00  0.00     0.159 HD
HETATM    4  C   UNL     1      53.159  39.015  39.650  1.00  0.00     0.080 A 
HETATM    5  C   UNL     1      53.768  40.881  40.688  1.00  0.00     0.058 A 
HETATM    6  C   UNL     1      53.659  40.622  42.018  1.00  0.00     0.111 A 
HETATM    7  C   UNL     1      54.114  39.953  39.696  1.00  0.00    -0.001 A 
ENDROOT
BRANCH   6   8
HETATM    8  N   UNL     1      53.741  41.671  42.905  1.00  0.00    -0.391 N 
ATOM      9  HN  UNL     1      54.180  42.567  42.690  1.00  0.00     0.156 HD
BRANCH   8  10
HETATM   10  C   UNL     1      53.183  41.381  44.075  1.00  0.00     0.216 A 
HETATM   11  N   UNL     1      53.016  42.242  45.062  1.00  0.00    -0.374 N 
HETATM   12  C   UNL     1      52.109  41.739  44.681  1.00  0.00     0.103 A 
ATOM     13  HN  UNL     1      53.432  42.905  45.716  1.00  0.00     0.161 HD
ENDBRANCH   8  10
ENDBRANCH   6   8
TORSDOF 2
ENDMDL
MODEL 5
REMARK VINA RESULT:      -4.8      1.463      1.722
REMARK  2 active torsions:
REMARK  status: ('A' for Active; 'I' for Inactive)
REMARK    1  A    between atoms: N_2  and  C_11 
REMARK    2  A    between atoms: N_2  and  C_12 
ROOT
HETATM    1  C   UNL     1      53.116  41.808  43.796  1.00  0.00     0.113 A 
HETATM    2  N   UNL     1      52.914  42.143  45.091  1.00  0.00    -0.392 N 
ATOM      3  HN  UNL     1      53.556  42.697  45.657  1.00  0.00     0.159 HD
HETATM    4  C   UNL     1      51.763  41.647  45.516  1.00  0.00     0.080 A 
HETATM    5  C   UNL     1      52.027  41.220  43.353  1.00  0.00     0.058 A 
HETATM    6  C   UNL     1      53.268  40.679  43.228  1.00  0.00     0.111 A 
HETATM    7  C   UNL     1      51.176  41.075  44.457  1.00  0.00    -0.001 A 
ENDROOT
BRANCH   6   8
HETATM    8  N   UNL     1      53.803  40.534  41.968  1.00  0.00    -0.391 N 
ATOM      9  HN  UNL     1      54.150  41.311  41.404  1.00  0.00     0.156 HD
BRANCH   8  10
HETATM   10  C   UNL     1      53.816  39.266  41.573  1.00  0.00     0.216 A 
HETATM   11  N   UNL     1      54.286  38.845  40.413  1.00  0.00    -0.374 N 
HETATM   12  C   UNL     1      54.733  38.403  41.322  1.00  0.00     0.103 A 
ATOM     13  HN  UNL     1      54.257  38.894  39.395  1.00  0.00     0.161 HD
ENDBRANCH   8  10
ENDBRANCH   6   8
TORSDOF 2
ENDMDL
MODEL 6
REMARK VINA RESULT:      -4.7      1.732      1.981
REMARK  2 active torsions:
REMARK  status: ('A' for Active; 'I' for Inactive)
REMARK    1  A    between atoms: N_2  and  C_11 
REMARK    2  A    between atoms: N_2  and  C_12 
ROOT
HETATM    1  C   UNL     1      52.599  40.477  43.138  1.00  0.00     0.113 A 
HETATM    2  N   UNL     1      51.405  40.654  43.747  1.00  0.00    -0.392 N 
ATOM      3  HN  UNL     1      50.558  40.128  43.535  1.00  0.00     0.159 HD
HETATM    4  C   UNL     1      51.496  41.609  44.660  1.00  0.00     0.080 A 
HETATM    5  C   UNL     1      53.488  41.219  43.759  1.00  0.00     0.058 A 
HETATM    6  C   UNL     1      53.302  41.253  42.413  1.00  0.00     0.111 A 
HETATM    7  C   UNL     1      52.783  41.977  44.704  1.00  0.00    -0.001 A 
ENDROOT
BRANCH   6   8
HETATM    8  N   UNL     1      54.315  40.808  41.594  1.00  0.00    -0.391 N 
ATOM      9  HN  UNL     1      55.243  40.544  41.927  1.00  0.00     0.156 HD
BRANCH   8  10
HETATM   10  C   UNL     1      53.944  40.762  40.319  1.00  0.00     0.216 A 
HETATM   11  N   UNL     1      54.284  39.809  39.472  1.00  0.00    -0.374 N 
HETATM   12  C   UNL     1      53.202  39.984  39.618  1.00  0.00     0.103 A 
ATOM     13  HN  UNL     1      55.024  39.282  39.008  1.00  0.00     0.161 HD
ENDBRANCH   8  10
ENDBRANCH   6   8
TORSDOF 2
ENDMDL
MODEL 7
REMARK VINA RESULT:      -4.5      3.168      4.828
REMARK  2 active torsions:
REMARK  status: ('A' for Active; 'I' for Inactive)
REMARK    1  A    between atoms: N_2  and  C_11 
REMARK    2  A    between atoms: N_2  and  C_12 
ROOT
HETATM    1  C   UNL     1      51.438  40.742  43.202  1.00  0.00     0.113 A 
HETATM    2  N   UNL     1      52.773  40.954  43.192  1.00  0.00    -0.392 N 
ATOM      3  HN  UNL     1      53.399  40.699  42.428  1.00  0.00     0.159 HD
HETATM    4  C   UNL     1      53.151  41.543  44.316  1.00  0.00     0.080 A 
HETATM    5  C   UNL     1      50.942  41.323  44.271  1.00  0.00     0.058 A 
HETATM    6  C   UNL     1      50.702  40.023  43.953  1.00  0.00     0.111 A 
HETATM    7  C   UNL     1      52.034  41.799  45.009  1.00  0.00    -0.001 A 
ENDROOT
BRANCH   6   8
HETATM    8  N   UNL     1      49.420  39.650  43.618  1.00  0.00    -0.391 N 
ATOM      9  HN  UNL     1      48.686  40.307  43.354  1.00  0.00     0.156 HD
BRANCH   8  10
HETATM   10  C   UNL     1      49.251  38.334  43.679  1.00  0.00     0.216 A 
HETATM   11  N   UNL     1      48.086  37.721  43.584  1.00  0.00    -0.374 N 
HETATM   12  C   UNL     1      48.863  37.430  42.854  1.00  0.00     0.103 A 
ATOM     13  HN  UNL     1      47.136  37.601  43.935  1.00  0.00     0.161 HD
ENDBRANCH   8  10
ENDBRANCH   6   8
TORSDOF 2
ENDMDL
MODEL 8
REMARK VINA RESULT:      -4.2      2.354      2.795
REMARK  2 active torsions:
REMARK  status: ('A' for Active; 'I' for Inactive)
REMARK    1  A    between atoms: N_2  and  C_11 
REMARK    2  A    between atoms: N_2  and  C_12 
ROOT
HETATM    1  C   UNL     1      53.505  40.910  41.799  1.00  0.00     0.113 A 
HETATM    2  N   UNL     1      54.054  41.720  42.733  1.00  0.00    -0.392 N 
ATOM      3  HN  UNL     1      54.893  42.282  42.597  1.00  0.00     0.159 HD
HETATM    4  C   UNL     1      53.344  41.677  43.849  1.00  0.00     0.080 A 
HETATM    5  C   UNL     1      52.363  40.460  42.271  1.00  0.00     0.058 A 
HETATM    6  C   UNL     1      53.332  39.649  41.770  1.00  0.00     0.111 A 
HETATM    7  C   UNL     1      52.275  40.911  43.596  1.00  0.00    -0.001 A 
ENDROOT
BRANCH   6   8
HETATM    8  N   UNL     1      53.076  38.950  40.612  1.00  0.00    -0.391 N 
ATOM      9  HN  UNL     1      52.196  38.469  40.420  1.00  0.00     0.156 HD
BRANCH   8  10
HETATM   10  C   UNL     1      54.106  38.974  39.775  1.00  0.00     0.216 A 
HETATM   11  N   UNL     1      54.421  37.999  38.942  1.00  0.00    -0.374 N 
HETATM   12  C   UNL     1      54.238  38.994  38.497  1.00  0.00     0.103 A 
ATOM     13  HN  UNL     1      54.663  37.017  38.805  1.00  0.00     0.161 HD
ENDBRANCH   8  10
ENDBRANCH   6   8
TORSDOF 2
ENDMDL
MODEL 9
REMARK VINA RESULT:      -4.1      2.995      4.940
REMARK  2 active torsions:
REMARK  status: ('A' for Active; 'I' for Inactive)
REMARK    1  A    between atoms: N_2  and  C_11 
REMARK    2  A    between atoms: N_2  and  C_12 
ROOT
HETATM    1  C   UNL     1      51.551  40.462  42.403  1.00  0.00     0.113 A 
HETATM    2  N   UNL     1      52.729  40.229  41.780  1.00  0.00    -0.392 N 
ATOM      3  HN  UNL     1      52.826  39.835  40.845  1.00  0.00     0.159 HD
HETATM    4  C   UNL     1      53.737  40.588  42.560  1.00  0.00     0.080 A 
HETATM    5  C   UNL     1      51.803  41.101  43.523  1.00  0.00     0.058 A 
HETATM    6  C   UNL     1      51.046  39.974  43.464  1.00  0.00     0.111 A 
HETATM    7  C   UNL     1      53.198  41.147  43.651  1.00  0.00    -0.001 A 
ENDROOT
BRANCH   6   8
HETATM    8  N   UNL     1      49.706  40.060  43.770  1.00  0.00    -0.391 N 
ATOM      9  HN  UNL     1      49.294  40.818  44.316  1.00  0.00     0.156 HD
BRANCH   8  10
HETATM   10  C   UNL     1      49.013  39.041  43.274  1.00  0.00     0.216 A 
HETATM   11  N   UNL     1      47.702  38.913  43.357  1.00  0.00    -0.374 N 
HETATM   12  C   UNL     1      48.140  38.907  42.342  1.00  0.00     0.103 A 
ATOM     13  HN  UNL     1      46.870  38.858  43.944  1.00  0.00     0.161 HD
ENDBRANCH   8  10
ENDBRANCH   6   8
TORSDOF 2
ENDMDL
