MODEL 1
REMARK VINA RESULT:      -4.3      0.000      0.000
REMARK  0 active torsions:
REMARK  status: ('A' for Active; 'I' for Inactive)
ROOT
HETATM    1  O   UNL     1      53.816  41.990  43.520  1.00  0.00    -0.261 OA
HETATM    2  C   UNL     1      52.103  39.701  41.508  1.00  0.00     0.242 C 
HETATM    3  O   UNL     1      51.591  40.260  40.487  1.00  0.00    -0.271 OA
HETATM    4  O   UNL     1      55.711  41.244  41.722  1.00  0.00    -0.252 OA
HETATM    5  N   UNL     1      54.510  39.477  41.341  1.00  0.00    -0.337 N 
ATOM      6  HN  UNL     1      55.385  38.956  41.267  1.00  0.00     0.164 HD
HETATM    7  N   UNL     1      54.013  41.616  40.546  1.00  0.00    -0.041 NA
HETATM    8  C   UNL     1      53.512  41.132  42.721  1.00  0.00     0.324 C 
HETATM    9  C   UNL     1      53.259  38.802  41.184  1.00  0.00     0.227 C 
HETATM   10  N   UNL     1      52.315  40.601  42.524  1.00  0.00    -0.287 N 
ATOM     11  HN  UNL     1      51.541  40.864  43.134  1.00  0.00     0.172 HD
HETATM   12  C   UNL     1      54.532  40.797  41.588  1.00  0.00     0.321 C 
ENDROOT
TORSDOF 0
ENDMDL
MODEL 2
REMARK VINA RESULT:      -3.9      1.473      3.291
REMARK  0 active torsions:
REMARK  status: ('A' for Active; 'I' for Inactive)
ROOT
HETATM    1  O   UNL     1      53.700  37.844  41.178  1.00  0.00    -0.261 OA
HETATM    2  C   UNL     1      54.749  41.131  41.740  1.00  0.00     0.242 C 
HETATM    3  O   UNL     1      54.690  41.834  40.682  1.00  0.00    -0.271 OA
HETATM    4  O   UNL     1      51.370  39.125  41.734  1.00  0.00    -0.252 OA
HETATM    5  N   UNL     1      52.563  40.672  42.680  1.00  0.00    -0.337 N 
ATOM      6  HN  UNL     1      51.832  40.736  43.389  1.00  0.00     0.164 HD
HETATM    7  N   UNL     1      52.336  40.396  40.371  1.00  0.00    -0.041 NA
HETATM    8  C   UNL     1      53.772  39.013  41.486  1.00  0.00     0.324 C 
HETATM    9  C   UNL     1      53.722  41.505  42.767  1.00  0.00     0.227 C 
HETATM   10  N   UNL     1      54.844  39.792  41.453  1.00  0.00    -0.287 N 
ATOM     11  HN  UNL     1      55.750  39.391  41.212  1.00  0.00     0.172 HD
HETATM   12  C   UNL     1      52.438  39.804  41.662  1.00  0.00     0.321 C 
ENDROOT
TORSDOF 0
ENDMDL
MODEL 3
REMARK VINA RESULT:      -3.9      1.799      3.099
REMARK  0 active torsions:
REMARK  status: ('A' for Active; 'I' for Inactive)
ROOT
HETATM    1  O   UNL     1      51.264  40.504  43.290  1.00  0.00    -0.261 OA
HETATM    2  C   UNL     1      54.311  40.129  41.617  1.00  0.00     0.242 C 
HETATM    3  O   UNL     1      54.737  38.932  41.674  1.00  0.00    -0.271 OA
HETATM    4  O   UNL     1      50.486  39.736  40.803  1.00  0.00    -0.252 OA
HETATM    5  N   UNL     1      52.436  40.384  40.103  1.00  0.00    -0.337 N 
ATOM      6  HN  UNL     1      51.968  40.731  39.266  1.00  0.00     0.164 HD
HETATM    7  N   UNL     1      52.039  38.407  41.283  1.00  0.00    -0.041 NA
HETATM    8  C   UNL     1      52.133  40.364  42.458  1.00  0.00     0.324 C 
HETATM    9  C   UNL     1      53.850  40.539  40.250  1.00  0.00     0.227 C 
HETATM   10  N   UNL     1      53.444  40.406  42.646  1.00  0.00    -0.287 N 
ATOM     11  HN  UNL     1      53.814  40.648  43.565  1.00  0.00     0.172 HD
HETATM   12  C   UNL     1      51.726  39.779  41.070  1.00  0.00     0.321 C 
ENDROOT
TORSDOF 0
ENDMDL
MODEL 4
REMARK VINA RESULT:      -3.7      1.509      2.308
REMARK  0 active torsions:
REMARK  status: ('A' for Active; 'I' for Inactive)
ROOT
HETATM    1  O   UNL     1      53.971  41.690  40.137  1.00  0.00    -0.261 OA
HETATM    2  C   UNL     1      51.557  39.420  41.252  1.00  0.00     0.242 C 
HETATM    3  O   UNL     1      52.008  38.232  41.293  1.00  0.00    -0.271 OA
HETATM    4  O   UNL     1      54.445  41.583  42.810  1.00  0.00    -0.252 OA
HETATM    5  N   UNL     1      52.428  40.812  43.034  1.00  0.00    -0.337 N 
ATOM      6  HN  UNL     1      52.359  41.372  43.884  1.00  0.00     0.164 HD
HETATM    7  N   UNL     1      54.245  39.570  42.249  1.00  0.00    -0.041 NA
HETATM    8  C   UNL     1      53.220  41.014  40.805  1.00  0.00     0.324 C 
HETATM    9  C   UNL     1      51.318  40.018  42.607  1.00  0.00     0.227 C 
HETATM   10  N   UNL     1      52.267  40.201  40.373  1.00  0.00    -0.287 N 
ATOM     11  HN  UNL     1      52.058  40.154  39.376  1.00  0.00     0.172 HD
HETATM   12  C   UNL     1      53.563  40.818  42.315  1.00  0.00     0.321 C 
ENDROOT
TORSDOF 0
ENDMDL
MODEL 5
REMARK VINA RESULT:      -3.4      1.625      3.033
REMARK  0 active torsions:
REMARK  status: ('A' for Active; 'I' for Inactive)
ROOT
HETATM    1  O   UNL     1      51.802  38.298  41.433  1.00  0.00    -0.261 OA
HETATM    2  C   UNL     1      53.599  41.277  41.778  1.00  0.00     0.242 C 
HETATM    3  O   UNL     1      54.484  41.193  42.688  1.00  0.00    -0.271 OA
HETATM    4  O   UNL     1      53.942  37.893  39.809  1.00  0.00    -0.252 OA
HETATM    5  N   UNL     1      54.198  40.049  39.777  1.00  0.00    -0.337 N 
ATOM      6  HN  UNL     1      54.452  39.956  38.793  1.00  0.00     0.164 HD
HETATM    7  N   UNL     1      54.781  38.669  41.570  1.00  0.00    -0.041 NA
HETATM    8  C   UNL     1      52.579  39.218  41.303  1.00  0.00     0.324 C 
HETATM    9  C   UNL     1      54.168  41.339  40.392  1.00  0.00     0.227 C 
HETATM   10  N   UNL     1      52.591  40.365  41.967  1.00  0.00    -0.287 N 
ATOM     11  HN  UNL     1      51.841  40.571  42.627  1.00  0.00     0.172 HD
HETATM   12  C   UNL     1      53.890  38.957  40.497  1.00  0.00     0.321 C 
ENDROOT
TORSDOF 0
ENDMDL
MODEL 6
REMARK VINA RESULT:      -3.3      2.252      3.310
REMARK  0 active torsions:
REMARK  status: ('A' for Active; 'I' for Inactive)
ROOT
HETATM    1  O   UNL     1      54.624  38.224  38.639  1.00  0.00    -0.261 OA
HETATM    2  C   UNL     1      52.563  40.518  40.287  1.00  0.00     0.242 C 
HETATM    3  O   UNL     1      51.400  40.047  40.491  1.00  0.00    -0.271 OA
HETATM    4  O   UNL     1      54.964  37.560  41.251  1.00  0.00    -0.252 OA
HETATM    5  N   UNL     1      54.235  39.543  41.746  1.00  0.00    -0.337 N 
ATOM      6  HN  UNL     1      54.928  39.560  42.494  1.00  0.00     0.164 HD
HETATM    7  N   UNL     1      52.885  37.769  41.047  1.00  0.00    -0.041 NA
HETATM    8  C   UNL     1      54.066  38.915  39.462  1.00  0.00     0.324 C 
HETATM    9  C   UNL     1      53.377  40.669  41.538  1.00  0.00     0.227 C 
HETATM   10  N   UNL     1      53.189  39.884  39.242  1.00  0.00    -0.287 N 
ATOM     11  HN  UNL     1      52.977  40.163  38.284  1.00  0.00     0.172 HD
HETATM   12  C   UNL     1      54.125  38.463  40.955  1.00  0.00     0.321 C 
ENDROOT
TORSDOF 0
ENDMDL
MODEL 7
REMARK VINA RESULT:      -3.2      3.543      4.563
REMARK  0 active torsions:
REMARK  status: ('A' for Active; 'I' for Inactive)
ROOT
HETATM    1  O   UNL     1      49.451  37.591  44.250  1.00  0.00    -0.261 OA
HETATM    2  C   UNL     1      49.805  38.550  40.906  1.00  0.00     0.242 C 
HETATM    3  O   UNL     1      48.769  39.144  40.473  1.00  0.00    -0.271 OA
HETATM    4  O   UNL     1      50.390  40.132  44.456  1.00  0.00    -0.252 OA
HETATM    5  N   UNL     1      51.108  39.925  42.418  1.00  0.00    -0.337 N 
ATOM      6  HN  UNL     1      51.931  40.455  42.704  1.00  0.00     0.164 HD
HETATM    7  N   UNL     1      48.874  40.266  43.010  1.00  0.00    -0.041 NA
HETATM    8  C   UNL     1      49.735  38.161  43.219  1.00  0.00     0.324 C 
HETATM    9  C   UNL     1      50.990  39.454  41.073  1.00  0.00     0.227 C 
HETATM   10  N   UNL     1      49.515  37.745  41.981  1.00  0.00    -0.287 N 
ATOM     11  HN  UNL     1      49.125  36.816  41.823  1.00  0.00     0.172 HD
HETATM   12  C   UNL     1      50.132  39.668  43.304  1.00  0.00     0.321 C 
ENDROOT
TORSDOF 0
ENDMDL
MODEL 8
REMARK VINA RESULT:      -3.2      1.424      3.347
REMARK  0 active torsions:
REMARK  status: ('A' for Active; 'I' for Inactive)
ROOT
HETATM    1  O   UNL     1      51.670  39.733  39.101  1.00  0.00    -0.261 OA
HETATM    2  C   UNL     1      54.084  40.962  41.312  1.00  0.00     0.242 C 
HETATM    3  O   UNL     1      53.557  41.477  42.348  1.00  0.00    -0.271 OA
HETATM    4  O   UNL     1      52.065  37.632  40.778  1.00  0.00    -0.252 OA
HETATM    5  N   UNL     1      53.964  38.542  41.307  1.00  0.00    -0.337 N 
ATOM      6  HN  UNL     1      54.354  37.599  41.334  1.00  0.00     0.164 HD
HETATM    7  N   UNL     1      51.881  39.282  42.064  1.00  0.00    -0.041 NA
HETATM    8  C   UNL     1      52.526  39.856  39.949  1.00  0.00     0.324 C 
HETATM    9  C   UNL     1      54.798  39.671  41.580  1.00  0.00     0.227 C 
HETATM   10  N   UNL     1      53.209  40.950  40.253  1.00  0.00    -0.287 N 
ATOM     11  HN  UNL     1      53.084  41.794  39.693  1.00  0.00     0.172 HD
HETATM   12  C   UNL     1      52.666  38.724  41.014  1.00  0.00     0.321 C 
ENDROOT
TORSDOF 0
ENDMDL
MODEL 9
REMARK VINA RESULT:      -3.1      2.160      3.720
REMARK  0 active torsions:
REMARK  status: ('A' for Active; 'I' for Inactive)
ROOT
HETATM    1  O   UNL     1      51.124  37.300  40.642  1.00  0.00    -0.261 OA
HETATM    2  C   UNL     1      53.952  39.347  40.838  1.00  0.00     0.242 C 
HETATM    3  O   UNL     1      54.138  40.000  39.763  1.00  0.00    -0.271 OA
HETATM    4  O   UNL     1      50.088  39.666  41.484  1.00  0.00    -0.252 OA
HETATM    5  N   UNL     1      52.090  40.195  42.137  1.00  0.00    -0.337 N 
ATOM      6  HN  UNL     1      51.658  40.638  42.948  1.00  0.00     0.164 HD
HETATM    7  N   UNL     1      51.373  40.204  39.914  1.00  0.00    -0.041 NA
HETATM    8  C   UNL     1      51.907  38.197  40.866  1.00  0.00     0.324 C 
HETATM    9  C   UNL     1      53.513  40.200  41.991  1.00  0.00     0.227 C 
HETATM   10  N   UNL     1      53.208  38.213  40.619  1.00  0.00    -0.287 N 
ATOM     11  HN  UNL     1      53.663  37.373  40.261  1.00  0.00     0.172 HD
HETATM   12  C   UNL     1      51.324  39.605  41.204  1.00  0.00     0.321 C 
ENDROOT
TORSDOF 0
ENDMDL
