REMARK  4 active torsions:
REMARK  status: ('A' for Active; 'I' for Inactive)
REMARK    1  A    between atoms: O_2  and  C_4 
REMARK    2  A    between atoms: C_4  and  N_17 
REMARK    3  A    between atoms: O_8  and  C_10 
REMARK    4  A    between atoms: N_11  and  C_14 
ROOT
HETATM    1  C   UNL     1     141.958 -27.425  70.786  1.00  0.00     0.014 C 
HETATM    2  C   UNL     1     144.615 -24.853  71.308  1.00  0.00     0.339 C 
HETATM    3  C   UNL     1     142.773 -26.328  71.052  1.00  0.00     0.002 C 
HETATM    4  C   UNL     1     143.799 -25.626  70.220  1.00  0.00     0.239 C 
HETATM    5  N   UNL     1     143.538 -24.599  72.275  1.00  0.00    -0.288 N 
HETATM    6 CL   UNL     1     141.280 -29.796  71.830  1.00  0.00    -0.111 Cl
HETATM    7  C   UNL     1     141.165 -27.999  71.906  1.00  0.00     0.070 C 
HETATM    8  C   UNL     1     141.630 -27.601  73.274  1.00  0.00     0.005 C 
HETATM    9  C   UNL     1     139.675 -27.685  71.769  1.00  0.00     0.041 C 
HETATM   10  C   UNL     1     142.317 -26.423  73.462  1.00  0.00     0.028 C 
HETATM   11  C   UNL     1     142.774 -25.749  72.327  1.00  0.00     0.048 C 
ENDROOT
BRANCH   2  12
HETATM   12  O   UNL     1     145.194 -23.755  70.872  1.00  0.00    -0.346 OA
ATOM     13  HO  UNL     1     145.690 -23.286  71.533  1.00  0.00     0.214 HD
ENDBRANCH   2  12
BRANCH   2  14
HETATM   14  N   UNL     1     145.623 -25.735  71.891  1.00  0.00    -0.024 N 
ATOM     15  HN3 UNL     1     146.385 -25.932  71.242  1.00  0.00     0.280 HD
ATOM     16  HN2 UNL     1     146.168 -25.271  72.618  1.00  0.00     0.280 HD
ATOM     17  HN1 UNL     1     145.174 -26.586  72.229  1.00  0.00     0.280 HD
ENDBRANCH   2  14
BRANCH   4  18
HETATM   18  O   UNL     1     144.566 -26.429  69.348  1.00  0.00    -0.384 OA
ATOM     19  HO  UNL     1     144.070 -26.898  68.687  1.00  0.00     0.210 HD
ENDBRANCH   4  18
BRANCH   5  20
HETATM   20  C   UNL     1     143.180 -23.402  72.936  1.00  0.00     0.039 A 
HETATM   21  C   UNL     1     142.536 -22.347  72.287  1.00  0.00     0.030 A 
HETATM   22  C   UNL     1     142.086 -21.243  73.017  1.00  0.00     0.002 A 
HETATM   23  C   UNL     1     142.242 -21.196  74.391  1.00  0.00     0.000 A 
HETATM   24  C   UNL     1     142.861 -22.252  75.048  1.00  0.00     0.002 A 
HETATM   25  C   UNL     1     143.342 -23.333  74.319  1.00  0.00     0.030 A 
ENDBRANCH   5  20
TORSDOF 4
