MODEL 1
REMARK VINA RESULT:      -8.0      0.000      0.000
REMARK  5 active torsions:
REMARK  status: ('A' for Active; 'I' for Inactive)
REMARK    1  A    between atoms: C_3  and  C_22 
REMARK    2  A    between atoms: O_4  and  C_28 
REMARK    3  A    between atoms: C_11  and  C_24 
REMARK    4  A    between atoms: N_16  and  C_27 
REMARK    5  A    between atoms: C_21  and  C_24 
ROOT
HETATM    1  C   UNL     1      43.197  32.095  14.685  1.00  0.00     0.055 C 
HETATM    2  C   UNL     1      46.068  34.330  16.996  1.00  0.00     0.019 C 
HETATM    3  C   UNL     1      43.947  35.644  15.559  1.00  0.00     0.045 C 
HETATM    4  C   UNL     1      45.093  36.360  16.296  1.00  0.00    -0.010 C 
HETATM    5  C   UNL     1      42.863  33.315  15.321  1.00  0.00     0.039 C 
HETATM    6  C   UNL     1      46.395  35.565  16.125  1.00  0.00     0.014 C 
HETATM    7  C   UNL     1      44.367  31.446  15.106  1.00  0.00     0.020 C 
HETATM    8  C   UNL     1      45.361  34.897  18.234  1.00  0.00     0.010 C 
HETATM    9  C   UNL     1      43.953  34.134  15.685  1.00  0.00    -0.036 C 
HETATM   10  C   UNL     1      45.103  33.483  16.189  1.00  0.00    -0.047 C 
HETATM   11  C   UNL     1      44.894  36.293  17.816  1.00  0.00     0.005 C 
HETATM   12  C   UNL     1      45.291  32.125  15.916  1.00  0.00     0.009 C 
ENDROOT
BRANCH   5  13
HETATM   13  C   UNL     1      41.445  33.656  15.620  1.00  0.00     0.196 C 
HETATM   14  O   UNL     1      40.960  33.235  16.665  1.00  0.00    -0.286 OA
BRANCH  13  15
HETATM   15  C   UNL     1      40.617  34.480  14.684  1.00  0.00     0.048 C 
HETATM   16  C   UNL     1      41.176  35.229  13.652  1.00  0.00     0.020 C 
HETATM   17  C   UNL     1      40.393  36.103  12.914  1.00  0.00     0.030 C 
HETATM   18  C   UNL     1      39.022  36.196  13.180  1.00  0.00     0.028 C 
HETATM   19  C   UNL     1      38.504  35.597  14.330  1.00  0.00     0.066 C 
HETATM   20  C   UNL     1      39.224  34.536  14.866  1.00  0.00     0.082 C 
BRANCH  18  21
HETATM   21  N   UNL     1      38.170  36.636  12.220  1.00  0.00    -0.399 N 
ATOM     22  HN2 UNL     1      38.357  37.525  11.757  1.00  0.00     0.156 HD
ATOM     23  HN1 UNL     1      37.264  36.186  12.095  1.00  0.00     0.156 HD
ENDBRANCH  18  21
BRANCH  20  24
HETATM   24  O   UNL     1      38.552  33.485  15.431  1.00  0.00    -0.360 OA
ATOM     25  HO  UNL     1      38.966  32.987  16.126  1.00  0.00     0.217 HD
ENDBRANCH  20  24
ENDBRANCH  13  15
ENDBRANCH   5  13
BRANCH   1  26
HETATM   26  C   UNL     1      42.343  31.552  13.583  1.00  0.00     0.210 C 
HETATM   27  O   UNL     1      41.595  30.565  13.791  1.00  0.00    -0.644 OA
HETATM   28  O   UNL     1      42.353  32.154  12.470  1.00  0.00    -0.644 OA
ENDBRANCH   1  26
TORSDOF 5
ENDMDL
MODEL 2
REMARK VINA RESULT:      -8.0      2.229      4.930
REMARK  5 active torsions:
REMARK  status: ('A' for Active; 'I' for Inactive)
REMARK    1  A    between atoms: C_3  and  C_22 
REMARK    2  A    between atoms: O_4  and  C_28 
REMARK    3  A    between atoms: C_11  and  C_24 
REMARK    4  A    between atoms: N_16  and  C_27 
REMARK    5  A    between atoms: C_21  and  C_24 
ROOT
HETATM    1  C   UNL     1      44.383  31.886  15.014  1.00  0.00     0.055 C 
HETATM    2  C   UNL     1      43.588  29.770  11.343  1.00  0.00     0.019 C 
HETATM    3  C   UNL     1      41.868  29.498  13.636  1.00  0.00     0.045 C 
HETATM    4  C   UNL     1      41.744  28.686  12.335  1.00  0.00    -0.010 C 
HETATM    5  C   UNL     1      43.067  31.570  14.598  1.00  0.00     0.039 C 
HETATM    6  C   UNL     1      43.143  28.360  11.793  1.00  0.00     0.014 C 
HETATM    7  C   UNL     1      45.399  31.814  14.050  1.00  0.00     0.020 C 
HETATM    8  C   UNL     1      42.345  30.385  10.686  1.00  0.00     0.010 C 
HETATM    9  C   UNL     1      42.958  30.550  13.629  1.00  0.00    -0.036 C 
HETATM   10  C   UNL     1      43.937  30.531  12.608  1.00  0.00    -0.047 C 
HETATM   11  C   UNL     1      41.173  29.547  11.202  1.00  0.00     0.005 C 
HETATM   12  C   UNL     1      45.151  31.191  12.817  1.00  0.00     0.009 C 
ENDROOT
BRANCH   5  13
HETATM   13  C   UNL     1      41.898  32.324  15.131  1.00  0.00     0.196 C 
HETATM   14  O   UNL     1      41.392  31.933  16.179  1.00  0.00    -0.286 OA
BRANCH  13  15
HETATM   15  C   UNL     1      41.338  33.518  14.424  1.00  0.00     0.048 C 
HETATM   16  C   UNL     1      41.968  34.102  13.329  1.00  0.00     0.020 C 
HETATM   17  C   UNL     1      41.504  35.299  12.807  1.00  0.00     0.030 C 
HETATM   18  C   UNL     1      40.365  35.899  13.359  1.00  0.00     0.028 C 
HETATM   19  C   UNL     1      39.855  35.419  14.567  1.00  0.00     0.066 C 
HETATM   20  C   UNL     1      40.150  34.102  14.897  1.00  0.00     0.082 C 
BRANCH  18  21
HETATM   21  N   UNL     1      39.620  36.756  12.618  1.00  0.00    -0.399 N 
ATOM     22  HN2 UNL     1      39.787  37.760  12.698  1.00  0.00     0.156 HD
ATOM     23  HN1 UNL     1      38.786  36.424  12.134  1.00  0.00     0.156 HD
ENDBRANCH  18  21
BRANCH  20  24
HETATM   24  O   UNL     1      39.213  33.347  15.548  1.00  0.00    -0.360 OA
ATOM     25  HO  UNL     1      39.464  32.860  16.325  1.00  0.00     0.217 HD
ENDBRANCH  20  24
ENDBRANCH  13  15
ENDBRANCH   5  13
BRANCH   1  26
HETATM   26  C   UNL     1      44.667  32.244  16.438  1.00  0.00     0.210 C 
HETATM   27  O   UNL     1      44.370  33.383  16.876  1.00  0.00    -0.644 OA
HETATM   28  O   UNL     1      45.150  31.349  17.192  1.00  0.00    -0.644 OA
ENDBRANCH   1  26
TORSDOF 5
ENDMDL
MODEL 3
REMARK VINA RESULT:      -7.8      2.905      5.526
REMARK  5 active torsions:
REMARK  status: ('A' for Active; 'I' for Inactive)
REMARK    1  A    between atoms: C_3  and  C_22 
REMARK    2  A    between atoms: O_4  and  C_28 
REMARK    3  A    between atoms: C_11  and  C_24 
REMARK    4  A    between atoms: N_16  and  C_27 
REMARK    5  A    between atoms: C_21  and  C_24 
ROOT
HETATM    1  C   UNL     1      40.566  34.494  14.856  1.00  0.00     0.055 C 
HETATM    2  C   UNL     1      42.222  30.545  15.345  1.00  0.00     0.019 C 
HETATM    3  C   UNL     1      42.950  32.213  13.114  1.00  0.00     0.045 C 
HETATM    4  C   UNL     1      43.382  30.747  13.302  1.00  0.00    -0.010 C 
HETATM    5  C   UNL     1      41.868  34.164  14.408  1.00  0.00     0.039 C 
HETATM    6  C   UNL     1      42.228  29.944  13.921  1.00  0.00     0.014 C 
HETATM    7  C   UNL     1      39.958  33.623  15.771  1.00  0.00     0.020 C 
HETATM    8  C   UNL     1      43.703  30.681  15.723  1.00  0.00     0.010 C 
HETATM    9  C   UNL     1      42.132  32.787  14.253  1.00  0.00    -0.036 C 
HETATM   10  C   UNL     1      41.588  31.917  15.226  1.00  0.00    -0.047 C 
HETATM   11  C   UNL     1      44.455  30.626  14.391  1.00  0.00     0.005 C 
HETATM   12  C   UNL     1      40.512  32.354  16.003  1.00  0.00     0.009 C 
ENDROOT
BRANCH   5  13
HETATM   13  C   UNL     1      42.886  35.227  14.177  1.00  0.00     0.196 C 
HETATM   14  O   UNL     1      42.841  35.845  13.119  1.00  0.00    -0.286 OA
BRANCH  13  15
HETATM   15  C   UNL     1      43.943  35.541  15.189  1.00  0.00     0.048 C 
HETATM   16  C   UNL     1      45.301  35.376  14.928  1.00  0.00     0.020 C 
HETATM   17  C   UNL     1      46.235  35.523  15.942  1.00  0.00     0.030 C 
HETATM   18  C   UNL     1      45.809  35.884  17.226  1.00  0.00     0.028 C 
HETATM   19  C   UNL     1      44.446  35.857  17.530  1.00  0.00     0.066 C 
HETATM   20  C   UNL     1      43.561  35.986  16.467  1.00  0.00     0.082 C 
BRANCH  18  21
HETATM   21  N   UNL     1      46.669  36.490  18.083  1.00  0.00    -0.399 N 
ATOM     22  HN2 UNL     1      47.158  37.334  17.785  1.00  0.00     0.156 HD
ATOM     23  HN1 UNL     1      46.966  36.012  18.933  1.00  0.00     0.156 HD
ENDBRANCH  18  21
BRANCH  20  24
HETATM   24  O   UNL     1      42.394  36.677  16.644  1.00  0.00    -0.360 OA
ATOM     25  HO  UNL     1      41.669  36.260  17.095  1.00  0.00     0.217 HD
ENDBRANCH  20  24
ENDBRANCH  13  15
ENDBRANCH   5  13
BRANCH   1  26
HETATM   26  C   UNL     1      39.865  35.708  14.333  1.00  0.00     0.210 C 
HETATM   27  O   UNL     1      40.154  36.846  14.780  1.00  0.00    -0.644 OA
HETATM   28  O   UNL     1      39.031  35.556  13.394  1.00  0.00    -0.644 OA
ENDBRANCH   1  26
TORSDOF 5
ENDMDL
MODEL 4
REMARK VINA RESULT:      -7.6      2.419      4.358
REMARK  5 active torsions:
REMARK  status: ('A' for Active; 'I' for Inactive)
REMARK    1  A    between atoms: C_3  and  C_22 
REMARK    2  A    between atoms: O_4  and  C_28 
REMARK    3  A    between atoms: C_11  and  C_24 
REMARK    4  A    between atoms: N_16  and  C_27 
REMARK    5  A    between atoms: C_21  and  C_24 
ROOT
HETATM    1  C   UNL     1      41.468  33.688  15.485  1.00  0.00     0.055 C 
HETATM    2  C   UNL     1      45.405  35.423  15.219  1.00  0.00     0.019 C 
HETATM    3  C   UNL     1      44.914  33.039  16.758  1.00  0.00     0.045 C 
HETATM    4  C   UNL     1      46.249  33.804  16.712  1.00  0.00    -0.010 C 
HETATM    5  C   UNL     1      42.642  32.900  15.545  1.00  0.00     0.039 C 
HETATM    6  C   UNL     1      45.977  35.315  16.651  1.00  0.00     0.014 C 
HETATM    7  C   UNL     1      41.591  34.993  14.987  1.00  0.00     0.020 C 
HETATM    8  C   UNL     1      46.288  34.499  14.370  1.00  0.00     0.010 C 
HETATM    9  C   UNL     1      43.831  33.593  15.856  1.00  0.00    -0.036 C 
HETATM   10  C   UNL     1      43.991  34.876  15.283  1.00  0.00    -0.047 C 
HETATM   11  C   UNL     1      46.971  33.572  15.378  1.00  0.00     0.005 C 
HETATM   12  C   UNL     1      42.863  35.563  14.824  1.00  0.00     0.009 C 
ENDROOT
BRANCH   5  13
HETATM   13  C   UNL     1      42.598  31.442  15.241  1.00  0.00     0.196 C 
HETATM   14  O   UNL     1      42.778  30.657  16.166  1.00  0.00    -0.286 OA
BRANCH  13  15
HETATM   15  C   UNL     1      42.349  30.931  13.857  1.00  0.00     0.048 C 
HETATM   16  C   UNL     1      42.433  31.747  12.732  1.00  0.00     0.020 C 
HETATM   17  C   UNL     1      42.037  31.275  11.490  1.00  0.00     0.030 C 
HETATM   18  C   UNL     1      41.594  29.953  11.362  1.00  0.00     0.028 C 
HETATM   19  C   UNL     1      41.327  29.205  12.511  1.00  0.00     0.066 C 
HETATM   20  C   UNL     1      41.980  29.587  13.676  1.00  0.00     0.082 C 
BRANCH  18  21
HETATM   21  N   UNL     1      41.662  29.325  10.162  1.00  0.00    -0.399 N 
ATOM     22  HN2 UNL     1      40.871  28.763   9.847  1.00  0.00     0.156 HD
ATOM     23  HN1 UNL     1      42.552  29.258   9.669  1.00  0.00     0.156 HD
ENDBRANCH  18  21
BRANCH  20  24
HETATM   24  O   UNL     1      42.388  28.627  14.562  1.00  0.00    -0.360 OA
ATOM     25  HO  UNL     1      42.517  27.736  14.258  1.00  0.00     0.217 HD
ENDBRANCH  20  24
ENDBRANCH  13  15
ENDBRANCH   5  13
BRANCH   1  26
HETATM   26  C   UNL     1      40.161  33.148  15.974  1.00  0.00     0.210 C 
HETATM   27  O   UNL     1      40.096  32.552  17.077  1.00  0.00    -0.644 OA
HETATM   28  O   UNL     1      39.128  33.367  15.276  1.00  0.00    -0.644 OA
ENDBRANCH   1  26
TORSDOF 5
ENDMDL
MODEL 5
REMARK VINA RESULT:      -7.6      3.687      6.448
REMARK  5 active torsions:
REMARK  status: ('A' for Active; 'I' for Inactive)
REMARK    1  A    between atoms: C_3  and  C_22 
REMARK    2  A    between atoms: O_4  and  C_28 
REMARK    3  A    between atoms: C_11  and  C_24 
REMARK    4  A    between atoms: N_16  and  C_27 
REMARK    5  A    between atoms: C_21  and  C_24 
ROOT
HETATM    1  C   UNL     1      44.834  32.655  16.433  1.00  0.00     0.055 C 
HETATM    2  C   UNL     1      41.258  33.471  14.169  1.00  0.00     0.019 C 
HETATM    3  C   UNL     1      42.527  35.509  15.760  1.00  0.00     0.045 C 
HETATM    4  C   UNL     1      41.181  35.666  15.029  1.00  0.00    -0.010 C 
HETATM    5  C   UNL     1      44.566  33.934  15.887  1.00  0.00     0.039 C 
HETATM    6  C   UNL     1      40.395  34.349  15.104  1.00  0.00     0.014 C 
HETATM    7  C   UNL     1      44.099  31.572  15.931  1.00  0.00     0.020 C 
HETATM    8  C   UNL     1      41.624  34.388  12.994  1.00  0.00     0.010 C 
HETATM    9  C   UNL     1      43.221  34.181  15.538  1.00  0.00    -0.036 C 
HETATM   10  C   UNL     1      42.504  33.110  14.954  1.00  0.00    -0.047 C 
HETATM   11  C   UNL     1      41.391  35.808  13.516  1.00  0.00     0.005 C 
HETATM   12  C   UNL     1      42.967  31.804  15.134  1.00  0.00     0.009 C 
ENDROOT
BRANCH   5  13
HETATM   13  C   UNL     1      45.666  34.912  15.660  1.00  0.00     0.196 C 
HETATM   14  O   UNL     1      46.109  35.024  14.522  1.00  0.00    -0.286 OA
BRANCH  13  15
HETATM   15  C   UNL     1      46.231  35.736  16.774  1.00  0.00     0.048 C 
HETATM   16  C   UNL     1      45.439  36.552  17.577  1.00  0.00     0.020 C 
HETATM   17  C   UNL     1      46.022  37.421  18.488  1.00  0.00     0.030 C 
HETATM   18  C   UNL     1      47.415  37.440  18.630  1.00  0.00     0.028 C 
HETATM   19  C   UNL     1      48.209  36.770  17.697  1.00  0.00     0.066 C 
HETATM   20  C   UNL     1      47.618  35.721  17.004  1.00  0.00     0.082 C 
BRANCH  18  21
HETATM   21  N   UNL     1      47.975  37.881  19.784  1.00  0.00    -0.399 N 
ATOM     22  HN2 UNL     1      47.854  38.857  20.056  1.00  0.00     0.156 HD
ATOM     23  HN1 UNL     1      48.659  37.306  20.274  1.00  0.00     0.156 HD
ENDBRANCH  18  21
BRANCH  20  24
HETATM   24  O   UNL     1      48.365  34.619  16.688  1.00  0.00    -0.360 OA
ATOM     25  HO  UNL     1      48.820  34.150  17.379  1.00  0.00     0.217 HD
ENDBRANCH  20  24
ENDBRANCH  13  15
ENDBRANCH   5  13
BRANCH   1  26
HETATM   26  C   UNL     1      45.841  32.490  17.527  1.00  0.00     0.210 C 
HETATM   27  O   UNL     1      46.990  32.053  17.269  1.00  0.00    -0.644 OA
HETATM   28  O   UNL     1      45.519  32.862  18.693  1.00  0.00    -0.644 OA
ENDBRANCH   1  26
TORSDOF 5
ENDMDL
MODEL 6
REMARK VINA RESULT:      -7.3      2.823      5.822
REMARK  5 active torsions:
REMARK  status: ('A' for Active; 'I' for Inactive)
REMARK    1  A    between atoms: C_3  and  C_22 
REMARK    2  A    between atoms: O_4  and  C_28 
REMARK    3  A    between atoms: C_11  and  C_24 
REMARK    4  A    between atoms: N_16  and  C_27 
REMARK    5  A    between atoms: C_21  and  C_24 
ROOT
HETATM    1  C   UNL     1      41.050  32.313  15.495  1.00  0.00     0.055 C 
HETATM    2  C   UNL     1      43.044  29.074  13.467  1.00  0.00     0.019 C 
HETATM    3  C   UNL     1      42.335  31.500  12.088  1.00  0.00     0.045 C 
HETATM    4  C   UNL     1      42.924  30.243  11.422  1.00  0.00    -0.010 C 
HETATM    5  C   UNL     1      41.941  32.536  14.417  1.00  0.00     0.039 C 
HETATM    6  C   UNL     1      42.347  28.986  12.090  1.00  0.00     0.014 C 
HETATM    7  C   UNL     1      41.096  31.060  16.122  1.00  0.00     0.020 C 
HETATM    8  C   UNL     1      44.482  29.508  13.154  1.00  0.00     0.010 C 
HETATM    9  C   UNL     1      42.198  31.419  13.594  1.00  0.00    -0.036 C 
HETATM   10  C   UNL     1      42.328  30.167  14.238  1.00  0.00    -0.047 C 
HETATM   11  C   UNL     1      44.417  30.099  11.744  1.00  0.00     0.005 C 
HETATM   12  C   UNL     1      41.795  30.002  15.519  1.00  0.00     0.009 C 
ENDROOT
BRANCH   5  13
HETATM   13  C   UNL     1      42.587  33.864  14.225  1.00  0.00     0.196 C 
HETATM   14  O   UNL     1      42.187  34.570  13.305  1.00  0.00    -0.286 OA
BRANCH  13  15
HETATM   15  C   UNL     1      43.696  34.338  15.110  1.00  0.00     0.048 C 
HETATM   16  C   UNL     1      44.164  33.592  16.188  1.00  0.00     0.020 C 
HETATM   17  C   UNL     1      45.077  34.137  17.077  1.00  0.00     0.030 C 
HETATM   18  C   UNL     1      45.565  35.432  16.860  1.00  0.00     0.028 C 
HETATM   19  C   UNL     1      44.955  36.243  15.901  1.00  0.00     0.066 C 
HETATM   20  C   UNL     1      44.271  35.600  14.876  1.00  0.00     0.082 C 
BRANCH  18  21
HETATM   21  N   UNL     1      46.759  35.806  17.384  1.00  0.00    -0.399 N 
ATOM     22  HN2 UNL     1      46.804  36.109  18.357  1.00  0.00     0.156 HD
ATOM     23  HN1 UNL     1      47.559  35.964  16.772  1.00  0.00     0.156 HD
ENDBRANCH  18  21
BRANCH  20  24
HETATM   24  O   UNL     1      44.294  36.132  13.616  1.00  0.00    -0.360 OA
ATOM     25  HO  UNL     1      43.704  36.845  13.399  1.00  0.00     0.217 HD
ENDBRANCH  20  24
ENDBRANCH  13  15
ENDBRANCH   5  13
BRANCH   1  26
HETATM   26  C   UNL     1      40.079  33.372  15.912  1.00  0.00     0.210 C 
HETATM   27  O   UNL     1      40.387  34.196  16.809  1.00  0.00    -0.644 OA
HETATM   28  O   UNL     1      38.977  33.447  15.293  1.00  0.00    -0.644 OA
ENDBRANCH   1  26
TORSDOF 5
ENDMDL
MODEL 7
REMARK VINA RESULT:      -7.3      3.375      5.516
REMARK  5 active torsions:
REMARK  status: ('A' for Active; 'I' for Inactive)
REMARK    1  A    between atoms: C_3  and  C_22 
REMARK    2  A    between atoms: O_4  and  C_28 
REMARK    3  A    between atoms: C_11  and  C_24 
REMARK    4  A    between atoms: N_16  and  C_27 
REMARK    5  A    between atoms: C_21  and  C_24 
ROOT
HETATM    1  C   UNL     1      42.705  30.542  15.205  1.00  0.00     0.055 C 
HETATM    2  C   UNL     1      40.908  34.451  14.938  1.00  0.00     0.019 C 
HETATM    3  C   UNL     1      43.701  34.040  14.371  1.00  0.00     0.045 C 
HETATM    4  C   UNL     1      43.003  35.410  14.433  1.00  0.00    -0.010 C 
HETATM    5  C   UNL     1      43.162  31.518  14.287  1.00  0.00     0.039 C 
HETATM    6  C   UNL     1      41.955  35.405  15.556  1.00  0.00     0.014 C 
HETATM    7  C   UNL     1      41.440  30.737  15.778  1.00  0.00     0.020 C 
HETATM    8  C   UNL     1      40.833  34.852  13.458  1.00  0.00     0.010 C 
HETATM    9  C   UNL     1      42.786  32.848  14.569  1.00  0.00    -0.036 C 
HETATM   10  C   UNL     1      41.478  33.051  15.068  1.00  0.00    -0.047 C 
HETATM   11  C   UNL     1      42.122  35.635  13.197  1.00  0.00     0.005 C 
HETATM   12  C   UNL     1      40.798  31.978  15.650  1.00  0.00     0.009 C 
ENDROOT
BRANCH   5  13
HETATM   13  C   UNL     1      43.944  31.124  13.082  1.00  0.00     0.196 C 
HETATM   14  O   UNL     1      45.166  31.222  13.133  1.00  0.00    -0.286 OA
BRANCH  13  15
HETATM   15  C   UNL     1      43.279  30.629  11.837  1.00  0.00     0.048 C 
HETATM   16  C   UNL     1      42.053  31.119  11.397  1.00  0.00     0.020 C 
HETATM   17  C   UNL     1      41.397  30.521  10.333  1.00  0.00     0.030 C 
HETATM   18  C   UNL     1      41.997  29.444   9.668  1.00  0.00     0.028 C 
HETATM   19  C   UNL     1      43.122  28.834  10.226  1.00  0.00     0.066 C 
HETATM   20  C   UNL     1      43.890  29.603  11.093  1.00  0.00     0.082 C 
BRANCH  18  21
HETATM   21  N   UNL     1      41.653  29.158   8.388  1.00  0.00    -0.399 N 
ATOM     22  HN2 UNL     1      42.345  28.735   7.768  1.00  0.00     0.156 HD
ATOM     23  HN1 UNL     1      40.788  29.528   7.995  1.00  0.00     0.156 HD
ENDBRANCH  18  21
BRANCH  20  24
HETATM   24  O   UNL     1      45.250  29.452  11.100  1.00  0.00    -0.360 OA
ATOM     25  HO  UNL     1      45.749  29.693  10.328  1.00  0.00     0.217 HD
ENDBRANCH  20  24
ENDBRANCH  13  15
ENDBRANCH   5  13
BRANCH   1  26
HETATM   26  C   UNL     1      43.566  29.373  15.567  1.00  0.00     0.210 C 
HETATM   27  O   UNL     1      44.534  29.521  16.354  1.00  0.00    -0.644 OA
HETATM   28  O   UNL     1      43.250  28.236  15.110  1.00  0.00    -0.644 OA
ENDBRANCH   1  26
TORSDOF 5
ENDMDL
MODEL 8
REMARK VINA RESULT:      -7.3      2.942      5.368
REMARK  5 active torsions:
REMARK  status: ('A' for Active; 'I' for Inactive)
REMARK    1  A    between atoms: C_3  and  C_22 
REMARK    2  A    between atoms: O_4  and  C_28 
REMARK    3  A    between atoms: C_11  and  C_24 
REMARK    4  A    between atoms: N_16  and  C_27 
REMARK    5  A    between atoms: C_21  and  C_24 
ROOT
HETATM    1  C   UNL     1      42.751  32.405  13.306  1.00  0.00     0.055 C 
HETATM    2  C   UNL     1      45.560  29.404  12.007  1.00  0.00     0.019 C 
HETATM    3  C   UNL     1      46.416  31.726  13.477  1.00  0.00     0.045 C 
HETATM    4  C   UNL     1      47.355  30.675  12.858  1.00  0.00    -0.010 C 
HETATM    5  C   UNL     1      43.928  32.109  14.037  1.00  0.00     0.039 C 
HETATM    6  C   UNL     1      46.786  30.204  11.511  1.00  0.00     0.014 C 
HETATM    7  C   UNL     1      42.335  31.470  12.348  1.00  0.00     0.020 C 
HETATM    8  C   UNL     1      46.060  28.639  13.240  1.00  0.00     0.010 C 
HETATM    9  C   UNL     1      44.938  31.432  13.323  1.00  0.00    -0.036 C 
HETATM   10  C   UNL     1      44.520  30.429  12.418  1.00  0.00    -0.047 C 
HETATM   11  C   UNL     1      47.332  29.372  13.668  1.00  0.00     0.005 C 
HETATM   12  C   UNL     1      43.202  30.439  11.953  1.00  0.00     0.009 C 
ENDROOT
BRANCH   5  13
HETATM   13  C   UNL     1      44.036  32.459  15.481  1.00  0.00     0.196 C 
HETATM   14  O   UNL     1      43.852  31.568  16.303  1.00  0.00    -0.286 OA
BRANCH  13  15
HETATM   15  C   UNL     1      44.350  33.850  15.935  1.00  0.00     0.048 C 
HETATM   16  C   UNL     1      45.466  34.550  15.482  1.00  0.00     0.020 C 
HETATM   17  C   UNL     1      45.808  35.768  16.049  1.00  0.00     0.030 C 
HETATM   18  C   UNL     1      44.999  36.316  17.052  1.00  0.00     0.028 C 
HETATM   19  C   UNL     1      44.002  35.531  17.635  1.00  0.00     0.066 C 
HETATM   20  C   UNL     1      43.515  34.470  16.881  1.00  0.00     0.082 C 
BRANCH  18  21
HETATM   21  N   UNL     1      45.008  37.653  17.278  1.00  0.00    -0.399 N 
ATOM     22  HN2 UNL     1      45.192  38.290  16.502  1.00  0.00     0.156 HD
ATOM     23  HN1 UNL     1      45.020  38.011  18.233  1.00  0.00     0.156 HD
ENDBRANCH  18  21
BRANCH  20  24
HETATM   24  O   UNL     1      42.190  34.141  16.962  1.00  0.00    -0.360 OA
ATOM     25  HO  UNL     1      41.728  34.261  17.784  1.00  0.00     0.217 HD
ENDBRANCH  20  24
ENDBRANCH  13  15
ENDBRANCH   5  13
BRANCH   1  26
HETATM   26  C   UNL     1      42.015  33.687  13.534  1.00  0.00     0.210 C 
HETATM   27  O   UNL     1      42.432  34.756  13.022  1.00  0.00    -0.644 OA
HETATM   28  O   UNL     1      40.936  33.645  14.195  1.00  0.00    -0.644 OA
ENDBRANCH   1  26
TORSDOF 5
ENDMDL
MODEL 9
REMARK VINA RESULT:      -7.2      2.767      4.851
REMARK  5 active torsions:
REMARK  status: ('A' for Active; 'I' for Inactive)
REMARK    1  A    between atoms: C_3  and  C_22 
REMARK    2  A    between atoms: O_4  and  C_28 
REMARK    3  A    between atoms: C_11  and  C_24 
REMARK    4  A    between atoms: N_16  and  C_27 
REMARK    5  A    between atoms: C_21  and  C_24 
ROOT
HETATM    1  C   UNL     1      46.159  35.904  16.419  1.00  0.00     0.055 C 
HETATM    2  C   UNL     1      48.068  32.523  14.547  1.00  0.00     0.019 C 
HETATM    3  C   UNL     1      45.217  32.612  14.937  1.00  0.00     0.045 C 
HETATM    4  C   UNL     1      46.000  31.399  14.404  1.00  0.00    -0.010 C 
HETATM    5  C   UNL     1      45.510  35.127  15.429  1.00  0.00     0.039 C 
HETATM    6  C   UNL     1      47.346  31.290  15.136  1.00  0.00     0.014 C 
HETATM    7  C   UNL     1      47.552  35.777  16.529  1.00  0.00     0.020 C 
HETATM    8  C   UNL     1      47.701  32.521  13.056  1.00  0.00     0.010 C 
HETATM    9  C   UNL     1      46.055  33.846  15.201  1.00  0.00    -0.036 C 
HETATM   10  C   UNL     1      47.465  33.736  15.228  1.00  0.00    -0.047 C 
HETATM   11  C   UNL     1      46.459  31.633  12.959  1.00  0.00     0.005 C 
HETATM   12  C   UNL     1      48.212  34.725  15.875  1.00  0.00     0.009 C 
ENDROOT
BRANCH   5  13
HETATM   13  C   UNL     1      44.360  35.679  14.661  1.00  0.00     0.196 C 
HETATM   14  O   UNL     1      44.595  36.523  13.802  1.00  0.00    -0.286 OA
BRANCH  13  15
HETATM   15  C   UNL     1      42.954  35.237  14.918  1.00  0.00     0.048 C 
HETATM   16  C   UNL     1      42.477  34.964  16.197  1.00  0.00     0.020 C 
HETATM   17  C   UNL     1      41.222  34.402  16.375  1.00  0.00     0.030 C 
HETATM   18  C   UNL     1      40.412  34.153  15.260  1.00  0.00     0.028 C 
HETATM   19  C   UNL     1      40.962  34.244  13.979  1.00  0.00     0.066 C 
HETATM   20  C   UNL     1      42.081  35.053  13.830  1.00  0.00     0.082 C 
BRANCH  18  21
HETATM   21  N   UNL     1      39.066  34.073  15.401  1.00  0.00    -0.399 N 
ATOM     22  HN2 UNL     1      38.606  34.626  16.124  1.00  0.00     0.156 HD
ATOM     23  HN1 UNL     1      38.544  33.337  14.925  1.00  0.00     0.156 HD
ENDBRANCH  18  21
BRANCH  20  24
HETATM   24  O   UNL     1      42.239  35.777  12.680  1.00  0.00    -0.360 OA
ATOM     25  HO  UNL     1      42.545  36.675  12.732  1.00  0.00     0.217 HD
ENDBRANCH  20  24
ENDBRANCH  13  15
ENDBRANCH   5  13
BRANCH   1  26
HETATM   26  C   UNL     1      45.372  36.793  17.329  1.00  0.00     0.210 C 
HETATM   27  O   UNL     1      45.344  38.033  17.134  1.00  0.00    -0.644 OA
HETATM   28  O   UNL     1      44.691  36.250  18.249  1.00  0.00    -0.644 OA
ENDBRANCH   1  26
TORSDOF 5
ENDMDL
