REMARK  2 active torsions:
REMARK  status: ('A' for Active; 'I' for Inactive)
REMARK    1  A    between atoms: C_16  and  C_24 
REMARK    2  A    between atoms: C_21  and  O_26 
ROOT
HETATM    1  N   UNL     1      -8.958  29.762  11.502  1.00  0.00    -0.343 N 
ATOM      2  HN  UNL     1      -9.865  29.770  11.968  1.00  0.00     0.164 HD
HETATM    3  C   UNL     1      -6.808  29.441   7.954  1.00  0.00     0.073 C 
HETATM    4  C   UNL     1      -6.333  32.315  11.586  1.00  0.00     0.004 C 
HETATM    5  O   UNL     1      -8.766  27.467  11.643  1.00  0.00    -0.268 OA
HETATM    6  C   UNL     1      -5.351  27.644   9.005  1.00  0.00     0.066 C 
HETATM    7  C   UNL     1      -7.343  31.456  12.316  1.00  0.00     0.037 C 
HETATM    8  C   UNL     1      -7.132  27.058   7.373  1.00  0.00     0.046 C 
HETATM    9  C   UNL     1      -6.270  27.629  10.214  1.00  0.00    -0.007 C 
HETATM   10  C   UNL     1      -6.152  31.667  10.235  1.00  0.00     0.012 C 
HETATM   11  C   UNL     1      -7.503  31.043   9.913  1.00  0.00     0.048 C 
HETATM   12  C   UNL     1      -7.304  28.602  10.221  1.00  0.00     0.031 C 
HETATM   13  C   UNL     1      -8.401  28.545  11.170  1.00  0.00     0.252 C 
HETATM   14  C   UNL     1      -7.266  29.685   9.353  1.00  0.00    -0.055 C 
HETATM   15  C   UNL     1      -6.097  28.109   7.750  1.00  0.00     0.061 C 
HETATM   16  C   UNL     1      -8.304  31.054  11.215  1.00  0.00     0.068 C 
ENDROOT
BRANCH  16  17
HETATM   17  C   UNL     1      -9.337  32.127  11.140  1.00  0.00    -0.029 C 
HETATM   18  C   UNL     1      -9.110  33.314  10.416  1.00  0.00     0.010 C 
HETATM   19  C   UNL     1      -9.362  34.524  11.078  1.00  0.00     0.013 C 
HETATM   20  C   UNL     1     -10.107  34.486  12.250  1.00  0.00    -0.026 C 
HETATM   21  C   UNL     1     -10.777  33.317  12.604  1.00  0.00    -0.025 C 
HETATM   22  C   UNL     1     -10.120  35.584  13.107  1.00  0.00     0.012 C 
HETATM   23  C   UNL     1     -11.756  33.357  13.594  1.00  0.00     0.012 C 
HETATM   24  C   UNL     1     -10.420  32.106  12.009  1.00  0.00     0.022 C 
HETATM   25  C   UNL     1     -11.769  34.458  14.465  1.00  0.00     0.001 C 
HETATM   26  C   UNL     1     -10.901  35.538  14.262  1.00  0.00     0.001 C 
ENDBRANCH  16  17
BRANCH  15  27
HETATM   27  O   UNL     1      -5.155  28.255   6.696  1.00  0.00    -0.390 OA
ATOM     28  HO  UNL     1      -4.712  27.424   6.569  1.00  0.00     0.210 HD
ENDBRANCH  15  27
TORSDOF 2
