REMARK  0 active torsions:
REMARK  status: ('A' for Active; 'I' for Inactive)
ROOT
HETATM    1  C   UNL     1     -44.122 -39.613 -30.766  1.00  0.00     0.009 C 
HETATM    2  C   UNL     1     -44.062 -38.764 -29.473  1.00  0.00    -0.010 C 
HETATM    3  C   UNL     1     -45.414 -37.994 -29.464  1.00  0.00     0.009 C 
HETATM    4  C   UNL     1     -43.783 -38.550 -31.834  1.00  0.00    -0.013 C 
HETATM    5  C   UNL     1     -45.111 -36.828 -30.420  1.00  0.00    -0.013 C 
HETATM    6  C   UNL     1     -43.743 -36.355 -29.900  1.00  0.00     0.009 C 
HETATM    7  C   UNL     1     -42.514 -37.965 -31.202  1.00  0.00     0.009 C 
HETATM    8  C   UNL     1     -44.863 -37.447 -31.825  1.00  0.00     0.009 C 
HETATM    9  C   UNL     1     -42.983 -37.696 -29.760  1.00  0.00    -0.010 C 
ENDROOT
TORSDOF 0
