REMARK  3 active torsions:
REMARK  status: ('A' for Active; 'I' for Inactive)
REMARK    1  A    between atoms: C_1  and  C_6 
REMARK    2  A    between atoms: O_10  and  C_17 
REMARK    3  A    between atoms: O_14  and  C_16 
ROOT
HETATM    1  C   UNL     1      12.666   3.666  37.398  1.00  0.00     0.278 C 
HETATM    2  N   UNL     1      14.043   3.620  37.667  1.00  0.00    -0.331 N 
ATOM      3  HN  UNL     1      14.460   2.791  38.090  1.00  0.00     0.168 HD
HETATM    4  C   UNL     1      12.926   6.108  37.506  1.00  0.00     0.051 C 
HETATM    5  C   UNL     1      14.276   5.956  37.209  1.00  0.00    -0.029 C 
HETATM    6  O   UNL     1      11.950   2.673  37.634  1.00  0.00    -0.265 OA
HETATM    7  C   UNL     1      14.819   4.705  37.353  1.00  0.00     0.099 C 
HETATM    8  C   UNL     1      12.096   5.007  37.488  1.00  0.00     0.134 C 
ENDROOT
BRANCH   5   9
HETATM    9  C   UNL     1      15.064   7.154  36.753  1.00  0.00     0.015 C 
HETATM   10  C   UNL     1      16.300   6.894  35.864  1.00  0.00     0.084 C 
HETATM   11  C   UNL     1      16.592   8.401  35.787  1.00  0.00     0.162 C 
HETATM   12  O   UNL     1      15.338   8.953  35.299  1.00  0.00    -0.354 OA
HETATM   13  C   UNL     1      16.699   8.821  37.267  1.00  0.00     0.069 C 
HETATM   14  C   UNL     1      14.293   8.149  35.875  1.00  0.00     0.186 C 
HETATM   15  C   UNL     1      15.608   7.973  37.925  1.00  0.00     0.022 C 
BRANCH  11  16
HETATM   16  O   UNL     1      17.656   8.848  35.014  1.00  0.00    -0.365 OA
ATOM     17  HO  UNL     1      17.836   9.779  34.966  1.00  0.00     0.213 HD
ENDBRANCH  11  16
ENDBRANCH   5   9
BRANCH   8  18
HETATM   18  O   UNL     1      10.768   5.148  37.278  1.00  0.00    -0.356 OA
ATOM     19  HO  UNL     1      10.397   6.021  37.337  1.00  0.00     0.218 HD
ENDBRANCH   8  18
TORSDOF 3
