MODEL 1
REMARK VINA RESULT:      -6.5      0.000      0.000
REMARK  2 active torsions:
REMARK  status: ('A' for Active; 'I' for Inactive)
REMARK    1  A    between atoms: C_1  and  O_12 
REMARK    2  A    between atoms: C_4  and  C_5 
ROOT
HETATM    1  C   UNL     1      17.390   8.865  38.221  1.00  0.00     0.006 C 
HETATM    2  C   UNL     1      17.640   8.641  36.817  1.00  0.00     0.251 C 
HETATM    3  C   UNL     1      15.573   6.449  37.880  1.00  0.00    -0.008 C 
HETATM    4  C   UNL     1      17.545  10.262  38.763  1.00  0.00     0.054 C 
HETATM    5  C   UNL     1      16.018   6.853  36.636  1.00  0.00     0.103 C 
HETATM    6  C   UNL     1      16.277   6.773  39.016  1.00  0.00     0.014 C 
HETATM    7  C   UNL     1      17.150   7.831  39.091  1.00  0.00     0.013 C 
HETATM    8  N   UNL     1      17.036   7.592  36.209  1.00  0.00    -0.332 N 
ATOM      9  HN  UNL     1      17.414   7.335  35.297  1.00  0.00     0.168 HD
HETATM   10  O   UNL     1      18.452   9.356  36.197  1.00  0.00    -0.268 OA
ENDROOT
BRANCH   3  11
HETATM   11  C   UNL     1      14.372   5.592  37.905  1.00  0.00     0.009 C 
HETATM   12  C   UNL     1      13.088   6.148  37.750  1.00  0.00     0.076 C 
HETATM   13  C   UNL     1      12.125   5.416  37.056  1.00  0.00     0.037 C 
HETATM   14  C   UNL     1      12.205   4.031  37.137  1.00  0.00     0.003 C 
HETATM   15  C   UNL     1      13.339   3.418  37.661  1.00  0.00     0.001 C 
HETATM   16  C   UNL     1      14.449   4.196  37.990  1.00  0.00     0.015 C 
BRANCH  12  17
HETATM   17  O   UNL     1      12.810   7.350  38.302  1.00  0.00    -0.360 OA
ATOM     18  HO  UNL     1      11.905   7.605  38.441  1.00  0.00     0.217 HD
ENDBRANCH  12  17
ENDBRANCH   3  11
TORSDOF 2
ENDMDL
MODEL 2
REMARK VINA RESULT:      -6.3      1.205      1.374
REMARK  2 active torsions:
REMARK  status: ('A' for Active; 'I' for Inactive)
REMARK    1  A    between atoms: C_1  and  O_12 
REMARK    2  A    between atoms: C_4  and  C_5 
ROOT
HETATM    1  C   UNL     1      16.449   8.219  38.409  1.00  0.00     0.006 C 
HETATM    2  C   UNL     1      16.125   8.718  37.095  1.00  0.00     0.251 C 
HETATM    3  C   UNL     1      14.429   6.071  37.662  1.00  0.00    -0.008 C 
HETATM    4  C   UNL     1      16.924   9.198  39.451  1.00  0.00     0.054 C 
HETATM    5  C   UNL     1      14.402   7.064  36.702  1.00  0.00     0.103 C 
HETATM    6  C   UNL     1      15.538   5.892  38.454  1.00  0.00     0.014 C 
HETATM    7  C   UNL     1      16.466   6.877  38.694  1.00  0.00     0.013 C 
HETATM    8  N   UNL     1      15.242   8.025  36.336  1.00  0.00    -0.332 N 
ATOM      9  HN  UNL     1      15.220   8.276  35.347  1.00  0.00     0.168 HD
HETATM   10  O   UNL     1      16.701   9.728  36.641  1.00  0.00    -0.268 OA
ENDROOT
BRANCH   3  11
HETATM   11  C   UNL     1      13.256   5.178  37.721  1.00  0.00     0.009 C 
HETATM   12  C   UNL     1      11.949   5.705  37.727  1.00  0.00     0.076 C 
HETATM   13  C   UNL     1      10.946   5.002  37.061  1.00  0.00     0.037 C 
HETATM   14  C   UNL     1      11.066   3.618  37.020  1.00  0.00     0.003 C 
HETATM   15  C   UNL     1      12.257   3.000  37.390  1.00  0.00     0.001 C 
HETATM   16  C   UNL     1      13.373   3.783  37.683  1.00  0.00     0.015 C 
BRANCH  12  17
HETATM   17  O   UNL     1      11.694   6.850  38.399  1.00  0.00    -0.360 OA
ATOM     18  HO  UNL     1      12.415   7.413  38.656  1.00  0.00     0.217 HD
ENDBRANCH  12  17
ENDBRANCH   3  11
TORSDOF 2
ENDMDL
MODEL 3
REMARK VINA RESULT:      -5.9      1.663      2.117
REMARK  2 active torsions:
REMARK  status: ('A' for Active; 'I' for Inactive)
REMARK    1  A    between atoms: C_1  and  O_12 
REMARK    2  A    between atoms: C_4  and  C_5 
ROOT
HETATM    1  C   UNL     1      15.399   8.667  36.512  1.00  0.00     0.006 C 
HETATM    2  C   UNL     1      16.540   7.799  36.673  1.00  0.00     0.251 C 
HETATM    3  C   UNL     1      13.899   6.244  37.577  1.00  0.00    -0.008 C 
HETATM    4  C   UNL     1      15.465   9.753  35.470  1.00  0.00     0.054 C 
HETATM    5  C   UNL     1      15.209   5.885  37.325  1.00  0.00     0.103 C 
HETATM    6  C   UNL     1      13.563   7.559  37.796  1.00  0.00     0.014 C 
HETATM    7  C   UNL     1      14.322   8.619  37.362  1.00  0.00     0.013 C 
HETATM    8  N   UNL     1      16.345   6.557  37.178  1.00  0.00    -0.332 N 
ATOM      9  HN  UNL     1      17.187   6.072  37.490  1.00  0.00     0.168 HD
HETATM   10  O   UNL     1      17.690   8.210  36.418  1.00  0.00    -0.268 OA
ENDROOT
BRANCH   3  11
HETATM   11  C   UNL     1      12.922   5.144  37.683  1.00  0.00     0.009 C 
HETATM   12  C   UNL     1      11.538   5.407  37.666  1.00  0.00     0.076 C 
HETATM   13  C   UNL     1      10.694   4.491  37.038  1.00  0.00     0.037 C 
HETATM   14  C   UNL     1      11.081   3.157  37.063  1.00  0.00     0.003 C 
HETATM   15  C   UNL     1      12.367   2.800  37.460  1.00  0.00     0.001 C 
HETATM   16  C   UNL     1      13.307   3.798  37.712  1.00  0.00     0.015 C 
BRANCH  12  17
HETATM   17  O   UNL     1      11.061   6.511  38.283  1.00  0.00    -0.360 OA
ATOM     18  HO  UNL     1      11.343   6.712  39.168  1.00  0.00     0.217 HD
ENDBRANCH  12  17
ENDBRANCH   3  11
TORSDOF 2
ENDMDL
MODEL 4
REMARK VINA RESULT:      -5.7      3.339      5.822
REMARK  2 active torsions:
REMARK  status: ('A' for Active; 'I' for Inactive)
REMARK    1  A    between atoms: C_1  and  O_12 
REMARK    2  A    between atoms: C_4  and  C_5 
ROOT
HETATM    1  C   UNL     1       9.458   8.809  37.253  1.00  0.00     0.006 C 
HETATM    2  C   UNL     1       9.598   8.881  38.687  1.00  0.00     0.251 C 
HETATM    3  C   UNL     1      11.517   6.591  37.558  1.00  0.00    -0.008 C 
HETATM    4  C   UNL     1       9.040  10.050  36.509  1.00  0.00     0.054 C 
HETATM    5  C   UNL     1      11.370   7.235  38.771  1.00  0.00     0.103 C 
HETATM    6  C   UNL     1      10.519   6.638  36.614  1.00  0.00     0.014 C 
HETATM    7  C   UNL     1       9.561   7.622  36.571  1.00  0.00     0.013 C 
HETATM    8  N   UNL     1      10.432   8.011  39.303  1.00  0.00    -0.332 N 
ATOM      9  HN  UNL     1      10.326   7.941  40.316  1.00  0.00     0.168 HD
HETATM   10  O   UNL     1       8.909   9.683  39.351  1.00  0.00    -0.268 OA
ENDROOT
BRANCH   3  11
HETATM   11  C   UNL     1      12.746   5.793  37.379  1.00  0.00     0.009 C 
HETATM   12  C   UNL     1      13.972   6.418  37.080  1.00  0.00     0.076 C 
HETATM   13  C   UNL     1      15.141   5.883  37.620  1.00  0.00     0.037 C 
HETATM   14  C   UNL     1      15.168   4.509  37.827  1.00  0.00     0.003 C 
HETATM   15  C   UNL     1      13.999   3.758  37.748  1.00  0.00     0.001 C 
HETATM   16  C   UNL     1      12.777   4.408  37.583  1.00  0.00     0.015 C 
BRANCH  12  17
HETATM   17  O   UNL     1      13.991   7.490  36.256  1.00  0.00    -0.360 OA
ATOM     18  HO  UNL     1      13.282   8.121  36.291  1.00  0.00     0.217 HD
ENDBRANCH  12  17
ENDBRANCH   3  11
TORSDOF 2
ENDMDL
MODEL 5
REMARK VINA RESULT:      -5.6      2.075      5.654
REMARK  2 active torsions:
REMARK  status: ('A' for Active; 'I' for Inactive)
REMARK    1  A    between atoms: C_1  and  O_12 
REMARK    2  A    between atoms: C_4  and  C_5 
ROOT
HETATM    1  C   UNL     1      12.886   4.303  37.544  1.00  0.00     0.006 C 
HETATM    2  C   UNL     1      11.832   5.279  37.415  1.00  0.00     0.251 C 
HETATM    3  C   UNL     1      14.647   6.784  37.538  1.00  0.00    -0.008 C 
HETATM    4  C   UNL     1      12.654   2.919  36.998  1.00  0.00     0.054 C 
HETATM    5  C   UNL     1      13.352   7.153  37.229  1.00  0.00     0.103 C 
HETATM    6  C   UNL     1      14.899   5.620  38.226  1.00  0.00     0.014 C 
HETATM    7  C   UNL     1      14.029   4.557  38.262  1.00  0.00     0.013 C 
HETATM    8  N   UNL     1      12.160   6.593  37.401  1.00  0.00    -0.332 N 
ATOM      9  HN  UNL     1      11.386   7.242  37.542  1.00  0.00     0.168 HD
HETATM   10  O   UNL     1      10.637   4.920  37.388  1.00  0.00    -0.268 OA
ENDROOT
BRANCH   3  11
HETATM   11  C   UNL     1      15.711   7.738  37.173  1.00  0.00     0.009 C 
HETATM   12  C   UNL     1      16.069   8.785  38.044  1.00  0.00     0.076 C 
HETATM   13  C   UNL     1      17.409   9.167  38.111  1.00  0.00     0.037 C 
HETATM   14  C   UNL     1      18.163   9.027  36.952  1.00  0.00     0.003 C 
HETATM   15  C   UNL     1      17.673   8.298  35.873  1.00  0.00     0.001 C 
HETATM   16  C   UNL     1      16.472   7.603  36.005  1.00  0.00     0.015 C 
BRANCH  12  17
HETATM   17  O   UNL     1      15.111   9.413  38.762  1.00  0.00    -0.360 OA
ATOM     18  HO  UNL     1      14.806  10.270  38.488  1.00  0.00     0.217 HD
ENDBRANCH  12  17
ENDBRANCH   3  11
TORSDOF 2
ENDMDL
MODEL 6
REMARK VINA RESULT:      -5.5      1.429      1.862
REMARK  2 active torsions:
REMARK  status: ('A' for Active; 'I' for Inactive)
REMARK    1  A    between atoms: C_1  and  O_12 
REMARK    2  A    between atoms: C_4  and  C_5 
ROOT
HETATM    1  C   UNL     1      17.713   9.133  38.987  1.00  0.00     0.006 C 
HETATM    2  C   UNL     1      18.120   9.249  37.607  1.00  0.00     0.251 C 
HETATM    3  C   UNL     1      15.895   6.971  37.857  1.00  0.00    -0.008 C 
HETATM    4  C   UNL     1      17.834  10.344  39.875  1.00  0.00     0.054 C 
HETATM    5  C   UNL     1      16.492   7.646  36.810  1.00  0.00     0.103 C 
HETATM    6  C   UNL     1      16.468   6.969  39.108  1.00  0.00     0.014 C 
HETATM    7  C   UNL     1      17.350   7.930  39.539  1.00  0.00     0.013 C 
HETATM    8  N   UNL     1      17.568   8.415  36.694  1.00  0.00    -0.332 N 
ATOM      9  HN  UNL     1      18.045   8.372  35.793  1.00  0.00     0.168 HD
HETATM   10  O   UNL     1      19.015  10.054  37.277  1.00  0.00    -0.268 OA
ENDROOT
BRANCH   3  11
HETATM   11  C   UNL     1      14.681   6.196  37.537  1.00  0.00     0.009 C 
HETATM   12  C   UNL     1      14.651   4.799  37.715  1.00  0.00     0.076 C 
HETATM   13  C   UNL     1      13.462   4.208  38.140  1.00  0.00     0.037 C 
HETATM   14  C   UNL     1      12.277   4.818  37.745  1.00  0.00     0.003 C 
HETATM   15  C   UNL     1      12.290   6.091  37.184  1.00  0.00     0.001 C 
HETATM   16  C   UNL     1      13.486   6.806  37.135  1.00  0.00     0.015 C 
BRANCH  12  17
HETATM   17  O   UNL     1      15.753   4.067  37.437  1.00  0.00    -0.360 OA
ATOM     18  HO  UNL     1      15.904   3.253  37.902  1.00  0.00     0.217 HD
ENDBRANCH  12  17
ENDBRANCH   3  11
TORSDOF 2
ENDMDL
MODEL 7
REMARK VINA RESULT:      -5.5      3.781      5.856
REMARK  2 active torsions:
REMARK  status: ('A' for Active; 'I' for Inactive)
REMARK    1  A    between atoms: C_1  and  O_12 
REMARK    2  A    between atoms: C_4  and  C_5 
ROOT
HETATM    1  C   UNL     1       9.123   8.831  38.808  1.00  0.00     0.006 C 
HETATM    2  C   UNL     1       9.036   9.226  37.423  1.00  0.00     0.251 C 
HETATM    3  C   UNL     1      11.235   6.929  37.723  1.00  0.00    -0.008 C 
HETATM    4  C   UNL     1       7.908   9.003  39.681  1.00  0.00     0.054 C 
HETATM    5  C   UNL     1      10.592   7.536  36.662  1.00  0.00     0.103 C 
HETATM    6  C   UNL     1      11.242   7.516  38.967  1.00  0.00     0.014 C 
HETATM    7  C   UNL     1      10.307   8.434  39.377  1.00  0.00     0.013 C 
HETATM    8  N   UNL     1       9.860   8.636  36.525  1.00  0.00    -0.332 N 
ATOM      9  HN  UNL     1       9.930   9.101  35.619  1.00  0.00     0.168 HD
HETATM   10  O   UNL     1       8.266  10.144  37.074  1.00  0.00    -0.268 OA
ENDROOT
BRANCH   3  11
HETATM   11  C   UNL     1      11.971   5.685  37.425  1.00  0.00     0.009 C 
HETATM   12  C   UNL     1      13.373   5.693  37.294  1.00  0.00     0.076 C 
HETATM   13  C   UNL     1      14.091   4.588  37.752  1.00  0.00     0.037 C 
HETATM   14  C   UNL     1      13.459   3.352  37.681  1.00  0.00     0.003 C 
HETATM   15  C   UNL     1      12.095   3.270  37.417  1.00  0.00     0.001 C 
HETATM   16  C   UNL     1      11.338   4.438  37.349  1.00  0.00     0.015 C 
BRANCH  12  17
HETATM   17  O   UNL     1      13.983   6.745  36.703  1.00  0.00    -0.360 OA
ATOM     18  HO  UNL     1      14.879   6.658  36.400  1.00  0.00     0.217 HD
ENDBRANCH  12  17
ENDBRANCH   3  11
TORSDOF 2
ENDMDL
MODEL 8
REMARK VINA RESULT:      -5.5      2.366      5.890
REMARK  2 active torsions:
REMARK  status: ('A' for Active; 'I' for Inactive)
REMARK    1  A    between atoms: C_1  and  O_12 
REMARK    2  A    between atoms: C_4  and  C_5 
ROOT
HETATM    1  C   UNL     1      11.398   5.636  37.060  1.00  0.00     0.006 C 
HETATM    2  C   UNL     1      10.765   6.800  37.632  1.00  0.00     0.251 C 
HETATM    3  C   UNL     1      13.927   7.248  37.568  1.00  0.00    -0.008 C 
HETATM    4  C   UNL     1      10.611   4.795  36.090  1.00  0.00     0.054 C 
HETATM    5  C   UNL     1      12.829   8.052  37.805  1.00  0.00     0.103 C 
HETATM    6  C   UNL     1      13.820   5.879  37.629  1.00  0.00     0.014 C 
HETATM    7  C   UNL     1      12.634   5.204  37.473  1.00  0.00     0.013 C 
HETATM    8  N   UNL     1      11.546   7.821  38.058  1.00  0.00    -0.332 N 
ATOM      9  HN  UNL     1      11.086   8.507  38.657  1.00  0.00     0.168 HD
HETATM   10  O   UNL     1       9.528   6.833  37.795  1.00  0.00    -0.268 OA
ENDROOT
BRANCH   3  11
HETATM   11  C   UNL     1      15.212   7.936  37.340  1.00  0.00     0.009 C 
HETATM   12  C   UNL     1      15.351   8.878  36.301  1.00  0.00     0.076 C 
HETATM   13  C   UNL     1      16.168   9.987  36.513  1.00  0.00     0.037 C 
HETATM   14  C   UNL     1      17.260   9.815  37.356  1.00  0.00     0.003 C 
HETATM   15  C   UNL     1      17.370   8.675  38.146  1.00  0.00     0.001 C 
HETATM   16  C   UNL     1      16.317   7.763  38.184  1.00  0.00     0.015 C 
BRANCH  12  17
HETATM   17  O   UNL     1      14.722   8.668  35.123  1.00  0.00    -0.360 OA
ATOM     18  HO  UNL     1      15.235   8.536  34.335  1.00  0.00     0.217 HD
ENDBRANCH  12  17
ENDBRANCH   3  11
TORSDOF 2
ENDMDL
MODEL 9
REMARK VINA RESULT:      -5.4      2.191      2.861
REMARK  2 active torsions:
REMARK  status: ('A' for Active; 'I' for Inactive)
REMARK    1  A    between atoms: C_1  and  O_12 
REMARK    2  A    between atoms: C_4  and  C_5 
ROOT
HETATM    1  C   UNL     1      18.790   9.187  38.169  1.00  0.00     0.006 C 
HETATM    2  C   UNL     1      18.795   8.781  39.553  1.00  0.00     0.251 C 
HETATM    3  C   UNL     1      16.131   7.709  38.153  1.00  0.00    -0.008 C 
HETATM    4  C   UNL     1      20.112   9.415  37.483  1.00  0.00     0.054 C 
HETATM    5  C   UNL     1      16.766   7.477  39.358  1.00  0.00     0.103 C 
HETATM    6  C   UNL     1      16.440   8.818  37.401  1.00  0.00     0.014 C 
HETATM    7  C   UNL     1      17.629   9.499  37.507  1.00  0.00     0.013 C 
HETATM    8  N   UNL     1      17.735   8.087  40.031  1.00  0.00    -0.332 N 
ATOM      9  HN  UNL     1      17.671   8.025  41.047  1.00  0.00     0.168 HD
HETATM   10  O   UNL     1      19.726   9.124  40.310  1.00  0.00    -0.268 OA
ENDROOT
BRANCH   3  11
HETATM   11  C   UNL     1      15.063   6.765  37.776  1.00  0.00     0.009 C 
HETATM   12  C   UNL     1      15.325   5.385  37.672  1.00  0.00     0.076 C 
HETATM   13  C   UNL     1      14.330   4.487  38.058  1.00  0.00     0.037 C 
HETATM   14  C   UNL     1      13.012   4.892  37.883  1.00  0.00     0.003 C 
HETATM   15  C   UNL     1      12.714   6.219  37.588  1.00  0.00     0.001 C 
HETATM   16  C   UNL     1      13.734   7.169  37.594  1.00  0.00     0.015 C 
BRANCH  12  17
HETATM   17  O   UNL     1      16.510   4.967  37.173  1.00  0.00    -0.360 OA
ATOM     18  HO  UNL     1      16.932   4.202  37.546  1.00  0.00     0.217 HD
ENDBRANCH  12  17
ENDBRANCH   3  11
TORSDOF 2
ENDMDL
