REMARK  3 active torsions:
REMARK  status: ('A' for Active; 'I' for Inactive)
REMARK    1  A    between atoms: C_1  and  O_3 
REMARK    2  A    between atoms: C_1  and  C_12 
REMARK    3  A    between atoms: C_12  and  N_14 
ROOT
HETATM    1  C   UNL     1       6.203 -14.761 -13.404  1.00  0.00     0.254 C 
HETATM    2  O   UNL     1       7.029 -15.574 -13.767  1.00  0.00    -0.267 OA
HETATM    3  C   UNL     1       4.248 -13.515  -9.681  1.00  0.00     0.001 C 
HETATM    4  C   UNL     1       3.930 -13.203 -11.012  1.00  0.00     0.010 C 
HETATM    5  C   UNL     1       4.869 -13.426 -12.042  1.00  0.00    -0.025 C 
HETATM    6  C   UNL     1       6.669 -14.255  -9.655  1.00  0.00     0.001 C 
HETATM    7  C   UNL     1       5.947 -14.380 -11.998  1.00  0.00     0.040 C 
HETATM    8  C   UNL     1       5.468 -13.799  -9.113  1.00  0.00     0.000 C 
HETATM    9  N   UNL     1       5.274 -14.181 -14.209  1.00  0.00    -0.341 N 
HETATM   10  C   UNL     1       6.912 -14.576 -10.993  1.00  0.00     0.017 C 
HETATM   11  C   UNL     1       4.556 -13.127 -13.485  1.00  0.00     0.165 C 
ENDROOT
BRANCH   9  12
HETATM   12  C   UNL     1       5.014 -14.574 -15.582  1.00  0.00     0.157 C 
BRANCH  12  13
HETATM   13  C   UNL     1       3.523 -14.833 -15.826  1.00  0.00     0.132 C 
HETATM   14  C   UNL     1       3.298 -15.267 -17.266  1.00  0.00     0.041 C 
BRANCH  13  15
HETATM   15  O   UNL     1       2.751 -13.668 -15.553  1.00  0.00    -0.394 OA
ATOM     16  HO  UNL     1       2.892 -13.397 -14.653  1.00  0.00     0.210 HD
ENDBRANCH  13  15
ENDBRANCH  12  13
ENDBRANCH   9  12
TORSDOF 3
