REMARK  2 active torsions:
REMARK  status: ('A' for Active; 'I' for Inactive)
REMARK    1  A    between atoms: C_1  and  N_5 
REMARK    2  A    between atoms: O_2  and  C_13 
ROOT
HETATM    1  N   UNL     1       4.825 -12.608 -12.313  1.00  0.00    -0.343 N 
HETATM    2  C   UNL     1       5.524 -13.573  -9.475  1.00  0.00     0.251 C 
HETATM    3  N   UNL     1       4.319 -13.322 -10.020  1.00  0.00    -0.321 N 
ATOM      4  HN  UNL     1       3.524 -13.826  -9.627  1.00  0.00     0.169 HD
HETATM    5  C   UNL     1       4.038 -12.410 -11.106  1.00  0.00     0.186 C 
HETATM    6  C   UNL     1       6.276 -12.750 -12.155  1.00  0.00     0.133 C 
HETATM    7  C   UNL     1       6.474 -14.492 -10.245  1.00  0.00     0.211 C 
HETATM    8  C   UNL     1       6.612 -14.171 -11.734  1.00  0.00     0.061 C 
HETATM    9  O   UNL     1       5.803 -13.132  -8.364  1.00  0.00    -0.270 OA
ENDROOT
BRANCH   1  10
HETATM   10  C   UNL     1       4.226 -12.622 -13.569  1.00  0.00     0.035 C 
HETATM   11  C   UNL     1       2.839 -12.620 -13.751  1.00  0.00     0.029 C 
HETATM   12  C   UNL     1       2.290 -13.381 -14.782  1.00  0.00     0.002 C 
HETATM   13  C   UNL     1       3.108 -13.896 -15.777  1.00  0.00     0.000 C 
HETATM   14  C   UNL     1       4.458 -13.547 -15.792  1.00  0.00     0.002 C 
HETATM   15  C   UNL     1       4.999 -12.823 -14.725  1.00  0.00     0.029 C 
ENDBRANCH   1  10
BRANCH   7  16
HETATM   16  O   UNL     1       7.745 -14.344  -9.618  1.00  0.00    -0.386 OA
ATOM     17  HO  UNL     1       8.335 -14.915 -10.096  1.00  0.00     0.210 HD
ENDBRANCH   7  16
TORSDOF 2
