MODEL 1
REMARK VINA RESULT:      -6.6      0.000      0.000
REMARK  1 active torsions:
REMARK  status: ('A' for Active; 'I' for Inactive)
REMARK    1  A    between atoms: C_1  and  O_6 
ROOT
HETATM    1  C   UNL     1      50.593  66.583 -57.542  1.00  0.00     0.136 C 
HETATM    2  C   UNL     1      50.452  65.446 -58.577  1.00  0.00     0.107 C 
HETATM    3  C   UNL     1      52.856  67.136 -58.352  1.00  0.00     0.129 C 
HETATM    4  C   UNL     1      51.147  64.340 -57.792  1.00  0.00     0.017 C 
HETATM    5  C   UNL     1      51.406  65.643 -59.767  1.00  0.00     0.224 C 
HETATM    6  O   UNL     1      51.338  64.941 -60.751  1.00  0.00    -0.273 OA
HETATM    7  N   UNL     1      52.493  66.448 -59.598  1.00  0.00    -0.360 N 
ATOM      8  HN  UNL     1      53.104  66.584 -60.404  1.00  0.00     0.162 HD
HETATM    9  C   UNL     1      52.308  65.031 -57.067  1.00  0.00     0.010 C 
HETATM   10  C   UNL     1      52.084  66.543 -57.158  1.00  0.00     0.033 C 
ENDROOT
BRANCH   1  11
HETATM   11  O   UNL     1      50.162  67.879 -57.928  1.00  0.00    -0.394 OA
ATOM     12  HO  UNL     1      49.954  68.497 -57.236  1.00  0.00     0.210 HD
ENDBRANCH   1  11
TORSDOF 1
ENDMDL
MODEL 2
REMARK VINA RESULT:      -6.0      1.611      2.040
REMARK  1 active torsions:
REMARK  status: ('A' for Active; 'I' for Inactive)
REMARK    1  A    between atoms: C_1  and  O_6 
ROOT
HETATM    1  C   UNL     1      51.051  66.777 -57.484  1.00  0.00     0.136 C 
HETATM    2  C   UNL     1      50.782  65.390 -56.862  1.00  0.00     0.107 C 
HETATM    3  C   UNL     1      51.569  65.774 -59.677  1.00  0.00     0.129 C 
HETATM    4  C   UNL     1      52.217  65.022 -56.503  1.00  0.00     0.017 C 
HETATM    5  C   UNL     1      50.442  64.345 -57.939  1.00  0.00     0.224 C 
HETATM    6  O   UNL     1      50.054  63.237 -57.641  1.00  0.00    -0.273 OA
HETATM    7  N   UNL     1      50.825  64.591 -59.223  1.00  0.00    -0.360 N 
ATOM      8  HN  UNL     1      50.575  63.897 -59.928  1.00  0.00     0.162 HD
HETATM    9  C   UNL     1      53.070  65.566 -57.655  1.00  0.00     0.010 C 
HETATM   10  C   UNL     1      52.196  66.515 -58.479  1.00  0.00     0.033 C 
ENDROOT
BRANCH   1  11
HETATM   11  O   UNL     1      49.954  67.454 -58.076  1.00  0.00    -0.394 OA
ATOM     12  HO  UNL     1      49.888  67.440 -59.024  1.00  0.00     0.210 HD
ENDBRANCH   1  11
TORSDOF 1
ENDMDL
MODEL 3
REMARK VINA RESULT:      -5.6      1.841      2.625
REMARK  1 active torsions:
REMARK  status: ('A' for Active; 'I' for Inactive)
REMARK    1  A    between atoms: C_1  and  O_6 
ROOT
HETATM    1  C   UNL     1      51.433  64.974 -56.583  1.00  0.00     0.136 C 
HETATM    2  C   UNL     1      50.326  65.884 -57.160  1.00  0.00     0.107 C 
HETATM    3  C   UNL     1      53.204  66.434 -57.486  1.00  0.00     0.129 C 
HETATM    4  C   UNL     1      50.270  65.305 -58.569  1.00  0.00     0.017 C 
HETATM    5  C   UNL     1      50.845  67.308 -57.419  1.00  0.00     0.224 C 
HETATM    6  O   UNL     1      50.093  68.206 -57.727  1.00  0.00    -0.273 OA
HETATM    7  N   UNL     1      52.189  67.494 -57.548  1.00  0.00    -0.360 N 
ATOM      8  HN  UNL     1      52.518  68.448 -57.699  1.00  0.00     0.162 HD
HETATM    9  C   UNL     1      51.724  64.978 -58.926  1.00  0.00     0.010 C 
HETATM   10  C   UNL     1      52.550  65.046 -57.639  1.00  0.00     0.033 C 
ENDROOT
BRANCH   1  11
HETATM   11  O   UNL     1      51.897  65.255 -55.273  1.00  0.00    -0.394 OA
ATOM     12  HO  UNL     1      52.812  65.081 -55.084  1.00  0.00     0.210 HD
ENDBRANCH   1  11
TORSDOF 1
ENDMDL
MODEL 4
REMARK VINA RESULT:      -5.5      1.378      3.011
REMARK  1 active torsions:
REMARK  status: ('A' for Active; 'I' for Inactive)
REMARK    1  A    between atoms: C_1  and  O_6 
ROOT
HETATM    1  C   UNL     1      51.789  65.528 -59.431  1.00  0.00     0.136 C 
HETATM    2  C   UNL     1      52.277  66.786 -58.680  1.00  0.00     0.107 C 
HETATM    3  C   UNL     1      50.151  65.018 -57.659  1.00  0.00     0.129 C 
HETATM    4  C   UNL     1      53.287  66.118 -57.755  1.00  0.00     0.017 C 
HETATM    5  C   UNL     1      51.220  67.296 -57.687  1.00  0.00     0.224 C 
HETATM    6  O   UNL     1      51.353  68.355 -57.114  1.00  0.00    -0.273 OA
HETATM    7  N   UNL     1      50.257  66.429 -57.264  1.00  0.00    -0.360 N 
ATOM      8  HN  UNL     1      49.552  66.790 -56.621  1.00  0.00     0.162 HD
HETATM    9  C   UNL     1      52.649  64.780 -57.363  1.00  0.00     0.010 C 
HETATM   10  C   UNL     1      51.465  64.533 -58.302  1.00  0.00     0.033 C 
ENDROOT
BRANCH   1  11
HETATM   11  O   UNL     1      50.718  65.685 -60.348  1.00  0.00    -0.394 OA
ATOM     12  HO  UNL     1      49.851  65.834 -59.988  1.00  0.00     0.210 HD
ENDBRANCH   1  11
TORSDOF 1
ENDMDL
MODEL 5
REMARK VINA RESULT:      -5.4      1.889      2.404
REMARK  1 active torsions:
REMARK  status: ('A' for Active; 'I' for Inactive)
REMARK    1  A    between atoms: C_1  and  O_6 
ROOT
HETATM    1  C   UNL     1      50.325  66.170 -58.263  1.00  0.00     0.136 C 
HETATM    2  C   UNL     1      51.742  65.999 -58.852  1.00  0.00     0.107 C 
HETATM    3  C   UNL     1      51.110  65.554 -56.008  1.00  0.00     0.129 C 
HETATM    4  C   UNL     1      51.702  64.497 -59.104  1.00  0.00     0.017 C 
HETATM    5  C   UNL     1      52.823  66.114 -57.764  1.00  0.00     0.224 C 
HETATM    6  O   UNL     1      54.000  66.159 -58.048  1.00  0.00    -0.273 OA
HETATM    7  N   UNL     1      52.460  65.907 -56.467  1.00  0.00    -0.360 N 
ATOM      8  HN  UNL     1      53.186  66.007 -55.756  1.00  0.00     0.162 HD
HETATM    9  C   UNL     1      50.924  63.912 -57.919  1.00  0.00     0.010 C 
HETATM   10  C   UNL     1      50.243  65.072 -57.187  1.00  0.00     0.033 C 
ENDROOT
BRANCH   1  11
HETATM   11  O   UNL     1      49.970  67.451 -57.767  1.00  0.00    -0.394 OA
ATOM     12  HO  UNL     1      50.317  68.209 -58.221  1.00  0.00     0.210 HD
ENDBRANCH   1  11
TORSDOF 1
ENDMDL
MODEL 6
REMARK VINA RESULT:      -5.4      1.620      2.833
REMARK  1 active torsions:
REMARK  status: ('A' for Active; 'I' for Inactive)
REMARK    1  A    between atoms: C_1  and  O_6 
ROOT
HETATM    1  C   UNL     1      52.368  65.013 -57.262  1.00  0.00     0.136 C 
HETATM    2  C   UNL     1      51.336  66.036 -56.740  1.00  0.00     0.107 C 
HETATM    3  C   UNL     1      51.271  64.925 -59.469  1.00  0.00     0.129 C 
HETATM    4  C   UNL     1      50.248  65.059 -56.308  1.00  0.00     0.017 C 
HETATM    5  C   UNL     1      50.652  66.788 -57.894  1.00  0.00     0.224 C 
HETATM    6  O   UNL     1      49.924  67.734 -57.687  1.00  0.00    -0.273 OA
HETATM    7  N   UNL     1      50.669  66.223 -59.135  1.00  0.00    -0.360 N 
ATOM      8  HN  UNL     1      50.229  66.744 -59.893  1.00  0.00     0.162 HD
HETATM    9  C   UNL     1      50.262  63.951 -57.368  1.00  0.00     0.010 C 
HETATM   10  C   UNL     1      51.542  64.106 -58.192  1.00  0.00     0.033 C 
ENDROOT
BRANCH   1  11
HETATM   11  O   UNL     1      53.537  65.520 -57.886  1.00  0.00    -0.394 OA
ATOM     12  HO  UNL     1      53.779  66.420 -57.700  1.00  0.00     0.210 HD
ENDBRANCH   1  11
TORSDOF 1
ENDMDL
MODEL 7
REMARK VINA RESULT:      -5.3      1.626      2.991
REMARK  1 active torsions:
REMARK  status: ('A' for Active; 'I' for Inactive)
REMARK    1  A    between atoms: C_1  and  O_6 
ROOT
HETATM    1  C   UNL     1      51.674  64.718 -58.581  1.00  0.00     0.136 C 
HETATM    2  C   UNL     1      51.285  66.185 -58.864  1.00  0.00     0.107 C 
HETATM    3  C   UNL     1      51.546  65.081 -56.144  1.00  0.00     0.129 C 
HETATM    4  C   UNL     1      52.670  66.812 -58.751  1.00  0.00     0.017 C 
HETATM    5  C   UNL     1      50.549  66.816 -57.670  1.00  0.00     0.224 C 
HETATM    6  O   UNL     1      50.031  67.908 -57.754  1.00  0.00    -0.273 OA
HETATM    7  N   UNL     1      50.704  66.247 -56.441  1.00  0.00    -0.360 N 
ATOM      8  HN  UNL     1      50.193  66.666 -55.664  1.00  0.00     0.162 HD
HETATM    9  C   UNL     1      53.359  66.057 -57.609  1.00  0.00     0.010 C 
HETATM   10  C   UNL     1      52.527  64.809 -57.302  1.00  0.00     0.033 C 
ENDROOT
BRANCH   1  11
HETATM   11  O   UNL     1      50.624  63.770 -58.473  1.00  0.00    -0.394 OA
ATOM     12  HO  UNL     1      50.855  62.851 -58.538  1.00  0.00     0.210 HD
ENDBRANCH   1  11
TORSDOF 1
ENDMDL
MODEL 8
REMARK VINA RESULT:      -5.2      2.255      3.308
REMARK  1 active torsions:
REMARK  status: ('A' for Active; 'I' for Inactive)
REMARK    1  A    between atoms: C_1  and  O_6 
ROOT
HETATM    1  C   UNL     1      51.123  66.531 -57.877  1.00  0.00     0.136 C 
HETATM    2  C   UNL     1      51.808  66.084 -56.567  1.00  0.00     0.107 C 
HETATM    3  C   UNL     1      49.689  64.525 -57.897  1.00  0.00     0.129 C 
HETATM    4  C   UNL     1      52.869  65.169 -57.168  1.00  0.00     0.017 C 
HETATM    5  C   UNL     1      50.934  65.090 -55.784  1.00  0.00     0.224 C 
HETATM    6  O   UNL     1      51.228  64.740 -54.662  1.00  0.00    -0.273 OA
HETATM    7  N   UNL     1      49.963  64.410 -56.458  1.00  0.00    -0.360 N 
ATOM      8  HN  UNL     1      49.380  63.770 -55.920  1.00  0.00     0.162 HD
HETATM    9  C   UNL     1      52.175  64.469 -58.343  1.00  0.00     0.010 C 
HETATM   10  C   UNL     1      50.864  65.209 -58.622  1.00  0.00     0.033 C 
ENDROOT
BRANCH   1  11
HETATM   11  O   UNL     1      49.960  67.336 -57.767  1.00  0.00    -0.394 OA
ATOM     12  HO  UNL     1      49.264  67.190 -58.398  1.00  0.00     0.210 HD
ENDBRANCH   1  11
TORSDOF 1
ENDMDL
MODEL 9
REMARK VINA RESULT:      -5.2      1.859      2.128
REMARK  1 active torsions:
REMARK  status: ('A' for Active; 'I' for Inactive)
REMARK    1  A    between atoms: C_1  and  O_6 
ROOT
HETATM    1  C   UNL     1      50.630  64.417 -56.532  1.00  0.00     0.136 C 
HETATM    2  C   UNL     1      50.407  64.022 -58.008  1.00  0.00     0.107 C 
HETATM    3  C   UNL     1      50.886  66.795 -57.134  1.00  0.00     0.129 C 
HETATM    4  C   UNL     1      51.866  63.894 -58.431  1.00  0.00     0.017 C 
HETATM    5  C   UNL     1      49.932  65.219 -58.848  1.00  0.00     0.224 C 
HETATM    6  O   UNL     1      49.559  65.078 -59.992  1.00  0.00    -0.273 OA
HETATM    7  N   UNL     1      50.176  66.476 -58.380  1.00  0.00    -0.360 N 
ATOM      8  HN  UNL     1      49.837  67.258 -58.939  1.00  0.00     0.162 HD
HETATM    9  C   UNL     1      52.596  65.021 -57.691  1.00  0.00     0.010 C 
HETATM   10  C   UNL     1      51.654  65.564 -56.614  1.00  0.00     0.033 C 
ENDROOT
BRANCH   1  11
HETATM   11  O   UNL     1      49.487  64.757 -55.763  1.00  0.00    -0.394 OA
ATOM     12  HO  UNL     1      48.670  64.322 -55.977  1.00  0.00     0.210 HD
ENDBRANCH   1  11
TORSDOF 1
ENDMDL
