MODEL 1
REMARK VINA RESULT:     -10.3      0.000      0.000
REMARK  2 active torsions:
REMARK  status: ('A' for Active; 'I' for Inactive)
REMARK    1  A    between atoms: C_24  and  C_26 
REMARK    2  A    between atoms: C_26  and  C_27 
ROOT
HETATM    1  O   UNL     1      42.812  35.247  13.265  1.00  0.00    -0.291 OA
HETATM    2  N   UNL     1      43.254  35.330  17.990  1.00  0.00    -0.368 N 
ATOM      3  HN  UNL     1      42.641  35.078  18.766  1.00  0.00     0.165 HD
HETATM    4  C   UNL     1      44.546  36.211  15.394  1.00  0.00     0.017 C 
HETATM    5  C   UNL     1      43.363  35.545  15.585  1.00  0.00     0.034 A 
HETATM    6  C   UNL     1      45.631  36.299  16.232  1.00  0.00     0.002 C 
HETATM    7  C   UNL     1      44.455  35.776  18.316  1.00  0.00     0.088 C 
HETATM    8  C   UNL     1      45.544  36.145  17.602  1.00  0.00     0.017 C 
HETATM    9  C   UNL     1      42.529  35.114  14.437  1.00  0.00     0.179 A 
HETATM   10  C   UNL     1      42.745  35.170  16.761  1.00  0.00     0.024 A 
HETATM   11  C   UNL     1      41.390  34.566  16.521  1.00  0.00     0.085 A 
HETATM   12  C   UNL     1      41.251  34.503  14.978  1.00  0.00     0.086 A 
ENDROOT
BRANCH  12  13
HETATM   13  C   UNL     1      41.055  33.066  14.551  1.00  0.00     0.015 C 
HETATM   14  C   UNL     1      41.402  31.968  15.512  1.00  0.00     0.099 C 
HETATM   15  C   UNL     1      42.310  31.087  14.717  1.00  0.00     0.027 C 
HETATM   16  C   UNL     1      43.035  30.141  15.391  1.00  0.00     0.026 C 
HETATM   17  N   UNL     1      42.319  31.436  13.390  1.00  0.00    -0.248 N 
HETATM   18  C   UNL     1      43.736  29.044  14.955  1.00  0.00     0.002 C 
HETATM   19  C   UNL     1      44.069  28.879  13.605  1.00  0.00     0.005 C 
HETATM   20  C   UNL     1      43.754  29.672  12.564  1.00  0.00     0.075 C 
HETATM   21  C   UNL     1      42.948  30.771  12.322  1.00  0.00     0.254 C 
HETATM   22  O   UNL     1      42.690  31.117  11.149  1.00  0.00    -0.268 OA
HETATM   23  C   UNL     1      41.538  32.587  13.233  1.00  0.00     0.259 C 
HETATM   24  O   UNL     1      41.255  33.097  12.146  1.00  0.00    -0.267 OA
ENDBRANCH  12  13
BRANCH  12  25
HETATM   25  C   UNL     1      40.020  35.250  14.565  1.00  0.00    -0.037 C 
HETATM   26  C   UNL     1      40.068  36.512  13.984  1.00  0.00     0.009 C 
HETATM   27  C   UNL     1      38.952  36.960  13.278  1.00  0.00     0.001 C 
HETATM   28  C   UNL     1      37.776  36.228  13.275  1.00  0.00     0.000 C 
HETATM   29  C   UNL     1      37.658  35.123  14.099  1.00  0.00     0.001 C 
HETATM   30  C   UNL     1      38.792  34.618  14.724  1.00  0.00     0.009 C 
ENDBRANCH  12  25
TORSDOF 2
ENDMDL
MODEL 2
REMARK VINA RESULT:     -10.2      1.829      5.430
REMARK  2 active torsions:
REMARK  status: ('A' for Active; 'I' for Inactive)
REMARK    1  A    between atoms: C_24  and  C_26 
REMARK    2  A    between atoms: C_26  and  C_27 
ROOT
HETATM    1  O   UNL     1      40.959  33.120  16.480  1.00  0.00    -0.291 OA
HETATM    2  N   UNL     1      42.417  31.644  12.211  1.00  0.00    -0.368 N 
ATOM      3  HN  UNL     1      42.568  32.104  11.313  1.00  0.00     0.165 HD
HETATM    4  C   UNL     1      41.532  30.709  14.955  1.00  0.00     0.017 C 
HETATM    5  C   UNL     1      41.609  31.986  14.463  1.00  0.00     0.034 A 
HETATM    6  C   UNL     1      42.189  29.580  14.528  1.00  0.00     0.002 C 
HETATM    7  C   UNL     1      42.680  30.348  12.256  1.00  0.00     0.088 C 
HETATM    8  C   UNL     1      42.664  29.422  13.240  1.00  0.00     0.017 C 
HETATM    9  C   UNL     1      41.271  33.157  15.308  1.00  0.00     0.179 A 
HETATM   10  C   UNL     1      41.975  32.424  13.206  1.00  0.00     0.024 A 
HETATM   11  C   UNL     1      41.800  33.908  13.051  1.00  0.00     0.085 A 
HETATM   12  C   UNL     1      41.357  34.405  14.451  1.00  0.00     0.086 A 
ENDROOT
BRANCH  12  13
HETATM   13  C   UNL     1      42.361  35.410  14.967  1.00  0.00     0.015 C 
HETATM   14  C   UNL     1      43.697  35.516  14.293  1.00  0.00     0.099 C 
HETATM   15  C   UNL     1      44.665  35.387  15.424  1.00  0.00     0.027 C 
HETATM   16  C   UNL     1      45.979  35.157  15.116  1.00  0.00     0.026 C 
HETATM   17  N   UNL     1      44.035  35.456  16.640  1.00  0.00    -0.248 N 
HETATM   18  C   UNL     1      47.124  35.243  15.870  1.00  0.00     0.002 C 
HETATM   19  C   UNL     1      47.074  35.319  17.267  1.00  0.00     0.005 C 
HETATM   20  C   UNL     1      45.989  35.363  18.063  1.00  0.00     0.075 C 
HETATM   21  C   UNL     1      44.618  35.497  17.919  1.00  0.00     0.254 C 
HETATM   22  O   UNL     1      43.903  35.756  18.910  1.00  0.00    -0.268 OA
HETATM   23  C   UNL     1      42.655  35.523  16.417  1.00  0.00     0.259 C 
HETATM   24  O   UNL     1      41.811  35.699  17.300  1.00  0.00    -0.267 OA
ENDBRANCH  12  13
BRANCH  12  25
HETATM   25  C   UNL     1      40.048  35.125  14.325  1.00  0.00    -0.037 C 
HETATM   26  C   UNL     1      39.946  36.410  13.805  1.00  0.00     0.009 C 
HETATM   27  C   UNL     1      38.700  36.847  13.355  1.00  0.00     0.001 C 
HETATM   28  C   UNL     1      37.567  36.074  13.552  1.00  0.00     0.000 C 
HETATM   29  C   UNL     1      37.645  34.934  14.331  1.00  0.00     0.001 C 
HETATM   30  C   UNL     1      38.894  34.444  14.694  1.00  0.00     0.009 C 
ENDBRANCH  12  25
TORSDOF 2
ENDMDL
MODEL 3
REMARK VINA RESULT:     -10.1      2.285      5.074
REMARK  2 active torsions:
REMARK  status: ('A' for Active; 'I' for Inactive)
REMARK    1  A    between atoms: C_24  and  C_26 
REMARK    2  A    between atoms: C_26  and  C_27 
ROOT
HETATM    1  O   UNL     1      40.379  32.484  16.429  1.00  0.00    -0.291 OA
HETATM    2  N   UNL     1      40.675  36.008  13.263  1.00  0.00    -0.368 N 
ATOM      3  HN  UNL     1      41.450  36.485  12.800  1.00  0.00     0.165 HD
HETATM    4  C   UNL     1      38.778  34.518  15.098  1.00  0.00     0.017 C 
HETATM    5  C   UNL     1      40.129  34.349  14.932  1.00  0.00     0.034 A 
HETATM    6  C   UNL     1      37.869  35.083  14.236  1.00  0.00     0.002 C 
HETATM    7  C   UNL     1      39.460  36.415  12.936  1.00  0.00     0.088 C 
HETATM    8  C   UNL     1      38.214  36.010  13.272  1.00  0.00     0.017 C 
HETATM    9  C   UNL     1      40.869  33.300  15.676  1.00  0.00     0.179 A 
HETATM   10  C   UNL     1      41.010  35.043  14.129  1.00  0.00     0.024 A 
HETATM   11  C   UNL     1      42.433  34.611  14.346  1.00  0.00     0.085 A 
HETATM   12  C   UNL     1      42.344  33.437  15.353  1.00  0.00     0.086 A 
ENDROOT
BRANCH  12  13
HETATM   13  C   UNL     1      42.931  32.193  14.726  1.00  0.00     0.015 C 
HETATM   14  C   UNL     1      43.222  32.188  13.254  1.00  0.00     0.099 C 
HETATM   15  C   UNL     1      42.527  30.957  12.769  1.00  0.00     0.027 C 
HETATM   16  C   UNL     1      42.356  30.811  11.419  1.00  0.00     0.026 C 
HETATM   17  N   UNL     1      42.094  30.176  13.811  1.00  0.00    -0.248 N 
HETATM   18  C   UNL     1      42.006  29.724  10.654  1.00  0.00     0.002 C 
HETATM   19  C   UNL     1      41.455  28.573  11.229  1.00  0.00     0.005 C 
HETATM   20  C   UNL     1      41.224  28.318  12.530  1.00  0.00     0.075 C 
HETATM   21  C   UNL     1      41.514  28.896  13.754  1.00  0.00     0.254 C 
HETATM   22  O   UNL     1      41.359  28.248  14.810  1.00  0.00    -0.268 OA
HETATM   23  C   UNL     1      42.361  30.852  15.007  1.00  0.00     0.259 C 
HETATM   24  O   UNL     1      42.191  30.376  16.133  1.00  0.00    -0.267 OA
ENDBRANCH  12  13
BRANCH  12  25
HETATM   25  C   UNL     1      43.183  33.754  16.553  1.00  0.00    -0.037 C 
HETATM   26  C   UNL     1      44.196  32.915  17.004  1.00  0.00     0.009 C 
HETATM   27  C   UNL     1      45.169  33.446  17.850  1.00  0.00     0.001 C 
HETATM   28  C   UNL     1      45.051  34.736  18.344  1.00  0.00     0.000 C 
HETATM   29  C   UNL     1      43.887  35.449  18.118  1.00  0.00     0.001 C 
HETATM   30  C   UNL     1      42.964  34.967  17.197  1.00  0.00     0.009 C 
ENDBRANCH  12  25
TORSDOF 2
ENDMDL
MODEL 4
REMARK VINA RESULT:      -9.5      2.045      5.667
REMARK  2 active torsions:
REMARK  status: ('A' for Active; 'I' for Inactive)
REMARK    1  A    between atoms: C_24  and  C_26 
REMARK    2  A    between atoms: C_26  and  C_27 
ROOT
HETATM    1  O   UNL     1      40.476  31.775  16.146  1.00  0.00    -0.291 OA
HETATM    2  N   UNL     1      43.782  31.622  12.745  1.00  0.00    -0.368 N 
ATOM      3  HN  UNL     1      44.330  32.328  12.252  1.00  0.00     0.165 HD
HETATM    4  C   UNL     1      41.731  29.968  14.241  1.00  0.00     0.017 C 
HETATM    5  C   UNL     1      42.011  31.305  14.357  1.00  0.00     0.034 A 
HETATM    6  C   UNL     1      42.527  28.960  13.753  1.00  0.00     0.002 C 
HETATM    7  C   UNL     1      44.013  30.364  12.406  1.00  0.00     0.088 C 
HETATM    8  C   UNL     1      43.552  29.174  12.851  1.00  0.00     0.017 C 
HETATM    9  C   UNL     1      41.299  32.157  15.340  1.00  0.00     0.179 A 
HETATM   10  C   UNL     1      42.915  32.078  13.658  1.00  0.00     0.024 A 
HETATM   11  C   UNL     1      42.812  33.533  14.015  1.00  0.00     0.085 A 
HETATM   12  C   UNL     1      41.758  33.590  15.151  1.00  0.00     0.086 A 
ENDROOT
BRANCH  12  13
HETATM   13  C   UNL     1      42.389  34.178  16.392  1.00  0.00     0.015 C 
HETATM   14  C   UNL     1      42.554  35.667  16.488  1.00  0.00     0.099 C 
HETATM   15  C   UNL     1      44.000  35.833  16.824  1.00  0.00     0.027 C 
HETATM   16  C   UNL     1      44.544  37.083  16.702  1.00  0.00     0.026 C 
HETATM   17  N   UNL     1      44.586  34.634  17.146  1.00  0.00    -0.248 N 
HETATM   18  C   UNL     1      45.726  37.615  17.159  1.00  0.00     0.002 C 
HETATM   19  C   UNL     1      46.764  36.798  17.622  1.00  0.00     0.005 C 
HETATM   20  C   UNL     1      46.783  35.457  17.738  1.00  0.00     0.075 C 
HETATM   21  C   UNL     1      45.887  34.407  17.631  1.00  0.00     0.254 C 
HETATM   22  O   UNL     1      46.190  33.273  18.058  1.00  0.00    -0.268 OA
HETATM   23  C   UNL     1      43.644  33.618  16.952  1.00  0.00     0.259 C 
HETATM   24  O   UNL     1      43.819  32.434  17.252  1.00  0.00    -0.267 OA
ENDBRANCH  12  13
BRANCH  12  25
HETATM   25  C   UNL     1      40.650  34.515  14.747  1.00  0.00    -0.037 C 
HETATM   26  C   UNL     1      40.852  35.606  13.909  1.00  0.00     0.009 C 
HETATM   27  C   UNL     1      39.745  36.165  13.271  1.00  0.00     0.001 C 
HETATM   28  C   UNL     1      38.462  35.736  13.574  1.00  0.00     0.000 C 
HETATM   29  C   UNL     1      38.267  34.856  14.622  1.00  0.00     0.001 C 
HETATM   30  C   UNL     1      39.366  34.223  15.191  1.00  0.00     0.009 C 
ENDBRANCH  12  25
TORSDOF 2
ENDMDL
MODEL 5
REMARK VINA RESULT:      -9.2      2.306      6.308
REMARK  2 active torsions:
REMARK  status: ('A' for Active; 'I' for Inactive)
REMARK    1  A    between atoms: C_24  and  C_26 
REMARK    2  A    between atoms: C_26  and  C_27 
ROOT
HETATM    1  O   UNL     1      43.005  35.606  13.894  1.00  0.00    -0.291 OA
HETATM    2  N   UNL     1      38.518  34.472  14.944  1.00  0.00    -0.368 N 
ATOM      3  HN  UNL     1      38.083  33.797  15.574  1.00  0.00     0.165 HD
HETATM    4  C   UNL     1      40.260  36.060  13.040  1.00  0.00     0.017 C 
HETATM    5  C   UNL     1      40.637  35.237  14.070  1.00  0.00     0.034 A 
HETATM    6  C   UNL     1      39.061  36.702  12.844  1.00  0.00     0.002 C 
HETATM    7  C   UNL     1      37.692  35.236  14.247  1.00  0.00     0.088 C 
HETATM    8  C   UNL     1      37.868  36.257  13.378  1.00  0.00     0.017 C 
HETATM    9  C   UNL     1      42.065  35.044  14.418  1.00  0.00     0.179 A 
HETATM   10  C   UNL     1      39.857  34.481  14.921  1.00  0.00     0.024 A 
HETATM   11  C   UNL     1      40.685  33.620  15.832  1.00  0.00     0.085 A 
HETATM   12  C   UNL     1      42.152  34.008  15.521  1.00  0.00     0.086 A 
ENDROOT
BRANCH  12  13
HETATM   13  C   UNL     1      42.809  34.534  16.777  1.00  0.00     0.015 C 
HETATM   14  C   UNL     1      43.183  35.986  16.849  1.00  0.00     0.099 C 
HETATM   15  C   UNL     1      44.623  35.953  17.247  1.00  0.00     0.027 C 
HETATM   16  C   UNL     1      45.345  37.108  17.123  1.00  0.00     0.026 C 
HETATM   17  N   UNL     1      45.015  34.692  17.620  1.00  0.00    -0.248 N 
HETATM   18  C   UNL     1      46.571  37.478  17.622  1.00  0.00     0.002 C 
HETATM   19  C   UNL     1      47.460  36.534  18.149  1.00  0.00     0.005 C 
HETATM   20  C   UNL     1      47.281  35.208  18.294  1.00  0.00     0.075 C 
HETATM   21  C   UNL     1      46.248  34.294  18.168  1.00  0.00     0.254 C 
HETATM   22  O   UNL     1      46.367  33.141  18.633  1.00  0.00    -0.268 OA
HETATM   23  C   UNL     1      43.945  33.816  17.406  1.00  0.00     0.259 C 
HETATM   24  O   UNL     1      43.936  32.628  17.739  1.00  0.00    -0.267 OA
ENDBRANCH  12  13
BRANCH  12  25
HETATM   25  C   UNL     1      42.910  32.780  15.118  1.00  0.00    -0.037 C 
HETATM   26  C   UNL     1      42.391  31.498  15.259  1.00  0.00     0.009 C 
HETATM   27  C   UNL     1      42.962  30.466  14.516  1.00  0.00     0.001 C 
HETATM   28  C   UNL     1      44.106  30.684  13.764  1.00  0.00     0.000 C 
HETATM   29  C   UNL     1      44.772  31.891  13.870  1.00  0.00     0.001 C 
HETATM   30  C   UNL     1      44.157  32.950  14.527  1.00  0.00     0.009 C 
ENDBRANCH  12  25
TORSDOF 2
ENDMDL
MODEL 6
REMARK VINA RESULT:      -8.7      1.598      2.115
REMARK  2 active torsions:
REMARK  status: ('A' for Active; 'I' for Inactive)
REMARK    1  A    between atoms: C_24  and  C_26 
REMARK    2  A    between atoms: C_26  and  C_27 
ROOT
HETATM    1  O   UNL     1      43.482  35.982  13.613  1.00  0.00    -0.291 OA
HETATM    2  N   UNL     1      43.840  34.020  17.920  1.00  0.00    -0.368 N 
ATOM      3  HN  UNL     1      43.384  33.234  18.384  1.00  0.00     0.165 HD
HETATM    4  C   UNL     1      44.661  36.405  16.240  1.00  0.00     0.017 C 
HETATM    5  C   UNL     1      43.856  35.348  15.901  1.00  0.00     0.034 A 
HETATM    6  C   UNL     1      45.612  36.481  17.228  1.00  0.00     0.002 C 
HETATM    7  C   UNL     1      44.752  34.666  18.628  1.00  0.00     0.088 C 
HETATM    8  C   UNL     1      45.593  35.691  18.361  1.00  0.00     0.017 C 
HETATM    9  C   UNL     1      43.276  35.228  14.542  1.00  0.00     0.179 A 
HETATM   10  C   UNL     1      43.445  34.276  16.666  1.00  0.00     0.024 A 
HETATM   11  C   UNL     1      42.459  33.406  15.938  1.00  0.00     0.085 A 
HETATM   12  C   UNL     1      42.362  34.019  14.518  1.00  0.00     0.086 A 
ENDROOT
BRANCH  12  13
HETATM   13  C   UNL     1      42.775  32.985  13.496  1.00  0.00     0.015 C 
HETATM   14  C   UNL     1      41.748  32.017  12.984  1.00  0.00     0.099 C 
HETATM   15  C   UNL     1      42.393  30.686  13.195  1.00  0.00     0.027 C 
HETATM   16  C   UNL     1      41.604  29.572  13.096  1.00  0.00     0.026 C 
HETATM   17  N   UNL     1      43.716  30.813  13.539  1.00  0.00    -0.248 N 
HETATM   18  C   UNL     1      41.915  28.239  12.981  1.00  0.00     0.002 C 
HETATM   19  C   UNL     1      43.204  27.763  13.250  1.00  0.00     0.005 C 
HETATM   20  C   UNL     1      44.297  28.466  13.601  1.00  0.00     0.075 C 
HETATM   21  C   UNL     1      44.673  29.795  13.696  1.00  0.00     0.254 C 
HETATM   22  O   UNL     1      45.878  30.102  13.819  1.00  0.00    -0.268 OA
HETATM   23  C   UNL     1      44.005  32.175  13.679  1.00  0.00     0.259 C 
HETATM   24  O   UNL     1      45.132  32.635  13.880  1.00  0.00    -0.267 OA
ENDBRANCH  12  13
BRANCH  12  25
HETATM   25  C   UNL     1      40.933  34.367  14.230  1.00  0.00    -0.037 C 
HETATM   26  C   UNL     1      39.871  33.836  14.954  1.00  0.00     0.009 C 
HETATM   27  C   UNL     1      38.640  34.490  14.903  1.00  0.00     0.001 C 
HETATM   28  C   UNL     1      38.442  35.557  14.041  1.00  0.00     0.000 C 
HETATM   29  C   UNL     1      39.420  35.881  13.119  1.00  0.00     0.001 C 
HETATM   30  C   UNL     1      40.679  35.302  13.233  1.00  0.00     0.009 C 
ENDBRANCH  12  25
TORSDOF 2
ENDMDL
MODEL 7
REMARK VINA RESULT:      -8.6      3.077      5.558
REMARK  2 active torsions:
REMARK  status: ('A' for Active; 'I' for Inactive)
REMARK    1  A    between atoms: C_24  and  C_26 
REMARK    2  A    between atoms: C_26  and  C_27 
ROOT
HETATM    1  O   UNL     1      45.250  31.541  13.526  1.00  0.00    -0.291 OA
HETATM    2  N   UNL     1      41.060  33.614  14.342  1.00  0.00    -0.368 N 
ATOM      3  HN  UNL     1      40.089  33.346  14.177  1.00  0.00     0.165 HD
HETATM    4  C   UNL     1      44.056  34.070  14.332  1.00  0.00     0.017 C 
HETATM    5  C   UNL     1      43.354  32.945  13.983  1.00  0.00     0.034 A 
HETATM    6  C   UNL     1      43.667  35.113  15.138  1.00  0.00     0.002 C 
HETATM    7  C   UNL     1      41.250  34.789  14.920  1.00  0.00     0.088 C 
HETATM    8  C   UNL     1      42.346  35.457  15.347  1.00  0.00     0.017 C 
HETATM    9  C   UNL     1      44.048  31.706  13.558  1.00  0.00     0.179 A 
HETATM   10  C   UNL     1      41.990  32.735  13.948  1.00  0.00     0.024 A 
HETATM   11  C   UNL     1      41.639  31.388  13.383  1.00  0.00     0.085 A 
HETATM   12  C   UNL     1      43.002  30.689  13.145  1.00  0.00     0.086 A 
ENDROOT
BRANCH  12  13
HETATM   13  C   UNL     1      43.061  29.416  13.958  1.00  0.00     0.015 C 
HETATM   14  C   UNL     1      42.786  28.107  13.278  1.00  0.00     0.099 C 
HETATM   15  C   UNL     1      41.734  27.486  14.139  1.00  0.00     0.027 C 
HETATM   16  C   UNL     1      41.056  26.407  13.639  1.00  0.00     0.026 C 
HETATM   17  N   UNL     1      41.567  28.176  15.313  1.00  0.00    -0.248 N 
HETATM   18  C   UNL     1      40.244  25.478  14.243  1.00  0.00     0.002 C 
HETATM   19  C   UNL     1      39.726  25.684  15.527  1.00  0.00     0.005 C 
HETATM   20  C   UNL     1      39.941  26.722  16.357  1.00  0.00     0.075 C 
HETATM   21  C   UNL     1      40.767  27.832  16.416  1.00  0.00     0.254 C 
HETATM   22  O   UNL     1      40.884  28.474  17.481  1.00  0.00    -0.268 OA
HETATM   23  C   UNL     1      42.381  29.314  15.273  1.00  0.00     0.259 C 
HETATM   24  O   UNL     1      42.544  30.092  16.217  1.00  0.00    -0.267 OA
ENDBRANCH  12  13
BRANCH  12  25
HETATM   25  C   UNL     1      43.104  30.290  11.705  1.00  0.00    -0.037 C 
HETATM   26  C   UNL     1      44.201  29.606  11.192  1.00  0.00     0.009 C 
HETATM   27  C   UNL     1      44.056  28.932   9.980  1.00  0.00     0.001 C 
HETATM   28  C   UNL     1      42.893  29.059   9.235  1.00  0.00     0.000 C 
HETATM   29  C   UNL     1      41.932  29.975   9.621  1.00  0.00     0.001 C 
HETATM   30  C   UNL     1      42.026  30.571  10.873  1.00  0.00     0.009 C 
ENDBRANCH  12  25
TORSDOF 2
ENDMDL
MODEL 8
REMARK VINA RESULT:      -8.5      3.237      6.012
REMARK  2 active torsions:
REMARK  status: ('A' for Active; 'I' for Inactive)
REMARK    1  A    between atoms: C_24  and  C_26 
REMARK    2  A    between atoms: C_26  and  C_27 
ROOT
HETATM    1  O   UNL     1      43.668  33.699  17.704  1.00  0.00    -0.291 OA
HETATM    2  N   UNL     1      42.515  35.606  13.514  1.00  0.00    -0.368 N 
ATOM      3  HN  UNL     1      43.001  36.208  12.848  1.00  0.00     0.165 HD
HETATM    4  C   UNL     1      41.414  34.112  15.910  1.00  0.00     0.017 C 
HETATM    5  C   UNL     1      42.688  34.572  15.691  1.00  0.00     0.034 A 
HETATM    6  C   UNL     1      40.429  33.835  14.993  1.00  0.00     0.002 C 
HETATM    7  C   UNL     1      41.290  35.236  13.179  1.00  0.00     0.088 C 
HETATM    8  C   UNL     1      40.370  34.421  13.744  1.00  0.00     0.017 C 
HETATM    9  C   UNL     1      43.770  34.337  16.677  1.00  0.00     0.179 A 
HETATM   10  C   UNL     1      43.193  35.284  14.623  1.00  0.00     0.024 A 
HETATM   11  C   UNL     1      44.621  35.699  14.844  1.00  0.00     0.085 A 
HETATM   12  C   UNL     1      45.018  35.051  16.195  1.00  0.00     0.086 A 
ENDROOT
BRANCH  12  13
HETATM   13  C   UNL     1      46.187  34.118  15.980  1.00  0.00     0.015 C 
HETATM   14  C   UNL     1      47.448  34.660  15.372  1.00  0.00     0.099 C 
HETATM   15  C   UNL     1      47.714  33.726  14.237  1.00  0.00     0.027 C 
HETATM   16  C   UNL     1      48.638  34.106  13.301  1.00  0.00     0.026 C 
HETATM   17  N   UNL     1      46.899  32.624  14.287  1.00  0.00    -0.248 N 
HETATM   18  C   UNL     1      49.283  33.400  12.315  1.00  0.00     0.002 C 
HETATM   19  C   UNL     1      48.840  32.135  11.912  1.00  0.00     0.005 C 
HETATM   20  C   UNL     1      47.814  31.414  12.402  1.00  0.00     0.075 C 
HETATM   21  C   UNL     1      46.936  31.478  13.471  1.00  0.00     0.254 C 
HETATM   22  O   UNL     1      46.247  30.484  13.781  1.00  0.00    -0.268 OA
HETATM   23  C   UNL     1      46.001  32.789  15.348  1.00  0.00     0.259 C 
HETATM   24  O   UNL     1      45.202  31.929  15.729  1.00  0.00    -0.267 OA
ENDBRANCH  12  13
BRANCH  12  25
HETATM   25  C   UNL     1      45.484  36.121  17.134  1.00  0.00    -0.037 C 
HETATM   26  C   UNL     1      46.325  35.860  18.211  1.00  0.00     0.009 C 
HETATM   27  C   UNL     1      47.021  36.925  18.782  1.00  0.00     0.001 C 
HETATM   28  C   UNL     1      46.774  38.229  18.381  1.00  0.00     0.000 C 
HETATM   29  C   UNL     1      45.726  38.490  17.517  1.00  0.00     0.001 C 
HETATM   30  C   UNL     1      45.098  37.431  16.872  1.00  0.00     0.009 C 
ENDBRANCH  12  25
TORSDOF 2
ENDMDL
MODEL 9
REMARK VINA RESULT:      -8.4      2.500      5.386
REMARK  2 active torsions:
REMARK  status: ('A' for Active; 'I' for Inactive)
REMARK    1  A    between atoms: C_24  and  C_26 
REMARK    2  A    between atoms: C_26  and  C_27 
ROOT
HETATM    1  O   UNL     1      42.284  35.748  17.641  1.00  0.00    -0.291 OA
HETATM    2  N   UNL     1      42.357  35.046  12.947  1.00  0.00    -0.368 N 
ATOM      3  HN  UNL     1      43.043  34.664  12.295  1.00  0.00     0.165 HD
HETATM    4  C   UNL     1      40.815  36.356  15.203  1.00  0.00     0.017 C 
HETATM    5  C   UNL     1      41.995  35.659  15.256  1.00  0.00     0.034 A 
HETATM    6  C   UNL     1      39.829  36.309  14.247  1.00  0.00     0.002 C 
HETATM    7  C   UNL     1      41.208  35.439  12.422  1.00  0.00     0.088 C 
HETATM    8  C   UNL     1      40.059  35.929  12.940  1.00  0.00     0.017 C 
HETATM    9  C   UNL     1      42.689  35.420  16.544  1.00  0.00     0.179 A 
HETATM   10  C   UNL     1      42.726  35.090  14.234  1.00  0.00     0.024 A 
HETATM   11  C   UNL     1      44.031  34.525  14.718  1.00  0.00     0.085 A 
HETATM   12  C   UNL     1      44.002  34.719  16.256  1.00  0.00     0.086 A 
ENDROOT
BRANCH  12  13
HETATM   13  C   UNL     1      44.115  33.372  16.933  1.00  0.00     0.015 C 
HETATM   14  C   UNL     1      45.469  32.883  17.357  1.00  0.00     0.099 C 
HETATM   15  C   UNL     1      45.551  31.522  16.745  1.00  0.00     0.027 C 
HETATM   16  C   UNL     1      46.777  30.914  16.702  1.00  0.00     0.026 C 
HETATM   17  N   UNL     1      44.340  31.119  16.242  1.00  0.00    -0.248 N 
HETATM   18  C   UNL     1      47.144  29.614  16.455  1.00  0.00     0.002 C 
HETATM   19  C   UNL     1      46.252  28.697  15.887  1.00  0.00     0.005 C 
HETATM   20  C   UNL     1      44.963  28.888  15.547  1.00  0.00     0.075 C 
HETATM   21  C   UNL     1      43.995  29.865  15.707  1.00  0.00     0.254 C 
HETATM   22  O   UNL     1      42.795  29.607  15.475  1.00  0.00    -0.268 OA
HETATM   23  C   UNL     1      43.433  32.177  16.379  1.00  0.00     0.259 C 
HETATM   24  O   UNL     1      42.229  32.104  16.121  1.00  0.00    -0.267 OA
ENDBRANCH  12  13
BRANCH  12  25
HETATM   25  C   UNL     1      45.200  35.516  16.673  1.00  0.00    -0.037 C 
HETATM   26  C   UNL     1      45.193  36.356  17.782  1.00  0.00     0.009 C 
HETATM   27  C   UNL     1      46.416  36.740  18.331  1.00  0.00     0.001 C 
HETATM   28  C   UNL     1      47.607  36.411  17.704  1.00  0.00     0.000 C 
HETATM   29  C   UNL     1      47.581  35.828  16.450  1.00  0.00     0.001 C 
HETATM   30  C   UNL     1      46.374  35.356  15.947  1.00  0.00     0.009 C 
ENDBRANCH  12  25
TORSDOF 2
ENDMDL
