REMARK  3 active torsions:
REMARK  status: ('A' for Active; 'I' for Inactive)
REMARK    1  A    between atoms: C_1  and  O_12 
REMARK    2  A    between atoms: C_5  and  O_7 
REMARK    3  A    between atoms: C_10  and  C_18 
ROOT
HETATM    1  C   UNL     1     -43.823  20.457 -66.927  1.00  0.00     0.127 C 
HETATM    2  C   UNL     1     -45.265  20.960 -67.085  1.00  0.00     0.023 C 
HETATM    3  C   UNL     1     -45.829  20.669 -68.463  1.00  0.00     0.025 C 
HETATM    4  C   UNL     1     -47.115  19.342 -66.872  1.00  0.00     0.137 C 
HETATM    5  C   UNL     1     -46.102  20.190 -66.078  1.00  0.00     0.026 C 
HETATM    6  C   UNL     1     -42.839  19.614 -64.392  1.00  0.00     0.007 C 
HETATM    7  C   UNL     1     -47.166  19.972 -68.265  1.00  0.00     0.116 C 
HETATM    8  C   UNL     1     -45.181  19.685 -63.694  1.00  0.00     0.005 C 
HETATM    9  C   UNL     1     -43.791  20.089 -65.461  1.00  0.00     0.019 C 
HETATM   10  C   UNL     1     -45.113  19.406 -65.199  1.00  0.00    -0.001 C 
HETATM   11  C   UNL     1     -43.755  19.482 -63.184  1.00  0.00     0.001 C 
ENDROOT
BRANCH   7  12
HETATM   12  C   UNL     1     -47.475  19.034 -69.418  1.00  0.00     0.179 C 
HETATM   13  O   UNL     1     -46.523  18.439 -69.979  1.00  0.00    -0.648 OA
HETATM   14  O   UNL     1     -48.639  18.909 -69.794  1.00  0.00    -0.648 OA
ENDBRANCH   7  12
BRANCH   4  15
HETATM   15  O   UNL     1     -48.396  19.586 -66.281  1.00  0.00    -0.394 OA
ATOM     16  HO  UNL     1     -49.020  19.063 -66.770  1.00  0.00     0.210 HD
ENDBRANCH   4  15
BRANCH   1  17
HETATM   17  O   UNL     1     -42.949  21.538 -67.241  1.00  0.00    -0.395 OA
ATOM     18  HO  UNL     1     -42.057  21.227 -67.143  1.00  0.00     0.210 HD
ENDBRANCH   1  17
TORSDOF 3
