MODEL 1
REMARK VINA RESULT:     -10.6      0.000      0.000
REMARK  0 active torsions:
REMARK  status: ('A' for Active; 'I' for Inactive)
ROOT
HETATM    1  C   UNL     1      15.406 -28.423  23.652  1.00  0.00     0.001 C 
HETATM    2  N   UNL     1      13.835 -31.784  26.085  1.00  0.00    -0.386 N 
ATOM      3  HN  UNL     1      12.943 -31.648  26.561  1.00  0.00     0.159 HD
HETATM    4  O   UNL     1      16.998 -33.140  26.722  1.00  0.00    -0.270 OA
HETATM    5  C   UNL     1      15.746 -32.191  23.969  1.00  0.00     0.091 C 
HETATM    6  C   UNL     1      15.451 -33.375  24.906  1.00  0.00     0.172 C 
HETATM    7  C   UNL     1      14.874 -27.631  24.657  1.00  0.00     0.000 C 
HETATM    8  C   UNL     1      15.640 -29.757  23.658  1.00  0.00     0.009 C 
HETATM    9  C   UNL     1      17.434 -35.839  24.984  1.00  0.00     0.331 C 
HETATM   10  C   UNL     1      14.375 -28.157  25.830  1.00  0.00     0.002 C 
HETATM   11  O   UNL     1      18.282 -36.673  25.304  1.00  0.00    -0.246 OA
HETATM   12  O   UNL     1      14.852 -34.377  24.079  1.00  0.00    -0.280 OA
HETATM   13  C   UNL     1      15.406 -35.539  23.637  1.00  0.00     0.369 C 
HETATM   14  O   UNL     1      15.086 -36.030  22.550  1.00  0.00    -0.238 OA
HETATM   15  N   UNL     1      16.167 -36.206  24.577  1.00  0.00    -0.254 N 
ATOM     16  HN  UNL     1      15.760 -37.038  25.006  1.00  0.00     0.175 HD
HETATM   17  C   UNL     1      14.360 -33.132  25.956  1.00  0.00     0.169 C 
HETATM   18  C   UNL     1      14.307 -29.459  26.210  1.00  0.00     0.029 C 
HETATM   19  N   UNL     1      17.694 -34.499  25.059  1.00  0.00    -0.276 N 
ATOM     20  HN  UNL     1      18.562 -34.117  24.685  1.00  0.00     0.173 HD
HETATM   21  C   UNL     1      14.497 -30.689  25.590  1.00  0.00     0.034 C 
HETATM   22  C   UNL     1      15.288 -30.830  24.435  1.00  0.00    -0.028 C 
HETATM   23  C   UNL     1      16.771 -33.684  25.643  1.00  0.00     0.263 C 
ENDROOT
TORSDOF 0
ENDMDL
MODEL 2
REMARK VINA RESULT:      -8.4      2.309      6.108
REMARK  0 active torsions:
REMARK  status: ('A' for Active; 'I' for Inactive)
ROOT
HETATM    1  C   UNL     1      16.319 -37.105  23.008  1.00  0.00     0.001 C 
HETATM    2  N   UNL     1      17.783 -33.736  25.498  1.00  0.00    -0.386 N 
ATOM      3  HN  UNL     1      18.771 -33.729  25.750  1.00  0.00     0.159 HD
HETATM    4  O   UNL     1      14.667 -33.134  26.972  1.00  0.00    -0.270 OA
HETATM    5  C   UNL     1      15.388 -33.536  23.911  1.00  0.00     0.091 C 
HETATM    6  C   UNL     1      15.676 -32.412  24.921  1.00  0.00     0.172 C 
HETATM    7  C   UNL     1      17.207 -37.861  23.757  1.00  0.00     0.000 C 
HETATM    8  C   UNL     1      15.856 -35.856  23.249  1.00  0.00     0.009 C 
HETATM    9  C   UNL     1      13.354 -30.432  25.758  1.00  0.00     0.331 C 
HETATM   10  C   UNL     1      17.864 -37.356  24.860  1.00  0.00     0.002 C 
HETATM   11  O   UNL     1      12.469 -29.826  26.364  1.00  0.00    -0.246 OA
HETATM   12  O   UNL     1      15.872 -31.233  24.133  1.00  0.00    -0.280 OA
HETATM   13  C   UNL     1      15.028 -30.175  23.984  1.00  0.00     0.369 C 
HETATM   14  O   UNL     1      14.991 -29.528  22.934  1.00  0.00    -0.238 OA
HETATM   15  N   UNL     1      14.402 -29.773  25.148  1.00  0.00    -0.254 N 
ATOM     16  HN  UNL     1      14.741 -28.919  25.592  1.00  0.00     0.175 HD
HETATM   17  C   UNL     1      17.008 -32.522  25.671  1.00  0.00     0.169 C 
HETATM   18  C   UNL     1      17.782 -36.110  25.394  1.00  0.00     0.029 C 
HETATM   19  N   UNL     1      13.365 -31.798  25.699  1.00  0.00    -0.276 N 
ATOM     20  HN  UNL     1      12.518 -32.315  25.468  1.00  0.00     0.173 HD
HETATM   21  C   UNL     1      17.233 -34.893  25.006  1.00  0.00     0.034 C 
HETATM   22  C   UNL     1      16.181 -34.811  24.075  1.00  0.00    -0.028 C 
HETATM   23  C   UNL     1      14.532 -32.455  25.955  1.00  0.00     0.263 C 
ENDROOT
TORSDOF 0
ENDMDL
MODEL 3
REMARK VINA RESULT:      -8.2      1.602      1.890
REMARK  0 active torsions:
REMARK  status: ('A' for Active; 'I' for Inactive)
ROOT
HETATM    1  C   UNL     1      15.352 -27.393  23.801  1.00  0.00     0.001 C 
HETATM    2  N   UNL     1      13.473 -30.644  26.165  1.00  0.00    -0.386 N 
ATOM      3  HN  UNL     1      12.804 -30.378  26.887  1.00  0.00     0.159 HD
HETATM    4  O   UNL     1      16.141 -32.863  25.714  1.00  0.00    -0.270 OA
HETATM    5  C   UNL     1      14.612 -31.109  23.561  1.00  0.00     0.091 C 
HETATM    6  C   UNL     1      14.209 -32.336  24.397  1.00  0.00     0.172 C 
HETATM    7  C   UNL     1      15.337 -26.701  25.003  1.00  0.00     0.000 C 
HETATM    8  C   UNL     1      15.170 -28.717  23.583  1.00  0.00     0.009 C 
HETATM    9  C   UNL     1      15.321 -35.193  23.617  1.00  0.00     0.331 C 
HETATM   10  C   UNL     1      14.998 -27.299  26.198  1.00  0.00     0.002 C 
HETATM   11  O   UNL     1      15.931 -36.263  23.583  1.00  0.00    -0.246 OA
HETATM   12  O   UNL     1      13.158 -32.970  23.661  1.00  0.00    -0.280 OA
HETATM   13  C   UNL     1      13.217 -34.127  22.946  1.00  0.00     0.369 C 
HETATM   14  O   UNL     1      12.515 -34.299  21.945  1.00  0.00    -0.238 OA
HETATM   15  N   UNL     1      13.943 -35.137  23.546  1.00  0.00    -0.254 N 
ATOM     16  HN  UNL     1      13.421 -35.903  23.971  1.00  0.00     0.175 HD
HETATM   17  C   UNL     1      13.524 -32.029  25.734  1.00  0.00     0.169 C 
HETATM   18  C   UNL     1      14.636 -28.588  26.425  1.00  0.00     0.029 C 
HETATM   19  N   UNL     1      15.981 -34.006  23.773  1.00  0.00    -0.276 N 
ATOM     20  HN  UNL     1      16.808 -33.795  23.216  1.00  0.00     0.173 HD
HETATM   21  C   UNL     1      14.295 -29.681  25.636  1.00  0.00     0.034 C 
HETATM   22  C   UNL     1      14.708 -29.793  24.295  1.00  0.00    -0.028 C 
HETATM   23  C   UNL     1      15.511 -33.111  24.687  1.00  0.00     0.263 C 
ENDROOT
TORSDOF 0
ENDMDL
MODEL 4
REMARK VINA RESULT:      -7.8      2.691      6.162
REMARK  0 active torsions:
REMARK  status: ('A' for Active; 'I' for Inactive)
ROOT
HETATM    1  C   UNL     1      17.515 -35.869  26.025  1.00  0.00     0.001 C 
HETATM    2  N   UNL     1      13.824 -33.963  24.464  1.00  0.00    -0.386 N 
ATOM      3  HN  UNL     1      12.976 -34.527  24.437  1.00  0.00     0.159 HD
HETATM    4  O   UNL     1      15.548 -31.673  22.457  1.00  0.00    -0.270 OA
HETATM    5  C   UNL     1      16.022 -32.417  25.501  1.00  0.00     0.091 C 
HETATM    6  C   UNL     1      14.901 -31.665  24.764  1.00  0.00     0.172 C 
HETATM    7  C   UNL     1      17.036 -36.998  25.380  1.00  0.00     0.000 C 
HETATM    8  C   UNL     1      17.120 -34.581  25.884  1.00  0.00     0.009 C 
HETATM    9  C   UNL     1      15.403 -28.708  23.756  1.00  0.00     0.331 C 
HETATM   10  C   UNL     1      15.945 -36.965  24.539  1.00  0.00     0.002 C 
HETATM   11  O   UNL     1      15.602 -27.702  23.072  1.00  0.00    -0.246 OA
HETATM   12  O   UNL     1      14.301 -30.816  25.748  1.00  0.00    -0.280 OA
HETATM   13  C   UNL     1      14.416 -29.464  25.870  1.00  0.00     0.369 C 
HETATM   14  O   UNL     1      14.366 -28.914  26.974  1.00  0.00    -0.238 OA
HETATM   15  N   UNL     1      14.374 -28.774  24.674  1.00  0.00    -0.254 N 
ATOM     16  HN  UNL     1      13.514 -28.273  24.451  1.00  0.00     0.175 HD
HETATM   17  C   UNL     1      13.713 -32.523  24.314  1.00  0.00     0.169 C 
HETATM   18  C   UNL     1      15.173 -35.901  24.197  1.00  0.00     0.029 C 
HETATM   19  N   UNL     1      16.170 -29.830  23.605  1.00  0.00    -0.276 N 
ATOM     20  HN  UNL     1      17.186 -29.763  23.563  1.00  0.00     0.173 HD
HETATM   21  C   UNL     1      15.032 -34.590  24.639  1.00  0.00     0.034 C 
HETATM   22  C   UNL     1      16.063 -33.916  25.320  1.00  0.00    -0.028 C 
HETATM   23  C   UNL     1      15.548 -31.040  23.511  1.00  0.00     0.263 C 
ENDROOT
TORSDOF 0
ENDMDL
