REMARK  10 active torsions:
REMARK  status: ('A' for Active; 'I' for Inactive)
REMARK    1  A    between atoms: C_2  and  C_24 
REMARK    2  A    between atoms: C_3  and  O_6 
REMARK    3  A    between atoms: C_3  and  C_23 
REMARK    4  A    between atoms: C_3  and  O_25 
REMARK    5  A    between atoms: C_8  and  C_10 
REMARK    6  A    between atoms: C_12  and  C_16 
REMARK    7  A    between atoms: C_12  and  C_32 
REMARK    8  A    between atoms: C_20  and  O_21 
REMARK    9  A    between atoms: C_24  and  C_36 
REMARK   10  A    between atoms: C_30  and  C_32 
ROOT
HETATM    1  C   UNL     1      -2.437   8.251   8.951  1.00  0.00    -0.049 C 
HETATM    2  C   UNL     1      -3.040   8.893  10.034  1.00  0.00     0.023 C 
HETATM    3  C   UNL     1      -2.137   8.999   7.818  1.00  0.00     0.044 C 
HETATM    4  C   UNL     1      -2.801  10.263  10.210  1.00  0.00     0.018 C 
HETATM    5  C   UNL     1      -1.972  10.383   7.957  1.00  0.00     0.067 C 
HETATM    6  C   UNL     1      -2.237  11.017   9.180  1.00  0.00     0.052 C 
ENDROOT
BRANCH   4   7
HETATM    7  C   UNL     1      -3.207  10.868  11.530  1.00  0.00     0.188 C 
HETATM    8  O   UNL     1      -2.349  11.155  12.351  1.00  0.00    -0.287 OA
BRANCH   7   9
HETATM    9  C   UNL     1      -4.639  11.070  11.843  1.00  0.00    -0.011 C 
HETATM   10  C   UNL     1      -5.046  11.159  13.287  1.00  0.00     0.052 C 
BRANCH   9  11
HETATM   11  C   UNL     1      -5.628  11.159  10.814  1.00  0.00     0.011 C 
HETATM   12  C   UNL     1      -6.850  11.773  10.899  1.00  0.00     0.012 C 
BRANCH  12  13
HETATM   13  C   UNL     1      -6.998  13.164  11.416  1.00  0.00    -0.032 C 
HETATM   14  C   UNL     1      -5.995  14.155  11.137  1.00  0.00     0.036 C 
HETATM   15  C   UNL     1      -6.106  15.410  11.791  1.00  0.00     0.143 C 
HETATM   16  O   UNL     1      -7.431  15.855  12.037  1.00  0.00    -0.318 OA
HETATM   17  C   UNL     1      -8.243  14.860  12.618  1.00  0.00     0.149 C 
HETATM   18  C   UNL     1      -8.120  13.520  12.228  1.00  0.00     0.053 C 
BRANCH  17  19
HETATM   19  C   UNL     1      -9.398  15.370  13.469  1.00  0.00     0.368 C 
HETATM   20  F   UNL     1     -10.467  14.582  13.206  1.00  0.00    -0.173 F 
BRANCH  19  21
HETATM   21  O   UNL     1      -9.089  15.337  14.810  1.00  0.00    -0.335 OA
ATOM     22  HO  UNL     1      -9.810  15.655  15.341  1.00  0.00     0.216 HD
ENDBRANCH  19  21
BRANCH  19  23
HETATM   23  O   UNL     1      -9.700  16.650  13.135  1.00  0.00    -0.335 OA
ATOM     24  HO  UNL     1      -9.913  16.673  12.210  1.00  0.00     0.216 HD
ENDBRANCH  19  23
ENDBRANCH  17  19
ENDBRANCH  12  13
ENDBRANCH   9  11
ENDBRANCH   7   9
ENDBRANCH   4   7
BRANCH   1  25
HETATM   25  C   UNL     1      -1.967   6.826   9.071  1.00  0.00     0.101 C 
BRANCH  25  26
HETATM   26  C   UNL     1      -1.438   6.630  10.468  1.00  0.00     0.082 A 
HETATM   27  C   UNL     1      -2.224   5.880  11.430  1.00  0.00     0.268 A 
HETATM   28  N   UNL     1      -1.746   5.821  12.711  1.00  0.00    -0.331 N 
HETATM   29  O   UNL     1      -3.258   5.295  11.112  1.00  0.00    -0.266 OA
HETATM   30  C   UNL     1      -0.546   6.376  13.043  1.00  0.00     0.108 A 
ATOM     31  HN  UNL     1      -2.298   5.353  13.430  1.00  0.00     0.168 HD
HETATM   32  C   UNL     1       0.169   7.077  12.093  1.00  0.00     0.105 A 
HETATM   33  N   UNL     1      -0.277   7.183  10.825  1.00  0.00    -0.363 N 
ATOM     34  HN  UNL     1       0.277   7.689  10.134  1.00  0.00     0.165 HD
ENDBRANCH  25  26
ENDBRANCH   1  25
BRANCH   5  35
HETATM   35  O   UNL     1      -1.609  11.096   6.852  1.00  0.00    -0.361 OA
ATOM     36  HO  UNL     1      -1.497  12.035   6.946  1.00  0.00     0.217 HD
ENDBRANCH   5  35
TORSDOF 10
