MODEL 1
REMARK VINA RESULT:      -7.5      0.000      0.000
REMARK  4 active torsions:
REMARK  status: ('A' for Active; 'I' for Inactive)
REMARK    1  A    between atoms: O_5  and  C_17 
REMARK    2  A    between atoms: O_9  and  C_14 
REMARK    3  A    between atoms: C_11  and  O_15 
REMARK    4  A    between atoms: C_14  and  O_19 
ROOT
HETATM    1  C   UNL     1     -12.569   1.986  15.534  1.00  0.00    -0.018 C 
HETATM    2  C   UNL     1     -10.228   0.735  15.004  1.00  0.00    -0.041 C 
HETATM    3  C   UNL     1      -8.995   0.772  14.143  1.00  0.00     0.077 C 
HETATM    4  C   UNL     1     -11.398   0.055  14.711  1.00  0.00     0.015 C 
HETATM    5  C   UNL     1     -10.228   1.769  15.938  1.00  0.00     0.046 C 
HETATM    6  C   UNL     1     -13.820   2.708  15.145  1.00  0.00     0.042 C 
HETATM    7  C   UNL     1      -8.037   1.608  14.970  1.00  0.00     0.189 C 
HETATM    8  C   UNL     1     -12.597   0.708  14.984  1.00  0.00    -0.049 C 
HETATM    9  C   UNL     1     -13.977   0.374  14.513  1.00  0.00     0.039 C 
HETATM   10  C   UNL     1      -8.889   2.477  15.906  1.00  0.00     0.219 C 
HETATM   11  C   UNL     1     -11.456   2.320  16.328  1.00  0.00     0.084 C 
HETATM   12  C   UNL     1     -14.794   1.621  14.715  1.00  0.00     0.009 C 
ENDROOT
BRANCH  10  13
HETATM   13  O   UNL     1      -8.982   3.808  15.485  1.00  0.00    -0.360 OA
ATOM     14  HO  UNL     1      -8.267   4.348  15.800  1.00  0.00     0.213 HD
ENDBRANCH  10  13
BRANCH  10  15
HETATM   15  O   UNL     1      -8.277   2.494  17.188  1.00  0.00    -0.360 OA
ATOM     16  HO  UNL     1      -8.543   3.253  17.693  1.00  0.00     0.213 HD
ENDBRANCH  10  15
BRANCH   7  17
HETATM   17  O   UNL     1      -7.264   2.391  14.066  1.00  0.00    -0.389 OA
ATOM     18  HO  UNL     1      -7.237   1.926  13.239  1.00  0.00     0.210 HD
ENDBRANCH   7  17
BRANCH  11  19
HETATM   19  O   UNL     1     -11.545   3.021  17.448  1.00  0.00    -0.359 OA
ATOM     20  HO  UNL     1     -11.935   3.886  17.494  1.00  0.00     0.217 HD
ENDBRANCH  11  19
TORSDOF 4
ENDMDL
MODEL 2
REMARK VINA RESULT:      -6.6      2.281      4.160
REMARK  4 active torsions:
REMARK  status: ('A' for Active; 'I' for Inactive)
REMARK    1  A    between atoms: O_5  and  C_17 
REMARK    2  A    between atoms: O_9  and  C_14 
REMARK    3  A    between atoms: C_11  and  O_15 
REMARK    4  A    between atoms: C_14  and  O_19 
ROOT
HETATM    1  C   UNL     1      -9.454   2.030  15.737  1.00  0.00    -0.018 C 
HETATM    2  C   UNL     1      -9.252   3.946  17.639  1.00  0.00    -0.041 C 
HETATM    3  C   UNL     1      -8.790   4.224  19.042  1.00  0.00     0.077 C 
HETATM    4  C   UNL     1     -10.525   3.537  17.274  1.00  0.00     0.015 C 
HETATM    5  C   UNL     1      -8.176   3.756  16.776  1.00  0.00     0.046 C 
HETATM    6  C   UNL     1      -9.725   0.638  15.262  1.00  0.00     0.042 C 
HETATM    7  C   UNL     1      -7.355   4.674  18.837  1.00  0.00     0.189 C 
HETATM    8  C   UNL     1     -10.618   2.550  16.297  1.00  0.00    -0.049 C 
HETATM    9  C   UNL     1     -11.796   1.709  15.921  1.00  0.00     0.039 C 
HETATM   10  C   UNL     1      -6.886   4.085  17.499  1.00  0.00     0.219 C 
HETATM   11  C   UNL     1      -8.328   2.873  15.697  1.00  0.00     0.084 C 
HETATM   12  C   UNL     1     -11.240   0.536  15.161  1.00  0.00     0.009 C 
ENDROOT
BRANCH  10  13
HETATM   13  O   UNL     1      -6.045   2.977  17.653  1.00  0.00    -0.360 OA
ATOM     14  HO  UNL     1      -5.131   3.179  17.492  1.00  0.00     0.213 HD
ENDBRANCH  10  13
BRANCH  10  15
HETATM   15  O   UNL     1      -6.137   5.075  16.808  1.00  0.00    -0.360 OA
ATOM     16  HO  UNL     1      -5.212   4.860  16.785  1.00  0.00     0.213 HD
ENDBRANCH  10  15
BRANCH   7  17
HETATM   17  O   UNL     1      -6.593   4.186  19.936  1.00  0.00    -0.389 OA
ATOM     18  HO  UNL     1      -6.607   4.854  20.611  1.00  0.00     0.210 HD
ENDBRANCH   7  17
BRANCH  11  19
HETATM   19  O   UNL     1      -7.500   2.935  14.666  1.00  0.00    -0.359 OA
ATOM     20  HO  UNL     1      -6.883   3.645  14.533  1.00  0.00     0.217 HD
ENDBRANCH  11  19
TORSDOF 4
ENDMDL
MODEL 3
REMARK VINA RESULT:      -6.5      3.188      5.383
REMARK  4 active torsions:
REMARK  status: ('A' for Active; 'I' for Inactive)
REMARK    1  A    between atoms: O_5  and  C_17 
REMARK    2  A    between atoms: O_9  and  C_14 
REMARK    3  A    between atoms: C_11  and  O_15 
REMARK    4  A    between atoms: C_14  and  O_19 
ROOT
HETATM    1  C   UNL     1      -7.679   2.274  16.477  1.00  0.00    -0.018 C 
HETATM    2  C   UNL     1      -9.206   3.968  17.936  1.00  0.00    -0.041 C 
HETATM    3  C   UNL     1      -9.796   4.209  19.298  1.00  0.00     0.077 C 
HETATM    4  C   UNL     1      -9.820   3.283  16.899  1.00  0.00     0.015 C 
HETATM    5  C   UNL     1      -7.826   4.155  17.938  1.00  0.00     0.046 C 
HETATM    6  C   UNL     1      -7.218   0.917  16.052  1.00  0.00     0.042 C 
HETATM    7  C   UNL     1      -8.723   5.035  19.984  1.00  0.00     0.189 C 
HETATM    8  C   UNL     1      -9.027   2.413  16.157  1.00  0.00    -0.049 C 
HETATM    9  C   UNL     1      -9.449   1.339  15.206  1.00  0.00     0.039 C 
HETATM   10  C   UNL     1      -7.397   4.730  19.272  1.00  0.00     0.219 C 
HETATM   11  C   UNL     1      -7.043   3.379  17.071  1.00  0.00     0.084 C 
HETATM   12  C   UNL     1      -8.256   0.436  15.049  1.00  0.00     0.009 C 
ENDROOT
BRANCH  10  13
HETATM   13  O   UNL     1      -6.570   3.868  20.001  1.00  0.00    -0.360 OA
ATOM     14  HO  UNL     1      -5.777   4.288  20.312  1.00  0.00     0.213 HD
ENDBRANCH  10  13
BRANCH  10  15
HETATM   15  O   UNL     1      -6.682   5.946  19.111  1.00  0.00    -0.360 OA
ATOM     16  HO  UNL     1      -5.771   5.790  18.891  1.00  0.00     0.213 HD
ENDBRANCH  10  15
BRANCH   7  17
HETATM   17  O   UNL     1      -8.699   4.649  21.354  1.00  0.00    -0.389 OA
ATOM     18  HO  UNL     1      -9.579   4.380  21.589  1.00  0.00     0.210 HD
ENDBRANCH   7  17
BRANCH  11  19
HETATM   19  O   UNL     1      -5.812   3.760  16.768  1.00  0.00    -0.359 OA
ATOM     20  HO  UNL     1      -5.034   3.332  17.107  1.00  0.00     0.217 HD
ENDBRANCH  11  19
TORSDOF 4
ENDMDL
MODEL 4
REMARK VINA RESULT:      -6.5      1.987      3.526
REMARK  4 active torsions:
REMARK  status: ('A' for Active; 'I' for Inactive)
REMARK    1  A    between atoms: O_5  and  C_17 
REMARK    2  A    between atoms: O_9  and  C_14 
REMARK    3  A    between atoms: C_11  and  O_15 
REMARK    4  A    between atoms: C_14  and  O_19 
ROOT
HETATM    1  C   UNL     1      -9.827   3.303  17.012  1.00  0.00    -0.018 C 
HETATM    2  C   UNL     1     -10.741   1.153  15.644  1.00  0.00    -0.041 C 
HETATM    3  C   UNL     1     -11.149   0.658  14.284  1.00  0.00     0.077 C 
HETATM    4  C   UNL     1     -11.586   1.720  16.585  1.00  0.00     0.015 C 
HETATM    5  C   UNL     1      -9.364   1.349  15.723  1.00  0.00     0.046 C 
HETATM    6  C   UNL     1      -9.776   4.762  17.333  1.00  0.00     0.042 C 
HETATM    7  C   UNL     1      -9.850   0.107  13.727  1.00  0.00     0.189 C 
HETATM    8  C   UNL     1     -11.108   2.827  17.280  1.00  0.00    -0.049 C 
HETATM    9  C   UNL     1     -11.866   3.814  18.110  1.00  0.00     0.039 C 
HETATM   10  C   UNL     1      -8.706   0.814  14.468  1.00  0.00     0.219 C 
HETATM   11  C   UNL     1      -8.879   2.371  16.551  1.00  0.00     0.084 C 
HETATM   12  C   UNL     1     -10.972   5.016  18.239  1.00  0.00     0.009 C 
ENDROOT
BRANCH  10  13
HETATM   13  O   UNL     1      -8.091   1.811  13.703  1.00  0.00    -0.360 OA
ATOM     14  HO  UNL     1      -7.148   1.711  13.650  1.00  0.00     0.213 HD
ENDBRANCH  10  13
BRANCH  10  15
HETATM   15  O   UNL     1      -7.705  -0.146  14.772  1.00  0.00    -0.360 OA
ATOM     16  HO  UNL     1      -8.065  -0.892  15.237  1.00  0.00     0.213 HD
ENDBRANCH  10  15
BRANCH   7  17
HETATM   17  O   UNL     1      -9.835   0.381  12.330  1.00  0.00    -0.389 OA
ATOM     18  HO  UNL     1      -9.670  -0.440  11.881  1.00  0.00     0.210 HD
ENDBRANCH   7  17
BRANCH  11  19
HETATM   19  O   UNL     1      -7.615   2.363  16.944  1.00  0.00    -0.359 OA
ATOM     20  HO  UNL     1      -7.187   1.599  17.314  1.00  0.00     0.217 HD
ENDBRANCH  11  19
TORSDOF 4
ENDMDL
MODEL 5
REMARK VINA RESULT:      -6.4      2.205      4.469
REMARK  4 active torsions:
REMARK  status: ('A' for Active; 'I' for Inactive)
REMARK    1  A    between atoms: O_5  and  C_17 
REMARK    2  A    between atoms: O_9  and  C_14 
REMARK    3  A    between atoms: C_11  and  O_15 
REMARK    4  A    between atoms: C_14  and  O_19 
ROOT
HETATM    1  C   UNL     1     -12.636   1.877  15.679  1.00  0.00    -0.018 C 
HETATM    2  C   UNL     1     -13.557   3.822  17.322  1.00  0.00    -0.041 C 
HETATM    3  C   UNL     1     -14.104   4.098  18.695  1.00  0.00     0.077 C 
HETATM    4  C   UNL     1     -14.309   3.524  16.197  1.00  0.00     0.015 C 
HETATM    5  C   UNL     1     -12.201   3.506  17.367  1.00  0.00     0.046 C 
HETATM    6  C   UNL     1     -12.655   0.504  15.089  1.00  0.00     0.042 C 
HETATM    7  C   UNL     1     -12.852   4.405  19.496  1.00  0.00     0.189 C 
HETATM    8  C   UNL     1     -13.829   2.521  15.360  1.00  0.00    -0.049 C 
HETATM    9  C   UNL     1     -14.543   1.784  14.273  1.00  0.00     0.039 C 
HETATM   10  C   UNL     1     -11.677   3.733  18.770  1.00  0.00     0.219 C 
HETATM   11  C   UNL     1     -11.689   2.609  16.419  1.00  0.00     0.084 C 
HETATM   12  C   UNL     1     -13.735   0.541  14.018  1.00  0.00     0.009 C 
ENDROOT
BRANCH  10  13
HETATM   13  O   UNL     1     -11.249   2.557  19.394  1.00  0.00    -0.360 OA
ATOM     14  HO  UNL     1     -10.329   2.370  19.244  1.00  0.00     0.213 HD
ENDBRANCH  10  13
BRANCH  10  15
HETATM   15  O   UNL     1     -10.573   4.627  18.778  1.00  0.00    -0.360 OA
ATOM     16  HO  UNL     1     -10.496   5.081  19.609  1.00  0.00     0.213 HD
ENDBRANCH  10  15
BRANCH   7  17
HETATM   17  O   UNL     1     -13.045   3.880  20.806  1.00  0.00    -0.389 OA
ATOM     18  HO  UNL     1     -13.427   4.570  21.335  1.00  0.00     0.210 HD
ENDBRANCH   7  17
BRANCH  11  19
HETATM   19  O   UNL     1     -10.387   2.561  16.185  1.00  0.00    -0.359 OA
ATOM     20  HO  UNL     1      -9.841   1.819  16.420  1.00  0.00     0.217 HD
ENDBRANCH  11  19
TORSDOF 4
ENDMDL
MODEL 6
REMARK VINA RESULT:      -6.3      2.088      2.840
REMARK  4 active torsions:
REMARK  status: ('A' for Active; 'I' for Inactive)
REMARK    1  A    between atoms: O_5  and  C_17 
REMARK    2  A    between atoms: O_9  and  C_14 
REMARK    3  A    between atoms: C_11  and  O_15 
REMARK    4  A    between atoms: C_14  and  O_19 
ROOT
HETATM    1  C   UNL     1     -10.690   3.982  17.590  1.00  0.00    -0.018 C 
HETATM    2  C   UNL     1      -9.915   1.951  15.976  1.00  0.00    -0.041 C 
HETATM    3  C   UNL     1      -9.337   1.619  14.628  1.00  0.00     0.077 C 
HETATM    4  C   UNL     1     -11.264   2.053  16.274  1.00  0.00     0.015 C 
HETATM    5  C   UNL     1      -8.963   2.533  16.810  1.00  0.00     0.046 C 
HETATM    6  C   UNL     1     -11.335   5.303  17.863  1.00  0.00     0.042 C 
HETATM    7  C   UNL     1      -7.845   1.597  14.902  1.00  0.00     0.189 C 
HETATM    8  C   UNL     1     -11.653   3.103  17.102  1.00  0.00    -0.049 C 
HETATM    9  C   UNL     1     -13.025   3.644  17.350  1.00  0.00     0.039 C 
HETATM   10  C   UNL     1      -7.603   2.463  16.147  1.00  0.00     0.219 C 
HETATM   11  C   UNL     1      -9.386   3.480  17.753  1.00  0.00     0.084 C 
HETATM   12  C   UNL     1     -12.827   5.014  17.940  1.00  0.00     0.009 C 
ENDROOT
BRANCH  10  13
HETATM   13  O   UNL     1      -7.075   3.723  15.843  1.00  0.00    -0.360 OA
ATOM     14  HO  UNL     1      -7.553   4.170  15.155  1.00  0.00     0.213 HD
ENDBRANCH  10  13
BRANCH  10  15
HETATM   15  O   UNL     1      -6.651   1.809  16.973  1.00  0.00    -0.360 OA
ATOM     16  HO  UNL     1      -6.095   1.224  16.472  1.00  0.00     0.213 HD
ENDBRANCH  10  15
BRANCH   7  17
HETATM   17  O   UNL     1      -7.191   2.117  13.750  1.00  0.00    -0.389 OA
ATOM     18  HO  UNL     1      -7.113   3.057  13.867  1.00  0.00     0.210 HD
ENDBRANCH   7  17
BRANCH  11  19
HETATM   19  O   UNL     1      -8.614   3.779  18.787  1.00  0.00    -0.359 OA
ATOM     20  HO  UNL     1      -8.183   3.124  19.323  1.00  0.00     0.217 HD
ENDBRANCH  11  19
TORSDOF 4
ENDMDL
MODEL 7
REMARK VINA RESULT:      -6.1      1.518      2.057
REMARK  4 active torsions:
REMARK  status: ('A' for Active; 'I' for Inactive)
REMARK    1  A    between atoms: O_5  and  C_17 
REMARK    2  A    between atoms: O_9  and  C_14 
REMARK    3  A    between atoms: C_11  and  O_15 
REMARK    4  A    between atoms: C_14  and  O_19 
ROOT
HETATM    1  C   UNL     1     -12.500   3.363  16.954  1.00  0.00    -0.018 C 
HETATM    2  C   UNL     1     -11.589   1.510  15.203  1.00  0.00    -0.041 C 
HETATM    3  C   UNL     1     -10.897   1.321  13.882  1.00  0.00     0.077 C 
HETATM    4  C   UNL     1     -12.959   1.593  15.393  1.00  0.00     0.015 C 
HETATM    5  C   UNL     1     -10.712   1.989  16.173  1.00  0.00     0.046 C 
HETATM    6  C   UNL     1     -13.166   4.653  17.312  1.00  0.00     0.042 C 
HETATM    7  C   UNL     1      -9.434   1.254  14.279  1.00  0.00     0.189 C 
HETATM    8  C   UNL     1     -13.417   2.551  16.293  1.00  0.00    -0.049 C 
HETATM    9  C   UNL     1     -14.805   3.076  16.479  1.00  0.00     0.039 C 
HETATM   10  C   UNL     1      -9.300   1.978  15.626  1.00  0.00     0.219 C 
HETATM   11  C   UNL     1     -11.215   2.834  17.173  1.00  0.00     0.084 C 
HETATM   12  C   UNL     1     -14.659   4.372  17.229  1.00  0.00     0.009 C 
ENDROOT
BRANCH  10  13
HETATM   13  O   UNL     1      -8.747   3.258  15.507  1.00  0.00    -0.360 OA
ATOM     14  HO  UNL     1      -9.031   3.852  16.192  1.00  0.00     0.213 HD
ENDBRANCH  10  13
BRANCH  10  15
HETATM   15  O   UNL     1      -8.424   1.229  16.456  1.00  0.00    -0.360 OA
ATOM     16  HO  UNL     1      -7.973   1.785  17.081  1.00  0.00     0.213 HD
ENDBRANCH  10  15
BRANCH   7  17
HETATM   17  O   UNL     1      -8.683   1.889  13.250  1.00  0.00    -0.389 OA
ATOM     18  HO  UNL     1      -9.127   2.700  13.032  1.00  0.00     0.210 HD
ENDBRANCH   7  17
BRANCH  11  19
HETATM   19  O   UNL     1     -10.536   3.012  18.296  1.00  0.00    -0.359 OA
ATOM     20  HO  UNL     1      -9.953   3.748  18.443  1.00  0.00     0.217 HD
ENDBRANCH  11  19
TORSDOF 4
ENDMDL
MODEL 8
REMARK VINA RESULT:      -6.1      3.976      5.832
REMARK  4 active torsions:
REMARK  status: ('A' for Active; 'I' for Inactive)
REMARK    1  A    between atoms: O_5  and  C_17 
REMARK    2  A    between atoms: O_9  and  C_14 
REMARK    3  A    between atoms: C_11  and  O_15 
REMARK    4  A    between atoms: C_14  and  O_19 
ROOT
HETATM    1  C   UNL     1      -8.204   5.871  19.440  1.00  0.00    -0.018 C 
HETATM    2  C   UNL     1      -9.060   4.238  17.456  1.00  0.00    -0.041 C 
HETATM    3  C   UNL     1      -9.025   4.005  15.972  1.00  0.00     0.077 C 
HETATM    4  C   UNL     1     -10.016   4.976  18.137  1.00  0.00     0.015 C 
HETATM    5  C   UNL     1      -7.825   3.974  18.043  1.00  0.00     0.046 C 
HETATM    6  C   UNL     1      -7.890   7.208  20.031  1.00  0.00     0.042 C 
HETATM    7  C   UNL     1      -7.813   3.107  15.804  1.00  0.00     0.189 C 
HETATM    8  C   UNL     1      -9.565   5.814  19.152  1.00  0.00    -0.049 C 
HETATM    9  C   UNL     1     -10.289   6.928  19.840  1.00  0.00     0.039 C 
HETATM   10  C   UNL     1      -6.902   3.351  17.016  1.00  0.00     0.219 C 
HETATM   11  C   UNL     1      -7.442   4.720  19.167  1.00  0.00     0.084 C 
HETATM   12  C   UNL     1      -9.226   7.765  20.498  1.00  0.00     0.009 C 
ENDROOT
BRANCH  10  13
HETATM   13  O   UNL     1      -5.794   4.150  16.716  1.00  0.00    -0.360 OA
ATOM     14  HO  UNL     1      -5.985   4.827  16.077  1.00  0.00     0.213 HD
ENDBRANCH  10  13
BRANCH  10  15
HETATM   15  O   UNL     1      -6.397   2.099  17.458  1.00  0.00    -0.360 OA
ATOM     16  HO  UNL     1      -6.866   1.782  18.220  1.00  0.00     0.213 HD
ENDBRANCH  10  15
BRANCH   7  17
HETATM   17  O   UNL     1      -7.184   3.465  14.578  1.00  0.00    -0.389 OA
ATOM     18  HO  UNL     1      -6.650   4.233  14.746  1.00  0.00     0.210 HD
ENDBRANCH   7  17
BRANCH  11  19
HETATM   19  O   UNL     1      -6.483   4.276  19.964  1.00  0.00    -0.359 OA
ATOM     20  HO  UNL     1      -5.603   4.637  19.974  1.00  0.00     0.217 HD
ENDBRANCH  11  19
TORSDOF 4
ENDMDL
MODEL 9
REMARK VINA RESULT:      -6.1      2.390      5.073
REMARK  4 active torsions:
REMARK  status: ('A' for Active; 'I' for Inactive)
REMARK    1  A    between atoms: O_5  and  C_17 
REMARK    2  A    between atoms: O_9  and  C_14 
REMARK    3  A    between atoms: C_11  and  O_15 
REMARK    4  A    between atoms: C_14  and  O_19 
ROOT
HETATM    1  C   UNL     1      -9.234   3.061  16.695  1.00  0.00    -0.018 C 
HETATM    2  C   UNL     1     -11.919   2.816  16.944  1.00  0.00    -0.041 C 
HETATM    3  C   UNL     1     -13.237   3.167  16.312  1.00  0.00     0.077 C 
HETATM    4  C   UNL     1     -11.254   3.569  17.897  1.00  0.00     0.015 C 
HETATM    5  C   UNL     1     -11.235   1.860  16.197  1.00  0.00     0.046 C 
HETATM    6  C   UNL     1      -7.983   3.812  16.369  1.00  0.00     0.042 C 
HETATM    7  C   UNL     1     -13.497   1.982  15.401  1.00  0.00     0.189 C 
HETATM    8  C   UNL     1      -9.874   3.691  17.759  1.00  0.00    -0.049 C 
HETATM    9  C   UNL     1      -8.945   4.656  18.426  1.00  0.00     0.039 C 
HETATM   10  C   UNL     1     -12.134   1.345  15.092  1.00  0.00     0.219 C 
HETATM   11  C   UNL     1      -9.833   1.893  16.187  1.00  0.00     0.084 C 
HETATM   12  C   UNL     1      -7.688   4.656  17.600  1.00  0.00     0.009 C 
ENDROOT
BRANCH  10  13
HETATM   13  O   UNL     1     -11.663   1.656  13.811  1.00  0.00    -0.360 OA
ATOM     14  HO  UNL     1     -10.720   1.583  13.734  1.00  0.00     0.213 HD
ENDBRANCH  10  13
BRANCH  10  15
HETATM   15  O   UNL     1     -12.274  -0.067  15.146  1.00  0.00    -0.360 OA
ATOM     16  HO  UNL     1     -11.764  -0.442  15.854  1.00  0.00     0.213 HD
ENDBRANCH  10  15
BRANCH   7  17
HETATM   17  O   UNL     1     -14.138   2.475  14.230  1.00  0.00    -0.389 OA
ATOM     18  HO  UNL     1     -14.498   1.729  13.767  1.00  0.00     0.210 HD
ENDBRANCH   7  17
BRANCH  11  19
HETATM   19  O   UNL     1      -9.146   0.825  15.814  1.00  0.00    -0.359 OA
ATOM     20  HO  UNL     1      -9.534   0.086  15.360  1.00  0.00     0.217 HD
ENDBRANCH  11  19
TORSDOF 4
ENDMDL
