MODEL 1
REMARK VINA RESULT:      -8.2      0.000      0.000
REMARK  4 active torsions:
REMARK  status: ('A' for Active; 'I' for Inactive)
REMARK    1  A    between atoms: C_2  and  C_7 
REMARK    2  A    between atoms: C_2  and  C_25 
REMARK    3  A    between atoms: C_13  and  N_27 
REMARK    4  A    between atoms: C_21  and  C_22 
ROOT
HETATM    1  C   UNL     1      23.924  62.506  21.063  1.00  0.00     0.054 C 
HETATM    2  O   UNL     1      29.150  60.069  20.627  1.00  0.00    -0.247 OA
HETATM    3  C   UNL     1      26.300  59.400  22.497  1.00  0.00     0.106 C 
HETATM    4  C   UNL     1      27.911  59.831  20.805  1.00  0.00     0.324 C 
HETATM    5  C   UNL     1      24.262  60.781  22.696  1.00  0.00     0.030 C 
HETATM    6  N   UNL     1      27.037  60.753  20.290  1.00  0.00    -0.308 N 
ATOM      7  HN  UNL     1      27.315  61.264  19.453  1.00  0.00     0.170 HD
HETATM    8  C   UNL     1      25.804  61.029  20.840  1.00  0.00     0.050 C 
HETATM    9  C   UNL     1      25.119  62.177  20.434  1.00  0.00     0.061 C 
HETATM   10  C   UNL     1      25.454  60.422  22.053  1.00  0.00     0.007 C 
HETATM   11  C   UNL     1      22.053  62.077  22.250  1.00  0.00     0.076 C 
HETATM   12  N   UNL     1      27.573  59.328  22.052  1.00  0.00    -0.318 N 
ATOM     13  HN  UNL     1      28.290  58.900  22.637  1.00  0.00     0.170 HD
HETATM   14  C   UNL     1      21.798  63.130  21.402  1.00  0.00     0.046 C 
HETATM   15  N   UNL     1      22.992  63.483  20.850  1.00  0.00    -0.299 N 
HETATM   16  C   UNL     1      23.421  61.720  22.104  1.00  0.00     0.011 C 
ENDROOT
BRANCH  15  17
HETATM   17  C   UNL     1      23.416  64.691  20.381  1.00  0.00     0.118 C 
HETATM   18  C   UNL     1      23.606  64.903  19.004  1.00  0.00    -0.017 C 
HETATM   19  C   UNL     1      24.851  65.172  18.446  1.00  0.00     0.010 C 
HETATM   20  C   UNL     1      22.415  64.775  18.114  1.00  0.00     0.052 C 
HETATM   21  C   UNL     1      25.731  66.089  18.988  1.00  0.00     0.002 C 
HETATM   22  C   UNL     1      25.590  66.649  20.235  1.00  0.00     0.017 C 
HETATM   23  C   UNL     1      24.590  66.594  21.128  1.00  0.00     0.089 C 
HETATM   24  N   UNL     1      23.614  65.704  21.254  1.00  0.00    -0.351 N 
ATOM     25  HN  UNL     1      22.981  65.789  22.049  1.00  0.00     0.166 HD
ENDBRANCH  15  17
BRANCH  14  26
HETATM   26  C   UNL     1      20.430  63.687  21.017  1.00  0.00     0.172 C 
BRANCH  26  27
HETATM   27  C   UNL     1      19.922  64.765  21.981  1.00  0.00     0.178 C 
HETATM   28  O   UNL     1      20.718  65.568  22.512  1.00  0.00    -0.648 OA
HETATM   29  O   UNL     1      18.677  64.795  22.208  1.00  0.00    -0.648 OA
ENDBRANCH  26  27
ENDBRANCH  14  26
BRANCH  11  30
HETATM   30  C   UNL     1      21.105  61.356  23.167  1.00  0.00     0.212 C 
HETATM   31  O   UNL     1      21.393  61.245  24.376  1.00  0.00    -0.644 OA
HETATM   32  O   UNL     1      20.102  60.811  22.655  1.00  0.00    -0.644 OA
ENDBRANCH  11  30
TORSDOF 4
ENDMDL
MODEL 2
REMARK VINA RESULT:      -7.4      2.284      6.282
REMARK  4 active torsions:
REMARK  status: ('A' for Active; 'I' for Inactive)
REMARK    1  A    between atoms: C_2  and  C_7 
REMARK    2  A    between atoms: C_2  and  C_25 
REMARK    3  A    between atoms: C_13  and  N_27 
REMARK    4  A    between atoms: C_21  and  C_22 
ROOT
HETATM    1  C   UNL     1      21.710  63.951  21.346  1.00  0.00     0.054 C 
HETATM    2  O   UNL     1      16.816  67.030  21.362  1.00  0.00    -0.247 OA
HETATM    3  C   UNL     1      17.722  63.895  22.550  1.00  0.00     0.106 C 
HETATM    4  C   UNL     1      17.518  66.205  22.031  1.00  0.00     0.324 C 
HETATM    5  C   UNL     1      19.843  62.686  22.167  1.00  0.00     0.030 C 
HETATM    6  N   UNL     1      18.864  66.205  21.772  1.00  0.00    -0.308 N 
ATOM      7  HN  UNL     1      19.297  67.080  21.479  1.00  0.00     0.170 HD
HETATM    8  C   UNL     1      19.666  65.090  21.884  1.00  0.00     0.050 C 
HETATM    9  C   UNL     1      20.943  65.110  21.320  1.00  0.00     0.061 C 
HETATM   10  C   UNL     1      19.069  63.855  22.172  1.00  0.00     0.007 C 
HETATM   11  C   UNL     1      22.328  61.926  22.130  1.00  0.00     0.076 C 
HETATM   12  N   UNL     1      16.952  64.952  22.214  1.00  0.00    -0.318 N 
ATOM     13  HN  UNL     1      15.947  64.828  22.095  1.00  0.00     0.170 HD
HETATM   14  C   UNL     1      23.438  62.546  21.603  1.00  0.00     0.046 C 
HETATM   15  N   UNL     1      22.993  63.668  20.971  1.00  0.00    -0.299 N 
HETATM   16  C   UNL     1      21.207  62.771  21.904  1.00  0.00     0.011 C 
ENDROOT
BRANCH  15  17
HETATM   17  C   UNL     1      23.520  64.341  19.909  1.00  0.00     0.118 C 
HETATM   18  C   UNL     1      23.911  65.686  20.030  1.00  0.00    -0.017 C 
HETATM   19  C   UNL     1      23.296  66.718  19.329  1.00  0.00     0.010 C 
HETATM   20  C   UNL     1      24.999  66.006  21.000  1.00  0.00     0.052 C 
HETATM   21  C   UNL     1      23.008  66.637  17.980  1.00  0.00     0.002 C 
HETATM   22  C   UNL     1      23.071  65.476  17.246  1.00  0.00     0.017 C 
HETATM   23  C   UNL     1      23.528  64.253  17.553  1.00  0.00     0.089 C 
HETATM   24  N   UNL     1      23.705  63.687  18.740  1.00  0.00    -0.351 N 
ATOM     25  HN  UNL     1      23.995  62.710  18.772  1.00  0.00     0.166 HD
ENDBRANCH  15  17
BRANCH  14  26
HETATM   26  C   UNL     1      24.897  62.157  21.823  1.00  0.00     0.172 C 
BRANCH  26  27
HETATM   27  C   UNL     1      25.439  61.209  20.747  1.00  0.00     0.178 C 
HETATM   28  O   UNL     1      24.795  61.005  19.697  1.00  0.00    -0.648 OA
HETATM   29  O   UNL     1      26.553  60.651  20.978  1.00  0.00    -0.648 OA
ENDBRANCH  26  27
ENDBRANCH  14  26
BRANCH  11  30
HETATM   30  C   UNL     1      22.240  60.615  22.858  1.00  0.00     0.212 C 
HETATM   31  O   UNL     1      23.138  60.306  23.668  1.00  0.00    -0.644 OA
HETATM   32  O   UNL     1      21.309  59.838  22.549  1.00  0.00    -0.644 OA
ENDBRANCH  11  30
TORSDOF 4
ENDMDL
MODEL 3
REMARK VINA RESULT:      -7.4      1.671      2.306
REMARK  4 active torsions:
REMARK  status: ('A' for Active; 'I' for Inactive)
REMARK    1  A    between atoms: C_2  and  C_7 
REMARK    2  A    between atoms: C_2  and  C_25 
REMARK    3  A    between atoms: C_13  and  N_27 
REMARK    4  A    between atoms: C_21  and  C_22 
ROOT
HETATM    1  C   UNL     1      22.935  63.633  20.484  1.00  0.00     0.054 C 
HETATM    2  O   UNL     1      27.244  60.072  21.963  1.00  0.00    -0.247 OA
HETATM    3  C   UNL     1      23.962  60.493  23.021  1.00  0.00     0.106 C 
HETATM    4  C   UNL     1      25.982  60.159  21.814  1.00  0.00     0.324 C 
HETATM    5  C   UNL     1      22.392  62.297  22.402  1.00  0.00     0.030 C 
HETATM    6  N   UNL     1      25.540  61.108  20.929  1.00  0.00    -0.308 N 
ATOM      7  HN  UNL     1      26.137  61.340  20.135  1.00  0.00     0.170 HD
HETATM    8  C   UNL     1      24.336  61.767  21.050  1.00  0.00     0.050 C 
HETATM    9  C   UNL     1      24.108  62.913  20.285  1.00  0.00     0.061 C 
HETATM   10  C   UNL     1      23.557  61.547  22.194  1.00  0.00     0.007 C 
HETATM   11  C   UNL     1      20.792  63.909  21.138  1.00  0.00     0.076 C 
HETATM   12  N   UNL     1      25.235  60.042  22.977  1.00  0.00    -0.318 N 
ATOM     13  HN  UNL     1      25.649  59.613  23.804  1.00  0.00     0.170 HD
HETATM   14  C   UNL     1      21.042  64.770  20.094  1.00  0.00     0.046 C 
HETATM   15  N   UNL     1      22.383  64.715  19.858  1.00  0.00    -0.299 N 
HETATM   16  C   UNL     1      22.005  63.236  21.450  1.00  0.00     0.011 C 
ENDROOT
BRANCH  15  17
HETATM   17  C   UNL     1      23.220  65.660  19.341  1.00  0.00     0.118 C 
HETATM   18  C   UNL     1      23.947  65.411  18.164  1.00  0.00    -0.017 C 
HETATM   19  C   UNL     1      25.336  65.345  18.134  1.00  0.00     0.010 C 
HETATM   20  C   UNL     1      23.174  65.155  16.914  1.00  0.00     0.052 C 
HETATM   21  C   UNL     1      26.142  66.274  18.764  1.00  0.00     0.002 C 
HETATM   22  C   UNL     1      25.686  67.206  19.666  1.00  0.00     0.017 C 
HETATM   23  C   UNL     1      24.445  67.548  20.041  1.00  0.00     0.089 C 
HETATM   24  N   UNL     1      23.313  66.863  19.951  1.00  0.00    -0.351 N 
ATOM     25  HN  UNL     1      22.470  67.263  20.362  1.00  0.00     0.166 HD
ENDBRANCH  15  17
BRANCH  14  26
HETATM   26  C   UNL     1      20.011  65.511  19.248  1.00  0.00     0.172 C 
BRANCH  26  27
HETATM   27  C   UNL     1      19.733  66.935  19.743  1.00  0.00     0.178 C 
HETATM   28  O   UNL     1      20.417  67.433  20.661  1.00  0.00    -0.648 OA
HETATM   29  O   UNL     1      18.788  67.566  19.183  1.00  0.00    -0.648 OA
ENDBRANCH  26  27
ENDBRANCH  14  26
BRANCH  11  30
HETATM   30  C   UNL     1      19.495  63.645  21.849  1.00  0.00     0.212 C 
HETATM   31  O   UNL     1      19.054  62.478  21.898  1.00  0.00    -0.644 OA
HETATM   32  O   UNL     1      18.858  64.629  22.285  1.00  0.00    -0.644 OA
ENDBRANCH  11  30
TORSDOF 4
ENDMDL
MODEL 4
REMARK VINA RESULT:      -7.4      2.239      3.216
REMARK  4 active torsions:
REMARK  status: ('A' for Active; 'I' for Inactive)
REMARK    1  A    between atoms: C_2  and  C_7 
REMARK    2  A    between atoms: C_2  and  C_25 
REMARK    3  A    between atoms: C_13  and  N_27 
REMARK    4  A    between atoms: C_21  and  C_22 
ROOT
HETATM    1  C   UNL     1      21.997  63.663  20.631  1.00  0.00     0.054 C 
HETATM    2  O   UNL     1      26.753  60.591  21.807  1.00  0.00    -0.247 OA
HETATM    3  C   UNL     1      23.507  60.619  23.042  1.00  0.00     0.106 C 
HETATM    4  C   UNL     1      25.483  60.537  21.725  1.00  0.00     0.324 C 
HETATM    5  C   UNL     1      21.712  62.243  22.545  1.00  0.00     0.030 C 
HETATM    6  N   UNL     1      24.891  61.444  20.886  1.00  0.00    -0.308 N 
ATOM      7  HN  UNL     1      25.414  61.755  20.067  1.00  0.00     0.170 HD
HETATM    8  C   UNL     1      23.628  61.960  21.083  1.00  0.00     0.050 C 
HETATM    9  C   UNL     1      23.231  63.084  20.357  1.00  0.00     0.061 C 
HETATM   10  C   UNL     1      22.942  61.633  22.260  1.00  0.00     0.007 C 
HETATM   11  C   UNL     1      19.875  63.683  21.402  1.00  0.00     0.076 C 
HETATM   12  N   UNL     1      24.818  60.317  22.922  1.00  0.00    -0.318 N 
ATOM     13  HN  UNL     1      25.321  59.925  23.717  1.00  0.00     0.170 HD
HETATM   14  C   UNL     1      19.970  64.583  20.365  1.00  0.00     0.046 C 
HETATM   15  N   UNL     1      21.294  64.685  20.059  1.00  0.00    -0.299 N 
HETATM   16  C   UNL     1      21.171  63.147  21.635  1.00  0.00     0.011 C 
ENDROOT
BRANCH  15  17
HETATM   17  C   UNL     1      21.989  65.727  19.521  1.00  0.00     0.118 C 
HETATM   18  C   UNL     1      22.281  66.870  20.286  1.00  0.00    -0.017 C 
HETATM   19  C   UNL     1      21.770  68.129  19.990  1.00  0.00     0.010 C 
HETATM   20  C   UNL     1      23.135  66.693  21.497  1.00  0.00     0.052 C 
HETATM   21  C   UNL     1      21.763  68.650  18.710  1.00  0.00     0.002 C 
HETATM   22  C   UNL     1      22.029  67.918  17.577  1.00  0.00     0.017 C 
HETATM   23  C   UNL     1      22.474  66.663  17.413  1.00  0.00     0.089 C 
HETATM   24  N   UNL     1      22.437  65.634  18.249  1.00  0.00    -0.351 N 
ATOM     25  HN  UNL     1      22.762  64.727  17.915  1.00  0.00     0.166 HD
ENDBRANCH  15  17
BRANCH  14  26
HETATM   26  C   UNL     1      18.818  65.215  19.590  1.00  0.00     0.172 C 
BRANCH  26  27
HETATM   27  C   UNL     1      18.503  66.648  20.035  1.00  0.00     0.178 C 
HETATM   28  O   UNL     1      18.403  66.929  21.248  1.00  0.00    -0.648 OA
HETATM   29  O   UNL     1      18.350  67.514  19.124  1.00  0.00    -0.648 OA
ENDBRANCH  26  27
ENDBRANCH  14  26
BRANCH  11  30
HETATM   30  C   UNL     1      18.656  63.261  22.172  1.00  0.00     0.212 C 
HETATM   31  O   UNL     1      18.426  62.044  22.329  1.00  0.00    -0.644 OA
HETATM   32  O   UNL     1      17.866  64.155  22.547  1.00  0.00    -0.644 OA
ENDBRANCH  11  30
TORSDOF 4
ENDMDL
MODEL 5
REMARK VINA RESULT:      -7.3      2.850      5.437
REMARK  4 active torsions:
REMARK  status: ('A' for Active; 'I' for Inactive)
REMARK    1  A    between atoms: C_2  and  C_7 
REMARK    2  A    between atoms: C_2  and  C_25 
REMARK    3  A    between atoms: C_13  and  N_27 
REMARK    4  A    between atoms: C_21  and  C_22 
ROOT
HETATM    1  C   UNL     1      22.537  62.891  21.414  1.00  0.00     0.054 C 
HETATM    2  O   UNL     1      19.402  60.221  25.472  1.00  0.00    -0.247 OA
HETATM    3  C   UNL     1      22.050  59.280  23.432  1.00  0.00     0.106 C 
HETATM    4  C   UNL     1      20.567  60.321  24.969  1.00  0.00     0.324 C 
HETATM    5  C   UNL     1      23.046  60.551  21.563  1.00  0.00     0.030 C 
HETATM    6  N   UNL     1      20.861  61.511  24.354  1.00  0.00    -0.308 N 
ATOM      7  HN  UNL     1      20.412  62.357  24.705  1.00  0.00     0.170 HD
HETATM    8  C   UNL     1      21.728  61.630  23.290  1.00  0.00     0.050 C 
HETATM    9  C   UNL     1      21.736  62.813  22.547  1.00  0.00     0.061 C 
HETATM   10  C   UNL     1      22.264  60.467  22.722  1.00  0.00     0.007 C 
HETATM   11  C   UNL     1      24.275  62.310  20.095  1.00  0.00     0.076 C 
HETATM   12  N   UNL     1      21.036  59.189  24.319  1.00  0.00    -0.318 N 
ATOM     13  HN  UNL     1      20.611  58.283  24.512  1.00  0.00     0.170 HD
HETATM   14  C   UNL     1      23.996  63.641  19.885  1.00  0.00     0.046 C 
HETATM   15  N   UNL     1      22.833  63.903  20.544  1.00  0.00    -0.299 N 
HETATM   16  C   UNL     1      23.308  61.799  21.004  1.00  0.00     0.011 C 
ENDROOT
BRANCH  15  17
HETATM   17  C   UNL     1      21.871  64.834  20.284  1.00  0.00     0.118 C 
HETATM   18  C   UNL     1      21.872  66.074  20.947  1.00  0.00    -0.017 C 
HETATM   19  C   UNL     1      20.859  66.468  21.815  1.00  0.00     0.010 C 
HETATM   20  C   UNL     1      23.047  66.970  20.737  1.00  0.00     0.052 C 
HETATM   21  C   UNL     1      19.518  66.318  21.517  1.00  0.00     0.002 C 
HETATM   22  C   UNL     1      19.041  65.567  20.468  1.00  0.00     0.017 C 
HETATM   23  C   UNL     1      19.669  64.956  19.453  1.00  0.00     0.089 C 
HETATM   24  N   UNL     1      20.934  64.570  19.347  1.00  0.00    -0.351 N 
ATOM     25  HN  UNL     1      21.213  64.048  18.517  1.00  0.00     0.166 HD
ENDBRANCH  15  17
BRANCH  14  26
HETATM   26  C   UNL     1      24.892  64.669  19.200  1.00  0.00     0.172 C 
BRANCH  26  27
HETATM   27  C   UNL     1      24.655  64.766  17.689  1.00  0.00     0.178 C 
HETATM   28  O   UNL     1      25.553  64.442  16.883  1.00  0.00    -0.648 OA
HETATM   29  O   UNL     1      23.523  65.188  17.308  1.00  0.00    -0.648 OA
ENDBRANCH  26  27
ENDBRANCH  14  26
BRANCH  11  30
HETATM   30  C   UNL     1      25.397  61.484  19.533  1.00  0.00     0.212 C 
HETATM   31  O   UNL     1      26.290  61.068  20.299  1.00  0.00    -0.644 OA
HETATM   32  O   UNL     1      25.439  61.325  18.293  1.00  0.00    -0.644 OA
ENDBRANCH  11  30
TORSDOF 4
ENDMDL
MODEL 6
REMARK VINA RESULT:      -7.2      2.485      5.577
REMARK  4 active torsions:
REMARK  status: ('A' for Active; 'I' for Inactive)
REMARK    1  A    between atoms: C_2  and  C_7 
REMARK    2  A    between atoms: C_2  and  C_25 
REMARK    3  A    between atoms: C_13  and  N_27 
REMARK    4  A    between atoms: C_21  and  C_22 
ROOT
HETATM    1  C   UNL     1      22.939  64.280  21.090  1.00  0.00     0.054 C 
HETATM    2  O   UNL     1      26.492  68.031  18.494  1.00  0.00    -0.247 OA
HETATM    3  C   UNL     1      23.182  68.139  19.539  1.00  0.00     0.106 C 
HETATM    4  C   UNL     1      25.539  67.923  19.331  1.00  0.00     0.324 C 
HETATM    5  C   UNL     1      21.802  66.275  20.391  1.00  0.00     0.030 C 
HETATM    6  N   UNL     1      25.424  66.713  19.966  1.00  0.00    -0.308 N 
ATOM      7  HN  UNL     1      26.274  66.174  20.130  1.00  0.00     0.170 HD
HETATM    8  C   UNL     1      24.227  66.184  20.396  1.00  0.00     0.050 C 
HETATM    9  C   UNL     1      24.168  64.835  20.755  1.00  0.00     0.061 C 
HETATM   10  C   UNL     1      23.039  66.855  20.077  1.00  0.00     0.007 C 
HETATM   11  C   UNL     1      20.796  64.335  21.799  1.00  0.00     0.076 C 
HETATM   12  N   UNL     1      24.340  68.505  18.948  1.00  0.00    -0.318 N 
ATOM     13  HN  UNL     1      24.332  69.213  18.215  1.00  0.00     0.170 HD
HETATM   14  C   UNL     1      21.345  63.128  22.166  1.00  0.00     0.046 C 
HETATM   15  N   UNL     1      22.561  63.053  21.558  1.00  0.00    -0.299 N 
HETATM   16  C   UNL     1      21.770  65.047  21.047  1.00  0.00     0.011 C 
ENDROOT
BRANCH  15  17
HETATM   17  C   UNL     1      23.274  61.961  21.158  1.00  0.00     0.118 C 
HETATM   18  C   UNL     1      24.099  61.269  22.062  1.00  0.00    -0.017 C 
HETATM   19  C   UNL     1      25.481  61.200  21.922  1.00  0.00     0.010 C 
HETATM   20  C   UNL     1      23.449  60.633  23.245  1.00  0.00     0.052 C 
HETATM   21  C   UNL     1      26.098  60.920  20.717  1.00  0.00     0.002 C 
HETATM   22  C   UNL     1      25.453  60.915  19.503  1.00  0.00     0.017 C 
HETATM   23  C   UNL     1      24.154  61.017  19.186  1.00  0.00     0.089 C 
HETATM   24  N   UNL     1      23.146  61.521  19.887  1.00  0.00    -0.351 N 
ATOM     25  HN  UNL     1      22.230  61.579  19.443  1.00  0.00     0.166 HD
ENDBRANCH  15  17
BRANCH  14  26
HETATM   26  C   UNL     1      20.788  62.140  23.187  1.00  0.00     0.172 C 
BRANCH  26  27
HETATM   27  C   UNL     1      19.813  61.125  22.579  1.00  0.00     0.178 C 
HETATM   28  O   UNL     1      18.687  61.488  22.179  1.00  0.00    -0.648 OA
HETATM   29  O   UNL     1      20.202  59.922  22.508  1.00  0.00    -0.648 OA
ENDBRANCH  26  27
ENDBRANCH  14  26
BRANCH  11  30
HETATM   30  C   UNL     1      19.438  64.889  22.125  1.00  0.00     0.212 C 
HETATM   31  O   UNL     1      18.426  64.354  21.627  1.00  0.00    -0.644 OA
HETATM   32  O   UNL     1      19.384  65.932  22.815  1.00  0.00    -0.644 OA
ENDBRANCH  11  30
TORSDOF 4
ENDMDL
MODEL 7
REMARK VINA RESULT:      -7.2      2.854      3.926
REMARK  4 active torsions:
REMARK  status: ('A' for Active; 'I' for Inactive)
REMARK    1  A    between atoms: C_2  and  C_7 
REMARK    2  A    between atoms: C_2  and  C_25 
REMARK    3  A    between atoms: C_13  and  N_27 
REMARK    4  A    between atoms: C_21  and  C_22 
ROOT
HETATM    1  C   UNL     1      22.031  64.942  19.493  1.00  0.00     0.054 C 
HETATM    2  O   UNL     1      26.887  64.243  16.433  1.00  0.00    -0.247 OA
HETATM    3  C   UNL     1      25.376  62.503  19.032  1.00  0.00     0.106 C 
HETATM    4  C   UNL     1      25.936  63.627  17.015  1.00  0.00     0.324 C 
HETATM    5  C   UNL     1      23.407  63.179  20.362  1.00  0.00     0.030 C 
HETATM    6  N   UNL     1      24.756  64.315  17.140  1.00  0.00    -0.308 N 
ATOM      7  HN  UNL     1      24.520  64.999  16.422  1.00  0.00     0.170 HD
HETATM    8  C   UNL     1      23.871  64.133  18.180  1.00  0.00     0.050 C 
HETATM    9  C   UNL     1      22.858  65.073  18.384  1.00  0.00     0.061 C 
HETATM   10  C   UNL     1      24.231  63.283  19.234  1.00  0.00     0.007 C 
HETATM   11  C   UNL     1      21.018  63.814  21.166  1.00  0.00     0.076 C 
HETATM   12  N   UNL     1      26.301  62.874  18.120  1.00  0.00    -0.318 N 
ATOM     13  HN  UNL     1      27.275  62.599  18.246  1.00  0.00     0.170 HD
HETATM   14  C   UNL     1      20.202  64.855  20.787  1.00  0.00     0.046 C 
HETATM   15  N   UNL     1      20.924  65.620  19.921  1.00  0.00    -0.299 N 
HETATM   16  C   UNL     1      22.218  63.902  20.408  1.00  0.00     0.011 C 
ENDROOT
BRANCH  15  17
HETATM   17  C   UNL     1      20.837  66.954  19.650  1.00  0.00     0.118 C 
HETATM   18  C   UNL     1      20.266  67.408  18.448  1.00  0.00    -0.017 C 
HETATM   19  C   UNL     1      20.991  68.094  17.480  1.00  0.00     0.010 C 
HETATM   20  C   UNL     1      18.832  67.082  18.196  1.00  0.00     0.052 C 
HETATM   21  C   UNL     1      21.850  69.133  17.785  1.00  0.00     0.002 C 
HETATM   22  C   UNL     1      22.263  69.443  19.060  1.00  0.00     0.017 C 
HETATM   23  C   UNL     1      21.876  68.980  20.257  1.00  0.00     0.089 C 
HETATM   24  N   UNL     1      21.269  67.843  20.571  1.00  0.00    -0.351 N 
ATOM     25  HN  UNL     1      21.120  67.630  21.557  1.00  0.00     0.166 HD
ENDBRANCH  15  17
BRANCH  14  26
HETATM   26  C   UNL     1      18.725  65.033  21.126  1.00  0.00     0.172 C 
BRANCH  26  27
HETATM   27  C   UNL     1      18.477  66.066  22.231  1.00  0.00     0.178 C 
HETATM   28  O   UNL     1      17.323  66.485  22.462  1.00  0.00    -0.648 OA
HETATM   29  O   UNL     1      19.487  66.468  22.881  1.00  0.00    -0.648 OA
ENDBRANCH  26  27
ENDBRANCH  14  26
BRANCH  11  30
HETATM   30  C   UNL     1      20.749  62.723  22.163  1.00  0.00     0.212 C 
HETATM   31  O   UNL     1      19.604  62.232  22.235  1.00  0.00    -0.644 OA
HETATM   32  O   UNL     1      21.670  62.414  22.952  1.00  0.00    -0.644 OA
ENDBRANCH  11  30
TORSDOF 4
ENDMDL
MODEL 8
REMARK VINA RESULT:      -7.1      2.946      7.115
REMARK  4 active torsions:
REMARK  status: ('A' for Active; 'I' for Inactive)
REMARK    1  A    between atoms: C_2  and  C_7 
REMARK    2  A    between atoms: C_2  and  C_25 
REMARK    3  A    between atoms: C_13  and  N_27 
REMARK    4  A    between atoms: C_21  and  C_22 
ROOT
HETATM    1  C   UNL     1      22.297  64.057  19.831  1.00  0.00     0.054 C 
HETATM    2  O   UNL     1      17.664  63.597  23.261  1.00  0.00    -0.247 OA
HETATM    3  C   UNL     1      18.937  66.096  21.212  1.00  0.00     0.106 C 
HETATM    4  C   UNL     1      18.095  64.091  22.169  1.00  0.00     0.324 C 
HETATM    5  C   UNL     1      21.114  66.134  20.045  1.00  0.00     0.030 C 
HETATM    6  N   UNL     1      19.149  63.439  21.583  1.00  0.00    -0.308 N 
ATOM      7  HN  UNL     1      19.228  62.432  21.722  1.00  0.00     0.170 HD
HETATM    8  C   UNL     1      20.108  64.066  20.818  1.00  0.00     0.050 C 
HETATM    9  C   UNL     1      21.290  63.387  20.517  1.00  0.00     0.061 C 
HETATM   10  C   UNL     1      20.080  65.463  20.712  1.00  0.00     0.007 C 
HETATM   11  C   UNL     1      23.130  65.658  18.475  1.00  0.00     0.076 C 
HETATM   12  N   UNL     1      18.158  65.476  22.125  1.00  0.00    -0.318 N 
ATOM     13  HN  UNL     1      17.614  66.029  22.785  1.00  0.00     0.170 HD
HETATM   14  C   UNL     1      23.914  64.534  18.354  1.00  0.00     0.046 C 
HETATM   15  N   UNL     1      23.503  63.666  19.321  1.00  0.00    -0.299 N 
HETATM   16  C   UNL     1      22.145  65.399  19.467  1.00  0.00     0.011 C 
ENDROOT
BRANCH  15  17
HETATM   17  C   UNL     1      24.196  62.691  19.974  1.00  0.00     0.118 C 
HETATM   18  C   UNL     1      24.155  61.357  19.529  1.00  0.00    -0.017 C 
HETATM   19  C   UNL     1      23.603  60.327  20.282  1.00  0.00     0.010 C 
HETATM   20  C   UNL     1      24.682  61.067  18.163  1.00  0.00     0.052 C 
HETATM   21  C   UNL     1      23.869  60.158  21.627  1.00  0.00     0.002 C 
HETATM   22  C   UNL     1      24.496  61.097  22.413  1.00  0.00     0.017 C 
HETATM   23  C   UNL     1      25.102  62.253  22.105  1.00  0.00     0.089 C 
HETATM   24  N   UNL     1      24.963  63.025  21.035  1.00  0.00    -0.351 N 
ATOM     25  HN  UNL     1      25.460  63.915  21.012  1.00  0.00     0.166 HD
ENDBRANCH  15  17
BRANCH  14  26
HETATM   26  C   UNL     1      24.927  64.236  17.253  1.00  0.00     0.172 C 
BRANCH  26  27
HETATM   27  C   UNL     1      26.380  64.452  17.692  1.00  0.00     0.178 C 
HETATM   28  O   UNL     1      26.775  65.583  18.046  1.00  0.00    -0.648 OA
HETATM   29  O   UNL     1      27.145  63.443  17.672  1.00  0.00    -0.648 OA
ENDBRANCH  26  27
ENDBRANCH  14  26
BRANCH  11  30
HETATM   30  C   UNL     1      23.211  66.948  17.710  1.00  0.00     0.212 C 
HETATM   31  O   UNL     1      22.381  67.174  16.806  1.00  0.00    -0.644 OA
HETATM   32  O   UNL     1      24.175  67.708  17.951  1.00  0.00    -0.644 OA
ENDBRANCH  11  30
TORSDOF 4
ENDMDL
MODEL 9
REMARK VINA RESULT:      -7.0      2.917      5.131
REMARK  4 active torsions:
REMARK  status: ('A' for Active; 'I' for Inactive)
REMARK    1  A    between atoms: C_2  and  C_7 
REMARK    2  A    between atoms: C_2  and  C_25 
REMARK    3  A    between atoms: C_13  and  N_27 
REMARK    4  A    between atoms: C_21  and  C_22 
ROOT
HETATM    1  C   UNL     1      22.561  63.229  21.564  1.00  0.00     0.054 C 
HETATM    2  O   UNL     1      19.405  60.167  25.319  1.00  0.00    -0.247 OA
HETATM    3  C   UNL     1      21.919  59.391  23.052  1.00  0.00     0.106 C 
HETATM    4  C   UNL     1      20.557  60.275  24.786  1.00  0.00     0.324 C 
HETATM    5  C   UNL     1      22.928  60.867  21.347  1.00  0.00     0.030 C 
HETATM    6  N   UNL     1      20.903  61.525  24.340  1.00  0.00    -0.308 N 
ATOM      7  HN  UNL     1      20.520  62.333  24.830  1.00  0.00     0.170 HD
HETATM    8  C   UNL     1      21.739  61.751  23.269  1.00  0.00     0.050 C 
HETATM    9  C   UNL     1      21.795  63.028  22.707  1.00  0.00     0.061 C 
HETATM   10  C   UNL     1      22.182  60.656  22.514  1.00  0.00     0.007 C 
HETATM   11  C   UNL     1      24.213  62.752  20.101  1.00  0.00     0.076 C 
HETATM   12  N   UNL     1      20.932  59.228  23.959  1.00  0.00    -0.318 N 
ATOM     13  HN  UNL     1      20.459  58.328  24.035  1.00  0.00     0.170 HD
HETATM   14  C   UNL     1      24.011  64.113  20.100  1.00  0.00     0.046 C 
HETATM   15  N   UNL     1      22.889  64.340  20.839  1.00  0.00    -0.299 N 
HETATM   16  C   UNL     1      23.248  62.167  20.966  1.00  0.00     0.011 C 
ENDROOT
BRANCH  15  17
HETATM   17  C   UNL     1      21.979  65.352  20.760  1.00  0.00     0.118 C 
HETATM   18  C   UNL     1      20.937  65.311  19.817  1.00  0.00    -0.017 C 
HETATM   19  C   UNL     1      20.822  66.229  18.778  1.00  0.00     0.010 C 
HETATM   20  C   UNL     1      19.952  64.195  19.920  1.00  0.00     0.052 C 
HETATM   21  C   UNL     1      20.972  67.590  18.963  1.00  0.00     0.002 C 
HETATM   22  C   UNL     1      21.473  68.163  20.108  1.00  0.00     0.017 C 
HETATM   23  C   UNL     1      21.785  67.638  21.302  1.00  0.00     0.089 C 
HETATM   24  N   UNL     1      22.061  66.382  21.630  1.00  0.00    -0.351 N 
ATOM     25  HN  UNL     1      22.351  66.185  22.588  1.00  0.00     0.166 HD
ENDBRANCH  15  17
BRANCH  14  26
HETATM   26  C   UNL     1      24.945  65.179  19.535  1.00  0.00     0.172 C 
BRANCH  26  27
HETATM   27  C   UNL     1      24.456  65.770  18.208  1.00  0.00     0.178 C 
HETATM   28  O   UNL     1      24.016  65.027  17.305  1.00  0.00    -0.648 OA
HETATM   29  O   UNL     1      24.524  67.028  18.076  1.00  0.00    -0.648 OA
ENDBRANCH  26  27
ENDBRANCH  14  26
BRANCH  11  30
HETATM   30  C   UNL     1      25.262  61.957  19.377  1.00  0.00     0.212 C 
HETATM   31  O   UNL     1      25.202  61.858  18.134  1.00  0.00    -0.644 OA
HETATM   32  O   UNL     1      26.107  61.343  20.066  1.00  0.00    -0.644 OA
ENDBRANCH  11  30
TORSDOF 4
ENDMDL
