REMARK  1 active torsions:
REMARK  status: ('A' for Active; 'I' for Inactive)
REMARK    1  A    between atoms: C_5  and  O_25 
ROOT
HETATM    1  C   UNL     1     -50.684 -13.733  31.182  1.00  0.00    -0.022 C 
HETATM    2  C   UNL     1     -52.665  -5.368  29.140  1.00  0.00     0.323 C 
HETATM    3  C   UNL     1     -50.107 -12.899  28.983  1.00  0.00     0.016 C 
HETATM    4  C   UNL     1     -50.441 -12.650  30.318  1.00  0.00    -0.015 C 
HETATM    5  C   UNL     1     -50.275 -15.261  29.350  1.00  0.00     0.066 C 
HETATM    6  C   UNL     1     -51.280 -13.487  32.419  1.00  0.00     0.024 C 
HETATM    7  C   UNL     1     -50.106  -9.556  33.943  1.00  0.00     0.013 C 
HETATM    8  C   UNL     1     -50.585 -15.037  30.691  1.00  0.00     0.048 C 
HETATM    9  C   UNL     1     -51.232 -12.199  32.956  1.00  0.00    -0.023 C 
HETATM   10  C   UNL     1     -50.203 -10.299  35.092  1.00  0.00     0.001 C 
HETATM   11  C   UNL     1     -50.969  -7.272  32.093  1.00  0.00     0.070 C 
HETATM   12  C   UNL     1     -53.034  -7.786  29.245  1.00  0.00     0.258 C 
HETATM   13  C   UNL     1     -51.794  -7.859  29.980  1.00  0.00     0.044 C 
HETATM   14  C   UNL     1     -50.986 -11.409  35.284  1.00  0.00     0.001 C 
HETATM   15  C   UNL     1     -50.879 -10.254  29.928  1.00  0.00     0.026 C 
HETATM   16  N   UNL     1     -52.123  -5.539  30.477  1.00  0.00    -0.334 N 
ATOM     17  HN  UNL     1     -52.359  -4.898  31.235  1.00  0.00     0.165 HD
HETATM   18  C   UNL     1     -50.653 -11.338  30.781  1.00  0.00    -0.012 C 
HETATM   19  C   UNL     1     -50.562  -9.819  32.656  1.00  0.00    -0.017 C 
HETATM   20  C   UNL     1     -51.223  -6.674  30.686  1.00  0.00     0.130 C 
HETATM   21  O   UNL     1     -53.056  -4.246  28.827  1.00  0.00    -0.247 OA
HETATM   22  N   UNL     1     -53.456  -6.515  28.925  1.00  0.00    -0.275 N 
ATOM     23  HN  UNL     1     -54.382  -6.398  28.514  1.00  0.00     0.173 HD
HETATM   24  C   UNL     1     -50.749  -8.736  31.789  1.00  0.00    -0.034 C 
HETATM   25  C   UNL     1     -50.159 -14.189  28.474  1.00  0.00     0.037 C 
HETATM   26  C   UNL     1     -50.760 -11.132  32.169  1.00  0.00    -0.004 C 
HETATM   27  C   UNL     1     -51.650 -12.038  34.272  1.00  0.00     0.012 C 
HETATM   28  O   UNL     1     -53.705  -8.780  28.985  1.00  0.00    -0.267 OA
HETATM   29  C   UNL     1     -51.133  -8.997  30.467  1.00  0.00    -0.014 C 
ENDROOT
BRANCH   5  30
HETATM   30  O   UNL     1     -49.693 -16.444  29.014  1.00  0.00    -0.361 OA
ATOM     31  HO  UNL     1     -49.482 -16.597  28.100  1.00  0.00     0.217 HD
ENDBRANCH   5  30
TORSDOF 1
