MODEL 1
REMARK VINA RESULT:      -7.7      0.000      0.000
REMARK  12 active torsions:
REMARK  status: ('A' for Active; 'I' for Inactive)
REMARK    1  A    between atoms: C_4  and  O_10 
REMARK    2  A    between atoms: C_4  and  O_12 
REMARK    3  A    between atoms: C_4  and  C_16 
REMARK    4  A    between atoms: C_4  and  O_28 
REMARK    5  A    between atoms: N_5  and  C_17 
REMARK    6  A    between atoms: N_5  and  C_20 
REMARK    7  A    between atoms: C_14  and  C_31 
REMARK    8  A    between atoms: C_18  and  C_22 
REMARK    9  A    between atoms: C_18  and  C_30 
REMARK   10  A    between atoms: C_19  and  N_32 
REMARK   11  A    between atoms: C_22  and  N_32 
REMARK   12  A    between atoms: C_23  and  C_30 
ROOT
HETATM    1  C   UNL     1     -11.298  19.890   9.641  1.00  0.00    -0.009 A 
HETATM    2  C   UNL     1     -11.837  20.664   8.615  1.00  0.00     0.016 A 
HETATM    3  C   UNL     1     -11.826  18.694   7.234  1.00  0.00     0.043 A 
HETATM    4  C   UNL     1     -12.054  20.064   7.388  1.00  0.00     0.031 A 
HETATM    5  C   UNL     1     -11.008  18.538   9.390  1.00  0.00     0.043 A 
HETATM    6  C   UNL     1     -10.750  18.905  11.562  1.00  0.00    -0.055 C 
HETATM    7  C   UNL     1     -11.001  20.160  11.000  1.00  0.00     0.021 C 
HETATM    8  C   UNL     1     -10.561  17.939  10.573  1.00  0.00     0.037 C 
HETATM    9  N   UNL     1     -11.284  17.945   8.216  1.00  0.00    -0.355 N 
ATOM     10  HN  UNL     1     -11.088  16.955   8.072  1.00  0.00     0.166 HD
ENDROOT
BRANCH   3  11
HETATM   11  C   UNL     1     -12.026  18.099   5.965  1.00  0.00    -0.009 C 
HETATM   12  C   UNL     1     -12.543  18.939   4.972  1.00  0.00     0.014 C 
HETATM   13  C   UNL     1     -13.659  18.505   4.269  1.00  0.00     0.002 C 
HETATM   14  C   UNL     1     -14.041  17.165   4.328  1.00  0.00     0.015 C 
HETATM   15  C   UNL     1     -13.238  16.265   5.020  1.00  0.00     0.034 C 
HETATM   16  C   UNL     1     -12.196  16.728   5.807  1.00  0.00     0.029 C 
BRANCH  15  17
HETATM   17  C   UNL     1     -13.452  14.768   4.922  1.00  0.00     0.307 C 
BRANCH  17  18
HETATM   18  O   UNL     1     -13.673  14.286   6.207  1.00  0.00    -0.340 OA
ATOM     19  HO  UNL     1     -14.524  14.595   6.496  1.00  0.00     0.216 HD
ENDBRANCH  17  18
BRANCH  17  20
HETATM   20  O   UNL     1     -14.569  14.539   4.187  1.00  0.00    -0.340 OA
ATOM     21  HO  UNL     1     -14.763  13.610   4.225  1.00  0.00     0.216 HD
ENDBRANCH  17  20
BRANCH  17  22
HETATM   22  O   UNL     1     -12.436  14.145   4.334  1.00  0.00    -0.340 OA
ATOM     23  HO  UNL     1     -11.835  13.777   4.971  1.00  0.00     0.216 HD
ENDBRANCH  17  22
ENDBRANCH  15  17
ENDBRANCH   3  11
BRANCH   6  24
HETATM   24  C   UNL     1     -10.962  18.582  13.003  1.00  0.00     0.040 C 
BRANCH  24  25
HETATM   25  C   UNL     1     -12.223  19.291  13.469  1.00  0.00     0.024 C 
BRANCH  25  26
HETATM   26  C   UNL     1     -11.917  19.951  14.795  1.00  0.00     0.120 C 
BRANCH  26  27
HETATM   27  N   UNL     1     -12.100  21.393  14.785  1.00  0.00    -0.392 N 
ATOM     28  HN  UNL     1     -12.975  21.827  15.080  1.00  0.00     0.159 HD
BRANCH  27  29
HETATM   29  C   UNL     1     -11.013  22.150  14.350  1.00  0.00     0.016 C 
HETATM   30  C   UNL     1      -9.636  21.664  14.688  1.00  0.00     0.069 C 
HETATM   31  C   UNL     1     -11.237  23.109  13.324  1.00  0.00     0.114 C 
BRANCH  31  32
HETATM   32  N   UNL     1     -10.767  24.416  13.330  1.00  0.00    -0.342 N 
ATOM     33  HN  UNL     1      -9.797  24.528  13.626  1.00  0.00     0.167 HD
BRANCH  32  34
HETATM   34  C   UNL     1     -11.397  25.545  13.005  1.00  0.00     0.352 C 
HETATM   35  O   UNL     1     -12.388  26.010  12.727  1.00  0.00    -0.283 OA
ENDBRANCH  32  34
ENDBRANCH  31  32
ENDBRANCH  27  29
ENDBRANCH  26  27
ENDBRANCH  25  26
ENDBRANCH  24  25
ENDBRANCH   6  24
TORSDOF 12
ENDMDL
MODEL 2
REMARK VINA RESULT:      -7.6      2.863      4.352
REMARK  12 active torsions:
REMARK  status: ('A' for Active; 'I' for Inactive)
REMARK    1  A    between atoms: C_4  and  O_10 
REMARK    2  A    between atoms: C_4  and  O_12 
REMARK    3  A    between atoms: C_4  and  C_16 
REMARK    4  A    between atoms: C_4  and  O_28 
REMARK    5  A    between atoms: N_5  and  C_17 
REMARK    6  A    between atoms: N_5  and  C_20 
REMARK    7  A    between atoms: C_14  and  C_31 
REMARK    8  A    between atoms: C_18  and  C_22 
REMARK    9  A    between atoms: C_18  and  C_30 
REMARK   10  A    between atoms: C_19  and  N_32 
REMARK   11  A    between atoms: C_22  and  N_32 
REMARK   12  A    between atoms: C_23  and  C_30 
ROOT
HETATM    1  C   UNL     1     -11.082  19.676   9.729  1.00  0.00    -0.009 A 
HETATM    2  C   UNL     1     -10.711  18.378   9.382  1.00  0.00     0.016 A 
HETATM    3  C   UNL     1     -11.744  18.744   7.239  1.00  0.00     0.043 A 
HETATM    4  C   UNL     1     -11.092  17.900   8.142  1.00  0.00     0.031 A 
HETATM    5  C   UNL     1     -11.815  20.442   8.806  1.00  0.00     0.043 A 
HETATM    6  C   UNL     1     -11.228  21.766  10.486  1.00  0.00    -0.055 C 
HETATM    7  C   UNL     1     -10.824  20.482  10.866  1.00  0.00     0.021 C 
HETATM    8  C   UNL     1     -12.001  21.729   9.326  1.00  0.00     0.037 C 
HETATM    9  N   UNL     1     -12.124  19.994   7.578  1.00  0.00    -0.355 N 
ATOM     10  HN  UNL     1     -12.633  20.582   6.919  1.00  0.00     0.166 HD
ENDROOT
BRANCH   3  11
HETATM   11  C   UNL     1     -12.152  18.232   5.985  1.00  0.00    -0.009 C 
HETATM   12  C   UNL     1     -13.004  19.056   5.238  1.00  0.00     0.014 C 
HETATM   13  C   UNL     1     -14.182  18.504   4.752  1.00  0.00     0.002 C 
HETATM   14  C   UNL     1     -14.346  17.119   4.734  1.00  0.00     0.015 C 
HETATM   15  C   UNL     1     -13.283  16.310   5.119  1.00  0.00     0.034 C 
HETATM   16  C   UNL     1     -12.160  16.870   5.706  1.00  0.00     0.029 C 
BRANCH  15  17
HETATM   17  C   UNL     1     -13.301  14.811   4.893  1.00  0.00     0.307 C 
BRANCH  17  18
HETATM   18  O   UNL     1     -14.510  14.488   4.289  1.00  0.00    -0.340 OA
ATOM     19  HO  UNL     1     -14.818  15.252   3.816  1.00  0.00     0.216 HD
ENDBRANCH  17  18
BRANCH  17  20
HETATM   20  O   UNL     1     -12.301  14.492   4.034  1.00  0.00    -0.340 OA
ATOM     21  HO  UNL     1     -12.422  13.590   3.761  1.00  0.00     0.216 HD
ENDBRANCH  17  20
BRANCH  17  22
HETATM   22  O   UNL     1     -13.115  14.124   6.016  1.00  0.00    -0.340 OA
ATOM     23  HO  UNL     1     -13.472  14.580   6.768  1.00  0.00     0.216 HD
ENDBRANCH  17  22
ENDBRANCH  15  17
ENDBRANCH   3  11
BRANCH   6  24
HETATM   24  C   UNL     1     -10.656  23.020  11.058  1.00  0.00     0.040 C 
BRANCH  24  25
HETATM   25  C   UNL     1     -11.690  24.123  10.916  1.00  0.00     0.024 C 
BRANCH  25  26
HETATM   26  C   UNL     1     -10.962  25.387  10.516  1.00  0.00     0.120 C 
BRANCH  26  27
HETATM   27  N   UNL     1      -9.745  25.145   9.757  1.00  0.00    -0.392 N 
ATOM     28  HN  UNL     1      -8.887  24.822  10.204  1.00  0.00     0.159 HD
BRANCH  27  29
HETATM   29  C   UNL     1      -9.819  25.379   8.384  1.00  0.00     0.016 C 
HETATM   30  C   UNL     1      -9.978  26.794   7.918  1.00  0.00     0.069 C 
HETATM   31  C   UNL     1      -9.380  24.347   7.510  1.00  0.00     0.114 C 
BRANCH  31  32
HETATM   32  N   UNL     1     -10.058  23.909   6.380  1.00  0.00    -0.342 N 
ATOM     33  HN  UNL     1     -10.199  24.614   5.656  1.00  0.00     0.167 HD
BRANCH  32  34
HETATM   34  C   UNL     1     -10.554  22.703   6.103  1.00  0.00     0.352 C 
HETATM   35  O   UNL     1     -11.002  22.044   5.303  1.00  0.00    -0.283 OA
ENDBRANCH  32  34
ENDBRANCH  31  32
ENDBRANCH  27  29
ENDBRANCH  26  27
ENDBRANCH  25  26
ENDBRANCH  24  25
ENDBRANCH   6  24
TORSDOF 12
ENDMDL
MODEL 3
REMARK VINA RESULT:      -7.5      2.011      3.283
REMARK  12 active torsions:
REMARK  status: ('A' for Active; 'I' for Inactive)
REMARK    1  A    between atoms: C_4  and  O_10 
REMARK    2  A    between atoms: C_4  and  O_12 
REMARK    3  A    between atoms: C_4  and  C_16 
REMARK    4  A    between atoms: C_4  and  O_28 
REMARK    5  A    between atoms: N_5  and  C_17 
REMARK    6  A    between atoms: N_5  and  C_20 
REMARK    7  A    between atoms: C_14  and  C_31 
REMARK    8  A    between atoms: C_18  and  C_22 
REMARK    9  A    between atoms: C_18  and  C_30 
REMARK   10  A    between atoms: C_19  and  N_32 
REMARK   11  A    between atoms: C_22  and  N_32 
REMARK   12  A    between atoms: C_23  and  C_30 
ROOT
HETATM    1  C   UNL     1     -11.134  19.766   9.681  1.00  0.00    -0.009 A 
HETATM    2  C   UNL     1     -10.725  18.476   9.349  1.00  0.00     0.016 A 
HETATM    3  C   UNL     1     -11.763  18.788   7.200  1.00  0.00     0.043 A 
HETATM    4  C   UNL     1     -11.090  17.973   8.113  1.00  0.00     0.031 A 
HETATM    5  C   UNL     1     -11.887  20.500   8.748  1.00  0.00     0.043 A 
HETATM    6  C   UNL     1     -11.343  21.858  10.414  1.00  0.00    -0.055 C 
HETATM    7  C   UNL     1     -10.903  20.592  10.809  1.00  0.00     0.021 C 
HETATM    8  C   UNL     1     -12.112  21.786   9.253  1.00  0.00     0.037 C 
HETATM    9  N   UNL     1     -12.181  20.029   7.524  1.00  0.00    -0.355 N 
ATOM     10  HN  UNL     1     -12.705  20.596   6.858  1.00  0.00     0.166 HD
ENDROOT
BRANCH   3  11
HETATM   11  C   UNL     1     -12.154  18.251   5.951  1.00  0.00    -0.009 C 
HETATM   12  C   UNL     1     -12.990  19.061   5.173  1.00  0.00     0.014 C 
HETATM   13  C   UNL     1     -14.163  18.504   4.680  1.00  0.00     0.002 C 
HETATM   14  C   UNL     1     -14.333  17.120   4.689  1.00  0.00     0.015 C 
HETATM   15  C   UNL     1     -13.280  16.315   5.109  1.00  0.00     0.034 C 
HETATM   16  C   UNL     1     -12.164  16.883   5.701  1.00  0.00     0.029 C 
BRANCH  15  17
HETATM   17  C   UNL     1     -13.301  14.812   4.915  1.00  0.00     0.307 C 
BRANCH  17  18
HETATM   18  O   UNL     1     -14.507  14.479   4.309  1.00  0.00    -0.340 OA
ATOM     19  HO  UNL     1     -14.756  15.194   3.735  1.00  0.00     0.216 HD
ENDBRANCH  17  18
BRANCH  17  20
HETATM   20  O   UNL     1     -12.295  14.471   4.070  1.00  0.00    -0.340 OA
ATOM     21  HO  UNL     1     -12.217  13.524   4.070  1.00  0.00     0.216 HD
ENDBRANCH  17  20
BRANCH  17  22
HETATM   22  O   UNL     1     -13.126  14.148   6.053  1.00  0.00    -0.340 OA
ATOM     23  HO  UNL     1     -13.050  13.213   5.904  1.00  0.00     0.216 HD
ENDBRANCH  17  22
ENDBRANCH  15  17
ENDBRANCH   3  11
BRANCH   6  24
HETATM   24  C   UNL     1     -10.809  23.135  10.974  1.00  0.00     0.040 C 
BRANCH  24  25
HETATM   25  C   UNL     1      -9.846  22.796  12.099  1.00  0.00     0.024 C 
BRANCH  25  26
HETATM   26  C   UNL     1     -10.392  23.406  13.371  1.00  0.00     0.120 C 
BRANCH  26  27
HETATM   27  N   UNL     1     -11.489  22.653  13.956  1.00  0.00    -0.392 N 
ATOM     28  HN  UNL     1     -12.454  22.978  13.905  1.00  0.00     0.159 HD
BRANCH  27  29
HETATM   29  C   UNL     1     -11.147  21.460  14.592  1.00  0.00     0.016 C 
HETATM   30  C   UNL     1      -9.997  21.478  15.554  1.00  0.00     0.069 C 
HETATM   31  C   UNL     1     -12.100  20.405  14.586  1.00  0.00     0.114 C 
BRANCH  31  32
HETATM   32  N   UNL     1     -11.825  19.075  14.297  1.00  0.00    -0.342 N 
ATOM     33  HN  UNL     1     -11.051  18.921  13.651  1.00  0.00     0.167 HD
BRANCH  32  34
HETATM   34  C   UNL     1     -12.425  17.969  14.739  1.00  0.00     0.352 C 
HETATM   35  O   UNL     1     -13.272  17.557  15.362  1.00  0.00    -0.283 OA
ENDBRANCH  32  34
ENDBRANCH  31  32
ENDBRANCH  27  29
ENDBRANCH  26  27
ENDBRANCH  25  26
ENDBRANCH  24  25
ENDBRANCH   6  24
TORSDOF 12
ENDMDL
MODEL 4
REMARK VINA RESULT:      -7.5      1.876      2.882
REMARK  12 active torsions:
REMARK  status: ('A' for Active; 'I' for Inactive)
REMARK    1  A    between atoms: C_4  and  O_10 
REMARK    2  A    between atoms: C_4  and  O_12 
REMARK    3  A    between atoms: C_4  and  C_16 
REMARK    4  A    between atoms: C_4  and  O_28 
REMARK    5  A    between atoms: N_5  and  C_17 
REMARK    6  A    between atoms: N_5  and  C_20 
REMARK    7  A    between atoms: C_14  and  C_31 
REMARK    8  A    between atoms: C_18  and  C_22 
REMARK    9  A    between atoms: C_18  and  C_30 
REMARK   10  A    between atoms: C_19  and  N_32 
REMARK   11  A    between atoms: C_22  and  N_32 
REMARK   12  A    between atoms: C_23  and  C_30 
ROOT
HETATM    1  C   UNL     1     -11.198  19.799   9.507  1.00  0.00    -0.009 A 
HETATM    2  C   UNL     1     -10.814  18.484   9.248  1.00  0.00     0.016 A 
HETATM    3  C   UNL     1     -11.759  18.729   7.048  1.00  0.00     0.043 A 
HETATM    4  C   UNL     1     -11.145  17.937   8.021  1.00  0.00     0.031 A 
HETATM    5  C   UNL     1     -11.892  20.511   8.514  1.00  0.00     0.043 A 
HETATM    6  C   UNL     1     -11.373  21.927  10.140  1.00  0.00    -0.055 C 
HETATM    7  C   UNL     1     -10.986  20.667  10.607  1.00  0.00     0.021 C 
HETATM    8  C   UNL     1     -12.099  21.824   8.953  1.00  0.00     0.037 C 
HETATM    9  N   UNL     1     -12.152  19.995   7.301  1.00  0.00    -0.355 N 
ATOM     10  HN  UNL     1     -12.633  20.545   6.590  1.00  0.00     0.166 HD
ENDROOT
BRANCH   3  11
HETATM   11  C   UNL     1     -12.117  18.148   5.808  1.00  0.00    -0.009 C 
HETATM   12  C   UNL     1     -12.830  18.974   4.931  1.00  0.00     0.014 C 
HETATM   13  C   UNL     1     -14.013  18.485   4.394  1.00  0.00     0.002 C 
HETATM   14  C   UNL     1     -14.303  17.123   4.471  1.00  0.00     0.015 C 
HETATM   15  C   UNL     1     -13.351  16.262   5.007  1.00  0.00     0.034 C 
HETATM   16  C   UNL     1     -12.229  16.773   5.638  1.00  0.00     0.029 C 
BRANCH  15  17
HETATM   17  C   UNL     1     -13.490  14.756   4.899  1.00  0.00     0.307 C 
BRANCH  17  18
HETATM   18  O   UNL     1     -13.702  14.257   6.178  1.00  0.00    -0.340 OA
ATOM     19  HO  UNL     1     -14.012  13.363   6.099  1.00  0.00     0.216 HD
ENDBRANCH  17  18
BRANCH  17  20
HETATM   20  O   UNL     1     -14.585  14.476   4.149  1.00  0.00    -0.340 OA
ATOM     21  HO  UNL     1     -14.670  13.532   4.090  1.00  0.00     0.216 HD
ENDBRANCH  17  20
BRANCH  17  22
HETATM   22  O   UNL     1     -12.437  14.187   4.320  1.00  0.00    -0.340 OA
ATOM     23  HO  UNL     1     -11.677  14.756   4.340  1.00  0.00     0.216 HD
ENDBRANCH  17  22
ENDBRANCH  15  17
ENDBRANCH   3  11
BRANCH   6  24
HETATM   24  C   UNL     1     -10.824  23.211  10.665  1.00  0.00     0.040 C 
BRANCH  24  25
HETATM   25  C   UNL     1      -9.838  22.890  11.775  1.00  0.00     0.024 C 
BRANCH  25  26
HETATM   26  C   UNL     1     -10.308  23.599  13.027  1.00  0.00     0.120 C 
BRANCH  26  27
HETATM   27  N   UNL     1     -11.462  22.973  13.653  1.00  0.00    -0.392 N 
ATOM     28  HN  UNL     1     -12.415  23.189  13.363  1.00  0.00     0.159 HD
BRANCH  27  29
HETATM   29  C   UNL     1     -11.190  22.062  14.674  1.00  0.00     0.016 C 
HETATM   30  C   UNL     1     -11.890  20.737  14.640  1.00  0.00     0.069 C 
HETATM   31  C   UNL     1     -10.027  22.274  15.463  1.00  0.00     0.114 C 
BRANCH  31  32
HETATM   32  N   UNL     1      -9.971  22.199  16.848  1.00  0.00    -0.342 N 
ATOM     33  HN  UNL     1     -10.443  21.393  17.260  1.00  0.00     0.167 HD
BRANCH  32  34
HETATM   34  C   UNL     1      -9.392  23.025  17.720  1.00  0.00     0.352 C 
HETATM   35  O   UNL     1      -9.501  23.557  18.710  1.00  0.00    -0.283 OA
ENDBRANCH  32  34
ENDBRANCH  31  32
ENDBRANCH  27  29
ENDBRANCH  26  27
ENDBRANCH  25  26
ENDBRANCH  24  25
ENDBRANCH   6  24
TORSDOF 12
ENDMDL
MODEL 5
REMARK VINA RESULT:      -7.2      2.569      3.632
REMARK  12 active torsions:
REMARK  status: ('A' for Active; 'I' for Inactive)
REMARK    1  A    between atoms: C_4  and  O_10 
REMARK    2  A    between atoms: C_4  and  O_12 
REMARK    3  A    between atoms: C_4  and  C_16 
REMARK    4  A    between atoms: C_4  and  O_28 
REMARK    5  A    between atoms: N_5  and  C_17 
REMARK    6  A    between atoms: N_5  and  C_20 
REMARK    7  A    between atoms: C_14  and  C_31 
REMARK    8  A    between atoms: C_18  and  C_22 
REMARK    9  A    between atoms: C_18  and  C_30 
REMARK   10  A    between atoms: C_19  and  N_32 
REMARK   11  A    between atoms: C_22  and  N_32 
REMARK   12  A    between atoms: C_23  and  C_30 
ROOT
HETATM    1  C   UNL     1     -11.413  20.243   9.377  1.00  0.00    -0.009 A 
HETATM    2  C   UNL     1     -11.923  20.929   8.277  1.00  0.00     0.016 A 
HETATM    3  C   UNL     1     -11.883  18.850   7.065  1.00  0.00     0.043 A 
HETATM    4  C   UNL     1     -12.112  20.228   7.099  1.00  0.00     0.031 A 
HETATM    5  C   UNL     1     -11.121  18.874   9.247  1.00  0.00     0.043 A 
HETATM    6  C   UNL     1     -10.915  19.421  11.386  1.00  0.00    -0.055 C 
HETATM    7  C   UNL     1     -11.149  20.625  10.716  1.00  0.00     0.021 C 
HETATM    8  C   UNL     1     -10.704  18.375  10.487  1.00  0.00     0.037 C 
HETATM    9  N   UNL     1     -11.368  18.185   8.120  1.00  0.00    -0.355 N 
ATOM     10  HN  UNL     1     -11.172  17.186   8.064  1.00  0.00     0.166 HD
ENDROOT
BRANCH   3  11
HETATM   11  C   UNL     1     -12.053  18.152   5.846  1.00  0.00    -0.009 C 
HETATM   12  C   UNL     1     -12.677  18.866   4.816  1.00  0.00     0.014 C 
HETATM   13  C   UNL     1     -13.760  18.276   4.178  1.00  0.00     0.002 C 
HETATM   14  C   UNL     1     -14.004  16.912   4.338  1.00  0.00     0.015 C 
HETATM   15  C   UNL     1     -13.098  16.146   5.064  1.00  0.00     0.034 C 
HETATM   16  C   UNL     1     -12.089  16.763   5.785  1.00  0.00     0.029 C 
BRANCH  15  17
HETATM   17  C   UNL     1     -13.163  14.632   5.073  1.00  0.00     0.307 C 
BRANCH  17  18
HETATM   18  O   UNL     1     -14.479  14.263   4.823  1.00  0.00    -0.340 OA
ATOM     19  HO  UNL     1     -14.579  14.138   3.887  1.00  0.00     0.216 HD
ENDBRANCH  17  18
BRANCH  17  20
HETATM   20  O   UNL     1     -12.393  14.160   4.061  1.00  0.00    -0.340 OA
ATOM     21  HO  UNL     1     -11.501  14.453   4.207  1.00  0.00     0.216 HD
ENDBRANCH  17  20
BRANCH  17  22
HETATM   22  O   UNL     1     -12.716  14.109   6.210  1.00  0.00    -0.340 OA
ATOM     23  HO  UNL     1     -12.685  13.161   6.170  1.00  0.00     0.216 HD
ENDBRANCH  17  22
ENDBRANCH  15  17
ENDBRANCH   3  11
BRANCH   6  24
HETATM   24  C   UNL     1     -11.165  19.220  12.844  1.00  0.00     0.040 C 
BRANCH  24  25
HETATM   25  C   UNL     1     -11.143  20.578  13.523  1.00  0.00     0.024 C 
BRANCH  25  26
HETATM   26  C   UNL     1     -11.424  20.362  14.993  1.00  0.00     0.120 C 
BRANCH  26  27
HETATM   27  N   UNL     1     -12.841  20.303  15.315  1.00  0.00    -0.392 N 
ATOM     28  HN  UNL     1     -13.486  21.044  15.043  1.00  0.00     0.159 HD
BRANCH  27  29
HETATM   29  C   UNL     1     -13.267  19.175  16.015  1.00  0.00     0.016 C 
HETATM   30  C   UNL     1     -13.866  18.045  15.233  1.00  0.00     0.069 C 
HETATM   31  C   UNL     1     -12.791  18.997  17.343  1.00  0.00     0.114 C 
BRANCH  31  32
HETATM   32  N   UNL     1     -13.572  18.642  18.435  1.00  0.00    -0.342 N 
ATOM     33  HN  UNL     1     -13.216  18.946  19.342  1.00  0.00     0.167 HD
BRANCH  32  34
HETATM   34  C   UNL     1     -14.718  17.963  18.474  1.00  0.00     0.352 C 
HETATM   35  O   UNL     1     -15.772  17.940  18.881  1.00  0.00    -0.283 OA
ENDBRANCH  32  34
ENDBRANCH  31  32
ENDBRANCH  27  29
ENDBRANCH  26  27
ENDBRANCH  25  26
ENDBRANCH  24  25
ENDBRANCH   6  24
TORSDOF 12
ENDMDL
MODEL 6
REMARK VINA RESULT:      -7.2      1.685      2.589
REMARK  12 active torsions:
REMARK  status: ('A' for Active; 'I' for Inactive)
REMARK    1  A    between atoms: C_4  and  O_10 
REMARK    2  A    between atoms: C_4  and  O_12 
REMARK    3  A    between atoms: C_4  and  C_16 
REMARK    4  A    between atoms: C_4  and  O_28 
REMARK    5  A    between atoms: N_5  and  C_17 
REMARK    6  A    between atoms: N_5  and  C_20 
REMARK    7  A    between atoms: C_14  and  C_31 
REMARK    8  A    between atoms: C_18  and  C_22 
REMARK    9  A    between atoms: C_18  and  C_30 
REMARK   10  A    between atoms: C_19  and  N_32 
REMARK   11  A    between atoms: C_22  and  N_32 
REMARK   12  A    between atoms: C_23  and  C_30 
ROOT
HETATM    1  C   UNL     1     -10.330  19.036   9.711  1.00  0.00    -0.009 A 
HETATM    2  C   UNL     1     -11.324  19.821   9.128  1.00  0.00     0.016 A 
HETATM    3  C   UNL     1     -11.433  18.212   7.342  1.00  0.00     0.043 A 
HETATM    4  C   UNL     1     -11.840  19.423   7.909  1.00  0.00     0.031 A 
HETATM    5  C   UNL     1      -9.904  17.875   9.041  1.00  0.00     0.043 A 
HETATM    6  C   UNL     1      -8.978  17.888  11.057  1.00  0.00    -0.055 C 
HETATM    7  C   UNL     1      -9.634  19.117  10.942  1.00  0.00     0.021 C 
HETATM    8  C   UNL     1      -8.971  17.204   9.841  1.00  0.00     0.037 C 
HETATM    9  N   UNL     1     -10.456  17.460   7.889  1.00  0.00    -0.355 N 
ATOM     10  HN  UNL     1     -10.146  16.599   7.441  1.00  0.00     0.166 HD
ENDROOT
BRANCH   3  11
HETATM   11  C   UNL     1     -11.949  17.832   6.080  1.00  0.00    -0.009 C 
HETATM   12  C   UNL     1     -12.706  18.802   5.413  1.00  0.00     0.014 C 
HETATM   13  C   UNL     1     -13.963  18.441   4.947  1.00  0.00     0.002 C 
HETATM   14  C   UNL     1     -14.314  17.093   4.863  1.00  0.00     0.015 C 
HETATM   15  C   UNL     1     -13.357  16.129   5.163  1.00  0.00     0.034 C 
HETATM   16  C   UNL     1     -12.150  16.501   5.731  1.00  0.00     0.029 C 
BRANCH  15  17
HETATM   17  C   UNL     1     -13.585  14.662   4.860  1.00  0.00     0.307 C 
BRANCH  17  18
HETATM   18  O   UNL     1     -14.722  14.564   4.067  1.00  0.00    -0.340 OA
ATOM     19  HO  UNL     1     -14.642  13.783   3.531  1.00  0.00     0.216 HD
ENDBRANCH  17  18
BRANCH  17  20
HETATM   20  O   UNL     1     -12.529  14.199   4.144  1.00  0.00    -0.340 OA
ATOM     21  HO  UNL     1     -11.875  14.887   4.105  1.00  0.00     0.216 HD
ENDBRANCH  17  20
BRANCH  17  22
HETATM   22  O   UNL     1     -13.692  13.924   5.961  1.00  0.00    -0.340 OA
ATOM     23  HO  UNL     1     -13.515  13.007   5.786  1.00  0.00     0.216 HD
ENDBRANCH  17  22
ENDBRANCH  15  17
ENDBRANCH   3  11
BRANCH   6  24
HETATM   24  C   UNL     1      -8.613  17.259  12.360  1.00  0.00     0.040 C 
BRANCH  24  25
HETATM   25  C   UNL     1      -9.855  16.600  12.935  1.00  0.00     0.024 C 
BRANCH  25  26
HETATM   26  C   UNL     1     -10.300  17.417  14.127  1.00  0.00     0.120 C 
BRANCH  26  27
HETATM   27  N   UNL     1     -11.735  17.378  14.359  1.00  0.00    -0.392 N 
ATOM     28  HN  UNL     1     -12.284  16.532  14.202  1.00  0.00     0.159 HD
BRANCH  27  29
HETATM   29  C   UNL     1     -12.319  18.561  14.810  1.00  0.00     0.016 C 
HETATM   30  C   UNL     1     -13.816  18.640  14.845  1.00  0.00     0.069 C 
HETATM   31  C   UNL     1     -11.505  19.469  15.540  1.00  0.00     0.114 C 
BRANCH  31  32
HETATM   32  N   UNL     1     -11.447  20.841  15.334  1.00  0.00    -0.342 N 
ATOM     33  HN  UNL     1     -11.334  21.403  16.178  1.00  0.00     0.167 HD
BRANCH  32  34
HETATM   34  C   UNL     1     -11.517  21.532  14.196  1.00  0.00     0.352 C 
HETATM   35  O   UNL     1     -10.958  21.859  13.272  1.00  0.00    -0.283 OA
ENDBRANCH  32  34
ENDBRANCH  31  32
ENDBRANCH  27  29
ENDBRANCH  26  27
ENDBRANCH  25  26
ENDBRANCH  24  25
ENDBRANCH   6  24
TORSDOF 12
ENDMDL
MODEL 7
REMARK VINA RESULT:      -7.1      3.514      5.007
REMARK  12 active torsions:
REMARK  status: ('A' for Active; 'I' for Inactive)
REMARK    1  A    between atoms: C_4  and  O_10 
REMARK    2  A    between atoms: C_4  and  O_12 
REMARK    3  A    between atoms: C_4  and  C_16 
REMARK    4  A    between atoms: C_4  and  O_28 
REMARK    5  A    between atoms: N_5  and  C_17 
REMARK    6  A    between atoms: N_5  and  C_20 
REMARK    7  A    between atoms: C_14  and  C_31 
REMARK    8  A    between atoms: C_18  and  C_22 
REMARK    9  A    between atoms: C_18  and  C_30 
REMARK   10  A    between atoms: C_19  and  N_32 
REMARK   11  A    between atoms: C_22  and  N_32 
REMARK   12  A    between atoms: C_23  and  C_30 
ROOT
HETATM    1  C   UNL     1     -11.377  20.126   9.409  1.00  0.00    -0.009 A 
HETATM    2  C   UNL     1     -11.900  20.866   8.350  1.00  0.00     0.016 A 
HETATM    3  C   UNL     1     -11.896  18.845   7.043  1.00  0.00     0.043 A 
HETATM    4  C   UNL     1     -12.113  20.221   7.145  1.00  0.00     0.031 A 
HETATM    5  C   UNL     1     -11.098  18.762   9.211  1.00  0.00     0.043 A 
HETATM    6  C   UNL     1     -10.853  19.209  11.369  1.00  0.00    -0.055 C 
HETATM    7  C   UNL     1     -11.088  20.444  10.759  1.00  0.00     0.021 C 
HETATM    8  C   UNL     1     -10.665  18.204  10.420  1.00  0.00     0.037 C 
HETATM    9  N   UNL     1     -11.369  18.128   8.058  1.00  0.00    -0.355 N 
ATOM     10  HN  UNL     1     -11.182  17.132   7.952  1.00  0.00     0.166 HD
ENDROOT
BRANCH   3  11
HETATM   11  C   UNL     1     -12.091  18.205   5.797  1.00  0.00    -0.009 C 
HETATM   12  C   UNL     1     -12.614  19.006   4.774  1.00  0.00     0.014 C 
HETATM   13  C   UNL     1     -13.726  18.541   4.086  1.00  0.00     0.002 C 
HETATM   14  C   UNL     1     -14.100  17.201   4.192  1.00  0.00     0.015 C 
HETATM   15  C   UNL     1     -13.291  16.332   4.916  1.00  0.00     0.034 C 
HETATM   16  C   UNL     1     -12.253  16.828   5.687  1.00  0.00     0.029 C 
BRANCH  15  17
HETATM   17  C   UNL     1     -13.496  14.831   4.870  1.00  0.00     0.307 C 
BRANCH  17  18
HETATM   18  O   UNL     1     -12.380  14.268   4.263  1.00  0.00    -0.340 OA
ATOM     19  HO  UNL     1     -11.678  14.239   4.903  1.00  0.00     0.216 HD
ENDBRANCH  17  18
BRANCH  17  20
HETATM   20  O   UNL     1     -13.565  14.365   6.143  1.00  0.00    -0.340 OA
ATOM     21  HO  UNL     1     -13.215  13.482   6.154  1.00  0.00     0.216 HD
ENDBRANCH  17  20
BRANCH  17  22
HETATM   22  O   UNL     1     -14.618  14.487   4.245  1.00  0.00    -0.340 OA
ATOM     23  HO  UNL     1     -15.055  13.766   4.682  1.00  0.00     0.216 HD
ENDBRANCH  17  22
ENDBRANCH  15  17
ENDBRANCH   3  11
BRANCH   6  24
HETATM   24  C   UNL     1     -11.081  18.942  12.820  1.00  0.00     0.040 C 
BRANCH  24  25
HETATM   25  C   UNL     1     -11.613  17.527  12.966  1.00  0.00     0.024 C 
BRANCH  25  26
HETATM   26  C   UNL     1     -10.990  16.926  14.207  1.00  0.00     0.120 C 
BRANCH  26  27
HETATM   27  N   UNL     1      -9.669  16.362  13.981  1.00  0.00    -0.392 N 
ATOM     28  HN  UNL     1      -8.824  16.808  14.339  1.00  0.00     0.159 HD
BRANCH  27  29
HETATM   29  C   UNL     1      -9.622  15.176  13.248  1.00  0.00     0.016 C 
HETATM   30  C   UNL     1     -10.780  14.232  13.362  1.00  0.00     0.069 C 
HETATM   31  C   UNL     1      -8.689  15.092  12.179  1.00  0.00     0.114 C 
BRANCH  31  32
HETATM   32  N   UNL     1      -7.848  14.015  11.931  1.00  0.00    -0.342 N 
ATOM     33  HN  UNL     1      -7.892  13.261  12.616  1.00  0.00     0.167 HD
BRANCH  32  34
HETATM   34  C   UNL     1      -6.990  13.822  10.928  1.00  0.00     0.352 C 
HETATM   35  O   UNL     1      -6.771  13.227   9.994  1.00  0.00    -0.283 OA
ENDBRANCH  32  34
ENDBRANCH  31  32
ENDBRANCH  27  29
ENDBRANCH  26  27
ENDBRANCH  25  26
ENDBRANCH  24  25
ENDBRANCH   6  24
TORSDOF 12
ENDMDL
MODEL 8
REMARK VINA RESULT:      -6.9      1.881      2.439
REMARK  12 active torsions:
REMARK  status: ('A' for Active; 'I' for Inactive)
REMARK    1  A    between atoms: C_4  and  O_10 
REMARK    2  A    between atoms: C_4  and  O_12 
REMARK    3  A    between atoms: C_4  and  C_16 
REMARK    4  A    between atoms: C_4  and  O_28 
REMARK    5  A    between atoms: N_5  and  C_17 
REMARK    6  A    between atoms: N_5  and  C_20 
REMARK    7  A    between atoms: C_14  and  C_31 
REMARK    8  A    between atoms: C_18  and  C_22 
REMARK    9  A    between atoms: C_18  and  C_30 
REMARK   10  A    between atoms: C_19  and  N_32 
REMARK   11  A    between atoms: C_22  and  N_32 
REMARK   12  A    between atoms: C_23  and  C_30 
ROOT
HETATM    1  C   UNL     1     -11.234  19.915   9.728  1.00  0.00    -0.009 A 
HETATM    2  C   UNL     1     -11.859  20.675   8.741  1.00  0.00     0.016 A 
HETATM    3  C   UNL     1     -11.812  18.727   7.329  1.00  0.00     0.043 A 
HETATM    4  C   UNL     1     -12.103  20.080   7.516  1.00  0.00     0.031 A 
HETATM    5  C   UNL     1     -10.887  18.583   9.442  1.00  0.00     0.043 A 
HETATM    6  C   UNL     1     -10.545  18.934  11.605  1.00  0.00    -0.055 C 
HETATM    7  C   UNL     1     -10.887  20.182  11.076  1.00  0.00     0.021 C 
HETATM    8  C   UNL     1     -10.354  17.992  10.593  1.00  0.00     0.037 C 
HETATM    9  N   UNL     1     -11.187  17.993   8.273  1.00  0.00    -0.355 N 
ATOM     10  HN  UNL     1     -10.948  17.017   8.103  1.00  0.00     0.166 HD
ENDROOT
BRANCH   3  11
HETATM   11  C   UNL     1     -12.041  18.140   6.061  1.00  0.00    -0.009 C 
HETATM   12  C   UNL     1     -12.552  18.994   5.077  1.00  0.00     0.014 C 
HETATM   13  C   UNL     1     -13.685  18.587   4.386  1.00  0.00     0.002 C 
HETATM   14  C   UNL     1     -14.097  17.256   4.446  1.00  0.00     0.015 C 
HETATM   15  C   UNL     1     -13.306  16.337   5.127  1.00  0.00     0.034 C 
HETATM   16  C   UNL     1     -12.244  16.774   5.902  1.00  0.00     0.029 C 
BRANCH  15  17
HETATM   17  C   UNL     1     -13.555  14.845   5.028  1.00  0.00     0.307 C 
BRANCH  17  18
HETATM   18  O   UNL     1     -14.702  14.656   4.267  1.00  0.00    -0.340 OA
ATOM     19  HO  UNL     1     -15.354  14.234   4.815  1.00  0.00     0.216 HD
ENDBRANCH  17  18
BRANCH  17  20
HETATM   20  O   UNL     1     -12.513  14.275   4.371  1.00  0.00    -0.340 OA
ATOM     21  HO  UNL     1     -12.727  13.364   4.211  1.00  0.00     0.216 HD
ENDBRANCH  17  20
BRANCH  17  22
HETATM   22  O   UNL     1     -13.657  14.265   6.220  1.00  0.00    -0.340 OA
ATOM     23  HO  UNL     1     -14.564  14.158   6.480  1.00  0.00     0.216 HD
ENDBRANCH  17  22
ENDBRANCH  15  17
ENDBRANCH   3  11
BRANCH   6  24
HETATM   24  C   UNL     1     -10.673  18.580  13.049  1.00  0.00     0.040 C 
BRANCH  24  25
HETATM   25  C   UNL     1     -12.113  18.816  13.472  1.00  0.00     0.024 C 
BRANCH  25  26
HETATM   26  C   UNL     1     -12.091  19.623  14.752  1.00  0.00     0.120 C 
BRANCH  26  27
HETATM   27  N   UNL     1     -12.178  21.059  14.538  1.00  0.00    -0.392 N 
ATOM     28  HN  UNL     1     -13.073  21.535  14.439  1.00  0.00     0.159 HD
BRANCH  27  29
HETATM   29  C   UNL     1     -10.966  21.747  14.478  1.00  0.00     0.016 C 
HETATM   30  C   UNL     1     -10.914  23.014  13.678  1.00  0.00     0.069 C 
HETATM   31  C   UNL     1      -9.972  21.430  15.444  1.00  0.00     0.114 C 
BRANCH  31  32
HETATM   32  N   UNL     1      -8.628  21.215  15.173  1.00  0.00    -0.342 N 
ATOM     33  HN  UNL     1      -8.100  22.046  14.903  1.00  0.00     0.167 HD
BRANCH  32  34
HETATM   34  C   UNL     1      -7.924  20.083  15.212  1.00  0.00     0.352 C 
HETATM   35  O   UNL     1      -7.678  19.163  15.819  1.00  0.00    -0.283 OA
ENDBRANCH  32  34
ENDBRANCH  31  32
ENDBRANCH  27  29
ENDBRANCH  26  27
ENDBRANCH  25  26
ENDBRANCH  24  25
ENDBRANCH   6  24
TORSDOF 12
ENDMDL
MODEL 9
REMARK VINA RESULT:      -6.9      3.605      5.704
REMARK  12 active torsions:
REMARK  status: ('A' for Active; 'I' for Inactive)
REMARK    1  A    between atoms: C_4  and  O_10 
REMARK    2  A    between atoms: C_4  and  O_12 
REMARK    3  A    between atoms: C_4  and  C_16 
REMARK    4  A    between atoms: C_4  and  O_28 
REMARK    5  A    between atoms: N_5  and  C_17 
REMARK    6  A    between atoms: N_5  and  C_20 
REMARK    7  A    between atoms: C_14  and  C_31 
REMARK    8  A    between atoms: C_18  and  C_22 
REMARK    9  A    between atoms: C_18  and  C_30 
REMARK   10  A    between atoms: C_19  and  N_32 
REMARK   11  A    between atoms: C_22  and  N_32 
REMARK   12  A    between atoms: C_23  and  C_30 
ROOT
HETATM    1  C   UNL     1     -11.178  20.023   9.593  1.00  0.00    -0.009 A 
HETATM    2  C   UNL     1     -11.845  20.750   8.608  1.00  0.00     0.016 A 
HETATM    3  C   UNL     1     -11.830  18.766   7.248  1.00  0.00     0.043 A 
HETATM    4  C   UNL     1     -12.127  20.121   7.409  1.00  0.00     0.031 A 
HETATM    5  C   UNL     1     -10.829  18.687   9.329  1.00  0.00     0.043 A 
HETATM    6  C   UNL     1     -10.413  19.098  11.468  1.00  0.00    -0.055 C 
HETATM    7  C   UNL     1     -10.786  20.329  10.919  1.00  0.00     0.021 C 
HETATM    8  C   UNL     1     -10.249  18.132  10.476  1.00  0.00     0.037 C 
HETATM    9  N   UNL     1     -11.164  18.063   8.187  1.00  0.00    -0.355 N 
ATOM     10  HN  UNL     1     -10.922  17.085   8.035  1.00  0.00     0.166 HD
ENDROOT
BRANCH   3  11
HETATM   11  C   UNL     1     -12.098  18.143   6.005  1.00  0.00    -0.009 C 
HETATM   12  C   UNL     1     -12.833  18.904   5.088  1.00  0.00     0.014 C 
HETATM   13  C   UNL     1     -13.957  18.326   4.515  1.00  0.00     0.002 C 
HETATM   14  C   UNL     1     -14.154  16.947   4.605  1.00  0.00     0.015 C 
HETATM   15  C   UNL     1     -13.166  16.163   5.190  1.00  0.00     0.034 C 
HETATM   16  C   UNL     1     -12.107  16.761   5.855  1.00  0.00     0.029 C 
BRANCH  15  17
HETATM   17  C   UNL     1     -13.195  14.650   5.103  1.00  0.00     0.307 C 
BRANCH  17  18
HETATM   18  O   UNL     1     -14.509  14.265   4.865  1.00  0.00    -0.340 OA
ATOM     19  HO  UNL     1     -14.933  14.128   5.704  1.00  0.00     0.216 HD
ENDBRANCH  17  18
BRANCH  17  20
HETATM   20  O   UNL     1     -12.442  14.264   4.043  1.00  0.00    -0.340 OA
ATOM     21  HO  UNL     1     -12.346  13.319   4.077  1.00  0.00     0.216 HD
ENDBRANCH  17  20
BRANCH  17  22
HETATM   22  O   UNL     1     -12.704  14.067   6.192  1.00  0.00    -0.340 OA
ATOM     23  HO  UNL     1     -11.784  13.855   6.090  1.00  0.00     0.216 HD
ENDBRANCH  17  22
ENDBRANCH  15  17
ENDBRANCH   3  11
BRANCH   6  24
HETATM   24  C   UNL     1     -10.486  18.783  12.925  1.00  0.00     0.040 C 
BRANCH  24  25
HETATM   25  C   UNL     1     -11.342  17.540  13.101  1.00  0.00     0.024 C 
BRANCH  25  26
HETATM   26  C   UNL     1     -10.604  16.601  14.029  1.00  0.00     0.120 C 
BRANCH  26  27
HETATM   27  N   UNL     1     -11.093  15.232  13.984  1.00  0.00    -0.392 N 
ATOM     28  HN  UNL     1     -12.043  14.990  14.266  1.00  0.00     0.159 HD
BRANCH  27  29
HETATM   29  C   UNL     1     -10.190  14.269  13.533  1.00  0.00     0.016 C 
HETATM   30  C   UNL     1      -9.144  14.692  12.547  1.00  0.00     0.069 C 
HETATM   31  C   UNL     1     -10.070  13.067  14.283  1.00  0.00     0.114 C 
BRANCH  31  32
HETATM   32  N   UNL     1     -10.044  11.786  13.747  1.00  0.00    -0.342 N 
ATOM     33  HN  UNL     1      -9.775  11.730  12.765  1.00  0.00     0.167 HD
BRANCH  32  34
HETATM   34  C   UNL     1     -10.321  10.618  14.328  1.00  0.00     0.352 C 
HETATM   35  O   UNL     1     -11.059   9.766  14.396  1.00  0.00    -0.283 OA
ENDBRANCH  32  34
ENDBRANCH  31  32
ENDBRANCH  27  29
ENDBRANCH  26  27
ENDBRANCH  25  26
ENDBRANCH  24  25
ENDBRANCH   6  24
TORSDOF 12
ENDMDL
