REMARK  2 active torsions:
REMARK  status: ('A' for Active; 'I' for Inactive)
REMARK    1  A    between atoms: C_1  and  O_23 
REMARK    2  A    between atoms: C_11  and  C_15 
ROOT
HETATM    1  C   UNL     1      10.293  15.591 -10.153  1.00  0.00     0.079 C 
HETATM    2  C   UNL     1      12.244  17.738  -6.320  1.00  0.00    -0.030 C 
HETATM    3  C   UNL     1      12.482  16.513 -10.551  1.00  0.00    -0.042 C 
HETATM    4  C   UNL     1      12.753  18.074  -8.766  1.00  0.00     0.045 C 
HETATM    5  C   UNL     1      10.221  15.168 -11.478  1.00  0.00     0.044 C 
HETATM    6  N   UNL     1      10.447  17.811  -7.919  1.00  0.00    -0.358 N 
ATOM      7  HN  UNL     1       9.485  18.026  -8.181  1.00  0.00     0.166 HD
HETATM    8  C   UNL     1      11.376  17.506  -8.812  1.00  0.00     0.028 C 
HETATM    9  C   UNL     1      13.553  17.220  -9.775  1.00  0.00     0.050 C 
HETATM   10  C   UNL     1      11.627  16.995  -4.101  1.00  0.00    -0.049 C 
HETATM   11  C   UNL     1      10.328  17.448  -4.319  1.00  0.00     0.010 C 
HETATM   12  C   UNL     1      13.316  17.917  -7.360  1.00  0.00     0.052 C 
HETATM   13  C   UNL     1      11.282  16.511  -9.823  1.00  0.00     0.026 C 
HETATM   14  C   UNL     1      12.483  15.959 -11.826  1.00  0.00     0.015 C 
HETATM   15  C   UNL     1      11.258  14.884 -13.731  1.00  0.00     0.048 C 
HETATM   16  C   UNL     1       9.943  17.890  -5.574  1.00  0.00     0.030 C 
HETATM   17  C   UNL     1      12.598  17.374  -5.025  1.00  0.00     0.017 C 
HETATM   18  C   UNL     1      10.873  17.816  -6.616  1.00  0.00     0.038 C 
HETATM   19  C   UNL     1      11.313  15.378 -12.312  1.00  0.00    -0.059 C 
ENDROOT
BRANCH  10  20
HETATM   20  C   UNL     1      11.975  16.186  -2.873  1.00  0.00    -0.013 C 
HETATM   21  C   UNL     1      11.202  16.605  -1.605  1.00  0.00     0.015 C 
HETATM   22  C   UNL     1      12.003  15.929  -0.484  1.00  0.00     0.005 C 
HETATM   23  C   UNL     1      13.200  15.306  -1.240  1.00  0.00    -0.013 C 
HETATM   24  C   UNL     1      12.580  14.072  -1.954  1.00  0.00     0.005 C 
HETATM   25  C   UNL     1      13.433  16.244  -2.430  1.00  0.00     0.019 C 
HETATM   26  C   UNL     1      11.762  14.686  -3.091  1.00  0.00     0.015 C 
ENDBRANCH  10  20
BRANCH   1  27
HETATM   27  O   UNL     1       9.548  14.992  -9.211  1.00  0.00    -0.360 OA
ATOM     28  HO  UNL     1       9.597  15.281  -8.307  1.00  0.00     0.217 HD
ENDBRANCH   1  27
TORSDOF 2
