MODEL 1
REMARK VINA RESULT:     -12.2      0.000      0.000
REMARK  5 active torsions:
REMARK  status: ('A' for Active; 'I' for Inactive)
REMARK    1  A    between atoms: O_6  and  C_15 
REMARK    2  A    between atoms: O_6  and  C_22 
REMARK    3  A    between atoms: C_9  and  O_30 
REMARK    4  A    between atoms: C_10  and  O_32 
REMARK    5  A    between atoms: C_16  and  O_18 
ROOT
HETATM    1  C   UNL     1      40.358  12.281  84.527  1.00  0.00     0.028 C 
HETATM    2  C   UNL     1      43.274  14.483  83.397  1.00  0.00    -0.023 C 
HETATM    3  C   UNL     1      37.912  14.955  85.549  1.00  0.00     0.018 C 
HETATM    4  C   UNL     1      38.581  17.287  85.458  1.00  0.00     0.330 C 
HETATM    5  C   UNL     1      44.140  13.602  82.779  1.00  0.00     0.015 C 
HETATM    6  C   UNL     1      42.071  14.086  84.065  1.00  0.00    -0.045 C 
HETATM    7  C   UNL     1      37.048  18.364  86.924  1.00  0.00     0.289 C 
HETATM    8  C   UNL     1      45.049  14.983  81.014  1.00  0.00     0.098 C 
HETATM    9  C   UNL     1      45.102  13.875  81.843  1.00  0.00     0.040 C 
HETATM   10  C   UNL     1      43.483  15.842  83.581  1.00  0.00    -0.044 C 
HETATM   11  C   UNL     1      41.557  12.871  83.837  1.00  0.00    -0.018 C 
HETATM   12  C   UNL     1      40.135  15.585  84.665  1.00  0.00     0.201 C 
HETATM   13  C   UNL     1      36.663  16.891  86.817  1.00  0.00     0.198 C 
HETATM   14  C   UNL     1      44.333  16.105  81.375  1.00  0.00     0.099 C 
HETATM   15  C   UNL     1      37.923  16.234  86.335  1.00  0.00     0.077 C 
HETATM   16  O   UNL     1      38.195  18.516  86.094  1.00  0.00    -0.326 OA
HETATM   17  C   UNL     1      44.212  16.586  82.668  1.00  0.00     0.047 C 
HETATM   18  C   UNL     1      39.341  14.450  85.351  1.00  0.00     0.018 C 
HETATM   19  C   UNL     1      41.613  15.208  84.975  1.00  0.00     0.054 C 
HETATM   20  N   UNL     1      39.994  16.796  85.549  1.00  0.00    -0.043 N 
ATOM     21  HN1 UNL     1      40.286  16.617  86.510  1.00  0.00     0.280 HD
ATOM     22  HN2 UNL     1      40.676  17.523  85.331  1.00  0.00     0.280 HD
HETATM   23  C   UNL     1      39.179  13.221  84.467  1.00  0.00     0.010 C 
HETATM   24  C   UNL     1      42.526  16.381  84.597  1.00  0.00     0.051 C 
ENDROOT
BRANCH  13  25
HETATM   25  O   UNL     1      36.464  16.330  88.105  1.00  0.00    -0.285 OA
BRANCH  25  26
HETATM   26  C   UNL     1      35.178  16.317  88.633  1.00  0.00     0.333 C 
HETATM   27  O   UNL     1      34.778  17.238  89.336  1.00  0.00    -0.624 OA
HETATM   28  O   UNL     1      34.459  15.362  88.194  1.00  0.00    -0.624 OA
ENDBRANCH  25  26
ENDBRANCH  13  25
BRANCH   7  29
HETATM   29  O   UNL     1      35.940  19.156  86.529  1.00  0.00    -0.368 OA
ATOM     30  HO  UNL     1      36.250  19.855  85.966  1.00  0.00     0.212 HD
ENDBRANCH   7  29
BRANCH  14  31
HETATM   31  O   UNL     1      43.590  16.659  80.381  1.00  0.00    -0.358 OA
ATOM     32  HO  UNL     1      43.674  16.238  79.534  1.00  0.00     0.217 HD
ENDBRANCH  14  31
BRANCH   8  33
HETATM   33  O   UNL     1      45.571  14.940  79.751  1.00  0.00    -0.358 OA
ATOM     34  HO  UNL     1      45.885  15.730  79.326  1.00  0.00     0.217 HD
ENDBRANCH   8  33
TORSDOF 5
ENDMDL
