MODEL 1
REMARK VINA RESULT:      -8.7      0.000      0.000
REMARK  4 active torsions:
REMARK  status: ('A' for Active; 'I' for Inactive)
REMARK    1  A    between atoms: O_3  and  C_18 
REMARK    2  A    between atoms: N_9  and  C_19 
REMARK    3  A    between atoms: C_10  and  O_22 
REMARK    4  A    between atoms: C_21  and  P_24 
ROOT
HETATM    1  C   UNL     1      -5.987   5.621  12.884  1.00  0.00     0.060 C 
HETATM    2  C   UNL     1      -7.289   5.100  13.162  1.00  0.00     0.033 C 
HETATM    3  C   UNL     1      -3.923   6.127  13.269  1.00  0.00     0.189 C 
HETATM    4  C   UNL     1      -5.572   6.564  11.902  1.00  0.00     0.067 C 
HETATM    5  N   UNL     1      -4.252   6.754  12.147  1.00  0.00    -0.306 N 
HETATM    6  C   UNL     1      -8.411   5.593  12.582  1.00  0.00     0.024 C 
HETATM    7  C   UNL     1      -6.346   7.080  10.844  1.00  0.00     0.033 C 
HETATM    8  N   UNL     1      -4.928   5.357  13.664  1.00  0.00    -0.350 N 
ATOM      9  HN  UNL     1      -4.900   4.680  14.426  1.00  0.00     0.166 HD
HETATM   10  C   UNL     1      -7.632   6.704  10.453  1.00  0.00     0.024 C 
HETATM   11  C   UNL     1      -8.427   5.788  11.158  1.00  0.00     0.068 C 
ENDROOT
BRANCH   5  12
HETATM   12  C   UNL     1      -3.269   7.360  11.411  1.00  0.00     0.043 C 
HETATM   13  C   UNL     1      -2.853   6.817  10.184  1.00  0.00     0.033 C 
HETATM   14  C   UNL     1      -2.920   7.674   9.073  1.00  0.00     0.041 C 
HETATM   15  C   UNL     1      -3.176   9.018   9.348  1.00  0.00     0.098 C 
HETATM   16  C   UNL     1      -2.779   9.528  10.597  1.00  0.00     0.101 C 
HETATM   17  C   UNL     1      -2.832   8.665  11.697  1.00  0.00     0.069 C 
BRANCH  15  18
HETATM   18  O   UNL     1      -3.969   9.764   8.559  1.00  0.00    -0.358 OA
ATOM     19  HO  UNL     1      -4.850   9.490   8.334  1.00  0.00     0.217 HD
ENDBRANCH  15  18
BRANCH  16  20
HETATM   20  O   UNL     1      -2.366  10.819  10.670  1.00  0.00    -0.358 OA
ATOM     21  HO  UNL     1      -1.455  10.994  10.871  1.00  0.00     0.217 HD
ENDBRANCH  16  20
ENDBRANCH   5  12
BRANCH  11  22
HETATM   22  P   UNL     1      -9.210   4.411  10.348  1.00  0.00     0.295 P 
HETATM   23  O   UNL     1      -8.295   4.153   9.211  1.00  0.00    -0.636 OA
HETATM   24  O   UNL     1     -10.603   4.721   9.889  1.00  0.00    -0.636 OA
HETATM   25  O   UNL     1      -9.371   3.463  11.518  1.00  0.00    -0.636 OA
ENDBRANCH  11  22
TORSDOF 4
ENDMDL
MODEL 2
REMARK VINA RESULT:      -8.4      2.432      6.735
REMARK  4 active torsions:
REMARK  status: ('A' for Active; 'I' for Inactive)
REMARK    1  A    between atoms: O_3  and  C_18 
REMARK    2  A    between atoms: N_9  and  C_19 
REMARK    3  A    between atoms: C_10  and  O_22 
REMARK    4  A    between atoms: C_21  and  P_24 
ROOT
HETATM    1  C   UNL     1      -4.953   6.222  12.636  1.00  0.00     0.060 C 
HETATM    2  C   UNL     1      -3.647   6.725  12.344  1.00  0.00     0.033 C 
HETATM    3  C   UNL     1      -6.481   5.184  13.755  1.00  0.00     0.189 C 
HETATM    4  C   UNL     1      -6.056   5.988  11.767  1.00  0.00     0.067 C 
HETATM    5  N   UNL     1      -7.004   5.429  12.560  1.00  0.00    -0.306 N 
HETATM    6  C   UNL     1      -3.204   6.911  11.076  1.00  0.00     0.024 C 
HETATM    7  C   UNL     1      -6.164   6.369  10.415  1.00  0.00     0.033 C 
HETATM    8  N   UNL     1      -5.286   5.753  13.847  1.00  0.00    -0.350 N 
ATOM      9  HN  UNL     1      -4.720   5.821  14.693  1.00  0.00     0.166 HD
HETATM   10  C   UNL     1      -5.284   7.153   9.667  1.00  0.00     0.024 C 
HETATM   11  C   UNL     1      -4.045   7.608  10.143  1.00  0.00     0.068 C 
ENDROOT
BRANCH   5  12
HETATM   12  C   UNL     1      -8.337   5.195  12.357  1.00  0.00     0.043 C 
HETATM   13  C   UNL     1      -8.808   4.766  11.104  1.00  0.00     0.033 C 
HETATM   14  C   UNL     1      -9.551   3.575  11.097  1.00  0.00     0.041 C 
HETATM   15  C   UNL     1      -9.924   3.076  12.345  1.00  0.00     0.098 C 
HETATM   16  C   UNL     1     -10.081   3.986  13.405  1.00  0.00     0.101 C 
HETATM   17  C   UNL     1      -9.242   5.106  13.428  1.00  0.00     0.069 C 
BRANCH  15  18
HETATM   18  O   UNL     1      -9.923   1.757  12.610  1.00  0.00    -0.358 OA
ATOM     19  HO  UNL     1      -9.125   1.292  12.830  1.00  0.00     0.217 HD
ENDBRANCH  15  18
BRANCH  16  20
HETATM   20  O   UNL     1     -11.030   3.735  14.342  1.00  0.00    -0.358 OA
ATOM     21  HO  UNL     1     -11.847   3.337  14.066  1.00  0.00     0.217 HD
ENDBRANCH  16  20
ENDBRANCH   5  12
BRANCH  11  22
HETATM   22  P   UNL     1      -3.571   9.319  10.032  1.00  0.00     0.295 P 
HETATM   23  O   UNL     1      -4.300   9.922  11.171  1.00  0.00    -0.636 OA
HETATM   24  O   UNL     1      -3.954   9.945   8.725  1.00  0.00    -0.636 OA
HETATM   25  O   UNL     1      -2.064   9.181   9.987  1.00  0.00    -0.636 OA
ENDBRANCH  11  22
TORSDOF 4
ENDMDL
MODEL 3
REMARK VINA RESULT:      -8.3      1.306      1.497
REMARK  4 active torsions:
REMARK  status: ('A' for Active; 'I' for Inactive)
REMARK    1  A    between atoms: O_3  and  C_18 
REMARK    2  A    between atoms: N_9  and  C_19 
REMARK    3  A    between atoms: C_10  and  O_22 
REMARK    4  A    between atoms: C_21  and  P_24 
ROOT
HETATM    1  C   UNL     1      -6.541   5.886  11.793  1.00  0.00     0.060 C 
HETATM    2  C   UNL     1      -7.771   5.165  11.695  1.00  0.00     0.033 C 
HETATM    3  C   UNL     1      -4.751   6.650  12.730  1.00  0.00     0.189 C 
HETATM    4  C   UNL     1      -6.042   6.952  10.992  1.00  0.00     0.067 C 
HETATM    5  N   UNL     1      -4.876   7.309  11.586  1.00  0.00    -0.306 N 
HETATM    6  C   UNL     1      -8.770   5.537  10.858  1.00  0.00     0.024 C 
HETATM    7  C   UNL     1      -6.591   7.435   9.788  1.00  0.00     0.033 C 
HETATM    8  N   UNL     1      -5.688   5.715  12.814  1.00  0.00    -0.350 N 
ATOM      9  HN  UNL     1      -5.750   4.991  13.530  1.00  0.00     0.166 HD
HETATM   10  C   UNL     1      -7.658   6.911   9.056  1.00  0.00     0.024 C 
HETATM   11  C   UNL     1      -8.452   5.838   9.489  1.00  0.00     0.068 C 
ENDROOT
BRANCH   5  12
HETATM   12  C   UNL     1      -3.846   8.106  11.161  1.00  0.00     0.043 C 
HETATM   13  C   UNL     1      -2.645   7.540  10.701  1.00  0.00     0.033 C 
HETATM   14  C   UNL     1      -2.236   7.919   9.412  1.00  0.00     0.041 C 
HETATM   15  C   UNL     1      -2.941   8.972   8.829  1.00  0.00     0.098 C 
HETATM   16  C   UNL     1      -3.538   9.923   9.676  1.00  0.00     0.101 C 
HETATM   17  C   UNL     1      -4.029   9.475  10.908  1.00  0.00     0.069 C 
BRANCH  15  18
HETATM   18  O   UNL     1      -3.243   8.982   7.518  1.00  0.00    -0.358 OA
ATOM     19  HO  UNL     1      -3.180   9.773   6.996  1.00  0.00     0.217 HD
ENDBRANCH  15  18
BRANCH  16  20
HETATM   20  O   UNL     1      -3.606  11.213   9.260  1.00  0.00    -0.358 OA
ATOM     21  HO  UNL     1      -4.279  11.774   9.626  1.00  0.00     0.217 HD
ENDBRANCH  16  20
ENDBRANCH   5  12
BRANCH  11  22
HETATM   22  P   UNL     1      -8.773   4.432   8.448  1.00  0.00     0.295 P 
HETATM   23  O   UNL     1      -7.410   4.042   8.016  1.00  0.00    -0.636 OA
HETATM   24  O   UNL     1      -9.659   4.759   7.285  1.00  0.00    -0.636 OA
HETATM   25  O   UNL     1      -9.622   3.592   9.380  1.00  0.00    -0.636 OA
ENDBRANCH  11  22
TORSDOF 4
ENDMDL
MODEL 4
REMARK VINA RESULT:      -7.4      2.861      6.998
REMARK  4 active torsions:
REMARK  status: ('A' for Active; 'I' for Inactive)
REMARK    1  A    between atoms: O_3  and  C_18 
REMARK    2  A    between atoms: N_9  and  C_19 
REMARK    3  A    between atoms: C_10  and  O_22 
REMARK    4  A    between atoms: C_21  and  P_24 
ROOT
HETATM    1  C   UNL     1      -6.750   5.841  12.472  1.00  0.00     0.060 C 
HETATM    2  C   UNL     1      -5.460   6.298  12.884  1.00  0.00     0.033 C 
HETATM    3  C   UNL     1      -8.719   4.980  12.688  1.00  0.00     0.189 C 
HETATM    4  C   UNL     1      -7.217   5.475  11.178  1.00  0.00     0.067 C 
HETATM    5  N   UNL     1      -8.486   5.040  11.383  1.00  0.00    -0.306 N 
HETATM    6  C   UNL     1      -4.385   6.291  12.058  1.00  0.00     0.024 C 
HETATM    7  C   UNL     1      -6.542   5.647   9.954  1.00  0.00     0.033 C 
HETATM    8  N   UNL     1      -7.725   5.559  13.348  1.00  0.00    -0.350 N 
ATOM      9  HN  UNL     1      -7.706   5.757  14.349  1.00  0.00     0.166 HD
HETATM   10  C   UNL     1      -5.337   6.312   9.720  1.00  0.00     0.024 C 
HETATM   11  C   UNL     1      -4.523   6.837  10.736  1.00  0.00     0.068 C 
ENDROOT
BRANCH   5  12
HETATM   12  C   UNL     1      -9.508   4.775  10.512  1.00  0.00     0.043 C 
HETATM   13  C   UNL     1      -9.264   4.099   9.304  1.00  0.00     0.033 C 
HETATM   14  C   UNL     1     -10.017   2.934   9.083  1.00  0.00     0.041 C 
HETATM   15  C   UNL     1     -11.067   2.704   9.972  1.00  0.00     0.098 C 
HETATM   16  C   UNL     1     -11.669   3.813  10.592  1.00  0.00     0.101 C 
HETATM   17  C   UNL     1     -10.854   4.911  10.891  1.00  0.00     0.069 C 
BRANCH  15  18
HETATM   18  O   UNL     1     -11.367   1.468  10.410  1.00  0.00    -0.358 OA
ATOM     19  HO  UNL     1     -11.560   0.758   9.809  1.00  0.00     0.217 HD
ENDBRANCH  15  18
BRANCH  16  20
HETATM   20  O   UNL     1     -12.998   3.764  10.864  1.00  0.00    -0.358 OA
ATOM     21  HO  UNL     1     -13.273   3.625  11.763  1.00  0.00     0.217 HD
ENDBRANCH  16  20
ENDBRANCH   5  12
BRANCH  11  22
HETATM   22  P   UNL     1      -3.929   8.513  10.686  1.00  0.00     0.295 P 
HETATM   23  O   UNL     1      -2.470   8.335  10.874  1.00  0.00    -0.636 OA
HETATM   24  O   UNL     1      -4.533   9.376  11.751  1.00  0.00    -0.636 OA
HETATM   25  O   UNL     1      -4.549   8.982   9.386  1.00  0.00    -0.636 OA
ENDBRANCH  11  22
TORSDOF 4
ENDMDL
MODEL 5
REMARK VINA RESULT:      -7.4      3.178      6.425
REMARK  4 active torsions:
REMARK  status: ('A' for Active; 'I' for Inactive)
REMARK    1  A    between atoms: O_3  and  C_18 
REMARK    2  A    between atoms: N_9  and  C_19 
REMARK    3  A    between atoms: C_10  and  O_22 
REMARK    4  A    between atoms: C_21  and  P_24 
ROOT
HETATM    1  C   UNL     1      -5.600   7.103  11.095  1.00  0.00     0.060 C 
HETATM    2  C   UNL     1      -4.711   8.001  11.763  1.00  0.00     0.033 C 
HETATM    3  C   UNL     1      -7.311   5.806  10.860  1.00  0.00     0.189 C 
HETATM    4  C   UNL     1      -5.384   6.290   9.947  1.00  0.00     0.067 C 
HETATM    5  N   UNL     1      -6.532   5.582   9.809  1.00  0.00    -0.306 N 
HETATM    6  C   UNL     1      -3.392   8.082  11.458  1.00  0.00     0.024 C 
HETATM    7  C   UNL     1      -4.267   6.317   9.089  1.00  0.00     0.033 C 
HETATM    8  N   UNL     1      -6.811   6.798  11.585  1.00  0.00    -0.350 N 
ATOM      9  HN  UNL     1      -7.269   7.250  12.376  1.00  0.00     0.166 HD
HETATM   10  C   UNL     1      -3.195   7.211   9.097  1.00  0.00     0.024 C 
HETATM   11  C   UNL     1      -3.005   8.195  10.079  1.00  0.00     0.068 C 
ENDROOT
BRANCH   5  12
HETATM   12  C   UNL     1      -7.009   4.815   8.779  1.00  0.00     0.043 C 
HETATM   13  C   UNL     1      -8.280   4.220   8.857  1.00  0.00     0.033 C 
HETATM   14  C   UNL     1      -9.169   4.518   7.812  1.00  0.00     0.041 C 
HETATM   15  C   UNL     1      -8.625   5.185   6.714  1.00  0.00     0.098 C 
HETATM   16  C   UNL     1      -7.259   4.998   6.432  1.00  0.00     0.101 C 
HETATM   17  C   UNL     1      -6.394   4.811   7.516  1.00  0.00     0.069 C 
BRANCH  15  18
HETATM   18  O   UNL     1      -9.301   6.149   6.064  1.00  0.00    -0.358 OA
ATOM     19  HO  UNL     1      -9.867   5.952   5.327  1.00  0.00     0.217 HD
ENDBRANCH  15  18
BRANCH  16  20
HETATM   20  O   UNL     1      -6.855   5.007   5.137  1.00  0.00    -0.358 OA
ATOM     21  HO  UNL     1      -7.478   5.269   4.469  1.00  0.00     0.217 HD
ENDBRANCH  16  20
ENDBRANCH   5  12
BRANCH  11  22
HETATM   22  P   UNL     1      -2.702   9.895   9.652  1.00  0.00     0.295 P 
HETATM   23  O   UNL     1      -3.976  10.291   9.009  1.00  0.00    -0.636 OA
HETATM   24  O   UNL     1      -1.531  10.064   8.731  1.00  0.00    -0.636 OA
HETATM   25  O   UNL     1      -2.243  10.434  10.991  1.00  0.00    -0.636 OA
ENDBRANCH  11  22
TORSDOF 4
ENDMDL
MODEL 6
REMARK VINA RESULT:      -7.4      3.762      6.429
REMARK  4 active torsions:
REMARK  status: ('A' for Active; 'I' for Inactive)
REMARK    1  A    between atoms: O_3  and  C_18 
REMARK    2  A    between atoms: N_9  and  C_19 
REMARK    3  A    between atoms: C_10  and  O_22 
REMARK    4  A    between atoms: C_21  and  P_24 
ROOT
HETATM    1  C   UNL     1      -6.944   5.676  10.871  1.00  0.00     0.060 C 
HETATM    2  C   UNL     1      -6.074   6.190  11.883  1.00  0.00     0.033 C 
HETATM    3  C   UNL     1      -8.683   4.686  10.057  1.00  0.00     0.189 C 
HETATM    4  C   UNL     1      -6.670   5.346   9.514  1.00  0.00     0.067 C 
HETATM    5  N   UNL     1      -7.833   4.824   9.048  1.00  0.00    -0.306 N 
HETATM    6  C   UNL     1      -4.733   6.290  11.709  1.00  0.00     0.024 C 
HETATM    7  C   UNL     1      -5.488   5.619   8.798  1.00  0.00     0.033 C 
HETATM    8  N   UNL     1      -8.202   5.292  11.135  1.00  0.00    -0.350 N 
ATOM      9  HN  UNL     1      -8.702   5.441  12.012  1.00  0.00     0.166 HD
HETATM   10  C   UNL     1      -4.384   6.367   9.211  1.00  0.00     0.024 C 
HETATM   11  C   UNL     1      -4.233   6.890  10.504  1.00  0.00     0.068 C 
ENDROOT
BRANCH   5  12
HETATM   12  C   UNL     1      -8.257   4.540   7.778  1.00  0.00     0.043 C 
HETATM   13  C   UNL     1      -8.450   5.568   6.839  1.00  0.00     0.033 C 
HETATM   14  C   UNL     1      -7.745   5.445   5.631  1.00  0.00     0.041 C 
HETATM   15  C   UNL     1      -7.114   4.221   5.410  1.00  0.00     0.098 C 
HETATM   16  C   UNL     1      -7.655   3.074   6.019  1.00  0.00     0.101 C 
HETATM   17  C   UNL     1      -8.254   3.228   7.275  1.00  0.00     0.069 C 
BRANCH  15  18
HETATM   18  O   UNL     1      -5.905   4.142   4.826  1.00  0.00    -0.358 OA
ATOM     19  HO  UNL     1      -5.389   3.346   4.849  1.00  0.00     0.217 HD
ENDBRANCH  15  18
BRANCH  16  20
HETATM   20  O   UNL     1      -7.571   1.889   5.364  1.00  0.00    -0.358 OA
ATOM     21  HO  UNL     1      -8.211   1.697   4.688  1.00  0.00     0.217 HD
ENDBRANCH  16  20
ENDBRANCH   5  12
BRANCH  11  22
HETATM   22  P   UNL     1      -3.826   8.600  10.779  1.00  0.00     0.295 P 
HETATM   23  O   UNL     1      -2.372   8.537  11.058  1.00  0.00    -0.636 OA
HETATM   24  O   UNL     1      -4.591   9.204  11.918  1.00  0.00    -0.636 OA
HETATM   25  O   UNL     1      -4.406   9.223   9.526  1.00  0.00    -0.636 OA
ENDBRANCH  11  22
TORSDOF 4
ENDMDL
MODEL 7
REMARK VINA RESULT:      -7.3      1.593      2.129
REMARK  4 active torsions:
REMARK  status: ('A' for Active; 'I' for Inactive)
REMARK    1  A    between atoms: O_3  and  C_18 
REMARK    2  A    between atoms: N_9  and  C_19 
REMARK    3  A    between atoms: C_10  and  O_22 
REMARK    4  A    between atoms: C_21  and  P_24 
ROOT
HETATM    1  C   UNL     1      -7.038   5.384  12.671  1.00  0.00     0.060 C 
HETATM    2  C   UNL     1      -8.152   4.750  13.304  1.00  0.00     0.033 C 
HETATM    3  C   UNL     1      -5.078   6.279  12.522  1.00  0.00     0.189 C 
HETATM    4  C   UNL     1      -6.978   6.117  11.452  1.00  0.00     0.067 C 
HETATM    5  N   UNL     1      -5.698   6.561  11.383  1.00  0.00    -0.306 N 
HETATM    6  C   UNL     1      -9.427   4.912  12.872  1.00  0.00     0.024 C 
HETATM    7  C   UNL     1      -7.997   6.241  10.488  1.00  0.00     0.033 C 
HETATM    8  N   UNL     1      -5.837   5.479  13.259  1.00  0.00    -0.350 N 
ATOM      9  HN  UNL     1      -5.556   5.016  14.124  1.00  0.00     0.166 HD
HETATM   10  C   UNL     1      -9.231   5.589  10.448  1.00  0.00     0.024 C 
HETATM   11  C   UNL     1      -9.708   4.757  11.471  1.00  0.00     0.068 C 
ENDROOT
BRANCH   5  12
HETATM   12  C   UNL     1      -4.983   7.118  10.357  1.00  0.00     0.043 C 
HETATM   13  C   UNL     1      -5.197   8.454   9.976  1.00  0.00     0.033 C 
HETATM   14  C   UNL     1      -4.066   9.287   9.978  1.00  0.00     0.041 C 
HETATM   15  C   UNL     1      -2.835   8.652  10.140  1.00  0.00     0.098 C 
HETATM   16  C   UNL     1      -2.714   7.317   9.712  1.00  0.00     0.101 C 
HETATM   17  C   UNL     1      -3.840   6.494   9.830  1.00  0.00     0.069 C 
BRANCH  15  18
HETATM   18  O   UNL     1      -1.849   9.194  10.876  1.00  0.00    -0.358 OA
ATOM     19  HO  UNL     1      -1.057   8.713  11.084  1.00  0.00     0.217 HD
ENDBRANCH  15  18
BRANCH  16  20
HETATM   20  O   UNL     1      -1.524   6.901   9.210  1.00  0.00    -0.358 OA
ATOM     21  HO  UNL     1      -0.877   7.555   8.975  1.00  0.00     0.217 HD
ENDBRANCH  16  20
ENDBRANCH   5  12
BRANCH  11  22
HETATM   22  P   UNL     1     -10.327   3.123  11.135  1.00  0.00     0.295 P 
HETATM   23  O   UNL     1      -9.996   2.949   9.702  1.00  0.00    -0.636 OA
HETATM   24  O   UNL     1     -11.797   2.993  11.393  1.00  0.00    -0.636 OA
HETATM   25  O   UNL     1      -9.652   2.343  12.245  1.00  0.00    -0.636 OA
ENDBRANCH  11  22
TORSDOF 4
ENDMDL
MODEL 8
REMARK VINA RESULT:      -7.2      3.483      6.356
REMARK  4 active torsions:
REMARK  status: ('A' for Active; 'I' for Inactive)
REMARK    1  A    between atoms: O_3  and  C_18 
REMARK    2  A    between atoms: N_9  and  C_19 
REMARK    3  A    between atoms: C_10  and  O_22 
REMARK    4  A    between atoms: C_21  and  P_24 
ROOT
HETATM    1  C   UNL     1      -6.427   6.243  10.967  1.00  0.00     0.060 C 
HETATM    2  C   UNL     1      -5.659   6.994  11.909  1.00  0.00     0.033 C 
HETATM    3  C   UNL     1      -8.031   4.977  10.266  1.00  0.00     0.189 C 
HETATM    4  C   UNL     1      -6.054   5.719   9.697  1.00  0.00     0.067 C 
HETATM    5  N   UNL     1      -7.142   5.023   9.281  1.00  0.00    -0.306 N 
HETATM    6  C   UNL     1      -4.323   7.186  11.774  1.00  0.00     0.024 C 
HETATM    7  C   UNL     1      -4.862   5.976   8.991  1.00  0.00     0.033 C 
HETATM    8  N   UNL     1      -7.661   5.794  11.242  1.00  0.00    -0.350 N 
ATOM      9  HN  UNL     1      -8.218   6.039  12.061  1.00  0.00     0.166 HD
HETATM   10  C   UNL     1      -3.848   6.880   9.313  1.00  0.00     0.024 C 
HETATM   11  C   UNL     1      -3.811   7.622  10.504  1.00  0.00     0.068 C 
ENDROOT
BRANCH   5  12
HETATM   12  C   UNL     1      -7.472   4.494   8.062  1.00  0.00     0.043 C 
HETATM   13  C   UNL     1      -8.586   3.650   7.924  1.00  0.00     0.033 C 
HETATM   14  C   UNL     1      -9.544   4.038   6.973  1.00  0.00     0.041 C 
HETATM   15  C   UNL     1      -9.179   5.084   6.126  1.00  0.00     0.098 C 
HETATM   16  C   UNL     1      -7.813   5.273   5.853  1.00  0.00     0.101 C 
HETATM   17  C   UNL     1      -6.900   4.974   6.871  1.00  0.00     0.069 C 
BRANCH  15  18
HETATM   18  O   UNL     1     -10.059   6.028   5.747  1.00  0.00    -0.358 OA
ATOM     19  HO  UNL     1     -10.061   6.385   4.868  1.00  0.00     0.217 HD
ENDBRANCH  15  18
BRANCH  16  20
HETATM   20  O   UNL     1      -7.452   5.730   4.627  1.00  0.00    -0.358 OA
ATOM     21  HO  UNL     1      -7.073   6.598   4.559  1.00  0.00     0.217 HD
ENDBRANCH  16  20
ENDBRANCH   5  12
BRANCH  11  22
HETATM   22  P   UNL     1      -3.564   9.384  10.501  1.00  0.00     0.295 P 
HETATM   23  O   UNL     1      -2.123   9.500  10.825  1.00  0.00    -0.636 OA
HETATM   24  O   UNL     1      -4.425  10.094  11.501  1.00  0.00    -0.636 OA
HETATM   25  O   UNL     1      -4.143   9.737   9.146  1.00  0.00    -0.636 OA
ENDBRANCH  11  22
TORSDOF 4
ENDMDL
MODEL 9
REMARK VINA RESULT:      -7.2      3.290      7.370
REMARK  4 active torsions:
REMARK  status: ('A' for Active; 'I' for Inactive)
REMARK    1  A    between atoms: O_3  and  C_18 
REMARK    2  A    between atoms: N_9  and  C_19 
REMARK    3  A    between atoms: C_10  and  O_22 
REMARK    4  A    between atoms: C_21  and  P_24 
ROOT
HETATM    1  C   UNL     1      -7.456   6.156  10.397  1.00  0.00     0.060 C 
HETATM    2  C   UNL     1      -6.446   7.013   9.861  1.00  0.00     0.033 C 
HETATM    3  C   UNL     1      -9.328   5.078  10.451  1.00  0.00     0.189 C 
HETATM    4  C   UNL     1      -7.706   5.770  11.744  1.00  0.00     0.067 C 
HETATM    5  N   UNL     1      -8.834   5.020  11.682  1.00  0.00    -0.306 N 
HETATM    6  C   UNL     1      -5.625   7.753  10.647  1.00  0.00     0.024 C 
HETATM    7  C   UNL     1      -6.886   6.020  12.862  1.00  0.00     0.033 C 
HETATM    8  N   UNL     1      -8.454   5.667   9.645  1.00  0.00    -0.350 N 
ATOM      9  HN  UNL     1      -8.528   5.736   8.630  1.00  0.00     0.166 HD
HETATM   10  C   UNL     1      -5.609   6.586  12.886  1.00  0.00     0.024 C 
HETATM   11  C   UNL     1      -4.968   7.117  11.756  1.00  0.00     0.068 C 
ENDROOT
BRANCH   5  12
HETATM   12  C   UNL     1      -9.431   4.197  12.599  1.00  0.00     0.043 C 
HETATM   13  C   UNL     1     -10.771   4.393  12.974  1.00  0.00     0.033 C 
HETATM   14  C   UNL     1     -11.626   3.290  12.814  1.00  0.00     0.041 C 
HETATM   15  C   UNL     1     -11.011   2.074  12.516  1.00  0.00     0.098 C 
HETATM   16  C   UNL     1      -9.690   1.871  12.954  1.00  0.00     0.101 C 
HETATM   17  C   UNL     1      -8.842   2.984  12.995  1.00  0.00     0.069 C 
BRANCH  15  18
HETATM   18  O   UNL     1     -11.555   1.199  11.652  1.00  0.00    -0.358 OA
ATOM     19  HO  UNL     1     -11.439   0.261  11.751  1.00  0.00     0.217 HD
ENDBRANCH  15  18
BRANCH  16  20
HETATM   20  O   UNL     1      -9.310   0.620  13.315  1.00  0.00    -0.358 OA
ATOM     21  HO  UNL     1      -9.976   0.010  13.611  1.00  0.00     0.217 HD
ENDBRANCH  16  20
ENDBRANCH   5  12
BRANCH  11  22
HETATM   22  P   UNL     1      -3.310   6.649  11.316  1.00  0.00     0.295 P 
HETATM   23  O   UNL     1      -2.633   7.961  11.198  1.00  0.00    -0.636 OA
HETATM   24  O   UNL     1      -3.246   5.866  10.039  1.00  0.00    -0.636 OA
HETATM   25  O   UNL     1      -3.007   5.652  12.416  1.00  0.00    -0.636 OA
ENDBRANCH  11  22
TORSDOF 4
ENDMDL
