MODEL 1
REMARK VINA RESULT:      -8.1      0.000      0.000
REMARK  1 active torsions:
REMARK  status: ('A' for Active; 'I' for Inactive)
REMARK    1  A    between atoms: O_3  and  C_14 
ROOT
HETATM    1  C   UNL     1      20.644 124.930  43.800  1.00  0.00     0.244 C 
HETATM    2  C   UNL     1      24.709 127.692  39.419  1.00  0.00     0.044 C 
HETATM    3  C   UNL     1      23.281 125.532  42.998  1.00  0.00     0.124 C 
HETATM    4  C   UNL     1      19.766 124.140  40.374  1.00  0.00     0.026 C 
HETATM    5  C   UNL     1      23.974 126.684  40.030  1.00  0.00    -0.041 C 
HETATM    6  C   UNL     1      24.236 124.955  41.970  1.00  0.00     0.164 C 
HETATM    7  O   UNL     1      24.581 123.813  42.142  1.00  0.00    -0.292 OA
HETATM    8  C   UNL     1      19.756 124.990  41.634  1.00  0.00     0.093 C 
HETATM    9  C   UNL     1      21.085 125.739  41.650  1.00  0.00     0.048 C 
HETATM   10  C   UNL     1      22.481 126.685  39.845  1.00  0.00     0.045 C 
HETATM   11  C   UNL     1      21.812 125.160  42.849  1.00  0.00     0.001 C 
HETATM   12  C   UNL     1      26.070 127.485  39.170  1.00  0.00     0.066 C 
HETATM   13  C   UNL     1      20.637 124.962  39.415  1.00  0.00     0.007 C 
HETATM   14  C   UNL     1      21.768 125.426  40.325  1.00  0.00     0.000 C 
HETATM   15  N   UNL     1      19.688 124.262  42.923  1.00  0.00    -0.352 N 
ATOM     16  HN  UNL     1      19.097 123.462  43.148  1.00  0.00     0.163 HD
HETATM   17  C   UNL     1      24.719 125.661  40.720  1.00  0.00     0.016 C 
HETATM   18  C   UNL     1      25.966 125.311  40.199  1.00  0.00     0.018 C 
HETATM   19  O   UNL     1      20.883 124.301  44.907  1.00  0.00    -0.268 OA
HETATM   20  C   UNL     1      26.641 126.228  39.391  1.00  0.00     0.037 C 
ENDROOT
BRANCH  12  21
HETATM   21  O   UNL     1      26.835 128.513  38.709  1.00  0.00    -0.361 OA
ATOM     22  HO  UNL     1      26.423 129.240  38.258  1.00  0.00     0.217 HD
ENDBRANCH  12  21
TORSDOF 1
ENDMDL
MODEL 2
REMARK VINA RESULT:      -5.2     10.772     12.028
REMARK  1 active torsions:
REMARK  status: ('A' for Active; 'I' for Inactive)
REMARK    1  A    between atoms: O_3  and  C_14 
ROOT
HETATM    1  C   UNL     1      14.958 118.796  32.149  1.00  0.00     0.244 C 
HETATM    2  C   UNL     1      21.423 117.679  32.708  1.00  0.00     0.044 C 
HETATM    3  C   UNL     1      17.565 119.130  31.121  1.00  0.00     0.124 C 
HETATM    4  C   UNL     1      16.196 119.352  35.509  1.00  0.00     0.026 C 
HETATM    5  C   UNL     1      20.223 118.366  32.842  1.00  0.00    -0.041 C 
HETATM    6  C   UNL     1      18.738 120.024  31.474  1.00  0.00     0.164 C 
HETATM    7  O   UNL     1      18.567 121.210  31.344  1.00  0.00    -0.292 OA
HETATM    8  C   UNL     1      15.653 118.509  34.368  1.00  0.00     0.093 C 
HETATM    9  C   UNL     1      16.832 118.246  33.436  1.00  0.00     0.048 C 
HETATM   10  C   UNL     1      19.236 117.874  33.865  1.00  0.00     0.045 C 
HETATM   11  C   UNL     1      16.469 118.996  32.170  1.00  0.00     0.001 C 
HETATM   12  C   UNL     1      22.521 118.335  32.141  1.00  0.00     0.066 C 
HETATM   13  C   UNL     1      17.658 118.897  35.602  1.00  0.00     0.007 C 
HETATM   14  C   UNL     1      18.063 118.808  34.136  1.00  0.00     0.000 C 
HETATM   15  N   UNL     1      14.606 119.134  33.525  1.00  0.00    -0.352 N 
ATOM     16  HN  UNL     1      13.808 119.685  33.840  1.00  0.00     0.163 HD
HETATM   17  C   UNL     1      20.061 119.557  32.046  1.00  0.00     0.016 C 
HETATM   18  C   UNL     1      21.202 120.318  31.788  1.00  0.00     0.018 C 
HETATM   19  O   UNL     1      14.278 119.434  31.251  1.00  0.00    -0.268 OA
HETATM   20  C   UNL     1      22.454 119.703  31.860  1.00  0.00     0.037 C 
ENDROOT
BRANCH  12  21
HETATM   21  O   UNL     1      23.657 117.635  31.867  1.00  0.00    -0.361 OA
ATOM     22  HO  UNL     1      23.937 117.528  30.966  1.00  0.00     0.217 HD
ENDBRANCH  12  21
TORSDOF 1
ENDMDL
