MODEL 1
REMARK VINA RESULT:      -8.6      0.000      0.000
REMARK  3 active torsions:
REMARK  status: ('A' for Active; 'I' for Inactive)
REMARK    1  A    between atoms: O_1  and  C_3 
REMARK    2  A    between atoms: C_5  and  N_18 
REMARK    3  A    between atoms: O_15  and  C_22 
ROOT
HETATM    1  C   UNL     1      20.560 125.133  42.796  1.00  0.00     0.124 C 
HETATM    2  O   UNL     1      20.110 124.011  40.618  1.00  0.00    -0.335 OA
HETATM    3  C   UNL     1      22.336 124.688  41.372  1.00  0.00     0.066 C 
HETATM    4  C   UNL     1      21.419 124.156  43.578  1.00  0.00     0.049 C 
HETATM    5  N   UNL     1      18.456 123.919  42.244  1.00  0.00    -0.381 N 
ATOM      6  HN1 UNL     1      17.835 123.404  41.620  1.00  0.00     0.158 HD
ATOM      7  HN2 UNL     1      18.102 124.179  43.165  1.00  0.00     0.158 HD
HETATM    8  C   UNL     1      21.489 124.033  40.262  1.00  0.00     0.208 C 
HETATM    9  C   UNL     1      19.632 124.363  41.863  1.00  0.00     0.146 C 
HETATM   10  C   UNL     1      22.562 123.814  42.613  1.00  0.00     0.037 C 
HETATM   11  C   UNL     1      21.554 125.902  41.894  1.00  0.00     0.080 C 
ENDROOT
BRANCH   3  12
HETATM   12  N   UNL     1      23.618 125.026  40.782  1.00  0.00    -0.300 N 
HETATM   13  C   UNL     1      23.855 126.172  40.060  1.00  0.00     0.057 A 
HETATM   14  C   UNL     1      23.250 127.306  39.522  1.00  0.00     0.031 C 
HETATM   15  C   UNL     1      25.186 126.153  40.342  1.00  0.00     0.092 A 
HETATM   16  C   UNL     1      23.984 128.488  39.477  1.00  0.00     0.005 C 
HETATM   17  C   UNL     1      25.333 128.492  39.827  1.00  0.00     0.038 C 
HETATM   18  C   UNL     1      25.974 127.262  39.984  1.00  0.00     0.083 C 
HETATM   19  C   UNL     1      24.917 124.957  41.143  1.00  0.00     0.264 A 
HETATM   20  O   UNL     1      25.550 124.116  41.721  1.00  0.00    -0.267 OA
BRANCH  18  21
HETATM   21  O   UNL     1      27.285 127.126  39.607  1.00  0.00    -0.360 OA
ATOM     22  HO  UNL     1      27.907 126.631  40.128  1.00  0.00     0.217 HD
ENDBRANCH  18  21
ENDBRANCH   3  12
BRANCH   1  23
HETATM   23  O   UNL     1      19.839 126.043  43.620  1.00  0.00    -0.381 OA
ATOM     24  HO  UNL     1      19.425 126.747  43.136  1.00  0.00     0.211 HD
ENDBRANCH   1  23
TORSDOF 3
ENDMDL
MODEL 2
REMARK VINA RESULT:      -7.8      1.235      1.764
REMARK  3 active torsions:
REMARK  status: ('A' for Active; 'I' for Inactive)
REMARK    1  A    between atoms: O_1  and  C_3 
REMARK    2  A    between atoms: C_5  and  N_18 
REMARK    3  A    between atoms: O_15  and  C_22 
ROOT
HETATM    1  C   UNL     1      19.995 124.960  42.565  1.00  0.00     0.124 C 
HETATM    2  O   UNL     1      21.514 123.683  44.071  1.00  0.00    -0.335 OA
HETATM    3  C   UNL     1      22.283 125.040  42.188  1.00  0.00     0.066 C 
HETATM    4  C   UNL     1      20.351 126.419  42.785  1.00  0.00     0.049 C 
HETATM    5  N   UNL     1      19.342 124.062  44.795  1.00  0.00    -0.381 N 
ATOM      6  HN1 UNL     1      19.509 123.536  45.654  1.00  0.00     0.158 HD
ATOM      7  HN2 UNL     1      18.404 124.425  44.631  1.00  0.00     0.158 HD
HETATM    8  C   UNL     1      22.670 124.115  43.358  1.00  0.00     0.208 C 
HETATM    9  C   UNL     1      20.246 124.175  43.849  1.00  0.00     0.146 C 
HETATM   10  C   UNL     1      21.873 126.462  42.595  1.00  0.00     0.037 C 
HETATM   11  C   UNL     1      21.026 124.451  41.529  1.00  0.00     0.080 C 
ENDROOT
BRANCH   3  12
HETATM   12  N   UNL     1      23.431 125.106  41.304  1.00  0.00    -0.300 N 
HETATM   13  C   UNL     1      23.661 126.130  40.414  1.00  0.00     0.057 A 
HETATM   14  C   UNL     1      23.119 127.299  39.884  1.00  0.00     0.031 C 
HETATM   15  C   UNL     1      25.004 125.912  40.408  1.00  0.00     0.092 A 
HETATM   16  C   UNL     1      23.987 128.332  39.541  1.00  0.00     0.005 C 
HETATM   17  C   UNL     1      25.366 128.140  39.594  1.00  0.00     0.038 C 
HETATM   18  C   UNL     1      25.841 126.838  39.759  1.00  0.00     0.083 C 
HETATM   19  C   UNL     1      24.755 124.851  41.386  1.00  0.00     0.264 A 
HETATM   20  O   UNL     1      25.374 123.968  41.914  1.00  0.00    -0.267 OA
BRANCH  18  21
HETATM   21  O   UNL     1      26.998 126.451  39.132  1.00  0.00    -0.360 OA
ATOM     22  HO  UNL     1      27.272 126.834  38.307  1.00  0.00     0.217 HD
ENDBRANCH  18  21
ENDBRANCH   3  12
BRANCH   1  23
HETATM   23  O   UNL     1      18.673 124.762  42.080  1.00  0.00    -0.381 OA
ATOM     24  HO  UNL     1      18.167 125.564  42.017  1.00  0.00     0.211 HD
ENDBRANCH   1  23
TORSDOF 3
ENDMDL
MODEL 3
REMARK VINA RESULT:      -7.3      1.526      2.142
REMARK  3 active torsions:
REMARK  status: ('A' for Active; 'I' for Inactive)
REMARK    1  A    between atoms: O_1  and  C_3 
REMARK    2  A    between atoms: C_5  and  N_18 
REMARK    3  A    between atoms: O_15  and  C_22 
ROOT
HETATM    1  C   UNL     1      20.511 125.093  43.066  1.00  0.00     0.124 C 
HETATM    2  O   UNL     1      20.127 125.040  40.605  1.00  0.00    -0.335 OA
HETATM    3  C   UNL     1      22.217 125.767  41.646  1.00  0.00     0.066 C 
HETATM    4  C   UNL     1      21.617 124.085  43.318  1.00  0.00     0.049 C 
HETATM    5  N   UNL     1      18.669 123.838  41.953  1.00  0.00    -0.381 N 
ATOM      6  HN1 UNL     1      18.120 123.548  41.144  1.00  0.00     0.158 HD
ATOM      7  HN2 UNL     1      18.346 123.556  42.878  1.00  0.00     0.158 HD
HETATM    8  C   UNL     1      21.438 125.532  40.337  1.00  0.00     0.208 C 
HETATM    9  C   UNL     1      19.691 124.659  41.856  1.00  0.00     0.146 C 
HETATM   10  C   UNL     1      22.723 124.494  42.336  1.00  0.00     0.037 C 
HETATM   11  C   UNL     1      21.245 126.393  42.657  1.00  0.00     0.080 C 
ENDROOT
BRANCH   3  12
HETATM   12  N   UNL     1      23.347 126.617  41.318  1.00  0.00    -0.300 N 
HETATM   13  C   UNL     1      24.571 126.145  40.905  1.00  0.00     0.057 A 
HETATM   14  C   UNL     1      25.315 124.986  40.693  1.00  0.00     0.031 C 
HETATM   15  C   UNL     1      24.870 127.301  40.252  1.00  0.00     0.092 A 
HETATM   16  C   UNL     1      26.232 124.971  39.647  1.00  0.00     0.005 C 
HETATM   17  C   UNL     1      26.497 126.135  38.928  1.00  0.00     0.038 C 
HETATM   18  C   UNL     1      26.013 127.344  39.432  1.00  0.00     0.083 C 
HETATM   19  C   UNL     1      23.548 127.779  40.661  1.00  0.00     0.264 A 
HETATM   20  O   UNL     1      22.932 128.809  40.638  1.00  0.00    -0.267 OA
BRANCH  18  21
HETATM   21  O   UNL     1      26.753 128.488  39.283  1.00  0.00    -0.360 OA
ATOM     22  HO  UNL     1      27.491 128.685  39.849  1.00  0.00     0.217 HD
ENDBRANCH  18  21
ENDBRANCH   3  12
BRANCH   1  23
HETATM   23  O   UNL     1      19.687 125.331  44.201  1.00  0.00    -0.381 OA
ATOM     24  HO  UNL     1      19.330 124.539  44.584  1.00  0.00     0.211 HD
ENDBRANCH   1  23
TORSDOF 3
ENDMDL
MODEL 4
REMARK VINA RESULT:      -7.3      1.987      5.876
REMARK  3 active torsions:
REMARK  status: ('A' for Active; 'I' for Inactive)
REMARK    1  A    between atoms: O_1  and  C_3 
REMARK    2  A    between atoms: C_5  and  N_18 
REMARK    3  A    between atoms: O_15  and  C_22 
ROOT
HETATM    1  C   UNL     1      25.554 125.788  39.816  1.00  0.00     0.124 C 
HETATM    2  O   UNL     1      25.081 128.234  39.778  1.00  0.00    -0.335 OA
HETATM    3  C   UNL     1      23.665 126.586  40.901  1.00  0.00     0.066 C 
HETATM    4  C   UNL     1      25.802 125.453  41.276  1.00  0.00     0.049 C 
HETATM    5  N   UNL     1      27.222 127.537  39.213  1.00  0.00    -0.381 N 
ATOM      6  HN1 UNL     1      27.513 128.497  39.029  1.00  0.00     0.158 HD
ATOM      7  HN2 UNL     1      27.894 126.791  39.039  1.00  0.00     0.158 HD
HETATM    8  C   UNL     1      23.894 128.069  40.548  1.00  0.00     0.208 C 
HETATM    9  C   UNL     1      25.989 127.224  39.541  1.00  0.00     0.146 C 
HETATM   10  C   UNL     1      24.581 126.035  42.001  1.00  0.00     0.037 C 
HETATM   11  C   UNL     1      24.015 125.756  39.657  1.00  0.00     0.080 C 
ENDROOT
BRANCH   3  12
HETATM   12  N   UNL     1      22.282 126.459  41.319  1.00  0.00    -0.300 N 
HETATM   13  C   UNL     1      21.338 125.719  40.646  1.00  0.00     0.057 A 
HETATM   14  C   UNL     1      21.115 124.960  39.499  1.00  0.00     0.031 C 
HETATM   15  C   UNL     1      20.584 125.540  41.764  1.00  0.00     0.092 A 
HETATM   16  C   UNL     1      20.253 123.870  39.585  1.00  0.00     0.005 C 
HETATM   17  C   UNL     1      19.525 123.640  40.751  1.00  0.00     0.038 C 
HETATM   18  C   UNL     1      19.498 124.646  41.718  1.00  0.00     0.083 C 
HETATM   19  C   UNL     1      21.615 126.293  42.482  1.00  0.00     0.264 A 
HETATM   20  O   UNL     1      21.767 126.770  43.573  1.00  0.00    -0.267 OA
BRANCH  18  21
HETATM   21  O   UNL     1      18.359 124.855  42.451  1.00  0.00    -0.360 OA
ATOM     22  HO  UNL     1      17.500 124.882  42.045  1.00  0.00     0.217 HD
ENDBRANCH  18  21
ENDBRANCH   3  12
BRANCH   1  23
HETATM   23  O   UNL     1      26.161 124.873  38.911  1.00  0.00    -0.381 OA
ATOM     24  HO  UNL     1      26.802 124.304  39.318  1.00  0.00     0.211 HD
ENDBRANCH   1  23
TORSDOF 3
ENDMDL
MODEL 5
REMARK VINA RESULT:      -7.3      1.865      5.937
REMARK  3 active torsions:
REMARK  status: ('A' for Active; 'I' for Inactive)
REMARK    1  A    between atoms: O_1  and  C_3 
REMARK    2  A    between atoms: C_5  and  N_18 
REMARK    3  A    between atoms: O_15  and  C_22 
ROOT
HETATM    1  C   UNL     1      25.513 125.467  39.847  1.00  0.00     0.124 C 
HETATM    2  O   UNL     1      24.138 127.490  40.320  1.00  0.00    -0.335 OA
HETATM    3  C   UNL     1      23.433 125.207  40.842  1.00  0.00     0.066 C 
HETATM    4  C   UNL     1      25.830 124.874  41.208  1.00  0.00     0.049 C 
HETATM    5  N   UNL     1      26.396 127.796  39.883  1.00  0.00    -0.381 N 
ATOM      6  HN1 UNL     1      26.301 128.808  39.966  1.00  0.00     0.158 HD
ATOM      7  HN2 UNL     1      27.308 127.420  39.625  1.00  0.00     0.158 HD
HETATM    8  C   UNL     1      23.084 126.707  40.876  1.00  0.00     0.208 C 
HETATM    9  C   UNL     1      25.370 126.981  39.971  1.00  0.00     0.146 C 
HETATM   10  C   UNL     1      24.460 124.758  41.890  1.00  0.00     0.037 C 
HETATM   11  C   UNL     1      24.110 124.920  39.493  1.00  0.00     0.080 C 
ENDROOT
BRANCH   3  12
HETATM   12  N   UNL     1      22.194 124.479  41.042  1.00  0.00    -0.300 N 
HETATM   13  C   UNL     1      21.511 124.433  42.235  1.00  0.00     0.057 A 
HETATM   14  C   UNL     1      21.563 124.816  43.574  1.00  0.00     0.031 C 
HETATM   15  C   UNL     1      20.324 124.181  41.622  1.00  0.00     0.092 A 
HETATM   16  C   UNL     1      20.371 125.144  44.213  1.00  0.00     0.005 C 
HETATM   17  C   UNL     1      19.151 124.951  43.568  1.00  0.00     0.038 C 
HETATM   18  C   UNL     1      19.143 124.208  42.387  1.00  0.00     0.083 C 
HETATM   19  C   UNL     1      21.050 124.273  40.354  1.00  0.00     0.264 A 
HETATM   20  O   UNL     1      20.836 124.064  39.191  1.00  0.00    -0.267 OA
BRANCH  18  21
HETATM   21  O   UNL     1      18.080 123.388  42.105  1.00  0.00    -0.360 OA
ATOM     22  HO  UNL     1      18.201 122.521  41.737  1.00  0.00     0.217 HD
ENDBRANCH  18  21
ENDBRANCH   3  12
BRANCH   1  23
HETATM   23  O   UNL     1      26.449 125.109  38.837  1.00  0.00    -0.381 OA
ATOM     24  HO  UNL     1      26.356 124.215  38.531  1.00  0.00     0.211 HD
ENDBRANCH   1  23
TORSDOF 3
ENDMDL
MODEL 6
REMARK VINA RESULT:      -6.6      1.598      2.824
REMARK  3 active torsions:
REMARK  status: ('A' for Active; 'I' for Inactive)
REMARK    1  A    between atoms: O_1  and  C_3 
REMARK    2  A    between atoms: C_5  and  N_18 
REMARK    3  A    between atoms: O_15  and  C_22 
ROOT
HETATM    1  C   UNL     1      21.271 123.897  41.285  1.00  0.00     0.124 C 
HETATM    2  O   UNL     1      20.376 125.860  42.532  1.00  0.00    -0.335 OA
HETATM    3  C   UNL     1      22.318 125.954  41.048  1.00  0.00     0.066 C 
HETATM    4  C   UNL     1      21.081 124.237  39.819  1.00  0.00     0.049 C 
HETATM    5  N   UNL     1      19.006 123.998  42.319  1.00  0.00    -0.381 N 
ATOM      6  HN1 UNL     1      18.273 124.443  42.870  1.00  0.00     0.158 HD
ATOM      7  HN2 UNL     1      18.856 123.039  42.006  1.00  0.00     0.158 HD
HETATM    8  C   UNL     1      21.378 126.721  41.999  1.00  0.00     0.208 C 
HETATM    9  C   UNL     1      20.174 124.563  42.109  1.00  0.00     0.146 C 
HETATM   10  C   UNL     1      21.721 125.625  39.674  1.00  0.00     0.037 C 
HETATM   11  C   UNL     1      22.599 124.584  41.684  1.00  0.00     0.080 C 
ENDROOT
BRANCH   3  12
HETATM   12  N   UNL     1      23.503 126.772  40.874  1.00  0.00    -0.300 N 
HETATM   13  C   UNL     1      24.724 126.285  40.470  1.00  0.00     0.057 A 
HETATM   14  C   UNL     1      25.422 125.118  40.165  1.00  0.00     0.031 C 
HETATM   15  C   UNL     1      25.112 127.487  39.967  1.00  0.00     0.092 A 
HETATM   16  C   UNL     1      26.392 125.170  39.169  1.00  0.00     0.005 C 
HETATM   17  C   UNL     1      26.751 126.390  38.600  1.00  0.00     0.038 C 
HETATM   18  C   UNL     1      26.299 127.559  39.213  1.00  0.00     0.083 C 
HETATM   19  C   UNL     1      23.794 127.988  40.362  1.00  0.00     0.264 A 
HETATM   20  O   UNL     1      23.230 129.046  40.425  1.00  0.00    -0.267 OA
BRANCH  18  21
HETATM   21  O   UNL     1      27.099 128.673  39.230  1.00  0.00    -0.360 OA
ATOM     22  HO  UNL     1      27.968 128.670  38.845  1.00  0.00     0.217 HD
ENDBRANCH  18  21
ENDBRANCH   3  12
BRANCH   1  23
HETATM   23  O   UNL     1      21.344 122.500  41.542  1.00  0.00    -0.381 OA
ATOM     24  HO  UNL     1      20.561 122.025  41.291  1.00  0.00     0.211 HD
ENDBRANCH   1  23
TORSDOF 3
ENDMDL
MODEL 7
REMARK VINA RESULT:      -6.1      1.927      5.712
REMARK  3 active torsions:
REMARK  status: ('A' for Active; 'I' for Inactive)
REMARK    1  A    between atoms: O_1  and  C_3 
REMARK    2  A    between atoms: C_5  and  N_18 
REMARK    3  A    between atoms: O_15  and  C_22 
ROOT
HETATM    1  C   UNL     1      24.453 127.303  40.330  1.00  0.00     0.124 C 
HETATM    2  O   UNL     1      25.913 125.289  40.475  1.00  0.00    -0.335 OA
HETATM    3  C   UNL     1      23.596 125.355  41.256  1.00  0.00     0.066 C 
HETATM    4  C   UNL     1      23.330 126.913  39.387  1.00  0.00     0.049 C 
HETATM    5  N   UNL     1      26.569 127.000  39.050  1.00  0.00    -0.381 N 
ATOM      6  HN1 UNL     1      27.418 126.497  38.795  1.00  0.00     0.158 HD
ATOM      7  HN2 UNL     1      26.429 127.932  38.661  1.00  0.00     0.158 HD
HETATM    8  C   UNL     1      24.880 124.519  41.084  1.00  0.00     0.208 C 
HETATM    9  C   UNL     1      25.723 126.549  39.949  1.00  0.00     0.146 C 
HETATM   10  C   UNL     1      22.802 125.593  39.965  1.00  0.00     0.037 C 
HETATM   11  C   UNL     1      24.017 126.760  41.712  1.00  0.00     0.080 C 
ENDROOT
BRANCH   3  12
HETATM   12  N   UNL     1      22.760 124.655  42.212  1.00  0.00    -0.300 N 
HETATM   13  C   UNL     1      22.162 125.253  43.296  1.00  0.00     0.057 A 
HETATM   14  C   UNL     1      22.061 126.449  44.005  1.00  0.00     0.031 C 
HETATM   15  C   UNL     1      21.175 124.318  43.352  1.00  0.00     0.092 A 
HETATM   16  C   UNL     1      20.842 126.763  44.599  1.00  0.00     0.005 C 
HETATM   17  C   UNL     1      19.802 125.836  44.604  1.00  0.00     0.038 C 
HETATM   18  C   UNL     1      20.089 124.525  44.223  1.00  0.00     0.083 C 
HETATM   19  C   UNL     1      21.795 123.712  42.172  1.00  0.00     0.264 A 
HETATM   20  O   UNL     1      21.677 122.706  41.527  1.00  0.00    -0.267 OA
BRANCH  18  21
HETATM   21  O   UNL     1      19.450 123.481  44.840  1.00  0.00    -0.360 OA
ATOM     22  HO  UNL     1      19.509 122.592  44.510  1.00  0.00     0.217 HD
ENDBRANCH  18  21
ENDBRANCH   3  12
BRANCH   1  23
HETATM   23  O   UNL     1      24.677 128.706  40.401  1.00  0.00    -0.381 OA
ATOM     24  HO  UNL     1      24.159 129.205  39.782  1.00  0.00     0.211 HD
ENDBRANCH   1  23
TORSDOF 3
ENDMDL
