MODEL 1
REMARK VINA RESULT:      -6.4      0.000      0.000
REMARK  1 active torsions:
REMARK  status: ('A' for Active; 'I' for Inactive)
REMARK    1  A    between atoms: C_6  and  O_10 
ROOT
HETATM    1  C   UNL     1      23.879  38.777  17.176  1.00  0.00     0.004 C 
HETATM    2  C   UNL     1      20.642  36.286  17.585  1.00  0.00     0.115 C 
HETATM    3  C   UNL     1      20.895  37.135  15.563  1.00  0.00     0.258 C 
HETATM    4  C   UNL     1      21.687  37.226  17.695  1.00  0.00     0.056 C 
HETATM    5  C   UNL     1      23.641  38.328  18.479  1.00  0.00     0.037 C 
HETATM    6  C   UNL     1      22.461  37.657  18.770  1.00  0.00     0.080 C 
HETATM    7  C   UNL     1      22.934  38.610  16.183  1.00  0.00     0.018 C 
HETATM    8  N   UNL     1      20.373  36.082  16.262  1.00  0.00    -0.308 N 
ATOM      9  HN  UNL     1      19.872  35.287  15.866  1.00  0.00     0.170 HD
HETATM   10  O   UNL     1      20.813  37.266  14.350  1.00  0.00    -0.267 OA
HETATM   11  N   UNL     1      20.423  35.334  18.514  1.00  0.00    -0.385 N 
ATOM     12  HN1 UNL     1      19.666  34.654  18.436  1.00  0.00     0.157 HD
ATOM     13  HN2 UNL     1      20.624  35.486  19.503  1.00  0.00     0.157 HD
HETATM   14  C   UNL     1      21.762  37.916  16.478  1.00  0.00     0.049 C 
ENDROOT
BRANCH   6  15
HETATM   15  O   UNL     1      22.066  37.453  20.048  1.00  0.00    -0.360 OA
ATOM     16  HO  UNL     1      22.253  36.638  20.499  1.00  0.00     0.217 HD
ENDBRANCH   6  15
TORSDOF 1
ENDMDL
MODEL 2
REMARK VINA RESULT:      -6.4      2.408      4.047
REMARK  1 active torsions:
REMARK  status: ('A' for Active; 'I' for Inactive)
REMARK    1  A    between atoms: C_6  and  O_10 
ROOT
HETATM    1  C   UNL     1      21.324  36.954  14.286  1.00  0.00     0.004 C 
HETATM    2  C   UNL     1      23.420  38.665  17.374  1.00  0.00     0.115 C 
HETATM    3  C   UNL     1      21.759  37.356  18.009  1.00  0.00     0.258 C 
HETATM    4  C   UNL     1      22.735  38.318  16.192  1.00  0.00     0.056 C 
HETATM    5  C   UNL     1      22.302  37.876  13.897  1.00  0.00     0.037 C 
HETATM    6  C   UNL     1      22.922  38.666  14.856  1.00  0.00     0.080 C 
HETATM    7  C   UNL     1      20.927  36.854  15.605  1.00  0.00     0.018 C 
HETATM    8  N   UNL     1      22.964  37.877  18.391  1.00  0.00    -0.308 N 
ATOM      9  HN  UNL     1      23.437  37.706  19.278  1.00  0.00     0.170 HD
HETATM   10  O   UNL     1      21.075  36.617  18.702  1.00  0.00    -0.267 OA
HETATM   11  N   UNL     1      24.670  39.171  17.367  1.00  0.00    -0.385 N 
ATOM     12  HN1 UNL     1      25.166  39.422  18.222  1.00  0.00     0.157 HD
ATOM     13  HN2 UNL     1      25.010  39.760  16.607  1.00  0.00     0.157 HD
HETATM   14  C   UNL     1      21.571  37.634  16.564  1.00  0.00     0.049 C 
ENDROOT
BRANCH   6  15
HETATM   15  O   UNL     1      23.657  39.747  14.506  1.00  0.00    -0.360 OA
ATOM     16  HO  UNL     1      24.559  39.660  14.220  1.00  0.00     0.217 HD
ENDBRANCH   6  15
TORSDOF 1
ENDMDL
MODEL 3
REMARK VINA RESULT:      -6.4      2.121      4.839
REMARK  1 active torsions:
REMARK  status: ('A' for Active; 'I' for Inactive)
REMARK    1  A    between atoms: C_6  and  O_10 
ROOT
HETATM    1  C   UNL     1      19.181  33.794  15.792  1.00  0.00     0.004 C 
HETATM    2  C   UNL     1      21.457  37.210  15.852  1.00  0.00     0.115 C 
HETATM    3  C   UNL     1      20.736  36.555  17.833  1.00  0.00     0.258 C 
HETATM    4  C   UNL     1      20.574  36.140  15.601  1.00  0.00     0.056 C 
HETATM    5  C   UNL     1      19.544  34.284  14.533  1.00  0.00     0.037 C 
HETATM    6  C   UNL     1      20.130  35.538  14.426  1.00  0.00     0.080 C 
HETATM    7  C   UNL     1      19.347  34.562  16.927  1.00  0.00     0.018 C 
HETATM    8  N   UNL     1      21.717  37.258  17.192  1.00  0.00    -0.308 N 
ATOM      9  HN  UNL     1      22.503  37.733  17.635  1.00  0.00     0.170 HD
HETATM   10  O   UNL     1      20.666  36.416  19.046  1.00  0.00    -0.267 OA
HETATM   11  N   UNL     1      22.344  37.649  14.936  1.00  0.00    -0.385 N 
ATOM     12  HN1 UNL     1      22.983  38.423  15.117  1.00  0.00     0.157 HD
ATOM     13  HN2 UNL     1      22.149  37.613  13.935  1.00  0.00     0.157 HD
HETATM   14  C   UNL     1      19.956  35.810  16.814  1.00  0.00     0.049 C 
ENDROOT
BRANCH   6  15
HETATM   15  O   UNL     1      20.241  36.162  13.230  1.00  0.00    -0.360 OA
ATOM     16  HO  UNL     1      19.633  35.984  12.522  1.00  0.00     0.217 HD
ENDBRANCH   6  15
TORSDOF 1
ENDMDL
MODEL 4
REMARK VINA RESULT:      -6.4      1.898      2.366
REMARK  1 active torsions:
REMARK  status: ('A' for Active; 'I' for Inactive)
REMARK    1  A    between atoms: C_6  and  O_10 
ROOT
HETATM    1  C   UNL     1      23.354  38.854  14.783  1.00  0.00     0.004 C 
HETATM    2  C   UNL     1      22.082  37.639  18.493  1.00  0.00     0.115 C 
HETATM    3  C   UNL     1      20.940  36.785  16.808  1.00  0.00     0.258 C 
HETATM    4  C   UNL     1      22.555  38.297  17.340  1.00  0.00     0.056 C 
HETATM    5  C   UNL     1      23.992  39.479  15.860  1.00  0.00     0.037 C 
HETATM    6  C   UNL     1      23.500  39.303  17.147  1.00  0.00     0.080 C 
HETATM    7  C   UNL     1      22.209  38.106  14.973  1.00  0.00     0.018 C 
HETATM    8  N   UNL     1      21.312  36.580  18.107  1.00  0.00    -0.308 N 
ATOM      9  HN  UNL     1      21.058  35.779  18.685  1.00  0.00     0.170 HD
HETATM   10  O   UNL     1      20.229  36.026  16.165  1.00  0.00    -0.267 OA
HETATM   11  N   UNL     1      22.758  37.644  19.660  1.00  0.00    -0.385 N 
ATOM     12  HN1 UNL     1      22.416  37.168  20.494  1.00  0.00     0.157 HD
ATOM     13  HN2 UNL     1      23.334  38.435  19.947  1.00  0.00     0.157 HD
HETATM   14  C   UNL     1      21.735  37.916  16.270  1.00  0.00     0.049 C 
ENDROOT
BRANCH   6  15
HETATM   15  O   UNL     1      23.905  40.094  18.167  1.00  0.00    -0.360 OA
ATOM     16  HO  UNL     1      23.481  40.060  19.017  1.00  0.00     0.217 HD
ENDBRANCH   6  15
TORSDOF 1
ENDMDL
MODEL 5
REMARK VINA RESULT:      -6.2      2.678      3.459
REMARK  1 active torsions:
REMARK  status: ('A' for Active; 'I' for Inactive)
REMARK    1  A    between atoms: C_6  and  O_10 
ROOT
HETATM    1  C   UNL     1      20.797  36.957  16.180  1.00  0.00     0.004 C 
HETATM    2  C   UNL     1      23.777  39.503  17.406  1.00  0.00     0.115 C 
HETATM    3  C   UNL     1      23.604  39.280  15.216  1.00  0.00     0.258 C 
HETATM    4  C   UNL     1      22.828  38.480  17.200  1.00  0.00     0.056 C 
HETATM    5  C   UNL     1      20.992  37.015  17.564  1.00  0.00     0.037 C 
HETATM    6  C   UNL     1      22.102  37.676  18.075  1.00  0.00     0.080 C 
HETATM    7  C   UNL     1      21.720  37.502  15.310  1.00  0.00     0.018 C 
HETATM    8  N   UNL     1      24.022  40.118  16.212  1.00  0.00    -0.308 N 
ATOM      9  HN  UNL     1      24.442  41.039  16.085  1.00  0.00     0.170 HD
HETATM   10  O   UNL     1      23.697  39.527  14.022  1.00  0.00    -0.267 OA
HETATM   11  N   UNL     1      23.903  40.148  18.583  1.00  0.00    -0.385 N 
ATOM     12  HN1 UNL     1      24.589  40.888  18.732  1.00  0.00     0.157 HD
ATOM     13  HN2 UNL     1      23.719  39.688  19.474  1.00  0.00     0.157 HD
HETATM   14  C   UNL     1      22.819  38.182  15.831  1.00  0.00     0.049 C 
ENDROOT
BRANCH   6  15
HETATM   15  O   UNL     1      22.477  37.522  19.366  1.00  0.00    -0.360 OA
ATOM     16  HO  UNL     1      23.124  38.093  19.764  1.00  0.00     0.217 HD
ENDBRANCH   6  15
TORSDOF 1
ENDMDL
MODEL 6
REMARK VINA RESULT:      -6.1      2.348      4.129
REMARK  1 active torsions:
REMARK  status: ('A' for Active; 'I' for Inactive)
REMARK    1  A    between atoms: C_6  and  O_10 
ROOT
HETATM    1  C   UNL     1      23.618  39.883  13.250  1.00  0.00     0.004 C 
HETATM    2  C   UNL     1      21.868  37.741  16.283  1.00  0.00     0.115 C 
HETATM    3  C   UNL     1      23.367  39.218  16.951  1.00  0.00     0.258 C 
HETATM    4  C   UNL     1      22.461  38.241  15.106  1.00  0.00     0.056 C 
HETATM    5  C   UNL     1      22.755  38.865  12.831  1.00  0.00     0.037 C 
HETATM    6  C   UNL     1      22.275  37.947  13.757  1.00  0.00     0.080 C 
HETATM    7  C   UNL     1      24.043  39.960  14.561  1.00  0.00     0.018 C 
HETATM    8  N   UNL     1      22.253  38.523  17.334  1.00  0.00    -0.308 N 
ATOM      9  HN  UNL     1      21.793  38.580  18.242  1.00  0.00     0.170 HD
HETATM   10  O   UNL     1      23.973  40.000  17.669  1.00  0.00    -0.267 OA
HETATM   11  N   UNL     1      20.694  37.077  16.278  1.00  0.00    -0.385 N 
ATOM     12  HN1 UNL     1      20.265  36.715  17.130  1.00  0.00     0.157 HD
ATOM     13  HN2 UNL     1      20.407  36.493  15.494  1.00  0.00     0.157 HD
HETATM   14  C   UNL     1      23.540  39.049  15.488  1.00  0.00     0.049 C 
ENDROOT
BRANCH   6  15
HETATM   15  O   UNL     1      21.674  36.801  13.362  1.00  0.00    -0.360 OA
ATOM     16  HO  UNL     1      21.808  36.448  12.490  1.00  0.00     0.217 HD
ENDBRANCH   6  15
TORSDOF 1
ENDMDL
MODEL 7
REMARK VINA RESULT:      -5.9      1.549      1.962
REMARK  1 active torsions:
REMARK  status: ('A' for Active; 'I' for Inactive)
REMARK    1  A    between atoms: C_6  and  O_10 
ROOT
HETATM    1  C   UNL     1      23.393  38.745  16.895  1.00  0.00     0.004 C 
HETATM    2  C   UNL     1      20.561  36.285  15.226  1.00  0.00     0.115 C 
HETATM    3  C   UNL     1      21.853  37.318  13.765  1.00  0.00     0.258 C 
HETATM    4  C   UNL     1      21.337  37.191  15.978  1.00  0.00     0.056 C 
HETATM    5  C   UNL     1      22.494  38.177  17.805  1.00  0.00     0.037 C 
HETATM    6  C   UNL     1      21.375  37.504  17.335  1.00  0.00     0.080 C 
HETATM    7  C   UNL     1      23.157  38.691  15.536  1.00  0.00     0.018 C 
HETATM    8  N   UNL     1      21.072  36.214  13.963  1.00  0.00    -0.308 N 
ATOM      9  HN  UNL     1      20.903  35.469  13.287  1.00  0.00     0.170 HD
HETATM   10  O   UNL     1      22.447  37.567  12.725  1.00  0.00    -0.267 OA
HETATM   11  N   UNL     1      19.902  35.253  15.791  1.00  0.00    -0.385 N 
ATOM     12  HN1 UNL     1      19.340  34.597  15.248  1.00  0.00     0.157 HD
ATOM     13  HN2 UNL     1      19.520  35.307  16.735  1.00  0.00     0.157 HD
HETATM   14  C   UNL     1      22.044  37.993  15.072  1.00  0.00     0.049 C 
ENDROOT
BRANCH   6  15
HETATM   15  O   UNL     1      20.349  37.186  18.159  1.00  0.00    -0.360 OA
ATOM     16  HO  UNL     1      19.865  37.857  18.626  1.00  0.00     0.217 HD
ENDBRANCH   6  15
TORSDOF 1
ENDMDL
MODEL 8
REMARK VINA RESULT:      -5.8      2.922      3.789
REMARK  1 active torsions:
REMARK  status: ('A' for Active; 'I' for Inactive)
REMARK    1  A    between atoms: C_6  and  O_10 
ROOT
HETATM    1  C   UNL     1      21.390  37.579  17.216  1.00  0.00     0.004 C 
HETATM    2  C   UNL     1      23.887  39.475  14.565  1.00  0.00     0.115 C 
HETATM    3  C   UNL     1      22.260  38.316  13.623  1.00  0.00     0.258 C 
HETATM    4  C   UNL     1      23.257  38.778  15.617  1.00  0.00     0.056 C 
HETATM    5  C   UNL     1      22.491  38.219  17.796  1.00  0.00     0.037 C 
HETATM    6  C   UNL     1      23.507  38.708  16.985  1.00  0.00     0.080 C 
HETATM    7  C   UNL     1      21.322  37.380  15.851  1.00  0.00     0.018 C 
HETATM    8  N   UNL     1      23.112  39.371  13.445  1.00  0.00    -0.308 N 
ATOM      9  HN  UNL     1      23.160  39.972  12.623  1.00  0.00     0.170 HD
HETATM   10  O   UNL     1      21.441  37.943  12.796  1.00  0.00    -0.267 OA
HETATM   11  N   UNL     1      24.697  40.531  14.778  1.00  0.00    -0.385 N 
ATOM     12  HN1 UNL     1      25.153  41.035  14.017  1.00  0.00     0.157 HD
ATOM     13  HN2 UNL     1      25.276  40.609  15.614  1.00  0.00     0.157 HD
HETATM   14  C   UNL     1      22.335  37.894  15.043  1.00  0.00     0.049 C 
ENDROOT
BRANCH   6  15
HETATM   15  O   UNL     1      24.702  39.076  17.503  1.00  0.00    -0.360 OA
ATOM     16  HO  UNL     1      25.317  39.600  17.002  1.00  0.00     0.217 HD
ENDBRANCH   6  15
TORSDOF 1
ENDMDL
MODEL 9
REMARK VINA RESULT:      -5.8      2.364      3.431
REMARK  1 active torsions:
REMARK  status: ('A' for Active; 'I' for Inactive)
REMARK    1  A    between atoms: C_6  and  O_10 
ROOT
HETATM    1  C   UNL     1      22.818  37.931  18.644  1.00  0.00     0.004 C 
HETATM    2  C   UNL     1      22.183  38.112  14.592  1.00  0.00     0.115 C 
HETATM    3  C   UNL     1      23.781  39.445  15.329  1.00  0.00     0.258 C 
HETATM    4  C   UNL     1      22.131  38.028  15.998  1.00  0.00     0.056 C 
HETATM    5  C   UNL     1      21.732  37.179  18.182  1.00  0.00     0.037 C 
HETATM    6  C   UNL     1      21.298  37.332  16.872  1.00  0.00     0.080 C 
HETATM    7  C   UNL     1      23.435  38.862  17.831  1.00  0.00     0.018 C 
HETATM    8  N   UNL     1      23.330  38.761  14.235  1.00  0.00    -0.308 N 
ATOM      9  HN  UNL     1      23.772  38.741  13.316  1.00  0.00     0.170 HD
HETATM   10  O   UNL     1      24.784  40.145  15.342  1.00  0.00    -0.267 OA
HETATM   11  N   UNL     1      21.598  37.201  13.789  1.00  0.00    -0.385 N 
ATOM     12  HN1 UNL     1      21.636  37.262  12.771  1.00  0.00     0.157 HD
ATOM     13  HN2 UNL     1      20.741  36.716  14.056  1.00  0.00     0.157 HD
HETATM   14  C   UNL     1      23.008  38.992  16.511  1.00  0.00     0.049 C 
ENDROOT
BRANCH   6  15
HETATM   15  O   UNL     1      20.102  36.846  16.468  1.00  0.00    -0.360 OA
ATOM     16  HO  UNL     1      19.807  36.942  15.570  1.00  0.00     0.217 HD
ENDBRANCH   6  15
TORSDOF 1
ENDMDL
