REMARK  4 active torsions:
REMARK  status: ('A' for Active; 'I' for Inactive)
REMARK    1  A    between atoms: O_1  and  C_26 
REMARK    2  A    between atoms: C_4  and  C_21 
REMARK    3  A    between atoms: C_22  and  N_23 
REMARK    4  A    between atoms: N_23  and  C_30 
ROOT
HETATM    1  C   UNL     1       5.109 -14.175 -13.722  1.00  0.00     0.044 C 
HETATM    2  C   UNL     1       7.019 -15.358 -13.906  1.00  0.00     0.090 C 
HETATM    3  C   UNL     1       4.719 -12.799 -10.970  1.00  0.00     0.017 C 
HETATM    4  O   UNL     1       6.394 -15.393 -15.152  1.00  0.00    -0.294 OA
HETATM    5  C   UNL     1       6.233 -14.605 -13.008  1.00  0.00     0.077 C 
HETATM    6  C   UNL     1       5.808 -13.617 -10.835  1.00  0.00     0.088 C 
HETATM    7  N   UNL     1       6.502 -14.346 -11.704  1.00  0.00    -0.363 N 
ATOM      8  HN  UNL     1       7.355 -14.769 -11.339  1.00  0.00     0.165 HD
HETATM    9  C   UNL     1       5.124 -14.881 -14.922  1.00  0.00     0.161 C 
HETATM   10  C   UNL     1       4.120 -13.275 -13.329  1.00  0.00     0.018 C 
HETATM   11  C   UNL     1       3.946 -12.667 -12.123  1.00  0.00     0.002 C 
ENDROOT
BRANCH   9  12
HETATM   12  N   UNL     1       4.193 -14.882 -15.845  1.00  0.00    -0.336 N 
ATOM     13  HN  UNL     1       4.144 -13.889 -16.073  1.00  0.00     0.168 HD
BRANCH  12  14
HETATM   14  C   UNL     1       3.265 -15.382 -16.675  1.00  0.00     0.034 C 
HETATM   15  C   UNL     1       2.103 -14.658 -16.972  1.00  0.00     0.030 C 
HETATM   16  C   UNL     1       1.064 -15.275 -17.660  1.00  0.00     0.014 C 
HETATM   17  C   UNL     1       1.258 -16.527 -18.263  1.00  0.00    -0.026 C 
HETATM   18  C   UNL     1       2.497 -17.173 -18.109  1.00  0.00    -0.024 C 
HETATM   19  C   UNL     1       0.198 -17.153 -18.906  1.00  0.00     0.012 C 
HETATM   20  C   UNL     1       2.803 -18.310 -18.838  1.00  0.00     0.012 C 
HETATM   21  C   UNL     1       3.513 -16.575 -17.362  1.00  0.00     0.041 C 
HETATM   22  C   UNL     1       2.134 -19.331 -19.403  1.00  0.00     0.001 C 
HETATM   23  C   UNL     1       0.854 -19.307 -19.960  1.00  0.00     0.000 C 
HETATM   24  C   UNL     1       0.053 -18.203 -19.743  1.00  0.00     0.001 C 
ENDBRANCH  12  14
ENDBRANCH   9  12
BRANCH   2  25
HETATM   25  C   UNL     1       8.366 -15.833 -13.836  1.00  0.00     0.084 C 
HETATM   26  C   UNL     1       9.090 -16.118 -15.139  1.00  0.00    -0.001 C 
HETATM   27  C   UNL     1      10.239 -16.968 -14.581  1.00  0.00     0.008 C 
HETATM   28  C   UNL     1       9.639 -14.743 -15.525  1.00  0.00     0.008 C 
HETATM   29  C   UNL     1      10.567 -16.280 -13.247  1.00  0.00     0.039 C 
HETATM   30  C   UNL     1       9.548 -15.166 -13.164  1.00  0.00     0.068 C 
HETATM   31  C   UNL     1       9.935 -14.074 -14.169  1.00  0.00     0.039 C 
BRANCH  30  32
HETATM   32  O   UNL     1       9.323 -14.687 -11.862  1.00  0.00    -0.389 OA
ATOM     33  HO  UNL     1       8.683 -13.987 -11.810  1.00  0.00     0.210 HD
ENDBRANCH  30  32
ENDBRANCH   2  25
TORSDOF 4
