REMARK  4 active torsions:
REMARK  status: ('A' for Active; 'I' for Inactive)
REMARK    1  A    between atoms: O_7  and  C_12 
REMARK    2  A    between atoms: O_9  and  C_15 
REMARK    3  A    between atoms: O_13  and  C_23 
REMARK    4  A    between atoms: C_25  and  N_30 
ROOT
HETATM    1  C   UNL     1      16.085   4.579  13.592  1.00  0.00     0.002 C 
HETATM    2  C   UNL     1      15.098   5.288  11.596  1.00  0.00     0.210 C 
HETATM    3  N   UNL     1      16.404   4.676  11.388  1.00  0.00    -0.272 N 
HETATM    4  F   UNL     1      14.912   6.425  10.873  1.00  0.00    -0.213 F 
HETATM    5  C   UNL     1      18.639   2.477  11.747  1.00  0.00     0.017 C 
HETATM    6  O   UNL     1      17.460   5.724   9.687  1.00  0.00    -0.267 OA
HETATM    7  C   UNL     1      16.905   2.944   8.623  1.00  0.00     0.021 C 
HETATM    8  C   UNL     1      18.545   1.479   7.453  1.00  0.00     0.101 C 
HETATM    9  C   UNL     1      19.532   1.364   8.405  1.00  0.00     0.133 C 
HETATM   10  C   UNL     1      16.047   4.034  14.863  1.00  0.00     0.014 C 
HETATM   11  C   UNL     1      17.165   4.691  10.260  1.00  0.00     0.262 C 
HETATM   12  C   UNL     1      16.848   4.068  12.537  1.00  0.00     0.052 C 
HETATM   13  C   UNL     1      15.009   5.878  16.087  1.00  0.00     0.029 C 
HETATM   14  C   UNL     1      17.398   2.202   7.585  1.00  0.00     0.040 C 
HETATM   15  C   UNL     1      13.939   4.361  11.236  1.00  0.00     0.083 C 
HETATM   16  C   UNL     1      14.700   6.596  13.774  1.00  0.00     0.042 C 
HETATM   17  C   UNL     1      19.617   1.994   9.644  1.00  0.00     0.113 C 
HETATM   18  C   UNL     1      15.494   4.603  15.991  1.00  0.00     0.003 C 
HETATM   19  C   UNL     1      15.046   6.856  15.101  1.00  0.00     0.026 C 
HETATM   20  C   UNL     1      17.774   3.052  12.621  1.00  0.00     0.032 C 
HETATM   21  C   UNL     1      17.569   3.370   9.753  1.00  0.00     0.045 C 
HETATM   22  C   UNL     1      18.586   2.636  10.347  1.00  0.00     0.016 C 
HETATM   23  C   UNL     1      15.188   5.515  13.066  1.00  0.00     0.016 C 
ENDROOT
BRANCH  19  24
HETATM   24  N   UNL     1      15.396   8.125  15.413  1.00  0.00    -0.399 N 
ATOM     25  HN2 UNL     1      15.649   8.315  16.383  1.00  0.00     0.156 HD
ATOM     26  HN1 UNL     1      15.423   8.843  14.689  1.00  0.00     0.156 HD
ENDBRANCH  19  24
BRANCH  17  27
HETATM   27  O   UNL     1      20.811   1.921  10.295  1.00  0.00    -0.357 OA
ATOM     28  HO  UNL     1      20.869   2.351  11.140  1.00  0.00     0.217 HD
ENDBRANCH  17  27
BRANCH   9  29
HETATM   29  O   UNL     1      20.569   0.559   8.028  1.00  0.00    -0.356 OA
ATOM     30  HO  UNL     1      21.250   0.480   8.685  1.00  0.00     0.218 HD
ENDBRANCH   9  29
BRANCH   8  31
HETATM   31  O   UNL     1      18.691   0.720   6.324  1.00  0.00    -0.358 OA
ATOM     32  HO  UNL     1      18.010   0.799   5.667  1.00  0.00     0.217 HD
ENDBRANCH   8  31
TORSDOF 4
