MODEL 1
REMARK VINA RESULT:      -8.1      0.000      0.000
REMARK  7 active torsions:
REMARK  status: ('A' for Active; 'I' for Inactive)
REMARK    1  A    between atoms: C_2  and  C_17 
REMARK    2  A    between atoms: C_2  and  C_24 
REMARK    3  A    between atoms: C_7  and  C_25 
REMARK    4  A    between atoms: C_8  and  C_23 
REMARK    5  A    between atoms: C_15  and  C_16 
REMARK    6  A    between atoms: C_15  and  C_23 
REMARK    7  A    between atoms: C_30  and  C_32 
ROOT
HETATM    1  C   UNL     1      13.983  17.488  -6.970  1.00  0.00     0.034 C 
HETATM    2  C   UNL     1      16.109  18.412  -6.367  1.00  0.00     0.066 C 
HETATM    3  O   UNL     1      16.991  19.960  -7.933  1.00  0.00    -0.259 OA
HETATM    4  C   UNL     1      16.101  19.207  -7.606  1.00  0.00     0.300 C 
HETATM    5  C   UNL     1      14.917  17.813  -5.991  1.00  0.00     0.022 C 
HETATM    6  O   UNL     1      14.945  19.151  -8.355  1.00  0.00    -0.279 OA
HETATM    7  C   UNL     1      14.100  18.081  -8.204  1.00  0.00     0.061 C 
ENDROOT
BRANCH   2   8
HETATM    8  C   UNL     1      17.295  18.111  -5.600  1.00  0.00     0.048 C 
HETATM    9  C   UNL     1      17.706  18.502  -4.313  1.00  0.00     0.032 C 
HETATM   10  C   UNL     1      19.059  18.128  -4.214  1.00  0.00     0.027 C 
HETATM   11  C   UNL     1      19.454  17.653  -5.445  1.00  0.00     0.014 C 
HETATM   12  N   UNL     1      18.339  17.481  -6.177  1.00  0.00    -0.358 N 
ATOM     13  HN  UNL     1      18.290  16.948  -7.046  1.00  0.00     0.166 HD
BRANCH  11  14
HETATM   14  C   UNL     1      20.815  17.466  -6.029  1.00  0.00     0.098 C 
BRANCH  14  15
HETATM   15  C   UNL     1      21.106  18.060  -7.372  1.00  0.00    -0.022 C 
HETATM   16  C   UNL     1      21.024  19.420  -7.623  1.00  0.00     0.097 C 
HETATM   17  N   UNL     1      20.071  19.851  -8.466  1.00  0.00    -0.362 N 
HETATM   18  C   UNL     1      19.622  18.890  -9.278  1.00  0.00     0.180 C 
ATOM     19  HN  UNL     1      19.728  20.811  -8.484  1.00  0.00     0.166 HD
HETATM   20  N   UNL     1      20.183  17.699  -9.446  1.00  0.00    -0.362 N 
HETATM   21  C   UNL     1      21.099  17.323  -8.536  1.00  0.00     0.097 C 
ATOM     22  HN  UNL     1      19.932  17.096 -10.229  1.00  0.00     0.166 HD
ENDBRANCH  14  15
ENDBRANCH  11  14
ENDBRANCH   2   8
BRANCH   7  23
HETATM   23  C   UNL     1      13.100  17.813  -9.258  1.00  0.00     0.047 C 
HETATM   24  C   UNL     1      11.848  17.111  -8.754  1.00  0.00     0.045 C 
HETATM   25  C   UNL     1      11.566  16.056  -9.802  1.00  0.00    -0.083 C 
HETATM   26  C   UNL     1      10.357  15.501  -9.928  1.00  0.00    -0.024 C 
HETATM   27  C   UNL     1      12.645  16.020 -10.837  1.00  0.00     0.034 C 
HETATM   28  C   UNL     1      13.729  16.945 -10.325  1.00  0.00     0.016 C 
BRANCH  26  29
HETATM   29  C   UNL     1       9.913  14.460 -10.912  1.00  0.00     0.027 C 
BRANCH  29  30
HETATM   30  C   UNL     1       9.196  14.989 -12.132  1.00  0.00     0.003 C 
BRANCH  30  31
HETATM   31  C   UNL     1       9.704  14.425 -13.451  1.00  0.00    -0.004 C 
HETATM   32  C   UNL     1      10.929  13.564 -13.158  1.00  0.00     0.005 C 
ENDBRANCH  30  31
ENDBRANCH  29  30
ENDBRANCH  26  29
ENDBRANCH   7  23
TORSDOF 7
ENDMDL
MODEL 2
REMARK VINA RESULT:      -7.6      6.438      9.523
REMARK  7 active torsions:
REMARK  status: ('A' for Active; 'I' for Inactive)
REMARK    1  A    between atoms: C_2  and  C_17 
REMARK    2  A    between atoms: C_2  and  C_24 
REMARK    3  A    between atoms: C_7  and  C_25 
REMARK    4  A    between atoms: C_8  and  C_23 
REMARK    5  A    between atoms: C_15  and  C_16 
REMARK    6  A    between atoms: C_15  and  C_23 
REMARK    7  A    between atoms: C_30  and  C_32 
ROOT
HETATM    1  C   UNL     1       9.929  19.002  -6.920  1.00  0.00     0.034 C 
HETATM    2  C   UNL     1      10.657  18.209  -9.059  1.00  0.00     0.066 C 
HETATM    3  O   UNL     1       8.902  17.692 -10.569  1.00  0.00    -0.259 OA
HETATM    4  C   UNL     1       9.251  18.086  -9.479  1.00  0.00     0.300 C 
HETATM    5  C   UNL     1      10.913  18.927  -7.901  1.00  0.00     0.022 C 
HETATM    6  O   UNL     1       8.311  18.567  -8.594  1.00  0.00    -0.279 OA
HETATM    7  C   UNL     1       8.637  18.684  -7.266  1.00  0.00     0.061 C 
ENDROOT
BRANCH   2   8
HETATM    8  C   UNL     1      11.759  17.527  -9.697  1.00  0.00     0.048 C 
HETATM    9  C   UNL     1      12.963  18.001 -10.250  1.00  0.00     0.032 C 
HETATM   10  C   UNL     1      13.507  16.916 -10.964  1.00  0.00     0.027 C 
HETATM   11  C   UNL     1      12.590  15.890 -10.930  1.00  0.00     0.014 C 
HETATM   12  N   UNL     1      11.660  16.220 -10.016  1.00  0.00    -0.358 N 
ATOM     13  HN  UNL     1      10.978  15.574  -9.620  1.00  0.00     0.166 HD
BRANCH  11  14
HETATM   14  C   UNL     1      12.453  14.674 -11.786  1.00  0.00     0.098 C 
BRANCH  14  15
HETATM   15  C   UNL     1      11.083  14.118 -12.027  1.00  0.00    -0.022 C 
HETATM   16  C   UNL     1      10.714  13.530 -13.226  1.00  0.00     0.097 C 
HETATM   17  N   UNL     1       9.783  14.147 -13.972  1.00  0.00    -0.362 N 
HETATM   18  C   UNL     1       9.030  14.997 -13.267  1.00  0.00     0.180 C 
ATOM     19  HN  UNL     1       9.664  13.983 -14.971  1.00  0.00     0.166 HD
HETATM   20  N   UNL     1       8.997  15.079 -11.943  1.00  0.00    -0.362 N 
HETATM   21  C   UNL     1       9.987  14.468 -11.269  1.00  0.00     0.097 C 
ATOM     22  HN  UNL     1       8.255  15.582 -11.458  1.00  0.00     0.166 HD
ENDBRANCH  14  15
ENDBRANCH  11  14
ENDBRANCH   2   8
BRANCH   7  23
HETATM   23  C   UNL     1       7.548  18.805  -6.275  1.00  0.00     0.047 C 
HETATM   24  C   UNL     1       6.181  19.061  -6.892  1.00  0.00     0.045 C 
HETATM   25  C   UNL     1       5.570  20.127  -6.008  1.00  0.00    -0.083 C 
HETATM   26  C   UNL     1       4.250  20.339  -5.980  1.00  0.00    -0.024 C 
HETATM   27  C   UNL     1       6.543  20.598  -4.975  1.00  0.00     0.034 C 
HETATM   28  C   UNL     1       7.863  19.948  -5.335  1.00  0.00     0.016 C 
BRANCH  26  29
HETATM   29  C   UNL     1       3.491  21.340  -5.161  1.00  0.00     0.027 C 
BRANCH  29  30
HETATM   30  C   UNL     1       2.570  20.753  -4.116  1.00  0.00     0.003 C 
BRANCH  30  31
HETATM   31  C   UNL     1       3.226  19.720  -3.212  1.00  0.00    -0.004 C 
HETATM   32  C   UNL     1       2.458  18.410  -3.352  1.00  0.00     0.005 C 
ENDBRANCH  30  31
ENDBRANCH  29  30
ENDBRANCH  26  29
ENDBRANCH   7  23
TORSDOF 7
ENDMDL
MODEL 3
REMARK VINA RESULT:      -7.4      2.230      3.224
REMARK  7 active torsions:
REMARK  status: ('A' for Active; 'I' for Inactive)
REMARK    1  A    between atoms: C_2  and  C_17 
REMARK    2  A    between atoms: C_2  and  C_24 
REMARK    3  A    between atoms: C_7  and  C_25 
REMARK    4  A    between atoms: C_8  and  C_23 
REMARK    5  A    between atoms: C_15  and  C_16 
REMARK    6  A    between atoms: C_15  and  C_23 
REMARK    7  A    between atoms: C_30  and  C_32 
ROOT
HETATM    1  C   UNL     1      12.034  17.494  -7.103  1.00  0.00     0.034 C 
HETATM    2  C   UNL     1      13.958  17.698  -5.693  1.00  0.00     0.066 C 
HETATM    3  O   UNL     1      16.005  17.992  -6.854  1.00  0.00    -0.259 OA
HETATM    4  C   UNL     1      14.804  17.844  -6.888  1.00  0.00     0.300 C 
HETATM    5  C   UNL     1      12.587  17.813  -5.868  1.00  0.00     0.022 C 
HETATM    6  O   UNL     1      14.141  17.927  -8.093  1.00  0.00    -0.279 OA
HETATM    7  C   UNL     1      12.867  17.426  -8.194  1.00  0.00     0.061 C 
ENDROOT
BRANCH   2   8
HETATM    8  C   UNL     1      14.449  17.316  -4.389  1.00  0.00     0.048 C 
HETATM    9  C   UNL     1      14.099  17.736  -3.093  1.00  0.00     0.032 C 
HETATM   10  C   UNL     1      15.097  17.224  -2.243  1.00  0.00     0.027 C 
HETATM   11  C   UNL     1      16.059  16.637  -3.033  1.00  0.00     0.014 C 
HETATM   12  N   UNL     1      15.549  16.543  -4.274  1.00  0.00    -0.358 N 
ATOM     13  HN  UNL     1      15.938  15.969  -5.021  1.00  0.00     0.166 HD
BRANCH  11  14
HETATM   14  C   UNL     1      17.476  16.269  -2.736  1.00  0.00     0.098 C 
BRANCH  14  15
HETATM   15  C   UNL     1      18.571  17.099  -3.331  1.00  0.00    -0.022 C 
HETATM   16  C   UNL     1      19.041  18.258  -2.735  1.00  0.00     0.097 C 
HETATM   17  N   UNL     1      18.829  19.424  -3.367  1.00  0.00    -0.362 N 
HETATM   18  C   UNL     1      18.590  19.272  -4.673  1.00  0.00     0.180 C 
ATOM     19  HN  UNL     1      18.849  20.330  -2.899  1.00  0.00     0.166 HD
HETATM   20  N   UNL     1      18.771  18.153  -5.363  1.00  0.00    -0.362 N 
HETATM   21  C   UNL     1      18.936  17.021  -4.657  1.00  0.00     0.097 C 
ATOM     22  HN  UNL     1      18.785  18.151  -6.383  1.00  0.00     0.166 HD
ENDBRANCH  14  15
ENDBRANCH  11  14
ENDBRANCH   2   8
BRANCH   7  23
HETATM   23  C   UNL     1      12.318  17.148  -9.537  1.00  0.00     0.047 C 
HETATM   24  C   UNL     1      11.360  15.967  -9.577  1.00  0.00     0.045 C 
HETATM   25  C   UNL     1      11.757  15.209 -10.825  1.00  0.00    -0.083 C 
HETATM   26  C   UNL     1      10.922  14.348 -11.415  1.00  0.00    -0.024 C 
HETATM   27  C   UNL     1      12.969  15.811 -11.462  1.00  0.00     0.034 C 
HETATM   28  C   UNL     1      13.460  16.860 -10.486  1.00  0.00     0.016 C 
BRANCH  26  29
HETATM   29  C   UNL     1      11.155  13.532 -12.652  1.00  0.00     0.027 C 
BRANCH  29  30
HETATM   30  C   UNL     1      10.083  13.644 -13.711  1.00  0.00     0.003 C 
BRANCH  30  31
HETATM   31  C   UNL     1       9.031  14.706 -13.427  1.00  0.00    -0.004 C 
HETATM   32  C   UNL     1       7.785  14.009 -12.892  1.00  0.00     0.005 C 
ENDBRANCH  30  31
ENDBRANCH  29  30
ENDBRANCH  26  29
ENDBRANCH   7  23
TORSDOF 7
ENDMDL
MODEL 4
REMARK VINA RESULT:      -7.4      8.290     12.020
REMARK  7 active torsions:
REMARK  status: ('A' for Active; 'I' for Inactive)
REMARK    1  A    between atoms: C_2  and  C_17 
REMARK    2  A    between atoms: C_2  and  C_24 
REMARK    3  A    between atoms: C_7  and  C_25 
REMARK    4  A    between atoms: C_8  and  C_23 
REMARK    5  A    between atoms: C_15  and  C_16 
REMARK    6  A    between atoms: C_15  and  C_23 
REMARK    7  A    between atoms: C_30  and  C_32 
ROOT
HETATM    1  C   UNL     1       8.502  19.079  -6.486  1.00  0.00     0.034 C 
HETATM    2  C   UNL     1       6.262  19.439  -7.251  1.00  0.00     0.066 C 
HETATM    3  O   UNL     1       5.941  19.068  -9.572  1.00  0.00    -0.259 OA
HETATM    4  C   UNL     1       6.683  19.079  -8.615  1.00  0.00     0.300 C 
HETATM    5  C   UNL     1       7.139  19.145  -6.219  1.00  0.00     0.022 C 
HETATM    6  O   UNL     1       7.976  18.623  -8.750  1.00  0.00    -0.279 OA
HETATM    7  C   UNL     1       8.905  18.949  -7.794  1.00  0.00     0.061 C 
ENDROOT
BRANCH   2   8
HETATM    8  C   UNL     1       5.068  20.190  -6.939  1.00  0.00     0.048 C 
HETATM    9  C   UNL     1       4.286  20.267  -5.773  1.00  0.00     0.032 C 
HETATM   10  C   UNL     1       3.107  20.939  -6.148  1.00  0.00     0.027 C 
HETATM   11  C   UNL     1       3.150  21.131  -7.511  1.00  0.00     0.014 C 
HETATM   12  N   UNL     1       4.402  20.848  -7.910  1.00  0.00    -0.358 N 
ATOM     13  HN  UNL     1       4.794  21.097  -8.819  1.00  0.00     0.166 HD
BRANCH  11  14
HETATM   14  C   UNL     1       2.064  21.441  -8.488  1.00  0.00     0.098 C 
BRANCH  14  15
HETATM   15  C   UNL     1       2.356  22.400  -9.601  1.00  0.00    -0.022 C 
HETATM   16  C   UNL     1       1.380  23.196 -10.179  1.00  0.00     0.097 C 
HETATM   17  N   UNL     1       1.054  22.966 -11.461  1.00  0.00    -0.362 N 
HETATM   18  C   UNL     1       2.005  22.307 -12.130  1.00  0.00     0.180 C 
ATOM     19  HN  UNL     1       0.173  23.263 -11.880  1.00  0.00     0.166 HD
HETATM   20  N   UNL     1       3.243  22.097 -11.699  1.00  0.00    -0.362 N 
HETATM   21  C   UNL     1       3.479  22.311 -10.393  1.00  0.00     0.097 C 
ATOM     22  HN  UNL     1       3.982  21.787 -12.330  1.00  0.00     0.166 HD
ENDBRANCH  14  15
ENDBRANCH  11  14
ENDBRANCH   2   8
BRANCH   7  23
HETATM   23  C   UNL     1      10.339  18.816  -8.124  1.00  0.00     0.047 C 
HETATM   24  C   UNL     1      10.617  18.662  -9.612  1.00  0.00     0.045 C 
HETATM   25  C   UNL     1      11.664  17.572  -9.683  1.00  0.00    -0.083 C 
HETATM   26  C   UNL     1      12.442  17.419 -10.759  1.00  0.00    -0.024 C 
HETATM   27  C   UNL     1      11.936  16.993  -8.330  1.00  0.00     0.034 C 
HETATM   28  C   UNL     1      10.898  17.604  -7.412  1.00  0.00     0.016 C 
BRANCH  26  29
HETATM   29  C   UNL     1      13.524  16.405 -10.983  1.00  0.00     0.027 C 
BRANCH  29  30
HETATM   30  C   UNL     1      13.046  15.025 -11.369  1.00  0.00     0.003 C 
BRANCH  30  31
HETATM   31  C   UNL     1      11.581  14.960 -11.777  1.00  0.00    -0.004 C 
HETATM   32  C   UNL     1      11.416  13.815 -12.770  1.00  0.00     0.005 C 
ENDBRANCH  30  31
ENDBRANCH  29  30
ENDBRANCH  26  29
ENDBRANCH   7  23
TORSDOF 7
ENDMDL
MODEL 5
REMARK VINA RESULT:      -7.3      7.081     10.076
REMARK  7 active torsions:
REMARK  status: ('A' for Active; 'I' for Inactive)
REMARK    1  A    between atoms: C_2  and  C_17 
REMARK    2  A    between atoms: C_2  and  C_24 
REMARK    3  A    between atoms: C_7  and  C_25 
REMARK    4  A    between atoms: C_8  and  C_23 
REMARK    5  A    between atoms: C_15  and  C_16 
REMARK    6  A    between atoms: C_15  and  C_23 
REMARK    7  A    between atoms: C_30  and  C_32 
ROOT
HETATM    1  C   UNL     1       6.940  19.168  -8.229  1.00  0.00     0.034 C 
HETATM    2  C   UNL     1       9.150  18.262  -8.055  1.00  0.00     0.066 C 
HETATM    3  O   UNL     1       9.967  18.077  -5.835  1.00  0.00    -0.259 OA
HETATM    4  C   UNL     1       9.074  18.391  -6.590  1.00  0.00     0.300 C 
HETATM    5  C   UNL     1       7.967  18.398  -8.765  1.00  0.00     0.022 C 
HETATM    6  O   UNL     1       7.857  18.788  -6.079  1.00  0.00    -0.279 OA
HETATM    7  C   UNL     1       6.978  19.464  -6.888  1.00  0.00     0.061 C 
ENDROOT
BRANCH   2   8
HETATM    8  C   UNL     1      10.382  18.137  -8.798  1.00  0.00     0.048 C 
HETATM    9  C   UNL     1      10.988  18.968  -9.757  1.00  0.00     0.032 C 
HETATM   10  C   UNL     1      12.025  18.203 -10.325  1.00  0.00     0.027 C 
HETATM   11  C   UNL     1      11.940  16.931  -9.803  1.00  0.00     0.014 C 
HETATM   12  N   UNL     1      11.083  16.985  -8.768  1.00  0.00    -0.358 N 
ATOM     13  HN  UNL     1      10.978  16.257  -8.060  1.00  0.00     0.166 HD
BRANCH  11  14
HETATM   14  C   UNL     1      12.512  15.638 -10.283  1.00  0.00     0.098 C 
BRANCH  14  15
HETATM   15  C   UNL     1      11.589  14.629 -10.893  1.00  0.00    -0.022 C 
HETATM   16  C   UNL     1      11.748  14.151 -12.184  1.00  0.00     0.097 C 
HETATM   17  N   UNL     1      10.808  14.459 -13.093  1.00  0.00    -0.362 N 
HETATM   18  C   UNL     1       9.643  14.806 -12.539  1.00  0.00     0.180 C 
ATOM     19  HN  UNL     1      10.968  14.431 -14.099  1.00  0.00     0.166 HD
HETATM   20  N   UNL     1       9.320  14.645 -11.261  1.00  0.00    -0.362 N 
HETATM   21  C   UNL     1      10.324  14.379 -10.407  1.00  0.00     0.097 C 
ATOM     22  HN  UNL     1       8.355  14.720 -10.941  1.00  0.00     0.166 HD
ENDBRANCH  14  15
ENDBRANCH  11  14
ENDBRANCH   2   8
BRANCH   7  23
HETATM   23  C   UNL     1       5.881  20.229  -6.260  1.00  0.00     0.047 C 
HETATM   24  C   UNL     1       6.228  20.791  -4.889  1.00  0.00     0.045 C 
HETATM   25  C   UNL     1       4.994  20.519  -4.055  1.00  0.00    -0.083 C 
HETATM   26  C   UNL     1       4.751  21.195  -2.927  1.00  0.00    -0.024 C 
HETATM   27  C   UNL     1       3.984  19.727  -4.823  1.00  0.00     0.034 C 
HETATM   28  C   UNL     1       4.676  19.327  -6.109  1.00  0.00     0.016 C 
BRANCH  26  29
HETATM   29  C   UNL     1       3.582  21.056  -1.999  1.00  0.00     0.027 C 
BRANCH  29  30
HETATM   30  C   UNL     1       3.783  20.101  -0.845  1.00  0.00     0.003 C 
BRANCH  30  31
HETATM   31  C   UNL     1       3.645  18.632  -1.216  1.00  0.00    -0.004 C 
HETATM   32  C   UNL     1       4.340  17.803  -0.141  1.00  0.00     0.005 C 
ENDBRANCH  30  31
ENDBRANCH  29  30
ENDBRANCH  26  29
ENDBRANCH   7  23
TORSDOF 7
ENDMDL
MODEL 6
REMARK VINA RESULT:      -7.3      2.481      3.401
REMARK  7 active torsions:
REMARK  status: ('A' for Active; 'I' for Inactive)
REMARK    1  A    between atoms: C_2  and  C_17 
REMARK    2  A    between atoms: C_2  and  C_24 
REMARK    3  A    between atoms: C_7  and  C_25 
REMARK    4  A    between atoms: C_8  and  C_23 
REMARK    5  A    between atoms: C_15  and  C_16 
REMARK    6  A    between atoms: C_15  and  C_23 
REMARK    7  A    between atoms: C_30  and  C_32 
ROOT
HETATM    1  C   UNL     1      14.058  17.315  -7.899  1.00  0.00     0.034 C 
HETATM    2  C   UNL     1      14.303  19.112  -6.335  1.00  0.00     0.066 C 
HETATM    3  O   UNL     1      12.623  20.779  -6.478  1.00  0.00    -0.259 OA
HETATM    4  C   UNL     1      13.084  19.734  -6.877  1.00  0.00     0.300 C 
HETATM    5  C   UNL     1      14.557  17.796  -6.693  1.00  0.00     0.022 C 
HETATM    6  O   UNL     1      12.393  18.997  -7.814  1.00  0.00    -0.279 OA
HETATM    7  C   UNL     1      13.050  18.017  -8.515  1.00  0.00     0.061 C 
ENDROOT
BRANCH   2   8
HETATM    8  C   UNL     1      15.307  19.816  -5.571  1.00  0.00     0.048 C 
HETATM    9  C   UNL     1      15.926  21.065  -5.761  1.00  0.00     0.032 C 
HETATM   10  C   UNL     1      17.007  21.096  -4.859  1.00  0.00     0.027 C 
HETATM   11  C   UNL     1      17.087  19.859  -4.260  1.00  0.00     0.014 C 
HETATM   12  N   UNL     1      15.956  19.198  -4.563  1.00  0.00    -0.358 N 
ATOM     13  HN  UNL     1      15.634  18.350  -4.096  1.00  0.00     0.166 HD
BRANCH  11  14
HETATM   14  C   UNL     1      18.207  19.202  -3.523  1.00  0.00     0.098 C 
BRANCH  14  15
HETATM   15  C   UNL     1      18.431  17.734  -3.721  1.00  0.00    -0.022 C 
HETATM   16  C   UNL     1      18.758  17.185  -4.950  1.00  0.00     0.097 C 
HETATM   17  N   UNL     1      17.866  16.371  -5.537  1.00  0.00    -0.362 N 
HETATM   18  C   UNL     1      16.986  15.855  -4.673  1.00  0.00     0.180 C 
ATOM     19  HN  UNL     1      17.860  16.167  -6.536  1.00  0.00     0.166 HD
HETATM   20  N   UNL     1      17.085  15.909  -3.350  1.00  0.00    -0.362 N 
HETATM   21  C   UNL     1      17.973  16.779  -2.840  1.00  0.00     0.097 C 
ATOM     22  HN  UNL     1      16.512  15.318  -2.748  1.00  0.00     0.166 HD
ENDBRANCH  14  15
ENDBRANCH  11  14
ENDBRANCH   2   8
BRANCH   7  23
HETATM   23  C   UNL     1      12.448  17.515  -9.767  1.00  0.00     0.047 C 
HETATM   24  C   UNL     1      11.468  16.370  -9.562  1.00  0.00     0.045 C 
HETATM   25  C   UNL     1      11.806  15.390 -10.665  1.00  0.00    -0.083 C 
HETATM   26  C   UNL     1      10.935  14.457 -11.062  1.00  0.00    -0.024 C 
HETATM   27  C   UNL     1      13.005  15.838 -11.438  1.00  0.00     0.034 C 
HETATM   28  C   UNL     1      13.550  17.033 -10.685  1.00  0.00     0.016 C 
BRANCH  26  29
HETATM   29  C   UNL     1      11.108  13.426 -12.137  1.00  0.00     0.027 C 
BRANCH  29  30
HETATM   30  C   UNL     1      10.186  13.572 -13.326  1.00  0.00     0.003 C 
BRANCH  30  31
HETATM   31  C   UNL     1       9.106  14.630 -13.156  1.00  0.00    -0.004 C 
HETATM   32  C   UNL     1       7.784  13.919 -12.889  1.00  0.00     0.005 C 
ENDBRANCH  30  31
ENDBRANCH  29  30
ENDBRANCH  26  29
ENDBRANCH   7  23
TORSDOF 7
ENDMDL
MODEL 7
REMARK VINA RESULT:      -7.2      3.480      5.626
REMARK  7 active torsions:
REMARK  status: ('A' for Active; 'I' for Inactive)
REMARK    1  A    between atoms: C_2  and  C_17 
REMARK    2  A    between atoms: C_2  and  C_24 
REMARK    3  A    between atoms: C_7  and  C_25 
REMARK    4  A    between atoms: C_8  and  C_23 
REMARK    5  A    between atoms: C_15  and  C_16 
REMARK    6  A    between atoms: C_15  and  C_23 
REMARK    7  A    between atoms: C_30  and  C_32 
ROOT
HETATM    1  C   UNL     1      12.466  17.496  -7.268  1.00  0.00     0.034 C 
HETATM    2  C   UNL     1      14.450  17.954  -6.009  1.00  0.00     0.066 C 
HETATM    3  O   UNL     1      16.314  18.624  -7.314  1.00  0.00    -0.259 OA
HETATM    4  C   UNL     1      15.153  18.284  -7.259  1.00  0.00     0.300 C 
HETATM    5  C   UNL     1      13.069  17.851  -6.066  1.00  0.00     0.022 C 
HETATM    6  O   UNL     1      14.381  18.306  -8.401  1.00  0.00    -0.279 OA
HETATM    7  C   UNL     1      13.199  17.610  -8.425  1.00  0.00     0.061 C 
ENDROOT
BRANCH   2   8
HETATM    8  C   UNL     1      15.109  17.606  -4.772  1.00  0.00     0.048 C 
HETATM    9  C   UNL     1      16.232  16.804  -4.500  1.00  0.00     0.032 C 
HETATM   10  C   UNL     1      16.237  16.613  -3.105  1.00  0.00     0.027 C 
HETATM   11  C   UNL     1      15.086  17.178  -2.602  1.00  0.00     0.014 C 
HETATM   12  N   UNL     1      14.545  17.917  -3.586  1.00  0.00    -0.358 N 
ATOM     13  HN  UNL     1      13.813  18.615  -3.455  1.00  0.00     0.166 HD
BRANCH  11  14
HETATM   14  C   UNL     1      14.388  16.974  -1.298  1.00  0.00     0.098 C 
BRANCH  14  15
HETATM   15  C   UNL     1      12.941  16.586  -1.313  1.00  0.00    -0.022 C 
HETATM   16  C   UNL     1      12.491  15.395  -1.858  1.00  0.00     0.097 C 
HETATM   17  N   UNL     1      11.718  15.454  -2.955  1.00  0.00    -0.362 N 
HETATM   18  C   UNL     1      11.131  16.644  -3.115  1.00  0.00     0.180 C 
ATOM     19  HN  UNL     1      11.592  14.672  -3.597  1.00  0.00     0.166 HD
HETATM   20  N   UNL     1      11.084  17.607  -2.203  1.00  0.00    -0.362 N 
HETATM   21  C   UNL     1      11.918  17.496  -1.154  1.00  0.00     0.097 C 
ATOM     22  HN  UNL     1      10.445  18.396  -2.293  1.00  0.00     0.166 HD
ENDBRANCH  14  15
ENDBRANCH  11  14
ENDBRANCH   2   8
BRANCH   7  23
HETATM   23  C   UNL     1      12.584  17.300  -9.732  1.00  0.00     0.047 C 
HETATM   24  C   UNL     1      11.420  16.324  -9.648  1.00  0.00     0.045 C 
HETATM   25  C   UNL     1      11.646  15.377 -10.807  1.00  0.00    -0.083 C 
HETATM   26  C   UNL     1      10.654  14.632 -11.304  1.00  0.00    -0.024 C 
HETATM   27  C   UNL     1      12.939  15.668 -11.501  1.00  0.00     0.034 C 
HETATM   28  C   UNL     1      13.636  16.703 -10.641  1.00  0.00     0.016 C 
BRANCH  26  29
HETATM   29  C   UNL     1      10.708  13.660 -12.445  1.00  0.00     0.027 C 
BRANCH  29  30
HETATM   30  C   UNL     1       9.518  13.692 -13.377  1.00  0.00     0.003 C 
BRANCH  30  31
HETATM   31  C   UNL     1       8.197  14.017 -12.695  1.00  0.00    -0.004 C 
HETATM   32  C   UNL     1       7.714  15.366 -13.216  1.00  0.00     0.005 C 
ENDBRANCH  30  31
ENDBRANCH  29  30
ENDBRANCH  26  29
ENDBRANCH   7  23
TORSDOF 7
ENDMDL
MODEL 8
REMARK VINA RESULT:      -7.1      1.719      2.297
REMARK  7 active torsions:
REMARK  status: ('A' for Active; 'I' for Inactive)
REMARK    1  A    between atoms: C_2  and  C_17 
REMARK    2  A    between atoms: C_2  and  C_24 
REMARK    3  A    between atoms: C_7  and  C_25 
REMARK    4  A    between atoms: C_8  and  C_23 
REMARK    5  A    between atoms: C_15  and  C_16 
REMARK    6  A    between atoms: C_15  and  C_23 
REMARK    7  A    between atoms: C_30  and  C_32 
ROOT
HETATM    1  C   UNL     1      14.005  16.984  -8.720  1.00  0.00     0.034 C 
HETATM    2  C   UNL     1      14.793  18.595  -7.132  1.00  0.00     0.066 C 
HETATM    3  O   UNL     1      13.276  20.364  -6.687  1.00  0.00    -0.259 OA
HETATM    4  C   UNL     1      13.531  19.339  -7.280  1.00  0.00     0.300 C 
HETATM    5  C   UNL     1      14.836  17.311  -7.653  1.00  0.00     0.022 C 
HETATM    6  O   UNL     1      12.563  18.743  -8.058  1.00  0.00    -0.279 OA
HETATM    7  C   UNL     1      12.934  17.803  -8.987  1.00  0.00     0.061 C 
ENDROOT
BRANCH   2   8
HETATM    8  C   UNL     1      16.014  19.159  -6.605  1.00  0.00     0.048 C 
HETATM    9  C   UNL     1      16.284  19.877  -5.426  1.00  0.00     0.032 C 
HETATM   10  C   UNL     1      17.582  20.397  -5.586  1.00  0.00     0.027 C 
HETATM   11  C   UNL     1      17.999  20.099  -6.864  1.00  0.00     0.014 C 
HETATM   12  N   UNL     1      17.127  19.206  -7.365  1.00  0.00    -0.358 N 
ATOM     13  HN  UNL     1      17.286  18.644  -8.202  1.00  0.00     0.166 HD
BRANCH  11  14
HETATM   14  C   UNL     1      19.091  20.686  -7.697  1.00  0.00     0.098 C 
BRANCH  14  15
HETATM   15  C   UNL     1      20.194  19.788  -8.166  1.00  0.00    -0.022 C 
HETATM   16  C   UNL     1      20.120  19.063  -9.345  1.00  0.00     0.097 C 
HETATM   17  N   UNL     1      20.074  17.724  -9.261  1.00  0.00    -0.362 N 
HETATM   18  C   UNL     1      20.542  17.258  -8.099  1.00  0.00     0.180 C 
ATOM     19  HN  UNL     1      19.719  17.125 -10.006  1.00  0.00     0.166 HD
HETATM   20  N   UNL     1      21.213  17.969  -7.200  1.00  0.00    -0.362 N 
HETATM   21  C   UNL     1      21.177  19.306  -7.329  1.00  0.00     0.097 C 
ATOM     22  HN  UNL     1      21.731  17.521  -6.445  1.00  0.00     0.166 HD
ENDBRANCH  14  15
ENDBRANCH  11  14
ENDBRANCH   2   8
BRANCH   7  23
HETATM   23  C   UNL     1      11.990  17.467 -10.073  1.00  0.00     0.047 C 
HETATM   24  C   UNL     1      10.878  16.520  -9.649  1.00  0.00     0.045 C 
HETATM   25  C   UNL     1      10.775  15.533 -10.792  1.00  0.00    -0.083 C 
HETATM   26  C   UNL     1       9.677  14.795 -10.981  1.00  0.00    -0.024 C 
HETATM   27  C   UNL     1      11.842  15.773 -11.813  1.00  0.00     0.034 C 
HETATM   28  C   UNL     1      12.755  16.818 -11.206  1.00  0.00     0.016 C 
BRANCH  26  29
HETATM   29  C   UNL     1       9.413  13.787 -12.060  1.00  0.00     0.027 C 
BRANCH  29  30
HETATM   30  C   UNL     1       8.089  13.937 -12.773  1.00  0.00     0.003 C 
BRANCH  30  31
HETATM   31  C   UNL     1       7.713  15.375 -13.102  1.00  0.00    -0.004 C 
HETATM   32  C   UNL     1       8.402  15.759 -14.406  1.00  0.00     0.005 C 
ENDBRANCH  30  31
ENDBRANCH  29  30
ENDBRANCH  26  29
ENDBRANCH   7  23
TORSDOF 7
ENDMDL
MODEL 9
REMARK VINA RESULT:      -7.0      8.209     10.884
REMARK  7 active torsions:
REMARK  status: ('A' for Active; 'I' for Inactive)
REMARK    1  A    between atoms: C_2  and  C_17 
REMARK    2  A    between atoms: C_2  and  C_24 
REMARK    3  A    between atoms: C_7  and  C_25 
REMARK    4  A    between atoms: C_8  and  C_23 
REMARK    5  A    between atoms: C_15  and  C_16 
REMARK    6  A    between atoms: C_15  and  C_23 
REMARK    7  A    between atoms: C_30  and  C_32 
ROOT
HETATM    1  C   UNL     1       6.382  19.896  -5.363  1.00  0.00     0.034 C 
HETATM    2  C   UNL     1       7.782  19.106  -7.138  1.00  0.00     0.066 C 
HETATM    3  O   UNL     1       6.656  18.739  -9.194  1.00  0.00    -0.259 OA
HETATM    4  C   UNL     1       6.614  19.085  -8.034  1.00  0.00     0.300 C 
HETATM    5  C   UNL     1       7.646  19.778  -5.933  1.00  0.00     0.022 C 
HETATM    6  O   UNL     1       5.447  19.607  -7.520  1.00  0.00    -0.279 OA
HETATM    7  C   UNL     1       5.284  19.672  -6.159  1.00  0.00     0.061 C 
ENDROOT
BRANCH   2   8
HETATM    8  C   UNL     1       9.001  18.367  -7.373  1.00  0.00     0.048 C 
HETATM    9  C   UNL     1      10.198  18.274  -6.640  1.00  0.00     0.032 C 
HETATM   10  C   UNL     1      11.117  17.631  -7.491  1.00  0.00     0.027 C 
HETATM   11  C   UNL     1      10.512  17.472  -8.717  1.00  0.00     0.014 C 
HETATM   12  N   UNL     1       9.205  17.744  -8.552  1.00  0.00    -0.358 N 
ATOM     13  HN  UNL     1       8.473  17.512  -9.222  1.00  0.00     0.166 HD
BRANCH  11  14
HETATM   14  C   UNL     1      11.094  17.204 -10.066  1.00  0.00     0.098 C 
BRANCH  14  15
HETATM   15  C   UNL     1      11.082  15.799 -10.584  1.00  0.00    -0.022 C 
HETATM   16  C   UNL     1      11.519  15.465 -11.856  1.00  0.00     0.097 C 
HETATM   17  N   UNL     1      10.613  15.006 -12.735  1.00  0.00    -0.362 N 
HETATM   18  C   UNL     1       9.516  14.521 -12.147  1.00  0.00     0.180 C 
ATOM     19  HN  UNL     1      10.750  15.025 -13.746  1.00  0.00     0.166 HD
HETATM   20  N   UNL     1       9.385  14.272 -10.850  1.00  0.00    -0.362 N 
HETATM   21  C   UNL     1      10.310  14.801 -10.030  1.00  0.00     0.097 C 
ATOM     22  HN  UNL     1       8.618  13.704 -10.491  1.00  0.00     0.166 HD
ENDBRANCH  14  15
ENDBRANCH  11  14
ENDBRANCH   2   8
BRANCH   7  23
HETATM   23  C   UNL     1       3.921  19.842  -5.614  1.00  0.00     0.047 C 
HETATM   24  C   UNL     1       3.887  20.136  -4.122  1.00  0.00     0.045 C 
HETATM   25  C   UNL     1       2.764  19.268  -3.598  1.00  0.00    -0.083 C 
HETATM   26  C   UNL     1       2.169  19.525  -2.429  1.00  0.00    -0.024 C 
HETATM   27  C   UNL     1       2.208  18.392  -4.676  1.00  0.00     0.034 C 
HETATM   28  C   UNL     1       3.131  18.576  -5.863  1.00  0.00     0.016 C 
BRANCH  26  29
HETATM   29  C   UNL     1       1.045  18.776  -1.777  1.00  0.00     0.027 C 
BRANCH  29  30
HETATM   30  C   UNL     1       1.307  17.309  -1.525  1.00  0.00     0.003 C 
BRANCH  30  31
HETATM   31  C   UNL     1       1.474  16.946  -0.057  1.00  0.00    -0.004 C 
HETATM   32  C   UNL     1       2.821  16.250   0.109  1.00  0.00     0.005 C 
ENDBRANCH  30  31
ENDBRANCH  29  30
ENDBRANCH  26  29
ENDBRANCH   7  23
TORSDOF 7
ENDMDL
