MODEL 1
REMARK VINA RESULT:      -9.8      0.000      0.000
REMARK  8 active torsions:
REMARK  status: ('A' for Active; 'I' for Inactive)
REMARK    1  A    between atoms: C_1  and  O_3 
REMARK    2  A    between atoms: C_6  and  N_26 
REMARK    3  A    between atoms: C_10  and  O_11 
REMARK    4  A    between atoms: C_18  and  O_34 
REMARK    5  A    between atoms: C_19  and  C_36 
REMARK    6  A    between atoms: C_22  and  C_36 
REMARK    7  A    between atoms: C_29  and  O_31 
REMARK    8  A    between atoms: N_37  and  O_42 
ROOT
HETATM    1  C   UNL     1       8.721  45.780  47.698  1.00  0.00     0.090 C 
HETATM    2  C   UNL     1       6.359  44.829  52.170  1.00  0.00     0.165 C 
HETATM    3  O   UNL     1       9.691  46.263  52.468  1.00  0.00    -0.301 OA
HETATM    4  C   UNL     1       7.067  44.594  54.430  1.00  0.00     0.162 C 
HETATM    5  C   UNL     1       9.372  45.728  46.452  1.00  0.00     0.011 C 
HETATM    6  C   UNL     1       8.583  45.507  52.778  1.00  0.00     0.148 C 
HETATM    7  C   UNL     1       9.672  44.746  44.287  1.00  0.00     0.066 C 
HETATM    8  C   UNL     1      10.791  45.544  44.058  1.00  0.00     0.037 C 
HETATM    9  C   UNL     1      10.438  46.613  46.196  1.00  0.00    -0.022 C 
HETATM   10  C   UNL     1      10.405  47.320  48.477  1.00  0.00     0.015 A 
HETATM   11  C   UNL     1       8.357  45.046  54.077  1.00  0.00     0.149 C 
HETATM   12  C   UNL     1      10.976  47.459  50.841  1.00  0.00     0.086 A 
HETATM   13  C   UNL     1      10.701  47.610  47.139  1.00  0.00     0.027 C 
HETATM   14  C   UNL     1       9.341  46.436  48.780  1.00  0.00     0.048 A 
HETATM   15  O   UNL     1       7.987  45.333  50.463  1.00  0.00    -0.302 OA
HETATM   16  C   UNL     1       9.062  46.129  50.134  1.00  0.00     0.125 A 
HETATM   17  C   UNL     1       9.172  44.634  45.590  1.00  0.00     0.051 C 
HETATM   18  C   UNL     1      11.249  47.772  49.505  1.00  0.00     0.094 A 
HETATM   19  C   UNL     1       7.643  45.185  51.788  1.00  0.00     0.131 C 
HETATM   20  N   UNL     1       6.111  44.455  53.460  1.00  0.00    -0.214 N 
HETATM   21  C   UNL     1       9.871  46.649  51.153  1.00  0.00     0.128 A 
HETATM   22  C   UNL     1      11.098  46.556  44.970  1.00  0.00     0.015 C 
ENDROOT
BRANCH  12  23
HETATM   23  C   UNL     1      11.818  48.041  51.922  1.00  0.00     0.198 C 
HETATM   24  O   UNL     1      11.379  48.985  52.551  1.00  0.00    -0.286 OA
BRANCH  23  25
HETATM   25  C   UNL     1      13.091  47.421  52.370  1.00  0.00     0.015 C 
HETATM   26  C   UNL     1      13.166  46.245  53.122  1.00  0.00     0.015 C 
HETATM   27  C   UNL     1      14.307  46.006  53.886  1.00  0.00     0.001 C 
HETATM   28  C   UNL     1      15.321  46.962  53.917  1.00  0.00     0.000 C 
HETATM   29  C   UNL     1      15.370  47.923  52.905  1.00  0.00     0.001 C 
HETATM   30  C   UNL     1      14.280  48.078  52.053  1.00  0.00     0.015 C 
ENDBRANCH  23  25
ENDBRANCH  12  23
BRANCH  18  31
HETATM   31  O   UNL     1      12.325  48.449  49.170  1.00  0.00    -0.359 OA
ATOM     32  HO  UNL     1      12.678  49.068  49.799  1.00  0.00     0.217 HD
ENDBRANCH  18  31
BRANCH   1  33
HETATM   33  O   UNL     1       7.510  45.269  47.810  1.00  0.00    -0.359 OA
ATOM     34  HO  UNL     1       7.176  44.716  47.113  1.00  0.00     0.217 HD
ENDBRANCH   1  33
BRANCH  11  35
HETATM   35  O   UNL     1       9.372  45.030  54.989  1.00  0.00    -0.355 OA
ATOM     36  HO  UNL     1       9.932  44.268  55.077  1.00  0.00     0.218 HD
ENDBRANCH  11  35
BRANCH   4  37
HETATM   37  N   UNL     1       6.737  44.386  55.727  1.00  0.00    -0.381 N 
ATOM     38  HN2 UNL     1       6.189  43.565  55.981  1.00  0.00     0.157 HD
ATOM     39  HN1 UNL     1       6.970  45.077  56.440  1.00  0.00     0.157 HD
ENDBRANCH   4  37
BRANCH  20  40
HETATM   40  O   UNL     1       4.830  44.167  53.871  1.00  0.00    -0.281 OA
ATOM     41  HO  UNL     1       4.331  43.480  53.446  1.00  0.00     0.245 HD
ENDBRANCH  20  40
BRANCH   7  42
HETATM   42  O   UNL     1       8.998  44.232  43.229  1.00  0.00    -0.361 OA
ATOM     43  HO  UNL     1       9.270  44.466  42.350  1.00  0.00     0.217 HD
ENDBRANCH   7  42
TORSDOF 8
ENDMDL
MODEL 2
REMARK VINA RESULT:      -9.5      3.439      5.646
REMARK  8 active torsions:
REMARK  status: ('A' for Active; 'I' for Inactive)
REMARK    1  A    between atoms: C_1  and  O_3 
REMARK    2  A    between atoms: C_6  and  N_26 
REMARK    3  A    between atoms: C_10  and  O_11 
REMARK    4  A    between atoms: C_18  and  O_34 
REMARK    5  A    between atoms: C_19  and  C_36 
REMARK    6  A    between atoms: C_22  and  C_36 
REMARK    7  A    between atoms: C_29  and  O_31 
REMARK    8  A    between atoms: N_37  and  O_42 
ROOT
HETATM    1  C   UNL     1      11.404  43.780  47.404  1.00  0.00     0.090 C 
HETATM    2  C   UNL     1      14.439  42.395  51.321  1.00  0.00     0.165 C 
HETATM    3  O   UNL     1      11.678  44.590  52.220  1.00  0.00    -0.301 OA
HETATM    4  C   UNL     1      14.836  43.223  53.516  1.00  0.00     0.162 C 
HETATM    5  C   UNL     1      10.827  44.316  46.237  1.00  0.00     0.011 C 
HETATM    6  C   UNL     1      12.929  44.015  52.253  1.00  0.00     0.148 C 
HETATM    7  C   UNL     1      10.978  44.968  43.938  1.00  0.00     0.066 C 
HETATM    8  C   UNL     1       9.707  45.534  43.993  1.00  0.00     0.037 C 
HETATM    9  C   UNL     1       9.501  44.791  46.284  1.00  0.00    -0.022 C 
HETATM   10  C   UNL     1       9.477  44.512  48.655  1.00  0.00     0.015 A 
HETATM   11  C   UNL     1      13.740  44.105  53.387  1.00  0.00     0.149 C 
HETATM   12  C   UNL     1       9.653  45.042  51.026  1.00  0.00     0.086 A 
HETATM   13  C   UNL     1       8.766  44.567  47.450  1.00  0.00     0.027 C 
HETATM   14  C   UNL     1      10.812  44.040  48.656  1.00  0.00     0.048 A 
HETATM   15  O   UNL     1      12.806  43.484  49.919  1.00  0.00    -0.302 OA
HETATM   16  C   UNL     1      11.533  44.009  49.874  1.00  0.00     0.125 A 
HETATM   17  C   UNL     1      11.632  44.646  45.133  1.00  0.00     0.051 C 
HETATM   18  C   UNL     1       8.934  45.066  49.827  1.00  0.00     0.094 A 
HETATM   19  C   UNL     1      13.419  43.317  51.140  1.00  0.00     0.131 C 
HETATM   20  N   UNL     1      15.185  42.421  52.465  1.00  0.00    -0.214 N 
HETATM   21  C   UNL     1      10.948  44.497  51.049  1.00  0.00     0.128 A 
HETATM   22  C   UNL     1       8.929  45.340  45.136  1.00  0.00     0.015 C 
ENDROOT
BRANCH  12  23
HETATM   23  C   UNL     1       9.015  45.532  52.279  1.00  0.00     0.198 C 
HETATM   24  O   UNL     1       9.032  46.727  52.507  1.00  0.00    -0.286 OA
BRANCH  23  25
HETATM   25  C   UNL     1       8.224  44.651  53.175  1.00  0.00     0.015 C 
HETATM   26  C   UNL     1       7.492  43.543  52.736  1.00  0.00     0.015 C 
HETATM   27  C   UNL     1       6.433  43.084  53.517  1.00  0.00     0.001 C 
HETATM   28  C   UNL     1       6.103  43.763  54.689  1.00  0.00     0.000 C 
HETATM   29  C   UNL     1       7.050  44.615  55.262  1.00  0.00     0.001 C 
HETATM   30  C   UNL     1       8.179  44.976  54.531  1.00  0.00     0.015 C 
ENDBRANCH  23  25
ENDBRANCH  12  23
BRANCH  18  31
HETATM   31  O   UNL     1       7.758  45.650  49.749  1.00  0.00    -0.359 OA
ATOM     32  HO  UNL     1       6.983  45.106  49.815  1.00  0.00     0.217 HD
ENDBRANCH  18  31
BRANCH   1  33
HETATM   33  O   UNL     1      12.452  42.986  47.293  1.00  0.00    -0.359 OA
ATOM     34  HO  UNL     1      12.545  42.259  47.898  1.00  0.00     0.217 HD
ENDBRANCH   1  33
BRANCH  11  35
HETATM   35  O   UNL     1      13.477  45.033  54.352  1.00  0.00    -0.355 OA
ATOM     36  HO  UNL     1      14.115  45.703  54.565  1.00  0.00     0.218 HD
ENDBRANCH  11  35
BRANCH   4  37
HETATM   37  N   UNL     1      15.485  43.097  54.698  1.00  0.00    -0.381 N 
ATOM     38  HN2 UNL     1      16.503  43.037  54.709  1.00  0.00     0.157 HD
ATOM     39  HN1 UNL     1      14.965  42.989  55.569  1.00  0.00     0.157 HD
ENDBRANCH   4  37
BRANCH  20  40
HETATM   40  O   UNL     1      16.154  41.469  52.689  1.00  0.00    -0.281 OA
ATOM     41  HO  UNL     1      16.406  40.866  52.001  1.00  0.00     0.245 HD
ENDBRANCH  20  40
BRANCH   7  42
HETATM   42  O   UNL     1      11.482  44.591  42.737  1.00  0.00    -0.361 OA
ATOM     43  HO  UNL     1      12.180  43.947  42.710  1.00  0.00     0.217 HD
ENDBRANCH   7  42
TORSDOF 8
ENDMDL
MODEL 3
REMARK VINA RESULT:      -9.1      2.861      7.958
REMARK  8 active torsions:
REMARK  status: ('A' for Active; 'I' for Inactive)
REMARK    1  A    between atoms: C_1  and  O_3 
REMARK    2  A    between atoms: C_6  and  N_26 
REMARK    3  A    between atoms: C_10  and  O_11 
REMARK    4  A    between atoms: C_18  and  O_34 
REMARK    5  A    between atoms: C_19  and  C_36 
REMARK    6  A    between atoms: C_22  and  C_36 
REMARK    7  A    between atoms: C_29  and  O_31 
REMARK    8  A    between atoms: N_37  and  O_42 
ROOT
HETATM    1  C   UNL     1      13.247  47.433  51.729  1.00  0.00     0.090 C 
HETATM    2  C   UNL     1      10.967  46.982  47.138  1.00  0.00     0.165 C 
HETATM    3  O   UNL     1       9.569  44.879  49.760  1.00  0.00    -0.301 OA
HETATM    4  C   UNL     1       9.549  45.368  46.116  1.00  0.00     0.162 C 
HETATM    5  C   UNL     1      14.113  47.423  52.838  1.00  0.00     0.011 C 
HETATM    6  C   UNL     1       9.955  45.281  48.500  1.00  0.00     0.148 C 
HETATM    7  C   UNL     1      16.300  47.656  53.788  1.00  0.00     0.066 C 
HETATM    8  C   UNL     1      15.828  47.231  55.029  1.00  0.00     0.037 C 
HETATM    9  C   UNL     1      13.598  47.090  54.107  1.00  0.00    -0.022 C 
HETATM   10  C   UNL     1      11.518  46.474  53.109  1.00  0.00     0.015 A 
HETATM   11  C   UNL     1       9.405  44.703  47.353  1.00  0.00     0.149 C 
HETATM   12  C   UNL     1       9.764  45.091  52.137  1.00  0.00     0.086 A 
HETATM   13  C   UNL     1      12.216  46.935  54.233  1.00  0.00     0.027 C 
HETATM   14  C   UNL     1      11.998  46.786  51.814  1.00  0.00     0.048 A 
HETATM   15  O   UNL     1      11.701  46.646  49.411  1.00  0.00    -0.302 OA
HETATM   16  C   UNL     1      11.302  46.297  50.682  1.00  0.00     0.125 A 
HETATM   17  C   UNL     1      15.507  47.450  52.653  1.00  0.00     0.051 C 
HETATM   18  C   UNL     1      10.444  45.580  53.257  1.00  0.00     0.094 A 
HETATM   19  C   UNL     1      10.913  46.292  48.340  1.00  0.00     0.131 C 
HETATM   20  N   UNL     1      10.360  46.466  46.028  1.00  0.00    -0.214 N 
HETATM   21  C   UNL     1      10.187  45.466  50.850  1.00  0.00     0.128 A 
HETATM   22  C   UNL     1      14.454  47.061  55.208  1.00  0.00     0.015 C 
ENDROOT
BRANCH  12  23
HETATM   23  C   UNL     1       8.560  44.235  52.319  1.00  0.00     0.198 C 
HETATM   24  O   UNL     1       8.721  43.040  52.485  1.00  0.00    -0.286 OA
BRANCH  23  25
HETATM   25  C   UNL     1       7.192  44.794  52.469  1.00  0.00     0.015 C 
HETATM   26  C   UNL     1       6.652  45.222  53.685  1.00  0.00     0.015 C 
HETATM   27  C   UNL     1       5.266  45.269  53.826  1.00  0.00     0.001 C 
HETATM   28  C   UNL     1       4.457  44.848  52.771  1.00  0.00     0.000 C 
HETATM   29  C   UNL     1       5.008  44.773  51.490  1.00  0.00     0.001 C 
HETATM   30  C   UNL     1       6.388  44.857  51.331  1.00  0.00     0.015 C 
ENDBRANCH  23  25
ENDBRANCH  12  23
BRANCH  18  31
HETATM   31  O   UNL     1      10.135  45.179  54.470  1.00  0.00    -0.359 OA
ATOM     32  HO  UNL     1       9.919  44.263  54.597  1.00  0.00     0.217 HD
ENDBRANCH  18  31
BRANCH   1  33
HETATM   33  O   UNL     1      13.595  48.110  50.651  1.00  0.00    -0.359 OA
ATOM     34  HO  UNL     1      14.519  48.233  50.462  1.00  0.00     0.217 HD
ENDBRANCH   1  33
BRANCH  11  35
HETATM   35  O   UNL     1       8.741  43.513  47.430  1.00  0.00    -0.355 OA
ATOM     36  HO  UNL     1       8.398  43.100  46.648  1.00  0.00     0.218 HD
ENDBRANCH  11  35
BRANCH   4  37
HETATM   37  N   UNL     1       8.821  44.988  45.038  1.00  0.00    -0.381 N 
ATOM     38  HN2 UNL     1       8.264  45.680  44.538  1.00  0.00     0.157 HD
ATOM     39  HN1 UNL     1       8.769  44.007  44.765  1.00  0.00     0.157 HD
ENDBRANCH   4  37
BRANCH  20  40
HETATM   40  O   UNL     1      10.346  47.172  44.848  1.00  0.00    -0.281 OA
ATOM     41  HO  UNL     1       9.843  47.974  44.771  1.00  0.00     0.245 HD
ENDBRANCH  20  40
BRANCH   7  42
HETATM   42  O   UNL     1      17.430  48.400  53.731  1.00  0.00    -0.361 OA
ATOM     43  HO  UNL     1      17.897  48.595  54.534  1.00  0.00     0.217 HD
ENDBRANCH   7  42
TORSDOF 8
ENDMDL
MODEL 4
REMARK VINA RESULT:      -8.9      3.637      8.332
REMARK  8 active torsions:
REMARK  status: ('A' for Active; 'I' for Inactive)
REMARK    1  A    between atoms: C_1  and  O_3 
REMARK    2  A    between atoms: C_6  and  N_26 
REMARK    3  A    between atoms: C_10  and  O_11 
REMARK    4  A    between atoms: C_18  and  O_34 
REMARK    5  A    between atoms: C_19  and  C_36 
REMARK    6  A    between atoms: C_22  and  C_36 
REMARK    7  A    between atoms: C_29  and  O_31 
REMARK    8  A    between atoms: N_37  and  O_42 
ROOT
HETATM    1  C   UNL     1       9.459  46.101  50.605  1.00  0.00     0.090 C 
HETATM    2  C   UNL     1      14.368  47.332  49.675  1.00  0.00     0.165 C 
HETATM    3  O   UNL     1      12.718  45.482  47.010  1.00  0.00    -0.301 OA
HETATM    4  C   UNL     1      16.038  46.566  48.163  1.00  0.00     0.162 C 
HETATM    5  C   UNL     1       8.241  45.577  51.077  1.00  0.00     0.011 C 
HETATM    6  C   UNL     1      13.727  45.923  47.838  1.00  0.00     0.148 C 
HETATM    7  C   UNL     1       6.848  44.811  52.868  1.00  0.00     0.066 C 
HETATM    8  C   UNL     1       5.881  44.384  51.960  1.00  0.00     0.037 C 
HETATM    9  C   UNL     1       7.232  45.246  50.151  1.00  0.00    -0.022 C 
HETATM   10  C   UNL     1       8.751  45.632  48.348  1.00  0.00     0.015 A 
HETATM   11  C   UNL     1      15.070  45.800  47.476  1.00  0.00     0.149 C 
HETATM   12  C   UNL     1      10.379  45.192  46.591  1.00  0.00     0.086 A 
HETATM   13  C   UNL     1       7.430  45.598  48.813  1.00  0.00     0.027 C 
HETATM   14  C   UNL     1       9.797  45.961  49.244  1.00  0.00     0.048 A 
HETATM   15  O   UNL     1      12.163  46.360  49.600  1.00  0.00    -0.302 OA
HETATM   16  C   UNL     1      11.132  45.970  48.773  1.00  0.00     0.125 A 
HETATM   17  C   UNL     1       8.132  45.115  52.401  1.00  0.00     0.051 C 
HETATM   18  C   UNL     1       9.058  45.191  47.050  1.00  0.00     0.094 A 
HETATM   19  C   UNL     1      13.424  46.516  49.072  1.00  0.00     0.131 C 
HETATM   20  N   UNL     1      15.672  47.280  49.271  1.00  0.00    -0.214 N 
HETATM   21  C   UNL     1      11.413  45.599  47.452  1.00  0.00     0.128 A 
HETATM   22  C   UNL     1       6.030  44.710  50.610  1.00  0.00     0.015 C 
ENDROOT
BRANCH  12  23
HETATM   23  C   UNL     1      10.670  44.829  45.178  1.00  0.00     0.198 C 
HETATM   24  O   UNL     1      10.647  43.652  44.867  1.00  0.00    -0.286 OA
BRANCH  23  25
HETATM   25  C   UNL     1      10.826  45.842  44.103  1.00  0.00     0.015 C 
HETATM   26  C   UNL     1       9.908  46.867  43.855  1.00  0.00     0.015 C 
HETATM   27  C   UNL     1       9.872  47.446  42.588  1.00  0.00     0.001 C 
HETATM   28  C   UNL     1      10.717  46.962  41.591  1.00  0.00     0.000 C 
HETATM   29  C   UNL     1      11.835  46.210  41.963  1.00  0.00     0.001 C 
HETATM   30  C   UNL     1      11.939  45.737  43.268  1.00  0.00     0.015 C 
ENDBRANCH  23  25
ENDBRANCH  12  23
BRANCH  18  31
HETATM   31  O   UNL     1       8.078  44.730  46.304  1.00  0.00    -0.359 OA
ATOM     32  HO  UNL     1       8.281  44.458  45.417  1.00  0.00     0.217 HD
ENDBRANCH  18  31
BRANCH   1  33
HETATM   33  O   UNL     1      10.232  46.774  51.436  1.00  0.00    -0.359 OA
ATOM     34  HO  UNL     1      11.142  46.518  51.530  1.00  0.00     0.217 HD
ENDBRANCH   1  33
BRANCH  11  35
HETATM   35  O   UNL     1      15.440  44.948  46.476  1.00  0.00    -0.355 OA
ATOM     36  HO  UNL     1      14.915  44.184  46.273  1.00  0.00     0.218 HD
ENDBRANCH  11  35
BRANCH   4  37
HETATM   37  N   UNL     1      17.300  46.676  47.683  1.00  0.00    -0.381 N 
ATOM     38  HN2 UNL     1      18.087  46.407  48.273  1.00  0.00     0.157 HD
ATOM     39  HN1 UNL     1      17.474  47.091  46.768  1.00  0.00     0.157 HD
ENDBRANCH   4  37
BRANCH  20  40
HETATM   40  O   UNL     1      16.607  48.133  49.811  1.00  0.00    -0.281 OA
ATOM     41  HO  UNL     1      17.399  48.345  49.333  1.00  0.00     0.245 HD
ENDBRANCH  20  40
BRANCH   7  42
HETATM   42  O   UNL     1       6.482  45.079  54.145  1.00  0.00    -0.361 OA
ATOM     43  HO  UNL     1       7.022  44.758  54.857  1.00  0.00     0.217 HD
ENDBRANCH   7  42
TORSDOF 8
ENDMDL
MODEL 5
REMARK VINA RESULT:      -8.9      2.371      6.971
REMARK  8 active torsions:
REMARK  status: ('A' for Active; 'I' for Inactive)
REMARK    1  A    between atoms: C_1  and  O_3 
REMARK    2  A    between atoms: C_6  and  N_26 
REMARK    3  A    between atoms: C_10  and  O_11 
REMARK    4  A    between atoms: C_18  and  O_34 
REMARK    5  A    between atoms: C_19  and  C_36 
REMARK    6  A    between atoms: C_22  and  C_36 
REMARK    7  A    between atoms: C_29  and  O_31 
REMARK    8  A    between atoms: N_37  and  O_42 
ROOT
HETATM    1  C   UNL     1      11.893  44.895  53.389  1.00  0.00     0.090 C 
HETATM    2  C   UNL     1       6.766  44.999  52.967  1.00  0.00     0.165 C 
HETATM    3  O   UNL     1       8.555  44.553  49.829  1.00  0.00    -0.301 OA
HETATM    4  C   UNL     1       5.231  45.351  51.184  1.00  0.00     0.162 C 
HETATM    5  C   UNL     1      13.260  45.168  53.581  1.00  0.00     0.011 C 
HETATM    6  C   UNL     1       7.570  44.956  50.704  1.00  0.00     0.148 C 
HETATM    7  C   UNL     1      15.028  46.262  54.770  1.00  0.00     0.066 C 
HETATM    8  C   UNL     1      15.960  45.820  53.833  1.00  0.00     0.037 C 
HETATM    9  C   UNL     1      14.201  44.627  52.682  1.00  0.00    -0.022 C 
HETATM   10  C   UNL     1      12.428  43.867  51.274  1.00  0.00     0.015 A 
HETATM   11  C   UNL     1       6.292  45.293  50.253  1.00  0.00     0.149 C 
HETATM   12  C   UNL     1      10.804  43.820  49.459  1.00  0.00     0.086 A 
HETATM   13  C   UNL     1      13.745  43.715  51.727  1.00  0.00     0.027 C 
HETATM   14  C   UNL     1      11.449  44.405  52.144  1.00  0.00     0.048 A 
HETATM   15  O   UNL     1       9.135  45.028  52.518  1.00  0.00    -0.302 OA
HETATM   16  C   UNL     1      10.125  44.578  51.672  1.00  0.00     0.125 A 
HETATM   17  C   UNL     1      13.665  46.187  54.461  1.00  0.00     0.051 C 
HETATM   18  C   UNL     1      12.110  43.639  49.924  1.00  0.00     0.094 A 
HETATM   19  C   UNL     1       7.830  45.031  52.080  1.00  0.00     0.131 C 
HETATM   20  N   UNL     1       5.499  45.246  52.521  1.00  0.00    -0.214 N 
HETATM   21  C   UNL     1       9.809  44.275  50.341  1.00  0.00     0.128 A 
HETATM   22  C   UNL     1      15.556  44.908  52.856  1.00  0.00     0.015 C 
ENDROOT
BRANCH  12  23
HETATM   23  C   UNL     1      10.465  43.466  48.054  1.00  0.00     0.198 C 
HETATM   24  O   UNL     1      10.385  42.288  47.758  1.00  0.00    -0.286 OA
BRANCH  23  25
HETATM   25  C   UNL     1      10.065  44.479  47.044  1.00  0.00     0.015 C 
HETATM   26  C   UNL     1       9.058  44.280  46.095  1.00  0.00     0.015 C 
HETATM   27  C   UNL     1       9.075  45.041  44.927  1.00  0.00     0.001 C 
HETATM   28  C   UNL     1      10.115  45.944  44.714  1.00  0.00     0.000 C 
HETATM   29  C   UNL     1      10.877  46.362  45.809  1.00  0.00     0.001 C 
HETATM   30  C   UNL     1      10.766  45.684  47.020  1.00  0.00     0.015 C 
ENDBRANCH  23  25
ENDBRANCH  12  23
BRANCH  18  31
HETATM   31  O   UNL     1      13.084  43.304  49.107  1.00  0.00    -0.359 OA
ATOM     32  HO  UNL     1      12.853  42.929  48.265  1.00  0.00     0.217 HD
ENDBRANCH  18  31
BRANCH   1  33
HETATM   33  O   UNL     1      11.062  45.039  54.403  1.00  0.00    -0.359 OA
ATOM     34  HO  UNL     1      10.147  44.812  54.286  1.00  0.00     0.217 HD
ENDBRANCH   1  33
BRANCH  11  35
HETATM   35  O   UNL     1       6.075  45.565  48.934  1.00  0.00    -0.355 OA
ATOM     36  HO  UNL     1       6.710  45.309  48.277  1.00  0.00     0.218 HD
ENDBRANCH  11  35
BRANCH   4  37
HETATM   37  N   UNL     1       3.945  45.416  50.763  1.00  0.00    -0.381 N 
ATOM     38  HN2 UNL     1       3.347  46.176  51.086  1.00  0.00     0.157 HD
ATOM     39  HN1 UNL     1       3.549  44.676  50.184  1.00  0.00     0.157 HD
ENDBRANCH   4  37
BRANCH  20  40
HETATM   40  O   UNL     1       4.425  45.148  53.376  1.00  0.00    -0.281 OA
ATOM     41  HO  UNL     1       4.398  44.471  54.042  1.00  0.00     0.245 HD
ENDBRANCH  20  40
BRANCH   7  42
HETATM   42  O   UNL     1      15.450  46.598  56.013  1.00  0.00    -0.361 OA
ATOM     43  HO  UNL     1      15.519  47.517  56.246  1.00  0.00     0.217 HD
ENDBRANCH   7  42
TORSDOF 8
ENDMDL
MODEL 6
REMARK VINA RESULT:      -8.9      3.030      7.684
REMARK  8 active torsions:
REMARK  status: ('A' for Active; 'I' for Inactive)
REMARK    1  A    between atoms: C_1  and  O_3 
REMARK    2  A    between atoms: C_6  and  N_26 
REMARK    3  A    between atoms: C_10  and  O_11 
REMARK    4  A    between atoms: C_18  and  O_34 
REMARK    5  A    between atoms: C_19  and  C_36 
REMARK    6  A    between atoms: C_22  and  C_36 
REMARK    7  A    between atoms: C_29  and  O_31 
REMARK    8  A    between atoms: N_37  and  O_42 
ROOT
HETATM    1  C   UNL     1       8.811  45.663  52.609  1.00  0.00     0.090 C 
HETATM    2  C   UNL     1      13.469  47.836  52.348  1.00  0.00     0.165 C 
HETATM    3  O   UNL     1      12.337  46.256  49.270  1.00  0.00    -0.301 OA
HETATM    4  C   UNL     1      15.335  47.643  50.885  1.00  0.00     0.162 C 
HETATM    5  C   UNL     1       7.681  44.868  52.874  1.00  0.00     0.011 C 
HETATM    6  C   UNL     1      13.199  46.698  50.249  1.00  0.00     0.148 C 
HETATM    7  C   UNL     1       6.341  43.569  54.376  1.00  0.00     0.066 C 
HETATM    8  C   UNL     1       5.522  43.162  53.325  1.00  0.00     0.037 C 
HETATM    9  C   UNL     1       6.804  44.550  51.818  1.00  0.00    -0.022 C 
HETATM   10  C   UNL     1       8.334  45.503  50.251  1.00  0.00     0.015 A 
HETATM   11  C   UNL     1      14.563  46.866  49.994  1.00  0.00     0.149 C 
HETATM   12  C   UNL     1      10.116  45.666  48.599  1.00  0.00     0.086 A 
HETATM   13  C   UNL     1       7.015  45.167  50.583  1.00  0.00     0.027 C 
HETATM   14  C   UNL     1       9.249  45.831  51.280  1.00  0.00     0.048 A 
HETATM   15  O   UNL     1      11.480  46.543  51.911  1.00  0.00    -0.302 OA
HETATM   16  C   UNL     1      10.587  46.146  50.940  1.00  0.00     0.125 A 
HETATM   17  C   UNL     1       7.576  44.161  54.085  1.00  0.00     0.051 C 
HETATM   18  C   UNL     1       8.791  45.363  48.930  1.00  0.00     0.094 A 
HETATM   19  C   UNL     1      12.722  46.999  51.533  1.00  0.00     0.131 C 
HETATM   20  N   UNL     1      14.783  48.073  52.060  1.00  0.00    -0.214 N 
HETATM   21  C   UNL     1      11.008  46.073  49.606  1.00  0.00     0.128 A 
HETATM   22  C   UNL     1       5.691  43.749  52.069  1.00  0.00     0.015 C 
ENDROOT
BRANCH  12  23
HETATM   23  C   UNL     1      10.551  45.619  47.177  1.00  0.00     0.198 C 
HETATM   24  O   UNL     1      10.750  44.531  46.669  1.00  0.00    -0.286 OA
BRANCH  23  25
HETATM   25  C   UNL     1      10.595  46.824  46.310  1.00  0.00     0.015 C 
HETATM   26  C   UNL     1      10.539  48.135  46.791  1.00  0.00     0.015 C 
HETATM   27  C   UNL     1      10.109  49.148  45.936  1.00  0.00     0.001 C 
HETATM   28  C   UNL     1       9.705  48.824  44.642  1.00  0.00     0.000 C 
HETATM   29  C   UNL     1      10.104  47.600  44.099  1.00  0.00     0.001 C 
HETATM   30  C   UNL     1      10.657  46.630  44.930  1.00  0.00     0.015 C 
ENDBRANCH  23  25
ENDBRANCH  12  23
BRANCH  18  31
HETATM   31  O   UNL     1       7.956  44.891  48.032  1.00  0.00    -0.359 OA
ATOM     32  HO  UNL     1       7.711  43.975  48.085  1.00  0.00     0.217 HD
ENDBRANCH  18  31
BRANCH   1  33
HETATM   33  O   UNL     1       9.400  46.292  53.608  1.00  0.00    -0.359 OA
ATOM     34  HO  UNL     1       9.851  45.782  54.272  1.00  0.00     0.217 HD
ENDBRANCH   1  33
BRANCH  11  35
HETATM   35  O   UNL     1      15.137  46.284  48.902  1.00  0.00    -0.355 OA
ATOM     36  HO  UNL     1      14.972  45.372  48.697  1.00  0.00     0.218 HD
ENDBRANCH  11  35
BRANCH   4  37
HETATM   37  N   UNL     1      16.583  48.046  50.547  1.00  0.00    -0.381 N 
ATOM     38  HN2 UNL     1      16.771  48.358  49.594  1.00  0.00     0.157 HD
ATOM     39  HN1 UNL     1      17.352  47.975  51.213  1.00  0.00     0.157 HD
ENDBRANCH   4  37
BRANCH  20  40
HETATM   40  O   UNL     1      15.516  48.956  52.819  1.00  0.00    -0.281 OA
ATOM     41  HO  UNL     1      15.199  49.243  53.667  1.00  0.00     0.245 HD
ENDBRANCH  20  40
BRANCH   7  42
HETATM   42  O   UNL     1       5.859  43.536  55.642  1.00  0.00    -0.361 OA
ATOM     43  HO  UNL     1       6.205  44.142  56.285  1.00  0.00     0.217 HD
ENDBRANCH   7  42
TORSDOF 8
ENDMDL
MODEL 7
REMARK VINA RESULT:      -8.9      2.332      2.896
REMARK  8 active torsions:
REMARK  status: ('A' for Active; 'I' for Inactive)
REMARK    1  A    between atoms: C_1  and  O_3 
REMARK    2  A    between atoms: C_6  and  N_26 
REMARK    3  A    between atoms: C_10  and  O_11 
REMARK    4  A    between atoms: C_18  and  O_34 
REMARK    5  A    between atoms: C_19  and  C_36 
REMARK    6  A    between atoms: C_22  and  C_36 
REMARK    7  A    between atoms: C_29  and  O_31 
REMARK    8  A    between atoms: N_37  and  O_42 
ROOT
HETATM    1  C   UNL     1      10.544  45.464  46.463  1.00  0.00     0.090 C 
HETATM    2  C   UNL     1       6.482  45.364  49.620  1.00  0.00     0.165 C 
HETATM    3  O   UNL     1       9.648  44.444  51.162  1.00  0.00    -0.301 OA
HETATM    4  C   UNL     1       6.016  44.370  51.730  1.00  0.00     0.162 C 
HETATM    5  C   UNL     1      11.512  45.248  45.464  1.00  0.00     0.011 C 
HETATM    6  C   UNL     1       8.293  44.461  50.915  1.00  0.00     0.148 C 
HETATM    7  C   UNL     1      12.106  44.672  43.216  1.00  0.00     0.066 C 
HETATM    8  C   UNL     1      13.458  44.666  43.553  1.00  0.00     0.037 C 
HETATM    9  C   UNL     1      12.877  45.348  45.798  1.00  0.00    -0.022 C 
HETATM   10  C   UNL     1      12.305  45.530  48.109  1.00  0.00     0.015 A 
HETATM   11  C   UNL     1       7.375  44.012  51.867  1.00  0.00     0.149 C 
HETATM   12  C   UNL     1      11.880  44.891  50.421  1.00  0.00     0.086 A 
HETATM   13  C   UNL     1      13.207  45.809  47.075  1.00  0.00     0.027 C 
HETATM   14  C   UNL     1      10.923  45.422  47.819  1.00  0.00     0.048 A 
HETATM   15  O   UNL     1       8.663  45.079  48.629  1.00  0.00    -0.302 OA
HETATM   16  C   UNL     1      10.019  45.115  48.865  1.00  0.00     0.125 A 
HETATM   17  C   UNL     1      11.150  44.659  44.239  1.00  0.00     0.051 C 
HETATM   18  C   UNL     1      12.775  45.202  49.392  1.00  0.00     0.094 A 
HETATM   19  C   UNL     1       7.800  44.941  49.693  1.00  0.00     0.131 C 
HETATM   20  N   UNL     1       5.594  44.999  50.591  1.00  0.00    -0.214 N 
HETATM   21  C   UNL     1      10.500  44.864  50.157  1.00  0.00     0.128 A 
HETATM   22  C   UNL     1      13.842  45.118  44.817  1.00  0.00     0.015 C 
ENDROOT
BRANCH  12  23
HETATM   23  C   UNL     1      12.392  44.657  51.799  1.00  0.00     0.198 C 
HETATM   24  O   UNL     1      12.930  43.593  52.043  1.00  0.00    -0.286 OA
BRANCH  23  25
HETATM   25  C   UNL     1      12.420  45.720  52.837  1.00  0.00     0.015 C 
HETATM   26  C   UNL     1      13.238  46.851  52.775  1.00  0.00     0.015 C 
HETATM   27  C   UNL     1      13.556  47.517  53.957  1.00  0.00     0.001 C 
HETATM   28  C   UNL     1      13.090  47.014  55.171  1.00  0.00     0.000 C 
HETATM   29  C   UNL     1      12.014  46.123  55.161  1.00  0.00     0.001 C 
HETATM   30  C   UNL     1      11.607  45.553  53.959  1.00  0.00     0.015 C 
ENDBRANCH  23  25
ENDBRANCH  12  23
BRANCH  18  31
HETATM   31  O   UNL     1      14.075  45.146  49.580  1.00  0.00    -0.359 OA
ATOM     32  HO  UNL     1      14.636  45.098  48.815  1.00  0.00     0.217 HD
ENDBRANCH  18  31
BRANCH   1  33
HETATM   33  O   UNL     1       9.312  45.769  46.105  1.00  0.00    -0.359 OA
ATOM     34  HO  UNL     1       8.719  45.071  45.850  1.00  0.00     0.217 HD
ENDBRANCH   1  33
BRANCH  11  35
HETATM   35  O   UNL     1       7.788  43.236  52.911  1.00  0.00    -0.355 OA
ATOM     36  HO  UNL     1       7.160  42.889  53.534  1.00  0.00     0.218 HD
ENDBRANCH  11  35
BRANCH   4  37
HETATM   37  N   UNL     1       5.145  44.182  52.751  1.00  0.00    -0.381 N 
ATOM     38  HN2 UNL     1       4.213  43.818  52.556  1.00  0.00     0.157 HD
ATOM     39  HN1 UNL     1       5.387  44.465  53.700  1.00  0.00     0.157 HD
ENDBRANCH   4  37
BRANCH  20  40
HETATM   40  O   UNL     1       4.301  45.469  50.569  1.00  0.00    -0.281 OA
ATOM     41  HO  UNL     1       4.121  46.376  50.354  1.00  0.00     0.245 HD
ENDBRANCH  20  40
BRANCH   7  42
HETATM   42  O   UNL     1      11.748  44.854  41.922  1.00  0.00    -0.361 OA
ATOM     43  HO  UNL     1      10.828  44.944  41.704  1.00  0.00     0.217 HD
ENDBRANCH   7  42
TORSDOF 8
ENDMDL
MODEL 8
REMARK VINA RESULT:      -8.9      3.512      6.990
REMARK  8 active torsions:
REMARK  status: ('A' for Active; 'I' for Inactive)
REMARK    1  A    between atoms: C_1  and  O_3 
REMARK    2  A    between atoms: C_6  and  N_26 
REMARK    3  A    between atoms: C_10  and  O_11 
REMARK    4  A    between atoms: C_18  and  O_34 
REMARK    5  A    between atoms: C_19  and  C_36 
REMARK    6  A    between atoms: C_22  and  C_36 
REMARK    7  A    between atoms: C_29  and  O_31 
REMARK    8  A    between atoms: N_37  and  O_42 
ROOT
HETATM    1  C   UNL     1       9.354  45.167  51.830  1.00  0.00     0.090 C 
HETATM    2  C   UNL     1      12.439  46.317  47.876  1.00  0.00     0.165 C 
HETATM    3  O   UNL     1      13.488  47.674  51.086  1.00  0.00    -0.301 OA
HETATM    4  C   UNL     1      14.123  47.950  47.475  1.00  0.00     0.162 C 
HETATM    5  C   UNL     1       8.308  45.038  52.762  1.00  0.00     0.011 C 
HETATM    6  C   UNL     1      13.306  47.584  49.724  1.00  0.00     0.148 C 
HETATM    7  C   UNL     1       5.976  44.844  53.277  1.00  0.00     0.066 C 
HETATM    8  C   UNL     1       6.247  44.951  54.639  1.00  0.00     0.037 C 
HETATM    9  C   UNL     1       8.610  45.046  54.138  1.00  0.00    -0.022 C 
HETATM   10  C   UNL     1      10.871  45.634  53.645  1.00  0.00     0.015 A 
HETATM   11  C   UNL     1      14.089  48.326  48.836  1.00  0.00     0.149 C 
HETATM   12  C   UNL     1      12.860  46.997  53.295  1.00  0.00     0.086 A 
HETATM   13  C   UNL     1       9.955  45.026  54.513  1.00  0.00     0.027 C 
HETATM   14  C   UNL     1      10.609  45.649  52.254  1.00  0.00     0.048 A 
HETATM   15  O   UNL     1      11.337  46.250  50.020  1.00  0.00    -0.302 OA
HETATM   16  C   UNL     1      11.527  46.285  51.384  1.00  0.00     0.125 A 
HETATM   17  C   UNL     1       6.970  45.196  52.356  1.00  0.00     0.051 C 
HETATM   18  C   UNL     1      11.960  46.361  54.156  1.00  0.00     0.094 A 
HETATM   19  C   UNL     1      12.326  46.733  49.193  1.00  0.00     0.131 C 
HETATM   20  N   UNL     1      13.267  46.985  47.019  1.00  0.00    -0.214 N 
HETATM   21  C   UNL     1      12.648  46.943  51.906  1.00  0.00     0.128 A 
HETATM   22  C   UNL     1       7.576  44.936  55.068  1.00  0.00     0.015 C 
ENDROOT
BRANCH  12  23
HETATM   23  C   UNL     1      14.067  47.666  53.851  1.00  0.00     0.198 C 
HETATM   24  O   UNL     1      13.949  48.308  54.878  1.00  0.00    -0.286 OA
BRANCH  23  25
HETATM   25  C   UNL     1      15.430  47.452  53.301  1.00  0.00     0.015 C 
HETATM   26  C   UNL     1      16.213  48.464  52.739  1.00  0.00     0.015 C 
HETATM   27  C   UNL     1      17.222  48.114  51.844  1.00  0.00     0.001 C 
HETATM   28  C   UNL     1      17.396  46.775  51.498  1.00  0.00     0.000 C 
HETATM   29  C   UNL     1      16.852  45.791  52.327  1.00  0.00     0.001 C 
HETATM   30  C   UNL     1      15.938  46.153  53.312  1.00  0.00     0.015 C 
ENDBRANCH  23  25
ENDBRANCH  12  23
BRANCH  18  31
HETATM   31  O   UNL     1      12.075  46.468  55.461  1.00  0.00    -0.359 OA
ATOM     32  HO  UNL     1      12.638  45.851  55.913  1.00  0.00     0.217 HD
ENDBRANCH  18  31
BRANCH   1  33
HETATM   33  O   UNL     1       9.158  44.768  50.588  1.00  0.00    -0.359 OA
ATOM     34  HO  UNL     1       8.321  44.384  50.353  1.00  0.00     0.217 HD
ENDBRANCH   1  33
BRANCH  11  35
HETATM   35  O   UNL     1      14.807  49.398  49.279  1.00  0.00    -0.355 OA
ATOM     36  HO  UNL     1      15.411  49.308  50.006  1.00  0.00     0.218 HD
ENDBRANCH  11  35
BRANCH   4  37
HETATM   37  N   UNL     1      15.054  48.467  46.638  1.00  0.00    -0.381 N 
ATOM     38  HN2 UNL     1      16.022  48.544  46.949  1.00  0.00     0.157 HD
ATOM     39  HN1 UNL     1      14.786  48.843  45.729  1.00  0.00     0.157 HD
ENDBRANCH   4  37
BRANCH  20  40
HETATM   40  O   UNL     1      13.444  46.541  45.728  1.00  0.00    -0.281 OA
ATOM     41  HO  UNL     1      14.313  46.495  45.349  1.00  0.00     0.245 HD
ENDBRANCH  20  40
BRANCH   7  42
HETATM   42  O   UNL     1       4.826  44.249  52.877  1.00  0.00    -0.361 OA
ATOM     43  HO  UNL     1       4.835  43.325  52.657  1.00  0.00     0.217 HD
ENDBRANCH   7  42
TORSDOF 8
ENDMDL
MODEL 9
REMARK VINA RESULT:      -8.9      3.544      6.902
REMARK  8 active torsions:
REMARK  status: ('A' for Active; 'I' for Inactive)
REMARK    1  A    between atoms: C_1  and  O_3 
REMARK    2  A    between atoms: C_6  and  N_26 
REMARK    3  A    between atoms: C_10  and  O_11 
REMARK    4  A    between atoms: C_18  and  O_34 
REMARK    5  A    between atoms: C_19  and  C_36 
REMARK    6  A    between atoms: C_22  and  C_36 
REMARK    7  A    between atoms: C_29  and  O_31 
REMARK    8  A    between atoms: N_37  and  O_42 
ROOT
HETATM    1  C   UNL     1       9.595  43.879  51.709  1.00  0.00     0.090 C 
HETATM    2  C   UNL     1      12.263  43.383  47.337  1.00  0.00     0.165 C 
HETATM    3  O   UNL     1      12.618  46.604  48.996  1.00  0.00    -0.301 OA
HETATM    4  C   UNL     1      13.284  44.894  45.809  1.00  0.00     0.162 C 
HETATM    5  C   UNL     1       8.617  44.005  52.714  1.00  0.00     0.011 C 
HETATM    6  C   UNL     1      12.543  45.683  47.974  1.00  0.00     0.148 C 
HETATM    7  C   UNL     1       6.481  43.438  53.636  1.00  0.00     0.066 C 
HETATM    8  C   UNL     1       6.633  44.400  54.633  1.00  0.00     0.037 C 
HETATM    9  C   UNL     1       8.833  44.909  53.772  1.00  0.00    -0.022 C 
HETATM   10  C   UNL     1      10.766  45.762  52.658  1.00  0.00     0.015 A 
HETATM   11  C   UNL     1      13.058  45.961  46.705  1.00  0.00     0.149 C 
HETATM   12  C   UNL     1      12.165  47.194  51.271  1.00  0.00     0.086 A 
HETATM   13  C   UNL     1      10.082  45.531  53.858  1.00  0.00     0.027 C 
HETATM   14  C   UNL     1      10.580  44.878  51.568  1.00  0.00     0.048 A 
HETATM   15  O   UNL     1      11.155  44.246  49.298  1.00  0.00    -0.302 OA
HETATM   16  C   UNL     1      11.256  45.130  50.350  1.00  0.00     0.125 A 
HETATM   17  C   UNL     1       7.330  43.471  52.524  1.00  0.00     0.051 C 
HETATM   18  C   UNL     1      11.506  46.943  52.479  1.00  0.00     0.094 A 
HETATM   19  C   UNL     1      11.949  44.431  48.189  1.00  0.00     0.131 C 
HETATM   20  N   UNL     1      12.843  43.639  46.128  1.00  0.00    -0.214 N 
HETATM   21  C   UNL     1      12.051  46.276  50.213  1.00  0.00     0.128 A 
HETATM   22  C   UNL     1       7.861  45.051  54.762  1.00  0.00     0.015 C 
ENDROOT
BRANCH  12  23
HETATM   23  C   UNL     1      13.034  48.395  51.140  1.00  0.00     0.198 C 
HETATM   24  O   UNL     1      12.503  49.477  50.970  1.00  0.00    -0.286 OA
BRANCH  23  25
HETATM   25  C   UNL     1      14.501  48.354  51.368  1.00  0.00     0.015 C 
HETATM   26  C   UNL     1      15.447  48.221  50.348  1.00  0.00     0.015 C 
HETATM   27  C   UNL     1      16.709  47.719  50.661  1.00  0.00     0.001 C 
HETATM   28  C   UNL     1      16.981  47.321  51.969  1.00  0.00     0.000 C 
HETATM   29  C   UNL     1      16.161  47.790  52.999  1.00  0.00     0.001 C 
HETATM   30  C   UNL     1      14.955  48.412  52.686  1.00  0.00     0.015 C 
ENDBRANCH  23  25
ENDBRANCH  12  23
BRANCH  18  31
HETATM   31  O   UNL     1      11.515  47.823  53.456  1.00  0.00    -0.359 OA
ATOM     32  HO  UNL     1      11.187  48.695  53.275  1.00  0.00     0.217 HD
ENDBRANCH  18  31
BRANCH   1  33
HETATM   33  O   UNL     1       9.609  42.793  50.961  1.00  0.00    -0.359 OA
ATOM     34  HO  UNL     1       9.192  42.816  50.107  1.00  0.00     0.217 HD
ENDBRANCH   1  33
BRANCH  11  35
HETATM   35  O   UNL     1      13.333  47.247  46.340  1.00  0.00    -0.355 OA
ATOM     36  HO  UNL     1      13.132  47.969  46.922  1.00  0.00     0.218 HD
ENDBRANCH  11  35
BRANCH   4  37
HETATM   37  N   UNL     1      14.014  45.080  44.683  1.00  0.00    -0.381 N 
ATOM     38  HN2 UNL     1      14.974  44.738  44.643  1.00  0.00     0.157 HD
ATOM     39  HN1 UNL     1      13.639  45.619  43.903  1.00  0.00     0.157 HD
ENDBRANCH   4  37
BRANCH  20  40
HETATM   40  O   UNL     1      13.224  42.606  45.303  1.00  0.00    -0.281 OA
ATOM     41  HO  UNL     1      13.395  41.742  45.659  1.00  0.00     0.245 HD
ENDBRANCH  20  40
BRANCH   7  42
HETATM   42  O   UNL     1       5.631  42.402  53.842  1.00  0.00    -0.361 OA
ATOM     43  HO  UNL     1       5.901  41.688  54.407  1.00  0.00     0.217 HD
ENDBRANCH   7  42
TORSDOF 8
ENDMDL
