REMARK  6 active torsions:
REMARK  status: ('A' for Active; 'I' for Inactive)
REMARK    1  A    between atoms: N_1  and  C_4 
REMARK    2  A    between atoms: C_7  and  O_23 
REMARK    3  A    between atoms: C_7  and  C_34 
REMARK    4  A    between atoms: N_17  and  C_28 
REMARK    5  A    between atoms: N_17  and  C_37 
REMARK    6  A    between atoms: C_19  and  O_25 
ROOT
HETATM    1  C   UNL     1      18.197  61.534  23.784  1.00  0.00     0.114 C 
HETATM    2  O   UNL     1      22.776  63.866  21.398  1.00  0.00    -0.285 OA
HETATM    3  C   UNL     1      20.706  63.777  22.708  1.00  0.00     0.214 C 
HETATM    4  C   UNL     1      19.756  62.627  22.632  1.00  0.00     0.141 C 
HETATM    5  C   UNL     1      21.823  63.191  21.925  1.00  0.00     0.240 C 
HETATM    6  C   UNL     1      20.929  58.360  24.074  1.00  0.00     0.181 C 
HETATM    7  C   UNL     1      20.214  60.480  23.243  1.00  0.00     0.130 C 
HETATM    8  N   UNL     1      20.493  61.533  22.490  1.00  0.00    -0.264 N 
HETATM    9  C   UNL     1      19.266  60.743  24.241  1.00  0.00     0.053 C 
HETATM   10  N   UNL     1      18.455  62.541  22.903  1.00  0.00    -0.328 N 
ATOM     11  HN  UNL     1      17.743  63.151  22.502  1.00  0.00     0.169 HD
HETATM   12  N   UNL     1      20.913  59.339  23.197  1.00  0.00    -0.337 N 
ATOM     13  HN  UNL     1      21.508  59.214  22.378  1.00  0.00     0.168 HD
HETATM   14  C   UNL     1      20.067  59.308  26.035  1.00  0.00     0.090 C 
HETATM   15  C   UNL     1      19.471  60.444  25.592  1.00  0.00     0.036 C 
HETATM   16  C   UNL     1      21.651  61.818  21.883  1.00  0.00     0.167 C 
HETATM   17  N   UNL     1      20.510  58.306  25.317  1.00  0.00    -0.362 N 
ATOM     18  HN  UNL     1      20.532  57.392  25.769  1.00  0.00     0.165 HD
ENDROOT
BRANCH  16  19
HETATM   19  N   UNL     1      22.421  60.882  21.309  1.00  0.00    -0.323 N 
ATOM     20  HN  UNL     1      22.104  59.969  21.635  1.00  0.00     0.169 HD
BRANCH  19  21
HETATM   21  C   UNL     1      23.440  60.690  20.477  1.00  0.00     0.134 C 
HETATM   22  C   UNL     1      24.740  60.353  20.866  1.00  0.00     0.040 C 
HETATM   23  C   UNL     1      25.288  59.887  22.054  1.00  0.00     0.054 C 
HETATM   24  C   UNL     1      25.511  60.486  19.720  1.00  0.00     0.062 C 
HETATM   25  C   UNL     1      26.634  59.525  22.056  1.00  0.00     0.066 C 
HETATM   26  C   UNL     1      27.447  59.881  20.972  1.00  0.00     0.039 C 
HETATM   27  C   UNL     1      26.885  60.330  19.779  1.00  0.00     0.034 C 
HETATM   28  N   UNL     1      24.640  60.627  18.682  1.00  0.00    -0.298 N 
HETATM   29  N   UNL     1      23.382  60.775  19.145  1.00  0.00    -0.284 N 
ATOM     30  HN  UNL     1      24.902  60.621  17.696  1.00  0.00     0.187 HD
ATOM     31  HN  UNL     1      22.544  60.924  18.584  1.00  0.00     0.188 HD
BRANCH  25  32
HETATM   32  O   UNL     1      27.130  58.817  23.102  1.00  0.00    -0.361 OA
ATOM     33  HO  UNL     1      26.579  58.576  23.837  1.00  0.00     0.217 HD
ENDBRANCH  25  32
ENDBRANCH  19  21
ENDBRANCH  16  19
BRANCH   3  34
HETATM   34  O   UNL     1      21.174  63.846  24.066  1.00  0.00    -0.370 OA
ATOM     35  HO  UNL     1      21.778  64.577  24.114  1.00  0.00     0.212 HD
ENDBRANCH   3  34
BRANCH   3  36
HETATM   36  C   UNL     1      20.363  65.122  22.236  1.00  0.00     0.007 C 
HETATM   37  C   UNL     1      20.616  66.236  23.022  1.00  0.00     0.098 C 
HETATM   38  N   UNL     1      21.125  67.344  22.457  1.00  0.00    -0.375 N 
HETATM   39  C   UNL     1      20.954  67.535  21.136  1.00  0.00     0.087 C 
ATOM     40  HN  UNL     1      21.632  68.028  23.019  1.00  0.00     0.164 HD
HETATM   41  C   UNL     1      20.287  66.599  20.370  1.00  0.00     0.018 C 
HETATM   42  C   UNL     1      19.927  65.384  20.952  1.00  0.00     0.014 C 
ENDBRANCH   3  36
BRANCH   1  43
HETATM   43  N   UNL     1      16.954  61.317  24.226  1.00  0.00    -0.385 N 
ATOM     44  HN2 UNL     1      16.761  60.563  24.885  1.00  0.00     0.157 HD
ATOM     45  HN1 UNL     1      16.179  61.891  23.895  1.00  0.00     0.157 HD
ENDBRANCH   1  43
TORSDOF 6
