MODEL 1
REMARK VINA RESULT:      -7.7      0.000      0.000
REMARK  7 active torsions:
REMARK  status: ('A' for Active; 'I' for Inactive)
REMARK    1  A    between atoms: C_2  and  O_33 
REMARK    2  A    between atoms: C_3  and  C_34 
REMARK    3  A    between atoms: O_10  and  C_25 
REMARK    4  A    between atoms: O_10  and  C_34 
REMARK    5  A    between atoms: N_12  and  C_23 
REMARK    6  A    between atoms: C_23  and  O_27 
REMARK    7  A    between atoms: C_24  and  O_31 
ROOT
HETATM    1  C   UNL     1     -19.552  -1.861  -3.717  1.00  0.00     0.122 C 
HETATM    2  C   UNL     1     -21.154  -0.626  -4.914  1.00  0.00     0.033 C 
HETATM    3  C   UNL     1     -19.676  -1.011  -4.965  1.00  0.00     0.040 C 
HETATM    4  C   UNL     1     -22.125   0.603  -3.048  1.00  0.00    -0.021 C 
HETATM    5  O   UNL     1     -22.861   2.670  -4.105  1.00  0.00    -0.347 OA
HETATM    6  C   UNL     1     -21.947   1.583  -4.178  1.00  0.00     0.083 C 
HETATM    7  C   UNL     1     -22.896   3.239  -2.786  1.00  0.00     0.248 C 
HETATM    8  C   UNL     1     -20.286  -1.063  -2.665  1.00  0.00     0.042 C 
HETATM    9  C   UNL     1     -21.534  -0.707  -3.444  1.00  0.00     0.030 C 
HETATM   10  C   UNL     1     -23.473   2.214  -1.795  1.00  0.00     0.263 C 
HETATM   11  C   UNL     1     -21.263   0.843  -5.300  1.00  0.00     0.194 C 
HETATM   12  C   UNL     1     -22.712   0.901  -1.886  1.00  0.00     0.053 C 
ENDROOT
BRANCH  11  13
HETATM   13  O   UNL     1     -21.835   0.985  -6.595  1.00  0.00    -0.305 OA
BRANCH  13  14
HETATM   14  C   UNL     1     -21.048   1.445  -7.612  1.00  0.00     0.297 C 
HETATM   15  O   UNL     1     -20.033   2.123  -7.437  1.00  0.00    -0.259 OA
BRANCH  14  16
HETATM   16  C   UNL     1     -21.499   1.173  -9.009  1.00  0.00     0.083 C 
HETATM   17  C   UNL     1     -21.713   2.178  -9.949  1.00  0.00     0.082 C 
HETATM   18  C   UNL     1     -22.387   1.862 -11.132  1.00  0.00     0.038 C 
HETATM   19  C   UNL     1     -22.300   0.551 -11.587  1.00  0.00     0.015 C 
HETATM   20  C   UNL     1     -21.745  -0.421 -10.754  1.00  0.00    -0.025 C 
HETATM   21  C   UNL     1     -21.108  -1.580 -11.183  1.00  0.00     0.012 C 
HETATM   22  C   UNL     1     -21.740  -0.152  -9.377  1.00  0.00    -0.007 C 
HETATM   23  C   UNL     1     -20.741  -2.546 -10.253  1.00  0.00     0.001 C 
HETATM   24  C   UNL     1     -21.202  -2.440  -8.946  1.00  0.00     0.001 C 
HETATM   25  C   UNL     1     -21.757  -1.243  -8.510  1.00  0.00     0.013 C 
BRANCH  17  26
HETATM   26  O   UNL     1     -21.186   3.433  -9.799  1.00  0.00    -0.360 OA
ATOM     27  HO  UNL     1     -21.471   4.164 -10.334  1.00  0.00     0.217 HD
ENDBRANCH  17  26
ENDBRANCH  14  16
ENDBRANCH  13  14
ENDBRANCH  11  13
BRANCH   1  28
HETATM   28  O   UNL     1     -18.254  -2.184  -3.305  1.00  0.00    -0.391 OA
HETATM   29  C   UNL     1     -17.626  -1.866  -2.095  1.00  0.00     0.202 C 
ENDBRANCH   1  28
BRANCH  10  30
HETATM   30  N   UNL     1     -24.891   1.993  -2.036  1.00  0.00    -0.041 N 
ATOM     31  HN3 UNL     1     -25.174   1.050  -1.769  1.00  0.00     0.278 HD
ATOM     32  HN2 UNL     1     -25.469   2.520  -1.382  1.00  0.00     0.278 HD
ATOM     33  HN1 UNL     1     -25.135   2.198  -3.004  1.00  0.00     0.278 HD
ENDBRANCH  10  30
BRANCH  10  34
HETATM   34  O   UNL     1     -23.308   2.766  -0.502  1.00  0.00    -0.360 OA
ATOM     35  HO  UNL     1     -23.082   2.069   0.103  1.00  0.00     0.213 HD
ENDBRANCH  10  34
TORSDOF 7
ENDMDL
MODEL 2
REMARK VINA RESULT:      -7.6      2.223      4.636
REMARK  7 active torsions:
REMARK  status: ('A' for Active; 'I' for Inactive)
REMARK    1  A    between atoms: C_2  and  O_33 
REMARK    2  A    between atoms: C_3  and  C_34 
REMARK    3  A    between atoms: O_10  and  C_25 
REMARK    4  A    between atoms: O_10  and  C_34 
REMARK    5  A    between atoms: N_12  and  C_23 
REMARK    6  A    between atoms: C_23  and  O_27 
REMARK    7  A    between atoms: C_24  and  O_31 
ROOT
HETATM    1  C   UNL     1     -23.411   2.076  -3.665  1.00  0.00     0.122 C 
HETATM    2  C   UNL     1     -21.859   0.824  -4.909  1.00  0.00     0.033 C 
HETATM    3  C   UNL     1     -23.334   1.226  -4.916  1.00  0.00     0.040 C 
HETATM    4  C   UNL     1     -20.849  -0.417  -3.074  1.00  0.00    -0.021 C 
HETATM    5  O   UNL     1     -20.167  -2.492  -4.153  1.00  0.00    -0.347 OA
HETATM    6  C   UNL     1     -21.070  -1.394  -4.198  1.00  0.00     0.083 C 
HETATM    7  C   UNL     1     -20.100  -3.063  -2.836  1.00  0.00     0.248 C 
HETATM    8  C   UNL     1     -22.656   1.269  -2.635  1.00  0.00     0.042 C 
HETATM    9  C   UNL     1     -21.436   0.900  -3.451  1.00  0.00     0.030 C 
HETATM   10  C   UNL     1     -19.482  -2.045  -1.862  1.00  0.00     0.263 C 
HETATM   11  C   UNL     1     -21.778  -0.645  -5.299  1.00  0.00     0.194 C 
HETATM   12  C   UNL     1     -20.231  -0.723  -1.930  1.00  0.00     0.053 C 
ENDROOT
BRANCH  11  13
HETATM   13  O   UNL     1     -21.247  -0.793  -6.611  1.00  0.00    -0.305 OA
BRANCH  13  14
HETATM   14  C   UNL     1     -22.079  -1.200  -7.614  1.00  0.00     0.297 C 
HETATM   15  O   UNL     1     -23.114  -1.844  -7.423  1.00  0.00    -0.259 OA
BRANCH  14  16
HETATM   16  C   UNL     1     -21.659  -0.914  -9.017  1.00  0.00     0.083 C 
HETATM   17  C   UNL     1     -21.463  -1.910  -9.971  1.00  0.00     0.082 C 
HETATM   18  C   UNL     1     -20.815  -1.581 -11.165  1.00  0.00     0.038 C 
HETATM   19  C   UNL     1     -20.914  -0.265 -11.606  1.00  0.00     0.015 C 
HETATM   20  C   UNL     1     -21.453   0.697 -10.752  1.00  0.00    -0.025 C 
HETATM   21  C   UNL     1     -22.100   1.860 -11.155  1.00  0.00     0.012 C 
HETATM   22  C   UNL     1     -21.428   0.415  -9.377  1.00  0.00    -0.007 C 
HETATM   23  C   UNL     1     -22.448   2.816 -10.209  1.00  0.00     0.001 C 
HETATM   24  C   UNL     1     -21.959   2.698  -8.913  1.00  0.00     0.001 C 
HETATM   25  C   UNL     1     -21.394   1.498  -8.500  1.00  0.00     0.013 C 
BRANCH  17  26
HETATM   26  O   UNL     1     -21.985  -3.166  -9.823  1.00  0.00    -0.360 OA
ATOM     27  HO  UNL     1     -22.618  -3.523 -10.434  1.00  0.00     0.217 HD
ENDBRANCH  17  26
ENDBRANCH  14  16
ENDBRANCH  13  14
ENDBRANCH  11  13
BRANCH   1  28
HETATM   28  O   UNL     1     -24.693   2.414  -3.214  1.00  0.00    -0.391 OA
HETATM   29  C   UNL     1     -25.428   1.827  -2.179  1.00  0.00     0.202 C 
ENDBRANCH   1  28
BRANCH  10  30
HETATM   30  N   UNL     1     -18.070  -1.840  -2.144  1.00  0.00    -0.041 N 
ATOM     31  HN3 UNL     1     -17.833  -2.115  -3.096  1.00  0.00     0.278 HD
ATOM     32  HN2 UNL     1     -17.840  -0.848  -2.207  1.00  0.00     0.278 HD
ATOM     33  HN1 UNL     1     -17.486  -2.318  -1.459  1.00  0.00     0.278 HD
ENDBRANCH  10  30
BRANCH  10  34
HETATM   34  O   UNL     1     -19.616  -2.596  -0.565  1.00  0.00    -0.360 OA
ATOM     35  HO  UNL     1     -19.541  -1.899   0.075  1.00  0.00     0.213 HD
ENDBRANCH  10  34
TORSDOF 7
ENDMDL
MODEL 3
REMARK VINA RESULT:      -7.4      1.207      2.535
REMARK  7 active torsions:
REMARK  status: ('A' for Active; 'I' for Inactive)
REMARK    1  A    between atoms: C_2  and  O_33 
REMARK    2  A    between atoms: C_3  and  C_34 
REMARK    3  A    between atoms: O_10  and  C_25 
REMARK    4  A    between atoms: O_10  and  C_34 
REMARK    5  A    between atoms: N_12  and  C_23 
REMARK    6  A    between atoms: C_23  and  O_27 
REMARK    7  A    between atoms: C_24  and  O_31 
ROOT
HETATM    1  C   UNL     1     -19.325  -2.018  -2.632  1.00  0.00     0.122 C 
HETATM    2  C   UNL     1     -20.544  -0.892  -4.296  1.00  0.00     0.033 C 
HETATM    3  C   UNL     1     -19.108  -1.262  -3.927  1.00  0.00     0.040 C 
HETATM    4  C   UNL     1     -21.964   0.456  -2.847  1.00  0.00    -0.021 C 
HETATM    5  O   UNL     1     -22.379   2.433  -4.208  1.00  0.00    -0.347 OA
HETATM    6  C   UNL     1     -21.487   1.355  -3.958  1.00  0.00     0.083 C 
HETATM    7  C   UNL     1     -22.757   3.095  -2.991  1.00  0.00     0.248 C 
HETATM    8  C   UNL     1     -20.304  -1.156  -1.872  1.00  0.00     0.042 C 
HETATM    9  C   UNL     1     -21.299  -0.872  -2.977  1.00  0.00     0.030 C 
HETATM   10  C   UNL     1     -23.583   2.137  -2.115  1.00  0.00     0.263 C 
HETATM   11  C   UNL     1     -20.536   0.544  -4.803  1.00  0.00     0.194 C 
HETATM   12  C   UNL     1     -22.835   0.830  -1.906  1.00  0.00     0.053 C 
ENDROOT
BRANCH  11  13
HETATM   13  O   UNL     1     -20.744   0.585  -6.209  1.00  0.00    -0.305 OA
BRANCH  13  14
HETATM   14  C   UNL     1     -21.825  -0.066  -6.732  1.00  0.00     0.297 C 
HETATM   15  O   UNL     1     -22.830  -0.355  -6.078  1.00  0.00    -0.259 OA
BRANCH  14  16
HETATM   16  C   UNL     1     -21.736  -0.519  -8.152  1.00  0.00     0.083 C 
HETATM   17  C   UNL     1     -22.003  -1.826  -8.551  1.00  0.00     0.082 C 
HETATM   18  C   UNL     1     -21.637  -2.226  -9.840  1.00  0.00     0.038 C 
HETATM   19  C   UNL     1     -21.577  -1.242 -10.822  1.00  0.00     0.015 C 
HETATM   20  C   UNL     1     -21.666   0.098 -10.445  1.00  0.00    -0.025 C 
HETATM   21  C   UNL     1     -22.145   1.129 -11.246  1.00  0.00     0.012 C 
HETATM   22  C   UNL     1     -21.341   0.410  -9.116  1.00  0.00    -0.007 C 
HETATM   23  C   UNL     1     -22.031   2.445 -10.813  1.00  0.00     0.001 C 
HETATM   24  C   UNL     1     -21.256   2.727  -9.694  1.00  0.00     0.001 C 
HETATM   25  C   UNL     1     -20.859   1.691  -8.856  1.00  0.00     0.013 C 
BRANCH  17  26
HETATM   26  O   UNL     1     -22.713  -2.693  -7.765  1.00  0.00    -0.360 OA
ATOM     27  HO  UNL     1     -22.481  -2.854  -6.858  1.00  0.00     0.217 HD
ENDBRANCH  17  26
ENDBRANCH  14  16
ENDBRANCH  13  14
ENDBRANCH  11  13
BRANCH   1  28
HETATM   28  O   UNL     1     -18.184  -2.295  -1.869  1.00  0.00    -0.391 OA
HETATM   29  C   UNL     1     -17.035  -1.512  -1.714  1.00  0.00     0.202 C 
ENDBRANCH   1  28
BRANCH  10  30
HETATM   30  N   UNL     1     -24.889   1.882  -2.705  1.00  0.00    -0.041 N 
ATOM     31  HN3 UNL     1     -24.947   2.240  -3.657  1.00  0.00     0.278 HD
ATOM     32  HN2 UNL     1     -25.024   0.891  -2.902  1.00  0.00     0.278 HD
ATOM     33  HN1 UNL     1     -25.635   2.253  -2.118  1.00  0.00     0.278 HD
ENDBRANCH  10  30
BRANCH  10  34
HETATM   34  O   UNL     1     -23.762   2.782  -0.868  1.00  0.00    -0.360 OA
ATOM     35  HO  UNL     1     -23.657   3.718  -0.989  1.00  0.00     0.213 HD
ENDBRANCH  10  34
TORSDOF 7
ENDMDL
MODEL 4
REMARK VINA RESULT:      -7.4      1.945      4.049
REMARK  7 active torsions:
REMARK  status: ('A' for Active; 'I' for Inactive)
REMARK    1  A    between atoms: C_2  and  O_33 
REMARK    2  A    between atoms: C_3  and  C_34 
REMARK    3  A    between atoms: O_10  and  C_25 
REMARK    4  A    between atoms: O_10  and  C_34 
REMARK    5  A    between atoms: N_12  and  C_23 
REMARK    6  A    between atoms: C_23  and  O_27 
REMARK    7  A    between atoms: C_24  and  O_31 
ROOT
HETATM    1  C   UNL     1     -23.702   2.227  -2.480  1.00  0.00     0.122 C 
HETATM    2  C   UNL     1     -22.540   1.147  -4.214  1.00  0.00     0.033 C 
HETATM    3  C   UNL     1     -23.963   1.504  -3.785  1.00  0.00     0.040 C 
HETATM    4  C   UNL     1     -21.068  -0.235  -2.851  1.00  0.00    -0.021 C 
HETATM    5  O   UNL     1     -20.698  -2.176  -4.277  1.00  0.00    -0.347 OA
HETATM    6  C   UNL     1     -21.583  -1.106  -3.967  1.00  0.00     0.083 C 
HETATM    7  C   UNL     1     -20.276  -2.867  -3.090  1.00  0.00     0.248 C 
HETATM    8  C   UNL     1     -22.694   1.348  -1.777  1.00  0.00     0.042 C 
HETATM    9  C   UNL     1     -21.739   1.095  -2.923  1.00  0.00     0.030 C 
HETATM   10  C   UNL     1     -19.421  -1.930  -2.220  1.00  0.00     0.263 C 
HETATM   11  C   UNL     1     -22.564  -0.276  -4.757  1.00  0.00     0.194 C 
HETATM   12  C   UNL     1     -20.164  -0.631  -1.952  1.00  0.00     0.053 C 
ENDROOT
BRANCH  11  13
HETATM   13  O   UNL     1     -22.406  -0.281  -6.171  1.00  0.00    -0.305 OA
BRANCH  13  14
HETATM   14  C   UNL     1     -21.315   0.338  -6.711  1.00  0.00     0.297 C 
HETATM   15  O   UNL     1     -20.293   0.602  -6.071  1.00  0.00    -0.259 OA
BRANCH  14  16
HETATM   16  C   UNL     1     -21.410   0.787  -8.131  1.00  0.00     0.083 C 
HETATM   17  C   UNL     1     -21.134   2.090  -8.538  1.00  0.00     0.082 C 
HETATM   18  C   UNL     1     -21.507   2.488  -9.825  1.00  0.00     0.038 C 
HETATM   19  C   UNL     1     -21.582   1.501 -10.803  1.00  0.00     0.015 C 
HETATM   20  C   UNL     1     -21.502   0.161 -10.422  1.00  0.00    -0.025 C 
HETATM   21  C   UNL     1     -21.038  -0.877 -11.222  1.00  0.00     0.012 C 
HETATM   22  C   UNL     1     -21.820  -0.142  -9.089  1.00  0.00    -0.007 C 
HETATM   23  C   UNL     1     -21.159  -2.190 -10.783  1.00  0.00     0.001 C 
HETATM   24  C   UNL     1     -21.929  -2.461  -9.658  1.00  0.00     0.001 C 
HETATM   25  C   UNL     1     -22.311  -1.419  -8.821  1.00  0.00     0.013 C 
BRANCH  17  26
HETATM   26  O   UNL     1     -20.411   2.953  -7.759  1.00  0.00    -0.360 OA
ATOM     27  HO  UNL     1     -19.939   2.660  -6.989  1.00  0.00     0.217 HD
ENDBRANCH  17  26
ENDBRANCH  14  16
ENDBRANCH  13  14
ENDBRANCH  11  13
BRANCH   1  28
HETATM   28  O   UNL     1     -24.815   2.482  -1.670  1.00  0.00    -0.391 OA
HETATM   29  C   UNL     1     -25.995   1.737  -1.561  1.00  0.00     0.202 C 
ENDBRANCH   1  28
BRANCH  10  30
HETATM   30  N   UNL     1     -18.138  -1.657  -2.849  1.00  0.00    -0.041 N 
ATOM     31  HN3 UNL     1     -17.510  -1.157  -2.220  1.00  0.00     0.278 HD
ATOM     32  HN2 UNL     1     -17.591  -2.509  -2.970  1.00  0.00     0.278 HD
ATOM     33  HN1 UNL     1     -18.260  -1.160  -3.731  1.00  0.00     0.278 HD
ENDBRANCH  10  30
BRANCH  10  34
HETATM   34  O   UNL     1     -19.198  -2.607  -0.998  1.00  0.00    -0.360 OA
ATOM     35  HO  UNL     1     -18.458  -2.208  -0.556  1.00  0.00     0.213 HD
ENDBRANCH  10  34
TORSDOF 7
ENDMDL
MODEL 5
REMARK VINA RESULT:      -7.3      1.292      1.818
REMARK  7 active torsions:
REMARK  status: ('A' for Active; 'I' for Inactive)
REMARK    1  A    between atoms: C_2  and  O_33 
REMARK    2  A    between atoms: C_3  and  C_34 
REMARK    3  A    between atoms: O_10  and  C_25 
REMARK    4  A    between atoms: O_10  and  C_34 
REMARK    5  A    between atoms: N_12  and  C_23 
REMARK    6  A    between atoms: C_23  and  O_27 
REMARK    7  A    between atoms: C_24  and  O_31 
ROOT
HETATM    1  C   UNL     1     -18.990  -2.295  -1.677  1.00  0.00     0.122 C 
HETATM    2  C   UNL     1     -20.063  -1.603  -3.650  1.00  0.00     0.033 C 
HETATM    3  C   UNL     1     -18.666  -1.900  -3.103  1.00  0.00     0.040 C 
HETATM    4  C   UNL     1     -21.511   0.103  -2.689  1.00  0.00    -0.021 C 
HETATM    5  O   UNL     1     -21.766   1.677  -4.531  1.00  0.00    -0.347 OA
HETATM    6  C   UNL     1     -20.934   0.677  -3.956  1.00  0.00     0.083 C 
HETATM    7  C   UNL     1     -22.189   2.636  -3.549  1.00  0.00     0.248 C 
HETATM    8  C   UNL     1     -19.978  -1.245  -1.228  1.00  0.00     0.042 C 
HETATM    9  C   UNL     1     -20.893  -1.229  -2.433  1.00  0.00     0.030 C 
HETATM   10  C   UNL     1     -23.103   1.952  -2.517  1.00  0.00     0.263 C 
HETATM   11  C   UNL     1     -19.968  -0.345  -4.502  1.00  0.00     0.194 C 
HETATM   12  C   UNL     1     -22.421   0.725  -1.934  1.00  0.00     0.053 C 
ENDROOT
BRANCH  11  13
HETATM   13  O   UNL     1     -20.090  -0.659  -5.884  1.00  0.00    -0.305 OA
BRANCH  13  14
HETATM   14  C   UNL     1     -21.309  -0.517  -6.483  1.00  0.00     0.297 C 
HETATM   15  O   UNL     1     -22.349  -1.010  -6.039  1.00  0.00    -0.259 OA
BRANCH  14  16
HETATM   16  C   UNL     1     -21.356   0.207  -7.788  1.00  0.00     0.083 C 
HETATM   17  C   UNL     1     -21.071   1.564  -7.915  1.00  0.00     0.082 C 
HETATM   18  C   UNL     1     -21.400   2.213  -9.109  1.00  0.00     0.038 C 
HETATM   19  C   UNL     1     -21.439   1.442 -10.266  1.00  0.00     0.015 C 
HETATM   20  C   UNL     1     -21.368   0.054 -10.159  1.00  0.00    -0.025 C 
HETATM   21  C   UNL     1     -20.874  -0.805 -11.135  1.00  0.00     0.012 C 
HETATM   22  C   UNL     1     -21.731  -0.510  -8.925  1.00  0.00    -0.007 C 
HETATM   23  C   UNL     1     -21.006  -2.179 -10.972  1.00  0.00     0.001 C 
HETATM   24  C   UNL     1     -21.813  -2.667  -9.950  1.00  0.00     0.001 C 
HETATM   25  C   UNL     1     -22.227  -1.812  -8.936  1.00  0.00     0.013 C 
BRANCH  17  26
HETATM   26  O   UNL     1     -20.378   2.251  -6.955  1.00  0.00    -0.360 OA
ATOM     27  HO  UNL     1     -20.007   1.818  -6.196  1.00  0.00     0.217 HD
ENDBRANCH  17  26
ENDBRANCH  14  16
ENDBRANCH  13  14
ENDBRANCH  11  13
BRANCH   1  28
HETATM   28  O   UNL     1     -17.909  -2.395  -0.793  1.00  0.00    -0.391 OA
HETATM   29  C   UNL     1     -16.543  -2.292  -1.082  1.00  0.00     0.202 C 
ENDBRANCH   1  28
BRANCH  10  30
HETATM   30  N   UNL     1     -24.380   1.586  -3.110  1.00  0.00    -0.041 N 
ATOM     31  HN3 UNL     1     -24.595   2.160  -3.924  1.00  0.00     0.278 HD
ATOM     32  HN2 UNL     1     -24.334   0.677  -3.569  1.00  0.00     0.278 HD
ATOM     33  HN1 UNL     1     -25.129   1.620  -2.418  1.00  0.00     0.278 HD
ENDBRANCH  10  30
BRANCH  10  34
HETATM   34  O   UNL     1     -23.330   2.899  -1.489  1.00  0.00    -0.360 OA
ATOM     35  HO  UNL     1     -22.492   3.182  -1.142  1.00  0.00     0.213 HD
ENDBRANCH  10  34
TORSDOF 7
ENDMDL
MODEL 6
REMARK VINA RESULT:      -5.9      3.450      5.962
REMARK  7 active torsions:
REMARK  status: ('A' for Active; 'I' for Inactive)
REMARK    1  A    between atoms: C_2  and  O_33 
REMARK    2  A    between atoms: C_3  and  C_34 
REMARK    3  A    between atoms: O_10  and  C_25 
REMARK    4  A    between atoms: O_10  and  C_34 
REMARK    5  A    between atoms: N_12  and  C_23 
REMARK    6  A    between atoms: C_23  and  O_27 
REMARK    7  A    between atoms: C_24  and  O_31 
ROOT
HETATM    1  C   UNL     1     -15.686  -1.601  -0.736  1.00  0.00     0.122 C 
HETATM    2  C   UNL     1     -17.902  -2.309  -1.076  1.00  0.00     0.033 C 
HETATM    3  C   UNL     1     -16.859  -1.357  -1.664  1.00  0.00     0.040 C 
HETATM    4  C   UNL     1     -18.690  -2.133   1.221  1.00  0.00    -0.021 C 
HETATM    5  O   UNL     1     -21.058  -1.642   0.930  1.00  0.00    -0.347 OA
HETATM    6  C   UNL     1     -19.767  -1.556   0.340  1.00  0.00     0.083 C 
HETATM    7  C   UNL     1     -21.047  -1.172   2.287  1.00  0.00     0.248 C 
HETATM    8  C   UNL     1     -16.309  -1.590   0.640  1.00  0.00     0.042 C 
HETATM    9  C   UNL     1     -17.507  -2.477   0.382  1.00  0.00     0.030 C 
HETATM   10  C   UNL     1     -20.190  -2.111   3.153  1.00  0.00     0.263 C 
HETATM   11  C   UNL     1     -19.240  -1.583  -1.073  1.00  0.00     0.194 C 
HETATM   12  C   UNL     1     -18.808  -2.283   2.543  1.00  0.00     0.053 C 
ENDROOT
BRANCH  11  13
HETATM   13  O   UNL     1     -20.109  -2.119  -2.064  1.00  0.00    -0.305 OA
BRANCH  13  14
HETATM   14  C   UNL     1     -20.025  -1.638  -3.340  1.00  0.00     0.297 C 
HETATM   15  O   UNL     1     -19.107  -1.917  -4.115  1.00  0.00    -0.259 OA
BRANCH  14  16
HETATM   16  C   UNL     1     -21.063  -0.659  -3.778  1.00  0.00     0.083 C 
HETATM   17  C   UNL     1     -21.823   0.094  -2.886  1.00  0.00     0.082 C 
HETATM   18  C   UNL     1     -22.946   0.776  -3.365  1.00  0.00     0.038 C 
HETATM   19  C   UNL     1     -22.940   1.157  -4.703  1.00  0.00     0.015 C 
HETATM   20  C   UNL     1     -21.941   0.666  -5.544  1.00  0.00    -0.025 C 
HETATM   21  C   UNL     1     -21.464   1.303  -6.685  1.00  0.00     0.012 C 
HETATM   22  C   UNL     1     -21.297  -0.516  -5.146  1.00  0.00    -0.007 C 
HETATM   23  C   UNL     1     -20.582   0.635  -7.526  1.00  0.00     0.001 C 
HETATM   24  C   UNL     1     -20.357  -0.724  -7.334  1.00  0.00     0.001 C 
HETATM   25  C   UNL     1     -20.764  -1.324  -6.148  1.00  0.00     0.013 C 
BRANCH  17  26
HETATM   26  O   UNL     1     -21.439   0.279  -1.585  1.00  0.00    -0.360 OA
ATOM     27  HO  UNL     1     -21.841   0.938  -1.031  1.00  0.00     0.217 HD
ENDBRANCH  17  26
ENDBRANCH  14  16
ENDBRANCH  13  14
ENDBRANCH  11  13
BRANCH   1  28
HETATM   28  O   UNL     1     -14.619  -0.700  -0.825  1.00  0.00    -0.391 OA
HETATM   29  C   UNL     1     -13.953  -0.042   0.215  1.00  0.00     0.202 C 
ENDBRANCH   1  28
BRANCH  10  30
HETATM   30  N   UNL     1     -20.833  -3.406   3.317  1.00  0.00    -0.041 N 
ATOM     31  HN3 UNL     1     -20.493  -3.892   4.146  1.00  0.00     0.278 HD
ATOM     32  HN2 UNL     1     -21.812  -3.307   3.585  1.00  0.00     0.278 HD
ATOM     33  HN1 UNL     1     -20.729  -3.976   2.478  1.00  0.00     0.278 HD
ENDBRANCH  10  30
BRANCH  10  34
HETATM   34  O   UNL     1     -20.072  -1.495   4.422  1.00  0.00    -0.360 OA
ATOM     35  HO  UNL     1     -20.551  -0.675   4.411  1.00  0.00     0.213 HD
ENDBRANCH  10  34
TORSDOF 7
ENDMDL
MODEL 7
REMARK VINA RESULT:      -5.7      2.466      7.484
REMARK  7 active torsions:
REMARK  status: ('A' for Active; 'I' for Inactive)
REMARK    1  A    between atoms: C_2  and  O_33 
REMARK    2  A    between atoms: C_3  and  C_34 
REMARK    3  A    between atoms: O_10  and  C_25 
REMARK    4  A    between atoms: O_10  and  C_34 
REMARK    5  A    between atoms: N_12  and  C_23 
REMARK    6  A    between atoms: C_23  and  O_27 
REMARK    7  A    between atoms: C_24  and  O_31 
ROOT
HETATM    1  C   UNL     1     -21.262  -0.276  -7.133  1.00  0.00     0.122 C 
HETATM    2  C   UNL     1     -20.263   0.236  -5.069  1.00  0.00     0.033 C 
HETATM    3  C   UNL     1     -20.403  -0.917  -6.063  1.00  0.00     0.040 C 
HETATM    4  C   UNL     1     -22.183   1.277  -3.991  1.00  0.00    -0.021 C 
HETATM    5  O   UNL     1     -21.796   0.787  -1.636  1.00  0.00    -0.347 OA
HETATM    6  C   UNL     1     -21.544   0.370  -2.973  1.00  0.00     0.083 C 
HETATM    7  C   UNL     1     -23.189   1.071  -1.430  1.00  0.00     0.248 C 
HETATM    8  C   UNL     1     -22.341   0.434  -6.350  1.00  0.00     0.042 C 
HETATM    9  C   UNL     1     -21.487   1.108  -5.298  1.00  0.00     0.030 C 
HETATM   10  C   UNL     1     -23.600   2.290  -2.273  1.00  0.00     0.263 C 
HETATM   11  C   UNL     1     -20.410  -0.342  -3.668  1.00  0.00     0.194 C 
HETATM   12  C   UNL     1     -23.216   2.081  -3.730  1.00  0.00     0.053 C 
ENDROOT
BRANCH  11  13
HETATM   13  O   UNL     1     -19.159  -0.355  -2.991  1.00  0.00    -0.305 OA
BRANCH  13  14
HETATM   14  C   UNL     1     -18.508  -1.545  -2.836  1.00  0.00     0.297 C 
HETATM   15  O   UNL     1     -18.441  -2.406  -3.718  1.00  0.00    -0.259 OA
BRANCH  14  16
HETATM   16  C   UNL     1     -17.921  -1.842  -1.497  1.00  0.00     0.083 C 
HETATM   17  C   UNL     1     -16.563  -1.716  -1.216  1.00  0.00     0.082 C 
HETATM   18  C   UNL     1     -16.065  -2.268  -0.032  1.00  0.00     0.038 C 
HETATM   19  C   UNL     1     -16.945  -2.384   1.039  1.00  0.00     0.015 C 
HETATM   20  C   UNL     1     -18.305  -2.158   0.827  1.00  0.00    -0.025 C 
HETATM   21  C   UNL     1     -19.207  -1.716   1.788  1.00  0.00     0.012 C 
HETATM   22  C   UNL     1     -18.775  -2.292  -0.489  1.00  0.00    -0.007 C 
HETATM   23  C   UNL     1     -20.565  -1.685   1.494  1.00  0.00     0.001 C 
HETATM   24  C   UNL     1     -21.021  -2.293   0.330  1.00  0.00     0.001 C 
HETATM   25  C   UNL     1     -20.112  -2.649  -0.659  1.00  0.00     0.013 C 
BRANCH  17  26
HETATM   26  O   UNL     1     -15.727  -0.973  -2.005  1.00  0.00    -0.360 OA
ATOM     27  HO  UNL     1     -16.024  -0.571  -2.813  1.00  0.00     0.217 HD
ENDBRANCH  17  26
ENDBRANCH  14  16
ENDBRANCH  13  14
ENDBRANCH  11  13
BRANCH   1  28
HETATM   28  O   UNL     1     -21.806  -1.133  -8.098  1.00  0.00    -0.391 OA
HETATM   29  C   UNL     1     -23.136  -1.541  -8.241  1.00  0.00     0.202 C 
ENDBRANCH   1  28
BRANCH  10  30
HETATM   30  N   UNL     1     -22.992   3.510  -1.762  1.00  0.00    -0.041 N 
ATOM     31  HN3 UNL     1     -22.188   3.308  -1.168  1.00  0.00     0.278 HD
ATOM     32  HN2 UNL     1     -22.516   4.029  -2.499  1.00  0.00     0.278 HD
ATOM     33  HN1 UNL     1     -23.680   4.087  -1.279  1.00  0.00     0.278 HD
ENDBRANCH  10  30
BRANCH  10  34
HETATM   34  O   UNL     1     -25.006   2.399  -2.167  1.00  0.00    -0.360 OA
ATOM     35  HO  UNL     1     -25.373   2.506  -3.036  1.00  0.00     0.213 HD
ENDBRANCH  10  34
TORSDOF 7
ENDMDL
MODEL 8
REMARK VINA RESULT:      -5.7      2.676      7.625
REMARK  7 active torsions:
REMARK  status: ('A' for Active; 'I' for Inactive)
REMARK    1  A    between atoms: C_2  and  O_33 
REMARK    2  A    between atoms: C_3  and  C_34 
REMARK    3  A    between atoms: O_10  and  C_25 
REMARK    4  A    between atoms: O_10  and  C_34 
REMARK    5  A    between atoms: N_12  and  C_23 
REMARK    6  A    between atoms: C_23  and  O_27 
REMARK    7  A    between atoms: C_24  and  O_31 
ROOT
HETATM    1  C   UNL     1     -20.172  -1.043  -2.669  1.00  0.00     0.122 C 
HETATM    2  C   UNL     1     -21.290   0.815  -3.574  1.00  0.00     0.033 C 
HETATM    3  C   UNL     1     -21.437  -0.234  -2.472  1.00  0.00     0.040 C 
HETATM    4  C   UNL     1     -21.114   0.225  -5.930  1.00  0.00    -0.021 C 
HETATM    5  O   UNL     1     -23.109   1.251  -6.881  1.00  0.00    -0.347 OA
HETATM    6  C   UNL     1     -22.520   0.716  -5.702  1.00  0.00     0.083 C 
HETATM    7  C   UNL     1     -22.931   0.371  -8.002  1.00  0.00     0.248 C 
HETATM    8  C   UNL     1     -20.104  -1.244  -4.164  1.00  0.00     0.042 C 
HETATM    9  C   UNL     1     -20.401   0.167  -4.622  1.00  0.00     0.030 C 
HETATM   10  C   UNL     1     -21.436   0.276  -8.354  1.00  0.00     0.263 C 
HETATM   11  C   UNL     1     -22.654   0.996  -4.226  1.00  0.00     0.194 C 
HETATM   12  C   UNL     1     -20.625  -0.107  -7.127  1.00  0.00     0.053 C 
ENDROOT
BRANCH  11  13
HETATM   13  O   UNL     1     -23.226   2.248  -3.867  1.00  0.00    -0.305 OA
BRANCH  13  14
HETATM   14  C   UNL     1     -24.389   2.257  -3.151  1.00  0.00     0.297 C 
HETATM   15  O   UNL     1     -25.507   2.343  -3.666  1.00  0.00    -0.259 OA
BRANCH  14  16
HETATM   16  C   UNL     1     -24.283   2.242  -1.662  1.00  0.00     0.083 C 
HETATM   17  C   UNL     1     -23.160   2.695  -0.975  1.00  0.00     0.082 C 
HETATM   18  C   UNL     1     -23.036   2.397   0.385  1.00  0.00     0.038 C 
HETATM   19  C   UNL     1     -24.210   2.204   1.107  1.00  0.00     0.015 C 
HETATM   20  C   UNL     1     -25.419   2.099   0.420  1.00  0.00    -0.025 C 
HETATM   21  C   UNL     1     -26.668   2.431   0.934  1.00  0.00     0.012 C 
HETATM   22  C   UNL     1     -25.354   1.725  -0.931  1.00  0.00    -0.007 C 
HETATM   23  C   UNL     1     -27.812   2.129   0.206  1.00  0.00     0.001 C 
HETATM   24  C   UNL     1     -27.708   1.314  -0.916  1.00  0.00     0.001 C 
HETATM   25  C   UNL     1     -26.458   1.064  -1.468  1.00  0.00     0.013 C 
BRANCH  17  26
HETATM   26  O   UNL     1     -22.235   3.516  -1.562  1.00  0.00    -0.360 OA
ATOM     27  HO  UNL     1     -22.028   3.459  -2.487  1.00  0.00     0.217 HD
ENDBRANCH  17  26
ENDBRANCH  14  16
ENDBRANCH  13  14
ENDBRANCH  11  13
BRANCH   1  28
HETATM   28  O   UNL     1     -20.092  -2.260  -1.981  1.00  0.00    -0.391 OA
HETATM   29  C   UNL     1     -19.733  -2.478  -0.646  1.00  0.00     0.202 C 
ENDBRANCH   1  28
BRANCH  10  30
HETATM   30  N   UNL     1     -20.949   1.530  -8.910  1.00  0.00    -0.041 N 
ATOM     31  HN3 UNL     1     -20.736   1.442  -9.903  1.00  0.00     0.278 HD
ATOM     32  HN2 UNL     1     -21.690   2.227  -8.970  1.00  0.00     0.278 HD
ATOM     33  HN1 UNL     1     -20.148   1.877  -8.384  1.00  0.00     0.278 HD
ENDBRANCH  10  30
BRANCH  10  34
HETATM   34  O   UNL     1     -21.316  -0.737  -9.335  1.00  0.00    -0.360 OA
ATOM     35  HO  UNL     1     -21.546  -1.571  -8.944  1.00  0.00     0.213 HD
ENDBRANCH  10  34
TORSDOF 7
ENDMDL
MODEL 9
REMARK VINA RESULT:      -5.6      2.732      7.856
REMARK  7 active torsions:
REMARK  status: ('A' for Active; 'I' for Inactive)
REMARK    1  A    between atoms: C_2  and  O_33 
REMARK    2  A    between atoms: C_3  and  C_34 
REMARK    3  A    between atoms: O_10  and  C_25 
REMARK    4  A    between atoms: O_10  and  C_34 
REMARK    5  A    between atoms: N_12  and  C_23 
REMARK    6  A    between atoms: C_23  and  O_27 
REMARK    7  A    between atoms: C_24  and  O_31 
ROOT
HETATM    1  C   UNL     1     -21.788   0.447  -7.151  1.00  0.00     0.122 C 
HETATM    2  C   UNL     1     -22.759  -0.060  -5.071  1.00  0.00     0.033 C 
HETATM    3  C   UNL     1     -22.649   1.084  -6.080  1.00  0.00     0.040 C 
HETATM    4  C   UNL     1     -20.810  -1.054  -4.000  1.00  0.00    -0.021 C 
HETATM    5  O   UNL     1     -21.185  -0.545  -1.648  1.00  0.00    -0.347 OA
HETATM    6  C   UNL     1     -21.457  -0.148  -2.986  1.00  0.00     0.083 C 
HETATM    7  C   UNL     1     -19.785  -0.801  -1.451  1.00  0.00     0.248 C 
HETATM    8  C   UNL     1     -20.689  -0.234  -6.370  1.00  0.00     0.042 C 
HETATM    9  C   UNL     1     -21.521  -0.912  -5.303  1.00  0.00     0.030 C 
HETATM   10  C   UNL     1     -19.360  -2.022  -2.285  1.00  0.00     0.263 C 
HETATM   11  C   UNL     1     -22.610   0.536  -3.678  1.00  0.00     0.194 C 
HETATM   12  C   UNL     1     -19.760  -1.836  -3.740  1.00  0.00     0.053 C 
ENDROOT
BRANCH  11  13
HETATM   13  O   UNL     1     -23.855   0.533  -2.990  1.00  0.00    -0.305 OA
BRANCH  13  14
HETATM   14  C   UNL     1     -24.510   1.718  -2.813  1.00  0.00     0.297 C 
HETATM   15  O   UNL     1     -24.571   2.599  -3.674  1.00  0.00    -0.259 OA
BRANCH  14  16
HETATM   16  C   UNL     1     -25.108   1.981  -1.471  1.00  0.00     0.083 C 
HETATM   17  C   UNL     1     -26.465   1.821  -1.198  1.00  0.00     0.082 C 
HETATM   18  C   UNL     1     -26.980   2.344  -0.009  1.00  0.00     0.038 C 
HETATM   19  C   UNL     1     -26.106   2.463   1.068  1.00  0.00     0.015 C 
HETATM   20  C   UNL     1     -24.741   2.270   0.859  1.00  0.00    -0.025 C 
HETATM   21  C   UNL     1     -23.833   1.833   1.817  1.00  0.00     0.012 C 
HETATM   22  C   UNL     1     -24.268   2.434  -0.453  1.00  0.00    -0.007 C 
HETATM   23  C   UNL     1     -22.474   1.836   1.528  1.00  0.00     0.001 C 
HETATM   24  C   UNL     1     -22.026   2.472   0.375  1.00  0.00     0.001 C 
HETATM   25  C   UNL     1     -22.939   2.824  -0.612  1.00  0.00     0.013 C 
BRANCH  17  26
HETATM   26  O   UNL     1     -27.281   1.072  -2.002  1.00  0.00    -0.360 OA
ATOM     27  HO  UNL     1     -27.500   0.171  -1.796  1.00  0.00     0.217 HD
ENDBRANCH  17  26
ENDBRANCH  14  16
ENDBRANCH  13  14
ENDBRANCH  11  13
BRANCH   1  28
HETATM   28  O   UNL     1     -21.269   1.303  -8.129  1.00  0.00    -0.391 OA
HETATM   29  C   UNL     1     -19.976   1.830  -8.220  1.00  0.00     0.202 C 
ENDBRANCH   1  28
BRANCH  10  30
HETATM   30  N   UNL     1     -19.939  -3.246  -1.755  1.00  0.00    -0.041 N 
ATOM     31  HN3 UNL     1     -19.410  -3.598  -0.957  1.00  0.00     0.278 HD
ATOM     32  HN2 UNL     1     -20.827  -3.069  -1.286  1.00  0.00     0.278 HD
ATOM     33  HN1 UNL     1     -20.033  -3.953  -2.484  1.00  0.00     0.278 HD
ENDBRANCH  10  30
BRANCH  10  34
HETATM   34  O   UNL     1     -17.950  -2.104  -2.190  1.00  0.00    -0.360 OA
ATOM     35  HO  UNL     1     -17.617  -1.285  -1.842  1.00  0.00     0.213 HD
ENDBRANCH  10  34
TORSDOF 7
ENDMDL
