MODEL 1
REMARK VINA RESULT:      -6.7      0.000      0.000
REMARK  4 active torsions:
REMARK  status: ('A' for Active; 'I' for Inactive)
REMARK    1  A    between atoms: O_3  and  C_20 
REMARK    2  A    between atoms: O_5  and  C_11 
REMARK    3  A    between atoms: C_10  and  C_11 
REMARK    4  A    between atoms: O_14  and  C_18 
ROOT
HETATM    1  C   UNL     1     -39.822   1.166  17.368  1.00  0.00     0.031 A 
HETATM    2  C   UNL     1     -37.394   2.130  18.781  1.00  0.00     0.088 A 
HETATM    3  C   UNL     1     -39.629   1.194  18.707  1.00  0.00     0.004 A 
HETATM    4  C   UNL     1     -38.236   1.733  14.098  1.00  0.00     0.191 C 
HETATM    5  N   UNL     1     -39.394   1.444  14.954  1.00  0.00    -0.352 N 
ATOM      6  HN  UNL     1     -40.324   1.206  14.607  1.00  0.00     0.163 HD
HETATM    7  C   UNL     1     -37.792   2.102  16.409  1.00  0.00     0.070 A 
HETATM    8  C   UNL     1     -37.190   2.287  15.066  1.00  0.00     0.228 C 
HETATM    9  C   UNL     1     -39.058   1.538  16.285  1.00  0.00     0.056 A 
HETATM   10  C   UNL     1     -38.513   1.610  19.381  1.00  0.00     0.017 A 
HETATM   11  N   UNL     1     -37.121   2.383  17.516  1.00  0.00    -0.365 N 
ATOM     12  HN  UNL     1     -36.244   2.880  17.363  1.00  0.00     0.165 HD
ENDROOT
BRANCH   4  13
HETATM   13  O   UNL     1     -38.580   2.689  13.129  1.00  0.00    -0.366 OA
ATOM     14  HO  UNL     1     -38.642   3.539  13.549  1.00  0.00     0.212 HD
ENDBRANCH   4  13
BRANCH   4  15
HETATM   15  C   UNL     1     -37.722   0.495  13.394  1.00  0.00     0.198 C 
HETATM   16  O   UNL     1     -36.317   0.660  13.132  1.00  0.00    -0.308 OA
HETATM   17  C   UNL     1     -35.994  -0.071  11.966  1.00  0.00     0.294 C 
HETATM   18  C   UNL     1     -37.244  -0.371  11.185  1.00  0.00     0.151 C 
HETATM   19  O   UNL     1     -34.895  -0.557  11.705  1.00  0.00    -0.262 OA
HETATM   20  C   UNL     1     -37.468   0.541  10.011  1.00  0.00     0.049 C 
HETATM   21  C   UNL     1     -38.352  -0.096  12.178  1.00  0.00     0.065 C 
HETATM   22  C   UNL     1     -38.876   1.060  10.109  1.00  0.00     0.004 C 
HETATM   23  C   UNL     1     -39.427   0.680  11.462  1.00  0.00     0.011 C 
BRANCH  18  24
HETATM   24  O   UNL     1     -37.360  -1.724  10.769  1.00  0.00    -0.379 OA
ATOM     25  HO  UNL     1     -37.290  -1.776   9.823  1.00  0.00     0.211 HD
ENDBRANCH  18  24
ENDBRANCH   4  15
BRANCH   8  26
HETATM   26  O   UNL     1     -36.676   3.572  14.788  1.00  0.00    -0.384 OA
ATOM     27  HO  UNL     1     -35.737   3.644  14.668  1.00  0.00     0.210 HD
ENDBRANCH   8  26
TORSDOF 4
ENDMDL
MODEL 2
REMARK VINA RESULT:      -6.3      3.008      6.543
REMARK  4 active torsions:
REMARK  status: ('A' for Active; 'I' for Inactive)
REMARK    1  A    between atoms: O_3  and  C_20 
REMARK    2  A    between atoms: O_5  and  C_11 
REMARK    3  A    between atoms: C_10  and  C_11 
REMARK    4  A    between atoms: O_14  and  C_18 
ROOT
HETATM    1  C   UNL     1     -36.712   0.356  13.232  1.00  0.00     0.031 A 
HETATM    2  C   UNL     1     -37.368  -1.169  10.769  1.00  0.00     0.088 A 
HETATM    3  C   UNL     1     -35.835  -0.294  12.432  1.00  0.00     0.004 A 
HETATM    4  C   UNL     1     -40.275   1.018  13.861  1.00  0.00     0.191 C 
HETATM    5  N   UNL     1     -38.844   1.235  14.110  1.00  0.00    -0.352 N 
ATOM      6  HN  UNL     1     -38.469   1.824  14.854  1.00  0.00     0.163 HD
HETATM    7  C   UNL     1     -38.888   0.032  12.195  1.00  0.00     0.070 A 
HETATM    8  C   UNL     1     -40.312   0.305  12.510  1.00  0.00     0.228 C 
HETATM    9  C   UNL     1     -38.076   0.539  13.205  1.00  0.00     0.056 A 
HETATM   10  C   UNL     1     -36.114  -1.021  11.307  1.00  0.00     0.017 A 
HETATM   11  N   UNL     1     -38.534  -0.670  11.129  1.00  0.00    -0.365 N 
ATOM     12  HN  UNL     1     -39.294  -0.856  10.475  1.00  0.00     0.165 HD
ENDROOT
BRANCH   4  13
HETATM   13  O   UNL     1     -40.946   2.249  13.799  1.00  0.00    -0.366 OA
ATOM     14  HO  UNL     1     -40.638   2.799  14.510  1.00  0.00     0.212 HD
ENDBRANCH   4  13
BRANCH   4  15
HETATM   15  C   UNL     1     -40.920   0.171  14.938  1.00  0.00     0.198 C 
HETATM   16  O   UNL     1     -42.341   0.393  14.915  1.00  0.00    -0.308 OA
HETATM   17  C   UNL     1     -42.842   0.204  16.223  1.00  0.00     0.294 C 
HETATM   18  C   UNL     1     -41.719   0.288  17.220  1.00  0.00     0.151 C 
HETATM   19  O   UNL     1     -43.981  -0.158  16.510  1.00  0.00    -0.262 OA
HETATM   20  C   UNL     1     -41.624   1.610  17.929  1.00  0.00     0.049 C 
HETATM   21  C   UNL     1     -40.479   0.154  16.364  1.00  0.00     0.065 C 
HETATM   22  C   UNL     1     -40.199   2.078  17.817  1.00  0.00     0.004 C 
HETATM   23  C   UNL     1     -39.484   1.185  16.833  1.00  0.00     0.011 C 
BRANCH  18  24
HETATM   24  O   UNL     1     -41.705  -0.767  18.171  1.00  0.00    -0.379 OA
ATOM     25  HO  UNL     1     -41.061  -1.418  17.918  1.00  0.00     0.211 HD
ENDBRANCH  18  24
ENDBRANCH   4  15
BRANCH   8  26
HETATM   26  O   UNL     1     -41.068   0.913  11.485  1.00  0.00    -0.384 OA
ATOM     27  HO  UNL     1     -40.648   1.610  10.994  1.00  0.00     0.210 HD
ENDBRANCH   8  26
TORSDOF 4
ENDMDL
MODEL 3
REMARK VINA RESULT:      -6.3      1.595      2.188
REMARK  4 active torsions:
REMARK  status: ('A' for Active; 'I' for Inactive)
REMARK    1  A    between atoms: O_3  and  C_20 
REMARK    2  A    between atoms: O_5  and  C_11 
REMARK    3  A    between atoms: C_10  and  C_11 
REMARK    4  A    between atoms: O_14  and  C_18 
ROOT
HETATM    1  C   UNL     1     -37.022   2.324  17.016  1.00  0.00     0.031 A 
HETATM    2  C   UNL     1     -35.915   4.733  15.677  1.00  0.00     0.088 A 
HETATM    3  C   UNL     1     -36.152   3.212  17.550  1.00  0.00     0.004 A 
HETATM    4  C   UNL     1     -38.812   1.352  13.954  1.00  0.00     0.191 C 
HETATM    5  N   UNL     1     -38.527   1.237  15.390  1.00  0.00    -0.352 N 
ATOM      6  HN  UNL     1     -38.923   0.525  16.003  1.00  0.00     0.163 HD
HETATM    7  C   UNL     1     -37.492   3.154  14.778  1.00  0.00     0.070 A 
HETATM    8  C   UNL     1     -38.213   2.703  13.563  1.00  0.00     0.228 C 
HETATM    9  C   UNL     1     -37.653   2.220  15.797  1.00  0.00     0.056 A 
HETATM   10  C   UNL     1     -35.610   4.314  16.948  1.00  0.00     0.017 A 
HETATM   11  N   UNL     1     -36.760   4.257  14.783  1.00  0.00    -0.365 N 
ATOM     12  HN  UNL     1     -36.868   4.839  13.952  1.00  0.00     0.165 HD
ENDROOT
BRANCH   4  13
HETATM   13  O   UNL     1     -40.199   1.335  13.735  1.00  0.00    -0.366 OA
ATOM     14  HO  UNL     1     -40.386   0.734  13.024  1.00  0.00     0.212 HD
ENDBRANCH   4  13
BRANCH   4  15
HETATM   15  C   UNL     1     -38.184   0.229  13.154  1.00  0.00     0.198 C 
HETATM   16  O   UNL     1     -36.756   0.397  13.159  1.00  0.00    -0.308 OA
HETATM   17  C   UNL     1     -36.240  -0.146  11.961  1.00  0.00     0.294 C 
HETATM   18  C   UNL     1     -37.340  -0.285  10.945  1.00  0.00     0.151 C 
HETATM   19  O   UNL     1     -35.112  -0.612  11.811  1.00  0.00    -0.262 OA
HETATM   20  C   UNL     1     -37.366   0.808   9.913  1.00  0.00     0.049 C 
HETATM   21  C   UNL     1     -38.600  -0.144  11.770  1.00  0.00     0.065 C 
HETATM   22  C   UNL     1     -38.770   1.341   9.857  1.00  0.00     0.004 C 
HETATM   23  C   UNL     1     -39.541   0.763  11.020  1.00  0.00     0.011 C 
BRANCH  18  24
HETATM   24  O   UNL     1     -37.382  -1.552  10.302  1.00  0.00    -0.379 OA
ATOM     25  HO  UNL     1     -38.223  -1.666   9.876  1.00  0.00     0.211 HD
ENDBRANCH  18  24
ENDBRANCH   4  15
BRANCH   8  26
HETATM   26  O   UNL     1     -39.083   3.644  12.973  1.00  0.00    -0.384 OA
ATOM     27  HO  UNL     1     -39.911   3.799  13.411  1.00  0.00     0.210 HD
ENDBRANCH   8  26
TORSDOF 4
ENDMDL
MODEL 4
REMARK VINA RESULT:      -6.1      3.583      6.495
REMARK  4 active torsions:
REMARK  status: ('A' for Active; 'I' for Inactive)
REMARK    1  A    between atoms: O_3  and  C_20 
REMARK    2  A    between atoms: O_5  and  C_11 
REMARK    3  A    between atoms: C_10  and  C_11 
REMARK    4  A    between atoms: O_14  and  C_18 
ROOT
HETATM    1  C   UNL     1     -37.055   0.354  13.384  1.00  0.00     0.031 A 
HETATM    2  C   UNL     1     -37.097  -0.737  10.622  1.00  0.00     0.088 A 
HETATM    3  C   UNL     1     -36.036  -0.273  12.751  1.00  0.00     0.004 A 
HETATM    4  C   UNL     1     -40.597   1.312  13.141  1.00  0.00     0.191 C 
HETATM    5  N   UNL     1     -39.282   1.335  13.793  1.00  0.00    -0.352 N 
ATOM      6  HN  UNL     1     -39.091   1.771  14.695  1.00  0.00     0.163 HD
HETATM    7  C   UNL     1     -38.871   0.417  11.766  1.00  0.00     0.070 A 
HETATM    8  C   UNL     1     -40.303   0.800  11.731  1.00  0.00     0.228 C 
HETATM    9  C   UNL     1     -38.341   0.688  13.025  1.00  0.00     0.056 A 
HETATM   10  C   UNL     1     -36.037  -0.803  11.491  1.00  0.00     0.017 A 
HETATM   11  N   UNL     1     -38.281  -0.166  10.734  1.00  0.00    -0.365 N 
ATOM     12  HN  UNL     1     -38.838  -0.176   9.880  1.00  0.00     0.165 HD
ENDROOT
BRANCH   4  13
HETATM   13  O   UNL     1     -41.138   2.608  13.102  1.00  0.00    -0.366 OA
ATOM     14  HO  UNL     1     -40.981   3.027  13.940  1.00  0.00     0.212 HD
ENDBRANCH   4  13
BRANCH   4  15
HETATM   15  C   UNL     1     -41.575   0.402  13.855  1.00  0.00     0.198 C 
HETATM   16  O   UNL     1     -42.707   0.171  12.998  1.00  0.00    -0.308 OA
HETATM   17  C   UNL     1     -43.841  -0.051  13.810  1.00  0.00     0.294 C 
HETATM   18  C   UNL     1     -43.585   0.460  15.200  1.00  0.00     0.151 C 
HETATM   19  O   UNL     1     -44.824  -0.722  13.501  1.00  0.00    -0.262 OA
HETATM   20  C   UNL     1     -44.200   1.802  15.485  1.00  0.00     0.049 C 
HETATM   21  C   UNL     1     -42.084   0.644  15.236  1.00  0.00     0.065 C 
HETATM   22  C   UNL     1     -43.123   2.677  16.064  1.00  0.00     0.004 C 
HETATM   23  C   UNL     1     -41.800   1.968  15.899  1.00  0.00     0.011 C 
BRANCH  18  24
HETATM   24  O   UNL     1     -43.935  -0.454  16.230  1.00  0.00    -0.379 OA
ATOM     25  HO  UNL     1     -43.762  -0.063  17.078  1.00  0.00     0.211 HD
ENDBRANCH  18  24
ENDBRANCH   4  15
BRANCH   8  26
HETATM   26  O   UNL     1     -40.698   1.623  10.654  1.00  0.00    -0.384 OA
ATOM     27  HO  UNL     1     -40.007   2.007  10.128  1.00  0.00     0.210 HD
ENDBRANCH   8  26
TORSDOF 4
ENDMDL
MODEL 5
REMARK VINA RESULT:      -6.1      2.398      6.498
REMARK  4 active torsions:
REMARK  status: ('A' for Active; 'I' for Inactive)
REMARK    1  A    between atoms: O_3  and  C_20 
REMARK    2  A    between atoms: O_5  and  C_11 
REMARK    3  A    between atoms: C_10  and  C_11 
REMARK    4  A    between atoms: O_14  and  C_18 
ROOT
HETATM    1  C   UNL     1     -36.189  -0.162  12.761  1.00  0.00     0.031 A 
HETATM    2  C   UNL     1     -38.420  -0.696  10.875  1.00  0.00     0.088 A 
HETATM    3  C   UNL     1     -36.176  -1.036  11.727  1.00  0.00     0.004 A 
HETATM    4  C   UNL     1     -38.282   2.158  14.700  1.00  0.00     0.191 C 
HETATM    5  N   UNL     1     -36.993   1.549  14.346  1.00  0.00    -0.352 N 
ATOM      6  HN  UNL     1     -36.116   1.725  14.836  1.00  0.00     0.163 HD
HETATM    7  C   UNL     1     -38.388   0.875  12.697  1.00  0.00     0.070 A 
HETATM    8  C   UNL     1     -39.196   1.799  13.529  1.00  0.00     0.228 C 
HETATM    9  C   UNL     1     -37.127   0.710  13.263  1.00  0.00     0.056 A 
HETATM   10  C   UNL     1     -37.197  -1.317  10.860  1.00  0.00     0.017 A 
HETATM   11  N   UNL     1     -38.895   0.275  11.631  1.00  0.00    -0.365 N 
ATOM     12  HN  UNL     1     -39.811   0.623  11.346  1.00  0.00     0.165 HD
ENDROOT
BRANCH   4  13
HETATM   13  O   UNL     1     -38.141   3.550  14.821  1.00  0.00    -0.366 OA
ATOM     14  HO  UNL     1     -37.520   3.849  14.167  1.00  0.00     0.212 HD
ENDBRANCH   4  13
BRANCH   4  15
HETATM   15  C   UNL     1     -38.832   1.615  16.003  1.00  0.00     0.198 C 
HETATM   16  O   UNL     1     -40.102   2.236  16.266  1.00  0.00    -0.308 OA
HETATM   17  C   UNL     1     -40.286   2.295  17.666  1.00  0.00     0.294 C 
HETATM   18  C   UNL     1     -38.966   2.123  18.365  1.00  0.00     0.151 C 
HETATM   19  O   UNL     1     -41.369   2.301  18.248  1.00  0.00    -0.262 OA
HETATM   20  C   UNL     1     -38.349   3.409  18.841  1.00  0.00     0.049 C 
HETATM   21  C   UNL     1     -38.064   1.574  17.281  1.00  0.00     0.065 C 
HETATM   22  C   UNL     1     -36.929   3.436  18.350  1.00  0.00     0.004 C 
HETATM   23  C   UNL     1     -36.748   2.304  17.366  1.00  0.00     0.011 C 
BRANCH  18  24
HETATM   24  O   UNL     1     -38.989   1.181  19.428  1.00  0.00    -0.379 OA
ATOM     25  HO  UNL     1     -38.101   0.929  19.652  1.00  0.00     0.211 HD
ENDBRANCH  18  24
ENDBRANCH   4  15
BRANCH   8  26
HETATM   26  O   UNL     1     -39.813   2.870  12.846  1.00  0.00    -0.384 OA
ATOM     27  HO  UNL     1     -39.589   2.984  11.930  1.00  0.00     0.210 HD
ENDBRANCH   8  26
TORSDOF 4
ENDMDL
MODEL 6
REMARK VINA RESULT:      -5.8      3.509      6.223
REMARK  4 active torsions:
REMARK  status: ('A' for Active; 'I' for Inactive)
REMARK    1  A    between atoms: O_3  and  C_20 
REMARK    2  A    between atoms: O_5  and  C_11 
REMARK    3  A    between atoms: C_10  and  C_11 
REMARK    4  A    between atoms: O_14  and  C_18 
ROOT
HETATM    1  C   UNL     1     -42.454   4.188  10.000  1.00  0.00     0.031 A 
HETATM    2  C   UNL     1     -44.732   2.302   9.725  1.00  0.00     0.088 A 
HETATM    3  C   UNL     1     -43.592   4.399   9.297  1.00  0.00     0.004 A 
HETATM    4  C   UNL     1     -40.550   1.723  11.955  1.00  0.00     0.191 C 
HETATM    5  N   UNL     1     -40.781   3.075  11.432  1.00  0.00    -0.352 N 
ATOM      6  HN  UNL     1     -40.135   3.857  11.545  1.00  0.00     0.163 HD
HETATM    7  C   UNL     1     -42.715   1.984  10.996  1.00  0.00     0.070 A 
HETATM    8  C   UNL     1     -41.894   1.018  11.766  1.00  0.00     0.228 C 
HETATM    9  C   UNL     1     -41.985   3.147  10.768  1.00  0.00     0.056 A 
HETATM   10  C   UNL     1     -44.643   3.539   9.136  1.00  0.00     0.017 A 
HETATM   11  N   UNL     1     -43.925   1.675  10.559  1.00  0.00    -0.365 N 
ATOM     12  HN  UNL     1     -44.298   0.801  10.930  1.00  0.00     0.165 HD
ENDROOT
BRANCH   4  13
HETATM   13  O   UNL     1     -40.202   1.784  13.314  1.00  0.00    -0.366 OA
ATOM     14  HO  UNL     1     -39.256   1.833  13.382  1.00  0.00     0.212 HD
ENDBRANCH   4  13
BRANCH   4  15
HETATM   15  C   UNL     1     -39.450   1.000  11.207  1.00  0.00     0.198 C 
HETATM   16  O   UNL     1     -39.609  -0.417  11.400  1.00  0.00    -0.308 OA
HETATM   17  C   UNL     1     -38.333  -1.020  11.332  1.00  0.00     0.294 C 
HETATM   18  C   UNL     1     -37.263   0.016  11.534  1.00  0.00     0.151 C 
HETATM   19  O   UNL     1     -38.104  -2.176  10.980  1.00  0.00    -0.262 OA
HETATM   20  C   UNL     1     -36.684   0.040  12.922  1.00  0.00     0.049 C 
HETATM   21  C   UNL     1     -37.999   1.323  11.340  1.00  0.00     0.065 C 
HETATM   22  C   UNL     1     -36.727   1.464  13.403  1.00  0.00     0.004 C 
HETATM   23  C   UNL     1     -37.557   2.266  12.429  1.00  0.00     0.011 C 
BRANCH  18  24
HETATM   24  O   UNL     1     -36.213  -0.037  10.579  1.00  0.00    -0.379 OA
ATOM     25  HO  UNL     1     -35.546   0.603  10.799  1.00  0.00     0.211 HD
ENDBRANCH  18  24
ENDBRANCH   4  15
BRANCH   8  26
HETATM   26  O   UNL     1     -42.498   0.470  12.918  1.00  0.00    -0.384 OA
ATOM     27  HO  UNL     1     -43.173  -0.184  12.781  1.00  0.00     0.210 HD
ENDBRANCH   8  26
TORSDOF 4
ENDMDL
MODEL 7
REMARK VINA RESULT:      -5.8      1.691      2.200
REMARK  4 active torsions:
REMARK  status: ('A' for Active; 'I' for Inactive)
REMARK    1  A    between atoms: O_3  and  C_20 
REMARK    2  A    between atoms: O_5  and  C_11 
REMARK    3  A    between atoms: C_10  and  C_11 
REMARK    4  A    between atoms: O_14  and  C_18 
ROOT
HETATM    1  C   UNL     1     -42.233   1.060  14.925  1.00  0.00     0.031 A 
HETATM    2  C   UNL     1     -40.975   0.778  17.601  1.00  0.00     0.088 A 
HETATM    3  C   UNL     1     -42.872   0.817  16.093  1.00  0.00     0.004 A 
HETATM    4  C   UNL     1     -38.938   1.422  13.331  1.00  0.00     0.191 C 
HETATM    5  N   UNL     1     -40.405   1.492  13.324  1.00  0.00    -0.352 N 
ATOM      6  HN  UNL     1     -40.971   1.690  12.499  1.00  0.00     0.163 HD
HETATM    7  C   UNL     1     -39.879   1.250  15.512  1.00  0.00     0.070 A 
HETATM    8  C   UNL     1     -38.576   1.375  14.815  1.00  0.00     0.228 C 
HETATM    9  C   UNL     1     -40.914   1.253  14.581  1.00  0.00     0.056 A 
HETATM   10  C   UNL     1     -42.315   0.659  17.332  1.00  0.00     0.017 A 
HETATM   11  N   UNL     1     -39.954   1.082  16.823  1.00  0.00    -0.365 N 
ATOM     12  HN  UNL     1     -39.070   1.211  17.316  1.00  0.00     0.165 HD
ENDROOT
BRANCH   4  13
HETATM   13  O   UNL     1     -38.399   2.565  12.718  1.00  0.00    -0.366 OA
ATOM     14  HO  UNL     1     -38.797   2.666  11.862  1.00  0.00     0.212 HD
ENDBRANCH   4  13
BRANCH   4  15
HETATM   15  C   UNL     1     -38.420   0.197  12.607  1.00  0.00     0.198 C 
HETATM   16  O   UNL     1     -36.996   0.113  12.795  1.00  0.00    -0.308 OA
HETATM   17  C   UNL     1     -36.437  -0.528  11.667  1.00  0.00     0.294 C 
HETATM   18  C   UNL     1     -37.406  -0.486  10.519  1.00  0.00     0.151 C 
HETATM   19  O   UNL     1     -35.397  -1.185  11.657  1.00  0.00    -0.262 OA
HETATM   20  C   UNL     1     -37.110   0.581   9.501  1.00  0.00     0.049 C 
HETATM   21  C   UNL     1     -38.717  -0.117  11.179  1.00  0.00     0.065 C 
HETATM   22  C   UNL     1     -38.382   1.350   9.273  1.00  0.00     0.004 C 
HETATM   23  C   UNL     1     -39.382   0.931  10.324  1.00  0.00     0.011 C 
BRANCH  18  24
HETATM   24  O   UNL     1     -37.588  -1.734   9.864  1.00  0.00    -0.379 OA
ATOM     25  HO  UNL     1     -36.790  -1.977   9.410  1.00  0.00     0.211 HD
ENDBRANCH  18  24
ENDBRANCH   4  15
BRANCH   8  26
HETATM   26  O   UNL     1     -37.709   2.380  15.296  1.00  0.00    -0.384 OA
ATOM     27  HO  UNL     1     -37.750   2.576  16.225  1.00  0.00     0.210 HD
ENDBRANCH   8  26
TORSDOF 4
ENDMDL
MODEL 8
REMARK VINA RESULT:      -5.7      3.306      5.872
REMARK  4 active torsions:
REMARK  status: ('A' for Active; 'I' for Inactive)
REMARK    1  A    between atoms: O_3  and  C_20 
REMARK    2  A    between atoms: O_5  and  C_11 
REMARK    3  A    between atoms: C_10  and  C_11 
REMARK    4  A    between atoms: O_14  and  C_18 
ROOT
HETATM    1  C   UNL     1     -36.463   0.803  12.953  1.00  0.00     0.031 A 
HETATM    2  C   UNL     1     -37.453  -1.245  11.044  1.00  0.00     0.088 A 
HETATM    3  C   UNL     1     -35.770  -0.261  12.485  1.00  0.00     0.004 A 
HETATM    4  C   UNL     1     -39.749   2.456  12.999  1.00  0.00     0.191 C 
HETATM    5  N   UNL     1     -38.313   2.399  13.302  1.00  0.00    -0.352 N 
ATOM      6  HN  UNL     1     -37.811   3.094  13.855  1.00  0.00     0.163 HD
HETATM    7  C   UNL     1     -38.637   0.680  11.867  1.00  0.00     0.070 A 
HETATM    8  C   UNL     1     -39.948   1.369  11.943  1.00  0.00     0.228 C 
HETATM    9  C   UNL     1     -37.735   1.284  12.739  1.00  0.00     0.056 A 
HETATM   10  C   UNL     1     -36.210  -1.229  11.625  1.00  0.00     0.017 A 
HETATM   11  N   UNL     1     -38.459  -0.396  11.115  1.00  0.00    -0.365 N 
ATOM     12  HN  UNL     1     -39.233  -0.602  10.483  1.00  0.00     0.165 HD
ENDROOT
BRANCH   4  13
HETATM   13  O   UNL     1     -40.084   3.720  12.488  1.00  0.00    -0.366 OA
ATOM     14  HO  UNL     1     -39.303   4.261  12.481  1.00  0.00     0.212 HD
ENDBRANCH   4  13
BRANCH   4  15
HETATM   15  C   UNL     1     -40.602   2.187  14.221  1.00  0.00     0.198 C 
HETATM   16  O   UNL     1     -40.236   0.910  14.772  1.00  0.00    -0.308 OA
HETATM   17  C   UNL     1     -41.371   0.358  15.405  1.00  0.00     0.294 C 
HETATM   18  C   UNL     1     -42.617   1.040  14.913  1.00  0.00     0.151 C 
HETATM   19  O   UNL     1     -41.354  -0.430  16.350  1.00  0.00    -0.262 OA
HETATM   20  C   UNL     1     -43.373   0.262  13.872  1.00  0.00     0.049 C 
HETATM   21  C   UNL     1     -42.091   2.287  14.237  1.00  0.00     0.065 C 
HETATM   22  C   UNL     1     -43.635   1.191  12.718  1.00  0.00     0.004 C 
HETATM   23  C   UNL     1     -42.827   2.448  12.932  1.00  0.00     0.011 C 
BRANCH  18  24
HETATM   24  O   UNL     1     -43.505   1.447  15.944  1.00  0.00    -0.379 OA
ATOM     25  HO  UNL     1     -44.224   0.830  16.010  1.00  0.00     0.211 HD
ENDBRANCH  18  24
ENDBRANCH   4  15
BRANCH   8  26
HETATM   26  O   UNL     1     -40.511   1.766  10.711  1.00  0.00    -0.384 OA
ATOM     27  HO  UNL     1     -41.418   1.530  10.555  1.00  0.00     0.210 HD
ENDBRANCH   8  26
TORSDOF 4
ENDMDL
MODEL 9
REMARK VINA RESULT:      -5.6      3.699      6.065
REMARK  4 active torsions:
REMARK  status: ('A' for Active; 'I' for Inactive)
REMARK    1  A    between atoms: O_3  and  C_20 
REMARK    2  A    between atoms: O_5  and  C_11 
REMARK    3  A    between atoms: C_10  and  C_11 
REMARK    4  A    between atoms: O_14  and  C_18 
ROOT
HETATM    1  C   UNL     1     -38.251  -0.852  10.919  1.00  0.00     0.031 A 
HETATM    2  C   UNL     1     -36.159   0.089  12.806  1.00  0.00     0.088 A 
HETATM    3  C   UNL     1     -36.974  -1.295  10.990  1.00  0.00     0.004 A 
HETATM    4  C   UNL     1     -40.642   1.624  12.216  1.00  0.00     0.191 C 
HETATM    5  N   UNL     1     -40.294   0.436  11.425  1.00  0.00    -0.352 N 
ATOM      6  HN  UNL     1     -40.941  -0.062  10.814  1.00  0.00     0.163 HD
HETATM    7  C   UNL     1     -38.448   0.820  12.675  1.00  0.00     0.070 A 
HETATM    8  C   UNL     1     -39.442   1.816  13.143  1.00  0.00     0.228 C 
HETATM    9  C   UNL     1     -38.977   0.085  11.618  1.00  0.00     0.056 A 
HETATM   10  C   UNL     1     -35.987  -0.862  11.833  1.00  0.00     0.017 A 
HETATM   11  N   UNL     1     -37.229   0.760  13.189  1.00  0.00    -0.365 N 
ATOM     12  HN  UNL     1     -37.094   1.330  14.024  1.00  0.00     0.165 HD
ENDROOT
BRANCH   4  13
HETATM   13  O   UNL     1     -41.813   1.386  12.952  1.00  0.00    -0.366 OA
ATOM     14  HO  UNL     1     -41.592   0.862  13.713  1.00  0.00     0.212 HD
ENDBRANCH   4  13
BRANCH   4  15
HETATM   15  C   UNL     1     -40.857   2.846  11.348  1.00  0.00     0.198 C 
HETATM   16  O   UNL     1     -40.742   4.024  12.166  1.00  0.00    -0.308 OA
HETATM   17  C   UNL     1     -41.560   5.032  11.610  1.00  0.00     0.294 C 
HETATM   18  C   UNL     1     -42.569   4.420  10.679  1.00  0.00     0.151 C 
HETATM   19  O   UNL     1     -41.377   6.244  11.714  1.00  0.00    -0.262 OA
HETATM   20  C   UNL     1     -43.940   4.260  11.276  1.00  0.00     0.049 C 
HETATM   21  C   UNL     1     -42.026   3.028  10.439  1.00  0.00     0.065 C 
HETATM   22  C   UNL     1     -44.372   2.840  11.037  1.00  0.00     0.004 C 
HETATM   23  C   UNL     1     -43.180   2.063  10.529  1.00  0.00     0.011 C 
BRANCH  18  24
HETATM   24  O   UNL     1     -42.669   5.070   9.419  1.00  0.00    -0.379 OA
ATOM     25  HO  UNL     1     -43.574   5.303   9.249  1.00  0.00     0.211 HD
ENDBRANCH  18  24
ENDBRANCH   4  15
BRANCH   8  26
HETATM   26  O   UNL     1     -39.699   1.831  14.530  1.00  0.00    -0.384 OA
ATOM     27  HO  UNL     1     -40.361   1.230  14.853  1.00  0.00     0.210 HD
ENDBRANCH   8  26
TORSDOF 4
ENDMDL
