MODEL 1
REMARK VINA RESULT:      -7.2      0.000      0.000
REMARK  0 active torsions:
REMARK  status: ('A' for Active; 'I' for Inactive)
ROOT
HETATM    1  C   UNL     1      -5.285  22.332 -32.575  1.00  0.00     0.001 C 
HETATM    2  C   UNL     1      -5.026  23.122 -34.884  1.00  0.00    -0.036 C 
HETATM    3  C   UNL     1      -5.044  23.355 -33.493  1.00  0.00     0.009 C 
HETATM    4  C   UNL     1      -5.366  21.800 -35.334  1.00  0.00    -0.002 C 
HETATM    5  C   UNL     1      -3.897  22.648 -41.834  1.00  0.00     0.039 C 
HETATM    6  N   UNL     1      -6.676  20.890 -37.146  1.00  0.00    -0.398 N 
ATOM      7  HN1 UNL     1      -6.812  20.653 -38.128  1.00  0.00     0.156 HD
ATOM      8  HN2 UNL     1      -7.331  20.597 -36.421  1.00  0.00     0.156 HD
HETATM    9  C   UNL     1      -4.935  26.594 -36.459  1.00  0.00    -0.013 C 
HETATM   10  C   UNL     1      -5.538  20.768 -34.396  1.00  0.00     0.014 C 
HETATM   11  C   UNL     1      -5.144  25.722 -37.720  1.00  0.00     0.015 C 
HETATM   12  C   UNL     1      -3.442  20.366 -41.053  1.00  0.00     0.039 C 
HETATM   13  C   UNL     1      -4.666  24.311 -35.792  1.00  0.00    -0.004 C 
HETATM   14  C   UNL     1      -3.442  26.987 -36.399  1.00  0.00     0.005 C 
HETATM   15  C   UNL     1      -5.558  21.038 -33.030  1.00  0.00     0.001 C 
HETATM   16  C   UNL     1      -3.817  20.966 -38.525  1.00  0.00     0.022 C 
HETATM   17  C   UNL     1      -5.271  24.266 -37.228  1.00  0.00     0.033 C 
HETATM   18  C   UNL     1      -3.609  21.286 -39.874  1.00  0.00    -0.051 C 
HETATM   19  C   UNL     1      -2.532  25.764 -36.364  1.00  0.00     0.001 C 
HETATM   20  C   UNL     1      -5.189  25.658 -35.252  1.00  0.00     0.019 C 
HETATM   21  C   UNL     1      -4.621  21.876 -37.806  1.00  0.00    -0.002 C 
HETATM   22  C   UNL     1      -3.122  24.441 -35.854  1.00  0.00     0.015 C 
HETATM   23  C   UNL     1      -3.839  22.580 -40.334  1.00  0.00    -0.051 C 
HETATM   24  C   UNL     1      -4.200  23.597 -39.449  1.00  0.00     0.016 C 
HETATM   25  C   UNL     1      -5.564  21.453 -36.764  1.00  0.00     0.047 C 
HETATM   26  C   UNL     1      -3.818  21.189 -42.294  1.00  0.00     0.009 C 
HETATM   27  C   UNL     1      -4.622  23.248 -38.157  1.00  0.00    -0.040 C 
ENDROOT
TORSDOF 0
ENDMDL
MODEL 2
REMARK VINA RESULT:      -7.1      3.766      6.689
REMARK  0 active torsions:
REMARK  status: ('A' for Active; 'I' for Inactive)
ROOT
HETATM    1  C   UNL     1      -1.418  17.561 -29.725  1.00  0.00     0.001 C 
HETATM    2  C   UNL     1      -2.546  19.660 -30.316  1.00  0.00    -0.036 C 
HETATM    3  C   UNL     1      -1.829  18.856 -29.405  1.00  0.00     0.009 C 
HETATM    4  C   UNL     1      -2.928  19.058 -31.565  1.00  0.00    -0.002 C 
HETATM    5  C   UNL     1      -5.334  24.581 -34.537  1.00  0.00     0.039 C 
HETATM    6  N   UNL     1      -4.902  19.094 -32.952  1.00  0.00    -0.398 N 
ATOM      7  HN1 UNL     1      -5.523  19.546 -33.623  1.00  0.00     0.156 HD
ATOM      8  HN2 UNL     1      -5.021  18.120 -32.674  1.00  0.00     0.156 HD
HETATM    9  C   UNL     1      -3.709  22.662 -28.274  1.00  0.00    -0.013 C 
HETATM   10  C   UNL     1      -2.447  17.780 -31.898  1.00  0.00     0.014 C 
HETATM   11  C   UNL     1      -4.473  22.912 -29.597  1.00  0.00     0.015 C 
HETATM   12  C   UNL     1      -4.279  23.036 -36.127  1.00  0.00     0.039 C 
HETATM   13  C   UNL     1      -2.872  21.099 -29.881  1.00  0.00    -0.004 C 
HETATM   14  C   UNL     1      -2.478  23.595 -28.256  1.00  0.00     0.005 C 
HETATM   15  C   UNL     1      -1.750  17.012 -30.968  1.00  0.00     0.001 C 
HETATM   16  C   UNL     1      -3.282  21.500 -34.245  1.00  0.00     0.022 C 
HETATM   17  C   UNL     1      -4.151  21.720 -30.519  1.00  0.00     0.033 C 
HETATM   18  C   UNL     1      -3.878  22.676 -34.721  1.00  0.00    -0.051 C 
HETATM   19  C   UNL     1      -1.567  23.360 -29.455  1.00  0.00     0.001 C 
HETATM   20  C   UNL     1      -3.161  21.217 -28.370  1.00  0.00     0.019 C 
HETATM   21  C   UNL     1      -3.661  21.116 -32.941  1.00  0.00    -0.002 C 
HETATM   22  C   UNL     1      -1.635  21.994 -30.154  1.00  0.00     0.015 C 
HETATM   23  C   UNL     1      -4.463  23.578 -33.835  1.00  0.00    -0.051 C 
HETATM   24  C   UNL     1      -4.393  23.368 -32.456  1.00  0.00     0.016 C 
HETATM   25  C   UNL     1      -3.831  19.715 -32.542  1.00  0.00     0.047 C 
HETATM   26  C   UNL     1      -5.357  24.122 -35.998  1.00  0.00     0.009 C 
HETATM   27  C   UNL     1      -4.003  22.105 -31.986  1.00  0.00    -0.040 C 
ENDROOT
TORSDOF 0
ENDMDL
MODEL 3
REMARK VINA RESULT:      -6.4      5.418      8.768
REMARK  0 active torsions:
REMARK  status: ('A' for Active; 'I' for Inactive)
ROOT
HETATM    1  C   UNL     1       0.272  23.927 -27.022  1.00  0.00     0.001 C 
HETATM    2  C   UNL     1      -0.791  22.243 -28.457  1.00  0.00    -0.036 C 
HETATM    3  C   UNL     1      -0.276  22.658 -27.211  1.00  0.00     0.009 C 
HETATM    4  C   UNL     1      -0.639  23.147 -29.564  1.00  0.00    -0.002 C 
HETATM    5  C   UNL     1      -4.328  19.740 -34.027  1.00  0.00     0.039 C 
HETATM    6  N   UNL     1      -0.066  22.918 -31.898  1.00  0.00    -0.398 N 
ATOM      7  HN1 UNL     1      -0.291  22.665 -32.859  1.00  0.00     0.156 HD
ATOM      8  HN2 UNL     1       0.803  23.391 -31.651  1.00  0.00     0.156 HD
HETATM    9  C   UNL     1      -1.422  18.503 -28.062  1.00  0.00    -0.013 C 
HETATM   10  C   UNL     1      -0.148  24.445 -29.343  1.00  0.00     0.014 C 
HETATM   11  C   UNL     1      -1.681  18.671 -29.579  1.00  0.00     0.015 C 
HETATM   12  C   UNL     1      -4.484  22.170 -34.332  1.00  0.00     0.039 C 
HETATM   13  C   UNL     1      -1.445  20.852 -28.521  1.00  0.00    -0.004 C 
HETATM   14  C   UNL     1      -2.793  18.433 -27.355  1.00  0.00     0.005 C 
HETATM   15  C   UNL     1       0.359  24.815 -28.099  1.00  0.00     0.001 C 
HETATM   16  C   UNL     1      -3.229  22.710 -32.091  1.00  0.00     0.022 C 
HETATM   17  C   UNL     1      -1.393  20.148 -29.911  1.00  0.00     0.033 C 
HETATM   18  C   UNL     1      -3.903  21.862 -32.978  1.00  0.00    -0.051 C 
HETATM   19  C   UNL     1      -3.637  19.675 -27.622  1.00  0.00     0.001 C 
HETATM   20  C   UNL     1      -0.758  19.823 -27.600  1.00  0.00     0.019 C 
HETATM   21  C   UNL     1      -2.217  22.099 -31.320  1.00  0.00    -0.002 C 
HETATM   22  C   UNL     1      -2.909  20.967 -28.022  1.00  0.00     0.015 C 
HETATM   23  C   UNL     1      -3.847  20.480 -32.811  1.00  0.00    -0.051 C 
HETATM   24  C   UNL     1      -3.189  19.922 -31.713  1.00  0.00     0.016 C 
HETATM   25  C   UNL     1      -0.967  22.779 -30.965  1.00  0.00     0.047 C 
HETATM   26  C   UNL     1      -4.573  20.830 -35.075  1.00  0.00     0.009 C 
HETATM   27  C   UNL     1      -2.335  20.736 -30.953  1.00  0.00    -0.040 C 
ENDROOT
TORSDOF 0
ENDMDL
MODEL 4
REMARK VINA RESULT:      -5.5      5.124      8.807
REMARK  0 active torsions:
REMARK  status: ('A' for Active; 'I' for Inactive)
ROOT
HETATM    1  C   UNL     1       0.304  21.231 -27.250  1.00  0.00     0.001 C 
HETATM    2  C   UNL     1      -1.045  20.189 -29.016  1.00  0.00    -0.036 C 
HETATM    3  C   UNL     1      -0.255  20.103 -27.850  1.00  0.00     0.009 C 
HETATM    4  C   UNL     1      -1.176  21.483 -29.626  1.00  0.00    -0.002 C 
HETATM    5  C   UNL     1      -5.773  19.847 -34.244  1.00  0.00     0.039 C 
HETATM    6  N   UNL     1      -1.173  22.317 -31.891  1.00  0.00    -0.398 N 
ATOM      7  HN1 UNL     1      -1.617  22.465 -32.797  1.00  0.00     0.156 HD
ATOM      8  HN2 UNL     1      -0.277  22.741 -31.651  1.00  0.00     0.156 HD
HETATM    9  C   UNL     1      -1.510  16.580 -30.157  1.00  0.00    -0.013 C 
HETATM   10  C   UNL     1      -0.665  22.618 -28.972  1.00  0.00     0.014 C 
HETATM   11  C   UNL     1      -2.126  17.334 -31.360  1.00  0.00     0.015 C 
HETATM   12  C   UNL     1      -6.032  22.147 -33.427  1.00  0.00     0.039 C 
HETATM   13  C   UNL     1      -1.676  18.886 -29.537  1.00  0.00    -0.004 C 
HETATM   14  C   UNL     1      -2.672  16.063 -29.280  1.00  0.00     0.005 C 
HETATM   15  C   UNL     1       0.118  22.492 -27.828  1.00  0.00     0.001 C 
HETATM   16  C   UNL     1      -4.287  21.844 -31.490  1.00  0.00     0.022 C 
HETATM   17  C   UNL     1      -1.947  18.838 -31.071  1.00  0.00     0.033 C 
HETATM   18  C   UNL     1      -5.140  21.371 -32.495  1.00  0.00    -0.051 C 
HETATM   19  C   UNL     1      -3.572  17.196 -28.800  1.00  0.00     0.001 C 
HETATM   20  C   UNL     1      -0.774  17.654 -29.318  1.00  0.00     0.019 C 
HETATM   21  C   UNL     1      -3.111  21.089 -31.290  1.00  0.00    -0.002 C 
HETATM   22  C   UNL     1      -2.980  18.612 -28.743  1.00  0.00     0.015 C 
HETATM   23  C   UNL     1      -5.026  20.062 -32.958  1.00  0.00    -0.051 C 
HETATM   24  C   UNL     1      -4.117  19.177 -32.374  1.00  0.00     0.016 C 
HETATM   25  C   UNL     1      -1.823  21.699 -30.946  1.00  0.00     0.047 C 
HETATM   26  C   UNL     1      -6.276  21.238 -34.641  1.00  0.00     0.009 C 
HETATM   27  C   UNL     1      -3.119  19.693 -31.534  1.00  0.00    -0.040 C 
ENDROOT
TORSDOF 0
ENDMDL
MODEL 5
REMARK VINA RESULT:      -5.4      5.648      9.379
REMARK  0 active torsions:
REMARK  status: ('A' for Active; 'I' for Inactive)
ROOT
HETATM    1  C   UNL     1      -2.565  16.712 -29.664  1.00  0.00     0.001 C 
HETATM    2  C   UNL     1      -2.244  19.066 -30.281  1.00  0.00    -0.036 C 
HETATM    3  C   UNL     1      -2.762  17.779 -30.540  1.00  0.00     0.009 C 
HETATM    4  C   UNL     1      -1.415  19.218 -29.117  1.00  0.00    -0.002 C 
HETATM    5  C   UNL     1      -0.789  25.903 -29.317  1.00  0.00     0.039 C 
HETATM    6  N   UNL     1       0.628  20.400 -28.612  1.00  0.00    -0.398 N 
ATOM      7  HN1 UNL     1       1.148  21.252 -28.404  1.00  0.00     0.156 HD
ATOM      8  HN2 UNL     1       1.056  19.476 -28.552  1.00  0.00     0.156 HD
HETATM    9  C   UNL     1      -2.777  21.010 -33.518  1.00  0.00    -0.013 C 
HETATM   10  C   UNL     1      -1.284  18.152 -28.210  1.00  0.00     0.014 C 
HETATM   11  C   UNL     1      -1.919  22.023 -32.723  1.00  0.00     0.015 C 
HETATM   12  C   UNL     1      -0.815  25.026 -27.026  1.00  0.00     0.039 C 
HETATM   13  C   UNL     1      -2.598  20.182 -31.280  1.00  0.00    -0.004 C 
HETATM   14  C   UNL     1      -4.249  21.470 -33.434  1.00  0.00     0.005 C 
HETATM   15  C   UNL     1      -1.802  16.893 -28.506  1.00  0.00     0.001 C 
HETATM   16  C   UNL     1      -1.498  22.603 -27.772  1.00  0.00     0.022 C 
HETATM   17  C   UNL     1      -1.559  21.339 -31.389  1.00  0.00     0.033 C 
HETATM   18  C   UNL     1      -1.322  23.977 -27.980  1.00  0.00    -0.051 C 
HETATM   19  C   UNL     1      -4.734  21.569 -31.991  1.00  0.00     0.001 C 
HETATM   20  C   UNL     1      -2.690  19.677 -32.734  1.00  0.00     0.019 C 
HETATM   21  C   UNL     1      -1.274  21.788 -28.902  1.00  0.00    -0.002 C 
HETATM   22  C   UNL     1      -4.002  20.739 -30.927  1.00  0.00     0.015 C 
HETATM   23  C   UNL     1      -1.326  24.501 -29.271  1.00  0.00    -0.051 C 
HETATM   24  C   UNL     1      -1.586  23.681 -30.371  1.00  0.00     0.016 C 
HETATM   25  C   UNL     1      -0.658  20.459 -28.814  1.00  0.00     0.047 C 
HETATM   26  C   UNL     1      -0.293  26.179 -27.895  1.00  0.00     0.009 C 
HETATM   27  C   UNL     1      -1.543  22.289 -30.199  1.00  0.00    -0.040 C 
ENDROOT
TORSDOF 0
ENDMDL
MODEL 6
REMARK VINA RESULT:      -5.3      2.281      6.278
REMARK  0 active torsions:
REMARK  status: ('A' for Active; 'I' for Inactive)
ROOT
HETATM    1  C   UNL     1      -4.802  26.204 -37.406  1.00  0.00     0.001 C 
HETATM    2  C   UNL     1      -4.919  23.974 -36.387  1.00  0.00    -0.036 C 
HETATM    3  C   UNL     1      -5.104  24.844 -37.483  1.00  0.00     0.009 C 
HETATM    4  C   UNL     1      -4.496  24.562 -35.145  1.00  0.00    -0.002 C 
HETATM    5  C   UNL     1      -3.471  18.859 -31.746  1.00  0.00     0.039 C 
HETATM    6  N   UNL     1      -5.068  24.252 -32.821  1.00  0.00    -0.398 N 
ATOM      7  HN1 UNL     1      -5.025  23.734 -31.944  1.00  0.00     0.156 HD
ATOM      8  HN2 UNL     1      -5.495  25.177 -32.884  1.00  0.00     0.156 HD
HETATM    9  C   UNL     1      -6.615  20.719 -37.421  1.00  0.00    -0.013 C 
HETATM   10  C   UNL     1      -4.131  25.918 -35.105  1.00  0.00     0.014 C 
HETATM   11  C   UNL     1      -6.290  20.406 -35.940  1.00  0.00     0.015 C 
HETATM   12  C   UNL     1      -1.911  20.638 -31.097  1.00  0.00     0.039 C 
HETATM   13  C   UNL     1      -5.208  22.480 -36.617  1.00  0.00    -0.004 C 
HETATM   14  C   UNL     1      -5.556  20.013 -38.296  1.00  0.00     0.005 C 
HETATM   15  C   UNL     1      -4.337  26.748 -36.205  1.00  0.00     0.001 C 
HETATM   16  C   UNL     1      -2.632  22.229 -33.057  1.00  0.00     0.022 C 
HETATM   17  C   UNL     1      -5.649  21.679 -35.355  1.00  0.00     0.033 C 
HETATM   18  C   UNL     1      -2.577  20.994 -32.399  1.00  0.00    -0.051 C 
HETATM   19  C   UNL     1      -4.140  20.461 -37.950  1.00  0.00     0.001 C 
HETATM   20  C   UNL     1      -6.380  22.240 -37.591  1.00  0.00     0.019 C 
HETATM   21  C   UNL     1      -3.819  22.477 -33.779  1.00  0.00    -0.002 C 
HETATM   22  C   UNL     1      -3.963  21.827 -37.271  1.00  0.00     0.015 C 
HETATM   23  C   UNL     1      -3.438  19.962 -32.766  1.00  0.00    -0.051 C 
HETATM   24  C   UNL     1      -4.311  20.112 -33.846  1.00  0.00     0.016 C 
HETATM   25  C   UNL     1      -4.432  23.807 -33.868  1.00  0.00     0.047 C 
HETATM   26  C   UNL     1      -2.620  19.378 -30.583  1.00  0.00     0.009 C 
HETATM   27  C   UNL     1      -4.530  21.399 -34.361  1.00  0.00    -0.040 C 
ENDROOT
TORSDOF 0
ENDMDL
MODEL 7
REMARK VINA RESULT:      -5.1      5.500      9.062
REMARK  0 active torsions:
REMARK  status: ('A' for Active; 'I' for Inactive)
ROOT
HETATM    1  C   UNL     1      -1.191  25.307 -29.015  1.00  0.00     0.001 C 
HETATM    2  C   UNL     1      -2.067  23.152 -29.797  1.00  0.00    -0.036 C 
HETATM    3  C   UNL     1      -1.725  24.502 -30.022  1.00  0.00     0.009 C 
HETATM    4  C   UNL     1      -1.935  22.656 -28.454  1.00  0.00    -0.002 C 
HETATM    5  C   UNL     1      -3.188  16.185 -29.753  1.00  0.00     0.039 C 
HETATM    6  N   UNL     1      -3.244  21.219 -27.023  1.00  0.00    -0.398 N 
ATOM      7  HN1 UNL     1      -3.578  20.300 -26.732  1.00  0.00     0.156 HD
ATOM      8  HN2 UNL     1      -3.433  22.061 -26.481  1.00  0.00     0.156 HD
HETATM    9  C   UNL     1      -3.989  22.093 -32.915  1.00  0.00    -0.013 C 
HETATM   10  C   UNL     1      -1.332  23.457 -27.470  1.00  0.00     0.014 C 
HETATM   11  C   UNL     1      -4.205  20.850 -32.019  1.00  0.00     0.015 C 
HETATM   12  C   UNL     1      -1.574  16.486 -27.929  1.00  0.00     0.039 C 
HETATM   13  C   UNL     1      -2.569  22.342 -31.005  1.00  0.00    -0.004 C 
HETATM   14  C   UNL     1      -2.880  21.753 -33.934  1.00  0.00     0.005 C 
HETATM   15  C   UNL     1      -1.016  24.790 -27.728  1.00  0.00     0.001 C 
HETATM   16  C   UNL     1      -1.319  19.066 -28.344  1.00  0.00     0.022 C 
HETATM   17  C   UNL     1      -3.530  21.161 -30.669  1.00  0.00     0.033 C 
HETATM   18  C   UNL     1      -1.722  17.772 -28.698  1.00  0.00    -0.051 C 
HETATM   19  C   UNL     1      -1.578  21.352 -33.248  1.00  0.00     0.001 C 
HETATM   20  C   UNL     1      -3.408  23.187 -31.985  1.00  0.00     0.019 C 
HETATM   21  C   UNL     1      -2.150  20.107 -28.811  1.00  0.00    -0.002 C 
HETATM   22  C   UNL     1      -1.343  21.837 -31.810  1.00  0.00     0.015 C 
HETATM   23  C   UNL     1      -2.620  17.575 -29.745  1.00  0.00    -0.051 C 
HETATM   24  C   UNL     1      -3.068  18.654 -30.510  1.00  0.00     0.016 C 
HETATM   25  C   UNL     1      -2.422  21.318 -28.030  1.00  0.00     0.047 C 
HETATM   26  C   UNL     1      -2.649  15.535 -28.476  1.00  0.00     0.009 C 
HETATM   27  C   UNL     1      -2.852  19.956 -30.032  1.00  0.00    -0.040 C 
ENDROOT
TORSDOF 0
ENDMDL
MODEL 8
REMARK VINA RESULT:      -4.9      4.215      7.803
REMARK  0 active torsions:
REMARK  status: ('A' for Active; 'I' for Inactive)
ROOT
HETATM    1  C   UNL     1      -5.063  24.037 -34.176  1.00  0.00     0.001 C 
HETATM    2  C   UNL     1      -3.824  22.725 -32.512  1.00  0.00    -0.036 C 
HETATM    3  C   UNL     1      -4.567  23.866 -32.883  1.00  0.00     0.009 C 
HETATM    4  C   UNL     1      -3.508  21.781 -33.550  1.00  0.00    -0.002 C 
HETATM    5  C   UNL     1      -0.839  17.007 -29.649  1.00  0.00     0.039 C 
HETATM    6  N   UNL     1      -1.567  20.477 -34.147  1.00  0.00    -0.398 N 
ATOM      7  HN1 UNL     1      -0.936  19.688 -34.010  1.00  0.00     0.156 HD
ATOM      8  HN2 UNL     1      -1.502  21.089 -34.959  1.00  0.00     0.156 HD
HETATM    9  C   UNL     1      -2.434  23.538 -29.056  1.00  0.00    -0.013 C 
HETATM   10  C   UNL     1      -4.073  21.934 -34.827  1.00  0.00     0.014 C 
HETATM   11  C   UNL     1      -1.687  22.215 -29.353  1.00  0.00     0.015 C 
HETATM   12  C   UNL     1      -2.022  16.086 -31.593  1.00  0.00     0.039 C 
HETATM   13  C   UNL     1      -3.402  22.608 -31.038  1.00  0.00    -0.004 C 
HETATM   14  C   UNL     1      -3.605  23.215 -28.102  1.00  0.00     0.005 C 
HETATM   15  C   UNL     1      -4.794  23.079 -35.158  1.00  0.00     0.001 C 
HETATM   16  C   UNL     1      -3.067  18.396 -32.274  1.00  0.00     0.022 C 
HETATM   17  C   UNL     1      -2.102  21.788 -30.775  1.00  0.00     0.033 C 
HETATM   18  C   UNL     1      -2.412  17.526 -31.393  1.00  0.00    -0.051 C 
HETATM   19  C   UNL     1      -4.557  22.182 -28.697  1.00  0.00     0.001 C 
HETATM   20  C   UNL     1      -3.071  23.973 -30.399  1.00  0.00     0.019 C 
HETATM   21  C   UNL     1      -2.683  19.751 -32.182  1.00  0.00    -0.002 C 
HETATM   22  C   UNL     1      -4.588  22.027 -30.225  1.00  0.00     0.015 C 
HETATM   23  C   UNL     1      -1.754  18.025 -30.271  1.00  0.00    -0.051 C 
HETATM   24  C   UNL     1      -1.804  19.385 -29.961  1.00  0.00     0.016 C 
HETATM   25  C   UNL     1      -2.589  20.632 -33.351  1.00  0.00     0.047 C 
HETATM   26  C   UNL     1      -0.877  15.812 -30.607  1.00  0.00     0.009 C 
HETATM   27  C   UNL     1      -2.259  20.283 -30.940  1.00  0.00    -0.040 C 
ENDROOT
TORSDOF 0
ENDMDL
MODEL 9
REMARK VINA RESULT:      -4.7      7.471     10.517
REMARK  0 active torsions:
REMARK  status: ('A' for Active; 'I' for Inactive)
ROOT
HETATM    1  C   UNL     1      -0.778  18.474 -27.505  1.00  0.00     0.001 C 
HETATM    2  C   UNL     1      -1.363  20.707 -28.341  1.00  0.00    -0.036 C 
HETATM    3  C   UNL     1      -1.663  19.342 -28.145  1.00  0.00     0.009 C 
HETATM    4  C   UNL     1      -0.059  21.157 -27.939  1.00  0.00    -0.002 C 
HETATM    5  C   UNL     1      -1.029  27.733 -28.913  1.00  0.00     0.039 C 
HETATM    6  N   UNL     1       1.600  22.645 -28.865  1.00  0.00    -0.398 N 
ATOM      7  HN1 UNL     1       1.958  23.577 -29.073  1.00  0.00     0.156 HD
ATOM      8  HN2 UNL     1       2.156  21.804 -29.018  1.00  0.00     0.156 HD
HETATM    9  C   UNL     1      -4.078  21.981 -30.696  1.00  0.00    -0.013 C 
HETATM   10  C   UNL     1       0.792  20.288 -27.234  1.00  0.00     0.014 C 
HETATM   11  C   UNL     1      -3.141  23.213 -30.658  1.00  0.00     0.015 C 
HETATM   12  C   UNL     1       0.476  27.269 -27.031  1.00  0.00     0.039 C 
HETATM   13  C   UNL     1      -2.453  21.582 -28.985  1.00  0.00    -0.004 C 
HETATM   14  C   UNL     1      -5.273  22.269 -29.760  1.00  0.00     0.005 C 
HETATM   15  C   UNL     1       0.465  18.944 -27.069  1.00  0.00     0.001 C 
HETATM   16  C   UNL     1      -0.011  24.690 -27.046  1.00  0.00     0.022 C 
HETATM   17  C   UNL     1      -1.936  22.819 -29.781  1.00  0.00     0.033 C 
HETATM   18  C   UNL     1      -0.271  26.018 -27.407  1.00  0.00    -0.051 C 
HETATM   19  C   UNL     1      -4.822  22.558 -28.332  1.00  0.00     0.001 C 
HETATM   20  C   UNL     1      -3.280  20.825 -30.044  1.00  0.00     0.019 C 
HETATM   21  C   UNL     1      -0.338  23.723 -28.021  1.00  0.00    -0.002 C 
HETATM   22  C   UNL     1      -3.455  22.019 -27.885  1.00  0.00     0.015 C 
HETATM   23  C   UNL     1      -1.140  26.305 -28.457  1.00  0.00    -0.051 C 
HETATM   24  C   UNL     1      -1.828  25.282 -29.112  1.00  0.00     0.016 C 
HETATM   25  C   UNL     1       0.462  22.514 -28.242  1.00  0.00     0.047 C 
HETATM   26  C   UNL     1       0.142  28.308 -28.110  1.00  0.00     0.009 C 
HETATM   27  C   UNL     1      -1.413  23.956 -28.913  1.00  0.00    -0.040 C 
ENDROOT
TORSDOF 0
ENDMDL
