REMARK  7 active torsions:
REMARK  status: ('A' for Active; 'I' for Inactive)
REMARK    1  A    between atoms: C_4  and  O_10 
REMARK    2  A    between atoms: C_6  and  O_32 
REMARK    3  A    between atoms: C_8  and  C_18 
REMARK    4  A    between atoms: C_9  and  C_12 
REMARK       I    between atoms: C_9  and  N_22 
REMARK    5  A    between atoms: C_13  and  O_27 
REMARK    6  A    between atoms: C_17  and  O_20 
REMARK    7  A    between atoms: C_19  and  C_29 
ROOT
HETATM    1  C   UNL     1      -6.639  21.441 -37.101  1.00  0.00     0.067 C 
HETATM    2  C   UNL     1      -6.392  21.883 -38.345  1.00  0.00     0.046 C 
HETATM    3  C   UNL     1      -5.768  21.156 -36.147  1.00  0.00     0.107 C 
HETATM    4  N   UNL     1      -7.766  21.629 -36.412  1.00  0.00    -0.363 N 
ATOM      5  HN  UNL     1      -8.717  21.463 -36.740  1.00  0.00     0.165 HD
HETATM    6  C   UNL     1      -6.025  22.029 -35.195  1.00  0.00     0.059 C 
HETATM    7  C   UNL     1      -7.395  22.086 -35.186  1.00  0.00     0.106 C 
ENDROOT
BRANCH   2   8
HETATM    8  C   UNL     1      -5.160  22.133 -38.929  1.00  0.00     0.002 C 
HETATM    9  C   UNL     1      -4.822  23.445 -39.249  1.00  0.00     0.017 C 
HETATM   10  C   UNL     1      -4.151  23.639 -40.443  1.00  0.00     0.040 C 
HETATM   11  C   UNL     1      -3.725  22.491 -41.107  1.00  0.00     0.101 C 
HETATM   12  C   UNL     1      -3.368  21.416 -40.310  1.00  0.00     0.133 C 
HETATM   13  C   UNL     1      -4.271  21.124 -39.309  1.00  0.00     0.112 C 
BRANCH  11  14
HETATM   14  O   UNL     1      -4.308  22.209 -42.310  1.00  0.00    -0.358 OA
ATOM     15  HO  UNL     1      -4.553  22.946 -42.857  1.00  0.00     0.217 HD
ENDBRANCH  11  14
BRANCH  12  16
HETATM   16  O   UNL     1      -2.199  20.777 -40.535  1.00  0.00    -0.356 OA
ATOM     17  HO  UNL     1      -1.954  20.040 -39.988  1.00  0.00     0.218 HD
ENDBRANCH  12  16
BRANCH  13  18
HETATM   18  O   UNL     1      -4.316  19.871 -38.819  1.00  0.00    -0.357 OA
ATOM     19  HO  UNL     1      -4.938  19.670 -38.130  1.00  0.00     0.217 HD
ENDBRANCH  13  18
ENDBRANCH   2   8
BRANCH   3  20
HETATM   20  O   UNL     1      -4.905  20.092 -36.104  1.00  0.00    -0.357 OA
ATOM     21  HO  UNL     1      -4.280  19.887 -35.419  1.00  0.00     0.217 HD
ENDBRANCH   3  20
BRANCH   6  22
HETATM   22  C   UNL     1      -5.194  23.022 -34.830  1.00  0.00     0.119 C 
HETATM   23  N   UNL     1      -3.902  22.934 -35.232  1.00  0.00    -0.350 N 
HETATM   24  C   UNL     1      -3.519  24.047 -35.844  1.00  0.00     0.108 C 
ATOM     25  HN  UNL     1      -3.304  22.121 -35.084  1.00  0.00     0.166 HD
HETATM   26  C   UNL     1      -4.373  25.132 -35.763  1.00  0.00     0.062 C 
HETATM   27  C   UNL     1      -5.093  25.256 -34.599  1.00  0.00     0.108 C 
HETATM   28  N   UNL     1      -5.606  24.103 -34.150  1.00  0.00    -0.350 N 
ATOM     29  HN  UNL     1      -6.252  24.051 -33.362  1.00  0.00     0.166 HD
BRANCH  26  30
HETATM   30  C   UNL     1      -4.527  26.083 -36.898  1.00  0.00     0.252 C 
HETATM   31  N   UNL     1      -3.858  27.224 -36.829  1.00  0.00    -0.366 N 
ATOM     32  HN2 UNL     1      -3.192  27.457 -36.093  1.00  0.00     0.159 HD
ATOM     33  HN1 UNL     1      -3.964  27.876 -37.607  1.00  0.00     0.159 HD
HETATM   34  O   UNL     1      -5.326  25.803 -37.781  1.00  0.00    -0.268 OA
ENDBRANCH  26  30
ENDBRANCH   6  22
TORSDOF 7
