REMARK  5 active torsions:
REMARK  status: ('A' for Active; 'I' for Inactive)
REMARK    1  A    between atoms: C_1  and  C_3 
REMARK    2  A    between atoms: C_1  and  C_25 
REMARK    3  A    between atoms: C_5  and  O_6 
REMARK    4  A    between atoms: O_11  and  C_14 
REMARK    5  A    between atoms: O_15  and  C_27 
ROOT
HETATM    1  C   UNL     1      -5.071  25.186 -37.054  1.00  0.00     0.221 C 
HETATM    2  C   UNL     1      -5.245  23.690 -37.117  1.00  0.00     0.077 C 
HETATM    3  C   UNL     1      -4.627  21.325 -34.334  1.00  0.00     0.044 C 
HETATM    4  C   UNL     1      -6.005  21.937 -34.002  1.00  0.00     0.091 C 
HETATM    5  O   UNL     1      -5.835  25.891 -37.691  1.00  0.00    -0.287 OA
HETATM    6  C   UNL     1      -5.427  25.783 -34.237  1.00  0.00     0.123 C 
HETATM    7  C   UNL     1      -6.252  23.061 -36.113  1.00  0.00     0.042 C 
HETATM    8  C   UNL     1      -6.199  21.511 -36.135  1.00  0.00     0.091 C 
HETATM    9  C   UNL     1      -4.762  21.020 -35.840  1.00  0.00     0.044 C 
HETATM   10  N   UNL     1      -4.360  26.367 -35.065  1.00  0.00    -0.354 N 
ATOM     11  HN  UNL     1      -3.889  27.208 -34.731  1.00  0.00     0.162 HD
HETATM   12  C   UNL     1      -6.112  23.352 -34.606  1.00  0.00     0.032 C 
HETATM   13  C   UNL     1      -5.061  24.306 -34.032  1.00  0.00     0.028 C 
HETATM   14  C   UNL     1      -6.941  21.102 -34.858  1.00  0.00     0.187 C 
HETATM   15  O   UNL     1      -2.850  25.913 -36.687  1.00  0.00    -0.264 OA
HETATM   16  C   UNL     1      -3.976  25.838 -36.251  1.00  0.00     0.287 C 
ENDROOT
BRANCH   2  17
HETATM   17  C   UNL     1      -5.686  23.364 -38.563  1.00  0.00     0.051 C 
BRANCH  17  18
HETATM   18  C   UNL     1      -4.583  22.672 -39.330  1.00  0.00    -0.057 C 
HETATM   19  C   UNL     1      -4.050  21.457 -38.882  1.00  0.00     0.007 C 
HETATM   20  C   UNL     1      -3.476  20.596 -39.811  1.00  0.00     0.001 C 
HETATM   21  C   UNL     1      -3.417  20.950 -41.150  1.00  0.00     0.000 C 
HETATM   22  C   UNL     1      -3.655  22.274 -41.504  1.00  0.00     0.001 C 
HETATM   23  C   UNL     1      -4.171  23.166 -40.566  1.00  0.00     0.007 C 
ENDBRANCH  17  18
ENDBRANCH   2  17
BRANCH   8  24
HETATM   24  O   UNL     1      -6.747  20.920 -37.301  1.00  0.00    -0.387 OA
ATOM     25  HO  UNL     1      -6.715  19.971 -37.314  1.00  0.00     0.210 HD
ENDBRANCH   8  24
BRANCH  14  26
HETATM   26  O   UNL     1      -8.304  21.484 -34.777  1.00  0.00    -0.389 OA
ATOM     27  HO  UNL     1      -8.890  20.962 -35.313  1.00  0.00     0.210 HD
ENDBRANCH  14  26
BRANCH   4  28
HETATM   28  O   UNL     1      -6.319  21.902 -32.612  1.00  0.00    -0.387 OA
ATOM     29  HO  UNL     1      -7.167  22.279 -32.408  1.00  0.00     0.210 HD
ENDBRANCH   4  28
TORSDOF 5
