MODEL 1
REMARK VINA RESULT:      -8.7      0.000      0.000
REMARK  12 active torsions:
REMARK  status: ('A' for Active; 'I' for Inactive)
REMARK    1  A    between atoms: O_3  and  C_8 
REMARK    2  A    between atoms: C_5  and  O_39 
REMARK    3  A    between atoms: C_6  and  O_9 
REMARK    4  A    between atoms: C_7  and  O_32 
REMARK    5  A    between atoms: O_11  and  C_21 
REMARK    6  A    between atoms: N_13  and  C_21 
REMARK    7  A    between atoms: O_18  and  C_24 
REMARK    8  A    between atoms: C_20  and  N_37 
REMARK    9  A    between atoms: C_21  and  O_25 
REMARK   10  A    between atoms: C_21  and  N_27 
REMARK   11  A    between atoms: C_24  and  C_34 
REMARK   12  A    between atoms: C_24  and  C_35 
REMARK       I    between atoms: C_34  and  N_37 
ROOT
HETATM    1  C   UNL     1     -37.837  21.403  -9.345  1.00  0.00     0.216 C 
ENDROOT
BRANCH   1   2
HETATM    2  O   UNL     1     -39.110  22.026  -9.416  1.00  0.00    -0.386 OA
ATOM      3  HO  UNL     1     -39.287  22.514  -8.621  1.00  0.00     0.210 HD
ENDBRANCH   1   2
BRANCH   1   4
HETATM    4  C   UNL     1     -37.072  21.884  -8.112  1.00  0.00     0.252 C 
HETATM    5  O   UNL     1     -36.785  23.064  -7.972  1.00  0.00    -0.270 OA
HETATM    6  N   UNL     1     -36.790  20.948  -7.191  1.00  0.00    -0.311 N 
ATOM      7  HN  UNL     1     -36.430  21.280  -6.297  1.00  0.00     0.170 HD
BRANCH   6   8
HETATM    8  C   UNL     1     -36.936  19.594  -7.332  1.00  0.00     0.117 C 
HETATM    9  N   UNL     1     -37.662  18.887  -6.405  1.00  0.00    -0.248 N 
HETATM   10  C   UNL     1     -37.058  17.713  -6.053  1.00  0.00     0.191 C 
HETATM   11  N   UNL     1     -36.235  17.029  -6.846  1.00  0.00    -0.362 N 
HETATM   12  C   UNL     1     -35.977  17.561  -8.055  1.00  0.00     0.092 C 
ATOM     13  HN  UNL     1     -35.819  16.146  -6.551  1.00  0.00     0.166 HD
HETATM   14  C   UNL     1     -36.300  18.874  -8.349  1.00  0.00     0.066 C 
BRANCH   9  15
HETATM   15  C   UNL     1     -39.061  19.240  -6.095  1.00  0.00     0.429 C 
BRANCH  15  16
HETATM   16  O   UNL     1     -39.070  20.093  -5.072  1.00  0.00    -0.326 OA
ATOM     17  HO  UNL     1     -39.177  20.975  -5.411  1.00  0.00     0.217 HD
ENDBRANCH  15  16
BRANCH  15  18
HETATM   18  O   UNL     1     -39.703  18.124  -5.740  1.00  0.00    -0.326 OA
ATOM     19  HO  UNL     1     -39.237  17.373  -6.088  1.00  0.00     0.217 HD
ENDBRANCH  15  18
BRANCH  15  20
HETATM   20  N   UNL     1     -39.769  19.735  -7.218  1.00  0.00    -0.000 N 
ATOM     21  HN3 UNL     1     -39.561  20.720  -7.379  1.00  0.00     0.283 HD
ATOM     22  HN2 UNL     1     -39.399  19.346  -8.086  1.00  0.00     0.283 HD
ATOM     23  HN1 UNL     1     -40.774  19.579  -7.146  1.00  0.00     0.283 HD
ENDBRANCH  15  20
ENDBRANCH   9  15
ENDBRANCH   6   8
ENDBRANCH   1   4
BRANCH   1  24
HETATM   24  C   UNL     1     -37.132  21.366 -10.710  1.00  0.00     0.055 C 
HETATM   25  C   UNL     1     -37.586  20.256 -11.662  1.00  0.00     0.154 C 
HETATM   26  C   UNL     1     -37.612  20.850 -13.070  1.00  0.00     0.160 C 
HETATM   27  O   UNL     1     -38.720  20.526 -13.969  1.00  0.00    -0.350 OA
HETATM   28  C   UNL     1     -37.559  22.308 -12.893  1.00  0.00     0.049 C 
HETATM   29  C   UNL     1     -38.396  21.103 -15.321  1.00  0.00     0.288 C 
HETATM   30  C   UNL     1     -38.521  22.636 -15.235  1.00  0.00     0.202 C 
HETATM   31  C   UNL     1     -37.950  23.255 -13.976  1.00  0.00     0.158 C 
HETATM   32  C   UNL     1     -37.202  22.658 -11.491  1.00  0.00     0.020 C 
BRANCH  25  33
HETATM   33  O   UNL     1     -36.686  19.154 -11.575  1.00  0.00    -0.392 OA
ATOM     34  HO  UNL     1     -35.790  19.419 -11.746  1.00  0.00     0.210 HD
ENDBRANCH  25  33
BRANCH  29  35
HETATM   35  O   UNL     1     -39.503  20.705 -16.141  1.00  0.00    -0.369 OA
ATOM     36  HO  UNL     1     -39.499  21.331 -16.855  1.00  0.00     0.212 HD
ENDBRANCH  29  35
BRANCH  30  37
HETATM   37  O   UNL     1     -38.116  23.383 -16.375  1.00  0.00    -0.388 OA
ATOM     38  HO  UNL     1     -37.758  24.221 -16.107  1.00  0.00     0.210 HD
ENDBRANCH  30  37
BRANCH  31  39
HETATM   39  O   UNL     1     -38.902  24.146 -13.428  1.00  0.00    -0.392 OA
ATOM     40  HO  UNL     1     -39.371  23.705 -12.729  1.00  0.00     0.210 HD
ENDBRANCH  31  39
ENDBRANCH   1  24
TORSDOF 12
ENDMDL
MODEL 2
REMARK VINA RESULT:      -8.5      2.143      3.389
REMARK  12 active torsions:
REMARK  status: ('A' for Active; 'I' for Inactive)
REMARK    1  A    between atoms: O_3  and  C_8 
REMARK    2  A    between atoms: C_5  and  O_39 
REMARK    3  A    between atoms: C_6  and  O_9 
REMARK    4  A    between atoms: C_7  and  O_32 
REMARK    5  A    between atoms: O_11  and  C_21 
REMARK    6  A    between atoms: N_13  and  C_21 
REMARK    7  A    between atoms: O_18  and  C_24 
REMARK    8  A    between atoms: C_20  and  N_37 
REMARK    9  A    between atoms: C_21  and  O_25 
REMARK   10  A    between atoms: C_21  and  N_27 
REMARK   11  A    between atoms: C_24  and  C_34 
REMARK   12  A    between atoms: C_24  and  C_35 
REMARK       I    between atoms: C_34  and  N_37 
ROOT
HETATM    1  C   UNL     1     -35.962  21.636  -9.010  1.00  0.00     0.216 C 
ENDROOT
BRANCH   1   2
HETATM    2  O   UNL     1     -35.251  22.743  -8.476  1.00  0.00    -0.386 OA
ATOM      3  HO  UNL     1     -35.490  22.885  -7.568  1.00  0.00     0.210 HD
ENDBRANCH   1   2
BRANCH   1   4
HETATM    4  C   UNL     1     -34.994  20.529  -9.428  1.00  0.00     0.252 C 
HETATM    5  O   UNL     1     -34.159  20.722 -10.301  1.00  0.00    -0.270 OA
HETATM    6  N   UNL     1     -35.091  19.374  -8.751  1.00  0.00    -0.311 N 
ATOM      7  HN  UNL     1     -34.352  18.689  -8.905  1.00  0.00     0.170 HD
BRANCH   6   8
HETATM    8  C   UNL     1     -36.083  19.021  -7.876  1.00  0.00     0.117 C 
HETATM    9  N   UNL     1     -36.428  17.700  -7.733  1.00  0.00    -0.248 N 
HETATM   10  C   UNL     1     -37.782  17.517  -7.680  1.00  0.00     0.191 C 
HETATM   11  N   UNL     1     -38.644  18.432  -7.241  1.00  0.00    -0.362 N 
HETATM   12  C   UNL     1     -38.128  19.613  -6.853  1.00  0.00     0.092 C 
ATOM     13  HN  UNL     1     -39.646  18.247  -7.200  1.00  0.00     0.166 HD
HETATM   14  C   UNL     1     -36.829  19.970  -7.167  1.00  0.00     0.066 C 
BRANCH   9  15
HETATM   15  C   UNL     1     -35.426  16.680  -7.371  1.00  0.00     0.429 C 
BRANCH  15  16
HETATM   16  O   UNL     1     -34.342  17.294  -6.900  1.00  0.00    -0.326 OA
ATOM     17  HO  UNL     1     -34.599  17.859  -6.181  1.00  0.00     0.217 HD
ENDBRANCH  15  16
BRANCH  15  18
HETATM   18  O   UNL     1     -35.101  16.005  -8.477  1.00  0.00    -0.326 OA
ATOM     19  HO  UNL     1     -35.826  15.444  -8.724  1.00  0.00     0.217 HD
ENDBRANCH  15  18
BRANCH  15  20
HETATM   20  N   UNL     1     -35.928  15.705  -6.474  1.00  0.00    -0.000 N 
ATOM     21  HN3 UNL     1     -36.471  14.996  -6.968  1.00  0.00     0.283 HD
ATOM     22  HN2 UNL     1     -35.178  15.115  -6.115  1.00  0.00     0.283 HD
ATOM     23  HN1 UNL     1     -36.469  16.116  -5.713  1.00  0.00     0.283 HD
ENDBRANCH  15  20
ENDBRANCH   9  15
ENDBRANCH   6   8
ENDBRANCH   1   4
BRANCH   1  24
HETATM   24  C   UNL     1     -37.079  22.073  -9.970  1.00  0.00     0.055 C 
HETATM   25  C   UNL     1     -36.636  22.936 -11.156  1.00  0.00     0.154 C 
HETATM   26  C   UNL     1     -37.453  22.490 -12.367  1.00  0.00     0.160 C 
HETATM   27  O   UNL     1     -36.799  22.357 -13.669  1.00  0.00    -0.350 OA
HETATM   28  C   UNL     1     -38.044  21.195 -12.002  1.00  0.00     0.049 C 
HETATM   29  C   UNL     1     -37.866  22.077 -14.692  1.00  0.00     0.288 C 
HETATM   30  C   UNL     1     -38.384  20.642 -14.472  1.00  0.00     0.202 C 
HETATM   31  C   UNL     1     -38.584  20.251 -13.022  1.00  0.00     0.158 C 
HETATM   32  C   UNL     1     -37.898  20.941 -10.542  1.00  0.00     0.020 C 
BRANCH  25  33
HETATM   33  O   UNL     1     -36.853  24.311 -10.853  1.00  0.00    -0.392 OA
ATOM     34  HO  UNL     1     -36.427  24.880 -11.484  1.00  0.00     0.210 HD
ENDBRANCH  25  33
BRANCH  29  35
HETATM   35  O   UNL     1     -37.148  22.005 -15.931  1.00  0.00    -0.369 OA
ATOM     36  HO  UNL     1     -37.163  22.895 -16.260  1.00  0.00     0.212 HD
ENDBRANCH  29  35
BRANCH  30  37
HETATM   37  O   UNL     1     -39.501  20.231 -15.248  1.00  0.00    -0.388 OA
ATOM     38  HO  UNL     1     -39.736  19.336 -15.035  1.00  0.00     0.210 HD
ENDBRANCH  30  37
BRANCH  31  39
HETATM   39  O   UNL     1     -37.971  18.997 -12.795  1.00  0.00    -0.392 OA
ATOM     40  HO  UNL     1     -38.366  18.352 -13.369  1.00  0.00     0.210 HD
ENDBRANCH  31  39
ENDBRANCH   1  24
TORSDOF 12
ENDMDL
MODEL 3
REMARK VINA RESULT:      -8.4      2.588      3.848
REMARK  12 active torsions:
REMARK  status: ('A' for Active; 'I' for Inactive)
REMARK    1  A    between atoms: O_3  and  C_8 
REMARK    2  A    between atoms: C_5  and  O_39 
REMARK    3  A    between atoms: C_6  and  O_9 
REMARK    4  A    between atoms: C_7  and  O_32 
REMARK    5  A    between atoms: O_11  and  C_21 
REMARK    6  A    between atoms: N_13  and  C_21 
REMARK    7  A    between atoms: O_18  and  C_24 
REMARK    8  A    between atoms: C_20  and  N_37 
REMARK    9  A    between atoms: C_21  and  O_25 
REMARK   10  A    between atoms: C_21  and  N_27 
REMARK   11  A    between atoms: C_24  and  C_34 
REMARK   12  A    between atoms: C_24  and  C_35 
REMARK       I    between atoms: C_34  and  N_37 
ROOT
HETATM    1  C   UNL     1     -37.486  20.324 -11.324  1.00  0.00     0.216 C 
ENDROOT
BRANCH   1   2
HETATM    2  O   UNL     1     -37.914  18.977 -11.455  1.00  0.00    -0.386 OA
ATOM      3  HO  UNL     1     -37.912  18.714 -12.368  1.00  0.00     0.210 HD
ENDBRANCH   1   2
BRANCH   1   4
HETATM    4  C   UNL     1     -38.450  21.108 -10.433  1.00  0.00     0.252 C 
HETATM    5  O   UNL     1     -39.602  21.318 -10.786  1.00  0.00    -0.270 OA
HETATM    6  N   UNL     1     -37.968  21.495  -9.241  1.00  0.00    -0.311 N 
ATOM      7  HN  UNL     1     -38.641  21.871  -8.574  1.00  0.00     0.170 HD
BRANCH   6   8
HETATM    8  C   UNL     1     -36.663  21.438  -8.830  1.00  0.00     0.117 C 
HETATM    9  N   UNL     1     -35.792  22.439  -9.182  1.00  0.00    -0.248 N 
HETATM   10  C   UNL     1     -34.575  21.959  -9.577  1.00  0.00     0.191 C 
HETATM   11  N   UNL     1     -34.055  20.806  -9.159  1.00  0.00    -0.362 N 
HETATM   12  C   UNL     1     -34.805  20.074  -8.314  1.00  0.00     0.092 C 
ATOM     13  HN  UNL     1     -33.134  20.493  -9.464  1.00  0.00     0.166 HD
HETATM   14  C   UNL     1     -36.148  20.345  -8.123  1.00  0.00     0.066 C 
BRANCH   9  15
HETATM   15  C   UNL     1     -36.075  23.851  -8.859  1.00  0.00     0.429 C 
BRANCH  15  16
HETATM   16  O   UNL     1     -37.269  23.924  -8.272  1.00  0.00    -0.326 OA
ATOM     17  HO  UNL     1     -37.226  24.569  -7.575  1.00  0.00     0.217 HD
ENDBRANCH  15  16
BRANCH  15  18
HETATM   18  O   UNL     1     -36.107  24.541 -10.003  1.00  0.00    -0.326 OA
ATOM     19  HO  UNL     1     -36.824  24.223 -10.538  1.00  0.00     0.217 HD
ENDBRANCH  15  18
BRANCH  15  20
HETATM   20  N   UNL     1     -35.054  24.457  -8.087  1.00  0.00    -0.000 N 
ATOM     21  HN3 UNL     1     -34.935  25.437  -8.340  1.00  0.00     0.283 HD
ATOM     22  HN2 UNL     1     -35.346  24.572  -7.117  1.00  0.00     0.283 HD
ATOM     23  HN1 UNL     1     -34.169  23.953  -8.147  1.00  0.00     0.283 HD
ENDBRANCH  15  20
ENDBRANCH   9  15
ENDBRANCH   6   8
ENDBRANCH   1   4
BRANCH   1  24
HETATM   24  C   UNL     1     -37.034  20.922 -12.665  1.00  0.00     0.055 C 
HETATM   25  C   UNL     1     -38.054  20.847 -13.804  1.00  0.00     0.154 C 
HETATM   26  C   UNL     1     -37.951  22.153 -14.590  1.00  0.00     0.160 C 
HETATM   27  O   UNL     1     -39.171  22.818 -15.048  1.00  0.00    -0.350 OA
HETATM   28  C   UNL     1     -37.202  23.082 -13.731  1.00  0.00     0.049 C 
HETATM   29  C   UNL     1     -38.763  23.968 -15.928  1.00  0.00     0.288 C 
HETATM   30  C   UNL     1     -38.146  25.064 -15.037  1.00  0.00     0.202 C 
HETATM   31  C   UNL     1     -37.219  24.557 -13.951  1.00  0.00     0.158 C 
HETATM   32  C   UNL     1     -36.574  22.359 -12.592  1.00  0.00     0.020 C 
BRANCH  25  33
HETATM   33  O   UNL     1     -37.772  19.717 -14.625  1.00  0.00    -0.392 OA
ATOM     34  HO  UNL     1     -38.528  19.461 -15.142  1.00  0.00     0.210 HD
ENDBRANCH  25  33
BRANCH  29  35
HETATM   35  O   UNL     1     -40.008  24.531 -16.363  1.00  0.00    -0.369 OA
ATOM     36  HO  UNL     1     -40.553  24.519 -15.585  1.00  0.00     0.212 HD
ENDBRANCH  29  35
BRANCH  30  37
HETATM   37  O   UNL     1     -37.564  26.181 -15.694  1.00  0.00    -0.388 OA
ATOM     38  HO  UNL     1     -36.923  26.596 -15.129  1.00  0.00     0.210 HD
ENDBRANCH  30  37
BRANCH  31  39
HETATM   39  O   UNL     1     -37.577  25.158 -12.722  1.00  0.00    -0.392 OA
ATOM     40  HO  UNL     1     -37.189  26.024 -12.677  1.00  0.00     0.210 HD
ENDBRANCH  31  39
ENDBRANCH   1  24
TORSDOF 12
ENDMDL
MODEL 4
REMARK VINA RESULT:      -7.9      3.150      7.660
REMARK  12 active torsions:
REMARK  status: ('A' for Active; 'I' for Inactive)
REMARK    1  A    between atoms: O_3  and  C_8 
REMARK    2  A    between atoms: C_5  and  O_39 
REMARK    3  A    between atoms: C_6  and  O_9 
REMARK    4  A    between atoms: C_7  and  O_32 
REMARK    5  A    between atoms: O_11  and  C_21 
REMARK    6  A    between atoms: N_13  and  C_21 
REMARK    7  A    between atoms: O_18  and  C_24 
REMARK    8  A    between atoms: C_20  and  N_37 
REMARK    9  A    between atoms: C_21  and  O_25 
REMARK   10  A    between atoms: C_21  and  N_27 
REMARK   11  A    between atoms: C_24  and  C_34 
REMARK   12  A    between atoms: C_24  and  C_35 
REMARK       I    between atoms: C_34  and  N_37 
ROOT
HETATM    1  C   UNL     1     -37.327  20.603  -7.937  1.00  0.00     0.216 C 
ENDROOT
BRANCH   1   2
HETATM    2  O   UNL     1     -37.139  20.915  -6.565  1.00  0.00    -0.386 OA
ATOM      3  HO  UNL     1     -37.151  20.125  -6.039  1.00  0.00     0.210 HD
ENDBRANCH   1   2
BRANCH   1   4
HETATM    4  C   UNL     1     -38.565  21.313  -8.484  1.00  0.00     0.252 C 
HETATM    5  O   UNL     1     -39.685  20.856  -8.298  1.00  0.00    -0.270 OA
HETATM    6  N   UNL     1     -38.345  22.473  -9.123  1.00  0.00    -0.311 N 
ATOM      7  HN  UNL     1     -39.166  23.035  -9.348  1.00  0.00     0.170 HD
BRANCH   6   8
HETATM    8  C   UNL     1     -37.132  22.977  -9.506  1.00  0.00     0.117 C 
HETATM    9  N   UNL     1     -36.570  22.574 -10.693  1.00  0.00    -0.248 N 
HETATM   10  C   UNL     1     -35.232  22.321 -10.578  1.00  0.00     0.191 C 
HETATM   11  N   UNL     1     -34.435  22.903  -9.682  1.00  0.00    -0.362 N 
HETATM   12  C   UNL     1     -35.013  23.772  -8.831  1.00  0.00     0.092 C 
ATOM     13  HN  UNL     1     -33.437  22.699  -9.642  1.00  0.00     0.166 HD
HETATM   14  C   UNL     1     -36.387  23.837  -8.691  1.00  0.00     0.066 C 
BRANCH   9  15
HETATM   15  C   UNL     1     -37.293  22.715 -11.971  1.00  0.00     0.429 C 
BRANCH  15  16
HETATM   16  O   UNL     1     -38.030  23.824 -11.926  1.00  0.00    -0.326 OA
ATOM     17  HO  UNL     1     -38.872  23.647 -12.329  1.00  0.00     0.217 HD
ENDBRANCH  15  16
BRANCH  15  18
HETATM   18  O   UNL     1     -38.099  21.659 -12.112  1.00  0.00    -0.326 OA
ATOM     19  HO  UNL     1     -38.994  21.962 -12.209  1.00  0.00     0.217 HD
ENDBRANCH  15  18
BRANCH  15  20
HETATM   20  N   UNL     1     -36.435  22.681 -13.098  1.00  0.00    -0.000 N 
ATOM     21  HN3 UNL     1     -36.486  21.779 -13.571  1.00  0.00     0.283 HD
ATOM     22  HN2 UNL     1     -36.787  23.278 -13.846  1.00  0.00     0.283 HD
ATOM     23  HN1 UNL     1     -35.472  22.917 -12.862  1.00  0.00     0.283 HD
ENDBRANCH  15  20
ENDBRANCH   9  15
ENDBRANCH   6   8
ENDBRANCH   1   4
BRANCH   1  24
HETATM   24  C   UNL     1     -37.118  19.108  -8.224  1.00  0.00     0.055 C 
HETATM   25  C   UNL     1     -35.681  18.688  -8.548  1.00  0.00     0.154 C 
HETATM   26  C   UNL     1     -35.446  17.334  -7.880  1.00  0.00     0.160 C 
HETATM   27  O   UNL     1     -34.174  17.074  -7.204  1.00  0.00    -0.350 OA
HETATM   28  C   UNL     1     -36.538  17.167  -6.910  1.00  0.00     0.049 C 
HETATM   29  C   UNL     1     -34.159  15.626  -6.798  1.00  0.00     0.288 C 
HETATM   30  C   UNL     1     -35.155  15.438  -5.637  1.00  0.00     0.202 C 
HETATM   31  C   UNL     1     -36.466  16.180  -5.794  1.00  0.00     0.158 C 
HETATM   32  C   UNL     1     -37.603  18.182  -7.134  1.00  0.00     0.020 C 
BRANCH  25  33
HETATM   33  O   UNL     1     -35.512  18.613  -9.961  1.00  0.00    -0.392 OA
ATOM     34  HO  UNL     1     -35.771  19.421 -10.388  1.00  0.00     0.210 HD
ENDBRANCH  25  33
BRANCH  29  35
HETATM   35  O   UNL     1     -32.873  15.450  -6.189  1.00  0.00    -0.369 OA
ATOM     36  HO  UNL     1     -33.013  14.767  -5.544  1.00  0.00     0.212 HD
ENDBRANCH  29  35
BRANCH  30  37
HETATM   37  O   UNL     1     -35.396  14.107  -5.200  1.00  0.00    -0.388 OA
ATOM     38  HO  UNL     1     -36.302  13.870  -5.357  1.00  0.00     0.210 HD
ENDBRANCH  30  37
BRANCH  31  39
HETATM   39  O   UNL     1     -36.742  16.883  -4.598  1.00  0.00    -0.392 OA
ATOM     40  HO  UNL     1     -36.733  16.271  -3.871  1.00  0.00     0.210 HD
ENDBRANCH  31  39
ENDBRANCH   1  24
TORSDOF 12
ENDMDL
MODEL 5
REMARK VINA RESULT:      -7.6      1.962      3.378
REMARK  12 active torsions:
REMARK  status: ('A' for Active; 'I' for Inactive)
REMARK    1  A    between atoms: O_3  and  C_8 
REMARK    2  A    between atoms: C_5  and  O_39 
REMARK    3  A    between atoms: C_6  and  O_9 
REMARK    4  A    between atoms: C_7  and  O_32 
REMARK    5  A    between atoms: O_11  and  C_21 
REMARK    6  A    between atoms: N_13  and  C_21 
REMARK    7  A    between atoms: O_18  and  C_24 
REMARK    8  A    between atoms: C_20  and  N_37 
REMARK    9  A    between atoms: C_21  and  O_25 
REMARK   10  A    between atoms: C_21  and  N_27 
REMARK   11  A    between atoms: C_24  and  C_34 
REMARK   12  A    between atoms: C_24  and  C_35 
REMARK       I    between atoms: C_34  and  N_37 
ROOT
HETATM    1  C   UNL     1     -36.247  20.734  -9.944  1.00  0.00     0.216 C 
ENDROOT
BRANCH   1   2
HETATM    2  O   UNL     1     -35.155  21.638 -10.023  1.00  0.00    -0.386 OA
ATOM      3  HO  UNL     1     -34.337  21.164 -10.117  1.00  0.00     0.210 HD
ENDBRANCH   1   2
BRANCH   1   4
HETATM    4  C   UNL     1     -35.783  19.306 -10.230  1.00  0.00     0.252 C 
HETATM    5  O   UNL     1     -35.396  18.983 -11.345  1.00  0.00    -0.270 OA
HETATM    6  N   UNL     1     -35.782  18.465  -9.183  1.00  0.00    -0.311 N 
ATOM      7  HN  UNL     1     -35.324  17.564  -9.319  1.00  0.00     0.170 HD
BRANCH   6   8
HETATM    8  C   UNL     1     -36.335  18.694  -7.952  1.00  0.00     0.117 C 
HETATM    9  N   UNL     1     -36.755  17.635  -7.186  1.00  0.00    -0.248 N 
HETATM   10  C   UNL     1     -37.963  17.867  -6.591  1.00  0.00     0.191 C 
HETATM   11  N   UNL     1     -38.422  19.078  -6.277  1.00  0.00    -0.362 N 
HETATM   12  C   UNL     1     -37.639  20.124  -6.598  1.00  0.00     0.092 C 
ATOM     13  HN  UNL     1     -39.323  19.206  -5.817  1.00  0.00     0.166 HD
HETATM   14  C   UNL     1     -36.569  19.985  -7.464  1.00  0.00     0.066 C 
BRANCH   9  15
HETATM   15  C   UNL     1     -35.838  16.536  -6.828  1.00  0.00     0.429 C 
BRANCH  15  16
HETATM   16  O   UNL     1     -34.584  16.954  -6.991  1.00  0.00    -0.326 OA
ATOM     17  HO  UNL     1     -34.234  16.567  -7.786  1.00  0.00     0.217 HD
ENDBRANCH  15  16
BRANCH  15  18
HETATM   18  O   UNL     1     -36.070  15.514  -7.657  1.00  0.00    -0.326 OA
ATOM     19  HO  UNL     1     -35.251  15.247  -8.057  1.00  0.00     0.217 HD
ENDBRANCH  15  18
BRANCH  15  20
HETATM   20  N   UNL     1     -36.072  16.021  -5.529  1.00  0.00    -0.000 N 
ATOM     21  HN3 UNL     1     -35.221  16.042  -4.967  1.00  0.00     0.283 HD
ATOM     22  HN2 UNL     1     -36.647  16.660  -4.978  1.00  0.00     0.283 HD
ATOM     23  HN1 UNL     1     -36.477  15.086  -5.547  1.00  0.00     0.283 HD
ENDBRANCH  15  20
ENDBRANCH   9  15
ENDBRANCH   6   8
ENDBRANCH   1   4
BRANCH   1  24
HETATM   24  C   UNL     1     -37.503  21.280 -10.642  1.00  0.00     0.055 C 
HETATM   25  C   UNL     1     -37.534  22.795 -10.863  1.00  0.00     0.154 C 
HETATM   26  C   UNL     1     -38.166  23.038 -12.233  1.00  0.00     0.160 C 
HETATM   27  O   UNL     1     -37.598  24.055 -13.118  1.00  0.00    -0.350 OA
HETATM   28  C   UNL     1     -38.140  21.742 -12.925  1.00  0.00     0.049 C 
HETATM   29  C   UNL     1     -38.514  24.193 -14.304  1.00  0.00     0.288 C 
HETATM   30  C   UNL     1     -38.372  22.928 -15.174  1.00  0.00     0.202 C 
HETATM   31  C   UNL     1     -38.300  21.627 -14.403  1.00  0.00     0.158 C 
HETATM   32  C   UNL     1     -37.810  20.643 -11.976  1.00  0.00     0.020 C 
BRANCH  25  33
HETATM   33  O   UNL     1     -38.285  23.414  -9.821  1.00  0.00    -0.392 OA
ATOM     34  HO  UNL     1     -38.959  22.835  -9.484  1.00  0.00     0.210 HD
ENDBRANCH  25  33
BRANCH  29  35
HETATM   35  O   UNL     1     -37.910  25.229 -15.090  1.00  0.00    -0.369 OA
ATOM     36  HO  UNL     1     -37.754  24.820 -15.933  1.00  0.00     0.212 HD
ENDBRANCH  29  35
BRANCH  30  37
HETATM   37  O   UNL     1     -39.263  22.797 -16.274  1.00  0.00    -0.388 OA
ATOM     38  HO  UNL     1     -39.156  23.527 -16.871  1.00  0.00     0.210 HD
ENDBRANCH  30  37
BRANCH  31  39
HETATM   39  O   UNL     1     -37.208  20.868 -14.883  1.00  0.00    -0.392 OA
ATOM     40  HO  UNL     1     -36.571  21.455 -15.273  1.00  0.00     0.210 HD
ENDBRANCH  31  39
ENDBRANCH   1  24
TORSDOF 12
ENDMDL
MODEL 6
REMARK VINA RESULT:      -7.5      3.295      7.686
REMARK  12 active torsions:
REMARK  status: ('A' for Active; 'I' for Inactive)
REMARK    1  A    between atoms: O_3  and  C_8 
REMARK    2  A    between atoms: C_5  and  O_39 
REMARK    3  A    between atoms: C_6  and  O_9 
REMARK    4  A    between atoms: C_7  and  O_32 
REMARK    5  A    between atoms: O_11  and  C_21 
REMARK    6  A    between atoms: N_13  and  C_21 
REMARK    7  A    between atoms: O_18  and  C_24 
REMARK    8  A    between atoms: C_20  and  N_37 
REMARK    9  A    between atoms: C_21  and  O_25 
REMARK   10  A    between atoms: C_21  and  N_27 
REMARK   11  A    between atoms: C_24  and  C_34 
REMARK   12  A    between atoms: C_24  and  C_35 
REMARK       I    between atoms: C_34  and  N_37 
ROOT
HETATM    1  C   UNL     1     -37.520  20.310  -8.118  1.00  0.00     0.216 C 
ENDROOT
BRANCH   1   2
HETATM    2  O   UNL     1     -37.173  20.780  -6.824  1.00  0.00    -0.386 OA
ATOM      3  HO  UNL     1     -36.678  20.121  -6.353  1.00  0.00     0.210 HD
ENDBRANCH   1   2
BRANCH   1   4
HETATM    4  C   UNL     1     -38.930  20.765  -8.493  1.00  0.00     0.252 C 
HETATM    5  O   UNL     1     -39.885  20.509  -7.773  1.00  0.00    -0.270 OA
HETATM    6  N   UNL     1     -39.036  21.491  -9.618  1.00  0.00    -0.311 N 
ATOM      7  HN  UNL     1     -39.937  21.936  -9.792  1.00  0.00     0.170 HD
BRANCH   6   8
HETATM    8  C   UNL     1     -38.059  21.693 -10.554  1.00  0.00     0.117 C 
HETATM    9  N   UNL     1     -37.371  22.882 -10.576  1.00  0.00    -0.248 N 
HETATM   10  C   UNL     1     -37.200  23.363 -11.844  1.00  0.00     0.191 C 
HETATM   11  N   UNL     1     -37.147  22.598 -12.933  1.00  0.00    -0.362 N 
HETATM   12  C   UNL     1     -37.300  21.273 -12.751  1.00  0.00     0.092 C 
ATOM     13  HN  UNL     1     -36.999  22.997 -13.860  1.00  0.00     0.166 HD
HETATM   14  C   UNL     1     -37.779  20.760 -11.559  1.00  0.00     0.066 C 
BRANCH   9  15
HETATM   15  C   UNL     1     -36.656  23.376  -9.384  1.00  0.00     0.429 C 
BRANCH  15  16
HETATM   16  O   UNL     1     -37.548  23.651  -8.433  1.00  0.00    -0.326 OA
ATOM     17  HO  UNL     1     -38.418  23.473  -8.771  1.00  0.00     0.217 HD
ENDBRANCH  15  16
BRANCH  15  18
HETATM   18  O   UNL     1     -36.015  24.500  -9.720  1.00  0.00    -0.326 OA
ATOM     19  HO  UNL     1     -36.303  24.776 -10.582  1.00  0.00     0.217 HD
ENDBRANCH  15  18
BRANCH  15  20
HETATM   20  N   UNL     1     -35.645  22.490  -8.939  1.00  0.00    -0.000 N 
ATOM     21  HN3 UNL     1     -34.849  23.002  -8.558  1.00  0.00     0.283 HD
ATOM     22  HN2 UNL     1     -35.936  21.993  -8.097  1.00  0.00     0.283 HD
ATOM     23  HN1 UNL     1     -35.349  21.839  -9.666  1.00  0.00     0.283 HD
ENDBRANCH  15  20
ENDBRANCH   9  15
ENDBRANCH   6   8
ENDBRANCH   1   4
BRANCH   1  24
HETATM   24  C   UNL     1     -37.110  18.845  -8.332  1.00  0.00     0.055 C 
HETATM   25  C   UNL     1     -35.611  18.594  -8.516  1.00  0.00     0.154 C 
HETATM   26  C   UNL     1     -35.277  17.297  -7.781  1.00  0.00     0.160 C 
HETATM   27  O   UNL     1     -34.049  17.211  -6.990  1.00  0.00    -0.350 OA
HETATM   28  C   UNL     1     -36.423  17.024  -6.902  1.00  0.00     0.049 C 
HETATM   29  C   UNL     1     -33.898  15.786  -6.531  1.00  0.00     0.288 C 
HETATM   30  C   UNL     1     -34.964  15.509  -5.454  1.00  0.00     0.202 C 
HETATM   31  C   UNL     1     -36.335  16.083  -5.749  1.00  0.00     0.158 C 
HETATM   32  C   UNL     1     -37.577  17.896  -7.253  1.00  0.00     0.020 C 
BRANCH  25  33
HETATM   33  O   UNL     1     -35.308  18.503  -9.905  1.00  0.00    -0.392 OA
ATOM     34  HO  UNL     1     -35.877  19.059 -10.425  1.00  0.00     0.210 HD
ENDBRANCH  25  33
BRANCH  29  35
HETATM   35  O   UNL     1     -32.660  15.784  -5.808  1.00  0.00    -0.369 OA
ATOM     36  HO  UNL     1     -32.717  16.548  -5.247  1.00  0.00     0.212 HD
ENDBRANCH  29  35
BRANCH  30  37
HETATM   37  O   UNL     1     -35.083  14.171  -4.991  1.00  0.00    -0.388 OA
ATOM     38  HO  UNL     1     -35.312  14.163  -4.068  1.00  0.00     0.210 HD
ENDBRANCH  30  37
BRANCH  31  39
HETATM   39  O   UNL     1     -36.798  16.777  -4.607  1.00  0.00    -0.392 OA
ATOM     40  HO  UNL     1     -36.200  16.621  -3.886  1.00  0.00     0.210 HD
ENDBRANCH  31  39
ENDBRANCH   1  24
TORSDOF 12
ENDMDL
MODEL 7
REMARK VINA RESULT:      -7.4      1.708      2.367
REMARK  12 active torsions:
REMARK  status: ('A' for Active; 'I' for Inactive)
REMARK    1  A    between atoms: O_3  and  C_8 
REMARK    2  A    between atoms: C_5  and  O_39 
REMARK    3  A    between atoms: C_6  and  O_9 
REMARK    4  A    between atoms: C_7  and  O_32 
REMARK    5  A    between atoms: O_11  and  C_21 
REMARK    6  A    between atoms: N_13  and  C_21 
REMARK    7  A    between atoms: O_18  and  C_24 
REMARK    8  A    between atoms: C_20  and  N_37 
REMARK    9  A    between atoms: C_21  and  O_25 
REMARK   10  A    between atoms: C_21  and  N_27 
REMARK   11  A    between atoms: C_24  and  C_34 
REMARK   12  A    between atoms: C_24  and  C_35 
REMARK       I    between atoms: C_34  and  N_37 
ROOT
HETATM    1  C   UNL     1     -38.055  21.659  -9.474  1.00  0.00     0.216 C 
ENDROOT
BRANCH   1   2
HETATM    2  O   UNL     1     -39.385  22.126  -9.638  1.00  0.00    -0.386 OA
ATOM      3  HO  UNL     1     -39.730  21.861 -10.482  1.00  0.00     0.210 HD
ENDBRANCH   1   2
BRANCH   1   4
HETATM    4  C   UNL     1     -37.358  22.413  -8.342  1.00  0.00     0.252 C 
HETATM    5  O   UNL     1     -37.131  23.612  -8.432  1.00  0.00    -0.270 OA
HETATM    6  N   UNL     1     -37.064  21.694  -7.247  1.00  0.00    -0.311 N 
ATOM      7  HN  UNL     1     -36.751  22.213  -6.427  1.00  0.00     0.170 HD
BRANCH   6   8
HETATM    8  C   UNL     1     -37.141  20.333  -7.119  1.00  0.00     0.117 C 
HETATM    9  N   UNL     1     -36.547  19.525  -8.057  1.00  0.00    -0.248 N 
HETATM   10  C   UNL     1     -37.338  18.469  -8.414  1.00  0.00     0.191 C 
HETATM   11  N   UNL     1     -38.257  17.922  -7.620  1.00  0.00    -0.362 N 
HETATM   12  C   UNL     1     -38.416  18.477  -6.404  1.00  0.00     0.092 C 
ATOM     13  HN  UNL     1     -38.814  17.121  -7.919  1.00  0.00     0.166 HD
HETATM   14  C   UNL     1     -37.880  19.717  -6.103  1.00  0.00     0.066 C 
BRANCH   9  15
HETATM   15  C   UNL     1     -35.111  19.647  -8.376  1.00  0.00     0.429 C 
BRANCH  15  16
HETATM   16  O   UNL     1     -34.471  18.593  -7.873  1.00  0.00    -0.326 OA
ATOM     17  HO  UNL     1     -34.892  18.339  -7.060  1.00  0.00     0.217 HD
ENDBRANCH  15  16
BRANCH  15  18
HETATM   18  O   UNL     1     -34.649  20.758  -7.795  1.00  0.00    -0.326 OA
ATOM     19  HO  UNL     1     -35.373  21.223  -7.393  1.00  0.00     0.217 HD
ENDBRANCH  15  18
BRANCH  15  20
HETATM   20  N   UNL     1     -34.865  19.821  -9.760  1.00  0.00    -0.000 N 
ATOM     21  HN3 UNL     1     -34.051  19.283 -10.058  1.00  0.00     0.283 HD
ATOM     22  HN2 UNL     1     -35.580  19.359 -10.322  1.00  0.00     0.283 HD
ATOM     23  HN1 UNL     1     -34.771  20.802 -10.019  1.00  0.00     0.283 HD
ENDBRANCH  15  20
ENDBRANCH   9  15
ENDBRANCH   6   8
ENDBRANCH   1   4
BRANCH   1  24
HETATM   24  C   UNL     1     -37.336  21.473 -10.819  1.00  0.00     0.055 C 
HETATM   25  C   UNL     1     -37.903  20.379 -11.729  1.00  0.00     0.154 C 
HETATM   26  C   UNL     1     -37.833  20.903 -13.163  1.00  0.00     0.160 C 
HETATM   27  O   UNL     1     -38.956  20.670 -14.071  1.00  0.00    -0.350 OA
HETATM   28  C   UNL     1     -37.609  22.351 -13.052  1.00  0.00     0.049 C 
HETATM   29  C   UNL     1     -38.542  21.137 -15.440  1.00  0.00     0.288 C 
HETATM   30  C   UNL     1     -38.484  22.678 -15.429  1.00  0.00     0.202 C 
HETATM   31  C   UNL     1     -37.864  23.284 -14.187  1.00  0.00     0.158 C 
HETATM   32  C   UNL     1     -37.237  22.724 -11.659  1.00  0.00     0.020 C 
BRANCH  25  33
HETATM   33  O   UNL     1     -37.144  19.184 -11.570  1.00  0.00    -0.392 OA
ATOM     34  HO  UNL     1     -37.577  18.438 -11.969  1.00  0.00     0.210 HD
ENDBRANCH  25  33
BRANCH  29  35
HETATM   35  O   UNL     1     -39.674  20.835 -16.266  1.00  0.00    -0.369 OA
ATOM     36  HO  UNL     1     -39.354  20.958 -17.152  1.00  0.00     0.212 HD
ENDBRANCH  29  35
BRANCH  30  37
HETATM   37  O   UNL     1     -37.972  23.314 -16.592  1.00  0.00    -0.388 OA
ATOM     38  HO  UNL     1     -37.123  22.953 -16.816  1.00  0.00     0.210 HD
ENDBRANCH  30  37
BRANCH  31  39
HETATM   39  O   UNL     1     -38.712  24.307 -13.703  1.00  0.00    -0.392 OA
ATOM     40  HO  UNL     1     -38.241  24.817 -13.054  1.00  0.00     0.210 HD
ENDBRANCH  31  39
ENDBRANCH   1  24
TORSDOF 12
ENDMDL
MODEL 8
REMARK VINA RESULT:      -7.1      3.401      7.806
REMARK  12 active torsions:
REMARK  status: ('A' for Active; 'I' for Inactive)
REMARK    1  A    between atoms: O_3  and  C_8 
REMARK    2  A    between atoms: C_5  and  O_39 
REMARK    3  A    between atoms: C_6  and  O_9 
REMARK    4  A    between atoms: C_7  and  O_32 
REMARK    5  A    between atoms: O_11  and  C_21 
REMARK    6  A    between atoms: N_13  and  C_21 
REMARK    7  A    between atoms: O_18  and  C_24 
REMARK    8  A    between atoms: C_20  and  N_37 
REMARK    9  A    between atoms: C_21  and  O_25 
REMARK   10  A    between atoms: C_21  and  N_27 
REMARK   11  A    between atoms: C_24  and  C_34 
REMARK   12  A    between atoms: C_24  and  C_35 
REMARK       I    between atoms: C_34  and  N_37 
ROOT
HETATM    1  C   UNL     1     -36.850  21.490 -11.197  1.00  0.00     0.216 C 
ENDROOT
BRANCH   1   2
HETATM    2  O   UNL     1     -36.164  22.544 -11.856  1.00  0.00    -0.386 OA
ATOM      3  HO  UNL     1     -35.951  22.297 -12.748  1.00  0.00     0.210 HD
ENDBRANCH   1   2
BRANCH   1   4
HETATM    4  C   UNL     1     -38.353  21.764 -11.167  1.00  0.00     0.252 C 
HETATM    5  O   UNL     1     -38.930  21.982 -10.110  1.00  0.00    -0.270 OA
HETATM    6  N   UNL     1     -38.971  21.798 -12.358  1.00  0.00    -0.311 N 
ATOM      7  HN  UNL     1     -39.932  22.139 -12.367  1.00  0.00     0.170 HD
BRANCH   6   8
HETATM    8  C   UNL     1     -38.442  21.419 -13.563  1.00  0.00     0.117 C 
HETATM    9  N   UNL     1     -38.575  22.242 -14.654  1.00  0.00    -0.248 N 
HETATM   10  C   UNL     1     -38.905  21.555 -15.789  1.00  0.00     0.191 C 
HETATM   11  N   UNL     1     -38.586  20.280 -16.010  1.00  0.00    -0.362 N 
HETATM   12  C   UNL     1     -37.920  19.643 -15.030  1.00  0.00     0.092 C 
ATOM     13  HN  UNL     1     -38.835  19.810 -16.880  1.00  0.00     0.166 HD
HETATM   14  C   UNL     1     -37.831  20.175 -13.755  1.00  0.00     0.066 C 
BRANCH   9  15
HETATM   15  C   UNL     1     -38.105  23.640 -14.624  1.00  0.00     0.429 C 
BRANCH  15  16
HETATM   16  O   UNL     1     -36.839  23.657 -14.209  1.00  0.00    -0.326 OA
ATOM     17  HO  UNL     1     -36.661  24.499 -13.806  1.00  0.00     0.217 HD
ENDBRANCH  15  16
BRANCH  15  18
HETATM   18  O   UNL     1     -38.860  24.314 -13.751  1.00  0.00    -0.326 OA
ATOM     19  HO  UNL     1     -39.689  24.531 -14.161  1.00  0.00     0.217 HD
ENDBRANCH  15  18
BRANCH  15  20
HETATM   20  N   UNL     1     -38.278  24.309 -15.860  1.00  0.00    -0.000 N 
ATOM     21  HN3 UNL     1     -39.138  24.857 -15.864  1.00  0.00     0.283 HD
ATOM     22  HN2 UNL     1     -37.602  25.065 -15.967  1.00  0.00     0.283 HD
ATOM     23  HN1 UNL     1     -38.245  23.672 -16.656  1.00  0.00     0.283 HD
ENDBRANCH  15  20
ENDBRANCH   9  15
ENDBRANCH   6   8
ENDBRANCH   1   4
BRANCH   1  24
HETATM   24  C   UNL     1     -36.131  21.044  -9.914  1.00  0.00     0.055 C 
HETATM   25  C   UNL     1     -36.655  21.658  -8.612  1.00  0.00     0.154 C 
HETATM   26  C   UNL     1     -36.616  20.562  -7.548  1.00  0.00     0.160 C 
HETATM   27  O   UNL     1     -37.732  20.424  -6.613  1.00  0.00    -0.350 OA
HETATM   28  C   UNL     1     -36.454  19.297  -8.279  1.00  0.00     0.049 C 
HETATM   29  C   UNL     1     -37.347  19.392  -5.588  1.00  0.00     0.288 C 
HETATM   30  C   UNL     1     -37.356  18.009  -6.266  1.00  0.00     0.202 C 
HETATM   31  C   UNL     1     -36.756  17.975  -7.657  1.00  0.00     0.158 C 
HETATM   32  C   UNL     1     -36.091  19.550  -9.700  1.00  0.00     0.020 C 
BRANCH  25  33
HETATM   33  O   UNL     1     -35.843  22.771  -8.248  1.00  0.00    -0.392 OA
ATOM     34  HO  UNL     1     -35.392  22.622  -7.425  1.00  0.00     0.210 HD
ENDBRANCH  25  33
BRANCH  29  35
HETATM   35  O   UNL     1     -38.469  19.353  -4.696  1.00  0.00    -0.369 OA
ATOM     36  HO  UNL     1     -39.151  19.823  -5.161  1.00  0.00     0.212 HD
ENDBRANCH  29  35
BRANCH  30  37
HETATM   37  O   UNL     1     -36.878  16.910  -5.501  1.00  0.00    -0.388 OA
ATOM     38  HO  UNL     1     -35.982  16.707  -5.743  1.00  0.00     0.210 HD
ENDBRANCH  30  37
BRANCH  31  39
HETATM   39  O   UNL     1     -37.645  17.299  -8.525  1.00  0.00    -0.392 OA
ATOM     40  HO  UNL     1     -38.536  17.542  -8.304  1.00  0.00     0.210 HD
ENDBRANCH  31  39
ENDBRANCH   1  24
TORSDOF 12
ENDMDL
MODEL 9
REMARK VINA RESULT:      -6.8      2.328      3.455
REMARK  12 active torsions:
REMARK  status: ('A' for Active; 'I' for Inactive)
REMARK    1  A    between atoms: O_3  and  C_8 
REMARK    2  A    between atoms: C_5  and  O_39 
REMARK    3  A    between atoms: C_6  and  O_9 
REMARK    4  A    between atoms: C_7  and  O_32 
REMARK    5  A    between atoms: O_11  and  C_21 
REMARK    6  A    between atoms: N_13  and  C_21 
REMARK    7  A    between atoms: O_18  and  C_24 
REMARK    8  A    between atoms: C_20  and  N_37 
REMARK    9  A    between atoms: C_21  and  O_25 
REMARK   10  A    between atoms: C_21  and  N_27 
REMARK   11  A    between atoms: C_24  and  C_34 
REMARK   12  A    between atoms: C_24  and  C_35 
REMARK       I    between atoms: C_34  and  N_37 
ROOT
HETATM    1  C   UNL     1     -38.157  21.932  -9.523  1.00  0.00     0.216 C 
ENDROOT
BRANCH   1   2
HETATM    2  O   UNL     1     -39.529  22.223  -9.738  1.00  0.00    -0.386 OA
ATOM      3  HO  UNL     1     -39.624  22.978 -10.306  1.00  0.00     0.210 HD
ENDBRANCH   1   2
BRANCH   1   4
HETATM    4  C   UNL     1     -37.531  22.960  -8.580  1.00  0.00     0.252 C 
HETATM    5  O   UNL     1     -38.076  24.035  -8.374  1.00  0.00    -0.270 OA
HETATM    6  N   UNL     1     -36.394  22.587  -7.972  1.00  0.00    -0.311 N 
ATOM      7  HN  UNL     1     -36.056  23.191  -7.223  1.00  0.00     0.170 HD
BRANCH   6   8
HETATM    8  C   UNL     1     -35.641  21.479  -8.255  1.00  0.00     0.117 C 
HETATM    9  N   UNL     1     -34.630  21.561  -9.180  1.00  0.00    -0.248 N 
HETATM   10  C   UNL     1     -34.602  20.483 -10.020  1.00  0.00     0.191 C 
HETATM   11  N   UNL     1     -35.047  19.270  -9.696  1.00  0.00    -0.362 N 
HETATM   12  C   UNL     1     -35.575  19.128  -8.466  1.00  0.00     0.092 C 
ATOM     13  HN  UNL     1     -34.990  18.488 -10.347  1.00  0.00     0.166 HD
HETATM   14  C   UNL     1     -35.913  20.226  -7.695  1.00  0.00     0.066 C 
BRANCH   9  15
HETATM   15  C   UNL     1     -33.544  22.550  -9.044  1.00  0.00     0.429 C 
BRANCH  15  16
HETATM   16  O   UNL     1     -33.219  22.655  -7.757  1.00  0.00    -0.326 OA
ATOM     17  HO  UNL     1     -34.017  22.678  -7.242  1.00  0.00     0.217 HD
ENDBRANCH  15  16
BRANCH  15  18
HETATM   18  O   UNL     1     -33.999  23.730  -9.478  1.00  0.00    -0.326 OA
ATOM     19  HO  UNL     1     -33.277  24.346  -9.515  1.00  0.00     0.217 HD
ENDBRANCH  15  18
BRANCH  15  20
HETATM   20  N   UNL     1     -32.425  22.260  -9.863  1.00  0.00    -0.000 N 
ATOM     21  HN3 UNL     1     -31.604  22.785  -9.564  1.00  0.00     0.283 HD
ATOM     22  HN2 UNL     1     -32.083  21.313  -9.696  1.00  0.00     0.283 HD
ATOM     23  HN1 UNL     1     -32.616  22.411 -10.853  1.00  0.00     0.283 HD
ENDBRANCH  15  20
ENDBRANCH   9  15
ENDBRANCH   6   8
ENDBRANCH   1   4
BRANCH   1  24
HETATM   24  C   UNL     1     -37.434  21.554 -10.825  1.00  0.00     0.055 C 
HETATM   25  C   UNL     1     -38.093  20.447 -11.653  1.00  0.00     0.154 C 
HETATM   26  C   UNL     1     -37.939  20.832 -13.124  1.00  0.00     0.160 C 
HETATM   27  O   UNL     1     -39.060  20.635 -14.043  1.00  0.00    -0.350 OA
HETATM   28  C   UNL     1     -37.567  22.254 -13.132  1.00  0.00     0.049 C 
HETATM   29  C   UNL     1     -38.572  20.934 -15.434  1.00  0.00     0.288 C 
HETATM   30  C   UNL     1     -38.354  22.455 -15.554  1.00  0.00     0.202 C 
HETATM   31  C   UNL     1     -37.700  23.103 -14.351  1.00  0.00     0.158 C 
HETATM   32  C   UNL     1     -37.187  22.708 -11.767  1.00  0.00     0.020 C 
BRANCH  25  33
HETATM   33  O   UNL     1     -37.465  19.199 -11.369  1.00  0.00    -0.392 OA
ATOM     34  HO  UNL     1     -36.895  18.924 -12.078  1.00  0.00     0.210 HD
ENDBRANCH  25  33
BRANCH  29  35
HETATM   35  O   UNL     1     -39.711  20.676 -16.264  1.00  0.00    -0.369 OA
ATOM     36  HO  UNL     1     -39.343  20.547 -17.130  1.00  0.00     0.212 HD
ENDBRANCH  29  35
BRANCH  30  37
HETATM   37  O   UNL     1     -37.754  22.930 -16.752  1.00  0.00    -0.388 OA
ATOM     38  HO  UNL     1     -37.419  22.202 -17.261  1.00  0.00     0.210 HD
ENDBRANCH  30  37
BRANCH  31  39
HETATM   39  O   UNL     1     -38.447  24.246 -13.982  1.00  0.00    -0.392 OA
ATOM     40  HO  UNL     1     -38.308  24.928 -14.630  1.00  0.00     0.210 HD
ENDBRANCH  31  39
ENDBRANCH   1  24
TORSDOF 12
ENDMDL
