REMARK  1 active torsions:
REMARK  status: ('A' for Active; 'I' for Inactive)
REMARK    1  A    between atoms: C_3  and  C_11 
ROOT
HETATM    1  O   UNL     1      15.642   5.511   9.450  1.00  0.00    -0.267 OA
HETATM    2  C   UNL     1      13.926   5.145  11.894  1.00  0.00     0.334 C 
HETATM    3  N   UNL     1      13.595   5.880  12.996  1.00  0.00    -0.318 N 
ATOM      4  HN  UNL     1      12.643   6.246  12.992  1.00  0.00     0.170 HD
HETATM    5  C   UNL     1      15.501   5.784  14.607  1.00  0.00     0.019 C 
HETATM    6  O   UNL     1      13.135   4.942  10.973  1.00  0.00    -0.246 OA
HETATM    7  C   UNL     1      17.119   3.671  11.967  1.00  0.00     0.048 C 
HETATM    8  C   UNL     1      16.876   3.772  10.599  1.00  0.00     0.045 C 
HETATM    9  C   UNL     1      16.292   4.615  12.616  1.00  0.00     0.048 C 
HETATM   10  C   UNL     1      16.506   5.165  13.891  1.00  0.00     0.031 C 
HETATM   11  N   UNL     1      15.309   4.984  11.695  1.00  0.00    -0.230 N 
HETATM   12  C   UNL     1      15.856   4.822  10.438  1.00  0.00     0.267 C 
HETATM   13  C   UNL     1      14.311   6.201  14.082  1.00  0.00     0.093 C 
ENDROOT
BRANCH   8  14
HETATM   14  C   UNL     1      17.328   2.871   9.527  1.00  0.00    -0.020 C 
HETATM   15  C   UNL     1      16.885   3.043   8.219  1.00  0.00     0.012 C 
HETATM   16  C   UNL     1      17.402   2.249   7.195  1.00  0.00     0.001 C 
HETATM   17  C   UNL     1      18.595   1.568   7.411  1.00  0.00     0.000 C 
HETATM   18  C   UNL     1      18.986   1.302   8.709  1.00  0.00     0.001 C 
HETATM   19  C   UNL     1      18.295   1.897   9.767  1.00  0.00     0.012 C 
ENDBRANCH   8  14
TORSDOF 1
