MODEL 1
REMARK VINA RESULT:     -11.2      0.000      0.000
REMARK  0 active torsions:
REMARK  status: ('A' for Active; 'I' for Inactive)
ROOT
HETATM    1  C   UNL     1      23.245   5.175   4.490  1.00  0.00     0.001 C 
HETATM    2  C   UNL     1      29.438  -0.356   6.253  1.00  0.00     0.042 C 
HETATM    3  C   UNL     1      27.863   3.349   4.308  1.00  0.00     0.020 C 
HETATM    4  O   UNL     1      30.587  -1.813   3.652  1.00  0.00    -0.292 OA
HETATM    5  C   UNL     1      30.601   1.755   5.420  1.00  0.00     0.035 C 
HETATM    6  C   UNL     1      26.131   1.671   3.956  1.00  0.00     0.018 C 
HETATM    7  C   UNL     1      30.430   0.544   3.205  1.00  0.00     0.118 C 
HETATM    8  C   UNL     1      27.687   5.739   4.252  1.00  0.00     0.006 C 
HETATM    9  C   UNL     1      25.776   8.132   4.186  1.00  0.00     0.010 C 
HETATM   10  C   UNL     1      29.928   1.711   4.058  1.00  0.00    -0.069 C 
HETATM   11  C   UNL     1      30.012  -0.736   3.874  1.00  0.00     0.159 C 
HETATM   12  C   UNL     1      24.209   4.033   4.773  1.00  0.00     0.005 C 
HETATM   13  C   UNL     1      28.901  -0.652   4.859  1.00  0.00    -0.015 C 
HETATM   14  C   UNL     1      28.485   2.022   3.975  1.00  0.00    -0.065 C 
HETATM   15  C   UNL     1      23.810   6.536   4.126  1.00  0.00     0.005 C 
HETATM   16  C   UNL     1      26.174   5.544   4.017  1.00  0.00    -0.006 C 
HETATM   17  C   UNL     1      27.460   0.984   3.572  1.00  0.00     0.039 C 
HETATM   18  C   UNL     1      27.607  -0.306   4.397  1.00  0.00    -0.007 C 
HETATM   19  C   UNL     1      26.410   3.164   3.848  1.00  0.00    -0.001 C 
HETATM   20  C   UNL     1      30.749   0.447   6.198  1.00  0.00     0.009 C 
HETATM   21  C   UNL     1      25.292   6.714   4.441  1.00  0.00    -0.014 C 
HETATM   22  C   UNL     1      28.357   4.567   3.518  1.00  0.00     0.010 C 
HETATM   23  C   UNL     1      25.727   4.230   4.723  1.00  0.00    -0.005 C 
ENDROOT
TORSDOF 0
ENDMDL
