REMARK  4 active torsions:
REMARK  status: ('A' for Active; 'I' for Inactive)
REMARK    1  A    between atoms: C_1  and  C_6 
REMARK    2  A    between atoms: C_3  and  O_15 
REMARK    3  A    between atoms: C_6  and  O_7 
REMARK    4  A    between atoms: C_6  and  C_12 
ROOT
HETATM    1  C   UNL     1      -0.371  33.055  23.701  1.00  0.00    -0.040 C 
HETATM    2  C   UNL     1       1.121  32.183  25.148  1.00  0.00    -0.055 C 
HETATM    3  C   UNL     1       2.772  29.923  25.243  1.00  0.00     0.122 C 
HETATM    4  C   UNL     1       2.351  30.441  23.837  1.00  0.00     0.066 C 
HETATM    5  C   UNL     1       1.115  31.298  24.035  1.00  0.00    -0.067 C 
HETATM    6  C   UNL     1       3.262  31.148  26.044  1.00  0.00     0.036 C 
HETATM    7  C   UNL     1       0.078  33.128  25.026  1.00  0.00     0.013 C 
HETATM    8  C   UNL     1       2.135  32.144  26.245  1.00  0.00     0.041 C 
HETATM    9  C   UNL     1       0.395  32.040  22.949  1.00  0.00     0.072 C 
ENDROOT
BRANCH   1  10
HETATM   10  C   UNL     1      -1.130  34.157  23.014  1.00  0.00     0.216 C 
BRANCH  10  11
HETATM   11  O   UNL     1      -2.329  34.425  23.726  1.00  0.00    -0.384 OA
ATOM     12  HO  UNL     1      -2.808  35.121  23.292  1.00  0.00     0.211 HD
ENDBRANCH  10  11
BRANCH  10  13
HETATM   13  C   UNL     1      -0.347  35.436  22.798  1.00  0.00     0.155 C 
HETATM   14  C   UNL     1       0.175  35.691  21.415  1.00  0.00     0.094 C 
HETATM   15  O   UNL     1      -0.276  36.281  23.679  1.00  0.00    -0.295 OA
ENDBRANCH  10  13
ENDBRANCH   1  10
BRANCH   3  16
HETATM   16  O   UNL     1       3.837  28.990  25.077  1.00  0.00    -0.395 OA
ATOM     17  HO  UNL     1       4.094  28.674  25.935  1.00  0.00     0.210 HD
ENDBRANCH   3  16
TORSDOF 4
