MODEL 1
REMARK VINA RESULT:      -6.4      0.000      0.000
REMARK  4 active torsions:
REMARK  status: ('A' for Active; 'I' for Inactive)
REMARK    1  A    between atoms: O_6  and  C_13 
REMARK    2  A    between atoms: C_10  and  S_15 
REMARK    3  A    between atoms: O_12  and  S_15 
REMARK    4  A    between atoms: O_12  and  P_16 
ROOT
HETATM    1  C   UNL     1      -0.314  34.195  22.973  1.00  0.00     0.138 C 
HETATM    2  O   UNL     1      -1.193  31.397  23.513  1.00  0.00    -0.303 OA
HETATM    3  C   UNL     1      -1.743  33.706  22.754  1.00  0.00     0.101 C 
HETATM    4  C   UNL     1       0.219  32.948  22.220  1.00  0.00     0.101 C 
HETATM    5  C   UNL     1      -0.613  31.701  24.723  1.00  0.00     0.158 C 
HETATM    6  C   UNL     1      -0.362  32.943  25.096  1.00  0.00     0.181 C 
HETATM    7  C   UNL     1      -1.175  32.320  22.440  1.00  0.00     0.173 C 
HETATM    8  O   UNL     1      -0.002  34.085  24.374  1.00  0.00    -0.354 OA
ENDROOT
BRANCH   5   9
HETATM    9  S   UNL     1      -0.319  30.367  25.783  1.00  0.00     0.070 SA
BRANCH   9  10
HETATM   10  O   UNL     1      -0.249  29.246  24.647  1.00  0.00    -0.199 OA
BRANCH  10  11
HETATM   11  P   UNL     1       1.060  28.633  23.927  1.00  0.00     0.434 P 
HETATM   12  O   UNL     1       0.594  27.662  22.870  1.00  0.00    -0.616 OA
HETATM   13  O   UNL     1       1.818  29.745  23.249  1.00  0.00    -0.616 OA
HETATM   14  O   UNL     1       1.823  27.925  25.001  1.00  0.00    -0.616 OA
ENDBRANCH  10  11
ENDBRANCH   9  10
ENDBRANCH   5   9
BRANCH   7  15
HETATM   15  O   UNL     1      -1.828  31.784  21.321  1.00  0.00    -0.365 OA
ATOM     16  HO  UNL     1      -1.713  30.842  21.286  1.00  0.00     0.213 HD
ENDBRANCH   7  15
TORSDOF 4
ENDMDL
MODEL 2
REMARK VINA RESULT:      -6.3      0.997      1.349
REMARK  4 active torsions:
REMARK  status: ('A' for Active; 'I' for Inactive)
REMARK    1  A    between atoms: O_6  and  C_13 
REMARK    2  A    between atoms: C_10  and  S_15 
REMARK    3  A    between atoms: O_12  and  S_15 
REMARK    4  A    between atoms: O_12  and  P_16 
ROOT
HETATM    1  C   UNL     1      -0.343  34.183  23.009  1.00  0.00     0.138 C 
HETATM    2  O   UNL     1      -1.080  31.333  23.485  1.00  0.00    -0.303 OA
HETATM    3  C   UNL     1      -1.760  33.642  22.840  1.00  0.00     0.101 C 
HETATM    4  C   UNL     1       0.202  32.987  22.184  1.00  0.00     0.101 C 
HETATM    5  C   UNL     1      -0.453  31.618  24.676  1.00  0.00     0.158 C 
HETATM    6  C   UNL     1      -0.234  32.855  25.083  1.00  0.00     0.181 C 
HETATM    7  C   UNL     1      -1.153  32.293  22.448  1.00  0.00     0.173 C 
HETATM    8  O   UNL     1       0.043  34.036  24.387  1.00  0.00    -0.354 OA
ENDROOT
BRANCH   5   9
HETATM    9  S   UNL     1      -0.053  30.261  25.669  1.00  0.00     0.070 SA
BRANCH   9  10
HETATM   10  O   UNL     1       1.531  30.366  25.489  1.00  0.00    -0.199 OA
BRANCH  10  11
HETATM   11  P   UNL     1       2.456  29.672  24.362  1.00  0.00     0.434 P 
HETATM   12  O   UNL     1       2.683  28.236  24.768  1.00  0.00    -0.616 OA
HETATM   13  O   UNL     1       1.722  29.682  23.045  1.00  0.00    -0.616 OA
HETATM   14  O   UNL     1       3.743  30.435  24.362  1.00  0.00    -0.616 OA
ENDBRANCH  10  11
ENDBRANCH   9  10
ENDBRANCH   5   9
BRANCH   7  15
HETATM   15  O   UNL     1      -1.839  31.770  21.341  1.00  0.00    -0.365 OA
ATOM     16  HO  UNL     1      -2.077  32.465  20.738  1.00  0.00     0.213 HD
ENDBRANCH   7  15
TORSDOF 4
ENDMDL
MODEL 3
REMARK VINA RESULT:      -6.2      1.247      1.621
REMARK  4 active torsions:
REMARK  status: ('A' for Active; 'I' for Inactive)
REMARK    1  A    between atoms: O_6  and  C_13 
REMARK    2  A    between atoms: C_10  and  S_15 
REMARK    3  A    between atoms: O_12  and  S_15 
REMARK    4  A    between atoms: O_12  and  P_16 
ROOT
HETATM    1  C   UNL     1      -0.187  33.803  23.523  1.00  0.00     0.138 C 
HETATM    2  O   UNL     1      -0.931  30.931  23.223  1.00  0.00    -0.303 OA
HETATM    3  C   UNL     1      -1.619  33.325  23.305  1.00  0.00     0.101 C 
HETATM    4  C   UNL     1       0.286  32.892  22.360  1.00  0.00     0.101 C 
HETATM    5  C   UNL     1      -0.223  30.871  24.401  1.00  0.00     0.158 C 
HETATM    6  C   UNL     1       0.039  31.943  25.126  1.00  0.00     0.181 C 
HETATM    7  C   UNL     1      -1.059  32.145  22.507  1.00  0.00     0.173 C 
HETATM    8  O   UNL     1       0.287  33.274  24.775  1.00  0.00    -0.354 OA
ENDROOT
BRANCH   5   9
HETATM    9  S   UNL     1       0.222  29.290  24.942  1.00  0.00     0.070 SA
BRANCH   9  10
HETATM   10  O   UNL     1       0.392  28.644  23.490  1.00  0.00    -0.199 OA
BRANCH  10  11
HETATM   11  P   UNL     1      -0.263  27.284  22.918  1.00  0.00     0.434 P 
HETATM   12  O   UNL     1      -1.558  27.647  22.232  1.00  0.00    -0.616 OA
HETATM   13  O   UNL     1       0.664  26.681  21.894  1.00  0.00    -0.616 OA
HETATM   14  O   UNL     1      -0.518  26.419  24.112  1.00  0.00    -0.616 OA
ENDBRANCH  10  11
ENDBRANCH   9  10
ENDBRANCH   5   9
BRANCH   7  15
HETATM   15  O   UNL     1      -1.823  31.953  21.347  1.00  0.00    -0.365 OA
ATOM     16  HO  UNL     1      -2.551  32.563  21.322  1.00  0.00     0.213 HD
ENDBRANCH   7  15
TORSDOF 4
ENDMDL
MODEL 4
REMARK VINA RESULT:      -6.1      2.883      4.904
REMARK  4 active torsions:
REMARK  status: ('A' for Active; 'I' for Inactive)
REMARK    1  A    between atoms: O_6  and  C_13 
REMARK    2  A    between atoms: C_10  and  S_15 
REMARK    3  A    between atoms: O_12  and  S_15 
REMARK    4  A    between atoms: O_12  and  P_16 
ROOT
HETATM    1  C   UNL     1       0.390  28.830  25.503  1.00  0.00     0.138 C 
HETATM    2  O   UNL     1       0.490  31.550  24.288  1.00  0.00    -0.303 OA
HETATM    3  C   UNL     1       1.690  29.583  25.238  1.00  0.00     0.101 C 
HETATM    4  C   UNL     1      -0.089  29.166  24.066  1.00  0.00     0.101 C 
HETATM    5  C   UNL     1      -0.391  31.784  25.318  1.00  0.00     0.158 C 
HETATM    6  C   UNL     1      -0.511  30.964  26.347  1.00  0.00     0.181 C 
HETATM    7  C   UNL     1       1.006  30.256  24.044  1.00  0.00     0.173 C 
HETATM    8  O   UNL     1      -0.386  29.575  26.459  1.00  0.00    -0.354 OA
ENDROOT
BRANCH   5   9
HETATM    9  S   UNL     1      -1.268  33.271  25.248  1.00  0.00     0.070 SA
BRANCH   9  10
HETATM   10  O   UNL     1      -0.303  34.001  24.205  1.00  0.00    -0.199 OA
BRANCH  10  11
HETATM   11  P   UNL     1      -0.623  34.437  22.683  1.00  0.00     0.434 P 
HETATM   12  O   UNL     1      -2.017  33.964  22.349  1.00  0.00    -0.616 OA
HETATM   13  O   UNL     1      -0.595  35.941  22.584  1.00  0.00    -0.616 OA
HETATM   14  O   UNL     1       0.393  33.739  21.836  1.00  0.00    -0.616 OA
ENDBRANCH  10  11
ENDBRANCH   9  10
ENDBRANCH   5   9
BRANCH   7  15
HETATM   15  O   UNL     1       1.880  30.273  22.947  1.00  0.00    -0.365 OA
ATOM     16  HO  UNL     1       2.778  30.151  23.234  1.00  0.00     0.213 HD
ENDBRANCH   7  15
TORSDOF 4
ENDMDL
MODEL 5
REMARK VINA RESULT:      -5.9      2.970      4.995
REMARK  4 active torsions:
REMARK  status: ('A' for Active; 'I' for Inactive)
REMARK    1  A    between atoms: O_6  and  C_13 
REMARK    2  A    between atoms: C_10  and  S_15 
REMARK    3  A    between atoms: O_12  and  S_15 
REMARK    4  A    between atoms: O_12  and  P_16 
ROOT
HETATM    1  C   UNL     1       2.803  29.825  25.296  1.00  0.00     0.138 C 
HETATM    2  O   UNL     1       0.264  30.437  23.857  1.00  0.00    -0.303 OA
HETATM    3  C   UNL     1       2.687  29.858  23.775  1.00  0.00     0.101 C 
HETATM    4  C   UNL     1       1.523  28.950  25.366  1.00  0.00     0.101 C 
HETATM    5  C   UNL     1       0.332  31.527  24.693  1.00  0.00     0.158 C 
HETATM    6  C   UNL     1       1.447  31.883  25.303  1.00  0.00     0.181 C 
HETATM    7  C   UNL     1       1.231  29.405  23.919  1.00  0.00     0.173 C 
HETATM    8  O   UNL     1       2.520  31.140  25.806  1.00  0.00    -0.354 OA
ENDROOT
BRANCH   5   9
HETATM    9  S   UNL     1      -1.107  32.476  24.824  1.00  0.00     0.070 SA
BRANCH   9  10
HETATM   10  O   UNL     1      -0.506  33.805  24.171  1.00  0.00    -0.199 OA
BRANCH  10  11
HETATM   11  P   UNL     1      -0.714  34.364  22.670  1.00  0.00     0.434 P 
HETATM   12  O   UNL     1      -0.681  35.872  22.729  1.00  0.00    -0.616 OA
HETATM   13  O   UNL     1       0.430  33.897  21.807  1.00  0.00    -0.616 OA
HETATM   14  O   UNL     1      -2.060  33.877  22.235  1.00  0.00    -0.616 OA
ENDBRANCH  10  11
ENDBRANCH   9  10
ENDBRANCH   5   9
BRANCH   7  15
HETATM   15  O   UNL     1       0.950  28.410  22.972  1.00  0.00    -0.365 OA
ATOM     16  HO  UNL     1       0.078  28.526  22.614  1.00  0.00     0.213 HD
ENDBRANCH   7  15
TORSDOF 4
ENDMDL
MODEL 6
REMARK VINA RESULT:      -5.9      2.829      3.449
REMARK  4 active torsions:
REMARK  status: ('A' for Active; 'I' for Inactive)
REMARK    1  A    between atoms: O_6  and  C_13 
REMARK    2  A    between atoms: C_10  and  S_15 
REMARK    3  A    between atoms: O_12  and  S_15 
REMARK    4  A    between atoms: O_12  and  P_16 
ROOT
HETATM    1  C   UNL     1      -0.327  34.218  22.997  1.00  0.00     0.138 C 
HETATM    2  O   UNL     1      -1.229  31.470  23.720  1.00  0.00    -0.303 OA
HETATM    3  C   UNL     1      -1.732  33.695  22.717  1.00  0.00     0.101 C 
HETATM    4  C   UNL     1       0.268  32.915  22.401  1.00  0.00     0.101 C 
HETATM    5  C   UNL     1      -0.743  31.888  24.937  1.00  0.00     0.158 C 
HETATM    6  C   UNL     1      -0.528  33.160  25.215  1.00  0.00     0.181 C 
HETATM    7  C   UNL     1      -1.135  32.293  22.573  1.00  0.00     0.173 C 
HETATM    8  O   UNL     1      -0.120  34.237  24.421  1.00  0.00    -0.354 OA
ENDROOT
BRANCH   5   9
HETATM    9  S   UNL     1      -0.523  30.658  26.132  1.00  0.00     0.070 SA
BRANCH   9  10
HETATM   10  O   UNL     1      -0.123  31.638  27.328  1.00  0.00    -0.199 OA
BRANCH  10  11
HETATM   11  P   UNL     1       0.435  31.250  28.794  1.00  0.00     0.434 P 
HETATM   12  O   UNL     1       0.333  32.477  29.667  1.00  0.00    -0.616 OA
HETATM   13  O   UNL     1      -0.438  30.173  29.386  1.00  0.00    -0.616 OA
HETATM   14  O   UNL     1       1.863  30.854  28.596  1.00  0.00    -0.616 OA
ENDBRANCH  10  11
ENDBRANCH   9  10
ENDBRANCH   5   9
BRANCH   7  15
HETATM   15  O   UNL     1      -1.699  31.651  21.460  1.00  0.00    -0.365 OA
ATOM     16  HO  UNL     1      -2.205  30.894  21.732  1.00  0.00     0.213 HD
ENDBRANCH   7  15
TORSDOF 4
ENDMDL
MODEL 7
REMARK VINA RESULT:      -5.8      3.363      5.712
REMARK  4 active torsions:
REMARK  status: ('A' for Active; 'I' for Inactive)
REMARK    1  A    between atoms: O_6  and  C_13 
REMARK    2  A    between atoms: C_10  and  S_15 
REMARK    3  A    between atoms: O_12  and  S_15 
REMARK    4  A    between atoms: O_12  and  P_16 
ROOT
HETATM    1  C   UNL     1       2.328  29.610  26.702  1.00  0.00     0.138 C 
HETATM    2  O   UNL     1       1.926  32.190  25.263  1.00  0.00    -0.303 OA
HETATM    3  C   UNL     1       2.119  30.944  27.412  1.00  0.00     0.101 C 
HETATM    4  C   UNL     1       3.386  30.274  25.783  1.00  0.00     0.101 C 
HETATM    5  C   UNL     1       0.953  31.428  24.659  1.00  0.00     0.158 C 
HETATM    6  C   UNL     1       0.514  30.297  25.180  1.00  0.00     0.181 C 
HETATM    7  C   UNL     1       2.800  31.633  26.227  1.00  0.00     0.173 C 
HETATM    8  O   UNL     1       1.146  29.306  25.940  1.00  0.00    -0.354 OA
ENDROOT
BRANCH   5   9
HETATM    9  S   UNL     1       0.256  32.084  23.220  1.00  0.00     0.070 SA
BRANCH   9  10
HETATM   10  O   UNL     1       0.100  33.579  23.760  1.00  0.00    -0.199 OA
BRANCH  10  11
HETATM   11  P   UNL     1      -1.163  34.573  23.602  1.00  0.00     0.434 P 
HETATM   12  O   UNL     1      -0.629  35.968  23.383  1.00  0.00    -0.616 OA
HETATM   13  O   UNL     1      -1.957  34.172  22.385  1.00  0.00    -0.616 OA
HETATM   14  O   UNL     1      -1.915  34.487  24.891  1.00  0.00    -0.616 OA
ENDBRANCH  10  11
ENDBRANCH   9  10
ENDBRANCH   5   9
BRANCH   7  15
HETATM   15  O   UNL     1       3.697  32.603  26.696  1.00  0.00    -0.365 OA
ATOM     16  HO  UNL     1       3.548  32.779  27.617  1.00  0.00     0.213 HD
ENDBRANCH   7  15
TORSDOF 4
ENDMDL
MODEL 8
REMARK VINA RESULT:      -5.7      3.052      5.504
REMARK  4 active torsions:
REMARK  status: ('A' for Active; 'I' for Inactive)
REMARK    1  A    between atoms: O_6  and  C_13 
REMARK    2  A    between atoms: C_10  and  S_15 
REMARK    3  A    between atoms: O_12  and  S_15 
REMARK    4  A    between atoms: O_12  and  P_16 
ROOT
HETATM    1  C   UNL     1      -0.330  29.729  27.297  1.00  0.00     0.138 C 
HETATM    2  O   UNL     1      -0.285  32.340  25.858  1.00  0.00    -0.303 OA
HETATM    3  C   UNL     1      -1.431  30.777  27.425  1.00  0.00     0.101 C 
HETATM    4  C   UNL     1       0.736  30.835  27.520  1.00  0.00     0.101 C 
HETATM    5  C   UNL     1      -0.095  31.483  24.800  1.00  0.00     0.158 C 
HETATM    6  C   UNL     1      -0.363  30.193  24.876  1.00  0.00     0.181 C 
HETATM    7  C   UNL     1      -0.373  31.857  27.185  1.00  0.00     0.173 C 
HETATM    8  O   UNL     1      -0.281  29.278  25.932  1.00  0.00    -0.354 OA
ENDROOT
BRANCH   5   9
HETATM    9  S   UNL     1       0.423  32.207  23.318  1.00  0.00     0.070 SA
BRANCH   9  10
HETATM   10  O   UNL     1       0.032  33.707  23.704  1.00  0.00    -0.199 OA
BRANCH  10  11
HETATM   11  P   UNL     1      -0.992  34.700  22.946  1.00  0.00     0.434 P 
HETATM   12  O   UNL     1      -0.220  35.434  21.878  1.00  0.00    -0.616 OA
HETATM   13  O   UNL     1      -2.068  33.883  22.277  1.00  0.00    -0.616 OA
HETATM   14  O   UNL     1      -1.490  35.648  23.990  1.00  0.00    -0.616 OA
ENDBRANCH  10  11
ENDBRANCH   9  10
ENDBRANCH   5   9
BRANCH   7  15
HETATM   15  O   UNL     1      -0.568  32.917  28.083  1.00  0.00    -0.365 OA
ATOM     16  HO  UNL     1      -1.304  32.737  28.656  1.00  0.00     0.213 HD
ENDBRANCH   7  15
TORSDOF 4
ENDMDL
MODEL 9
REMARK VINA RESULT:      -5.7      3.126      5.472
REMARK  4 active torsions:
REMARK  status: ('A' for Active; 'I' for Inactive)
REMARK    1  A    between atoms: O_6  and  C_13 
REMARK    2  A    between atoms: C_10  and  S_15 
REMARK    3  A    between atoms: O_12  and  S_15 
REMARK    4  A    between atoms: O_12  and  P_16 
ROOT
HETATM    1  C   UNL     1       2.382  29.894  24.072  1.00  0.00     0.138 C 
HETATM    2  O   UNL     1       0.882  31.429  26.141  1.00  0.00    -0.303 OA
HETATM    3  C   UNL     1       1.660  29.237  25.244  1.00  0.00     0.101 C 
HETATM    4  C   UNL     1       3.029  30.910  25.050  1.00  0.00     0.101 C 
HETATM    5  C   UNL     1       0.297  31.932  25.002  1.00  0.00     0.158 C 
HETATM    6  C   UNL     1       0.392  31.329  23.831  1.00  0.00     0.181 C 
HETATM    7  C   UNL     1       1.943  30.496  26.069  1.00  0.00     0.173 C 
HETATM    8  O   UNL     1       1.409  30.564  23.251  1.00  0.00    -0.354 OA
ENDROOT
BRANCH   5   9
HETATM    9  S   UNL     1      -0.665  33.353  25.205  1.00  0.00     0.070 SA
BRANCH   9  10
HETATM   10  O   UNL     1      -0.086  34.145  23.944  1.00  0.00    -0.199 OA
BRANCH  10  11
HETATM   11  P   UNL     1      -0.905  34.892  22.770  1.00  0.00     0.434 P 
HETATM   12  O   UNL     1      -1.518  36.141  23.355  1.00  0.00    -0.616 OA
HETATM   13  O   UNL     1       0.053  35.299  21.680  1.00  0.00    -0.616 OA
HETATM   14  O   UNL     1      -1.967  33.931  22.336  1.00  0.00    -0.616 OA
ENDBRANCH  10  11
ENDBRANCH   9  10
ENDBRANCH   5   9
BRANCH   7  15
HETATM   15  O   UNL     1       2.368  30.133  27.355  1.00  0.00    -0.365 OA
ATOM     16  HO  UNL     1       2.654  29.227  27.368  1.00  0.00     0.213 HD
ENDBRANCH   7  15
TORSDOF 4
ENDMDL
