MODEL 1
REMARK VINA RESULT:      -6.4      0.000      0.000
REMARK  4 active torsions:
REMARK  status: ('A' for Active; 'I' for Inactive)
REMARK    1  A    between atoms: C_2  and  C_9 
REMARK    2  A    between atoms: C_3  and  O_14 
REMARK    3  A    between atoms: C_7  and  O_11 
REMARK    4  A    between atoms: C_8  and  O_17 
ROOT
HETATM    1  C   UNL     1      -0.379  33.534  25.159  1.00  0.00     0.051 C 
HETATM    2  C   UNL     1       0.107  32.023  23.351  1.00  0.00     0.110 C 
HETATM    3  C   UNL     1      -0.951  32.558  22.617  1.00  0.00     0.102 C 
HETATM    4  C   UNL     1      -1.277  34.212  24.342  1.00  0.00     0.069 C 
HETATM    5  C   UNL     1       0.305  32.405  24.693  1.00  0.00     0.013 C 
HETATM    6  C   UNL     1      -1.642  33.659  23.118  1.00  0.00     0.076 C 
ENDROOT
BRANCH   5   7
HETATM    7  C   UNL     1       1.075  31.584  25.640  1.00  0.00    -0.023 A 
HETATM    8  C   UNL     1       2.467  31.704  25.723  1.00  0.00     0.012 A 
HETATM    9  C   UNL     1       3.199  30.918  26.607  1.00  0.00     0.001 A 
HETATM   10  C   UNL     1       2.539  30.042  27.468  1.00  0.00     0.000 A 
HETATM   11  C   UNL     1       1.150  29.946  27.433  1.00  0.00     0.001 A 
HETATM   12  C   UNL     1       0.440  30.675  26.485  1.00  0.00     0.012 A 
ENDBRANCH   5   7
BRANCH   2  13
HETATM   13  O   UNL     1       1.011  31.196  22.738  1.00  0.00    -0.357 OA
ATOM     14  HO  UNL     1       1.831  30.991  23.170  1.00  0.00     0.217 HD
ENDBRANCH   2  13
BRANCH   4  15
HETATM   15  O   UNL     1      -2.078  35.181  24.886  1.00  0.00    -0.361 OA
ATOM     16  HO  UNL     1      -3.014  35.027  24.955  1.00  0.00     0.217 HD
ENDBRANCH   4  15
BRANCH   3  17
HETATM   17  O   UNL     1      -1.505  31.870  21.568  1.00  0.00    -0.358 OA
ATOM     18  HO  UNL     1      -1.030  31.752  20.754  1.00  0.00     0.217 HD
ENDBRANCH   3  17
TORSDOF 4
ENDMDL
MODEL 2
REMARK VINA RESULT:      -6.3      1.292      2.025
REMARK  4 active torsions:
REMARK  status: ('A' for Active; 'I' for Inactive)
REMARK    1  A    between atoms: C_2  and  C_9 
REMARK    2  A    between atoms: C_3  and  O_14 
REMARK    3  A    between atoms: C_7  and  O_11 
REMARK    4  A    between atoms: C_8  and  O_17 
ROOT
HETATM    1  C   UNL     1      -0.941  33.838  24.738  1.00  0.00     0.051 C 
HETATM    2  C   UNL     1      -0.683  31.776  23.526  1.00  0.00     0.110 C 
HETATM    3  C   UNL     1      -1.273  32.359  22.405  1.00  0.00     0.102 C 
HETATM    4  C   UNL     1      -1.315  34.476  23.561  1.00  0.00     0.069 C 
HETATM    5  C   UNL     1      -0.651  32.468  24.753  1.00  0.00     0.013 C 
HETATM    6  C   UNL     1      -1.586  33.716  22.427  1.00  0.00     0.076 C 
ENDROOT
BRANCH   5   7
HETATM    7  C   UNL     1      -0.475  31.781  26.042  1.00  0.00    -0.023 A 
HETATM    8  C   UNL     1      -1.585  31.352  26.780  1.00  0.00     0.012 A 
HETATM    9  C   UNL     1      -1.422  30.715  28.006  1.00  0.00     0.001 A 
HETATM   10  C   UNL     1      -0.141  30.442  28.483  1.00  0.00     0.000 A 
HETATM   11  C   UNL     1       0.974  30.818  27.738  1.00  0.00     0.001 A 
HETATM   12  C   UNL     1       0.796  31.530  26.556  1.00  0.00     0.012 A 
ENDBRANCH   5   7
BRANCH   2  13
HETATM   13  O   UNL     1      -0.049  30.567  23.410  1.00  0.00    -0.357 OA
ATOM     14  HO  UNL     1      -0.090  30.089  22.590  1.00  0.00     0.217 HD
ENDBRANCH   2  13
BRANCH   4  15
HETATM   15  O   UNL     1      -1.786  35.761  23.615  1.00  0.00    -0.361 OA
ATOM     16  HO  UNL     1      -1.778  36.225  24.445  1.00  0.00     0.217 HD
ENDBRANCH   4  15
BRANCH   3  17
HETATM   17  O   UNL     1      -1.804  31.588  21.402  1.00  0.00    -0.358 OA
ATOM     18  HO  UNL     1      -1.271  30.955  20.937  1.00  0.00     0.217 HD
ENDBRANCH   3  17
TORSDOF 4
ENDMDL
MODEL 3
REMARK VINA RESULT:      -6.2      2.008      3.107
REMARK  4 active torsions:
REMARK  status: ('A' for Active; 'I' for Inactive)
REMARK    1  A    between atoms: C_2  and  C_9 
REMARK    2  A    between atoms: C_3  and  O_14 
REMARK    3  A    between atoms: C_7  and  O_11 
REMARK    4  A    between atoms: C_8  and  O_17 
ROOT
HETATM    1  C   UNL     1       0.334  33.233  22.542  1.00  0.00     0.051 C 
HETATM    2  C   UNL     1      -1.168  33.371  24.417  1.00  0.00     0.110 C 
HETATM    3  C   UNL     1      -1.382  34.722  24.147  1.00  0.00     0.102 C 
HETATM    4  C   UNL     1      -0.056  34.507  22.145  1.00  0.00     0.069 C 
HETATM    5  C   UNL     1      -0.188  32.652  23.704  1.00  0.00     0.013 C 
HETATM    6  C   UNL     1      -0.824  35.287  23.003  1.00  0.00     0.076 C 
ENDROOT
BRANCH   5   7
HETATM    7  C   UNL     1       0.402  31.405  24.216  1.00  0.00    -0.023 A 
HETATM    8  C   UNL     1      -0.244  30.178  24.025  1.00  0.00     0.012 A 
HETATM    9  C   UNL     1       0.304  28.999  24.522  1.00  0.00     0.001 A 
HETATM   10  C   UNL     1       1.541  29.024  25.165  1.00  0.00     0.000 A 
HETATM   11  C   UNL     1       2.220  30.230  25.321  1.00  0.00     0.001 A 
HETATM   12  C   UNL     1       1.619  31.411  24.895  1.00  0.00     0.012 A 
ENDBRANCH   5   7
BRANCH   2  13
HETATM   13  O   UNL     1      -1.977  32.718  25.309  1.00  0.00    -0.357 OA
ATOM     14  HO  UNL     1      -2.912  32.664  25.147  1.00  0.00     0.217 HD
ENDBRANCH   2  13
BRANCH   4  15
HETATM   15  O   UNL     1       0.618  35.126  21.124  1.00  0.00    -0.361 OA
ATOM     16  HO  UNL     1       0.150  35.726  20.555  1.00  0.00     0.217 HD
ENDBRANCH   4  15
BRANCH   3  17
HETATM   17  O   UNL     1      -1.884  35.565  25.106  1.00  0.00    -0.358 OA
ATOM     18  HO  UNL     1      -1.372  35.798  25.871  1.00  0.00     0.217 HD
ENDBRANCH   3  17
TORSDOF 4
ENDMDL
MODEL 4
REMARK VINA RESULT:      -6.2      1.160      2.545
REMARK  4 active torsions:
REMARK  status: ('A' for Active; 'I' for Inactive)
REMARK    1  A    between atoms: C_2  and  C_9 
REMARK    2  A    between atoms: C_3  and  O_14 
REMARK    3  A    between atoms: C_7  and  O_11 
REMARK    4  A    between atoms: C_8  and  O_17 
ROOT
HETATM    1  C   UNL     1      -0.804  31.742  23.496  1.00  0.00     0.051 C 
HETATM    2  C   UNL     1      -0.749  33.868  24.619  1.00  0.00     0.110 C 
HETATM    3  C   UNL     1      -1.223  34.492  23.465  1.00  0.00     0.102 C 
HETATM    4  C   UNL     1      -1.485  32.327  22.434  1.00  0.00     0.069 C 
HETATM    5  C   UNL     1      -0.392  32.506  24.594  1.00  0.00     0.013 C 
HETATM    6  C   UNL     1      -1.594  33.713  22.372  1.00  0.00     0.076 C 
ENDROOT
BRANCH   5   7
HETATM    7  C   UNL     1       0.512  31.910  25.590  1.00  0.00    -0.023 A 
HETATM    8  C   UNL     1       1.889  31.831  25.349  1.00  0.00     0.012 A 
HETATM    9  C   UNL     1       2.744  31.254  26.283  1.00  0.00     0.001 A 
HETATM   10  C   UNL     1       2.240  30.803  27.502  1.00  0.00     0.000 A 
HETATM   11  C   UNL     1       0.880  30.918  27.778  1.00  0.00     0.001 A 
HETATM   12  C   UNL     1       0.026  31.418  26.800  1.00  0.00     0.012 A 
ENDBRANCH   5   7
BRANCH   2  13
HETATM   13  O   UNL     1      -0.722  34.558  25.803  1.00  0.00    -0.357 OA
ATOM     14  HO  UNL     1      -0.833  34.092  26.623  1.00  0.00     0.217 HD
ENDBRANCH   2  13
BRANCH   4  15
HETATM   15  O   UNL     1      -1.695  31.602  21.291  1.00  0.00    -0.361 OA
ATOM     16  HO  UNL     1      -2.177  31.995  20.573  1.00  0.00     0.217 HD
ENDBRANCH   4  15
BRANCH   3  17
HETATM   17  O   UNL     1      -1.072  35.842  23.276  1.00  0.00    -0.358 OA
ATOM     18  HO  UNL     1      -0.239  36.269  23.435  1.00  0.00     0.217 HD
ENDBRANCH   3  17
TORSDOF 4
ENDMDL
MODEL 5
REMARK VINA RESULT:      -6.1      1.066      2.777
REMARK  4 active torsions:
REMARK  status: ('A' for Active; 'I' for Inactive)
REMARK    1  A    between atoms: C_2  and  C_9 
REMARK    2  A    between atoms: C_3  and  O_14 
REMARK    3  A    between atoms: C_7  and  O_11 
REMARK    4  A    between atoms: C_8  and  O_17 
ROOT
HETATM    1  C   UNL     1      -0.750  31.635  23.552  1.00  0.00     0.051 C 
HETATM    2  C   UNL     1      -0.659  33.698  24.786  1.00  0.00     0.110 C 
HETATM    3  C   UNL     1      -1.129  34.389  23.669  1.00  0.00     0.102 C 
HETATM    4  C   UNL     1      -1.427  32.286  22.526  1.00  0.00     0.069 C 
HETATM    5  C   UNL     1      -0.321  32.334  24.686  1.00  0.00     0.013 C 
HETATM    6  C   UNL     1      -1.516  33.674  22.538  1.00  0.00     0.076 C 
ENDROOT
BRANCH   5   7
HETATM    7  C   UNL     1       0.579  31.673  25.645  1.00  0.00    -0.023 A 
HETATM    8  C   UNL     1       0.065  31.001  26.760  1.00  0.00     0.012 A 
HETATM    9  C   UNL     1       0.915  30.388  27.676  1.00  0.00     0.001 A 
HETATM   10  C   UNL     1       2.291  30.387  27.455  1.00  0.00     0.000 A 
HETATM   11  C   UNL     1       2.815  31.010  26.325  1.00  0.00     0.001 A 
HETATM   12  C   UNL     1       1.961  31.691  25.464  1.00  0.00     0.012 A 
ENDBRANCH   5   7
BRANCH   2  13
HETATM   13  O   UNL     1      -0.615  34.324  26.004  1.00  0.00    -0.357 OA
ATOM     14  HO  UNL     1       0.211  34.403  26.464  1.00  0.00     0.217 HD
ENDBRANCH   2  13
BRANCH   4  15
HETATM   15  O   UNL     1      -1.653  31.625  21.347  1.00  0.00    -0.361 OA
ATOM     16  HO  UNL     1      -1.100  30.889  21.113  1.00  0.00     0.217 HD
ENDBRANCH   4  15
BRANCH   3  17
HETATM   17  O   UNL     1      -0.959  35.745  23.551  1.00  0.00    -0.358 OA
ATOM     18  HO  UNL     1      -0.717  36.275  24.301  1.00  0.00     0.217 HD
ENDBRANCH   3  17
TORSDOF 4
ENDMDL
MODEL 6
REMARK VINA RESULT:      -6.0      2.186      4.975
REMARK  4 active torsions:
REMARK  status: ('A' for Active; 'I' for Inactive)
REMARK    1  A    between atoms: C_2  and  C_9 
REMARK    2  A    between atoms: C_3  and  O_14 
REMARK    3  A    between atoms: C_7  and  O_11 
REMARK    4  A    between atoms: C_8  and  O_17 
ROOT
HETATM    1  C   UNL     1       2.059  31.542  25.046  1.00  0.00     0.051 C 
HETATM    2  C   UNL     1       0.368  30.247  23.927  1.00  0.00     0.110 C 
HETATM    3  C   UNL     1       1.236  29.156  23.876  1.00  0.00     0.102 C 
HETATM    4  C   UNL     1       2.830  30.395  25.194  1.00  0.00     0.069 C 
HETATM    5  C   UNL     1       0.829  31.500  24.379  1.00  0.00     0.013 C 
HETATM    6  C   UNL     1       2.470  29.235  24.516  1.00  0.00     0.076 C 
ENDROOT
BRANCH   5   7
HETATM    7  C   UNL     1       0.144  32.758  24.045  1.00  0.00    -0.023 A 
HETATM    8  C   UNL     1      -0.473  33.522  25.043  1.00  0.00     0.012 A 
HETATM    9  C   UNL     1      -1.135  34.705  24.727  1.00  0.00     0.001 A 
HETATM   10  C   UNL     1      -1.135  35.172  23.414  1.00  0.00     0.000 A 
HETATM   11  C   UNL     1      -0.484  34.450  22.418  1.00  0.00     0.001 A 
HETATM   12  C   UNL     1       0.099  33.226  22.733  1.00  0.00     0.012 A 
ENDBRANCH   5   7
BRANCH   2  13
HETATM   13  O   UNL     1      -0.958  30.076  23.629  1.00  0.00    -0.357 OA
ATOM     14  HO  UNL     1      -1.434  30.765  23.182  1.00  0.00     0.217 HD
ENDBRANCH   2  13
BRANCH   4  15
HETATM   15  O   UNL     1       4.112  30.505  25.667  1.00  0.00    -0.361 OA
ATOM     16  HO  UNL     1       4.311  30.203  26.546  1.00  0.00     0.217 HD
ENDBRANCH   4  15
BRANCH   3  17
HETATM   17  O   UNL     1       1.031  28.129  22.989  1.00  0.00    -0.358 OA
ATOM     18  HO  UNL     1       1.304  28.202  22.083  1.00  0.00     0.217 HD
ENDBRANCH   3  17
TORSDOF 4
ENDMDL
MODEL 7
REMARK VINA RESULT:      -5.8      2.304      5.214
REMARK  4 active torsions:
REMARK  status: ('A' for Active; 'I' for Inactive)
REMARK    1  A    between atoms: C_2  and  C_9 
REMARK    2  A    between atoms: C_3  and  O_14 
REMARK    3  A    between atoms: C_7  and  O_11 
REMARK    4  A    between atoms: C_8  and  O_17 
ROOT
HETATM    1  C   UNL     1      -0.158  30.414  23.891  1.00  0.00     0.051 C 
HETATM    2  C   UNL     1       1.380  31.374  25.471  1.00  0.00     0.110 C 
HETATM    3  C   UNL     1       1.505  30.137  26.103  1.00  0.00     0.102 C 
HETATM    4  C   UNL     1       0.143  29.147  24.377  1.00  0.00     0.069 C 
HETATM    5  C   UNL     1       0.426  31.556  24.450  1.00  0.00     0.013 C 
HETATM    6  C   UNL     1       0.885  29.021  25.547  1.00  0.00     0.076 C 
ENDROOT
BRANCH   5   7
HETATM    7  C   UNL     1      -0.074  32.885  24.067  1.00  0.00    -0.023 A 
HETATM    8  C   UNL     1      -0.646  33.735  25.021  1.00  0.00     0.012 A 
HETATM    9  C   UNL     1      -1.134  34.987  24.658  1.00  0.00     0.001 A 
HETATM   10  C   UNL     1      -1.000  35.432  23.344  1.00  0.00     0.000 A 
HETATM   11  C   UNL     1      -0.389  34.618  22.393  1.00  0.00     0.001 A 
HETATM   12  C   UNL     1       0.016  33.336  22.751  1.00  0.00     0.012 A 
ENDBRANCH   5   7
BRANCH   2  13
HETATM   13  O   UNL     1       2.250  32.387  25.779  1.00  0.00    -0.357 OA
ATOM     14  HO  UNL     1       2.086  33.264  25.455  1.00  0.00     0.217 HD
ENDBRANCH   2  13
BRANCH   4  15
HETATM   15  O   UNL     1      -0.592  28.072  23.950  1.00  0.00    -0.361 OA
ATOM     16  HO  UNL     1      -1.039  27.530  24.590  1.00  0.00     0.217 HD
ENDBRANCH   4  15
BRANCH   3  17
HETATM   17  O   UNL     1       1.980  30.042  27.386  1.00  0.00    -0.358 OA
ATOM     18  HO  UNL     1       2.635  30.647  27.713  1.00  0.00     0.217 HD
ENDBRANCH   3  17
TORSDOF 4
ENDMDL
MODEL 8
REMARK VINA RESULT:      -5.7      1.388      3.184
REMARK  4 active torsions:
REMARK  status: ('A' for Active; 'I' for Inactive)
REMARK    1  A    between atoms: C_2  and  C_9 
REMARK    2  A    between atoms: C_3  and  O_14 
REMARK    3  A    between atoms: C_7  and  O_11 
REMARK    4  A    between atoms: C_8  and  O_17 
ROOT
HETATM    1  C   UNL     1       0.074  32.111  23.311  1.00  0.00     0.051 C 
HETATM    2  C   UNL     1      -0.796  33.957  24.585  1.00  0.00     0.110 C 
HETATM    3  C   UNL     1      -0.560  34.812  23.509  1.00  0.00     0.102 C 
HETATM    4  C   UNL     1       0.095  32.913  22.176  1.00  0.00     0.069 C 
HETATM    5  C   UNL     1      -0.339  32.625  24.546  1.00  0.00     0.013 C 
HETATM    6  C   UNL     1      -0.115  34.282  22.300  1.00  0.00     0.076 C 
ENDROOT
BRANCH   5   7
HETATM    7  C   UNL     1      -0.142  31.824  25.764  1.00  0.00    -0.023 A 
HETATM    8  C   UNL     1      -1.237  31.282  26.448  1.00  0.00     0.012 A 
HETATM    9  C   UNL     1      -1.055  30.537  27.609  1.00  0.00     0.001 A 
HETATM   10  C   UNL     1       0.234  30.271  28.069  1.00  0.00     0.000 A 
HETATM   11  C   UNL     1       1.336  30.761  27.374  1.00  0.00     0.001 A 
HETATM   12  C   UNL     1       1.135  31.576  26.264  1.00  0.00     0.012 A 
ENDBRANCH   5   7
BRANCH   2  13
HETATM   13  O   UNL     1      -1.557  34.386  25.641  1.00  0.00    -0.357 OA
ATOM     14  HO  UNL     1      -2.503  34.315  25.600  1.00  0.00     0.217 HD
ENDBRANCH   2  13
BRANCH   4  15
HETATM   15  O   UNL     1       0.691  32.444  21.034  1.00  0.00    -0.361 OA
ATOM     16  HO  UNL     1       1.437  32.910  20.674  1.00  0.00     0.217 HD
ENDBRANCH   4  15
BRANCH   3  17
HETATM   17  O   UNL     1      -0.483  36.171  23.688  1.00  0.00    -0.358 OA
ATOM     18  HO  UNL     1      -0.118  36.541  24.482  1.00  0.00     0.217 HD
ENDBRANCH   3  17
TORSDOF 4
ENDMDL
MODEL 9
REMARK VINA RESULT:      -5.6      2.024      2.790
REMARK  4 active torsions:
REMARK  status: ('A' for Active; 'I' for Inactive)
REMARK    1  A    between atoms: C_2  and  C_9 
REMARK    2  A    between atoms: C_3  and  O_14 
REMARK    3  A    between atoms: C_7  and  O_11 
REMARK    4  A    between atoms: C_8  and  O_17 
ROOT
HETATM    1  C   UNL     1      -1.303  33.163  25.041  1.00  0.00     0.051 C 
HETATM    2  C   UNL     1       0.614  31.722  24.858  1.00  0.00     0.110 C 
HETATM    3  C   UNL     1       0.686  31.989  23.491  1.00  0.00     0.102 C 
HETATM    4  C   UNL     1      -1.090  33.601  23.738  1.00  0.00     0.069 C 
HETATM    5  C   UNL     1      -0.477  32.190  25.616  1.00  0.00     0.013 C 
HETATM    6  C   UNL     1      -0.170  32.936  22.934  1.00  0.00     0.076 C 
ENDROOT
BRANCH   5   7
HETATM    7  C   UNL     1      -0.856  31.591  26.905  1.00  0.00    -0.023 A 
HETATM    8  C   UNL     1      -0.913  32.371  28.066  1.00  0.00     0.012 A 
HETATM    9  C   UNL     1      -1.256  31.803  29.290  1.00  0.00     0.001 A 
HETATM   10  C   UNL     1      -1.608  30.456  29.357  1.00  0.00     0.000 A 
HETATM   11  C   UNL     1      -1.604  29.677  28.202  1.00  0.00     0.001 A 
HETATM   12  C   UNL     1      -1.176  30.238  27.003  1.00  0.00     0.012 A 
ENDBRANCH   5   7
BRANCH   2  13
HETATM   13  O   UNL     1       1.654  31.085  25.483  1.00  0.00    -0.357 OA
ATOM     14  HO  UNL     1       1.686  31.052  26.431  1.00  0.00     0.217 HD
ENDBRANCH   2  13
BRANCH   4  15
HETATM   15  O   UNL     1      -2.029  34.397  23.137  1.00  0.00    -0.361 OA
ATOM     16  HO  UNL     1      -1.748  35.062  22.519  1.00  0.00     0.217 HD
ENDBRANCH   4  15
BRANCH   3  17
HETATM   17  O   UNL     1       1.372  31.157  22.642  1.00  0.00    -0.358 OA
ATOM     18  HO  UNL     1       1.093  30.260  22.504  1.00  0.00     0.217 HD
ENDBRANCH   3  17
TORSDOF 4
ENDMDL
