REMARK  3 active torsions:
REMARK  status: ('A' for Active; 'I' for Inactive)
REMARK    1  A    between atoms: C_3  and  C_21 
REMARK    2  A    between atoms: N_9  and  C_16 
REMARK    3  A    between atoms: C_19  and  C_20 
ROOT
HETATM    1  C   UNL     1       4.684  -7.576   8.791  1.00  0.00    -0.038 A 
HETATM    2  C   UNL     1       2.695  -6.511   7.911  1.00  0.00     0.060 C 
HETATM    3  C   UNL     1       3.684  -5.720   9.822  1.00  0.00     0.099 C 
HETATM    4  C   UNL     1       5.747  -8.559   8.392  1.00  0.00     0.075 A 
HETATM    5  C   UNL     1       5.425  -8.735   6.928  1.00  0.00    -0.059 A 
HETATM    6  N   UNL     1       2.570  -5.835   9.076  1.00  0.00    -0.341 N 
ATOM      7  HN  UNL     1       1.680  -5.434   9.373  1.00  0.00     0.167 HD
HETATM    8  C   UNL     1       4.637  -6.748   9.895  1.00  0.00     0.056 C 
HETATM    9  C   UNL     1       3.844  -7.304   7.699  1.00  0.00    -0.001 A 
HETATM   10  C   UNL     1       4.359  -7.967   6.506  1.00  0.00     0.018 A 
ENDROOT
BRANCH   2  11
HETATM   11  C   UNL     1       1.704  -6.269   6.849  1.00  0.00     0.059 C 
HETATM   12  C   UNL     1       1.380  -4.963   6.504  1.00  0.00     0.021 C 
HETATM   13  C   UNL     1       0.365  -4.697   5.583  1.00  0.00     0.018 C 
HETATM   14  C   UNL     1      -0.186  -5.738   4.886  1.00  0.00     0.091 C 
HETATM   15  N   UNL     1      -0.046  -7.018   5.356  1.00  0.00    -0.333 N 
HETATM   16  C   UNL     1       0.982  -7.372   6.193  1.00  0.00     0.257 C 
ATOM     17  HN  UNL     1      -0.724  -7.726   5.076  1.00  0.00     0.168 HD
HETATM   18  O   UNL     1       1.263  -8.555   6.366  1.00  0.00    -0.267 OA
ENDBRANCH   2  11
BRANCH   3  19
HETATM   19  N   UNL     1       4.063  -4.473  10.227  1.00  0.00    -0.385 N 
ATOM     20  HN2 UNL     1       3.370  -3.726  10.174  1.00  0.00     0.157 HD
ATOM     21  HN1 UNL     1       4.907  -4.386  10.792  1.00  0.00     0.157 HD
ENDBRANCH   3  19
BRANCH   5  22
HETATM   22  C   UNL     1       6.111  -9.746   6.069  1.00  0.00     0.044 C 
HETATM   23  C   UNL     1       7.613  -9.885   6.369  1.00  0.00     0.023 C 
HETATM   24  C   UNL     1       8.129 -10.653   5.151  1.00  0.00     0.013 C 
HETATM   25  C   UNL     1       6.919 -10.737   4.206  1.00  0.00     0.057 C 
HETATM   26  C   UNL     1       6.147  -9.479   4.571  1.00  0.00     0.143 C 
HETATM   27  C   UNL     1       5.982 -11.783   4.811  1.00  0.00     0.013 C 
HETATM   28  O   UNL     1       5.717  -8.590   3.905  1.00  0.00    -0.296 OA
HETATM   29  C   UNL     1       5.476 -11.130   6.089  1.00  0.00     0.023 C 
ENDBRANCH   5  22
TORSDOF 3
