REMARK  2 active torsions:
REMARK  status: ('A' for Active; 'I' for Inactive)
REMARK    1  A    between atoms: C_12  and  N_14 
REMARK    2  A    between atoms: C_13  and  C_20 
ROOT
HETATM    1  C   UNL     1      -4.318  19.946  14.715  1.00  0.00     0.045 C 
HETATM    2  C   UNL     1      -3.823  20.644  15.757  1.00  0.00     0.048 C 
HETATM    3  N   UNL     1      -2.504  20.443  15.856  1.00  0.00    -0.342 N 
ATOM      4  HN  UNL     1      -1.836  20.989  16.400  1.00  0.00     0.167 HD
HETATM    5  C   UNL     1      -5.608  22.232  16.067  1.00  0.00     0.003 C 
HETATM    6  C   UNL     1      -2.242  19.371  15.089  1.00  0.00     0.100 C 
HETATM    7  C   UNL     1      -6.031  22.462  14.779  1.00  0.00     0.016 C 
HETATM    8  C   UNL     1      -3.359  19.036  14.404  1.00  0.00     0.065 C 
HETATM    9  C   UNL     1      -5.768  21.603  13.720  1.00  0.00     0.027 C 
HETATM   10  O   UNL     1      -6.286  19.399  13.702  1.00  0.00    -0.287 OA
HETATM   11  C   UNL     1      -5.439  20.305  14.032  1.00  0.00     0.195 C 
HETATM   12  C   UNL     1      -4.559  21.492  16.515  1.00  0.00     0.030 C 
ENDROOT
BRANCH   9  13
HETATM   13  C   UNL     1      -5.759  22.059  12.388  1.00  0.00     0.006 C 
HETATM   14  C   UNL     1      -4.708  22.885  12.057  1.00  0.00     0.014 C 
HETATM   15  C   UNL     1      -4.669  23.773  11.028  1.00  0.00     0.001 C 
HETATM   16  C   UNL     1      -5.675  24.224  10.247  1.00  0.00     0.001 C 
HETATM   17  C   UNL     1      -6.961  23.840  10.300  1.00  0.00     0.015 C 
HETATM   18  C   UNL     1      -7.462  22.619  10.709  1.00  0.00     0.007 C 
HETATM   19  C   UNL     1      -6.711  21.687  11.437  1.00  0.00     0.056 C 
HETATM   20  C   UNL     1      -8.655  22.163  10.142  1.00  0.00     0.102 C 
HETATM   21  N   UNL     1      -7.030  20.370  11.247  1.00  0.00    -0.351 N 
HETATM   22  C   UNL     1      -7.815  20.049  10.183  1.00  0.00     0.180 C 
ATOM     23  HN  UNL     1      -6.689  19.650  11.884  1.00  0.00     0.166 HD
HETATM   24  N   UNL     1      -8.821  20.876   9.851  1.00  0.00    -0.361 N 
ATOM     25  HN  UNL     1      -9.669  20.534   9.399  1.00  0.00     0.166 HD
ENDBRANCH   9  13
BRANCH   6  26
HETATM   26  N   UNL     1      -1.061  18.746  15.085  1.00  0.00    -0.385 N 
ATOM     27  HN2 UNL     1      -0.219  18.999  15.602  1.00  0.00     0.157 HD
ATOM     28  HN1 UNL     1      -0.862  17.932  14.503  1.00  0.00     0.157 HD
ENDBRANCH   6  26
TORSDOF 2
