MODEL 1
REMARK VINA RESULT:      -6.7      0.000      0.000
REMARK  2 active torsions:
REMARK  status: ('A' for Active; 'I' for Inactive)
REMARK    1  A    between atoms: C_2  and  O_6 
REMARK    2  A    between atoms: O_4  and  C_14 
ROOT
HETATM    1  C   UNL     1      83.520 -46.861  23.460  1.00  0.00     0.008 C 
HETATM    2  C   UNL     1      81.522 -46.433  20.366  1.00  0.00     0.180 C 
HETATM    3  C   UNL     1      83.231 -48.008  21.160  1.00  0.00     0.073 C 
HETATM    4  C   UNL     1      82.536 -43.913  23.113  1.00  0.00     0.001 C 
HETATM    5  C   UNL     1      82.275 -45.853  21.524  1.00  0.00    -0.021 C 
HETATM    6  C   UNL     1      83.631 -45.811  24.352  1.00  0.00     0.001 C 
HETATM    7  C   UNL     1      82.144 -44.530  21.937  1.00  0.00     0.010 C 
HETATM    8  C   UNL     1      83.093 -46.860  22.115  1.00  0.00    -0.047 C 
HETATM    9  C   UNL     1      83.141 -44.497  24.265  1.00  0.00     0.000 C 
HETATM   10  C   UNL     1      82.038 -47.854  20.243  1.00  0.00     0.155 C 
ENDROOT
BRANCH   2  11
HETATM   11  O   UNL     1      81.652 -45.682  19.173  1.00  0.00    -0.388 OA
ATOM     12  HO  UNL     1      82.138 -44.874  19.285  1.00  0.00     0.210 HD
ENDBRANCH   2  11
BRANCH  10  13
HETATM   13  O   UNL     1      81.078 -48.832  20.550  1.00  0.00    -0.392 OA
ATOM     14  HO  UNL     1      81.363 -49.719  20.366  1.00  0.00     0.210 HD
ENDBRANCH  10  13
TORSDOF 2
ENDMDL
MODEL 2
REMARK VINA RESULT:      -6.6      2.685      4.631
REMARK  2 active torsions:
REMARK  status: ('A' for Active; 'I' for Inactive)
REMARK    1  A    between atoms: C_2  and  O_6 
REMARK    2  A    between atoms: O_4  and  C_14 
ROOT
HETATM    1  C   UNL     1      81.585 -45.346  21.051  1.00  0.00     0.008 C 
HETATM    2  C   UNL     1      83.261 -45.063  24.346  1.00  0.00     0.180 C 
HETATM    3  C   UNL     1      82.454 -43.497  22.636  1.00  0.00     0.073 C 
HETATM    4  C   UNL     1      83.150 -47.952  21.782  1.00  0.00     0.001 C 
HETATM    5  C   UNL     1      83.063 -45.768  23.038  1.00  0.00    -0.021 C 
HETATM    6  C   UNL     1      81.597 -46.554  20.379  1.00  0.00     0.001 C 
HETATM    7  C   UNL     1      83.481 -47.074  22.801  1.00  0.00     0.010 C 
HETATM    8  C   UNL     1      82.381 -44.906  22.130  1.00  0.00    -0.047 C 
HETATM    9  C   UNL     1      82.226 -47.765  20.712  1.00  0.00     0.000 C 
HETATM   10  C   UNL     1      82.730 -43.662  24.114  1.00  0.00     0.155 C 
ENDROOT
BRANCH   2  11
HETATM   11  O   UNL     1      84.599 -45.090  24.806  1.00  0.00    -0.388 OA
ATOM     12  HO  UNL     1      84.866 -45.935  25.148  1.00  0.00     0.210 HD
ENDBRANCH   2  11
BRANCH  10  13
HETATM   13  O   UNL     1      81.568 -43.370  24.847  1.00  0.00    -0.392 OA
ATOM     14  HO  UNL     1      81.588 -42.521  25.272  1.00  0.00     0.210 HD
ENDBRANCH  10  13
TORSDOF 2
ENDMDL
MODEL 3
REMARK VINA RESULT:      -6.6      2.639      3.825
REMARK  2 active torsions:
REMARK  status: ('A' for Active; 'I' for Inactive)
REMARK    1  A    between atoms: C_2  and  O_6 
REMARK    2  A    between atoms: O_4  and  C_14 
ROOT
HETATM    1  C   UNL     1      82.448 -45.120  21.860  1.00  0.00     0.008 C 
HETATM    2  C   UNL     1      84.551 -46.503  24.582  1.00  0.00     0.180 C 
HETATM    3  C   UNL     1      83.510 -47.378  22.538  1.00  0.00     0.073 C 
HETATM    4  C   UNL     1      82.221 -43.424  24.477  1.00  0.00     0.001 C 
HETATM    5  C   UNL     1      83.466 -45.585  24.109  1.00  0.00    -0.021 C 
HETATM    6  C   UNL     1      81.796 -43.915  22.045  1.00  0.00     0.001 C 
HETATM    7  C   UNL     1      82.997 -44.507  24.855  1.00  0.00     0.010 C 
HETATM    8  C   UNL     1      83.035 -45.983  22.810  1.00  0.00    -0.047 C 
HETATM    9  C   UNL     1      81.731 -43.089  23.180  1.00  0.00     0.000 C 
HETATM   10  C   UNL     1      84.667 -47.555  23.495  1.00  0.00     0.155 C 
ENDROOT
BRANCH   2  11
HETATM   11  O   UNL     1      84.315 -47.045  25.868  1.00  0.00    -0.388 OA
ATOM     12  HO  UNL     1      83.548 -47.603  25.910  1.00  0.00     0.210 HD
ENDBRANCH   2  11
BRANCH  10  13
HETATM   13  O   UNL     1      85.878 -47.505  22.787  1.00  0.00    -0.392 OA
ATOM     14  HO  UNL     1      86.632 -47.775  23.298  1.00  0.00     0.210 HD
ENDBRANCH  10  13
TORSDOF 2
ENDMDL
MODEL 4
REMARK VINA RESULT:      -6.3      2.782      3.941
REMARK  2 active torsions:
REMARK  status: ('A' for Active; 'I' for Inactive)
REMARK    1  A    between atoms: C_2  and  O_6 
REMARK    2  A    between atoms: O_4  and  C_14 
ROOT
HETATM    1  C   UNL     1      82.678 -46.691  21.636  1.00  0.00     0.008 C 
HETATM    2  C   UNL     1      84.856 -46.654  24.636  1.00  0.00     0.180 C 
HETATM    3  C   UNL     1      83.723 -48.373  23.299  1.00  0.00     0.073 C 
HETATM    4  C   UNL     1      82.580 -43.933  23.106  1.00  0.00     0.001 C 
HETATM    5  C   UNL     1      83.771 -46.043  23.804  1.00  0.00    -0.021 C 
HETATM    6  C   UNL     1      82.056 -45.526  21.229  1.00  0.00     0.001 C 
HETATM    7  C   UNL     1      83.350 -44.723  23.943  1.00  0.00     0.010 C 
HETATM    8  C   UNL     1      83.285 -47.005  22.871  1.00  0.00    -0.047 C 
HETATM    9  C   UNL     1      82.049 -44.252  21.821  1.00  0.00     0.000 C 
HETATM   10  C   UNL     1      84.911 -48.104  24.194  1.00  0.00     0.155 C 
ENDROOT
BRANCH   2  11
HETATM   11  O   UNL     1      84.659 -46.496  26.029  1.00  0.00    -0.388 OA
ATOM     12  HO  UNL     1      85.266 -45.888  26.432  1.00  0.00     0.210 HD
ENDBRANCH   2  11
BRANCH  10  13
HETATM   13  O   UNL     1      86.096 -48.445  23.522  1.00  0.00    -0.392 OA
ATOM     14  HO  UNL     1      86.386 -49.335  23.684  1.00  0.00     0.210 HD
ENDBRANCH  10  13
TORSDOF 2
ENDMDL
MODEL 5
REMARK VINA RESULT:      -6.2      2.219      3.165
REMARK  2 active torsions:
REMARK  status: ('A' for Active; 'I' for Inactive)
REMARK    1  A    between atoms: C_2  and  O_6 
REMARK    2  A    between atoms: O_4  and  C_14 
ROOT
HETATM    1  C   UNL     1      84.462 -45.775  24.916  1.00  0.00     0.008 C 
HETATM    2  C   UNL     1      83.924 -48.540  22.506  1.00  0.00     0.180 C 
HETATM    3  C   UNL     1      85.657 -47.931  24.135  1.00  0.00     0.073 C 
HETATM    4  C   UNL     1      82.538 -44.935  22.599  1.00  0.00     0.001 C 
HETATM    5  C   UNL     1      83.809 -47.094  22.880  1.00  0.00    -0.021 C 
HETATM    6  C   UNL     1      83.736 -44.605  24.787  1.00  0.00     0.001 C 
HETATM    7  C   UNL     1      82.966 -46.199  22.227  1.00  0.00     0.010 C 
HETATM    8  C   UNL     1      84.664 -46.818  23.987  1.00  0.00    -0.047 C 
HETATM    9  C   UNL     1      82.810 -44.222  23.803  1.00  0.00     0.000 C 
HETATM   10  C   UNL     1      85.002 -49.091  23.419  1.00  0.00     0.155 C 
ENDROOT
BRANCH   2  11
HETATM   11  O   UNL     1      84.188 -48.751  21.131  1.00  0.00    -0.388 OA
ATOM     12  HO  UNL     1      85.107 -48.673  20.905  1.00  0.00     0.210 HD
ENDBRANCH   2  11
BRANCH  10  13
HETATM   13  O   UNL     1      84.525 -50.018  24.361  1.00  0.00    -0.392 OA
ATOM     14  HO  UNL     1      83.595 -50.195  24.285  1.00  0.00     0.210 HD
ENDBRANCH  10  13
TORSDOF 2
ENDMDL
MODEL 6
REMARK VINA RESULT:      -6.2      0.744      2.586
REMARK  2 active torsions:
REMARK  status: ('A' for Active; 'I' for Inactive)
REMARK    1  A    between atoms: C_2  and  O_6 
REMARK    2  A    between atoms: O_4  and  C_14 
ROOT
HETATM    1  C   UNL     1      82.543 -44.523  22.526  1.00  0.00     0.008 C 
HETATM    2  C   UNL     1      82.248 -47.451  20.272  1.00  0.00     0.180 C 
HETATM    3  C   UNL     1      80.956 -45.405  20.686  1.00  0.00     0.073 C 
HETATM    4  C   UNL     1      84.071 -47.009  23.650  1.00  0.00     0.001 C 
HETATM    5  C   UNL     1      82.615 -46.856  21.597  1.00  0.00    -0.021 C 
HETATM    6  C   UNL     1      83.372 -44.591  23.631  1.00  0.00     0.001 C 
HETATM    7  C   UNL     1      83.422 -47.501  22.529  1.00  0.00     0.010 C 
HETATM    8  C   UNL     1      82.034 -45.560  21.715  1.00  0.00    -0.047 C 
HETATM    9  C   UNL     1      84.130 -45.665  24.125  1.00  0.00     0.000 C 
HETATM   10  C   UNL     1      81.307 -46.442  19.643  1.00  0.00     0.155 C 
ENDROOT
BRANCH   2  11
HETATM   11  O   UNL     1      81.698 -48.752  20.369  1.00  0.00    -0.388 OA
ATOM     12  HO  UNL     1      81.208 -48.898  21.169  1.00  0.00     0.210 HD
ENDBRANCH   2  11
BRANCH  10  13
HETATM   13  O   UNL     1      81.836 -45.809  18.506  1.00  0.00    -0.392 OA
ATOM     14  HO  UNL     1      81.959 -46.392  17.766  1.00  0.00     0.210 HD
ENDBRANCH  10  13
TORSDOF 2
ENDMDL
MODEL 7
REMARK VINA RESULT:      -6.2      2.889      4.666
REMARK  2 active torsions:
REMARK  status: ('A' for Active; 'I' for Inactive)
REMARK    1  A    between atoms: C_2  and  O_6 
REMARK    2  A    between atoms: O_4  and  C_14 
ROOT
HETATM    1  C   UNL     1      82.871 -45.327  22.908  1.00  0.00     0.008 C 
HETATM    2  C   UNL     1      84.817 -48.155  24.306  1.00  0.00     0.180 C 
HETATM    3  C   UNL     1      84.801 -45.716  24.584  1.00  0.00     0.073 C 
HETATM    4  C   UNL     1      82.821 -47.816  21.016  1.00  0.00     0.001 C 
HETATM    5  C   UNL     1      84.105 -47.500  23.163  1.00  0.00    -0.021 C 
HETATM    6  C   UNL     1      82.134 -45.509  21.753  1.00  0.00     0.001 C 
HETATM    7  C   UNL     1      83.703 -48.184  22.019  1.00  0.00     0.010 C 
HETATM    8  C   UNL     1      83.903 -46.119  23.454  1.00  0.00    -0.047 C 
HETATM    9  C   UNL     1      82.028 -46.634  20.918  1.00  0.00     0.000 C 
HETATM   10  C   UNL     1      85.121 -47.025  25.271  1.00  0.00     0.155 C 
ENDROOT
BRANCH   2  11
HETATM   11  O   UNL     1      85.965 -48.886  23.915  1.00  0.00    -0.388 OA
ATOM     12  HO  UNL     1      86.618 -48.963  24.600  1.00  0.00     0.210 HD
ENDBRANCH   2  11
BRANCH  10  13
HETATM   13  O   UNL     1      84.412 -47.109  26.480  1.00  0.00    -0.392 OA
ATOM     14  HO  UNL     1      84.362 -46.286  26.952  1.00  0.00     0.210 HD
ENDBRANCH  10  13
TORSDOF 2
ENDMDL
MODEL 8
REMARK VINA RESULT:      -6.2      2.322      4.311
REMARK  2 active torsions:
REMARK  status: ('A' for Active; 'I' for Inactive)
REMARK    1  A    between atoms: C_2  and  O_6 
REMARK    2  A    between atoms: O_4  and  C_14 
ROOT
HETATM    1  C   UNL     1      81.902 -44.932  21.544  1.00  0.00     0.008 C 
HETATM    2  C   UNL     1      83.499 -47.544  23.635  1.00  0.00     0.180 C 
HETATM    3  C   UNL     1      83.416 -45.091  23.635  1.00  0.00     0.073 C 
HETATM    4  C   UNL     1      82.278 -47.608  19.970  1.00  0.00     0.001 C 
HETATM    5  C   UNL     1      83.056 -47.033  22.299  1.00  0.00    -0.021 C 
HETATM    6  C   UNL     1      81.439 -45.256  20.282  1.00  0.00     0.001 C 
HETATM    7  C   UNL     1      82.918 -47.844  21.176  1.00  0.00     0.010 C 
HETATM    8  C   UNL     1      82.791 -45.635  22.386  1.00  0.00    -0.047 C 
HETATM    9  C   UNL     1      81.524 -46.465  19.572  1.00  0.00     0.000 C 
HETATM   10  C   UNL     1      83.579 -46.310  24.513  1.00  0.00     0.155 C 
ENDROOT
BRANCH   2  11
HETATM   11  O   UNL     1      84.706 -48.281  23.588  1.00  0.00    -0.388 OA
ATOM     12  HO  UNL     1      84.627 -49.111  23.133  1.00  0.00     0.210 HD
ENDBRANCH   2  11
BRANCH  10  13
HETATM   13  O   UNL     1      82.621 -46.285  25.540  1.00  0.00    -0.392 OA
ATOM     14  HO  UNL     1      82.587 -45.460  26.011  1.00  0.00     0.210 HD
ENDBRANCH  10  13
TORSDOF 2
ENDMDL
MODEL 9
REMARK VINA RESULT:      -6.1      2.309      3.502
REMARK  2 active torsions:
REMARK  status: ('A' for Active; 'I' for Inactive)
REMARK    1  A    between atoms: C_2  and  O_6 
REMARK    2  A    between atoms: O_4  and  C_14 
ROOT
HETATM    1  C   UNL     1      82.743 -45.590  22.493  1.00  0.00     0.008 C 
HETATM    2  C   UNL     1      85.302 -48.222  23.015  1.00  0.00     0.180 C 
HETATM    3  C   UNL     1      83.213 -48.019  21.741  1.00  0.00     0.073 C 
HETATM    4  C   UNL     1      84.314 -45.167  25.163  1.00  0.00     0.001 C 
HETATM    5  C   UNL     1      84.480 -47.080  23.530  1.00  0.00    -0.021 C 
HETATM    6  C   UNL     1      82.677 -44.519  23.365  1.00  0.00     0.001 C 
HETATM    7  C   UNL     1      84.784 -46.383  24.696  1.00  0.00     0.010 C 
HETATM    8  C   UNL     1      83.394 -46.834  22.640  1.00  0.00    -0.047 C 
HETATM    9  C   UNL     1      83.415 -44.258  24.531  1.00  0.00     0.000 C 
HETATM   10  C   UNL     1      84.556 -48.712  21.788  1.00  0.00     0.155 C 
ENDROOT
BRANCH   2  11
HETATM   11  O   UNL     1      85.531 -49.235  23.977  1.00  0.00    -0.388 OA
ATOM     12  HO  UNL     1      85.447 -50.114  23.630  1.00  0.00     0.210 HD
ENDBRANCH   2  11
BRANCH  10  13
HETATM   13  O   UNL     1      85.243 -48.491  20.584  1.00  0.00    -0.392 OA
ATOM     14  HO  UNL     1      85.568 -47.604  20.486  1.00  0.00     0.210 HD
ENDBRANCH  10  13
TORSDOF 2
ENDMDL
