REMARK  4 active torsions:
REMARK  status: ('A' for Active; 'I' for Inactive)
REMARK    1  A    between atoms: O_1  and  C_22 
REMARK    2  A    between atoms: O_3  and  C_20 
REMARK    3  A    between atoms: C_6  and  O_15 
REMARK    4  A    between atoms: C_12  and  O_25 
ROOT
HETATM    1  C   UNL     1      12.326  43.526  74.501  1.00  0.00     0.050 C 
HETATM    2  C   UNL     1      11.133  43.717  73.586  1.00  0.00     0.318 C 
HETATM    3  C   UNL     1      14.296  43.072  75.587  1.00  0.00    -0.044 C 
HETATM    4  N   UNL     1      10.292  42.540  73.616  1.00  0.00    -0.296 N 
ATOM      5  HN  UNL     1       9.975  42.116  72.744  1.00  0.00     0.168 HD
HETATM    6  C   UNL     1      13.228  42.701  76.408  1.00  0.00     0.019 C 
HETATM    7  C   UNL     1      15.727  42.706  75.869  1.00  0.00     0.079 C 
HETATM    8  C   UNL     1      17.026  44.812  75.497  1.00  0.00     0.153 C 
HETATM    9  F   UNL     1      10.445  44.767  74.095  1.00  0.00    -0.182 F 
HETATM   10  C   UNL     1      16.657  43.329  73.572  1.00  0.00     0.049 C 
HETATM   11  C   UNL     1      14.451  44.588  73.364  1.00  0.00    -0.009 C 
HETATM   12  C   UNL     1      12.040  42.972  75.734  1.00  0.00    -0.005 C 
HETATM   13  C   UNL     1      13.742  43.741  74.393  1.00  0.00    -0.019 C 
HETATM   14  C   UNL     1      10.620  42.561  76.055  1.00  0.00     0.244 C 
HETATM   15  C   UNL     1      15.984  44.679  73.256  1.00  0.00     0.014 C 
HETATM   16  C   UNL     1      16.878  43.337  75.081  1.00  0.00     0.088 C 
HETATM   17  O   UNL     1       9.066  41.145  74.934  1.00  0.00    -0.270 OA
HETATM   18  C   UNL     1      16.555  45.658  74.304  1.00  0.00     0.043 C 
HETATM   19  C   UNL     1       9.929  42.007  74.794  1.00  0.00     0.255 C 
ENDROOT
BRANCH   2  20
HETATM   20  O   UNL     1      11.492  43.975  72.310  1.00  0.00    -0.341 OA
ATOM     21  HO  UNL     1      10.744  44.095  71.736  1.00  0.00     0.215 HD
ENDBRANCH   2  20
BRANCH  14  22
HETATM   22  O   UNL     1       9.987  43.790  76.404  1.00  0.00    -0.381 OA
ATOM     23  HO  UNL     1       9.095  43.532  76.606  1.00  0.00     0.211 HD
ENDBRANCH  14  22
BRANCH  16  24
HETATM   24  O   UNL     1      18.041  42.598  75.453  1.00  0.00    -0.387 OA
ATOM     25  HO  UNL     1      18.755  42.990  74.964  1.00  0.00     0.210 HD
ENDBRANCH  16  24
BRANCH   8  26
HETATM   26  O   UNL     1      18.397  45.119  75.788  1.00  0.00    -0.393 OA
ATOM     27  HO  UNL     1      18.488  46.029  76.045  1.00  0.00     0.210 HD
ENDBRANCH   8  26
TORSDOF 4
