REMARK  3 active torsions:
REMARK  status: ('A' for Active; 'I' for Inactive)
REMARK    1  A    between atoms: C_8  and  C_16 
REMARK    2  A    between atoms: C_13  and  C_18 
REMARK    3  A    between atoms: C_16  and  C_18 
ROOT
HETATM    1  C   UNL     1     -37.017 -15.076 -41.456  1.00  0.00     0.007 C 
HETATM    2  O   UNL     1     -39.552 -10.653 -38.330  1.00  0.00    -0.298 OA
HETATM    3  C   UNL     1     -39.930 -12.739 -40.741  1.00  0.00     0.046 C 
HETATM    4  C   UNL     1     -39.461 -11.859 -38.398  1.00  0.00     0.131 C 
HETATM    5  C   UNL     1     -38.024 -14.598 -40.581  1.00  0.00    -0.052 C 
HETATM    6  C   UNL     1     -37.287 -13.246 -38.517  1.00  0.00     0.017 C 
HETATM    7  C   UNL     1     -40.190 -14.980 -41.841  1.00  0.00     0.007 C 
HETATM    8  C   UNL     1     -38.344 -12.574 -37.608  1.00  0.00     0.056 C 
HETATM    9  C   UNL     1     -40.414 -12.652 -39.279  1.00  0.00     0.083 C 
HETATM   10  C   UNL     1     -37.289 -15.989 -42.526  1.00  0.00     0.001 C 
HETATM   11  C   UNL     1     -39.744 -15.679 -43.001  1.00  0.00     0.001 C 
HETATM   12  C   UNL     1     -39.342 -14.108 -41.100  1.00  0.00    -0.051 C 
HETATM   13  C   UNL     1     -38.440 -15.957 -43.349  1.00  0.00     0.000 C 
HETATM   14  C   UNL     1     -37.725 -14.600 -39.088  1.00  0.00     0.040 C 
ENDROOT
BRANCH   8  15
HETATM   15  C   UNL     1     -37.671 -11.684 -36.542  1.00  0.00     0.027 C 
BRANCH  15  16
HETATM   16  C   UNL     1     -38.231 -11.875 -35.117  1.00  0.00     0.083 C 
HETATM   17  C   UNL     1     -39.698 -12.325 -35.129  1.00  0.00     0.021 C 
BRANCH  16  18
HETATM   18  C   UNL     1     -38.099 -10.614 -34.262  1.00  0.00     0.176 C 
HETATM   19  O   UNL     1     -38.377  -9.496 -34.783  1.00  0.00    -0.648 OA
HETATM   20  O   UNL     1     -37.747 -10.747 -33.077  1.00  0.00    -0.648 OA
ENDBRANCH  16  18
ENDBRANCH  15  16
ENDBRANCH   8  15
TORSDOF 3
