MODEL 1
REMARK VINA RESULT:      -7.0      0.000      0.000
REMARK  3 active torsions:
REMARK  status: ('A' for Active; 'I' for Inactive)
REMARK    1  A    between atoms: O_6  and  C_10 
REMARK    2  A    between atoms: C_11  and  C_20 
REMARK    3  A    between atoms: C_15  and  O_16 
ROOT
HETATM    1  O   UNL     1      35.424  -6.348  92.262  1.00  0.00    -0.650 OA
HETATM    2  N   UNL     1      34.170  -6.101  90.072  1.00  0.00    -0.312 N 
ATOM      3  HN  UNL     1      34.748  -5.733  89.316  1.00  0.00     0.170 HD
HETATM    4  C   UNL     1      32.934  -5.680  92.426  1.00  0.00     0.264 C 
HETATM    5  C   UNL     1      33.250  -7.047  89.737  1.00  0.00     0.051 C 
HETATM    6  C   UNL     1      30.737  -6.592  89.938  1.00  0.00     0.049 C 
HETATM    7  O   UNL     1      34.696  -4.063  91.431  1.00  0.00    -0.650 OA
HETATM    8  C   UNL     1      32.152  -6.935  92.047  1.00  0.00     0.190 C 
HETATM    9  C   UNL     1      31.990  -7.193  90.548  1.00  0.00    -0.025 C 
HETATM   10  P   UNL     1      34.439  -5.499  91.565  1.00  0.00     0.242 P 
ENDROOT
BRANCH   5  11
HETATM   11  C   UNL     1      33.363  -7.602  88.378  1.00  0.00    -0.003 C 
HETATM   12  C   UNL     1      34.071  -6.872  87.404  1.00  0.00     0.014 C 
HETATM   13  C   UNL     1      33.661  -6.971  86.069  1.00  0.00     0.001 C 
HETATM   14  C   UNL     1      32.724  -7.938  85.688  1.00  0.00     0.001 C 
HETATM   15  C   UNL     1      32.130  -8.758  86.658  1.00  0.00     0.007 C 
HETATM   16  C   UNL     1      32.745  -8.819  87.924  1.00  0.00    -0.050 C 
HETATM   17  C   UNL     1      32.898 -10.113  88.699  1.00  0.00     0.049 C 
ENDBRANCH   5  11
BRANCH   8  18
HETATM   18  O   UNL     1      30.952  -7.055  92.779  1.00  0.00    -0.388 OA
ATOM     19  HO  UNL     1      30.336  -7.645  92.361  1.00  0.00     0.210 HD
ENDBRANCH   8  18
BRANCH   4  20
HETATM   20  O   UNL     1      32.199  -4.511  92.650  1.00  0.00    -0.380 OA
ATOM     21  HO  UNL     1      32.405  -3.758  92.109  1.00  0.00     0.210 HD
ENDBRANCH   4  20
TORSDOF 3
ENDMDL
MODEL 2
REMARK VINA RESULT:      -6.8      6.471      8.131
REMARK  3 active torsions:
REMARK  status: ('A' for Active; 'I' for Inactive)
REMARK    1  A    between atoms: O_6  and  C_10 
REMARK    2  A    between atoms: C_11  and  C_20 
REMARK    3  A    between atoms: C_15  and  O_16 
ROOT
HETATM    1  O   UNL     1      29.986  -8.857  81.952  1.00  0.00    -0.650 OA
HETATM    2  N   UNL     1      31.353  -7.341  83.456  1.00  0.00    -0.312 N 
ATOM      3  HN  UNL     1      30.782  -6.714  84.022  1.00  0.00     0.170 HD
HETATM    4  C   UNL     1      32.256  -8.048  81.020  1.00  0.00     0.264 C 
HETATM    5  C   UNL     1      32.478  -7.842  84.038  1.00  0.00     0.051 C 
HETATM    6  C   UNL     1      34.812  -7.230  83.176  1.00  0.00     0.049 C 
HETATM    7  O   UNL     1      30.292  -6.401  81.391  1.00  0.00    -0.650 OA
HETATM    8  C   UNL     1      33.314  -8.805  81.818  1.00  0.00     0.190 C 
HETATM    9  C   UNL     1      33.662  -8.220  83.189  1.00  0.00    -0.025 C 
HETATM   10  P   UNL     1      30.830  -7.647  81.941  1.00  0.00     0.242 P 
ENDROOT
BRANCH   5  11
HETATM   11  C   UNL     1      32.607  -7.617  85.487  1.00  0.00    -0.003 C 
HETATM   12  C   UNL     1      33.689  -6.848  85.961  1.00  0.00     0.014 C 
HETATM   13  C   UNL     1      34.221  -7.153  87.218  1.00  0.00     0.001 C 
HETATM   14  C   UNL     1      33.557  -8.042  88.070  1.00  0.00     0.001 C 
HETATM   15  C   UNL     1      32.396  -8.695  87.634  1.00  0.00     0.007 C 
HETATM   16  C   UNL     1      31.748  -8.177  86.495  1.00  0.00    -0.050 C 
HETATM   17  C   UNL     1      30.239  -8.063  86.392  1.00  0.00     0.049 C 
ENDBRANCH   5  11
BRANCH   8  18
HETATM   18  O   UNL     1      34.441  -9.129  81.034  1.00  0.00    -0.388 OA
ATOM     19  HO  UNL     1      34.830  -9.956  81.291  1.00  0.00     0.210 HD
ENDBRANCH   8  18
BRANCH   4  20
HETATM   20  O   UNL     1      32.706  -7.082  80.115  1.00  0.00    -0.380 OA
ATOM     21  HO  UNL     1      32.162  -6.909  79.357  1.00  0.00     0.210 HD
ENDBRANCH   4  20
TORSDOF 3
ENDMDL
MODEL 3
REMARK VINA RESULT:      -6.4      3.967      5.259
REMARK  3 active torsions:
REMARK  status: ('A' for Active; 'I' for Inactive)
REMARK    1  A    between atoms: O_6  and  C_10 
REMARK    2  A    between atoms: C_11  and  C_20 
REMARK    3  A    between atoms: C_15  and  O_16 
ROOT
HETATM    1  O   UNL     1      33.924  -9.280  87.737  1.00  0.00    -0.650 OA
HETATM    2  N   UNL     1      33.657  -7.894  85.630  1.00  0.00    -0.312 N 
ATOM      3  HN  UNL     1      34.546  -7.629  85.207  1.00  0.00     0.170 HD
HETATM    4  C   UNL     1      31.928  -7.641  87.679  1.00  0.00     0.264 C 
HETATM    5  C   UNL     1      32.635  -8.190  84.781  1.00  0.00     0.051 C 
HETATM    6  C   UNL     1      30.531  -6.732  84.666  1.00  0.00     0.049 C 
HETATM    7  O   UNL     1      34.370  -6.782  87.759  1.00  0.00    -0.650 OA
HETATM    8  C   UNL     1      30.933  -8.249  86.692  1.00  0.00     0.190 C 
HETATM    9  C   UNL     1      31.209  -7.975  85.212  1.00  0.00    -0.025 C 
HETATM   10  P   UNL     1      33.597  -7.922  87.261  1.00  0.00     0.242 P 
ENDROOT
BRANCH   5  11
HETATM   11  C   UNL     1      32.999  -8.330  83.361  1.00  0.00    -0.003 C 
HETATM   12  C   UNL     1      34.239  -7.822  82.925  1.00  0.00     0.014 C 
HETATM   13  C   UNL     1      34.334  -7.333  81.617  1.00  0.00     0.001 C 
HETATM   14  C   UNL     1      33.296  -7.549  80.704  1.00  0.00     0.001 C 
HETATM   15  C   UNL     1      32.119  -8.187  81.120  1.00  0.00     0.007 C 
HETATM   16  C   UNL     1      32.157  -8.893  82.339  1.00  0.00    -0.050 C 
HETATM   17  C   UNL     1      31.492 -10.242  82.525  1.00  0.00     0.049 C 
ENDBRANCH   5  11
BRANCH   8  18
HETATM   18  O   UNL     1      29.596  -8.018  87.075  1.00  0.00    -0.388 OA
ATOM     19  HO  UNL     1      29.032  -7.859  86.328  1.00  0.00     0.210 HD
ENDBRANCH   8  18
BRANCH   4  20
HETATM   20  O   UNL     1      31.619  -6.383  88.204  1.00  0.00    -0.380 OA
ATOM     21  HO  UNL     1      30.832  -6.312  88.730  1.00  0.00     0.210 HD
ENDBRANCH   4  20
TORSDOF 3
ENDMDL
MODEL 4
REMARK VINA RESULT:      -6.3      3.388      5.586
REMARK  3 active torsions:
REMARK  status: ('A' for Active; 'I' for Inactive)
REMARK    1  A    between atoms: O_6  and  C_10 
REMARK    2  A    between atoms: C_11  and  C_20 
REMARK    3  A    between atoms: C_15  and  O_16 
ROOT
HETATM    1  O   UNL     1      29.929  -7.889  87.624  1.00  0.00    -0.650 OA
HETATM    2  N   UNL     1      31.644  -6.558  88.934  1.00  0.00    -0.312 N 
ATOM      3  HN  UNL     1      31.416  -5.567  89.005  1.00  0.00     0.170 HD
HETATM    4  C   UNL     1      32.391  -8.633  87.389  1.00  0.00     0.264 C 
HETATM    5  C   UNL     1      32.226  -7.136  90.021  1.00  0.00     0.051 C 
HETATM    6  C   UNL     1      34.627  -8.026  89.935  1.00  0.00     0.049 C 
HETATM    7  O   UNL     1      31.576  -6.366  86.437  1.00  0.00    -0.650 OA
HETATM    8  C   UNL     1      32.748  -9.281  88.724  1.00  0.00     0.190 C 
HETATM    9  C   UNL     1      33.140  -8.319  89.848  1.00  0.00    -0.025 C 
HETATM   10  P   UNL     1      31.277  -7.298  87.526  1.00  0.00     0.242 P 
ENDROOT
BRANCH   5  11
HETATM   11  C   UNL     1      32.233  -6.328  91.252  1.00  0.00    -0.003 C 
HETATM   12  C   UNL     1      33.261  -5.383  91.438  1.00  0.00     0.014 C 
HETATM   13  C   UNL     1      33.693  -5.119  92.743  1.00  0.00     0.001 C 
HETATM   14  C   UNL     1      32.972  -5.607  93.838  1.00  0.00     0.001 C 
HETATM   15  C   UNL     1      31.859  -6.434  93.632  1.00  0.00     0.007 C 
HETATM   16  C   UNL     1      31.300  -6.462  92.339  1.00  0.00    -0.050 C 
HETATM   17  C   UNL     1      29.804  -6.469  92.093  1.00  0.00     0.049 C 
ENDBRANCH   5  11
BRANCH   8  18
HETATM   18  O   UNL     1      33.634 -10.367  88.569  1.00  0.00    -0.388 OA
ATOM     19  HO  UNL     1      34.158 -10.291  87.780  1.00  0.00     0.210 HD
ENDBRANCH   8  18
BRANCH   4  20
HETATM   20  O   UNL     1      33.418  -8.494  86.451  1.00  0.00    -0.380 OA
ATOM     21  HO  UNL     1      34.034  -9.212  86.370  1.00  0.00     0.210 HD
ENDBRANCH   4  20
TORSDOF 3
ENDMDL
MODEL 5
REMARK VINA RESULT:      -6.2      2.494      3.935
REMARK  3 active torsions:
REMARK  status: ('A' for Active; 'I' for Inactive)
REMARK    1  A    between atoms: O_6  and  C_10 
REMARK    2  A    between atoms: C_11  and  C_20 
REMARK    3  A    between atoms: C_15  and  O_16 
ROOT
HETATM    1  O   UNL     1      29.894  -5.669  90.159  1.00  0.00    -0.650 OA
HETATM    2  N   UNL     1      30.415  -7.312  88.299  1.00  0.00    -0.312 N 
ATOM      3  HN  UNL     1      29.681  -7.367  87.593  1.00  0.00     0.170 HD
HETATM    4  C   UNL     1      31.204  -7.792  90.828  1.00  0.00     0.264 C 
HETATM    5  C   UNL     1      31.700  -7.413  87.860  1.00  0.00     0.051 C 
HETATM    6  C   UNL     1      33.179  -9.401  88.512  1.00  0.00     0.049 C 
HETATM    7  O   UNL     1      28.736  -7.925  90.054  1.00  0.00    -0.650 OA
HETATM    8  C   UNL     1      32.603  -7.605  90.248  1.00  0.00     0.190 C 
HETATM    9  C   UNL     1      32.766  -7.963  88.769  1.00  0.00    -0.025 C 
HETATM   10  P   UNL     1      29.935  -7.110  89.846  1.00  0.00     0.242 P 
ENDROOT
BRANCH   5  11
HETATM   11  C   UNL     1      31.888  -7.345  86.402  1.00  0.00    -0.003 C 
HETATM   12  C   UNL     1      30.751  -7.314  85.571  1.00  0.00     0.014 C 
HETATM   13  C   UNL     1      30.836  -7.904  84.305  1.00  0.00     0.001 C 
HETATM   14  C   UNL     1      32.074  -8.310  83.795  1.00  0.00     0.001 C 
HETATM   15  C   UNL     1      33.226  -8.202  84.587  1.00  0.00     0.007 C 
HETATM   16  C   UNL     1      33.158  -7.375  85.725  1.00  0.00    -0.050 C 
HETATM   17  C   UNL     1      34.286  -6.447  86.132  1.00  0.00     0.049 C 
ENDBRANCH   5  11
BRANCH   8  18
HETATM   18  O   UNL     1      33.602  -8.151  91.080  1.00  0.00    -0.388 OA
ATOM     19  HO  UNL     1      33.650  -7.709  91.919  1.00  0.00     0.210 HD
ENDBRANCH   8  18
BRANCH   4  20
HETATM   20  O   UNL     1      30.926  -9.016  91.445  1.00  0.00    -0.380 OA
ATOM     21  HO  UNL     1      31.479  -9.272  92.173  1.00  0.00     0.210 HD
ENDBRANCH   4  20
TORSDOF 3
ENDMDL
MODEL 6
REMARK VINA RESULT:      -6.2      1.629      3.127
REMARK  3 active torsions:
REMARK  status: ('A' for Active; 'I' for Inactive)
REMARK    1  A    between atoms: O_6  and  C_10 
REMARK    2  A    between atoms: C_11  and  C_20 
REMARK    3  A    between atoms: C_15  and  O_16 
ROOT
HETATM    1  O   UNL     1      31.763  -5.474  92.946  1.00  0.00    -0.650 OA
HETATM    2  N   UNL     1      32.333  -7.408  91.409  1.00  0.00    -0.312 N 
ATOM      3  HN  UNL     1      31.717  -8.212  91.527  1.00  0.00     0.170 HD
HETATM    4  C   UNL     1      34.268  -5.834  92.425  1.00  0.00     0.264 C 
HETATM    5  C   UNL     1      32.750  -7.132  90.142  1.00  0.00     0.051 C 
HETATM    6  C   UNL     1      35.215  -7.335  89.475  1.00  0.00     0.049 C 
HETATM    7  O   UNL     1      32.930  -7.543  93.838  1.00  0.00    -0.650 OA
HETATM    8  C   UNL     1      34.444  -5.402  90.971  1.00  0.00     0.190 C 
HETATM    9  C   UNL     1      34.068  -6.443  89.915  1.00  0.00    -0.025 C 
HETATM   10  P   UNL     1      32.725  -6.576  92.758  1.00  0.00     0.242 P 
ENDROOT
BRANCH   5  11
HETATM   11  C   UNL     1      32.070  -7.873  89.067  1.00  0.00    -0.003 C 
HETATM   12  C   UNL     1      32.822  -8.763  88.274  1.00  0.00     0.014 C 
HETATM   13  C   UNL     1      32.449  -8.940  86.937  1.00  0.00     0.001 C 
HETATM   14  C   UNL     1      31.237  -8.425  86.467  1.00  0.00     0.001 C 
HETATM   15  C   UNL     1      30.426  -7.657  87.315  1.00  0.00     0.007 C 
HETATM   16  C   UNL     1      30.688  -7.720  88.698  1.00  0.00    -0.050 C 
HETATM   17  C   UNL     1      29.586  -7.788  89.737  1.00  0.00     0.049 C 
ENDBRANCH   5  11
BRANCH   8  18
HETATM   18  O   UNL     1      35.694  -4.789  90.747  1.00  0.00    -0.388 OA
ATOM     19  HO  UNL     1      36.335  -5.398  90.400  1.00  0.00     0.210 HD
ENDBRANCH   8  18
BRANCH   4  20
HETATM   20  O   UNL     1      35.378  -6.389  93.067  1.00  0.00    -0.380 OA
ATOM     21  HO  UNL     1      35.799  -7.129  92.646  1.00  0.00     0.210 HD
ENDBRANCH   4  20
TORSDOF 3
ENDMDL
MODEL 7
REMARK VINA RESULT:      -6.1      3.241      5.307
REMARK  3 active torsions:
REMARK  status: ('A' for Active; 'I' for Inactive)
REMARK    1  A    between atoms: O_6  and  C_10 
REMARK    2  A    between atoms: C_11  and  C_20 
REMARK    3  A    between atoms: C_15  and  O_16 
ROOT
HETATM    1  O   UNL     1      31.784  -8.406  86.704  1.00  0.00    -0.650 OA
HETATM    2  N   UNL     1      31.662  -6.494  88.364  1.00  0.00    -0.312 N 
ATOM      3  HN  UNL     1      30.938  -5.812  88.141  1.00  0.00     0.170 HD
HETATM    4  C   UNL     1      34.022  -7.623  87.728  1.00  0.00     0.264 C 
HETATM    5  C   UNL     1      31.870  -6.762  89.683  1.00  0.00     0.051 C 
HETATM    6  C   UNL     1      34.072  -6.149  90.839  1.00  0.00     0.049 C 
HETATM    7  O   UNL     1      32.682  -6.109  86.109  1.00  0.00    -0.650 OA
HETATM    8  C   UNL     1      33.993  -8.100  89.178  1.00  0.00     0.190 C 
HETATM    9  C   UNL     1      33.226  -7.209  90.158  1.00  0.00    -0.025 C 
HETATM   10  P   UNL     1      32.461  -7.159  87.106  1.00  0.00     0.242 P 
ENDROOT
BRANCH   5  11
HETATM   11  C   UNL     1      30.865  -6.223  90.614  1.00  0.00    -0.003 C 
HETATM   12  C   UNL     1      31.072  -4.947  91.174  1.00  0.00     0.014 C 
HETATM   13  C   UNL     1      30.586  -4.698  92.462  1.00  0.00     0.001 C 
HETATM   14  C   UNL     1      29.727  -5.612  93.082  1.00  0.00     0.001 C 
HETATM   15  C   UNL     1      29.414  -6.822  92.446  1.00  0.00     0.007 C 
HETATM   16  C   UNL     1      29.693  -6.924  91.069  1.00  0.00    -0.050 C 
HETATM   17  C   UNL     1      28.746  -7.587  90.089  1.00  0.00     0.049 C 
ENDBRANCH   5  11
BRANCH   8  18
HETATM   18  O   UNL     1      35.270  -8.485  89.637  1.00  0.00    -0.388 OA
ATOM     19  HO  UNL     1      35.947  -8.319  88.993  1.00  0.00     0.210 HD
ENDBRANCH   8  18
BRANCH   4  20
HETATM   20  O   UNL     1      35.109  -6.837  87.335  1.00  0.00    -0.380 OA
ATOM     21  HO  UNL     1      34.921  -5.959  87.025  1.00  0.00     0.210 HD
ENDBRANCH   4  20
TORSDOF 3
ENDMDL
MODEL 8
REMARK VINA RESULT:      -6.1      1.660      2.386
REMARK  3 active torsions:
REMARK  status: ('A' for Active; 'I' for Inactive)
REMARK    1  A    between atoms: O_6  and  C_10 
REMARK    2  A    between atoms: C_11  and  C_20 
REMARK    3  A    between atoms: C_15  and  O_16 
ROOT
HETATM    1  O   UNL     1      35.378  -8.291  90.162  1.00  0.00    -0.650 OA
HETATM    2  N   UNL     1      33.860  -6.864  88.718  1.00  0.00    -0.312 N 
ATOM      3  HN  UNL     1      34.369  -6.256  88.077  1.00  0.00     0.170 HD
HETATM    4  C   UNL     1      33.186  -7.470  91.254  1.00  0.00     0.264 C 
HETATM    5  C   UNL     1      32.697  -7.405  88.261  1.00  0.00     0.051 C 
HETATM    6  C   UNL     1      30.438  -6.782  89.296  1.00  0.00     0.049 C 
HETATM    7  O   UNL     1      35.082  -5.816  90.638  1.00  0.00    -0.650 OA
HETATM    8  C   UNL     1      32.074  -8.276  90.586  1.00  0.00     0.190 C 
HETATM    9  C   UNL     1      31.599  -7.758  89.227  1.00  0.00    -0.025 C 
HETATM   10  P   UNL     1      34.518  -7.093  90.194  1.00  0.00     0.242 P 
ENDROOT
BRANCH   5  11
HETATM   11  C   UNL     1      32.438  -7.248  86.820  1.00  0.00    -0.003 C 
HETATM   12  C   UNL     1      31.128  -6.952  86.394  1.00  0.00     0.014 C 
HETATM   13  C   UNL     1      30.707  -7.439  85.152  1.00  0.00     0.001 C 
HETATM   14  C   UNL     1      31.629  -8.007  84.266  1.00  0.00     0.001 C 
HETATM   15  C   UNL     1      32.967  -8.164  84.653  1.00  0.00     0.007 C 
HETATM   16  C   UNL     1      33.409  -7.437  85.776  1.00  0.00    -0.050 C 
HETATM   17  C   UNL     1      34.761  -6.753  85.828  1.00  0.00     0.049 C 
ENDBRANCH   5  11
BRANCH   8  18
HETATM   18  O   UNL     1      31.025  -8.577  91.480  1.00  0.00    -0.388 OA
ATOM     19  HO  UNL     1      30.838  -9.507  91.511  1.00  0.00     0.210 HD
ENDBRANCH   8  18
BRANCH   4  20
HETATM   20  O   UNL     1      32.800  -6.469  92.150  1.00  0.00    -0.380 OA
ATOM     21  HO  UNL     1      31.926  -6.111  92.053  1.00  0.00     0.210 HD
ENDBRANCH   4  20
TORSDOF 3
ENDMDL
MODEL 9
REMARK VINA RESULT:      -6.1      3.387      5.591
REMARK  3 active torsions:
REMARK  status: ('A' for Active; 'I' for Inactive)
REMARK    1  A    between atoms: O_6  and  C_10 
REMARK    2  A    between atoms: C_11  and  C_20 
REMARK    3  A    between atoms: C_15  and  O_16 
ROOT
HETATM    1  O   UNL     1      30.954  -8.077  86.673  1.00  0.00    -0.650 OA
HETATM    2  N   UNL     1      31.902  -6.655  88.546  1.00  0.00    -0.312 N 
ATOM      3  HN  UNL     1      31.443  -5.750  88.636  1.00  0.00     0.170 HD
HETATM    4  C   UNL     1      33.492  -8.286  87.109  1.00  0.00     0.264 C 
HETATM    5  C   UNL     1      32.286  -7.269  89.699  1.00  0.00     0.051 C 
HETATM    6  C   UNL     1      34.760  -7.653  90.246  1.00  0.00     0.049 C 
HETATM    7  O   UNL     1      32.465  -6.102  86.168  1.00  0.00    -0.650 OA
HETATM    8  C   UNL     1      33.615  -9.048  88.426  1.00  0.00     0.190 C 
HETATM    9  C   UNL     1      33.459  -8.211  89.698  1.00  0.00    -0.025 C 
HETATM   10  P   UNL     1      32.107  -7.229  87.031  1.00  0.00     0.242 P 
ENDROOT
BRANCH   5  11
HETATM   11  C   UNL     1      31.777  -6.672  90.945  1.00  0.00    -0.003 C 
HETATM   12  C   UNL     1      30.769  -7.348  91.660  1.00  0.00     0.014 C 
HETATM   13  C   UNL     1      29.839  -6.589  92.379  1.00  0.00     0.001 C 
HETATM   14  C   UNL     1      30.040  -5.217  92.564  1.00  0.00     0.001 C 
HETATM   15  C   UNL     1      31.133  -4.580  91.960  1.00  0.00     0.007 C 
HETATM   16  C   UNL     1      32.176  -5.397  91.479  1.00  0.00    -0.050 C 
HETATM   17  C   UNL     1      33.640  -5.042  91.652  1.00  0.00     0.049 C 
ENDBRANCH   5  11
BRANCH   8  18
HETATM   18  O   UNL     1      34.735  -9.905  88.441  1.00  0.00    -0.388 OA
ATOM     19  HO  UNL     1      34.625 -10.647  87.858  1.00  0.00     0.210 HD
ENDBRANCH   8  18
BRANCH   4  20
HETATM   20  O   UNL     1      34.673  -7.809  86.533  1.00  0.00    -0.380 OA
ATOM     21  HO  UNL     1      35.166  -7.162  87.023  1.00  0.00     0.210 HD
ENDBRANCH   4  20
TORSDOF 3
ENDMDL
