MODEL 1
REMARK VINA RESULT:      -3.7      0.000      0.000
REMARK  1 active torsions:
REMARK  status: ('A' for Active; 'I' for Inactive)
REMARK    1  A    between atoms: C_5  and  C_7 
ROOT
HETATM    1  N   UNL     1      -3.504   2.870  14.307  1.00  0.00    -0.406 N 
ATOM      2  HN1 UNL     1      -3.518   3.356  13.410  1.00  0.00     0.155 HD
ATOM      3  HN2 UNL     1      -2.606   2.562  14.681  1.00  0.00     0.155 HD
HETATM    4  C   UNL     1      -4.559   2.122  16.406  1.00  0.00     0.062 C 
HETATM    5  C   UNL     1      -4.579   2.838  15.085  1.00  0.00    -0.025 C 
ENDROOT
BRANCH   5   6
HETATM    6  C   UNL     1      -5.875   3.281  14.546  1.00  0.00     0.047 C 
HETATM    7  C   UNL     1      -6.927   3.753  15.506  1.00  0.00     0.011 C 
ENDBRANCH   5   6
TORSDOF 1
ENDMDL
MODEL 2
REMARK VINA RESULT:      -3.6      0.972      2.514
REMARK  1 active torsions:
REMARK  status: ('A' for Active; 'I' for Inactive)
REMARK    1  A    between atoms: C_5  and  C_7 
ROOT
HETATM    1  N   UNL     1      -5.029   3.271  14.068  1.00  0.00    -0.406 N 
ATOM      2  HN1 UNL     1      -4.190   2.734  13.849  1.00  0.00     0.155 HD
ATOM      3  HN2 UNL     1      -5.440   3.853  13.337  1.00  0.00     0.155 HD
HETATM    4  C   UNL     1      -6.947   3.842  15.508  1.00  0.00     0.062 C 
HETATM    5  C   UNL     1      -5.711   3.051  15.186  1.00  0.00    -0.025 C 
ENDROOT
BRANCH   5   6
HETATM    6  C   UNL     1      -5.118   2.213  16.240  1.00  0.00     0.047 C 
HETATM    7  C   UNL     1      -3.659   2.381  16.552  1.00  0.00     0.011 C 
ENDBRANCH   5   6
TORSDOF 1
ENDMDL
MODEL 3
REMARK VINA RESULT:      -3.6      1.452      1.854
REMARK  1 active torsions:
REMARK  status: ('A' for Active; 'I' for Inactive)
REMARK    1  A    between atoms: C_5  and  C_7 
ROOT
HETATM    1  N   UNL     1      -3.253   1.036  15.213  1.00  0.00    -0.406 N 
ATOM      2  HN1 UNL     1      -3.883   0.637  14.517  1.00  0.00     0.155 HD
ATOM      3  HN2 UNL     1      -2.249   0.888  15.104  1.00  0.00     0.155 HD
HETATM    4  C   UNL     1      -2.761   2.507  17.129  1.00  0.00     0.062 C 
HETATM    5  C   UNL     1      -3.689   1.919  16.104  1.00  0.00    -0.025 C 
ENDROOT
BRANCH   5   6
HETATM    6  C   UNL     1      -5.136   2.132  16.262  1.00  0.00     0.047 C 
HETATM    7  C   UNL     1      -5.758   3.334  15.612  1.00  0.00     0.011 C 
ENDBRANCH   5   6
TORSDOF 1
ENDMDL
MODEL 4
REMARK VINA RESULT:      -3.3      1.581      2.091
REMARK  1 active torsions:
REMARK  status: ('A' for Active; 'I' for Inactive)
REMARK    1  A    between atoms: C_5  and  C_7 
ROOT
HETATM    1  N   UNL     1      -3.271   2.710  14.564  1.00  0.00    -0.406 N 
ATOM      2  HN1 UNL     1      -2.678   2.876  13.751  1.00  0.00     0.155 HD
ATOM      3  HN2 UNL     1      -2.849   2.311  15.402  1.00  0.00     0.155 HD
HETATM    4  C   UNL     1      -5.374   2.966  15.825  1.00  0.00     0.062 C 
HETATM    5  C   UNL     1      -4.500   3.209  14.628  1.00  0.00    -0.025 C 
ENDROOT
BRANCH   5   6
HETATM    6  C   UNL     1      -5.110   3.785  13.418  1.00  0.00     0.047 C 
HETATM    7  C   UNL     1      -4.210   4.399  12.386  1.00  0.00     0.011 C 
ENDBRANCH   5   6
TORSDOF 1
ENDMDL
MODEL 5
REMARK VINA RESULT:      -3.3      1.962      3.515
REMARK  1 active torsions:
REMARK  status: ('A' for Active; 'I' for Inactive)
REMARK    1  A    between atoms: C_5  and  C_7 
ROOT
HETATM    1  N   UNL     1      -3.129   1.273  15.086  1.00  0.00    -0.406 N 
ATOM      2  HN1 UNL     1      -2.143   1.018  15.022  1.00  0.00     0.155 HD
ATOM      3  HN2 UNL     1      -3.778   0.889  14.399  1.00  0.00     0.155 HD
HETATM    4  C   UNL     1      -5.058   2.267  16.255  1.00  0.00     0.062 C 
HETATM    5  C   UNL     1      -3.607   1.892  16.160  1.00  0.00    -0.025 C 
ENDROOT
BRANCH   5   6
HETATM    6  C   UNL     1      -2.670   2.446  17.151  1.00  0.00     0.047 C 
HETATM    7  C   UNL     1      -1.759   1.503  17.880  1.00  0.00     0.011 C 
ENDBRANCH   5   6
TORSDOF 1
ENDMDL
MODEL 6
REMARK VINA RESULT:      -3.2      1.386      1.566
REMARK  1 active torsions:
REMARK  status: ('A' for Active; 'I' for Inactive)
REMARK    1  A    between atoms: C_5  and  C_7 
ROOT
HETATM    1  N   UNL     1      -4.903   1.909  16.459  1.00  0.00    -0.406 N 
ATOM      2  HN1 UNL     1      -5.863   1.778  16.778  1.00  0.00     0.155 HD
ATOM      3  HN2 UNL     1      -4.159   1.388  16.925  1.00  0.00     0.155 HD
HETATM    4  C   UNL     1      -3.224   2.741  14.856  1.00  0.00     0.062 C 
HETATM    5  C   UNL     1      -4.638   2.549  15.326  1.00  0.00    -0.025 C 
ENDROOT
BRANCH   5   6
HETATM    6  C   UNL     1      -5.710   3.301  14.654  1.00  0.00     0.047 C 
HETATM    7  C   UNL     1      -6.868   3.787  15.477  1.00  0.00     0.011 C 
ENDBRANCH   5   6
TORSDOF 1
ENDMDL
MODEL 7
REMARK VINA RESULT:      -3.1      2.697      4.262
REMARK  1 active torsions:
REMARK  status: ('A' for Active; 'I' for Inactive)
REMARK    1  A    between atoms: C_5  and  C_7 
ROOT
HETATM    1  N   UNL     1      -1.522   2.571  16.448  1.00  0.00    -0.406 N 
ATOM      2  HN1 UNL     1      -0.592   2.168  16.559  1.00  0.00     0.155 HD
ATOM      3  HN2 UNL     1      -1.607   3.495  16.024  1.00  0.00     0.155 HD
HETATM    4  C   UNL     1      -3.983   2.426  16.463  1.00  0.00     0.062 C 
HETATM    5  C   UNL     1      -2.613   1.834  16.627  1.00  0.00    -0.025 C 
ENDROOT
BRANCH   5   6
HETATM    6  C   UNL     1      -2.491   0.501  17.239  1.00  0.00     0.047 C 
HETATM    7  C   UNL     1      -1.661   0.356  18.481  1.00  0.00     0.011 C 
ENDBRANCH   5   6
TORSDOF 1
ENDMDL
MODEL 8
REMARK VINA RESULT:      -3.1      3.037      3.916
REMARK  1 active torsions:
REMARK  status: ('A' for Active; 'I' for Inactive)
REMARK    1  A    between atoms: C_5  and  C_7 
ROOT
HETATM    1  N   UNL     1      -2.454  -0.019  16.970  1.00  0.00    -0.406 N 
ATOM      2  HN1 UNL     1      -2.994  -0.047  16.104  1.00  0.00     0.155 HD
ATOM      3  HN2 UNL     1      -2.035  -0.885  17.311  1.00  0.00     0.155 HD
HETATM    4  C   UNL     1      -1.308   1.178  18.795  1.00  0.00     0.062 C 
HETATM    5  C   UNL     1      -2.102   1.137  17.521  1.00  0.00    -0.025 C 
ENDROOT
BRANCH   5   6
HETATM    6  C   UNL     1      -2.708   2.385  17.029  1.00  0.00     0.047 C 
HETATM    7  C   UNL     1      -4.071   2.322  16.405  1.00  0.00     0.011 C 
ENDBRANCH   5   6
TORSDOF 1
ENDMDL
MODEL 9
REMARK VINA RESULT:      -3.1      4.045      4.695
REMARK  1 active torsions:
REMARK  status: ('A' for Active; 'I' for Inactive)
REMARK    1  A    between atoms: C_5  and  C_7 
ROOT
HETATM    1  N   UNL     1      -2.873   0.692  15.266  1.00  0.00    -0.406 N 
ATOM      2  HN1 UNL     1      -3.634   1.371  15.254  1.00  0.00     0.155 HD
ATOM      3  HN2 UNL     1      -2.729   0.105  14.444  1.00  0.00     0.155 HD
HETATM    4  C   UNL     1      -0.823  -0.278  16.234  1.00  0.00     0.062 C 
HETATM    5  C   UNL     1      -1.945   0.721  16.216  1.00  0.00    -0.025 C 
ENDROOT
BRANCH   5   6
HETATM    6  C   UNL     1      -2.152   1.567  17.402  1.00  0.00     0.047 C 
HETATM    7  C   UNL     1      -1.419   1.221  18.665  1.00  0.00     0.011 C 
ENDBRANCH   5   6
TORSDOF 1
ENDMDL
