REMARK  2 active torsions:
REMARK  status: ('A' for Active; 'I' for Inactive)
REMARK    1  A    between atoms: C_1  and  C_10 
REMARK    2  A    between atoms: O_7  and  C_18 
ROOT
HETATM    1  C   UNL     1      42.785  22.511  18.795  1.00  0.00     0.042 C 
HETATM    2  C   UNL     1      44.860  20.907  19.173  1.00  0.00     0.038 C 
HETATM    3  C   UNL     1      43.794  21.847  19.690  1.00  0.00    -0.069 C 
HETATM    4  C   UNL     1      42.829  21.742  15.121  1.00  0.00     0.004 C 
HETATM    5  C   UNL     1      43.113  22.581  17.323  1.00  0.00     0.024 C 
HETATM    6  C   UNL     1      44.321  21.873  15.412  1.00  0.00     0.038 C 
HETATM    7  C   UNL     1      42.136  21.747  16.488  1.00  0.00     0.008 C 
HETATM    8  C   UNL     1      44.821  20.723  17.647  1.00  0.00     0.042 C 
HETATM    9  C   UNL     1      44.493  22.045  16.924  1.00  0.00     0.062 C 
ENDROOT
BRANCH   3  10
HETATM   10  C   UNL     1      43.663  22.135  21.115  1.00  0.00    -0.034 C 
HETATM   11  C   UNL     1      42.492  21.738  21.755  1.00  0.00     0.011 C 
HETATM   12  C   UNL     1      41.557  22.569  22.361  1.00  0.00     0.001 C 
HETATM   13  C   UNL     1      41.924  23.710  23.054  1.00  0.00     0.000 C 
HETATM   14  C   UNL     1      43.209  23.865  23.533  1.00  0.00     0.000 C 
HETATM   15  C   UNL     1      44.396  23.403  23.041  1.00  0.00     0.001 C 
HETATM   16  C   UNL     1      44.669  22.781  21.834  1.00  0.00     0.011 C 
ENDBRANCH   3  10
BRANCH   9  17
HETATM   17  O   UNL     1      45.501  23.011  17.248  1.00  0.00    -0.389 OA
ATOM     18  HO  UNL     1      46.356  22.679  17.001  1.00  0.00     0.210 HD
ENDBRANCH   9  17
TORSDOF 2
