REMARK  2 active torsions:
REMARK  status: ('A' for Active; 'I' for Inactive)
REMARK    1  A    between atoms: C_6  and  C_10 
REMARK    2  A    between atoms: C_7  and  N_12 
ROOT
HETATM    1  C   UNL     1      44.734  20.786  16.382  1.00  0.00     0.043 C 
HETATM    2  C   UNL     1      43.616  21.603  15.706  1.00  0.00     0.189 C 
HETATM    3  C   UNL     1      45.558  20.785  18.744  1.00  0.00     0.016 C 
HETATM    4  C   UNL     1      44.253  22.259  20.282  1.00  0.00     0.019 C 
HETATM    5  C   UNL     1      45.563  21.538  20.067  1.00  0.00     0.058 C 
HETATM    6  C   UNL     1      45.094  21.670  17.588  1.00  0.00     0.034 C 
HETATM    7  C   UNL     1      43.744  22.236  17.930  1.00  0.00    -0.007 C 
HETATM    8  C   UNL     1      42.695  21.927  16.894  1.00  0.00     0.085 C 
HETATM    9  N   UNL     1      43.449  22.625  19.262  1.00  0.00    -0.365 N 
ATOM     10  HN  UNL     1      42.620  23.188  19.451  1.00  0.00     0.165 HD
ENDROOT
BRANCH   4  11
HETATM   11  C   UNL     1      43.849  22.645  21.642  1.00  0.00    -0.014 C 
HETATM   12  C   UNL     1      42.557  22.360  22.023  1.00  0.00     0.013 C 
HETATM   13  C   UNL     1      41.773  23.076  22.900  1.00  0.00     0.001 C 
HETATM   14  C   UNL     1      42.205  23.766  23.998  1.00  0.00     0.000 C 
HETATM   15  C   UNL     1      43.467  23.848  24.519  1.00  0.00     0.000 C 
HETATM   16  C   UNL     1      44.615  23.551  23.831  1.00  0.00     0.001 C 
HETATM   17  C   UNL     1      44.771  23.224  22.506  1.00  0.00     0.013 C 
ENDBRANCH   4  11
BRANCH   2  18
HETATM   18  N   UNL     1      42.862  20.702  14.823  1.00  0.00    -0.075 N 
ATOM     19  HN3 UNL     1      43.458  20.219  14.151  1.00  0.00     0.274 HD
ATOM     20  HN2 UNL     1      42.509  19.878  15.310  1.00  0.00     0.274 HD
ATOM     21  HN1 UNL     1      42.122  21.243  14.376  1.00  0.00     0.274 HD
ENDBRANCH   2  18
TORSDOF 2
