MODEL 1
REMARK VINA RESULT:      -6.1      0.000      0.000
REMARK  1 active torsions:
REMARK  status: ('A' for Active; 'I' for Inactive)
REMARK    1  A    between atoms: C_10  and  O_11 
ROOT
HETATM    1  C   UNL     1      81.286  44.937  44.307  1.00  0.00     0.000 C 
HETATM    2  C   UNL     1      79.417  48.988  43.900  1.00  0.00    -0.033 C 
HETATM    3  C   UNL     1      80.698  45.755  43.350  1.00  0.00     0.006 C 
HETATM    4  C   UNL     1      80.849  47.129  43.409  1.00  0.00    -0.041 C 
HETATM    5  C   UNL     1      77.167  49.562  43.280  1.00  0.00     0.001 C 
HETATM    6  C   UNL     1      79.819  48.025  42.795  1.00  0.00     0.047 C 
HETATM    7  C   UNL     1      80.452  48.827  45.014  1.00  0.00     0.056 C 
HETATM    8  C   UNL     1      78.007  50.796  43.023  1.00  0.00     0.001 C 
HETATM    9  C   UNL     1      81.751  45.502  45.514  1.00  0.00    -0.001 C 
HETATM   10  C   UNL     1      81.486  47.790  44.554  1.00  0.00     0.100 C 
HETATM   11  C   UNL     1      81.762  46.856  45.687  1.00  0.00     0.015 C 
HETATM   12  C   UNL     1      77.976  48.743  44.284  1.00  0.00     0.010 C 
HETATM   13  C   UNL     1      79.436  50.432  43.393  1.00  0.00     0.010 C 
ENDROOT
BRANCH  10  14
HETATM   14  O   UNL     1      82.700  48.430  44.213  1.00  0.00    -0.381 OA
ATOM     15  HO  UNL     1      83.060  48.123  43.389  1.00  0.00     0.211 HD
ENDBRANCH  10  14
TORSDOF 1
ENDMDL
MODEL 2
REMARK VINA RESULT:      -5.9      1.341      4.647
REMARK  1 active torsions:
REMARK  status: ('A' for Active; 'I' for Inactive)
REMARK    1  A    between atoms: C_10  and  O_11 
ROOT
HETATM    1  C   UNL     1      77.209  50.191  42.849  1.00  0.00     0.000 C 
HETATM    2  C   UNL     1      80.688  47.797  44.342  1.00  0.00    -0.033 C 
HETATM    3  C   UNL     1      77.486  49.076  43.629  1.00  0.00     0.006 C 
HETATM    4  C   UNL     1      78.630  49.025  44.405  1.00  0.00    -0.041 C 
HETATM    5  C   UNL     1      81.238  45.496  43.915  1.00  0.00     0.001 C 
HETATM    6  C   UNL     1      79.233  47.705  44.771  1.00  0.00     0.047 C 
HETATM    7  C   UNL     1      80.959  49.271  44.039  1.00  0.00     0.056 C 
HETATM    8  C   UNL     1      81.975  45.883  45.181  1.00  0.00     0.001 C 
HETATM    9  C   UNL     1      78.232  51.125  42.581  1.00  0.00    -0.001 C 
HETATM   10  C   UNL     1      79.670  50.057  44.319  1.00  0.00     0.100 C 
HETATM   11  C   UNL     1      79.446  51.019  43.199  1.00  0.00     0.015 C 
HETATM   12  C   UNL     1      80.945  46.823  43.217  1.00  0.00     0.010 C 
HETATM   13  C   UNL     1      81.614  47.331  45.468  1.00  0.00     0.010 C 
ENDROOT
BRANCH  10  14
HETATM   14  O   UNL     1      79.804  50.803  45.513  1.00  0.00    -0.381 OA
ATOM     15  HO  UNL     1      80.521  50.502  46.057  1.00  0.00     0.211 HD
ENDBRANCH  10  14
TORSDOF 1
ENDMDL
MODEL 3
REMARK VINA RESULT:      -4.9      1.512      4.857
REMARK  1 active torsions:
REMARK  status: ('A' for Active; 'I' for Inactive)
REMARK    1  A    between atoms: C_10  and  O_11 
ROOT
HETATM    1  C   UNL     1      78.492  49.082  44.934  1.00  0.00     0.000 C 
HETATM    2  C   UNL     1      81.700  46.045  44.195  1.00  0.00    -0.033 C 
HETATM    3  C   UNL     1      79.843  48.871  45.175  1.00  0.00     0.006 C 
HETATM    4  C   UNL     1      80.623  48.186  44.261  1.00  0.00    -0.041 C 
HETATM    5  C   UNL     1      82.983  44.779  45.786  1.00  0.00     0.001 C 
HETATM    6  C   UNL     1      81.854  47.465  44.715  1.00  0.00     0.047 C 
HETATM    7  C   UNL     1      80.548  46.073  43.190  1.00  0.00     0.056 C 
HETATM    8  C   UNL     1      83.775  44.768  44.495  1.00  0.00     0.001 C 
HETATM    9  C   UNL     1      77.836  48.328  43.938  1.00  0.00    -0.001 C 
HETATM   10  C   UNL     1      80.040  47.518  43.091  1.00  0.00     0.100 C 
HETATM   11  C   UNL     1      78.547  47.502  43.114  1.00  0.00     0.015 C 
HETATM   12  C   UNL     1      81.550  45.094  45.360  1.00  0.00     0.010 C 
HETATM   13  C   UNL     1      82.979  45.585  43.490  1.00  0.00     0.010 C 
ENDROOT
BRANCH  10  14
HETATM   14  O   UNL     1      80.450  48.097  41.868  1.00  0.00    -0.381 OA
ATOM     15  HO  UNL     1      80.753  47.453  41.239  1.00  0.00     0.211 HD
ENDBRANCH  10  14
TORSDOF 1
ENDMDL
MODEL 4
REMARK VINA RESULT:      -4.8      6.687      8.490
REMARK  1 active torsions:
REMARK  status: ('A' for Active; 'I' for Inactive)
REMARK    1  A    between atoms: C_10  and  O_11 
ROOT
HETATM    1  C   UNL     1      75.326  51.869  51.046  1.00  0.00     0.000 C 
HETATM    2  C   UNL     1      74.784  48.625  48.006  1.00  0.00    -0.033 C 
HETATM    3  C   UNL     1      74.825  51.674  49.766  1.00  0.00     0.006 C 
HETATM    4  C   UNL     1      74.223  50.478  49.420  1.00  0.00    -0.041 C 
HETATM    5  C   UNL     1      75.726  48.442  45.801  1.00  0.00     0.001 C 
HETATM    6  C   UNL     1      74.205  50.031  47.991  1.00  0.00     0.047 C 
HETATM    7  C   UNL     1      74.818  48.185  49.469  1.00  0.00     0.056 C 
HETATM    8  C   UNL     1      74.510  47.539  45.821  1.00  0.00     0.001 C 
HETATM    9  C   UNL     1      75.527  50.758  51.892  1.00  0.00    -0.001 C 
HETATM   10  C   UNL     1      74.230  49.318  50.320  1.00  0.00     0.100 C 
HETATM   11  C   UNL     1      75.098  49.516  51.518  1.00  0.00     0.015 C 
HETATM   12  C   UNL     1      76.104  48.616  47.271  1.00  0.00     0.010 C 
HETATM   13  C   UNL     1      73.897  47.667  47.206  1.00  0.00     0.010 C 
ENDROOT
BRANCH  10  14
HETATM   14  O   UNL     1      72.937  48.967  50.773  1.00  0.00    -0.381 OA
ATOM     15  HO  UNL     1      72.423  49.720  51.039  1.00  0.00     0.211 HD
ENDBRANCH  10  14
TORSDOF 1
ENDMDL
MODEL 5
REMARK VINA RESULT:      -4.7      6.393      8.145
REMARK  1 active torsions:
REMARK  status: ('A' for Active; 'I' for Inactive)
REMARK    1  A    between atoms: C_10  and  O_11 
ROOT
HETATM    1  C   UNL     1      73.356  47.280  46.277  1.00  0.00     0.000 C 
HETATM    2  C   UNL     1      75.716  47.122  50.081  1.00  0.00    -0.033 C 
HETATM    3  C   UNL     1      73.178  47.355  47.652  1.00  0.00     0.006 C 
HETATM    4  C   UNL     1      74.146  47.927  48.458  1.00  0.00    -0.041 C 
HETATM    5  C   UNL     1      75.579  45.537  51.884  1.00  0.00     0.001 C 
HETATM    6  C   UNL     1      74.262  47.523  49.895  1.00  0.00     0.047 C 
HETATM    7  C   UNL     1      76.463  47.609  48.839  1.00  0.00     0.056 C 
HETATM    8  C   UNL     1      76.237  46.777  52.455  1.00  0.00     0.001 C 
HETATM    9  C   UNL     1      74.643  47.476  45.731  1.00  0.00    -0.001 C 
HETATM   10  C   UNL     1      75.456  48.328  47.931  1.00  0.00     0.100 C 
HETATM   11  C   UNL     1      75.678  47.881  46.524  1.00  0.00     0.015 C 
HETATM   12  C   UNL     1      75.798  45.643  50.376  1.00  0.00     0.010 C 
HETATM   13  C   UNL     1      76.307  47.791  51.325  1.00  0.00     0.010 C 
ENDROOT
BRANCH  10  14
HETATM   14  O   UNL     1      75.664  49.726  47.982  1.00  0.00    -0.381 OA
ATOM     15  HO  UNL     1      76.426  50.003  47.489  1.00  0.00     0.211 HD
ENDBRANCH  10  14
TORSDOF 1
ENDMDL
MODEL 6
REMARK VINA RESULT:      -4.6      6.645      7.858
REMARK  1 active torsions:
REMARK  status: ('A' for Active; 'I' for Inactive)
REMARK    1  A    between atoms: C_10  and  O_11 
ROOT
HETATM    1  C   UNL     1      74.078  45.701  51.808  1.00  0.00     0.000 C 
HETATM    2  C   UNL     1      75.087  47.956  48.072  1.00  0.00    -0.033 C 
HETATM    3  C   UNL     1      74.756  45.537  50.608  1.00  0.00     0.006 C 
HETATM    4  C   UNL     1      75.418  46.599  50.021  1.00  0.00    -0.041 C 
HETATM    5  C   UNL     1      74.465  47.477  45.799  1.00  0.00     0.001 C 
HETATM    6  C   UNL     1      75.642  46.621  48.541  1.00  0.00     0.047 C 
HETATM    7  C   UNL     1      74.855  48.795  49.328  1.00  0.00     0.056 C 
HETATM    8  C   UNL     1      75.679  48.380  45.727  1.00  0.00     0.001 C 
HETATM    9  C   UNL     1      73.777  47.002  52.264  1.00  0.00    -0.001 C 
HETATM   10  C   UNL     1      75.302  47.967  50.541  1.00  0.00     0.100 C 
HETATM   11  C   UNL     1      74.272  48.097  51.614  1.00  0.00     0.015 C 
HETATM   12  C   UNL     1      73.883  47.720  47.190  1.00  0.00     0.010 C 
HETATM   13  C   UNL     1      76.091  48.669  47.162  1.00  0.00     0.010 C 
ENDROOT
BRANCH  10  14
HETATM   14  O   UNL     1      76.524  48.467  51.049  1.00  0.00    -0.381 OA
ATOM     15  HO  UNL     1      76.702  49.357  50.770  1.00  0.00     0.211 HD
ENDBRANCH  10  14
TORSDOF 1
ENDMDL
MODEL 7
REMARK VINA RESULT:      -4.6      6.988      8.809
REMARK  1 active torsions:
REMARK  status: ('A' for Active; 'I' for Inactive)
REMARK    1  A    between atoms: C_10  and  O_11 
ROOT
HETATM    1  C   UNL     1      72.237  48.115  51.247  1.00  0.00     0.000 C 
HETATM    2  C   UNL     1      74.450  47.781  47.368  1.00  0.00    -0.033 C 
HETATM    3  C   UNL     1      72.776  48.915  50.249  1.00  0.00     0.006 C 
HETATM    4  C   UNL     1      72.779  48.494  48.932  1.00  0.00    -0.041 C 
HETATM    5  C   UNL     1      76.647  48.578  46.804  1.00  0.00     0.001 C 
HETATM    6  C   UNL     1      73.808  49.016  47.978  1.00  0.00     0.047 C 
HETATM    7  C   UNL     1      73.559  46.597  47.744  1.00  0.00     0.056 C 
HETATM    8  C   UNL     1      75.914  48.387  45.492  1.00  0.00     0.001 C 
HETATM    9  C   UNL     1      71.996  46.748  50.989  1.00  0.00    -0.001 C 
HETATM   10  C   UNL     1      72.371  47.136  48.553  1.00  0.00     0.100 C 
HETATM   11  C   UNL     1      72.150  46.244  49.729  1.00  0.00     0.015 C 
HETATM   12  C   UNL     1      75.895  47.698  47.800  1.00  0.00     0.010 C 
HETATM   13  C   UNL     1      74.516  47.904  45.843  1.00  0.00     0.010 C 
ENDROOT
BRANCH  10  14
HETATM   14  O   UNL     1      71.196  47.116  47.765  1.00  0.00    -0.381 OA
ATOM     15  HO  UNL     1      71.297  46.613  46.966  1.00  0.00     0.211 HD
ENDBRANCH  10  14
TORSDOF 1
ENDMDL
MODEL 8
REMARK VINA RESULT:      -4.5      6.576      8.253
REMARK  1 active torsions:
REMARK  status: ('A' for Active; 'I' for Inactive)
REMARK    1  A    between atoms: C_10  and  O_11 
ROOT
HETATM    1  C   UNL     1      74.297  47.197  46.171  1.00  0.00     0.000 C 
HETATM    2  C   UNL     1      75.852  46.336  50.282  1.00  0.00    -0.033 C 
HETATM    3  C   UNL     1      73.875  46.683  47.390  1.00  0.00     0.006 C 
HETATM    4  C   UNL     1      74.389  47.172  48.577  1.00  0.00    -0.041 C 
HETATM    5  C   UNL     1      76.047  44.225  51.416  1.00  0.00     0.001 C 
HETATM    6  C   UNL     1      74.411  46.308  49.799  1.00  0.00     0.047 C 
HETATM    7  C   UNL     1      76.545  47.463  49.518  1.00  0.00     0.056 C 
HETATM    8  C   UNL     1      76.059  45.289  52.494  1.00  0.00     0.001 C 
HETATM    9  C   UNL     1      75.475  47.972  46.113  1.00  0.00    -0.001 C 
HETATM   10  C   UNL     1      75.505  48.126  48.603  1.00  0.00     0.100 C 
HETATM   11  C   UNL     1      76.119  48.341  47.260  1.00  0.00     0.015 C 
HETATM   12  C   UNL     1      76.458  44.959  50.141  1.00  0.00     0.010 C 
HETATM   13  C   UNL     1      75.913  46.626  51.784  1.00  0.00     0.010 C 
ENDROOT
BRANCH  10  14
HETATM   14  O   UNL     1      75.135  49.389  49.121  1.00  0.00    -0.381 OA
ATOM     15  HO  UNL     1      74.846  49.993  48.447  1.00  0.00     0.211 HD
ENDBRANCH  10  14
TORSDOF 1
ENDMDL
MODEL 9
REMARK VINA RESULT:      -4.5      7.024      8.744
REMARK  1 active torsions:
REMARK  status: ('A' for Active; 'I' for Inactive)
REMARK    1  A    between atoms: C_10  and  O_11 
ROOT
HETATM    1  C   UNL     1      76.320  48.303  47.031  1.00  0.00     0.000 C 
HETATM    2  C   UNL     1      72.801  46.823  49.374  1.00  0.00    -0.033 C 
HETATM    3  C   UNL     1      76.025  47.563  48.169  1.00  0.00     0.006 C 
HETATM    4  C   UNL     1      74.899  46.762  48.215  1.00  0.00    -0.041 C 
HETATM    5  C   UNL     1      72.166  47.331  51.637  1.00  0.00     0.001 C 
HETATM    6  C   UNL     1      74.262  46.436  49.530  1.00  0.00     0.047 C 
HETATM    7  C   UNL     1      72.572  47.059  47.881  1.00  0.00     0.056 C 
HETATM    8  C   UNL     1      71.472  46.033  51.281  1.00  0.00     0.001 C 
HETATM    9  C   UNL     1      75.322  48.506  46.055  1.00  0.00    -0.001 C 
HETATM   10  C   UNL     1      73.891  46.779  47.148  1.00  0.00     0.100 C 
HETATM   11  C   UNL     1      74.121  47.863  46.148  1.00  0.00     0.015 C 
HETATM   12  C   UNL     1      72.485  47.982  50.292  1.00  0.00     0.010 C 
HETATM   13  C   UNL     1      71.887  45.695  49.858  1.00  0.00     0.010 C 
ENDROOT
BRANCH  10  14
HETATM   14  O   UNL     1      73.810  45.552  46.450  1.00  0.00    -0.381 OA
ATOM     15  HO  UNL     1      73.348  45.628  45.624  1.00  0.00     0.211 HD
ENDBRANCH  10  14
TORSDOF 1
ENDMDL
