REMARK  1 active torsions:
REMARK  status: ('A' for Active; 'I' for Inactive)
REMARK    1  A    between atoms: O_1  and  C_3 
ROOT
HETATM    1  C   UNL     1      15.656  53.254  17.140  1.00  0.00     0.066 C 
HETATM    2  C   UNL     1      12.564  53.263  15.047  1.00  0.00     0.048 C 
HETATM    3  C   UNL     1      14.767  52.724  16.190  1.00  0.00     0.043 C 
HETATM    4  C   UNL     1      13.000  53.687  17.495  1.00  0.00     0.007 C 
HETATM    5  C   UNL     1      13.921  54.431  18.233  1.00  0.00     0.003 C 
HETATM    6  C   UNL     1      15.271  54.358  17.900  1.00  0.00     0.036 C 
HETATM    7  C   UNL     1      13.441  53.155  16.277  1.00  0.00    -0.059 C 
ENDROOT
BRANCH   1   8
HETATM    8  O   UNL     1      16.847  52.645  17.405  1.00  0.00    -0.361 OA
ATOM      9  HO  UNL     1      17.448  53.003  18.047  1.00  0.00     0.217 HD
ENDBRANCH   1   8
TORSDOF 1
