REMARK  1 active torsions:
REMARK  status: ('A' for Active; 'I' for Inactive)
REMARK    1  A    between atoms: C_9  and  C_17 
ROOT
HETATM    1  C   UNL     1      16.728   7.595   1.467  1.00  0.00    -0.030 C 
HETATM    2  C   UNL     1      14.816   7.676  -0.208  1.00  0.00     0.117 C 
HETATM    3  C   UNL     1      14.506   8.737   4.424  1.00  0.00     0.050 C 
HETATM    4  C   UNL     1      17.469   6.507   1.012  1.00  0.00     0.011 C 
HETATM    5  C   UNL     1      16.231   5.973  -1.058  1.00  0.00     0.087 C 
HETATM    6  C   UNL     1      15.392   7.843   1.061  1.00  0.00     0.051 C 
HETATM    7  N   UNL     1      15.143   6.713  -1.075  1.00  0.00    -0.373 N 
ATOM      8  HN  UNL     1      14.480   6.533  -1.829  1.00  0.00     0.164 HD
HETATM    9  C   UNL     1      14.975   9.276   3.077  1.00  0.00     0.116 C 
HETATM   10  C   UNL     1      17.371   8.450   2.531  1.00  0.00     0.044 C 
HETATM   11  C   UNL     1      16.479   9.532   3.122  1.00  0.00     0.046 C 
HETATM   12  C   UNL     1      17.158   5.733  -0.073  1.00  0.00     0.018 C 
HETATM   13  N   UNL     1      14.574   8.321   2.044  1.00  0.00    -0.370 N 
ATOM     14  HN  UNL     1      13.610   7.987   2.059  1.00  0.00     0.161 HD
ENDROOT
BRANCH   9  15
HETATM   15  C   UNL     1      14.246  10.561   2.740  1.00  0.00     0.202 C 
HETATM   16  O   UNL     1      13.047  10.387   2.428  1.00  0.00    -0.646 OA
HETATM   17  O   UNL     1      14.789  11.676   2.760  1.00  0.00    -0.646 OA
ENDBRANCH   9  15
TORSDOF 1
