MODEL 1
REMARK VINA RESULT:      -6.2      0.000      0.000
REMARK  0 active torsions:
REMARK  status: ('A' for Active; 'I' for Inactive)
ROOT
HETATM    1  N   UNL     1      15.145   8.532   9.524  1.00  0.00    -0.352 N 
ATOM      2  HN  UNL     1      15.542   8.094  10.356  1.00  0.00     0.166 HD
HETATM    3  C   UNL     1      11.918  11.218  10.010  1.00  0.00    -0.025 C 
HETATM    4  C   UNL     1      12.383  11.742   8.784  1.00  0.00     0.040 C 
HETATM    5  C   UNL     1      10.768  13.376  10.397  1.00  0.00     0.127 C 
HETATM    6  C   UNL     1      13.969   9.925   8.249  1.00  0.00     0.010 C 
HETATM    7  O   UNL     1      12.639  13.705   7.495  1.00  0.00    -0.268 OA
HETATM    8  C   UNL     1      12.105  13.142   8.424  1.00  0.00     0.252 C 
HETATM    9  C   UNL     1      15.694   8.501   8.280  1.00  0.00     0.090 C 
HETATM   10  C   UNL     1      11.890   9.861  10.246  1.00  0.00     0.097 C 
HETATM   11  C   UNL     1      11.396  12.154  11.088  1.00  0.00     0.060 C 
HETATM   12  C   UNL     1      13.150  10.989   7.924  1.00  0.00     0.033 C 
HETATM   13  C   UNL     1      13.995   9.230   9.482  1.00  0.00     0.115 C 
HETATM   14  C   UNL     1      15.088   9.456   7.518  1.00  0.00     0.032 C 
HETATM   15  N   UNL     1      12.986   9.112  10.365  1.00  0.00    -0.351 N 
ATOM     16  HN  UNL     1      13.060   8.442  11.131  1.00  0.00     0.166 HD
HETATM   17  N   UNL     1      11.895  13.948   9.597  1.00  0.00    -0.357 N 
ATOM     18  HN  UNL     1      12.432  14.780   9.845  1.00  0.00     0.162 HD
ENDROOT
TORSDOF 0
ENDMDL
MODEL 2
REMARK VINA RESULT:      -5.8      2.614      3.431
REMARK  0 active torsions:
REMARK  status: ('A' for Active; 'I' for Inactive)
ROOT
HETATM    1  N   UNL     1      14.767   9.649   7.120  1.00  0.00    -0.352 N 
ATOM      2  HN  UNL     1      14.757   9.861   6.122  1.00  0.00     0.166 HD
HETATM    3  C   UNL     1      11.382  10.686   9.429  1.00  0.00    -0.025 C 
HETATM    4  C   UNL     1      11.841   9.651  10.271  1.00  0.00     0.040 C 
HETATM    5  C   UNL     1       9.153  10.431  10.476  1.00  0.00     0.127 C 
HETATM    6  C   UNL     1      14.046   9.334   9.202  1.00  0.00     0.010 C 
HETATM    7  O   UNL     1      11.186   7.923  11.742  1.00  0.00    -0.268 OA
HETATM    8  C   UNL     1      10.901   8.941  11.153  1.00  0.00     0.252 C 
HETATM    9  C   UNL     1      15.682   8.863   7.750  1.00  0.00     0.090 C 
HETATM   10  C   UNL     1      12.257  11.565   8.826  1.00  0.00     0.097 C 
HETATM   11  C   UNL     1       9.890  10.878   9.202  1.00  0.00     0.060 C 
HETATM   12  C   UNL     1      13.155   9.238  10.252  1.00  0.00     0.033 C 
HETATM   13  C   UNL     1      13.877  10.101   8.023  1.00  0.00     0.115 C 
HETATM   14  C   UNL     1      15.192   8.532   8.979  1.00  0.00     0.032 C 
HETATM   15  N   UNL     1      13.123  11.206   7.880  1.00  0.00    -0.351 N 
ATOM     16  HN  UNL     1      13.216  11.776   7.038  1.00  0.00     0.166 HD
HETATM   17  N   UNL     1       9.559   9.000  10.637  1.00  0.00    -0.357 N 
ATOM     18  HN  UNL     1       8.976   8.192  10.415  1.00  0.00     0.162 HD
ENDROOT
TORSDOF 0
ENDMDL
MODEL 3
REMARK VINA RESULT:      -5.6      3.623      4.911
REMARK  0 active torsions:
REMARK  status: ('A' for Active; 'I' for Inactive)
ROOT
HETATM    1  N   UNL     1      12.222   9.558   7.518  1.00  0.00    -0.352 N 
ATOM      2  HN  UNL     1      11.966   9.408   6.542  1.00  0.00     0.166 HD
HETATM    3  C   UNL     1       9.274   8.963  10.487  1.00  0.00    -0.025 C 
HETATM    4  C   UNL     1      10.390   8.734  11.319  1.00  0.00     0.040 C 
HETATM    5  C   UNL     1       7.898   7.738  12.142  1.00  0.00     0.127 C 
HETATM    6  C   UNL     1      12.122   9.516   9.741  1.00  0.00     0.010 C 
HETATM    7  O   UNL     1      11.203   7.509  13.168  1.00  0.00    -0.268 OA
HETATM    8  C   UNL     1      10.255   7.907  12.529  1.00  0.00     0.252 C 
HETATM    9  C   UNL     1      13.490   9.725   7.983  1.00  0.00     0.090 C 
HETATM   10  C   UNL     1       9.280   9.959   9.534  1.00  0.00     0.097 C 
HETATM   11  C   UNL     1       8.012   8.131  10.659  1.00  0.00     0.060 C 
HETATM   12  C   UNL     1      11.637   9.221  11.000  1.00  0.00     0.033 C 
HETATM   13  C   UNL     1      11.362   9.623   8.551  1.00  0.00     0.115 C 
HETATM   14  C   UNL     1      13.479   9.554   9.336  1.00  0.00     0.032 C 
HETATM   15  N   UNL     1      10.056   9.935   8.451  1.00  0.00    -0.351 N 
ATOM     16  HN  UNL     1       9.658  10.157   7.539  1.00  0.00     0.166 HD
HETATM   17  N   UNL     1       9.161   6.981  12.406  1.00  0.00    -0.357 N 
ATOM     18  HN  UNL     1       9.234   5.966  12.486  1.00  0.00     0.162 HD
ENDROOT
TORSDOF 0
ENDMDL
MODEL 4
REMARK VINA RESULT:      -5.5      3.207      4.075
REMARK  0 active torsions:
REMARK  status: ('A' for Active; 'I' for Inactive)
ROOT
HETATM    1  N   UNL     1      13.444  11.037   7.978  1.00  0.00    -0.352 N 
ATOM      2  HN  UNL     1      13.521  11.782   7.286  1.00  0.00     0.166 HD
HETATM    3  C   UNL     1       9.839  10.680  10.155  1.00  0.00    -0.025 C 
HETATM    4  C   UNL     1      10.243   9.334  10.289  1.00  0.00     0.040 C 
HETATM    5  C   UNL     1       7.529   9.946  10.666  1.00  0.00     0.127 C 
HETATM    6  C   UNL     1      12.543   9.612   9.431  1.00  0.00     0.010 C 
HETATM    7  O   UNL     1       9.496   7.098  10.441  1.00  0.00    -0.268 OA
HETATM    8  C   UNL     1       9.242   8.279  10.518  1.00  0.00     0.252 C 
HETATM    9  C   UNL     1      14.315  10.002   8.122  1.00  0.00     0.090 C 
HETATM   10  C   UNL     1      10.744  11.715  10.244  1.00  0.00     0.097 C 
HETATM   11  C   UNL     1       8.370  11.016   9.948  1.00  0.00     0.060 C 
HETATM   12  C   UNL     1      11.561   8.962  10.153  1.00  0.00     0.033 C 
HETATM   13  C   UNL     1      12.465  10.921   8.895  1.00  0.00     0.115 C 
HETATM   14  C   UNL     1      13.723   9.044   8.891  1.00  0.00     0.032 C 
HETATM   15  N   UNL     1      11.702  11.934   9.344  1.00  0.00    -0.351 N 
ATOM     16  HN  UNL     1      11.858  12.878   8.992  1.00  0.00     0.166 HD
HETATM   17  N   UNL     1       7.952   8.668  10.013  1.00  0.00    -0.357 N 
ATOM     18  HN  UNL     1       7.411   8.152   9.318  1.00  0.00     0.162 HD
ENDROOT
TORSDOF 0
ENDMDL
MODEL 5
REMARK VINA RESULT:      -5.4      4.241      5.607
REMARK  0 active torsions:
REMARK  status: ('A' for Active; 'I' for Inactive)
ROOT
HETATM    1  N   UNL     1      12.323  10.274  10.153  1.00  0.00    -0.352 N 
ATOM      2  HN  UNL     1      12.829  11.019  10.633  1.00  0.00     0.166 HD
HETATM    3  C   UNL     1       9.937   7.657  12.460  1.00  0.00    -0.025 C 
HETATM    4  C   UNL     1       9.240   7.483  11.246  1.00  0.00     0.040 C 
HETATM    5  C   UNL     1       7.923   6.822  13.634  1.00  0.00     0.127 C 
HETATM    6  C   UNL     1      10.869   8.630   9.784  1.00  0.00     0.010 C 
HETATM    7  O   UNL     1       7.125   7.092  10.270  1.00  0.00    -0.268 OA
HETATM    8  C   UNL     1       7.829   7.064  11.254  1.00  0.00     0.252 C 
HETATM    9  C   UNL     1      12.167  10.167   8.806  1.00  0.00     0.090 C 
HETATM   10  C   UNL     1      11.312   7.748  12.494  1.00  0.00     0.097 C 
HETATM   11  C   UNL     1       9.174   7.707  13.775  1.00  0.00     0.060 C 
HETATM   12  C   UNL     1       9.832   7.752  10.032  1.00  0.00     0.033 C 
HETATM   13  C   UNL     1      11.704   9.240  10.752  1.00  0.00     0.115 C 
HETATM   14  C   UNL     1      11.171   9.270   8.557  1.00  0.00     0.032 C 
HETATM   15  N   UNL     1      11.994   8.771  11.980  1.00  0.00    -0.351 N 
ATOM     16  HN  UNL     1      12.743   9.201  12.521  1.00  0.00     0.166 HD
HETATM   17  N   UNL     1       7.185   7.434  12.485  1.00  0.00    -0.357 N 
ATOM     18  HN  UNL     1       6.354   8.022  12.563  1.00  0.00     0.162 HD
ENDROOT
TORSDOF 0
ENDMDL
MODEL 6
REMARK VINA RESULT:      -5.2      2.694      5.245
REMARK  0 active torsions:
REMARK  status: ('A' for Active; 'I' for Inactive)
ROOT
HETATM    1  N   UNL     1       7.116  11.832   9.657  1.00  0.00    -0.352 N 
ATOM      2  HN  UNL     1       6.311  11.377   9.224  1.00  0.00     0.166 HD
HETATM    3  C   UNL     1      10.934  10.104   9.114  1.00  0.00    -0.025 C 
HETATM    4  C   UNL     1      11.385  11.419   9.355  1.00  0.00     0.040 C 
HETATM    5  C   UNL     1      13.114   9.649   8.031  1.00  0.00     0.127 C 
HETATM    6  C   UNL     1       9.229  12.352  10.122  1.00  0.00     0.010 C 
HETATM    7  O   UNL     1      13.036  13.024   8.827  1.00  0.00    -0.268 OA
HETATM    8  C   UNL     1      12.686  11.865   8.830  1.00  0.00     0.252 C 
HETATM    9  C   UNL     1       7.113  13.070  10.220  1.00  0.00     0.090 C 
HETATM   10  C   UNL     1       9.889   9.559   9.828  1.00  0.00     0.097 C 
HETATM   11  C   UNL     1      11.632   9.238   8.076  1.00  0.00     0.060 C 
HETATM   12  C   UNL     1      10.607  12.334  10.029  1.00  0.00     0.033 C 
HETATM   13  C   UNL     1       8.348  11.302   9.763  1.00  0.00     0.115 C 
HETATM   14  C   UNL     1       8.405  13.475  10.377  1.00  0.00     0.032 C 
HETATM   15  N   UNL     1       8.630   9.986   9.731  1.00  0.00    -0.351 N 
ATOM     16  HN  UNL     1       7.874   9.310   9.630  1.00  0.00     0.166 HD
HETATM   17  N   UNL     1      13.069  11.101   7.673  1.00  0.00    -0.357 N 
ATOM     18  HN  UNL     1      13.276  11.488   6.752  1.00  0.00     0.162 HD
ENDROOT
TORSDOF 0
ENDMDL
MODEL 7
REMARK VINA RESULT:      -5.2      2.885      4.820
REMARK  0 active torsions:
REMARK  status: ('A' for Active; 'I' for Inactive)
ROOT
HETATM    1  N   UNL     1       9.844   7.027  12.401  1.00  0.00    -0.352 N 
ATOM      2  HN  UNL     1      10.297   6.371  13.037  1.00  0.00     0.166 HD
HETATM    3  C   UNL     1      12.284   9.478   9.971  1.00  0.00    -0.025 C 
HETATM    4  C   UNL     1      11.145   9.506   9.138  1.00  0.00     0.040 C 
HETATM    5  C   UNL     1      13.632  10.143   8.003  1.00  0.00     0.127 C 
HETATM    6  C   UNL     1       9.565   8.473  10.733  1.00  0.00     0.010 C 
HETATM    7  O   UNL     1      10.387   9.603   6.903  1.00  0.00    -0.268 OA
HETATM    8  C   UNL     1      11.287   9.763   7.696  1.00  0.00     0.252 C 
HETATM    9  C   UNL     1       8.518   7.042  12.097  1.00  0.00     0.090 C 
HETATM   10  C   UNL     1      12.173   9.545  11.343  1.00  0.00     0.097 C 
HETATM   11  C   UNL     1      13.674   9.414   9.358  1.00  0.00     0.060 C 
HETATM   12  C   UNL     1       9.887   9.241   9.630  1.00  0.00     0.033 C 
HETATM   13  C   UNL     1      10.463   8.015  11.729  1.00  0.00     0.115 C 
HETATM   14  C   UNL     1       8.341   7.807  10.981  1.00  0.00     0.032 C 
HETATM   15  N   UNL     1      11.631   8.580  12.085  1.00  0.00    -0.351 N 
ATOM     16  HN  UNL     1      12.106   8.267  12.932  1.00  0.00     0.166 HD
HETATM   17  N   UNL     1      12.596   9.390   7.229  1.00  0.00    -0.357 N 
ATOM     18  HN  UNL     1      12.788   8.717   6.486  1.00  0.00     0.162 HD
ENDROOT
TORSDOF 0
ENDMDL
MODEL 8
REMARK VINA RESULT:      -5.1      3.385      4.062
REMARK  0 active torsions:
REMARK  status: ('A' for Active; 'I' for Inactive)
ROOT
HETATM    1  N   UNL     1      13.112   9.126  10.004  1.00  0.00    -0.352 N 
ATOM      2  HN  UNL     1      13.809   8.721  10.629  1.00  0.00     0.166 HD
HETATM    3  C   UNL     1       9.038   8.869  11.099  1.00  0.00    -0.025 C 
HETATM    4  C   UNL     1       8.913  10.007  10.274  1.00  0.00     0.040 C 
HETATM    5  C   UNL     1       6.906   9.523  12.175  1.00  0.00     0.127 C 
HETATM    6  C   UNL     1      11.166   9.910   9.264  1.00  0.00     0.010 C 
HETATM    7  O   UNL     1       7.760  12.043   9.952  1.00  0.00    -0.268 OA
HETATM    8  C   UNL     1       7.809  10.958  10.485  1.00  0.00     0.252 C 
HETATM    9  C   UNL     1      13.380   9.937   8.945  1.00  0.00     0.090 C 
HETATM   10  C   UNL     1       9.856   7.815  10.752  1.00  0.00     0.097 C 
HETATM   11  C   UNL     1       8.230   8.769  12.384  1.00  0.00     0.060 C 
HETATM   12  C   UNL     1       9.838  10.291   9.295  1.00  0.00     0.033 C 
HETATM   13  C   UNL     1      11.782   8.942  10.094  1.00  0.00     0.115 C 
HETATM   14  C   UNL     1      12.221  10.548   8.567  1.00  0.00     0.032 C 
HETATM   15  N   UNL     1      11.184   7.901  10.702  1.00  0.00    -0.351 N 
ATOM     16  HN  UNL     1      11.754   7.170  11.128  1.00  0.00     0.166 HD
HETATM   17  N   UNL     1       7.340  10.916  11.844  1.00  0.00    -0.357 N 
ATOM     18  HN  UNL     1       7.309  11.711  12.483  1.00  0.00     0.162 HD
ENDROOT
TORSDOF 0
ENDMDL
MODEL 9
REMARK VINA RESULT:      -4.9      3.147      4.939
REMARK  0 active torsions:
REMARK  status: ('A' for Active; 'I' for Inactive)
ROOT
HETATM    1  N   UNL     1      12.684  12.364   8.799  1.00  0.00    -0.352 N 
ATOM      2  HN  UNL     1      13.686  12.214   8.679  1.00  0.00     0.166 HD
HETATM    3  C   UNL     1      10.266   9.051   9.820  1.00  0.00    -0.025 C 
HETATM    4  C   UNL     1       9.415  10.043  10.353  1.00  0.00     0.040 C 
HETATM    5  C   UNL     1       9.119   7.409  11.276  1.00  0.00     0.127 C 
HETATM    6  C   UNL     1      10.566  11.999   9.377  1.00  0.00     0.010 C 
HETATM    7  O   UNL     1       7.870  10.547  12.068  1.00  0.00    -0.268 OA
HETATM    8  C   UNL     1       8.475   9.710  11.436  1.00  0.00     0.252 C 
HETATM    9  C   UNL     1      12.072  13.576   8.874  1.00  0.00     0.090 C 
HETATM   10  C   UNL     1      10.928   9.238   8.626  1.00  0.00     0.097 C 
HETATM   11  C   UNL     1      10.435   7.725  10.544  1.00  0.00     0.060 C 
HETATM   12  C   UNL     1       9.477  11.350   9.924  1.00  0.00     0.033 C 
HETATM   13  C   UNL     1      11.757  11.393   8.907  1.00  0.00     0.115 C 
HETATM   14  C   UNL     1      10.815  13.394   9.370  1.00  0.00     0.032 C 
HETATM   15  N   UNL     1      11.900  10.134   8.456  1.00  0.00    -0.351 N 
ATOM     16  HN  UNL     1      12.760   9.862   7.980  1.00  0.00     0.166 HD
HETATM   17  N   UNL     1       8.936   8.577  12.193  1.00  0.00    -0.357 N 
ATOM     18  HN  UNL     1       9.111   8.571  13.199  1.00  0.00     0.162 HD
ENDROOT
TORSDOF 0
ENDMDL
