MODEL 1
REMARK VINA RESULT:      -5.7      0.000      0.000
REMARK  5 active torsions:
REMARK  status: ('A' for Active; 'I' for Inactive)
REMARK    1  A    between atoms: O_5  and  C_10 
REMARK    2  A    between atoms: O_7  and  C_16 
REMARK    3  A    between atoms: C_11  and  C_16 
REMARK    4  A    between atoms: O_12  and  C_16 
REMARK    5  A    between atoms: O_14  and  C_16 
ROOT
HETATM    1  C   UNL     1     165.093-140.589-115.790  1.00  0.00     0.001 C 
HETATM    2  C   UNL     1     164.364-140.148-114.726  1.00  0.00     0.000 C 
HETATM    3  C   UNL     1     162.459-138.967-115.676  1.00  0.00     0.037 C 
HETATM    4  C   UNL     1     163.216-139.408-114.636  1.00  0.00     0.003 C 
HETATM    5  C   UNL     1     164.651-140.643-117.090  1.00  0.00     0.018 C 
HETATM    6  C   UNL     1     162.595-139.413-116.982  1.00  0.00     0.079 C 
HETATM    7  C   UNL     1     163.315-140.525-117.386  1.00  0.00     0.066 C 
ENDROOT
BRANCH   7   8
HETATM    8  C   UNL     1     162.665-141.572-118.300  1.00  0.00     0.310 C 
BRANCH   8   9
HETATM    9  O   UNL     1     162.816-141.122-119.589  1.00  0.00    -0.339 OA
ATOM     10  HO  UNL     1     163.384-140.361-119.551  1.00  0.00     0.216 HD
ENDBRANCH   8   9
BRANCH   8  11
HETATM   11  O   UNL     1     161.340-141.701-118.052  1.00  0.00    -0.339 OA
ATOM     12  HO  UNL     1     160.876-141.079-118.601  1.00  0.00     0.216 HD
ENDBRANCH   8  11
BRANCH   8  13
HETATM   13  O   UNL     1     163.313-142.737-118.229  1.00  0.00    -0.339 OA
ATOM     14  HO  UNL     1     163.880-142.682-117.469  1.00  0.00     0.216 HD
ENDBRANCH   8  13
ENDBRANCH   7   8
BRANCH   6  15
HETATM   15  O   UNL     1     161.953-138.669-117.936  1.00  0.00    -0.360 OA
ATOM     16  HO  UNL     1     162.254-138.793-118.829  1.00  0.00     0.217 HD
ENDBRANCH   6  15
TORSDOF 5
ENDMDL
MODEL 2
REMARK VINA RESULT:      -5.6      1.042      2.764
REMARK  5 active torsions:
REMARK  status: ('A' for Active; 'I' for Inactive)
REMARK    1  A    between atoms: O_5  and  C_10 
REMARK    2  A    between atoms: O_7  and  C_16 
REMARK    3  A    between atoms: C_11  and  C_16 
REMARK    4  A    between atoms: O_12  and  C_16 
REMARK    5  A    between atoms: O_14  and  C_16 
ROOT
HETATM    1  C   UNL     1     162.820-139.139-115.339  1.00  0.00     0.001 C 
HETATM    2  C   UNL     1     164.111-139.413-114.994  1.00  0.00     0.000 C 
HETATM    3  C   UNL     1     164.784-141.288-116.393  1.00  0.00     0.037 C 
HETATM    4  C   UNL     1     164.997-140.368-115.414  1.00  0.00     0.003 C 
HETATM    5  C   UNL     1     162.182-139.602-116.465  1.00  0.00     0.018 C 
HETATM    6  C   UNL     1     163.727-141.241-117.290  1.00  0.00     0.079 C 
HETATM    7  C   UNL     1     162.894-140.156-117.501  1.00  0.00     0.066 C 
ENDROOT
BRANCH   7   8
HETATM    8  C   UNL     1     162.639-139.648-118.926  1.00  0.00     0.310 C 
BRANCH   8   9
HETATM    9  O   UNL     1     161.584-140.375-119.424  1.00  0.00    -0.339 OA
ATOM     10  HO  UNL     1     160.898-140.351-118.766  1.00  0.00     0.216 HD
ENDBRANCH   8   9
BRANCH   8  11
HETATM   11  O   UNL     1     163.708-139.854-119.731  1.00  0.00    -0.339 OA
ATOM     12  HO  UNL     1     164.494-139.768-119.204  1.00  0.00     0.216 HD
ENDBRANCH   8  11
BRANCH   8  13
HETATM   13  O   UNL     1     162.246-138.373-118.917  1.00  0.00    -0.339 OA
ATOM     14  HO  UNL     1     162.174-138.108-119.827  1.00  0.00     0.216 HD
ENDBRANCH   8  13
ENDBRANCH   7   8
BRANCH   6  15
HETATM   15  O   UNL     1     163.509-142.383-118.014  1.00  0.00    -0.360 OA
ATOM     16  HO  UNL     1     164.264-142.728-118.477  1.00  0.00     0.217 HD
ENDBRANCH   6  15
TORSDOF 5
ENDMDL
MODEL 3
REMARK VINA RESULT:      -5.4      2.089      3.205
REMARK  5 active torsions:
REMARK  status: ('A' for Active; 'I' for Inactive)
REMARK    1  A    between atoms: O_5  and  C_10 
REMARK    2  A    between atoms: O_7  and  C_16 
REMARK    3  A    between atoms: C_11  and  C_16 
REMARK    4  A    between atoms: O_12  and  C_16 
REMARK    5  A    between atoms: O_14  and  C_16 
ROOT
HETATM    1  C   UNL     1     164.403-139.833-114.910  1.00  0.00     0.001 C 
HETATM    2  C   UNL     1     163.113-139.791-115.349  1.00  0.00     0.000 C 
HETATM    3  C   UNL     1     163.183-140.494-117.678  1.00  0.00     0.037 C 
HETATM    4  C   UNL     1     162.541-140.046-116.566  1.00  0.00     0.003 C 
HETATM    5  C   UNL     1     165.441-140.465-115.553  1.00  0.00     0.018 C 
HETATM    6  C   UNL     1     164.474-141.001-117.681  1.00  0.00     0.079 C 
HETATM    7  C   UNL     1     165.202-141.366-116.561  1.00  0.00     0.066 C 
ENDROOT
BRANCH   7   8
HETATM    8  C   UNL     1     165.879-142.741-116.499  1.00  0.00     0.310 C 
BRANCH   8   9
HETATM    9  O   UNL     1     166.939-142.702-117.372  1.00  0.00    -0.339 OA
ATOM     10  HO  UNL     1     167.718-142.915-116.870  1.00  0.00     0.216 HD
ENDBRANCH   8   9
BRANCH   8  11
HETATM   11  O   UNL     1     165.044-143.730-116.896  1.00  0.00    -0.339 OA
ATOM     12  HO  UNL     1     164.168-143.514-116.598  1.00  0.00     0.216 HD
ENDBRANCH   8  11
BRANCH   8  13
HETATM   13  O   UNL     1     166.396-142.966-115.289  1.00  0.00    -0.339 OA
ATOM     14  HO  UNL     1     165.662-143.132-114.710  1.00  0.00     0.216 HD
ENDBRANCH   8  13
ENDBRANCH   7   8
BRANCH   6  15
HETATM   15  O   UNL     1     165.056-141.140-118.913  1.00  0.00    -0.360 OA
ATOM     16  HO  UNL     1     164.569-141.657-119.544  1.00  0.00     0.217 HD
ENDBRANCH   6  15
TORSDOF 5
ENDMDL
MODEL 4
REMARK VINA RESULT:      -5.2      2.699      3.755
REMARK  5 active torsions:
REMARK  status: ('A' for Active; 'I' for Inactive)
REMARK    1  A    between atoms: O_5  and  C_10 
REMARK    2  A    between atoms: O_7  and  C_16 
REMARK    3  A    between atoms: C_11  and  C_16 
REMARK    4  A    between atoms: O_12  and  C_16 
REMARK    5  A    between atoms: O_14  and  C_16 
ROOT
HETATM    1  C   UNL     1     164.097-141.890-118.349  1.00  0.00     0.001 C 
HETATM    2  C   UNL     1     163.609-140.790-118.990  1.00  0.00     0.000 C 
HETATM    3  C   UNL     1     162.609-139.405-117.256  1.00  0.00     0.037 C 
HETATM    4  C   UNL     1     162.924-139.690-118.547  1.00  0.00     0.003 C 
HETATM    5  C   UNL     1     164.279-142.004-116.991  1.00  0.00     0.018 C 
HETATM    6  C   UNL     1     163.151-140.058-116.159  1.00  0.00     0.079 C 
HETATM    7  C   UNL     1     164.253-140.896-116.181  1.00  0.00     0.066 C 
ENDROOT
BRANCH   7   8
HETATM    8  C   UNL     1     165.403-140.680-115.188  1.00  0.00     0.310 C 
BRANCH   8   9
HETATM    9  O   UNL     1     165.702-139.339-115.211  1.00  0.00    -0.339 OA
ATOM     10  HO  UNL     1     166.287-139.175-114.480  1.00  0.00     0.216 HD
ENDBRANCH   8   9
BRANCH   8  11
HETATM   11  O   UNL     1     166.514-141.364-115.551  1.00  0.00    -0.339 OA
ATOM     12  HO  UNL     1     166.331-141.808-116.371  1.00  0.00     0.216 HD
ENDBRANCH   8  11
BRANCH   8  13
HETATM   13  O   UNL     1     165.018-140.959-113.941  1.00  0.00    -0.339 OA
ATOM     14  HO  UNL     1     164.852-140.124-113.519  1.00  0.00     0.216 HD
ENDBRANCH   8  13
ENDBRANCH   7   8
BRANCH   6  15
HETATM   15  O   UNL     1     162.521-139.839-114.963  1.00  0.00    -0.360 OA
ATOM     16  HO  UNL     1     161.592-139.644-115.016  1.00  0.00     0.217 HD
ENDBRANCH   6  15
TORSDOF 5
ENDMDL
MODEL 5
REMARK VINA RESULT:      -5.2      1.539      2.904
REMARK  5 active torsions:
REMARK  status: ('A' for Active; 'I' for Inactive)
REMARK    1  A    between atoms: O_5  and  C_10 
REMARK    2  A    between atoms: O_7  and  C_16 
REMARK    3  A    between atoms: C_11  and  C_16 
REMARK    4  A    between atoms: O_12  and  C_16 
REMARK    5  A    between atoms: O_14  and  C_16 
ROOT
HETATM    1  C   UNL     1     162.107-139.671-116.553  1.00  0.00     0.001 C 
HETATM    2  C   UNL     1     162.872-138.987-115.654  1.00  0.00     0.000 C 
HETATM    3  C   UNL     1     164.783-140.422-115.188  1.00  0.00     0.037 C 
HETATM    4  C   UNL     1     164.039-139.297-115.010  1.00  0.00     0.003 C 
HETATM    5  C   UNL     1     162.518-140.764-117.278  1.00  0.00     0.018 C 
HETATM    6  C   UNL     1     164.606-141.315-116.233  1.00  0.00     0.079 C 
HETATM    7  C   UNL     1     163.849-141.089-117.371  1.00  0.00     0.066 C 
ENDROOT
BRANCH   7   8
HETATM    8  C   UNL     1     164.452-141.343-118.758  1.00  0.00     0.310 C 
BRANCH   8   9
HETATM    9  O   UNL     1     164.049-142.600-119.142  1.00  0.00    -0.339 OA
ATOM     10  HO  UNL     1     164.837-143.112-119.280  1.00  0.00     0.216 HD
ENDBRANCH   8   9
BRANCH   8  11
HETATM   11  O   UNL     1     165.805-141.327-118.728  1.00  0.00    -0.339 OA
ATOM     12  HO  UNL     1     166.096-142.040-118.171  1.00  0.00     0.216 HD
ENDBRANCH   8  11
BRANCH   8  13
HETATM   13  O   UNL     1     163.952-140.496-119.660  1.00  0.00    -0.339 OA
ATOM     14  HO  UNL     1     163.359-139.923-119.189  1.00  0.00     0.216 HD
ENDBRANCH   8  13
ENDBRANCH   7   8
BRANCH   6  15
HETATM   15  O   UNL     1     165.243-142.520-116.102  1.00  0.00    -0.360 OA
ATOM     16  HO  UNL     1     164.678-143.279-116.014  1.00  0.00     0.217 HD
ENDBRANCH   6  15
TORSDOF 5
ENDMDL
MODEL 6
REMARK VINA RESULT:      -5.1      1.575      2.767
REMARK  5 active torsions:
REMARK  status: ('A' for Active; 'I' for Inactive)
REMARK    1  A    between atoms: O_5  and  C_10 
REMARK    2  A    between atoms: O_7  and  C_16 
REMARK    3  A    between atoms: C_11  and  C_16 
REMARK    4  A    between atoms: O_12  and  C_16 
REMARK    5  A    between atoms: O_14  and  C_16 
ROOT
HETATM    1  C   UNL     1     162.144-139.705-116.540  1.00  0.00     0.001 C 
HETATM    2  C   UNL     1     162.957-139.048-115.665  1.00  0.00     0.000 C 
HETATM    3  C   UNL     1     164.854-140.527-115.290  1.00  0.00     0.037 C 
HETATM    4  C   UNL     1     164.142-139.389-115.070  1.00  0.00     0.003 C 
HETATM    5  C   UNL     1     162.503-140.798-117.293  1.00  0.00     0.018 C 
HETATM    6  C   UNL     1     164.618-141.404-116.337  1.00  0.00     0.079 C 
HETATM    7  C   UNL     1     163.823-141.148-117.442  1.00  0.00     0.066 C 
ENDROOT
BRANCH   7   8
HETATM    8  C   UNL     1     164.365-141.399-118.854  1.00  0.00     0.310 C 
BRANCH   8   9
HETATM    9  O   UNL     1     165.735-141.339-118.771  1.00  0.00    -0.339 OA
ATOM     10  HO  UNL     1     165.960-141.447-117.854  1.00  0.00     0.216 HD
ENDBRANCH   8   9
BRANCH   8  11
HETATM   11  O   UNL     1     163.955-140.446-119.725  1.00  0.00    -0.339 OA
ATOM     12  HO  UNL     1     163.067-140.200-119.496  1.00  0.00     0.216 HD
ENDBRANCH   8  11
BRANCH   8  13
HETATM   13  O   UNL     1     164.067-142.631-119.271  1.00  0.00    -0.339 OA
ATOM     14  HO  UNL     1     163.975-143.163-118.489  1.00  0.00     0.216 HD
ENDBRANCH   8  13
ENDBRANCH   7   8
BRANCH   6  15
HETATM   15  O   UNL     1     165.235-142.623-116.245  1.00  0.00    -0.360 OA
ATOM     16  HO  UNL     1     165.908-142.695-115.578  1.00  0.00     0.217 HD
ENDBRANCH   6  15
TORSDOF 5
ENDMDL
MODEL 7
REMARK VINA RESULT:      -5.0      2.453      3.822
REMARK  5 active torsions:
REMARK  status: ('A' for Active; 'I' for Inactive)
REMARK    1  A    between atoms: O_5  and  C_10 
REMARK    2  A    between atoms: O_7  and  C_16 
REMARK    3  A    between atoms: C_11  and  C_16 
REMARK    4  A    between atoms: O_12  and  C_16 
REMARK    5  A    between atoms: O_14  and  C_16 
ROOT
HETATM    1  C   UNL     1     163.498-140.089-116.190  1.00  0.00     0.001 C 
HETATM    2  C   UNL     1     162.409-140.462-116.920  1.00  0.00     0.000 C 
HETATM    3  C   UNL     1     163.289-141.502-118.937  1.00  0.00     0.037 C 
HETATM    4  C   UNL     1     162.277-141.059-118.145  1.00  0.00     0.003 C 
HETATM    5  C   UNL     1     164.785-140.524-116.402  1.00  0.00     0.018 C 
HETATM    6  C   UNL     1     164.603-141.645-118.515  1.00  0.00     0.079 C 
HETATM    7  C   UNL     1     165.038-141.612-117.202  1.00  0.00     0.066 C 
ENDROOT
BRANCH   7   8
HETATM    8  C   UNL     1     165.940-142.730-116.662  1.00  0.00     0.310 C 
BRANCH   8   9
HETATM    9  O   UNL     1     166.313-142.361-115.392  1.00  0.00    -0.339 OA
ATOM     10  HO  UNL     1     166.442-141.420-115.405  1.00  0.00     0.216 HD
ENDBRANCH   8   9
BRANCH   8  11
HETATM   11  O   UNL     1     167.063-142.871-117.406  1.00  0.00    -0.339 OA
ATOM     12  HO  UNL     1     166.932-143.598-118.002  1.00  0.00     0.216 HD
ENDBRANCH   8  11
BRANCH   8  13
HETATM   13  O   UNL     1     165.264-143.874-116.539  1.00  0.00    -0.339 OA
ATOM     14  HO  UNL     1     164.614-143.877-117.231  1.00  0.00     0.216 HD
ENDBRANCH   8  13
ENDBRANCH   7   8
BRANCH   6  15
HETATM   15  O   UNL     1     165.530-141.830-119.506  1.00  0.00    -0.360 OA
ATOM     16  HO  UNL     1     166.418-141.997-119.215  1.00  0.00     0.217 HD
ENDBRANCH   6  15
TORSDOF 5
ENDMDL
MODEL 8
REMARK VINA RESULT:      -5.0      2.049      3.472
REMARK  5 active torsions:
REMARK  status: ('A' for Active; 'I' for Inactive)
REMARK    1  A    between atoms: O_5  and  C_10 
REMARK    2  A    between atoms: O_7  and  C_16 
REMARK    3  A    between atoms: C_11  and  C_16 
REMARK    4  A    between atoms: O_12  and  C_16 
REMARK    5  A    between atoms: O_14  and  C_16 
ROOT
HETATM    1  C   UNL     1     164.268-141.570-118.808  1.00  0.00     0.001 C 
HETATM    2  C   UNL     1     164.904-142.569-118.132  1.00  0.00     0.000 C 
HETATM    3  C   UNL     1     165.615-141.588-116.020  1.00  0.00     0.037 C 
HETATM    4  C   UNL     1     165.534-142.607-116.917  1.00  0.00     0.003 C 
HETATM    5  C   UNL     1     163.835-140.388-118.257  1.00  0.00     0.018 C 
HETATM    6  C   UNL     1     164.857-140.429-116.087  1.00  0.00     0.079 C 
HETATM    7  C   UNL     1     163.749-140.234-116.895  1.00  0.00     0.066 C 
ENDROOT
BRANCH   7   8
HETATM    8  C   UNL     1     162.444-139.697-116.294  1.00  0.00     0.310 C 
BRANCH   8   9
HETATM    9  O   UNL     1     162.367-138.368-116.635  1.00  0.00    -0.339 OA
ATOM     10  HO  UNL     1     162.664-138.296-117.534  1.00  0.00     0.216 HD
ENDBRANCH   8   9
BRANCH   8  11
HETATM   11  O   UNL     1     162.441-139.785-114.942  1.00  0.00    -0.339 OA
ATOM     12  HO  UNL     1     163.297-139.518-114.628  1.00  0.00     0.216 HD
ENDBRANCH   8  11
BRANCH   8  13
HETATM   13  O   UNL     1     161.383-140.289-116.845  1.00  0.00    -0.339 OA
ATOM     14  HO  UNL     1     161.184-141.043-116.302  1.00  0.00     0.216 HD
ENDBRANCH   8  13
ENDBRANCH   7   8
BRANCH   6  15
HETATM   15  O   UNL     1     165.263-139.404-115.276  1.00  0.00    -0.360 OA
ATOM     16  HO  UNL     1     165.053-139.498-114.354  1.00  0.00     0.217 HD
ENDBRANCH   6  15
TORSDOF 5
ENDMDL
MODEL 9
REMARK VINA RESULT:      -4.8      3.030      4.448
REMARK  5 active torsions:
REMARK  status: ('A' for Active; 'I' for Inactive)
REMARK    1  A    between atoms: O_5  and  C_10 
REMARK    2  A    between atoms: O_7  and  C_16 
REMARK    3  A    between atoms: C_11  and  C_16 
REMARK    4  A    between atoms: O_12  and  C_16 
REMARK    5  A    between atoms: O_14  and  C_16 
ROOT
HETATM    1  C   UNL     1     163.794-143.393-118.915  1.00  0.00     0.001 C 
HETATM    2  C   UNL     1     163.697-142.127-119.413  1.00  0.00     0.000 C 
HETATM    3  C   UNL     1     164.189-140.643-117.547  1.00  0.00     0.037 C 
HETATM    4  C   UNL     1     163.835-140.894-118.836  1.00  0.00     0.003 C 
HETATM    5  C   UNL     1     164.379-143.734-117.718  1.00  0.00     0.018 C 
HETATM    6  C   UNL     1     164.710-141.595-116.684  1.00  0.00     0.079 C 
HETATM    7  C   UNL     1     165.183-142.844-117.048  1.00  0.00     0.066 C 
ENDROOT
BRANCH   7   8
HETATM    8  C   UNL     1     166.567-143.310-116.577  1.00  0.00     0.310 C 
BRANCH   8   9
HETATM    9  O   UNL     1     167.284-142.179-116.269  1.00  0.00    -0.339 OA
ATOM     10  HO  UNL     1     166.655-141.519-116.001  1.00  0.00     0.216 HD
ENDBRANCH   8   9
BRANCH   8  11
HETATM   11  O   UNL     1     167.230-143.977-117.551  1.00  0.00    -0.339 OA
ATOM     12  HO  UNL     1     167.003-143.582-118.385  1.00  0.00     0.216 HD
ENDBRANCH   8  11
BRANCH   8  13
HETATM   13  O   UNL     1     166.475-144.016-115.448  1.00  0.00    -0.339 OA
ATOM     14  HO  UNL     1     166.746-143.436-114.746  1.00  0.00     0.216 HD
ENDBRANCH   8  13
ENDBRANCH   7   8
BRANCH   6  15
HETATM   15  O   UNL     1     164.746-141.243-115.361  1.00  0.00    -0.360 OA
ATOM     16  HO  UNL     1     164.928-141.948-114.751  1.00  0.00     0.217 HD
ENDBRANCH   6  15
TORSDOF 5
ENDMDL
