REMARK  6 active torsions:
REMARK  status: ('A' for Active; 'I' for Inactive)
REMARK    1  A    between atoms: C_1  and  O_9 
REMARK    2  A    between atoms: C_2  and  C_3 
REMARK    3  A    between atoms: C_6  and  C_20 
REMARK    4  A    between atoms: C_11  and  C_12 
REMARK    5  A    between atoms: O_17  and  C_22 
REMARK    6  A    between atoms: C_20  and  C_21 
ROOT
HETATM    1  C   UNL     1      -9.836 -19.055   3.556  1.00  0.00     0.026 C 
HETATM    2  C   UNL     1      -8.866 -18.145   3.849  1.00  0.00    -0.025 C 
ENDROOT
BRANCH   2   3
HETATM    3  C   UNL     1      -9.138 -17.096   4.884  1.00  0.00    -0.026 C 
HETATM    4  C   UNL     1      -8.350 -15.953   5.033  1.00  0.00     0.012 C 
HETATM    5  C   UNL     1      -8.183 -15.439   6.330  1.00  0.00     0.001 C 
HETATM    6  C   UNL     1      -9.022 -15.861   7.356  1.00  0.00     0.000 C 
HETATM    7  C   UNL     1     -10.061 -16.735   7.080  1.00  0.00     0.001 C 
HETATM    8  C   UNL     1     -10.176 -17.275   5.799  1.00  0.00     0.012 C 
ENDBRANCH   2   3
BRANCH   2   9
HETATM    9  C   UNL     1      -7.554 -18.132   3.199  1.00  0.00     0.013 C 
HETATM   10  C   UNL     1      -6.428 -18.614   3.830  1.00  0.00     0.017 C 
BRANCH  10  11
HETATM   11  C   UNL     1      -5.122 -17.995   3.465  1.00  0.00     0.080 C 
HETATM   12  N   UNL     1      -3.989 -18.197   4.000  1.00  0.00    -0.408 N 
ATOM     13  HN2 UNL     1      -3.990 -18.866   4.770  1.00  0.00     0.155 HD
ATOM     14  HN1 UNL     1      -3.095 -17.773   3.750  1.00  0.00     0.155 HD
ENDBRANCH  10  11
ENDBRANCH   2   9
BRANCH   1  15
HETATM   15  C   UNL     1      -9.825 -20.308   2.835  1.00  0.00    -0.002 C 
HETATM   16  C   UNL     1      -9.475 -20.346   1.472  1.00  0.00     0.078 C 
HETATM   17  C   UNL     1      -9.334 -21.567   0.812  1.00  0.00     0.073 C 
HETATM   18  C   UNL     1      -9.871 -22.708   1.398  1.00  0.00     0.068 C 
HETATM   19  C   UNL     1     -10.224 -22.697   2.744  1.00  0.00     0.037 C 
HETATM   20  C   UNL     1     -10.183 -21.505   3.474  1.00  0.00     0.017 C 
BRANCH  16  21
HETATM   21  O   UNL     1      -9.334 -19.170   0.801  1.00  0.00    -0.360 OA
ATOM     22  HO  UNL     1      -9.098 -19.196  -0.119  1.00  0.00     0.217 HD
ENDBRANCH  16  21
BRANCH  18  23
HETATM   23  O   UNL     1     -10.275 -23.727   0.583  1.00  0.00    -0.361 OA
ATOM     24  HO  UNL     1     -10.642 -24.507   0.983  1.00  0.00     0.217 HD
ENDBRANCH  18  23
ENDBRANCH   1  15
TORSDOF 6
