MODEL 1
REMARK VINA RESULT:      -9.2      0.000      0.000
REMARK  2 active torsions:
REMARK  status: ('A' for Active; 'I' for Inactive)
REMARK    1  A    between atoms: N_5  and  C_17 
REMARK    2  A    between atoms: N_5  and  C_20 
ROOT
HETATM    1  O   UNL     1      -8.785 -23.212   0.667  1.00  0.00    -0.351 OA
HETATM    2  C   UNL     1      -9.464 -24.445   0.448  1.00  0.00     0.176 C 
HETATM    3  C   UNL     1     -10.955 -24.215   0.308  1.00  0.00     0.031 C 
HETATM    4  C   UNL     1     -11.505 -23.562   1.574  1.00  0.00     0.043 C 
HETATM    5  C   UNL     1     -10.520 -20.441   3.608  1.00  0.00     0.030 C 
HETATM    6  C   UNL     1      -9.237 -19.681   1.634  1.00  0.00     0.032 C 
HETATM    7  C   UNL     1     -10.871 -21.755   3.242  1.00  0.00     0.012 C 
HETATM    8  C   UNL     1      -9.007 -20.873   0.959  1.00  0.00     0.039 C 
HETATM    9  C   UNL     1      -9.866 -19.440   2.882  1.00  0.00     0.029 C 
HETATM   10  C   UNL     1      -9.460 -22.153   1.224  1.00  0.00     0.075 C 
HETATM   11  C   UNL     1     -10.595 -22.449   2.068  1.00  0.00    -0.025 C 
ENDROOT
BRANCH   9  12
HETATM   12  N   UNL     1      -9.868 -18.051   3.238  1.00  0.00    -0.374 N 
ATOM     13  HN  UNL     1     -10.494 -17.523   2.630  1.00  0.00     0.161 HD
BRANCH  12  14
HETATM   14  C   UNL     1      -9.216 -17.150   4.245  1.00  0.00     0.087 C 
HETATM   15  C   UNL     1      -9.389 -15.655   3.834  1.00  0.00     0.038 C 
HETATM   16  C   UNL     1      -9.108 -14.617   4.946  1.00  0.00     0.003 C 
HETATM   17  C   UNL     1      -8.785 -15.067   6.366  1.00  0.00     0.007 C 
HETATM   18  C   UNL     1      -9.441 -16.372   6.822  1.00  0.00     0.081 C 
HETATM   19  C   UNL     1      -9.870 -17.293   5.668  1.00  0.00     0.154 C 
HETATM   20  O   UNL     1     -10.954 -17.825   5.741  1.00  0.00    -0.295 OA
HETATM   21  C   UNL     1      -7.715 -17.473   4.313  1.00  0.00     0.047 C 
ENDBRANCH  12  14
ENDBRANCH   9  12
TORSDOF 2
ENDMDL
MODEL 2
REMARK VINA RESULT:      -8.8      3.203      8.693
REMARK  2 active torsions:
REMARK  status: ('A' for Active; 'I' for Inactive)
REMARK    1  A    between atoms: N_5  and  C_17 
REMARK    2  A    between atoms: N_5  and  C_20 
ROOT
HETATM    1  O   UNL     1     -10.320 -20.684   4.039  1.00  0.00    -0.351 OA
HETATM    2  C   UNL     1      -9.872 -19.333   3.984  1.00  0.00     0.176 C 
HETATM    3  C   UNL     1     -10.121 -18.744   2.611  1.00  0.00     0.031 C 
HETATM    4  C   UNL     1      -9.382 -19.556   1.551  1.00  0.00     0.043 C 
HETATM    5  C   UNL     1      -9.256 -23.305   0.672  1.00  0.00     0.030 C 
HETATM    6  C   UNL     1     -11.329 -23.584   1.994  1.00  0.00     0.032 C 
HETATM    7  C   UNL     1      -8.890 -21.980   0.977  1.00  0.00     0.012 C 
HETATM    8  C   UNL     1     -11.286 -22.482   2.840  1.00  0.00     0.039 C 
HETATM    9  C   UNL     1     -10.391 -24.039   1.032  1.00  0.00     0.029 C 
HETATM   10  C   UNL     1     -10.398 -21.422   2.883  1.00  0.00     0.075 C 
HETATM   11  C   UNL     1      -9.531 -21.050   1.788  1.00  0.00    -0.025 C 
ENDROOT
BRANCH   9  12
HETATM   12  N   UNL     1     -10.809 -25.250   0.389  1.00  0.00    -0.374 N 
ATOM     13  HN  UNL     1     -10.003 -25.783   0.062  1.00  0.00     0.161 HD
BRANCH  12  14
HETATM   14  C   UNL     1     -12.088 -25.962   0.058  1.00  0.00     0.087 C 
HETATM   15  C   UNL     1     -11.870 -26.959  -1.121  1.00  0.00     0.038 C 
HETATM   16  C   UNL     1     -12.981 -28.018  -1.318  1.00  0.00     0.003 C 
HETATM   17  C   UNL     1     -14.145 -28.114  -0.340  1.00  0.00     0.007 C 
HETATM   18  C   UNL     1     -13.838 -27.731   1.109  1.00  0.00     0.081 C 
HETATM   19  C   UNL     1     -12.610 -26.820   1.269  1.00  0.00     0.154 C 
HETATM   20  O   UNL     1     -11.833 -27.068   2.162  1.00  0.00    -0.295 OA
HETATM   21  C   UNL     1     -13.147 -24.928  -0.358  1.00  0.00     0.047 C 
ENDBRANCH  12  14
ENDBRANCH   9  12
TORSDOF 2
ENDMDL
MODEL 3
REMARK VINA RESULT:      -8.6      3.911      9.504
REMARK  2 active torsions:
REMARK  status: ('A' for Active; 'I' for Inactive)
REMARK    1  A    between atoms: N_5  and  C_17 
REMARK    2  A    between atoms: N_5  and  C_20 
ROOT
HETATM    1  O   UNL     1     -10.429 -21.792   3.355  1.00  0.00    -0.351 OA
HETATM    2  C   UNL     1      -9.721 -20.560   3.256  1.00  0.00     0.176 C 
HETATM    3  C   UNL     1      -9.727 -20.055   1.828  1.00  0.00     0.031 C 
HETATM    4  C   UNL     1      -9.070 -21.080   0.907  1.00  0.00     0.043 C 
HETATM    5  C   UNL     1      -9.606 -24.847   0.300  1.00  0.00     0.030 C 
HETATM    6  C   UNL     1     -11.802 -24.614   1.416  1.00  0.00     0.032 C 
HETATM    7  C   UNL     1      -9.015 -23.593   0.551  1.00  0.00     0.012 C 
HETATM    8  C   UNL     1     -11.619 -23.472   2.185  1.00  0.00     0.039 C 
HETATM    9  C   UNL     1     -10.890 -25.319   0.589  1.00  0.00     0.029 C 
HETATM   10  C   UNL     1     -10.547 -22.599   2.249  1.00  0.00     0.075 C 
HETATM   11  C   UNL     1      -9.530 -22.493   1.228  1.00  0.00    -0.025 C 
ENDROOT
BRANCH   9  12
HETATM   12  N   UNL     1     -11.479 -26.481  -0.011  1.00  0.00    -0.374 N 
ATOM     13  HN  UNL     1     -10.759 -27.145  -0.297  1.00  0.00     0.161 HD
BRANCH  12  14
HETATM   14  C   UNL     1     -12.847 -27.002  -0.341  1.00  0.00     0.087 C 
HETATM   15  C   UNL     1     -13.690 -25.905  -1.061  1.00  0.00     0.038 C 
HETATM   16  C   UNL     1     -14.962 -26.406  -1.788  1.00  0.00     0.003 C 
HETATM   17  C   UNL     1     -15.280 -27.894  -1.860  1.00  0.00     0.007 C 
HETATM   18  C   UNL     1     -14.075 -28.837  -1.896  1.00  0.00     0.081 C 
HETATM   19  C   UNL     1     -12.785 -28.226  -1.326  1.00  0.00     0.154 C 
HETATM   20  O   UNL     1     -11.754 -28.412  -1.932  1.00  0.00    -0.295 OA
HETATM   21  C   UNL     1     -13.562 -27.401   0.960  1.00  0.00     0.047 C 
ENDBRANCH  12  14
ENDBRANCH   9  12
TORSDOF 2
ENDMDL
MODEL 4
REMARK VINA RESULT:      -8.5      1.330      1.828
REMARK  2 active torsions:
REMARK  status: ('A' for Active; 'I' for Inactive)
REMARK    1  A    between atoms: N_5  and  C_17 
REMARK    2  A    between atoms: N_5  and  C_20 
ROOT
HETATM    1  O   UNL     1      -8.613 -22.392   0.934  1.00  0.00    -0.351 OA
HETATM    2  C   UNL     1      -9.262 -23.632   0.671  1.00  0.00     0.176 C 
HETATM    3  C   UNL     1     -10.765 -23.449   0.624  1.00  0.00     0.031 C 
HETATM    4  C   UNL     1     -11.267 -22.900   1.957  1.00  0.00     0.043 C 
HETATM    5  C   UNL     1     -10.278 -19.881   4.137  1.00  0.00     0.030 C 
HETATM    6  C   UNL     1      -9.129 -18.949   2.154  1.00  0.00     0.032 C 
HETATM    7  C   UNL     1     -10.604 -21.181   3.704  1.00  0.00     0.012 C 
HETATM    8  C   UNL     1      -8.897 -20.086   1.390  1.00  0.00     0.039 C 
HETATM    9  C   UNL     1      -9.697 -18.812   3.446  1.00  0.00     0.029 C 
HETATM   10  C   UNL     1      -9.292 -21.397   1.594  1.00  0.00     0.075 C 
HETATM   11  C   UNL     1     -10.369 -21.788   2.475  1.00  0.00    -0.025 C 
ENDROOT
BRANCH   9  12
HETATM   12  N   UNL     1      -9.727 -17.450   3.892  1.00  0.00    -0.374 N 
ATOM     13  HN  UNL     1      -9.593 -16.810   3.109  1.00  0.00     0.161 HD
BRANCH  12  14
HETATM   14  C   UNL     1      -9.897 -16.693   5.177  1.00  0.00     0.087 C 
HETATM   15  C   UNL     1      -8.657 -16.901   6.101  1.00  0.00     0.038 C 
HETATM   16  C   UNL     1      -8.519 -15.900   7.273  1.00  0.00     0.003 C 
HETATM   17  C   UNL     1      -9.494 -14.738   7.421  1.00  0.00     0.007 C 
HETATM   18  C   UNL     1     -10.061 -14.167   6.119  1.00  0.00     0.081 C 
HETATM   19  C   UNL     1     -10.009 -15.144   4.933  1.00  0.00     0.154 C 
HETATM   20  O   UNL     1      -9.651 -14.713   3.860  1.00  0.00    -0.295 OA
HETATM   21  C   UNL     1     -11.148 -17.210   5.905  1.00  0.00     0.047 C 
ENDBRANCH  12  14
ENDBRANCH   9  12
TORSDOF 2
ENDMDL
MODEL 5
REMARK VINA RESULT:      -8.3      1.467      2.393
REMARK  2 active torsions:
REMARK  status: ('A' for Active; 'I' for Inactive)
REMARK    1  A    between atoms: N_5  and  C_17 
REMARK    2  A    between atoms: N_5  and  C_20 
ROOT
HETATM    1  O   UNL     1     -11.253 -22.461   2.099  1.00  0.00    -0.351 OA
HETATM    2  C   UNL     1     -10.628 -23.128   1.007  1.00  0.00     0.176 C 
HETATM    3  C   UNL     1      -9.127 -22.932   1.050  1.00  0.00     0.031 C 
HETATM    4  C   UNL     1      -8.791 -21.445   0.980  1.00  0.00     0.043 C 
HETATM    5  C   UNL     1      -9.940 -18.356   2.976  1.00  0.00     0.030 C 
HETATM    6  C   UNL     1     -10.762 -19.909   4.718  1.00  0.00     0.032 C 
HETATM    7  C   UNL     1      -9.614 -19.237   1.927  1.00  0.00     0.012 C 
HETATM    8  C   UNL     1     -10.936 -21.086   4.001  1.00  0.00     0.039 C 
HETATM    9  C   UNL     1     -10.373 -18.617   4.280  1.00  0.00     0.029 C 
HETATM   10  C   UNL     1     -10.629 -21.386   2.685  1.00  0.00     0.075 C 
HETATM   11  C   UNL     1      -9.703 -20.624   1.878  1.00  0.00    -0.025 C 
ENDROOT
BRANCH   9  12
HETATM   12  N   UNL     1     -10.346 -17.661   5.348  1.00  0.00    -0.374 N 
ATOM     13  HN  UNL     1     -11.097 -17.841   6.014  1.00  0.00     0.161 HD
BRANCH  12  14
HETATM   14  C   UNL     1      -9.534 -16.470   5.768  1.00  0.00     0.087 C 
HETATM   15  C   UNL     1      -8.937 -15.749   4.520  1.00  0.00     0.038 C 
HETATM   16  C   UNL     1      -8.403 -14.317   4.765  1.00  0.00     0.003 C 
HETATM   17  C   UNL     1      -8.563 -13.651   6.126  1.00  0.00     0.007 C 
HETATM   18  C   UNL     1      -9.808 -14.045   6.925  1.00  0.00     0.081 C 
HETATM   19  C   UNL     1     -10.409 -15.400   6.518  1.00  0.00     0.154 C 
HETATM   20  O   UNL     1     -11.612 -15.477   6.408  1.00  0.00    -0.295 OA
HETATM   21  C   UNL     1      -8.379 -16.940   6.667  1.00  0.00     0.047 C 
ENDBRANCH  12  14
ENDBRANCH   9  12
TORSDOF 2
ENDMDL
MODEL 6
REMARK VINA RESULT:      -8.2      1.464      2.445
REMARK  2 active torsions:
REMARK  status: ('A' for Active; 'I' for Inactive)
REMARK    1  A    between atoms: N_5  and  C_17 
REMARK    2  A    between atoms: N_5  and  C_20 
ROOT
HETATM    1  O   UNL     1     -11.571 -22.774   2.206  1.00  0.00    -0.351 OA
HETATM    2  C   UNL     1     -11.332 -23.789   1.235  1.00  0.00     0.176 C 
HETATM    3  C   UNL     1      -9.845 -24.006   1.044  1.00  0.00     0.031 C 
HETATM    4  C   UNL     1      -9.183 -22.711   0.582  1.00  0.00     0.043 C 
HETATM    5  C   UNL     1      -9.180 -19.095   1.914  1.00  0.00     0.030 C 
HETATM    6  C   UNL     1     -10.019 -19.990   4.063  1.00  0.00     0.032 C 
HETATM    7  C   UNL     1      -9.270 -20.221   1.072  1.00  0.00     0.012 C 
HETATM    8  C   UNL     1     -10.595 -21.193   3.673  1.00  0.00     0.039 C 
HETATM    9  C   UNL     1      -9.418 -18.967   3.286  1.00  0.00     0.029 C 
HETATM   10  C   UNL     1     -10.613 -21.817   2.438  1.00  0.00     0.075 C 
HETATM   11  C   UNL     1      -9.694 -21.512   1.365  1.00  0.00    -0.025 C 
ENDROOT
BRANCH   9  12
HETATM   12  N   UNL     1      -8.971 -17.863   4.084  1.00  0.00    -0.374 N 
ATOM     13  HN  UNL     1      -8.001 -17.631   3.871  1.00  0.00     0.161 HD
BRANCH  12  14
HETATM   14  C   UNL     1      -9.518 -16.950   5.143  1.00  0.00     0.087 C 
HETATM   15  C   UNL     1      -8.552 -16.893   6.367  1.00  0.00     0.038 C 
HETATM   16  C   UNL     1      -8.788 -15.724   7.354  1.00  0.00     0.003 C 
HETATM   17  C   UNL     1      -9.838 -14.660   7.060  1.00  0.00     0.007 C 
HETATM   18  C   UNL     1     -10.079 -14.345   5.582  1.00  0.00     0.081 C 
HETATM   19  C   UNL     1      -9.658 -15.471   4.625  1.00  0.00     0.154 C 
HETATM   20  O   UNL     1      -9.059 -15.166   3.618  1.00  0.00    -0.295 OA
HETATM   21  C   UNL     1     -10.881 -17.481   5.613  1.00  0.00     0.047 C 
ENDBRANCH  12  14
ENDBRANCH   9  12
TORSDOF 2
ENDMDL
MODEL 7
REMARK VINA RESULT:      -8.1      2.860      8.395
REMARK  2 active torsions:
REMARK  status: ('A' for Active; 'I' for Inactive)
REMARK    1  A    between atoms: N_5  and  C_17 
REMARK    2  A    between atoms: N_5  and  C_20 
ROOT
HETATM    1  O   UNL     1      -9.255 -18.962   1.541  1.00  0.00    -0.351 OA
HETATM    2  C   UNL     1      -9.257 -18.001   2.593  1.00  0.00     0.176 C 
HETATM    3  C   UNL     1      -8.880 -18.650   3.909  1.00  0.00     0.031 C 
HETATM    4  C   UNL     1      -9.872 -19.759   4.248  1.00  0.00     0.043 C 
HETATM    5  C   UNL     1     -11.199 -22.827   2.331  1.00  0.00     0.030 C 
HETATM    6  C   UNL     1      -9.277 -22.575   0.794  1.00  0.00     0.032 C 
HETATM    7  C   UNL     1     -11.120 -21.647   3.096  1.00  0.00     0.012 C 
HETATM    8  C   UNL     1      -8.943 -21.237   0.961  1.00  0.00     0.039 C 
HETATM    9  C   UNL     1     -10.341 -23.331   1.348  1.00  0.00     0.029 C 
HETATM   10  C   UNL     1      -9.451 -20.290   1.834  1.00  0.00     0.075 C 
HETATM   11  C   UNL     1     -10.193 -20.612   3.032  1.00  0.00    -0.025 C 
ENDROOT
BRANCH   9  12
HETATM   12  N   UNL     1     -10.348 -24.689   0.889  1.00  0.00    -0.374 N 
ATOM     13  HN  UNL     1      -9.411 -25.090   0.931  1.00  0.00     0.161 HD
BRANCH  12  14
HETATM   14  C   UNL     1     -11.334 -25.691   0.363  1.00  0.00     0.087 C 
HETATM   15  C   UNL     1     -12.503 -24.970  -0.377  1.00  0.00     0.038 C 
HETATM   16  C   UNL     1     -13.379 -25.868  -1.282  1.00  0.00     0.003 C 
HETATM   17  C   UNL     1     -13.028 -27.336  -1.493  1.00  0.00     0.007 C 
HETATM   18  C   UNL     1     -11.538 -27.683  -1.449  1.00  0.00     0.081 C 
HETATM   19  C   UNL     1     -10.680 -26.660  -0.689  1.00  0.00     0.154 C 
HETATM   20  O   UNL     1      -9.623 -26.331  -1.178  1.00  0.00    -0.295 OA
HETATM   21  C   UNL     1     -11.913 -26.493   1.539  1.00  0.00     0.047 C 
ENDBRANCH  12  14
ENDBRANCH   9  12
TORSDOF 2
ENDMDL
MODEL 8
REMARK VINA RESULT:      -7.8      3.314      6.070
REMARK  2 active torsions:
REMARK  status: ('A' for Active; 'I' for Inactive)
REMARK    1  A    between atoms: N_5  and  C_17 
REMARK    2  A    between atoms: N_5  and  C_20 
ROOT
HETATM    1  O   UNL     1     -10.789 -18.821   4.548  1.00  0.00    -0.351 OA
HETATM    2  C   UNL     1     -10.584 -19.507   3.316  1.00  0.00     0.176 C 
HETATM    3  C   UNL     1      -9.122 -19.471   2.921  1.00  0.00     0.031 C 
HETATM    4  C   UNL     1      -8.658 -18.025   2.767  1.00  0.00     0.043 C 
HETATM    5  C   UNL     1      -8.831 -14.913   5.032  1.00  0.00     0.030 C 
HETATM    6  C   UNL     1      -9.282 -16.439   6.927  1.00  0.00     0.032 C 
HETATM    7  C   UNL     1      -8.922 -15.782   3.928  1.00  0.00     0.012 C 
HETATM    8  C   UNL     1      -9.785 -17.562   6.284  1.00  0.00     0.039 C 
HETATM    9  C   UNL     1      -8.894 -15.178   6.404  1.00  0.00     0.029 C 
HETATM   10  C   UNL     1      -9.907 -17.841   4.934  1.00  0.00     0.075 C 
HETATM   11  C   UNL     1      -9.174 -17.149   3.897  1.00  0.00    -0.025 C 
ENDROOT
BRANCH   9  12
HETATM   12  N   UNL     1      -8.454 -14.272   7.424  1.00  0.00    -0.374 N 
ATOM     13  HN  UNL     1      -7.815 -14.736   8.069  1.00  0.00     0.161 HD
BRANCH  12  14
HETATM   14  C   UNL     1      -8.663 -12.838   7.817  1.00  0.00     0.087 C 
HETATM   15  C   UNL     1      -8.519 -12.669   9.361  1.00  0.00     0.038 C 
HETATM   16  C   UNL     1      -8.334 -11.217   9.862  1.00  0.00     0.003 C 
HETATM   17  C   UNL     1      -8.202 -10.065   8.873  1.00  0.00     0.007 C 
HETATM   18  C   UNL     1      -7.536 -10.400   7.537  1.00  0.00     0.081 C 
HETATM   19  C   UNL     1      -7.588 -11.891   7.169  1.00  0.00     0.154 C 
HETATM   20  O   UNL     1      -6.586 -12.400   6.719  1.00  0.00    -0.295 OA
HETATM   21  C   UNL     1     -10.077 -12.402   7.402  1.00  0.00     0.047 C 
ENDBRANCH  12  14
ENDBRANCH   9  12
TORSDOF 2
ENDMDL
MODEL 9
REMARK VINA RESULT:      -7.6      3.146      5.408
REMARK  2 active torsions:
REMARK  status: ('A' for Active; 'I' for Inactive)
REMARK    1  A    between atoms: N_5  and  C_17 
REMARK    2  A    between atoms: N_5  and  C_20 
ROOT
HETATM    1  O   UNL     1      -8.345 -18.203   2.899  1.00  0.00    -0.351 OA
HETATM    2  C   UNL     1      -8.837 -19.523   2.691  1.00  0.00     0.176 C 
HETATM    3  C   UNL     1     -10.321 -19.593   2.985  1.00  0.00     0.031 C 
HETATM    4  C   UNL     1     -10.587 -19.187   4.432  1.00  0.00     0.043 C 
HETATM    5  C   UNL     1      -9.610 -16.132   6.567  1.00  0.00     0.030 C 
HETATM    6  C   UNL     1      -9.098 -14.945   4.457  1.00  0.00     0.032 C 
HETATM    7  C   UNL     1      -9.821 -17.450   6.118  1.00  0.00     0.012 C 
HETATM    8  C   UNL     1      -8.872 -15.996   3.578  1.00  0.00     0.039 C 
HETATM    9  C   UNL     1      -9.374 -14.955   5.849  1.00  0.00     0.029 C 
HETATM   10  C   UNL     1      -9.003 -17.362   3.764  1.00  0.00     0.075 C 
HETATM   11  C   UNL     1      -9.779 -17.961   4.826  1.00  0.00    -0.025 C 
ENDROOT
BRANCH   9  12
HETATM   12  N   UNL     1      -9.512 -13.635   6.391  1.00  0.00    -0.374 N 
ATOM     13  HN  UNL     1     -10.392 -13.212   6.095  1.00  0.00     0.161 HD
BRANCH  12  14
HETATM   14  C   UNL     1      -8.737 -12.696   7.268  1.00  0.00     0.087 C 
HETATM   15  C   UNL     1      -9.196 -11.223   7.032  1.00  0.00     0.038 C 
HETATM   16  C   UNL     1      -8.765 -10.205   8.114  1.00  0.00     0.003 C 
HETATM   17  C   UNL     1      -8.029 -10.666   9.366  1.00  0.00     0.007 C 
HETATM   18  C   UNL     1      -8.376 -12.069   9.870  1.00  0.00     0.081 C 
HETATM   19  C   UNL     1      -8.973 -12.991   8.794  1.00  0.00     0.154 C 
HETATM   20  O   UNL     1      -9.926 -13.672   9.097  1.00  0.00    -0.295 OA
HETATM   21  C   UNL     1      -7.242 -12.807   6.929  1.00  0.00     0.047 C 
ENDBRANCH  12  14
ENDBRANCH   9  12
TORSDOF 2
ENDMDL
