MODEL 1
REMARK VINA RESULT:      -4.0      0.000      0.000
REMARK  4 active torsions:
REMARK  status: ('A' for Active; 'I' for Inactive)
REMARK    1  A    between atoms: C_1  and  C_6 
REMARK    2  A    between atoms: C_1  and  C_7 
REMARK    3  A    between atoms: C_1  and  O_8 
REMARK    4  A    between atoms: O_3  and  C_6 
ROOT
HETATM    1  C   UNL     1      22.351  -5.129  14.840  1.00  0.00     0.242 C 
ENDROOT
BRANCH   1   2
HETATM    2  C   UNL     1      23.810  -5.399  14.481  1.00  0.00     0.206 C 
BRANCH   2   3
HETATM    3  O   UNL     1      23.928  -6.772  14.156  1.00  0.00    -0.398 OA
ATOM      4  HO  UNL     1      24.288  -7.219  14.913  1.00  0.00     0.209 HD
ENDBRANCH   2   3
ENDBRANCH   1   2
BRANCH   1   5
HETATM    5  C   UNL     1      21.641  -6.418  15.193  1.00  0.00     0.205 C 
HETATM    6  O   UNL     1      20.750  -6.847  14.475  1.00  0.00    -0.646 OA
HETATM    7  O   UNL     1      22.012  -6.963  16.250  1.00  0.00    -0.646 OA
ENDBRANCH   1   5
BRANCH   1   8
HETATM    8  O   UNL     1      22.135  -4.076  15.746  1.00  0.00    -0.383 OA
ATOM      9  HO  UNL     1      21.270  -4.045  16.139  1.00  0.00     0.210 HD
ENDBRANCH   1   8
TORSDOF 4
ENDMDL
MODEL 2
REMARK VINA RESULT:      -4.0      0.046      1.166
REMARK  4 active torsions:
REMARK  status: ('A' for Active; 'I' for Inactive)
REMARK    1  A    between atoms: C_1  and  C_6 
REMARK    2  A    between atoms: C_1  and  C_7 
REMARK    3  A    between atoms: C_1  and  O_8 
REMARK    4  A    between atoms: O_3  and  C_6 
ROOT
HETATM    1  C   UNL     1      22.371  -5.114  14.848  1.00  0.00     0.242 C 
ENDROOT
BRANCH   1   2
HETATM    2  C   UNL     1      23.823  -5.396  14.468  1.00  0.00     0.206 C 
BRANCH   2   3
HETATM    3  O   UNL     1      23.929  -6.774  14.161  1.00  0.00    -0.398 OA
ATOM      4  HO  UNL     1      23.491  -7.259  14.851  1.00  0.00     0.209 HD
ENDBRANCH   2   3
ENDBRANCH   1   2
BRANCH   1   5
HETATM    5  C   UNL     1      21.667  -6.392  15.249  1.00  0.00     0.205 C 
HETATM    6  O   UNL     1      22.003  -6.990  16.260  1.00  0.00    -0.646 OA
HETATM    7  O   UNL     1      20.771  -6.777  14.473  1.00  0.00    -0.646 OA
ENDBRANCH   1   5
BRANCH   1   8
HETATM    8  O   UNL     1      22.174  -4.038  15.730  1.00  0.00    -0.383 OA
ATOM      9  HO  UNL     1      22.112  -4.268  16.650  1.00  0.00     0.210 HD
ENDBRANCH   1   8
TORSDOF 4
ENDMDL
MODEL 3
REMARK VINA RESULT:      -3.6      1.424      3.108
REMARK  4 active torsions:
REMARK  status: ('A' for Active; 'I' for Inactive)
REMARK    1  A    between atoms: C_1  and  C_6 
REMARK    2  A    between atoms: C_1  and  C_7 
REMARK    3  A    between atoms: C_1  and  O_8 
REMARK    4  A    between atoms: O_3  and  C_6 
ROOT
HETATM    1  C   UNL     1      22.827  -5.842  14.463  1.00  0.00     0.242 C 
ENDROOT
BRANCH   1   2
HETATM    2  C   UNL     1      21.557  -6.187  15.237  1.00  0.00     0.206 C 
BRANCH   2   3
HETATM    3  O   UNL     1      21.187  -5.046  15.990  1.00  0.00    -0.398 OA
ATOM      4  HO  UNL     1      21.937  -4.463  16.018  1.00  0.00     0.209 HD
ENDBRANCH   2   3
ENDBRANCH   1   2
BRANCH   1   5
HETATM    5  C   UNL     1      23.405  -4.529  14.945  1.00  0.00     0.205 C 
HETATM    6  O   UNL     1      23.052  -3.476  14.434  1.00  0.00    -0.646 OA
HETATM    7  O   UNL     1      24.256  -4.617  15.850  1.00  0.00    -0.646 OA
ENDBRANCH   1   5
BRANCH   1   8
HETATM    8  O   UNL     1      23.764  -6.883  14.342  1.00  0.00    -0.383 OA
ATOM      9  HO  UNL     1      23.663  -7.597  14.961  1.00  0.00     0.210 HD
ENDBRANCH   1   8
TORSDOF 4
ENDMDL
MODEL 4
REMARK VINA RESULT:      -3.6      0.608      2.065
REMARK  4 active torsions:
REMARK  status: ('A' for Active; 'I' for Inactive)
REMARK    1  A    between atoms: C_1  and  C_6 
REMARK    2  A    between atoms: C_1  and  C_7 
REMARK    3  A    between atoms: C_1  and  O_8 
REMARK    4  A    between atoms: O_3  and  C_6 
ROOT
HETATM    1  C   UNL     1      23.265  -5.824  14.815  1.00  0.00     0.242 C 
ENDROOT
BRANCH   1   2
HETATM    2  C   UNL     1      23.116  -4.305  14.781  1.00  0.00     0.206 C 
BRANCH   2   3
HETATM    3  O   UNL     1      22.127  -3.947  15.729  1.00  0.00    -0.398 OA
ATOM      4  HO  UNL     1      21.409  -4.565  15.646  1.00  0.00     0.209 HD
ENDBRANCH   2   3
ENDBRANCH   1   2
BRANCH   1   5
HETATM    5  C   UNL     1      21.953  -6.481  15.182  1.00  0.00     0.205 C 
HETATM    6  O   UNL     1      20.998  -6.416  14.422  1.00  0.00    -0.646 OA
HETATM    7  O   UNL     1      21.927  -7.046  16.291  1.00  0.00    -0.646 OA
ENDBRANCH   1   5
BRANCH   1   8
HETATM    8  O   UNL     1      23.914  -6.393  13.705  1.00  0.00    -0.383 OA
ATOM      9  HO  UNL     1      24.823  -6.142  13.589  1.00  0.00     0.210 HD
ENDBRANCH   1   8
TORSDOF 4
ENDMDL
MODEL 5
REMARK VINA RESULT:      -3.4      1.465      2.331
REMARK  4 active torsions:
REMARK  status: ('A' for Active; 'I' for Inactive)
REMARK    1  A    between atoms: C_1  and  C_6 
REMARK    2  A    between atoms: C_1  and  C_7 
REMARK    3  A    between atoms: C_1  and  O_8 
REMARK    4  A    between atoms: O_3  and  C_6 
ROOT
HETATM    1  C   UNL     1      22.333  -4.690  15.091  1.00  0.00     0.242 C 
ENDROOT
BRANCH   1   2
HETATM    2  C   UNL     1      23.429  -3.711  15.508  1.00  0.00     0.206 C 
BRANCH   2   3
HETATM    3  O   UNL     1      23.886  -3.052  14.341  1.00  0.00    -0.398 OA
ATOM      4  HO  UNL     1      23.379  -3.379  13.607  1.00  0.00     0.209 HD
ENDBRANCH   2   3
ENDBRANCH   1   2
BRANCH   1   5
HETATM    5  C   UNL     1      22.937  -5.975  14.569  1.00  0.00     0.205 C 
HETATM    6  O   UNL     1      24.149  -6.089  14.464  1.00  0.00    -0.646 OA
HETATM    7  O   UNL     1      22.121  -6.859  14.244  1.00  0.00    -0.646 OA
ENDBRANCH   1   5
BRANCH   1   8
HETATM    8  O   UNL     1      21.295  -4.868  16.021  1.00  0.00    -0.383 OA
ATOM      9  HO  UNL     1      20.613  -4.206  16.004  1.00  0.00     0.210 HD
ENDBRANCH   1   8
TORSDOF 4
ENDMDL
MODEL 6
REMARK VINA RESULT:      -3.3      3.524      4.715
REMARK  4 active torsions:
REMARK  status: ('A' for Active; 'I' for Inactive)
REMARK    1  A    between atoms: C_1  and  C_6 
REMARK    2  A    between atoms: C_1  and  C_7 
REMARK    3  A    between atoms: C_1  and  O_8 
REMARK    4  A    between atoms: O_3  and  C_6 
ROOT
HETATM    1  C   UNL     1      26.643  -6.741  12.858  1.00  0.00     0.242 C 
ENDROOT
BRANCH   1   2
HETATM    2  C   UNL     1      26.912  -7.564  11.600  1.00  0.00     0.206 C 
BRANCH   2   3
HETATM    3  O   UNL     1      25.777  -8.378  11.365  1.00  0.00    -0.398 OA
ATOM      4  HO  UNL     1      25.153  -8.211  12.062  1.00  0.00     0.209 HD
ENDBRANCH   2   3
ENDBRANCH   1   2
BRANCH   1   5
HETATM    5  C   UNL     1      25.529  -7.361  13.672  1.00  0.00     0.205 C 
HETATM    6  O   UNL     1      24.399  -6.897  13.625  1.00  0.00    -0.646 OA
HETATM    7  O   UNL     1      25.858  -8.327  14.386  1.00  0.00    -0.646 OA
ENDBRANCH   1   5
BRANCH   1   8
HETATM    8  O   UNL     1      27.780  -6.382  13.601  1.00  0.00    -0.383 OA
ATOM      9  HO  UNL     1      27.919  -5.449  13.712  1.00  0.00     0.210 HD
ENDBRANCH   1   8
TORSDOF 4
ENDMDL
MODEL 7
REMARK VINA RESULT:      -3.3      3.860      5.013
REMARK  4 active torsions:
REMARK  status: ('A' for Active; 'I' for Inactive)
REMARK    1  A    between atoms: C_1  and  C_6 
REMARK    2  A    between atoms: C_1  and  C_7 
REMARK    3  A    between atoms: C_1  and  O_8 
REMARK    4  A    between atoms: O_3  and  C_6 
ROOT
HETATM    1  C   UNL     1      26.490  -7.992  12.425  1.00  0.00     0.242 C 
ENDROOT
BRANCH   1   2
HETATM    2  C   UNL     1      27.368  -6.810  12.021  1.00  0.00     0.206 C 
BRANCH   2   3
HETATM    3  O   UNL     1      26.924  -5.676  12.744  1.00  0.00    -0.398 OA
ATOM      4  HO  UNL     1      27.307  -4.907  12.338  1.00  0.00     0.209 HD
ENDBRANCH   2   3
ENDBRANCH   1   2
BRANCH   1   5
HETATM    5  C   UNL     1      25.867  -7.754  13.784  1.00  0.00     0.205 C 
HETATM    6  O   UNL     1      24.675  -7.505  13.880  1.00  0.00    -0.646 OA
HETATM    7  O   UNL     1      26.651  -7.806  14.750  1.00  0.00    -0.646 OA
ENDBRANCH   1   5
BRANCH   1   8
HETATM    8  O   UNL     1      25.592  -8.444  11.443  1.00  0.00    -0.383 OA
ATOM      9  HO  UNL     1      25.203  -9.296  11.604  1.00  0.00     0.210 HD
ENDBRANCH   1   8
TORSDOF 4
ENDMDL
MODEL 8
REMARK VINA RESULT:      -3.3      1.012      2.612
REMARK  4 active torsions:
REMARK  status: ('A' for Active; 'I' for Inactive)
REMARK    1  A    between atoms: C_1  and  C_6 
REMARK    2  A    between atoms: C_1  and  C_7 
REMARK    3  A    between atoms: C_1  and  O_8 
REMARK    4  A    between atoms: O_3  and  C_6 
ROOT
HETATM    1  C   UNL     1      22.886  -4.981  15.110  1.00  0.00     0.242 C 
ENDROOT
BRANCH   1   2
HETATM    2  C   UNL     1      21.636  -5.847  15.249  1.00  0.00     0.206 C 
BRANCH   2   3
HETATM    3  O   UNL     1      21.921  -6.870  16.186  1.00  0.00    -0.398 OA
ATOM      4  HO  UNL     1      22.864  -6.986  16.209  1.00  0.00     0.209 HD
ENDBRANCH   2   3
ENDBRANCH   1   2
BRANCH   1   5
HETATM    5  C   UNL     1      24.020  -5.776  14.502  1.00  0.00     0.205 C 
HETATM    6  O   UNL     1      23.812  -6.884  14.028  1.00  0.00    -0.646 OA
HETATM    7  O   UNL     1      25.142  -5.236  14.549  1.00  0.00    -0.646 OA
ENDBRANCH   1   5
BRANCH   1   8
HETATM    8  O   UNL     1      22.685  -3.716  14.532  1.00  0.00    -0.383 OA
ATOM      9  HO  UNL     1      22.168  -3.108  15.048  1.00  0.00     0.210 HD
ENDBRANCH   1   8
TORSDOF 4
ENDMDL
MODEL 9
REMARK VINA RESULT:      -3.3      6.772      7.735
REMARK  4 active torsions:
REMARK  status: ('A' for Active; 'I' for Inactive)
REMARK    1  A    between atoms: C_1  and  C_6 
REMARK    2  A    between atoms: C_1  and  C_7 
REMARK    3  A    between atoms: C_1  and  O_8 
REMARK    4  A    between atoms: O_3  and  C_6 
ROOT
HETATM    1  C   UNL     1      18.310  -3.255  19.514  1.00  0.00     0.242 C 
ENDROOT
BRANCH   1   2
HETATM    2  C   UNL     1      18.651  -3.383  20.997  1.00  0.00     0.206 C 
BRANCH   2   3
HETATM    3  O   UNL     1      17.632  -2.729  21.732  1.00  0.00    -0.398 OA
ATOM      4  HO  UNL     1      16.798  -2.962  21.341  1.00  0.00     0.209 HD
ENDBRANCH   2   3
ENDBRANCH   1   2
BRANCH   1   5
HETATM    5  C   UNL     1      16.820  -3.074  19.323  1.00  0.00     0.205 C 
HETATM    6  O   UNL     1      16.342  -1.952  19.235  1.00  0.00    -0.646 OA
HETATM    7  O   UNL     1      16.151  -4.124  19.292  1.00  0.00    -0.646 OA
ENDBRANCH   1   5
BRANCH   1   8
HETATM    8  O   UNL     1      19.106  -2.354  18.786  1.00  0.00    -0.383 OA
ATOM      9  HO  UNL     1      19.952  -2.154  19.168  1.00  0.00     0.210 HD
ENDBRANCH   1   8
TORSDOF 4
ENDMDL
