MODEL 1
REMARK VINA RESULT:      -3.5      0.000      0.000
REMARK  4 active torsions:
REMARK  status: ('A' for Active; 'I' for Inactive)
REMARK    1  A    between atoms: O_1  and  C_5 
REMARK    2  A    between atoms: C_4  and  C_5 
REMARK    3  A    between atoms: C_4  and  C_8 
REMARK    4  A    between atoms: O_6  and  C_8 
ROOT
HETATM    1  C   UNL     1      23.915  -5.285  14.765  1.00  0.00     0.178 C 
HETATM    2  O   UNL     1      24.876  -5.332  14.003  1.00  0.00    -0.293 OA
ENDROOT
BRANCH   1   3
HETATM    3  C   UNL     1      22.755  -6.253  14.589  1.00  0.00     0.245 C 
BRANCH   3   4
HETATM    4  O   UNL     1      22.314  -6.726  15.847  1.00  0.00    -0.393 OA
ATOM      5  HO  UNL     1      21.718  -6.102  16.244  1.00  0.00     0.209 HD
ENDBRANCH   3   4
ENDBRANCH   1   3
BRANCH   1   6
HETATM    6  C   UNL     1      23.682  -4.014  15.558  1.00  0.00     0.185 C 
HETATM    7  C   UNL     1      24.426  -2.776  15.083  1.00  0.00     0.047 C 
BRANCH   6   8
HETATM    8  O   UNL     1      22.313  -3.714  15.665  1.00  0.00    -0.388 OA
ATOM      9  HO  UNL     1      22.069  -3.702  16.583  1.00  0.00     0.210 HD
ENDBRANCH   6   8
ENDBRANCH   1   6
TORSDOF 4
ENDMDL
MODEL 2
REMARK VINA RESULT:      -3.5      1.543      2.462
REMARK  4 active torsions:
REMARK  status: ('A' for Active; 'I' for Inactive)
REMARK    1  A    between atoms: O_1  and  C_5 
REMARK    2  A    between atoms: C_4  and  C_5 
REMARK    3  A    between atoms: C_4  and  C_8 
REMARK    4  A    between atoms: O_6  and  C_8 
ROOT
HETATM    1  C   UNL     1      23.642  -5.108  14.994  1.00  0.00     0.178 C 
HETATM    2  O   UNL     1      24.175  -4.420  15.860  1.00  0.00    -0.293 OA
ENDROOT
BRANCH   1   3
HETATM    3  C   UNL     1      22.213  -5.594  15.179  1.00  0.00     0.245 C 
BRANCH   3   4
HETATM    4  O   UNL     1      22.192  -6.773  15.961  1.00  0.00    -0.393 OA
ATOM      5  HO  UNL     1      22.742  -7.440  15.567  1.00  0.00     0.209 HD
ENDBRANCH   3   4
ENDBRANCH   1   3
BRANCH   1   6
HETATM    6  C   UNL     1      24.527  -5.828  13.995  1.00  0.00     0.185 C 
HETATM    7  C   UNL     1      26.002  -5.461  14.014  1.00  0.00     0.047 C 
BRANCH   6   8
HETATM    8  O   UNL     1      24.400  -7.223  14.103  1.00  0.00    -0.388 OA
ATOM      9  HO  UNL     1      25.137  -7.636  13.670  1.00  0.00     0.210 HD
ENDBRANCH   6   8
ENDBRANCH   1   6
TORSDOF 4
ENDMDL
MODEL 3
REMARK VINA RESULT:      -3.4      3.104      3.891
REMARK  4 active torsions:
REMARK  status: ('A' for Active; 'I' for Inactive)
REMARK    1  A    between atoms: O_1  and  C_5 
REMARK    2  A    between atoms: C_4  and  C_5 
REMARK    3  A    between atoms: C_4  and  C_8 
REMARK    4  A    between atoms: O_6  and  C_8 
ROOT
HETATM    1  C   UNL     1      25.709  -7.012  13.357  1.00  0.00     0.178 C 
HETATM    2  O   UNL     1      24.885  -7.713  13.938  1.00  0.00    -0.293 OA
ENDROOT
BRANCH   1   3
HETATM    3  C   UNL     1      26.556  -7.599  12.239  1.00  0.00     0.245 C 
BRANCH   3   4
HETATM    4  O   UNL     1      25.744  -8.329  11.339  1.00  0.00    -0.393 OA
ATOM      5  HO  UNL     1      25.745  -9.251  11.567  1.00  0.00     0.209 HD
ENDBRANCH   3   4
ENDBRANCH   1   3
BRANCH   1   6
HETATM    6  C   UNL     1      26.187  -5.744  14.037  1.00  0.00     0.185 C 
HETATM    7  C   UNL     1      26.804  -4.687  13.134  1.00  0.00     0.047 C 
BRANCH   6   8
HETATM    8  O   UNL     1      25.170  -5.153  14.806  1.00  0.00    -0.388 OA
ATOM      9  HO  UNL     1      25.013  -5.688  15.575  1.00  0.00     0.210 HD
ENDBRANCH   6   8
ENDBRANCH   1   6
TORSDOF 4
ENDMDL
MODEL 4
REMARK VINA RESULT:      -3.4      1.360      1.433
REMARK  4 active torsions:
REMARK  status: ('A' for Active; 'I' for Inactive)
REMARK    1  A    between atoms: O_1  and  C_5 
REMARK    2  A    between atoms: C_4  and  C_5 
REMARK    3  A    between atoms: C_4  and  C_8 
REMARK    4  A    between atoms: O_6  and  C_8 
ROOT
HETATM    1  C   UNL     1      23.004  -6.076  15.003  1.00  0.00     0.178 C 
HETATM    2  O   UNL     1      23.655  -6.651  14.135  1.00  0.00    -0.293 OA
ENDROOT
BRANCH   1   3
HETATM    3  C   UNL     1      21.624  -6.590  15.387  1.00  0.00     0.245 C 
BRANCH   3   4
HETATM    4  O   UNL     1      20.674  -6.226  14.404  1.00  0.00    -0.393 OA
ATOM      5  HO  UNL     1      20.208  -6.995  14.095  1.00  0.00     0.209 HD
ENDBRANCH   3   4
ENDBRANCH   1   3
BRANCH   1   6
HETATM    6  C   UNL     1      23.364  -4.645  15.349  1.00  0.00     0.185 C 
HETATM    7  C   UNL     1      24.506  -4.027  14.557  1.00  0.00     0.047 C 
BRANCH   6   8
HETATM    8  O   UNL     1      22.245  -3.798  15.277  1.00  0.00    -0.388 OA
ATOM      9  HO  UNL     1      21.668  -4.104  14.588  1.00  0.00     0.210 HD
ENDBRANCH   6   8
ENDBRANCH   1   6
TORSDOF 4
ENDMDL
MODEL 5
REMARK VINA RESULT:      -3.3      0.764      1.968
REMARK  4 active torsions:
REMARK  status: ('A' for Active; 'I' for Inactive)
REMARK    1  A    between atoms: O_1  and  C_5 
REMARK    2  A    between atoms: C_4  and  C_5 
REMARK    3  A    between atoms: C_4  and  C_8 
REMARK    4  A    between atoms: O_6  and  C_8 
ROOT
HETATM    1  C   UNL     1      22.919  -4.536  14.951  1.00  0.00     0.178 C 
HETATM    2  O   UNL     1      22.411  -3.803  15.796  1.00  0.00    -0.293 OA
ENDROOT
BRANCH   1   3
HETATM    3  C   UNL     1      22.313  -5.901  14.664  1.00  0.00     0.245 C 
BRANCH   3   4
HETATM    4  O   UNL     1      22.477  -6.756  15.780  1.00  0.00    -0.393 OA
ATOM      5  HO  UNL     1      23.070  -7.467  15.567  1.00  0.00     0.209 HD
ENDBRANCH   3   4
ENDBRANCH   1   3
BRANCH   1   6
HETATM    6  C   UNL     1      24.356  -4.283  14.543  1.00  0.00     0.185 C 
HETATM    7  C   UNL     1      24.987  -2.998  15.056  1.00  0.00     0.047 C 
BRANCH   6   8
HETATM    8  O   UNL     1      25.187  -5.366  14.874  1.00  0.00    -0.388 OA
ATOM      9  HO  UNL     1      25.932  -5.046  15.368  1.00  0.00     0.210 HD
ENDBRANCH   6   8
ENDBRANCH   1   6
TORSDOF 4
ENDMDL
MODEL 6
REMARK VINA RESULT:      -3.3      1.493      2.837
REMARK  4 active torsions:
REMARK  status: ('A' for Active; 'I' for Inactive)
REMARK    1  A    between atoms: O_1  and  C_5 
REMARK    2  A    between atoms: C_4  and  C_5 
REMARK    3  A    between atoms: C_4  and  C_8 
REMARK    4  A    between atoms: O_6  and  C_8 
ROOT
HETATM    1  C   UNL     1      23.256  -5.777  14.443  1.00  0.00     0.178 C 
HETATM    2  O   UNL     1      23.737  -6.906  14.405  1.00  0.00    -0.293 OA
ENDROOT
BRANCH   1   3
HETATM    3  C   UNL     1      24.166  -4.566  14.587  1.00  0.00     0.245 C 
BRANCH   3   4
HETATM    4  O   UNL     1      24.266  -4.186  15.946  1.00  0.00    -0.393 OA
ATOM      5  HO  UNL     1      23.404  -4.008  16.303  1.00  0.00     0.209 HD
ENDBRANCH   3   4
ENDBRANCH   1   3
BRANCH   1   6
HETATM    6  C   UNL     1      21.790  -5.626  14.798  1.00  0.00     0.185 C 
HETATM    7  C   UNL     1      21.058  -6.898  15.193  1.00  0.00     0.047 C 
BRANCH   6   8
HETATM    8  O   UNL     1      21.597  -4.656  15.796  1.00  0.00    -0.388 OA
ATOM      9  HO  UNL     1      20.700  -4.347  15.758  1.00  0.00     0.210 HD
ENDBRANCH   6   8
ENDBRANCH   1   6
TORSDOF 4
ENDMDL
MODEL 7
REMARK VINA RESULT:      -3.3      1.158      2.072
REMARK  4 active torsions:
REMARK  status: ('A' for Active; 'I' for Inactive)
REMARK    1  A    between atoms: O_1  and  C_5 
REMARK    2  A    between atoms: C_4  and  C_5 
REMARK    3  A    between atoms: C_4  and  C_8 
REMARK    4  A    between atoms: O_6  and  C_8 
ROOT
HETATM    1  C   UNL     1      24.149  -5.126  14.635  1.00  0.00     0.178 C 
HETATM    2  O   UNL     1      23.468  -6.139  14.768  1.00  0.00    -0.293 OA
ENDROOT
BRANCH   1   3
HETATM    3  C   UNL     1      25.523  -5.210  13.989  1.00  0.00     0.245 C 
BRANCH   3   4
HETATM    4  O   UNL     1      26.267  -6.272  14.554  1.00  0.00    -0.393 OA
ATOM      5  HO  UNL     1      26.617  -6.017  15.399  1.00  0.00     0.209 HD
ENDBRANCH   3   4
ENDBRANCH   1   3
BRANCH   1   6
HETATM    6  C   UNL     1      23.828  -3.920  15.496  1.00  0.00     0.185 C 
HETATM    7  C   UNL     1      24.544  -2.627  15.140  1.00  0.00     0.047 C 
BRANCH   6   8
HETATM    8  O   UNL     1      22.445  -3.678  15.555  1.00  0.00    -0.388 OA
ATOM      9  HO  UNL     1      22.294  -2.741  15.561  1.00  0.00     0.210 HD
ENDBRANCH   6   8
ENDBRANCH   1   6
TORSDOF 4
ENDMDL
MODEL 8
REMARK VINA RESULT:      -3.2      1.284      3.075
REMARK  4 active torsions:
REMARK  status: ('A' for Active; 'I' for Inactive)
REMARK    1  A    between atoms: O_1  and  C_5 
REMARK    2  A    between atoms: C_4  and  C_5 
REMARK    3  A    between atoms: C_4  and  C_8 
REMARK    4  A    between atoms: O_6  and  C_8 
ROOT
HETATM    1  C   UNL     1      23.412  -4.536  14.920  1.00  0.00     0.178 C 
HETATM    2  O   UNL     1      22.715  -3.531  14.818  1.00  0.00    -0.293 OA
ENDROOT
BRANCH   1   3
HETATM    3  C   UNL     1      24.857  -4.514  14.445  1.00  0.00     0.245 C 
BRANCH   3   4
HETATM    4  O   UNL     1      25.517  -5.708  14.822  1.00  0.00    -0.393 OA
ATOM      5  HO  UNL     1      25.511  -6.329  14.103  1.00  0.00     0.209 HD
ENDBRANCH   3   4
ENDBRANCH   1   3
BRANCH   1   6
HETATM    6  C   UNL     1      22.727  -5.878  15.086  1.00  0.00     0.185 C 
HETATM    7  C   UNL     1      21.211  -5.852  15.197  1.00  0.00     0.047 C 
BRANCH   6   8
HETATM    8  O   UNL     1      23.097  -6.778  14.072  1.00  0.00    -0.388 OA
ATOM      9  HO  UNL     1      23.950  -7.142  14.277  1.00  0.00     0.210 HD
ENDBRANCH   6   8
ENDBRANCH   1   6
TORSDOF 4
ENDMDL
MODEL 9
REMARK VINA RESULT:      -3.2      2.400      3.670
REMARK  4 active torsions:
REMARK  status: ('A' for Active; 'I' for Inactive)
REMARK    1  A    between atoms: O_1  and  C_5 
REMARK    2  A    between atoms: C_4  and  C_5 
REMARK    3  A    between atoms: C_4  and  C_8 
REMARK    4  A    between atoms: O_6  and  C_8 
ROOT
HETATM    1  C   UNL     1      25.983  -5.590  13.839  1.00  0.00     0.178 C 
HETATM    2  O   UNL     1      27.189  -5.517  14.060  1.00  0.00    -0.293 OA
ENDROOT
BRANCH   1   3
HETATM    3  C   UNL     1      25.056  -4.472  14.292  1.00  0.00     0.245 C 
BRANCH   3   4
HETATM    4  O   UNL     1      24.518  -4.766  15.567  1.00  0.00    -0.393 OA
ATOM      5  HO  UNL     1      24.855  -5.596  15.884  1.00  0.00     0.209 HD
ENDBRANCH   3   4
ENDBRANCH   1   3
BRANCH   1   6
HETATM    6  C   UNL     1      25.383  -6.950  13.542  1.00  0.00     0.185 C 
HETATM    7  C   UNL     1      26.245  -8.156  13.880  1.00  0.00     0.047 C 
BRANCH   6   8
HETATM    8  O   UNL     1      24.123  -7.103  14.144  1.00  0.00    -0.388 OA
ATOM      9  HO  UNL     1      24.241  -7.399  15.039  1.00  0.00     0.210 HD
ENDBRANCH   6   8
ENDBRANCH   1   6
TORSDOF 4
ENDMDL
