MODEL 1
REMARK VINA RESULT:     -13.1      0.000      0.000
REMARK  5 active torsions:
REMARK  status: ('A' for Active; 'I' for Inactive)
REMARK    1  A    between atoms: O_4  and  C_36 
REMARK    2  A    between atoms: C_6  and  O_32 
REMARK    3  A    between atoms: O_10  and  C_18 
REMARK    4  A    between atoms: C_19  and  C_38 
REMARK    5  A    between atoms: O_34  and  C_38 
ROOT
HETATM    1  C   UNL     1      16.190  38.894  26.963  1.00  0.00     0.014 C 
HETATM    2  C   UNL     1      17.015  35.621  26.374  1.00  0.00    -0.008 C 
HETATM    3  O   UNL     1      21.477  34.390  23.524  1.00  0.00    -0.286 OA
HETATM    4  C   UNL     1      16.109  37.571  27.414  1.00  0.00    -0.002 C 
HETATM    5  N   UNL     1      19.357  35.571  25.695  1.00  0.00    -0.348 N 
ATOM      6  HN  UNL     1      20.276  35.944  25.932  1.00  0.00     0.163 HD
HETATM    7  C   UNL     1      18.301  36.178  26.308  1.00  0.00     0.051 C 
HETATM    8  C   UNL     1      18.810  33.145  25.268  1.00  0.00     0.212 C 
HETATM    9  C   UNL     1      19.355  34.471  24.753  1.00  0.00     0.231 C 
HETATM   10  C   UNL     1      16.762  34.217  26.334  1.00  0.00     0.012 C 
HETATM   11  C   UNL     1      17.453  39.478  26.844  1.00  0.00     0.002 C 
HETATM   12  C   UNL     1      17.571  33.220  26.054  1.00  0.00     0.011 C 
HETATM   13  C   UNL     1      20.780  34.056  24.465  1.00  0.00     0.251 C 
HETATM   14  C   UNL     1      18.606  37.356  27.048  1.00  0.00    -0.006 C 
HETATM   15  C   UNL     1      15.934  36.496  26.524  1.00  0.00     0.028 C 
HETATM   16  C   UNL     1      18.284  37.254  28.421  1.00  0.00     0.051 C 
HETATM   17  C   UNL     1      18.530  38.630  26.496  1.00  0.00     0.014 C 
HETATM   18  C   UNL     1      16.899  37.313  28.566  1.00  0.00     0.076 C 
HETATM   19  O   UNL     1      19.848  32.579  26.052  1.00  0.00    -0.330 OA
HETATM   20  C   UNL     1      21.092  33.045  25.518  1.00  0.00     0.263 C 
ENDROOT
BRANCH  20  21
HETATM   21  C   UNL     1      21.711  31.756  25.021  1.00  0.00     0.073 C 
HETATM   22  C   UNL     1      21.425  31.358  23.591  1.00  0.00     0.193 C 
HETATM   23  O   UNL     1      20.330  31.162  23.130  1.00  0.00    -0.287 OA
HETATM   24  C   UNL     1      22.745  31.136  22.973  1.00  0.00     0.024 C 
HETATM   25  C   UNL     1      23.714  31.086  23.953  1.00  0.00    -0.011 C 
HETATM   26  C   UNL     1      23.125  31.191  21.638  1.00  0.00     0.016 C 
HETATM   27  C   UNL     1      23.177  31.467  25.286  1.00  0.00     0.191 C 
HETATM   28  C   UNL     1      25.019  30.788  23.639  1.00  0.00     0.011 C 
HETATM   29  C   UNL     1      25.379  30.667  22.307  1.00  0.00     0.001 C 
HETATM   30  C   UNL     1      24.472  31.011  21.319  1.00  0.00     0.001 C 
BRANCH  27  31
HETATM   31  O   UNL     1      23.907  32.480  25.914  1.00  0.00    -0.386 OA
ATOM     32  HO  UNL     1      23.516  33.345  25.914  1.00  0.00     0.210 HD
ENDBRANCH  27  31
ENDBRANCH  20  21
BRANCH  20  33
HETATM   33  O   UNL     1      21.807  33.701  26.541  1.00  0.00    -0.355 OA
ATOM     34  HO  UNL     1      21.954  33.188  27.327  1.00  0.00     0.214 HD
ENDBRANCH  20  33
BRANCH   9  35
HETATM   35  O   UNL     1      18.688  34.851  23.567  1.00  0.00    -0.362 OA
ATOM     36  HO  UNL     1      18.222  34.108  23.203  1.00  0.00     0.213 HD
ENDBRANCH   9  35
BRANCH  18  37
HETATM   37  O   UNL     1      16.273  37.210  29.746  1.00  0.00    -0.360 OA
ATOM     38  HO  UNL     1      15.418  37.614  29.833  1.00  0.00     0.217 HD
ENDBRANCH  18  37
TORSDOF 5
ENDMDL
MODEL 2
REMARK VINA RESULT:     -11.6      1.880      8.509
REMARK  5 active torsions:
REMARK  status: ('A' for Active; 'I' for Inactive)
REMARK    1  A    between atoms: O_4  and  C_36 
REMARK    2  A    between atoms: C_6  and  O_32 
REMARK    3  A    between atoms: O_10  and  C_18 
REMARK    4  A    between atoms: C_19  and  C_38 
REMARK    5  A    between atoms: O_34  and  C_38 
ROOT
HETATM    1  C   UNL     1      25.264  29.230  23.007  1.00  0.00     0.014 C 
HETATM    2  C   UNL     1      22.638  31.334  22.364  1.00  0.00    -0.008 C 
HETATM    3  O   UNL     1      18.478  31.668  25.848  1.00  0.00    -0.286 OA
HETATM    4  C   UNL     1      24.839  30.408  22.381  1.00  0.00    -0.002 C 
HETATM    5  N   UNL     1      21.422  31.641  24.456  1.00  0.00    -0.348 N 
ATOM      6  HN  UNL     1      21.556  31.826  25.450  1.00  0.00     0.163 HD
HETATM    7  C   UNL     1      22.548  31.306  23.764  1.00  0.00     0.051 C 
HETATM    8  C   UNL     1      19.817  32.851  22.930  1.00  0.00     0.212 C 
HETATM    9  C   UNL     1      20.062  31.771  23.976  1.00  0.00     0.231 C 
HETATM   10  C   UNL     1      21.846  32.190  21.542  1.00  0.00     0.012 C 
HETATM   11  C   UNL     1      25.157  29.141  24.397  1.00  0.00     0.002 C 
HETATM   12  C   UNL     1      20.809  32.936  21.850  1.00  0.00     0.011 C 
HETATM   13  C   UNL     1      19.187  32.304  25.088  1.00  0.00     0.251 C 
HETATM   14  C   UNL     1      23.715  31.083  24.549  1.00  0.00    -0.006 C 
HETATM   15  C   UNL     1      23.583  30.501  21.756  1.00  0.00     0.028 C 
HETATM   16  C   UNL     1      24.778  31.961  24.234  1.00  0.00     0.051 C 
HETATM   17  C   UNL     1      24.081  29.823  25.010  1.00  0.00     0.014 C 
HETATM   18  C   UNL     1      25.322  31.589  23.005  1.00  0.00     0.076 C 
HETATM   19  O   UNL     1      19.768  34.076  23.642  1.00  0.00    -0.330 OA
HETATM   20  C   UNL     1      19.285  33.788  24.959  1.00  0.00     0.263 C 
ENDROOT
BRANCH  20  21
HETATM   21  C   UNL     1      17.967  34.532  24.968  1.00  0.00     0.073 C 
HETATM   22  C   UNL     1      17.022  34.250  26.114  1.00  0.00     0.193 C 
HETATM   23  O   UNL     1      16.563  33.170  26.387  1.00  0.00    -0.287 OA
HETATM   24  C   UNL     1      16.701  35.567  26.692  1.00  0.00     0.024 C 
HETATM   25  C   UNL     1      17.123  36.564  25.838  1.00  0.00    -0.011 C 
HETATM   26  C   UNL     1      16.270  35.899  27.971  1.00  0.00     0.016 C 
HETATM   27  C   UNL     1      17.940  36.029  24.718  1.00  0.00     0.191 C 
HETATM   28  C   UNL     1      16.848  37.885  26.107  1.00  0.00     0.011 C 
HETATM   29  C   UNL     1      16.254  38.216  27.314  1.00  0.00     0.001 C 
HETATM   30  C   UNL     1      16.105  37.247  28.291  1.00  0.00     0.001 C 
BRANCH  27  31
HETATM   31  O   UNL     1      19.180  36.659  24.578  1.00  0.00    -0.386 OA
ATOM     32  HO  UNL     1      19.791  36.259  23.971  1.00  0.00     0.210 HD
ENDBRANCH  27  31
ENDBRANCH  20  21
BRANCH  20  33
HETATM   33  O   UNL     1      20.237  34.236  25.899  1.00  0.00    -0.355 OA
ATOM     34  HO  UNL     1      21.025  34.616  25.529  1.00  0.00     0.214 HD
ENDBRANCH  20  33
BRANCH   9  35
HETATM   35  O   UNL     1      19.591  30.522  23.516  1.00  0.00    -0.362 OA
ATOM     36  HO  UNL     1      19.431  29.943  24.252  1.00  0.00     0.213 HD
ENDBRANCH   9  35
BRANCH  18  37
HETATM   37  O   UNL     1      26.327  32.247  22.411  1.00  0.00    -0.360 OA
ATOM     38  HO  UNL     1      26.310  33.197  22.430  1.00  0.00     0.217 HD
ENDBRANCH  18  37
TORSDOF 5
ENDMDL
MODEL 3
REMARK VINA RESULT:     -10.9      2.275      8.372
REMARK  5 active torsions:
REMARK  status: ('A' for Active; 'I' for Inactive)
REMARK    1  A    between atoms: O_4  and  C_36 
REMARK    2  A    between atoms: C_6  and  O_32 
REMARK    3  A    between atoms: O_10  and  C_18 
REMARK    4  A    between atoms: C_19  and  C_38 
REMARK    5  A    between atoms: O_34  and  C_38 
ROOT
HETATM    1  C   UNL     1      21.040  31.195  20.868  1.00  0.00     0.014 C 
HETATM    2  C   UNL     1      21.069  33.599  23.308  1.00  0.00    -0.008 C 
HETATM    3  O   UNL     1      16.482  36.187  24.659  1.00  0.00    -0.286 OA
HETATM    4  C   UNL     1      21.653  31.666  22.035  1.00  0.00    -0.002 C 
HETATM    5  N   UNL     1      18.759  33.951  24.011  1.00  0.00    -0.348 N 
ATOM      6  HN  UNL     1      17.906  33.453  24.264  1.00  0.00     0.163 HD
HETATM    7  C   UNL     1      19.731  33.192  23.429  1.00  0.00     0.051 C 
HETATM    8  C   UNL     1      19.820  35.830  25.319  1.00  0.00     0.212 C 
HETATM    9  C   UNL     1      18.770  35.366  24.318  1.00  0.00     0.231 C 
HETATM   10  C   UNL     1      21.694  34.520  24.202  1.00  0.00     0.012 C 
HETATM   11  C   UNL     1      19.698  30.815  20.931  1.00  0.00     0.002 C 
HETATM   12  C   UNL     1      21.170  35.281  25.136  1.00  0.00     0.011 C 
HETATM   13  C   UNL     1      17.519  35.719  25.092  1.00  0.00     0.251 C 
HETATM   14  C   UNL     1      19.359  31.860  23.091  1.00  0.00    -0.006 C 
HETATM   15  C   UNL     1      21.828  33.040  22.276  1.00  0.00     0.028 C 
HETATM   16  C   UNL     1      20.137  30.878  23.746  1.00  0.00     0.051 C 
HETATM   17  C   UNL     1      18.867  31.513  21.837  1.00  0.00     0.014 C 
HETATM   18  C   UNL     1      21.408  30.853  23.174  1.00  0.00     0.076 C 
HETATM   19  O   UNL     1      19.321  35.473  26.597  1.00  0.00    -0.330 OA
HETATM   20  C   UNL     1      17.891  35.492  26.520  1.00  0.00     0.263 C 
ENDROOT
BRANCH  20  21
HETATM   21  C   UNL     1      17.550  36.620  27.471  1.00  0.00     0.073 C 
HETATM   22  C   UNL     1      16.093  36.999  27.599  1.00  0.00     0.193 C 
HETATM   23  O   UNL     1      15.390  37.375  26.695  1.00  0.00    -0.287 OA
HETATM   24  C   UNL     1      15.797  36.943  29.042  1.00  0.00     0.024 C 
HETATM   25  C   UNL     1      16.975  36.857  29.754  1.00  0.00    -0.011 C 
HETATM   26  C   UNL     1      14.586  36.759  29.697  1.00  0.00     0.016 C 
HETATM   27  C   UNL     1      18.147  36.642  28.866  1.00  0.00     0.191 C 
HETATM   28  C   UNL     1      16.971  36.892  31.129  1.00  0.00     0.011 C 
HETATM   29  C   UNL     1      15.758  36.884  31.798  1.00  0.00     0.001 C 
HETATM   30  C   UNL     1      14.588  36.671  31.091  1.00  0.00     0.001 C 
BRANCH  27  31
HETATM   31  O   UNL     1      18.928  35.540  29.227  1.00  0.00    -0.386 OA
ATOM     32  HO  UNL     1      19.365  35.589  30.068  1.00  0.00     0.210 HD
ENDBRANCH  27  31
ENDBRANCH  20  21
BRANCH  20  33
HETATM   33  O   UNL     1      17.400  34.222  26.891  1.00  0.00    -0.355 OA
ATOM     34  HO  UNL     1      16.506  34.211  27.212  1.00  0.00     0.214 HD
ENDBRANCH  20  33
BRANCH   9  35
HETATM   35  O   UNL     1      18.857  36.119  23.126  1.00  0.00    -0.362 OA
ATOM     36  HO  UNL     1      18.346  35.704  22.441  1.00  0.00     0.213 HD
ENDBRANCH   9  35
BRANCH  18  37
HETATM   37  O   UNL     1      22.394  30.049  23.596  1.00  0.00    -0.360 OA
ATOM     38  HO  UNL     1      22.795  30.241  24.435  1.00  0.00     0.217 HD
ENDBRANCH  18  37
TORSDOF 5
ENDMDL
MODEL 4
REMARK VINA RESULT:     -10.7      1.972      8.304
REMARK  5 active torsions:
REMARK  status: ('A' for Active; 'I' for Inactive)
REMARK    1  A    between atoms: O_4  and  C_36 
REMARK    2  A    between atoms: C_6  and  O_32 
REMARK    3  A    between atoms: O_10  and  C_18 
REMARK    4  A    between atoms: C_19  and  C_38 
REMARK    5  A    between atoms: O_34  and  C_38 
ROOT
HETATM    1  C   UNL     1      23.733  30.500  22.885  1.00  0.00     0.014 C 
HETATM    2  C   UNL     1      20.503  31.582  23.253  1.00  0.00    -0.008 C 
HETATM    3  O   UNL     1      19.230  35.123  27.178  1.00  0.00    -0.286 OA
HETATM    4  C   UNL     1      22.507  30.751  22.256  1.00  0.00    -0.002 C 
HETATM    5  N   UNL     1      20.562  33.597  24.628  1.00  0.00    -0.348 N 
ATOM      6  HN  UNL     1      21.058  34.479  24.749  1.00  0.00     0.163 HD
HETATM    7  C   UNL     1      21.162  32.694  23.800  1.00  0.00     0.051 C 
HETATM    8  C   UNL     1      18.057  33.310  24.524  1.00  0.00     0.212 C 
HETATM    9  C   UNL     1      19.319  33.475  25.361  1.00  0.00     0.231 C 
HETATM   10  C   UNL     1      19.096  31.538  23.019  1.00  0.00     0.012 C 
HETATM   11  C   UNL     1      24.406  31.570  23.478  1.00  0.00     0.002 C 
HETATM   12  C   UNL     1      18.149  32.364  23.403  1.00  0.00     0.011 C 
HETATM   13  C   UNL     1      19.000  34.794  26.028  1.00  0.00     0.251 C 
HETATM   14  C   UNL     1      22.475  33.030  23.363  1.00  0.00    -0.006 C 
HETATM   15  C   UNL     1      21.282  30.479  22.889  1.00  0.00     0.028 C 
HETATM   16  C   UNL     1      22.585  33.150  21.959  1.00  0.00     0.051 C 
HETATM   17  C   UNL     1      23.619  32.606  24.031  1.00  0.00     0.014 C 
HETATM   18  C   UNL     1      22.534  31.878  21.391  1.00  0.00     0.076 C 
HETATM   19  O   UNL     1      17.740  34.604  24.041  1.00  0.00    -0.330 OA
HETATM   20  C   UNL     1      18.224  35.551  25.001  1.00  0.00     0.263 C 
ENDROOT
BRANCH  20  21
HETATM   21  C   UNL     1      16.934  36.175  25.488  1.00  0.00     0.073 C 
HETATM   22  C   UNL     1      15.964  35.276  26.219  1.00  0.00     0.193 C 
HETATM   23  O   UNL     1      15.462  34.280  25.764  1.00  0.00    -0.287 OA
HETATM   24  C   UNL     1      15.683  35.957  27.496  1.00  0.00     0.024 C 
HETATM   25  C   UNL     1      16.153  37.252  27.445  1.00  0.00    -0.011 C 
HETATM   26  C   UNL     1      15.246  35.435  28.707  1.00  0.00     0.016 C 
HETATM   27  C   UNL     1      16.965  37.502  26.225  1.00  0.00     0.191 C 
HETATM   28  C   UNL     1      15.922  38.126  28.481  1.00  0.00     0.011 C 
HETATM   29  C   UNL     1      15.324  37.655  29.638  1.00  0.00     0.001 C 
HETATM   30  C   UNL     1      15.125  36.295  29.800  1.00  0.00     0.001 C 
BRANCH  27  31
HETATM   31  O   UNL     1      18.229  38.035  26.494  1.00  0.00    -0.386 OA
ATOM     32  HO  UNL     1      18.401  38.281  27.395  1.00  0.00     0.210 HD
ENDBRANCH  27  31
ENDBRANCH  20  21
BRANCH  20  33
HETATM   33  O   UNL     1      19.116  36.434  24.357  1.00  0.00    -0.355 OA
ATOM     34  HO  UNL     1      19.025  36.486  23.413  1.00  0.00     0.214 HD
ENDBRANCH  20  33
BRANCH   9  35
HETATM   35  O   UNL     1      19.419  32.437  26.314  1.00  0.00    -0.362 OA
ATOM     36  HO  UNL     1      19.917  31.712  25.954  1.00  0.00     0.213 HD
ENDBRANCH   9  35
BRANCH  18  37
HETATM   37  O   UNL     1      22.579  31.655  20.071  1.00  0.00    -0.360 OA
ATOM     38  HO  UNL     1      22.692  32.403  19.496  1.00  0.00     0.217 HD
ENDBRANCH  18  37
TORSDOF 5
ENDMDL
MODEL 5
REMARK VINA RESULT:     -10.7      2.047      3.449
REMARK  5 active torsions:
REMARK  status: ('A' for Active; 'I' for Inactive)
REMARK    1  A    between atoms: O_4  and  C_36 
REMARK    2  A    between atoms: C_6  and  O_32 
REMARK    3  A    between atoms: O_10  and  C_18 
REMARK    4  A    between atoms: C_19  and  C_38 
REMARK    5  A    between atoms: O_34  and  C_38 
ROOT
HETATM    1  C   UNL     1      15.382  37.714  31.147  1.00  0.00     0.014 C 
HETATM    2  C   UNL     1      16.027  36.975  27.865  1.00  0.00    -0.008 C 
HETATM    3  O   UNL     1      20.515  34.221  26.507  1.00  0.00    -0.286 OA
HETATM    4  C   UNL     1      14.843  37.467  29.878  1.00  0.00    -0.002 C 
HETATM    5  N   UNL     1      17.709  35.207  27.833  1.00  0.00    -0.348 N 
ATOM      6  HN  UNL     1      17.954  34.317  28.266  1.00  0.00     0.163 HD
HETATM    7  C   UNL     1      16.725  35.913  28.461  1.00  0.00     0.051 C 
HETATM    8  C   UNL     1      17.642  35.680  25.355  1.00  0.00     0.212 C 
HETATM    9  C   UNL     1      18.453  35.546  26.638  1.00  0.00     0.231 C 
HETATM   10  C   UNL     1      15.837  37.097  26.455  1.00  0.00     0.012 C 
HETATM   11  C   UNL     1      16.118  36.699  31.763  1.00  0.00     0.002 C 
HETATM   12  C   UNL     1      16.381  36.424  25.467  1.00  0.00     0.011 C 
HETATM   13  C   UNL     1      19.335  34.380  26.251  1.00  0.00     0.251 C 
HETATM   14  C   UNL     1      16.306  35.405  29.723  1.00  0.00    -0.006 C 
HETATM   15  C   UNL     1      15.463  37.937  28.707  1.00  0.00     0.028 C 
HETATM   16  C   UNL     1      14.936  35.054  29.759  1.00  0.00     0.051 C 
HETATM   17  C   UNL     1      16.857  35.833  30.926  1.00  0.00     0.014 C 
HETATM   18  C   UNL     1      14.172  36.219  29.779  1.00  0.00     0.076 C 
HETATM   19  O   UNL     1      17.387  34.355  24.919  1.00  0.00    -0.330 OA
HETATM   20  C   UNL     1      18.471  33.537  25.373  1.00  0.00     0.263 C 
ENDROOT
BRANCH  20  21
HETATM   21  C   UNL     1      19.095  33.107  24.063  1.00  0.00     0.073 C 
HETATM   22  C   UNL     1      20.261  33.922  23.551  1.00  0.00     0.193 C 
HETATM   23  O   UNL     1      20.227  35.099  23.298  1.00  0.00    -0.287 OA
HETATM   24  C   UNL     1      21.344  32.952  23.311  1.00  0.00     0.024 C 
HETATM   25  C   UNL     1      20.838  31.670  23.355  1.00  0.00    -0.011 C 
HETATM   26  C   UNL     1      22.720  33.143  23.272  1.00  0.00     0.016 C 
HETATM   27  C   UNL     1      19.428  31.645  23.826  1.00  0.00     0.191 C 
HETATM   28  C   UNL     1      21.634  30.588  23.061  1.00  0.00     0.011 C 
HETATM   29  C   UNL     1      22.988  30.788  22.846  1.00  0.00     0.001 C 
HETATM   30  C   UNL     1      23.544  32.030  23.096  1.00  0.00     0.001 C 
BRANCH  27  31
HETATM   31  O   UNL     1      19.212  30.775  24.898  1.00  0.00    -0.386 OA
ATOM     32  HO  UNL     1      19.722  29.974  24.903  1.00  0.00     0.210 HD
ENDBRANCH  27  31
ENDBRANCH  20  21
BRANCH  20  33
HETATM   33  O   UNL     1      17.950  32.492  26.164  1.00  0.00    -0.355 OA
ATOM     34  HO  UNL     1      17.005  32.398  26.141  1.00  0.00     0.214 HD
ENDBRANCH  20  33
BRANCH   9  35
HETATM   35  O   UNL     1      19.220  36.710  26.861  1.00  0.00    -0.362 OA
ATOM     36  HO  UNL     1      19.377  37.159  26.038  1.00  0.00     0.213 HD
ENDBRANCH   9  35
BRANCH  18  37
HETATM   37  O   UNL     1      12.832  36.225  29.780  1.00  0.00    -0.360 OA
ATOM     38  HO  UNL     1      12.387  36.046  30.600  1.00  0.00     0.217 HD
ENDBRANCH  18  37
TORSDOF 5
ENDMDL
MODEL 6
REMARK VINA RESULT:     -10.6      1.576      3.224
REMARK  5 active torsions:
REMARK  status: ('A' for Active; 'I' for Inactive)
REMARK    1  A    between atoms: O_4  and  C_36 
REMARK    2  A    between atoms: C_6  and  O_32 
REMARK    3  A    between atoms: O_10  and  C_18 
REMARK    4  A    between atoms: C_19  and  C_38 
REMARK    5  A    between atoms: O_34  and  C_38 
ROOT
HETATM    1  C   UNL     1      15.797  36.803  30.016  1.00  0.00     0.014 C 
HETATM    2  C   UNL     1      18.209  36.917  27.585  1.00  0.00    -0.008 C 
HETATM    3  O   UNL     1      20.612  32.344  25.892  1.00  0.00    -0.286 OA
HETATM    4  C   UNL     1      16.297  37.483  28.898  1.00  0.00    -0.002 C 
HETATM    5  N   UNL     1      18.469  34.655  26.709  1.00  0.00    -0.348 N 
ATOM      6  HN  UNL     1      17.937  33.845  26.392  1.00  0.00     0.163 HD
HETATM    7  C   UNL     1      17.748  35.611  27.363  1.00  0.00     0.051 C 
HETATM    8  C   UNL     1      20.394  35.734  25.486  1.00  0.00     0.212 C 
HETATM    9  C   UNL     1      19.884  34.631  26.404  1.00  0.00     0.231 C 
HETATM   10  C   UNL     1      19.157  37.570  26.741  1.00  0.00     0.012 C 
HETATM   11  C   UNL     1      15.363  35.486  29.851  1.00  0.00     0.002 C 
HETATM   12  C   UNL     1      19.899  37.088  25.771  1.00  0.00     0.011 C 
HETATM   13  C   UNL     1      20.188  33.429  25.538  1.00  0.00     0.251 C 
HETATM   14  C   UNL     1      16.400  35.269  27.672  1.00  0.00    -0.006 C 
HETATM   15  C   UNL     1      17.677  37.619  28.671  1.00  0.00     0.028 C 
HETATM   16  C   UNL     1      15.453  36.134  27.077  1.00  0.00     0.051 C 
HETATM   17  C   UNL     1      16.029  34.698  28.885  1.00  0.00     0.014 C 
HETATM   18  C   UNL     1      15.478  37.358  27.744  1.00  0.00     0.076 C 
HETATM   19  O   UNL     1      20.021  35.348  24.173  1.00  0.00    -0.330 OA
HETATM   20  C   UNL     1      19.981  33.917  24.142  1.00  0.00     0.263 C 
ENDROOT
BRANCH  20  21
HETATM   21  C   UNL     1      21.097  33.603  23.169  1.00  0.00     0.073 C 
HETATM   22  C   UNL     1      22.514  33.827  23.646  1.00  0.00     0.193 C 
HETATM   23  O   UNL     1      22.962  34.880  24.022  1.00  0.00    -0.287 OA
HETATM   24  C   UNL     1      23.214  32.552  23.413  1.00  0.00     0.024 C 
HETATM   25  C   UNL     1      22.443  31.739  22.608  1.00  0.00    -0.011 C 
HETATM   26  C   UNL     1      24.345  32.030  24.028  1.00  0.00     0.016 C 
HETATM   27  C   UNL     1      21.083  32.298  22.394  1.00  0.00     0.191 C 
HETATM   28  C   UNL     1      22.923  30.530  22.163  1.00  0.00     0.011 C 
HETATM   29  C   UNL     1      24.141  30.073  22.638  1.00  0.00     0.001 C 
HETATM   30  C   UNL     1      24.770  30.749  23.670  1.00  0.00     0.001 C 
BRANCH  27  31
HETATM   31  O   UNL     1      20.055  31.402  22.702  1.00  0.00    -0.386 OA
ATOM     32  HO  UNL     1      19.178  31.765  22.748  1.00  0.00     0.210 HD
ENDBRANCH  27  31
ENDBRANCH  20  21
BRANCH  20  33
HETATM   33  O   UNL     1      18.694  33.508  23.735  1.00  0.00    -0.355 OA
ATOM     34  HO  UNL     1      18.345  32.751  24.190  1.00  0.00     0.214 HD
ENDBRANCH  20  33
BRANCH   9  35
HETATM   35  O   UNL     1      20.636  34.597  27.599  1.00  0.00    -0.362 OA
ATOM     36  HO  UNL     1      20.927  33.710  27.776  1.00  0.00     0.213 HD
ENDBRANCH   9  35
BRANCH  18  37
HETATM   37  O   UNL     1      14.717  38.405  27.397  1.00  0.00    -0.360 OA
ATOM     38  HO  UNL     1      13.924  38.234  26.902  1.00  0.00     0.217 HD
ENDBRANCH  18  37
TORSDOF 5
ENDMDL
MODEL 7
REMARK VINA RESULT:     -10.6      2.205      8.368
REMARK  5 active torsions:
REMARK  status: ('A' for Active; 'I' for Inactive)
REMARK    1  A    between atoms: O_4  and  C_36 
REMARK    2  A    between atoms: C_6  and  O_32 
REMARK    3  A    between atoms: O_10  and  C_18 
REMARK    4  A    between atoms: C_19  and  C_38 
REMARK    5  A    between atoms: O_34  and  C_38 
ROOT
HETATM    1  C   UNL     1      21.464  31.007  19.742  1.00  0.00     0.014 C 
HETATM    2  C   UNL     1      21.520  33.110  22.445  1.00  0.00    -0.008 C 
HETATM    3  O   UNL     1      16.869  34.845  24.663  1.00  0.00    -0.286 OA
HETATM    4  C   UNL     1      22.167  31.431  20.876  1.00  0.00    -0.002 C 
HETATM    5  N   UNL     1      19.303  33.046  23.464  1.00  0.00    -0.348 N 
ATOM      6  HN  UNL     1      18.565  32.405  23.754  1.00  0.00     0.163 HD
HETATM    7  C   UNL     1      20.275  32.503  22.676  1.00  0.00     0.051 C 
HETATM    8  C   UNL     1      20.284  34.904  24.861  1.00  0.00     0.212 C 
HETATM    9  C   UNL     1      19.174  34.405  23.944  1.00  0.00     0.231 C 
HETATM   10  C   UNL     1      22.139  34.008  23.366  1.00  0.00     0.012 C 
HETATM   11  C   UNL     1      20.204  30.432  19.919  1.00  0.00     0.002 C 
HETATM   12  C   UNL     1      21.655  34.579  24.446  1.00  0.00     0.011 C 
HETATM   13  C   UNL     1      18.008  34.488  24.904  1.00  0.00     0.251 C 
HETATM   14  C   UNL     1      20.035  31.176  22.220  1.00  0.00    -0.006 C 
HETATM   15  C   UNL     1      22.195  32.782  21.266  1.00  0.00     0.028 C 
HETATM   16  C   UNL     1      21.016  30.251  22.645  1.00  0.00     0.051 C 
HETATM   17  C   UNL     1      19.423  30.900  21.001  1.00  0.00     0.014 C 
HETATM   18  C   UNL     1      22.188  30.472  21.923  1.00  0.00     0.076 C 
HETATM   19  O   UNL     1      20.017  34.342  26.135  1.00  0.00    -0.330 OA
HETATM   20  C   UNL     1      18.600  34.162  26.235  1.00  0.00     0.263 C 
ENDROOT
BRANCH  20  21
HETATM   21  C   UNL     1      18.251  35.119  27.355  1.00  0.00     0.073 C 
HETATM   22  C   UNL     1      18.479  36.591  27.103  1.00  0.00     0.193 C 
HETATM   23  O   UNL     1      19.540  37.093  26.829  1.00  0.00    -0.287 OA
HETATM   24  C   UNL     1      17.193  37.246  27.402  1.00  0.00     0.024 C 
HETATM   25  C   UNL     1      16.364  36.361  28.058  1.00  0.00    -0.011 C 
HETATM   26  C   UNL     1      16.681  38.455  26.949  1.00  0.00     0.016 C 
HETATM   27  C   UNL     1      16.925  34.985  28.082  1.00  0.00     0.191 C 
HETATM   28  C   UNL     1      15.139  36.765  28.535  1.00  0.00     0.011 C 
HETATM   29  C   UNL     1      14.688  38.040  28.235  1.00  0.00     0.001 C 
HETATM   30  C   UNL     1      15.388  38.818  27.330  1.00  0.00     0.001 C 
BRANCH  27  31
HETATM   31  O   UNL     1      16.045  34.013  27.597  1.00  0.00    -0.386 OA
ATOM     32  HO  UNL     1      16.110  33.808  26.672  1.00  0.00     0.210 HD
ENDBRANCH  27  31
ENDBRANCH  20  21
BRANCH  20  33
HETATM   33  O   UNL     1      18.333  32.803  26.499  1.00  0.00    -0.355 OA
ATOM     34  HO  UNL     1      17.876  32.629  27.314  1.00  0.00     0.214 HD
ENDBRANCH  20  33
BRANCH   9  35
HETATM   35  O   UNL     1      18.998  35.288  22.856  1.00  0.00    -0.362 OA
ATOM     36  HO  UNL     1      18.103  35.606  22.836  1.00  0.00     0.213 HD
ENDBRANCH   9  35
BRANCH  18  37
HETATM   37  O   UNL     1      23.318  29.778  22.117  1.00  0.00    -0.360 OA
ATOM     38  HO  UNL     1      24.051  29.950  21.536  1.00  0.00     0.217 HD
ENDBRANCH  18  37
TORSDOF 5
ENDMDL
MODEL 8
REMARK VINA RESULT:     -10.5      1.503      2.021
REMARK  5 active torsions:
REMARK  status: ('A' for Active; 'I' for Inactive)
REMARK    1  A    between atoms: O_4  and  C_36 
REMARK    2  A    between atoms: C_6  and  O_32 
REMARK    3  A    between atoms: O_10  and  C_18 
REMARK    4  A    between atoms: C_19  and  C_38 
REMARK    5  A    between atoms: O_34  and  C_38 
ROOT
HETATM    1  C   UNL     1      17.686  39.029  27.385  1.00  0.00     0.014 C 
HETATM    2  C   UNL     1      18.544  36.627  25.097  1.00  0.00    -0.008 C 
HETATM    3  O   UNL     1      22.926  33.513  25.905  1.00  0.00    -0.286 OA
HETATM    4  C   UNL     1      17.236  38.145  26.396  1.00  0.00    -0.002 C 
HETATM    5  N   UNL     1      20.096  35.097  26.194  1.00  0.00    -0.348 N 
ATOM      6  HN  UNL     1      20.244  34.578  27.058  1.00  0.00     0.163 HD
HETATM    7  C   UNL     1      19.116  36.045  26.238  1.00  0.00     0.051 C 
HETATM    8  C   UNL     1      20.264  34.161  23.857  1.00  0.00     0.212 C 
HETATM    9  C   UNL     1      20.956  34.728  25.089  1.00  0.00     0.231 C 
HETATM   10  C   UNL     1      18.477  35.973  23.830  1.00  0.00     0.012 C 
HETATM   11  C   UNL     1      18.298  38.496  28.522  1.00  0.00     0.002 C 
HETATM   12  C   UNL     1      19.052  34.866  23.419  1.00  0.00     0.011 C 
HETATM   13  C   UNL     1      21.785  33.525  25.481  1.00  0.00     0.251 C 
HETATM   14  C   UNL     1      18.561  36.303  27.524  1.00  0.00    -0.006 C 
HETATM   15  C   UNL     1      17.981  37.900  25.229  1.00  0.00     0.028 C 
HETATM   16  C   UNL     1      17.173  36.047  27.597  1.00  0.00     0.051 C 
HETATM   17  C   UNL     1      19.042  37.305  28.362  1.00  0.00     0.014 C 
HETATM   18  C   UNL     1      16.491  37.050  26.910  1.00  0.00     0.076 C 
HETATM   19  O   UNL     1      19.954  32.814  24.172  1.00  0.00    -0.330 OA
HETATM   20  C   UNL     1      20.939  32.354  25.105  1.00  0.00     0.263 C 
ENDROOT
BRANCH  20  21
HETATM   21  C   UNL     1      21.636  31.276  24.303  1.00  0.00     0.073 C 
HETATM   22  C   UNL     1      22.197  31.671  22.956  1.00  0.00     0.193 C 
HETATM   23  O   UNL     1      21.555  32.119  22.040  1.00  0.00    -0.287 OA
HETATM   24  C   UNL     1      23.612  31.259  22.983  1.00  0.00     0.024 C 
HETATM   25  C   UNL     1      23.834  30.433  24.064  1.00  0.00    -0.011 C 
HETATM   26  C   UNL     1      24.693  31.735  22.252  1.00  0.00     0.016 C 
HETATM   27  C   UNL     1      22.659  30.375  24.971  1.00  0.00     0.191 C 
HETATM   28  C   UNL     1      25.058  29.833  24.253  1.00  0.00     0.011 C 
HETATM   29  C   UNL     1      26.108  30.171  23.415  1.00  0.00     0.001 C 
HETATM   30  C   UNL     1      25.962  31.218  22.522  1.00  0.00     0.001 C 
BRANCH  27  31
HETATM   31  O   UNL     1      22.965  30.663  26.304  1.00  0.00    -0.386 OA
ATOM     32  HO  UNL     1      23.642  30.133  26.706  1.00  0.00     0.210 HD
ENDBRANCH  27  31
ENDBRANCH  20  21
BRANCH  20  33
HETATM   33  O   UNL     1      20.285  31.908  26.272  1.00  0.00    -0.355 OA
ATOM     34  HO  UNL     1      20.435  32.435  27.048  1.00  0.00     0.214 HD
ENDBRANCH  20  33
BRANCH   9  35
HETATM   35  O   UNL     1      21.782  35.817  24.734  1.00  0.00    -0.362 OA
ATOM     36  HO  UNL     1      21.299  36.427  24.188  1.00  0.00     0.213 HD
ENDBRANCH   9  35
BRANCH  18  37
HETATM   37  O   UNL     1      15.159  37.075  26.766  1.00  0.00    -0.360 OA
ATOM     38  HO  UNL     1      14.789  37.702  26.156  1.00  0.00     0.217 HD
ENDBRANCH  18  37
TORSDOF 5
ENDMDL
MODEL 9
REMARK VINA RESULT:     -10.5      2.641      8.643
REMARK  5 active torsions:
REMARK  status: ('A' for Active; 'I' for Inactive)
REMARK    1  A    between atoms: O_4  and  C_36 
REMARK    2  A    between atoms: C_6  and  O_32 
REMARK    3  A    between atoms: O_10  and  C_18 
REMARK    4  A    between atoms: C_19  and  C_38 
REMARK    5  A    between atoms: O_34  and  C_38 
ROOT
HETATM    1  C   UNL     1      19.720  31.029  22.181  1.00  0.00     0.014 C 
HETATM    2  C   UNL     1      18.437  33.978  23.364  1.00  0.00    -0.008 C 
HETATM    3  O   UNL     1      16.176  34.196  28.303  1.00  0.00    -0.286 OA
HETATM    4  C   UNL     1      19.783  32.428  22.144  1.00  0.00    -0.002 C 
HETATM    5  N   UNL     1      18.183  33.745  25.779  1.00  0.00    -0.348 N 
ATOM      6  HN  UNL     1      18.665  33.415  26.615  1.00  0.00     0.163 HD
HETATM    7  C   UNL     1      18.743  33.373  24.592  1.00  0.00     0.051 C 
HETATM    8  C   UNL     1      17.041  35.979  25.514  1.00  0.00     0.212 C 
HETATM    9  C   UNL     1      16.998  34.542  26.016  1.00  0.00     0.231 C 
HETATM   10  C   UNL     1      17.983  35.325  23.242  1.00  0.00     0.012 C 
HETATM   11  C   UNL     1      19.979  30.385  23.393  1.00  0.00     0.002 C 
HETATM   12  C   UNL     1      17.592  36.173  24.167  1.00  0.00     0.011 C 
HETATM   13  C   UNL     1      16.860  34.804  27.500  1.00  0.00     0.251 C 
HETATM   14  C   UNL     1      19.810  32.433  24.677  1.00  0.00    -0.006 C 
HETATM   15  C   UNL     1      18.624  33.222  22.202  1.00  0.00     0.028 C 
HETATM   16  C   UNL     1      21.030  32.922  24.156  1.00  0.00     0.051 C 
HETATM   17  C   UNL     1      19.610  31.060  24.579  1.00  0.00     0.014 C 
HETATM   18  C   UNL     1      20.944  32.961  22.765  1.00  0.00     0.076 C 
HETATM   19  O   UNL     1      17.813  36.698  26.462  1.00  0.00    -0.330 OA
HETATM   20  C   UNL     1      17.645  36.053  27.730  1.00  0.00     0.263 C 
ENDROOT
BRANCH  20  21
HETATM   21  C   UNL     1      16.939  37.129  28.526  1.00  0.00     0.073 C 
HETATM   22  C   UNL     1      15.478  37.369  28.221  1.00  0.00     0.193 C 
HETATM   23  O   UNL     1      15.035  37.691  27.148  1.00  0.00    -0.287 OA
HETATM   24  C   UNL     1      14.783  37.264  29.517  1.00  0.00     0.024 C 
HETATM   25  C   UNL     1      15.706  37.277  30.541  1.00  0.00    -0.011 C 
HETATM   26  C   UNL     1      13.457  36.957  29.795  1.00  0.00     0.016 C 
HETATM   27  C   UNL     1      17.101  37.186  30.034  1.00  0.00     0.191 C 
HETATM   28  C   UNL     1      15.301  37.291  31.855  1.00  0.00     0.011 C 
HETATM   29  C   UNL     1      13.952  37.160  32.144  1.00  0.00     0.001 C 
HETATM   30  C   UNL     1      13.063  36.848  31.130  1.00  0.00     0.001 C 
BRANCH  27  31
HETATM   31  O   UNL     1      17.843  36.157  30.620  1.00  0.00    -0.386 OA
ATOM     32  HO  UNL     1      18.115  36.291  31.520  1.00  0.00     0.210 HD
ENDBRANCH  27  31
ENDBRANCH  20  21
BRANCH  20  33
HETATM   33  O   UNL     1      18.913  35.676  28.219  1.00  0.00    -0.355 OA
ATOM     34  HO  UNL     1      18.939  35.436  29.138  1.00  0.00     0.214 HD
ENDBRANCH  20  33
BRANCH   9  35
HETATM   35  O   UNL     1      15.858  33.877  25.512  1.00  0.00    -0.362 OA
ATOM     36  HO  UNL     1      15.137  34.489  25.423  1.00  0.00     0.213 HD
ENDBRANCH   9  35
BRANCH  18  37
HETATM   37  O   UNL     1      21.928  33.410  21.975  1.00  0.00    -0.360 OA
ATOM     38  HO  UNL     1      21.904  34.321  21.708  1.00  0.00     0.217 HD
ENDBRANCH  18  37
TORSDOF 5
ENDMDL
