REMARK  11 active torsions:
REMARK  status: ('A' for Active; 'I' for Inactive)
REMARK    1  A    between atoms: C_1  and  C_22 
REMARK    2  A    between atoms: C_1  and  C_24 
REMARK    3  A    between atoms: C_2  and  S_25 
REMARK    4  A    between atoms: C_2  and  C_28 
REMARK    5  A    between atoms: C_3  and  C_11 
REMARK    6  A    between atoms: C_5  and  C_14 
REMARK    7  A    between atoms: C_5  and  C_22 
REMARK       I    between atoms: N_7  and  C_11 
REMARK    8  A    between atoms: C_14  and  C_16 
REMARK    9  A    between atoms: S_25  and  C_27 
REMARK   10  A    between atoms: C_26  and  C_27 
REMARK   11  A    between atoms: C_28  and  C_29 
ROOT
HETATM    1  O   UNL     1      42.153  36.225  17.132  1.00  0.00    -0.249 OA
HETATM    2  S   UNL     1      43.024  35.354  16.528  1.00  0.00     0.090 S 
ENDROOT
BRANCH   2   3
HETATM    3  C   UNL     1      42.444  34.090  15.565  1.00  0.00     0.118 C 
BRANCH   3   4
HETATM    4  C   UNL     1      40.930  33.982  15.442  1.00  0.00     0.022 C 
BRANCH   4   5
HETATM    5  C   UNL     1      40.237  34.844  14.372  1.00  0.00    -0.043 C 
HETATM    6  C   UNL     1      40.873  34.555  12.998  1.00  0.00     0.015 C 
HETATM    7  C   UNL     1      40.358  36.355  14.626  1.00  0.00     0.013 C 
HETATM    8  C   UNL     1      39.337  37.210  13.885  1.00  0.00     0.040 C 
HETATM    9  C   UNL     1      38.232  36.487  13.253  1.00  0.00    -0.013 C 
HETATM   10  C   UNL     1      37.713  35.290  13.958  1.00  0.00     0.040 C 
HETATM   11  C   UNL     1      38.789  34.359  14.447  1.00  0.00     0.013 C 
BRANCH   9  12
HETATM   12  C   UNL     1      37.790  36.751  11.939  1.00  0.00     0.241 C 
HETATM   13  N   UNL     1      38.379  37.751  11.262  1.00  0.00    -0.366 N 
ATOM     14  HN2 UNL     1      39.094  38.323  11.711  1.00  0.00     0.159 HD
ATOM     15  HN1 UNL     1      38.060  37.942  10.312  1.00  0.00     0.159 HD
HETATM   16  O   UNL     1      36.918  36.054  11.392  1.00  0.00    -0.269 OA
ENDBRANCH   9  12
ENDBRANCH   4   5
ENDBRANCH   3   4
ENDBRANCH   2   3
BRANCH   2  17
HETATM   17  C   UNL     1      44.572  35.879  16.178  1.00  0.00     0.248 C 
HETATM   18  O   UNL     1      45.256  35.220  15.446  1.00  0.00    -0.277 OA
BRANCH  17  19
HETATM   19  C   UNL     1      45.022  37.121  16.817  1.00  0.00     0.024 C 
HETATM   20  C   UNL     1      45.677  37.052  18.049  1.00  0.00     0.016 C 
HETATM   21  C   UNL     1      46.216  38.208  18.604  1.00  0.00     0.002 C 
HETATM   22  C   UNL     1      46.125  39.414  17.912  1.00  0.00     0.007 C 
HETATM   23  C   UNL     1      45.571  39.442  16.633  1.00  0.00    -0.057 C 
HETATM   24  C   UNL     1      44.793  38.360  16.222  1.00  0.00     0.023 C 
BRANCH  23  25
HETATM   25  C   UNL     1      45.952  40.529  15.650  1.00  0.00     0.038 C 
BRANCH  25  26
HETATM   26  C   UNL     1      45.228  41.852  15.824  1.00  0.00     0.005 C 
BRANCH  26  27
HETATM   27  C   UNL     1      46.254  42.983  15.756  1.00  0.00     0.011 C 
BRANCH  27  28
HETATM   28  C   UNL     1      46.101  43.851  14.523  1.00  0.00     0.113 C 
BRANCH  28  29
HETATM   29  C   UNL     1      45.858  43.101  13.218  1.00  0.00     0.172 C 
HETATM   30  O   UNL     1      45.107  43.663  12.361  1.00  0.00    -0.648 OA
HETATM   31  O   UNL     1      46.371  41.985  13.017  1.00  0.00    -0.648 OA
ENDBRANCH  28  29
ENDBRANCH  27  28
ENDBRANCH  26  27
ENDBRANCH  25  26
ENDBRANCH  23  25
ENDBRANCH  17  19
ENDBRANCH   2  17
TORSDOF 11
