MODEL 1
REMARK VINA RESULT:      -5.7      0.000      0.000
REMARK  1 active torsions:
REMARK  status: ('A' for Active; 'I' for Inactive)
REMARK    1  A    between atoms: C_13  and  C_16 
ROOT
ATOM      1  CA  GLY A   1      -7.584   1.964   1.360  1.00  0.00     0.226 C 
ATOM      2  O   GLY A   1      -7.263   4.137   2.366  1.00  0.00    -0.271 OA
ATOM      3  N   GLY A   1      -8.687   1.078   1.767  1.00  0.00    -0.347 N 
ATOM      4  HN  GLY A   1      -8.485   0.220   2.280  1.00  0.00     0.163 HD
ATOM      5  C   GLY A   1      -7.998   3.380   1.764  1.00  0.00     0.240 C 
HETATM    6  O   UNK A   2     -10.906   0.652   1.725  1.00  0.00    -0.266 OA
HETATM    7  C   UNK A   2      -9.998   1.403   1.455  1.00  0.00     0.269 C 
HETATM    8  C   UNK A   2     -10.310   2.898   1.232  1.00  0.00     0.113 C 
HETATM    9  N   UNK A   2      -9.237   3.782   1.292  1.00  0.00    -0.320 N 
ATOM     10  HN  UNK A   2      -9.366   4.745   0.982  1.00  0.00     0.169 HD
ENDROOT
BRANCH   8  11
HETATM   11  C   UNK A   2     -11.653   3.335   0.752  1.00  0.00    -0.004 A 
HETATM   12  C   UNK A   2     -12.355   2.553  -0.167  1.00  0.00     0.014 A 
HETATM   13  C   UNK A   2     -13.610   2.945  -0.637  1.00  0.00     0.001 A 
HETATM   14  C   UNK A   2     -14.130   4.185  -0.274  1.00  0.00     0.000 A 
HETATM   15  C   UNK A   2     -13.430   5.006   0.614  1.00  0.00     0.001 A 
HETATM   16  C   UNK A   2     -12.231   4.550   1.169  1.00  0.00     0.014 A 
ENDBRANCH   8  11
TORSDOF 1
ENDMDL
MODEL 2
REMARK VINA RESULT:      -5.7      3.706      5.185
REMARK  1 active torsions:
REMARK  status: ('A' for Active; 'I' for Inactive)
REMARK    1  A    between atoms: C_13  and  C_16 
ROOT
ATOM      1  CA  GLY A   1     -13.867  -1.463  -0.257  1.00  0.00     0.226 C 
ATOM      2  O   GLY A   1     -16.183  -1.002   0.252  1.00  0.00    -0.271 OA
ATOM      3  N   GLY A   1     -13.142  -0.723  -1.302  1.00  0.00    -0.347 N 
ATOM      4  HN  GLY A   1     -12.871  -1.196  -2.164  1.00  0.00     0.163 HD
ATOM      5  C   GLY A   1     -15.048  -0.582   0.155  1.00  0.00     0.240 C 
HETATM    6  O   UNK A   2     -12.170   1.215  -1.942  1.00  0.00    -0.266 OA
HETATM    7  C   UNK A   2     -12.824   0.614  -1.120  1.00  0.00     0.269 C 
HETATM    8  C   UNK A   2     -13.712   1.415  -0.145  1.00  0.00     0.113 C 
HETATM    9  N   UNK A   2     -14.709   0.711   0.522  1.00  0.00    -0.320 N 
ATOM     10  HN  UNK A   2     -15.202   1.156   1.296  1.00  0.00     0.169 HD
ENDROOT
BRANCH   8  11
HETATM   11  C   UNK A   2     -13.365   2.817   0.228  1.00  0.00    -0.004 A 
HETATM   12  C   UNK A   2     -12.187   3.083   0.926  1.00  0.00     0.014 A 
HETATM   13  C   UNK A   2     -11.845   4.386   1.294  1.00  0.00     0.001 A 
HETATM   14  C   UNK A   2     -12.739   5.429   1.062  1.00  0.00     0.000 A 
HETATM   15  C   UNK A   2     -13.944   5.184   0.399  1.00  0.00     0.001 A 
HETATM   16  C   UNK A   2     -14.221   3.897  -0.069  1.00  0.00     0.014 A 
ENDBRANCH   8  11
TORSDOF 1
ENDMDL
MODEL 3
REMARK VINA RESULT:      -5.6      1.777      2.471
REMARK  1 active torsions:
REMARK  status: ('A' for Active; 'I' for Inactive)
REMARK    1  A    between atoms: C_13  and  C_16 
ROOT
ATOM      1  CA  GLY A   1      -7.606   1.496   2.644  1.00  0.00     0.226 C 
ATOM      2  O   GLY A   1      -9.000  -0.015   3.914  1.00  0.00    -0.271 OA
ATOM      3  N   GLY A   1      -7.634   1.522   1.172  1.00  0.00    -0.347 N 
ATOM      4  HN  GLY A   1      -6.829   1.185   0.644  1.00  0.00     0.163 HD
ATOM      5  C   GLY A   1      -8.931   0.874   3.088  1.00  0.00     0.240 C 
HETATM    6  O   UNK A   2      -8.756   2.093  -0.704  1.00  0.00    -0.266 OA
HETATM    7  C   UNK A   2      -8.747   2.004   0.502  1.00  0.00     0.269 C 
HETATM    8  C   UNK A   2     -10.093   1.943   1.254  1.00  0.00     0.113 C 
HETATM    9  N   UNK A   2     -10.063   1.478   2.564  1.00  0.00    -0.320 N 
ATOM     10  HN  UNK A   2     -10.891   1.583   3.151  1.00  0.00     0.169 HD
ENDROOT
BRANCH   8  11
HETATM   11  C   UNK A   2     -11.319   2.568   0.677  1.00  0.00    -0.004 A 
HETATM   12  C   UNK A   2     -11.697   3.854   1.063  1.00  0.00     0.014 A 
HETATM   13  C   UNK A   2     -12.845   4.455   0.544  1.00  0.00     0.001 A 
HETATM   14  C   UNK A   2     -13.691   3.729  -0.290  1.00  0.00     0.000 A 
HETATM   15  C   UNK A   2     -13.357   2.425  -0.663  1.00  0.00     0.001 A 
HETATM   16  C   UNK A   2     -12.147   1.876  -0.231  1.00  0.00     0.014 A 
ENDBRANCH   8  11
TORSDOF 1
ENDMDL
MODEL 4
REMARK VINA RESULT:      -5.6      2.949      4.466
REMARK  1 active torsions:
REMARK  status: ('A' for Active; 'I' for Inactive)
REMARK    1  A    between atoms: C_13  and  C_16 
ROOT
ATOM      1  CA  GLY A   1      -6.244   4.703   5.012  1.00  0.00     0.226 C 
ATOM      2  O   GLY A   1      -4.560   3.038   4.535  1.00  0.00    -0.271 OA
ATOM      3  N   GLY A   1      -6.742   5.620   3.973  1.00  0.00    -0.347 N 
ATOM      4  HN  GLY A   1      -6.510   6.612   4.018  1.00  0.00     0.163 HD
ATOM      5  C   GLY A   1      -5.654   3.499   4.277  1.00  0.00     0.240 C 
HETATM    6  O   UNK A   2      -7.996   5.894   2.113  1.00  0.00    -0.266 OA
HETATM    7  C   UNK A   2      -7.526   5.141   2.934  1.00  0.00     0.269 C 
HETATM    8  C   UNK A   2      -7.368   3.649   2.574  1.00  0.00     0.113 C 
HETATM    9  N   UNK A   2      -6.508   2.896   3.366  1.00  0.00    -0.320 N 
ATOM     10  HN  UNK A   2      -6.504   1.881   3.275  1.00  0.00     0.169 HD
ENDROOT
BRANCH   8  11
HETATM   11  C   UNK A   2      -8.267   3.007   1.572  1.00  0.00    -0.004 A 
HETATM   12  C   UNK A   2      -9.644   3.224   1.627  1.00  0.00     0.014 A 
HETATM   13  C   UNK A   2     -10.506   2.627   0.706  1.00  0.00     0.001 A 
HETATM   14  C   UNK A   2     -10.008   1.712  -0.219  1.00  0.00     0.000 A 
HETATM   15  C   UNK A   2      -8.638   1.445  -0.270  1.00  0.00     0.001 A 
HETATM   16  C   UNK A   2      -7.771   2.138   0.578  1.00  0.00     0.014 A 
ENDBRANCH   8  11
TORSDOF 1
ENDMDL
MODEL 5
REMARK VINA RESULT:      -5.2      3.360      5.207
REMARK  1 active torsions:
REMARK  status: ('A' for Active; 'I' for Inactive)
REMARK    1  A    between atoms: C_13  and  C_16 
ROOT
ATOM      1  CA  GLY A   1     -14.901  -0.193   0.773  1.00  0.00     0.226 C 
ATOM      2  O   GLY A   1     -15.190   1.205   2.722  1.00  0.00    -0.271 OA
ATOM      3  N   GLY A   1     -14.502   0.366  -0.529  1.00  0.00    -0.347 N 
ATOM      4  HN  GLY A   1     -15.170   0.384  -1.299  1.00  0.00     0.163 HD
ATOM      5  C   GLY A   1     -14.460   0.820   1.831  1.00  0.00     0.240 C 
HETATM    6  O   UNK A   2     -12.861   1.267  -1.795  1.00  0.00    -0.266 OA
HETATM    7  C   UNK A   2     -13.222   0.867  -0.713  1.00  0.00     0.269 C 
HETATM    8  C   UNK A   2     -12.478   1.354   0.548  1.00  0.00     0.113 C 
HETATM    9  N   UNK A   2     -13.124   1.184   1.768  1.00  0.00    -0.320 N 
ATOM     10  HN  UNK A   2     -12.604   1.329   2.633  1.00  0.00     0.169 HD
ENDROOT
BRANCH   8  11
HETATM   11  C   UNK A   2     -11.048   1.773   0.476  1.00  0.00    -0.004 A 
HETATM   12  C   UNK A   2     -10.111   0.958  -0.159  1.00  0.00     0.014 A 
HETATM   13  C   UNK A   2      -8.766   1.325  -0.232  1.00  0.00     0.001 A 
HETATM   14  C   UNK A   2      -8.323   2.467   0.431  1.00  0.00     0.000 A 
HETATM   15  C   UNK A   2      -9.233   3.282   1.108  1.00  0.00     0.001 A 
HETATM   16  C   UNK A   2     -10.593   2.967   1.073  1.00  0.00     0.014 A 
ENDBRANCH   8  11
TORSDOF 1
ENDMDL
MODEL 6
REMARK VINA RESULT:      -5.2      2.538      4.140
REMARK  1 active torsions:
REMARK  status: ('A' for Active; 'I' for Inactive)
REMARK    1  A    between atoms: C_13  and  C_16 
ROOT
ATOM      1  CA  GLY A   1     -11.676  -1.617   1.599  1.00  0.00     0.226 C 
ATOM      2  O   GLY A   1     -13.637  -2.249   0.337  1.00  0.00    -0.271 OA
ATOM      3  N   GLY A   1     -10.632  -0.751   1.026  1.00  0.00    -0.347 N 
ATOM      4  HN  GLY A   1      -9.714  -1.139   0.811  1.00  0.00     0.163 HD
ATOM      5  C   GLY A   1     -12.945  -1.357   0.787  1.00  0.00     0.240 C 
HETATM    6  O   UNK A   2     -10.022   1.324   0.372  1.00  0.00    -0.266 OA
HETATM    7  C   UNK A   2     -10.891   0.588   0.779  1.00  0.00     0.269 C 
HETATM    8  C   UNK A   2     -12.366   0.983   0.557  1.00  0.00     0.113 C 
HETATM    9  N   UNK A   2     -13.316  -0.024   0.695  1.00  0.00    -0.320 N 
ATOM     10  HN  UNK A   2     -14.305   0.223   0.728  1.00  0.00     0.169 HD
ENDROOT
BRANCH   8  11
HETATM   11  C   UNK A   2     -12.762   2.415   0.429  1.00  0.00    -0.004 A 
HETATM   12  C   UNK A   2     -12.173   3.379   1.248  1.00  0.00     0.014 A 
HETATM   13  C   UNK A   2     -12.534   4.725   1.152  1.00  0.00     0.001 A 
HETATM   14  C   UNK A   2     -13.574   5.105   0.307  1.00  0.00     0.000 A 
HETATM   15  C   UNK A   2     -14.208   4.154  -0.495  1.00  0.00     0.001 A 
HETATM   16  C   UNK A   2     -13.758   2.831  -0.477  1.00  0.00     0.014 A 
ENDBRANCH   8  11
TORSDOF 1
ENDMDL
MODEL 7
REMARK VINA RESULT:      -5.1      2.516      3.617
REMARK  1 active torsions:
REMARK  status: ('A' for Active; 'I' for Inactive)
REMARK    1  A    between atoms: C_13  and  C_16 
ROOT
ATOM      1  CA  GLY A   1      -5.571   4.111   3.949  1.00  0.00     0.226 C 
ATOM      2  O   GLY A   1      -7.014   6.005   4.358  1.00  0.00    -0.271 OA
ATOM      3  N   GLY A   1      -6.045   2.727   4.113  1.00  0.00    -0.347 N 
ATOM      4  HN  GLY A   1      -5.689   2.156   4.879  1.00  0.00     0.163 HD
ATOM      5  C   GLY A   1      -6.818   4.973   3.748  1.00  0.00     0.240 C 
HETATM    6  O   UNK A   2      -7.321   1.041   3.314  1.00  0.00    -0.266 OA
HETATM    7  C   UNK A   2      -6.974   2.196   3.230  1.00  0.00     0.269 C 
HETATM    8  C   UNK A   2      -7.891   3.198   2.499  1.00  0.00     0.113 C 
HETATM    9  N   UNK A   2      -7.662   4.550   2.732  1.00  0.00    -0.320 N 
ATOM     10  HN  UNK A   2      -8.123   5.244   2.145  1.00  0.00     0.169 HD
ENDROOT
BRANCH   8  11
HETATM   11  C   UNK A   2      -8.820   2.740   1.426  1.00  0.00    -0.004 A 
HETATM   12  C   UNK A   2     -10.194   2.945   1.556  1.00  0.00     0.014 A 
HETATM   13  C   UNK A   2     -11.084   2.517   0.568  1.00  0.00     0.001 A 
HETATM   14  C   UNK A   2     -10.615   1.778  -0.514  1.00  0.00     0.000 A 
HETATM   15  C   UNK A   2      -9.248   1.524  -0.649  1.00  0.00     0.001 A 
HETATM   16  C   UNK A   2      -8.355   2.059   0.283  1.00  0.00     0.014 A 
ENDBRANCH   8  11
TORSDOF 1
ENDMDL
MODEL 8
REMARK VINA RESULT:      -5.1      2.674      5.077
REMARK  1 active torsions:
REMARK  status: ('A' for Active; 'I' for Inactive)
REMARK    1  A    between atoms: C_13  and  C_16 
ROOT
ATOM      1  CA  GLY A   1     -14.764   3.766   1.641  1.00  0.00     0.226 C 
ATOM      2  O   GLY A   1     -14.807   4.454  -0.675  1.00  0.00    -0.271 OA
ATOM      3  N   GLY A   1     -14.326   2.419   2.040  1.00  0.00    -0.347 N 
ATOM      4  HN  GLY A   1     -15.006   1.754   2.409  1.00  0.00     0.163 HD
ATOM      5  C   GLY A   1     -14.160   4.023   0.259  1.00  0.00     0.240 C 
HETATM    6  O   UNK A   2     -12.612   0.970   2.304  1.00  0.00    -0.266 OA
HETATM    7  C   UNK A   2     -12.996   2.049   1.918  1.00  0.00     0.269 C 
HETATM    8  C   UNK A   2     -12.158   2.804   0.864  1.00  0.00     0.113 C 
HETATM    9  N   UNK A   2     -12.789   3.837   0.178  1.00  0.00    -0.320 N 
ATOM     10  HN  UNK A   2     -12.232   4.469  -0.396  1.00  0.00     0.169 HD
ENDROOT
BRANCH   8  11
HETATM   11  C   UNK A   2     -10.687   2.582   0.756  1.00  0.00    -0.004 A 
HETATM   12  C   UNK A   2      -9.806   3.362   1.506  1.00  0.00     0.014 A 
HETATM   13  C   UNK A   2      -8.424   3.178   1.415  1.00  0.00     0.001 A 
HETATM   14  C   UNK A   2      -7.904   2.281   0.486  1.00  0.00     0.000 A 
HETATM   15  C   UNK A   2      -8.763   1.516  -0.305  1.00  0.00     0.001 A 
HETATM   16  C   UNK A   2     -10.143   1.623  -0.122  1.00  0.00     0.014 A 
ENDBRANCH   8  11
TORSDOF 1
ENDMDL
MODEL 9
REMARK VINA RESULT:      -5.0      2.002      3.304
REMARK  1 active torsions:
REMARK  status: ('A' for Active; 'I' for Inactive)
REMARK    1  A    between atoms: C_13  and  C_16 
ROOT
ATOM      1  CA  GLY A   1      -6.813   3.901   4.359  1.00  0.00     0.226 C 
ATOM      2  O   GLY A   1      -6.813   1.544   3.828  1.00  0.00    -0.271 OA
ATOM      3  N   GLY A   1      -6.849   4.931   3.308  1.00  0.00    -0.347 N 
ATOM      4  HN  GLY A   1      -6.029   5.513   3.141  1.00  0.00     0.163 HD
ATOM      5  C   GLY A   1      -7.364   2.622   3.727  1.00  0.00     0.240 C 
HETATM    6  O   UNK A   2      -8.058   6.001   1.726  1.00  0.00    -0.266 OA
HETATM    7  C   UNK A   2      -7.992   5.114   2.546  1.00  0.00     0.269 C 
HETATM    8  C   UNK A   2      -8.940   3.904   2.411  1.00  0.00     0.113 C 
HETATM    9  N   UNK A   2      -8.605   2.757   3.123  1.00  0.00    -0.320 N 
ATOM     10  HN  UNK A   2      -9.284   2.001   3.202  1.00  0.00     0.169 HD
ENDROOT
BRANCH   8  11
HETATM   11  C   UNK A   2     -10.263   4.042   1.736  1.00  0.00    -0.004 A 
HETATM   12  C   UNK A   2     -11.066   5.155   1.990  1.00  0.00     0.014 A 
HETATM   13  C   UNK A   2     -12.311   5.302   1.376  1.00  0.00     0.001 A 
HETATM   14  C   UNK A   2     -12.817   4.276   0.581  1.00  0.00     0.000 A 
HETATM   15  C   UNK A   2     -12.051   3.134   0.341  1.00  0.00     0.001 A 
HETATM   16  C   UNK A   2     -10.759   3.051   0.865  1.00  0.00     0.014 A 
ENDBRANCH   8  11
TORSDOF 1
ENDMDL
