MODEL 1
REMARK VINA RESULT:      -7.1      0.000      0.000
REMARK  7 active torsions:
REMARK  status: ('A' for Active; 'I' for Inactive)
REMARK    1  A    between atoms: C_1  and  N_16 
REMARK    2  A    between atoms: C_1  and  C_30 
REMARK    3  A    between atoms: C_2  and  C_8 
REMARK    4  A    between atoms: C_3  and  O_22 
REMARK    5  A    between atoms: C_4  and  O_5 
REMARK    6  A    between atoms: O_13  and  C_24 
REMARK       I    between atoms: C_15  and  N_16 
REMARK       I    between atoms: C_15  and  N_19 
REMARK    7  A    between atoms: O_22  and  P_23 
ROOT
HETATM    1  C   UNL     1      38.705 -15.829  25.443  1.00  0.00     0.422 C 
HETATM    2  C   UNL     1      38.829 -16.844  23.265  1.00  0.00     0.323 C 
HETATM    3  C   UNL     1      40.346 -16.970  23.399  1.00  0.00     0.096 C 
HETATM    4  N   UNL     1      38.219 -16.901  24.581  1.00  0.00    -0.016 N 
ATOM      5  HN1 UNL     1      37.200 -16.899  24.521  1.00  0.00     0.283 HD
ATOM      6  HN2 UNL     1      38.349 -17.816  25.013  1.00  0.00     0.283 HD
HETATM    7  C   UNL     1      40.823 -15.838  24.304  1.00  0.00     0.210 C 
HETATM    8  N   UNL     1      40.158 -15.954  25.620  1.00  0.00    -0.036 N 
ATOM      9  HN1 UNL     1      40.416 -16.811  26.109  1.00  0.00     0.280 HD
ATOM     10  HN2 UNL     1      40.525 -15.285  26.298  1.00  0.00     0.280 HD
ENDROOT
BRANCH   1  11
HETATM   11  C   UNL     1      37.977 -15.738  26.751  1.00  0.00     0.036 C 
HETATM   12  C   UNL     1      37.911 -16.819  27.654  1.00  0.00     0.093 C 
HETATM   13  C   UNL     1      36.786 -16.942  28.472  1.00  0.00     0.041 C 
HETATM   14  C   UNL     1      36.026 -15.798  28.733  1.00  0.00     0.039 C 
HETATM   15  C   UNL     1      36.399 -14.571  28.160  1.00  0.00     0.066 C 
HETATM   16  C   UNL     1      37.342 -14.550  27.128  1.00  0.00     0.050 C 
BRANCH  12  17
HETATM   17  O   UNL     1      38.974 -17.696  27.715  1.00  0.00    -0.239 OA
BRANCH  17  18
HETATM   18  P   UNL     1      39.002 -19.165  27.048  1.00  0.00     0.427 P 
HETATM   19  O   UNL     1      37.684 -19.435  26.382  1.00  0.00    -0.617 OA
HETATM   20  O   UNL     1      40.093 -19.134  26.013  1.00  0.00    -0.617 OA
HETATM   21  O   UNL     1      39.237 -20.104  28.186  1.00  0.00    -0.617 OA
ENDBRANCH  17  18
ENDBRANCH  12  17
BRANCH  15  22
HETATM   22  O   UNL     1      35.937 -13.391  28.645  1.00  0.00    -0.361 OA
ATOM     23  HO  UNL     1      36.532 -12.834  29.134  1.00  0.00     0.217 HD
ENDBRANCH  15  22
ENDBRANCH   1  11
BRANCH   2  24
HETATM   24  O   UNL     1      38.327 -17.834  22.412  1.00  0.00    -0.370 OA
ATOM     25  HO  UNL     1      37.545 -18.227  22.781  1.00  0.00     0.212 HD
ENDBRANCH   2  24
BRANCH   7  26
HETATM   26  C   UNL     1      42.334 -15.879  24.523  1.00  0.00     0.157 C 
BRANCH  26  27
HETATM   27  N   UNL     1      42.914 -17.166  24.162  1.00  0.00    -0.341 N 
HETATM   28  C   UNL     1      44.222 -17.409  23.891  1.00  0.00     0.313 C 
HETATM   29  O   UNL     1      44.638 -18.585  23.755  1.00  0.00    -0.248 OA
HETATM   30  N   UNL     1      45.056 -16.367  23.744  1.00  0.00    -0.352 N 
ATOM     31  HN2 UNL     1      46.038 -16.549  23.540  1.00  0.00     0.160 HD
ATOM     32  HN1 UNL     1      44.718 -15.411  23.854  1.00  0.00     0.160 HD
ATOM     33  HN  UNL     1      42.277 -17.961  24.108  1.00  0.00     0.164 HD
ENDBRANCH  26  27
ENDBRANCH   7  26
TORSDOF 7
ENDMDL
MODEL 2
REMARK VINA RESULT:      -7.0      2.437      4.496
REMARK  7 active torsions:
REMARK  status: ('A' for Active; 'I' for Inactive)
REMARK    1  A    between atoms: C_1  and  N_16 
REMARK    2  A    between atoms: C_1  and  C_30 
REMARK    3  A    between atoms: C_2  and  C_8 
REMARK    4  A    between atoms: C_3  and  O_22 
REMARK    5  A    between atoms: C_4  and  O_5 
REMARK    6  A    between atoms: O_13  and  C_24 
REMARK       I    between atoms: C_15  and  N_16 
REMARK       I    between atoms: C_15  and  N_19 
REMARK    7  A    between atoms: O_22  and  P_23 
ROOT
HETATM    1  C   UNL     1      38.404 -16.543  25.233  1.00  0.00     0.422 C 
HETATM    2  C   UNL     1      39.759 -15.964  23.331  1.00  0.00     0.323 C 
HETATM    3  C   UNL     1      38.717 -16.568  22.391  1.00  0.00     0.096 C 
HETATM    4  N   UNL     1      39.106 -15.473  24.531  1.00  0.00    -0.016 N 
ATOM      5  HN1 UNL     1      39.764 -14.992  25.145  1.00  0.00     0.283 HD
ATOM      6  HN2 UNL     1      38.484 -14.691  24.323  1.00  0.00     0.283 HD
HETATM    7  C   UNL     1      38.002 -17.681  23.153  1.00  0.00     0.210 C 
HETATM    8  N   UNL     1      37.367 -17.112  24.363  1.00  0.00    -0.036 N 
ATOM      9  HN1 UNL     1      36.639 -16.435  24.135  1.00  0.00     0.280 HD
ATOM     10  HN2 UNL     1      36.784 -17.793  24.849  1.00  0.00     0.280 HD
ENDROOT
BRANCH   1  11
HETATM   11  C   UNL     1      37.862 -16.124  26.568  1.00  0.00     0.036 C 
HETATM   12  C   UNL     1      37.869 -16.982  27.687  1.00  0.00     0.093 C 
HETATM   13  C   UNL     1      36.859 -16.846  28.641  1.00  0.00     0.041 C 
HETATM   14  C   UNL     1      36.194 -15.620  28.735  1.00  0.00     0.039 C 
HETATM   15  C   UNL     1      36.542 -14.572  27.866  1.00  0.00     0.066 C 
HETATM   16  C   UNL     1      37.338 -14.840  26.748  1.00  0.00     0.050 C 
BRANCH  12  17
HETATM   17  O   UNL     1      38.889 -17.901  27.809  1.00  0.00    -0.239 OA
BRANCH  17  18
HETATM   18  P   UNL     1      38.782 -19.462  27.411  1.00  0.00     0.427 P 
HETATM   19  O   UNL     1      39.795 -20.246  28.193  1.00  0.00    -0.617 OA
HETATM   20  O   UNL     1      37.397 -19.899  27.800  1.00  0.00    -0.617 OA
HETATM   21  O   UNL     1      39.071 -19.510  25.946  1.00  0.00    -0.617 OA
ENDBRANCH  17  18
ENDBRANCH  12  17
BRANCH  15  22
HETATM   22  O   UNL     1      36.204 -13.286  28.133  1.00  0.00    -0.361 OA
ATOM     23  HO  UNL     1      35.351 -12.971  27.855  1.00  0.00     0.217 HD
ENDBRANCH  15  22
ENDBRANCH   1  11
BRANCH   2  24
HETATM   24  O   UNL     1      40.483 -14.957  22.680  1.00  0.00    -0.370 OA
ATOM     25  HO  UNL     1      41.325 -15.287  22.389  1.00  0.00     0.212 HD
ENDBRANCH   2  24
BRANCH   7  26
HETATM   26  C   UNL     1      36.917 -18.346  22.308  1.00  0.00     0.157 C 
BRANCH  26  27
HETATM   27  N   UNL     1      35.928 -17.394  21.822  1.00  0.00    -0.341 N 
HETATM   28  C   UNL     1      35.290 -17.441  20.624  1.00  0.00     0.313 C 
HETATM   29  O   UNL     1      34.336 -16.664  20.379  1.00  0.00    -0.248 OA
HETATM   30  N   UNL     1      35.716 -18.315  19.699  1.00  0.00    -0.352 N 
ATOM     31  HN2 UNL     1      35.237 -18.351  18.799  1.00  0.00     0.160 HD
ATOM     32  HN1 UNL     1      36.492 -18.947  19.899  1.00  0.00     0.160 HD
ATOM     33  HN  UNL     1      35.691 -16.617  22.440  1.00  0.00     0.164 HD
ENDBRANCH  26  27
ENDBRANCH   7  26
TORSDOF 7
ENDMDL
MODEL 3
REMARK VINA RESULT:      -6.9      2.386      6.750
REMARK  7 active torsions:
REMARK  status: ('A' for Active; 'I' for Inactive)
REMARK    1  A    between atoms: C_1  and  N_16 
REMARK    2  A    between atoms: C_1  and  C_30 
REMARK    3  A    between atoms: C_2  and  C_8 
REMARK    4  A    between atoms: C_3  and  O_22 
REMARK    5  A    between atoms: C_4  and  O_5 
REMARK    6  A    between atoms: O_13  and  C_24 
REMARK       I    between atoms: C_15  and  N_16 
REMARK       I    between atoms: C_15  and  N_19 
REMARK    7  A    between atoms: O_22  and  P_23 
ROOT
HETATM    1  C   UNL     1      39.696 -16.984  26.028  1.00  0.00     0.422 C 
HETATM    2  C   UNL     1      38.384 -18.385  27.480  1.00  0.00     0.323 C 
HETATM    3  C   UNL     1      37.301 -17.310  27.556  1.00  0.00     0.096 C 
HETATM    4  N   UNL     1      39.073 -18.292  26.206  1.00  0.00    -0.016 N 
ATOM      5  HN1 UNL     1      39.750 -19.047  26.091  1.00  0.00     0.283 HD
ATOM      6  HN2 UNL     1      38.451 -18.518  25.429  1.00  0.00     0.283 HD
HETATM    7  C   UNL     1      37.983 -15.958  27.368  1.00  0.00     0.210 C 
HETATM    8  N   UNL     1      38.667 -15.936  26.056  1.00  0.00    -0.036 N 
ATOM      9  HN1 UNL     1      38.013 -16.015  25.278  1.00  0.00     0.280 HD
ATOM     10  HN2 UNL     1      39.047 -15.015  25.834  1.00  0.00     0.280 HD
ENDROOT
BRANCH   1  11
HETATM   11  C   UNL     1      40.565 -16.898  24.809  1.00  0.00     0.036 C 
HETATM   12  C   UNL     1      40.095 -17.235  23.523  1.00  0.00     0.093 C 
HETATM   13  C   UNL     1      41.000 -17.748  22.592  1.00  0.00     0.041 C 
HETATM   14  C   UNL     1      42.359 -17.467  22.761  1.00  0.00     0.039 C 
HETATM   15  C   UNL     1      42.777 -16.698  23.860  1.00  0.00     0.066 C 
HETATM   16  C   UNL     1      41.889 -16.458  24.912  1.00  0.00     0.050 C 
BRANCH  12  17
HETATM   17  O   UNL     1      38.766 -17.017  23.226  1.00  0.00    -0.239 OA
BRANCH  17  18
HETATM   18  P   UNL     1      37.626 -18.158  23.190  1.00  0.00     0.427 P 
HETATM   19  O   UNL     1      38.236 -19.483  23.543  1.00  0.00    -0.617 OA
HETATM   20  O   UNL     1      36.616 -17.773  24.236  1.00  0.00    -0.617 OA
HETATM   21  O   UNL     1      37.114 -18.152  21.786  1.00  0.00    -0.617 OA
ENDBRANCH  17  18
ENDBRANCH  12  17
BRANCH  15  22
HETATM   22  O   UNL     1      43.995 -16.101  23.886  1.00  0.00    -0.361 OA
ATOM     23  HO  UNL     1      44.606 -16.277  23.179  1.00  0.00     0.217 HD
ENDBRANCH  15  22
ENDBRANCH   1  11
BRANCH   2  24
HETATM   24  O   UNL     1      37.831 -19.655  27.685  1.00  0.00    -0.370 OA
ATOM     25  HO  UNL     1      36.977 -19.584  28.094  1.00  0.00     0.212 HD
ENDBRANCH   2  24
BRANCH   7  26
HETATM   26  C   UNL     1      36.983 -14.803  27.407  1.00  0.00     0.157 C 
BRANCH  26  27
HETATM   27  N   UNL     1      36.022 -14.936  28.494  1.00  0.00    -0.341 N 
HETATM   28  C   UNL     1      35.182 -13.969  28.945  1.00  0.00     0.313 C 
HETATM   29  O   UNL     1      34.281 -14.243  29.773  1.00  0.00    -0.248 OA
HETATM   30  N   UNL     1      35.351 -12.711  28.508  1.00  0.00    -0.352 N 
ATOM     31  HN2 UNL     1      34.720 -11.985  28.846  1.00  0.00     0.160 HD
ATOM     32  HN1 UNL     1      36.084 -12.489  27.834  1.00  0.00     0.160 HD
ATOM     33  HN  UNL     1      35.975 -15.842  28.961  1.00  0.00     0.164 HD
ENDBRANCH  26  27
ENDBRANCH   7  26
TORSDOF 7
ENDMDL
MODEL 4
REMARK VINA RESULT:      -6.9      3.141      6.733
REMARK  7 active torsions:
REMARK  status: ('A' for Active; 'I' for Inactive)
REMARK    1  A    between atoms: C_1  and  N_16 
REMARK    2  A    between atoms: C_1  and  C_30 
REMARK    3  A    between atoms: C_2  and  C_8 
REMARK    4  A    between atoms: C_3  and  O_22 
REMARK    5  A    between atoms: C_4  and  O_5 
REMARK    6  A    between atoms: O_13  and  C_24 
REMARK       I    between atoms: C_15  and  N_16 
REMARK       I    between atoms: C_15  and  N_19 
REMARK    7  A    between atoms: O_22  and  P_23 
ROOT
HETATM    1  C   UNL     1      38.021 -17.670  25.100  1.00  0.00     0.422 C 
HETATM    2  C   UNL     1      37.532 -18.723  27.207  1.00  0.00     0.323 C 
HETATM    3  C   UNL     1      37.067 -17.385  27.779  1.00  0.00     0.096 C 
HETATM    4  N   UNL     1      37.301 -18.745  25.774  1.00  0.00    -0.016 N 
ATOM      5  HN1 UNL     1      37.528 -19.656  25.373  1.00  0.00     0.283 HD
ATOM      6  HN2 UNL     1      36.304 -18.721  25.557  1.00  0.00     0.283 HD
HETATM    7  C   UNL     1      37.836 -16.284  27.056  1.00  0.00     0.210 C 
HETATM    8  N   UNL     1      37.561 -16.369  25.605  1.00  0.00    -0.036 N 
ATOM      9  HN1 UNL     1      36.579 -16.196  25.387  1.00  0.00     0.280 HD
ATOM     10  HN2 UNL     1      37.964 -15.588  25.088  1.00  0.00     0.280 HD
ENDROOT
BRANCH   1  11
HETATM   11  C   UNL     1      37.957 -17.756  23.603  1.00  0.00     0.036 C 
HETATM   12  C   UNL     1      39.024 -17.345  22.778  1.00  0.00     0.093 C 
HETATM   13  C   UNL     1      38.733 -16.846  21.507  1.00  0.00     0.041 C 
HETATM   14  C   UNL     1      37.521 -17.208  20.912  1.00  0.00     0.039 C 
HETATM   15  C   UNL     1      36.628 -18.041  21.607  1.00  0.00     0.066 C 
HETATM   16  C   UNL     1      36.820 -18.272  22.972  1.00  0.00     0.050 C 
BRANCH  12  17
HETATM   17  O   UNL     1      40.313 -17.478  23.248  1.00  0.00    -0.239 OA
BRANCH  17  18
HETATM   18  P   UNL     1      41.275 -16.254  23.672  1.00  0.00     0.427 P 
HETATM   19  O   UNL     1      42.254 -16.726  24.708  1.00  0.00    -0.617 OA
HETATM   20  O   UNL     1      42.015 -15.853  22.426  1.00  0.00    -0.617 OA
HETATM   21  O   UNL     1      40.359 -15.213  24.226  1.00  0.00    -0.617 OA
ENDBRANCH  17  18
ENDBRANCH  12  17
BRANCH  15  22
HETATM   22  O   UNL     1      35.632 -18.704  20.967  1.00  0.00    -0.361 OA
ATOM     23  HO  UNL     1      35.780 -19.004  20.077  1.00  0.00     0.217 HD
ENDBRANCH  15  22
ENDBRANCH   1  11
BRANCH   2  24
HETATM   24  O   UNL     1      36.891 -19.785  27.857  1.00  0.00    -0.370 OA
ATOM     25  HO  UNL     1      36.215 -20.155  27.303  1.00  0.00     0.212 HD
ENDBRANCH   2  24
BRANCH   7  26
HETATM   26  C   UNL     1      37.433 -14.892  27.540  1.00  0.00     0.157 C 
BRANCH  26  27
HETATM   27  N   UNL     1      36.392 -14.936  28.557  1.00  0.00    -0.341 N 
HETATM   28  C   UNL     1      35.455 -13.981  28.788  1.00  0.00     0.313 C 
HETATM   29  O   UNL     1      34.504 -14.198  29.578  1.00  0.00    -0.248 OA
HETATM   30  N   UNL     1      35.580 -12.791  28.178  1.00  0.00    -0.352 N 
ATOM     31  HN2 UNL     1      34.877 -12.074  28.352  1.00  0.00     0.160 HD
ATOM     32  HN1 UNL     1      36.354 -12.615  27.537  1.00  0.00     0.160 HD
ATOM     33  HN  UNL     1      36.362 -15.764  29.152  1.00  0.00     0.164 HD
ENDBRANCH  26  27
ENDBRANCH   7  26
TORSDOF 7
ENDMDL
MODEL 5
REMARK VINA RESULT:      -6.8      3.833      6.594
REMARK  7 active torsions:
REMARK  status: ('A' for Active; 'I' for Inactive)
REMARK    1  A    between atoms: C_1  and  N_16 
REMARK    2  A    between atoms: C_1  and  C_30 
REMARK    3  A    between atoms: C_2  and  C_8 
REMARK    4  A    between atoms: C_3  and  O_22 
REMARK    5  A    between atoms: C_4  and  O_5 
REMARK    6  A    between atoms: O_13  and  C_24 
REMARK       I    between atoms: C_15  and  N_16 
REMARK       I    between atoms: C_15  and  N_19 
REMARK    7  A    between atoms: O_22  and  P_23 
ROOT
HETATM    1  C   UNL     1      37.358 -18.380  24.788  1.00  0.00     0.422 C 
HETATM    2  C   UNL     1      37.375 -18.916  27.134  1.00  0.00     0.323 C 
HETATM    3  C   UNL     1      37.228 -17.436  27.484  1.00  0.00     0.096 C 
HETATM    4  N   UNL     1      36.750 -19.176  25.849  1.00  0.00    -0.016 N 
ATOM      5  HN1 UNL     1      36.761 -20.171  25.623  1.00  0.00     0.283 HD
ATOM      6  HN2 UNL     1      35.740 -19.035  25.891  1.00  0.00     0.283 HD
HETATM    7  C   UNL     1      37.872 -16.632  26.358  1.00  0.00     0.210 C 
HETATM    8  N   UNL     1      37.193 -16.950  25.082  1.00  0.00    -0.036 N 
ATOM      9  HN1 UNL     1      36.213 -16.667  25.085  1.00  0.00     0.280 HD
ATOM     10  HN2 UNL     1      37.513 -16.358  24.316  1.00  0.00     0.280 HD
ENDROOT
BRANCH   1  11
HETATM   11  C   UNL     1      36.868 -18.741  23.417  1.00  0.00     0.036 C 
HETATM   12  C   UNL     1      37.286 -19.911  22.751  1.00  0.00     0.093 C 
HETATM   13  C   UNL     1      37.349 -19.901  21.356  1.00  0.00     0.041 C 
HETATM   14  C   UNL     1      36.569 -18.972  20.662  1.00  0.00     0.039 C 
HETATM   15  C   UNL     1      35.763 -18.070  21.376  1.00  0.00     0.066 C 
HETATM   16  C   UNL     1      35.952 -17.918  22.753  1.00  0.00     0.050 C 
BRANCH  12  17
HETATM   17  O   UNL     1      37.587 -21.027  23.501  1.00  0.00    -0.239 OA
BRANCH  17  18
HETATM   18  P   UNL     1      36.532 -22.174  23.921  1.00  0.00     0.427 P 
HETATM   19  O   UNL     1      36.398 -22.204  25.416  1.00  0.00    -0.617 OA
HETATM   20  O   UNL     1      35.218 -21.779  23.305  1.00  0.00    -0.617 OA
HETATM   21  O   UNL     1      37.115 -23.448  23.402  1.00  0.00    -0.617 OA
ENDBRANCH  17  18
ENDBRANCH  12  17
BRANCH  15  22
HETATM   22  O   UNL     1      34.739 -17.407  20.781  1.00  0.00    -0.361 OA
ATOM     23  HO  UNL     1      33.848 -17.673  20.975  1.00  0.00     0.217 HD
ENDBRANCH  15  22
ENDBRANCH   1  11
BRANCH   2  24
HETATM   24  O   UNL     1      36.837 -19.716  28.149  1.00  0.00    -0.370 OA
ATOM     25  HO  UNL     1      35.910 -19.864  28.002  1.00  0.00     0.212 HD
ENDBRANCH   2  24
BRANCH   7  26
HETATM   26  C   UNL     1      37.766 -15.127  26.597  1.00  0.00     0.157 C 
BRANCH  26  27
HETATM   27  N   UNL     1      36.836 -14.798  27.669  1.00  0.00    -0.341 N 
HETATM   28  C   UNL     1      36.153 -13.632  27.809  1.00  0.00     0.313 C 
HETATM   29  O   UNL     1      35.254 -13.521  28.676  1.00  0.00    -0.248 OA
HETATM   30  N   UNL     1      36.478 -12.595  27.022  1.00  0.00    -0.352 N 
ATOM     31  HN2 UNL     1      35.965 -11.719  27.127  1.00  0.00     0.160 HD
ATOM     32  HN1 UNL     1      37.209 -12.686  26.317  1.00  0.00     0.160 HD
ATOM     33  HN  UNL     1      36.682 -15.511  28.382  1.00  0.00     0.164 HD
ENDBRANCH  26  27
ENDBRANCH   7  26
TORSDOF 7
ENDMDL
MODEL 6
REMARK VINA RESULT:      -6.8      2.778      4.544
REMARK  7 active torsions:
REMARK  status: ('A' for Active; 'I' for Inactive)
REMARK    1  A    between atoms: C_1  and  N_16 
REMARK    2  A    between atoms: C_1  and  C_30 
REMARK    3  A    between atoms: C_2  and  C_8 
REMARK    4  A    between atoms: C_3  and  O_22 
REMARK    5  A    between atoms: C_4  and  O_5 
REMARK    6  A    between atoms: O_13  and  C_24 
REMARK       I    between atoms: C_15  and  N_16 
REMARK       I    between atoms: C_15  and  N_19 
REMARK    7  A    between atoms: O_22  and  P_23 
ROOT
HETATM    1  C   UNL     1      38.367 -17.336  25.073  1.00  0.00     0.422 C 
HETATM    2  C   UNL     1      38.932 -16.621  22.846  1.00  0.00     0.323 C 
HETATM    3  C   UNL     1      38.114 -17.770  22.259  1.00  0.00     0.096 C 
HETATM    4  N   UNL     1      38.368 -16.227  24.124  1.00  0.00    -0.016 N 
ATOM      5  HN1 UNL     1      38.844 -15.409  24.507  1.00  0.00     0.283 HD
ATOM      6  HN2 UNL     1      37.436 -15.828  24.013  1.00  0.00     0.283 HD
HETATM    7  C   UNL     1      38.132 -18.911  23.271  1.00  0.00     0.210 C 
HETATM    8  N   UNL     1      37.551 -18.438  24.547  1.00  0.00    -0.036 N 
ATOM      9  HN1 UNL     1      36.568 -18.181  24.453  1.00  0.00     0.280 HD
ATOM     10  HN2 UNL     1      37.438 -19.194  25.224  1.00  0.00     0.280 HD
ENDROOT
BRANCH   1  11
HETATM   11  C   UNL     1      37.958 -16.934  26.459  1.00  0.00     0.036 C 
HETATM   12  C   UNL     1      37.970 -17.839  27.541  1.00  0.00     0.093 C 
HETATM   13  C   UNL     1      37.045 -17.663  28.571  1.00  0.00     0.041 C 
HETATM   14  C   UNL     1      36.495 -16.391  28.762  1.00  0.00     0.039 C 
HETATM   15  C   UNL     1      36.870 -15.339  27.911  1.00  0.00     0.066 C 
HETATM   16  C   UNL     1      37.560 -15.620  26.728  1.00  0.00     0.050 C 
BRANCH  12  17
HETATM   17  O   UNL     1      38.914 -18.844  27.552  1.00  0.00    -0.239 OA
BRANCH  17  18
HETATM   18  P   UNL     1      38.629 -20.386  27.170  1.00  0.00     0.427 P 
HETATM   19  O   UNL     1      39.085 -21.269  28.294  1.00  0.00    -0.617 OA
HETATM   20  O   UNL     1      37.140 -20.508  27.005  1.00  0.00    -0.617 OA
HETATM   21  O   UNL     1      39.424 -20.632  25.929  1.00  0.00    -0.617 OA
ENDBRANCH  17  18
ENDBRANCH  12  17
BRANCH  15  22
HETATM   22  O   UNL     1      36.662 -14.042  28.252  1.00  0.00    -0.361 OA
ATOM     23  HO  UNL     1      37.399 -13.442  28.236  1.00  0.00     0.217 HD
ENDBRANCH  15  22
ENDBRANCH   1  11
BRANCH   2  24
HETATM   24  O   UNL     1      38.991 -15.549  21.947  1.00  0.00    -0.370 OA
ATOM     25  HO  UNL     1      38.809 -14.730  22.392  1.00  0.00     0.212 HD
ENDBRANCH   2  24
BRANCH   7  26
HETATM   26  C   UNL     1      37.322 -20.114  22.791  1.00  0.00     0.157 C 
BRANCH  26  27
HETATM   27  N   UNL     1      37.026 -21.051  23.866  1.00  0.00    -0.341 N 
HETATM   28  C   UNL     1      35.892 -21.785  24.000  1.00  0.00     0.313 C 
HETATM   29  O   UNL     1      35.813 -22.683  24.873  1.00  0.00    -0.248 OA
HETATM   30  N   UNL     1      34.848 -21.515  23.201  1.00  0.00    -0.352 N 
ATOM     31  HN2 UNL     1      33.996 -22.066  23.302  1.00  0.00     0.160 HD
ATOM     32  HN1 UNL     1      34.912 -20.784  22.491  1.00  0.00     0.160 HD
ATOM     33  HN  UNL     1      37.738 -21.167  24.587  1.00  0.00     0.164 HD
ENDBRANCH  26  27
ENDBRANCH   7  26
TORSDOF 7
ENDMDL
MODEL 7
REMARK VINA RESULT:      -6.6      1.266      1.538
REMARK  7 active torsions:
REMARK  status: ('A' for Active; 'I' for Inactive)
REMARK    1  A    between atoms: C_1  and  N_16 
REMARK    2  A    between atoms: C_1  and  C_30 
REMARK    3  A    between atoms: C_2  and  C_8 
REMARK    4  A    between atoms: C_3  and  O_22 
REMARK    5  A    between atoms: C_4  and  O_5 
REMARK    6  A    between atoms: O_13  and  C_24 
REMARK       I    between atoms: C_15  and  N_16 
REMARK       I    between atoms: C_15  and  N_19 
REMARK    7  A    between atoms: O_22  and  P_23 
ROOT
HETATM    1  C   UNL     1      37.752 -16.702  25.105  1.00  0.00     0.422 C 
HETATM    2  C   UNL     1      37.252 -18.327  23.403  1.00  0.00     0.323 C 
HETATM    3  C   UNL     1      38.710 -18.315  22.948  1.00  0.00     0.096 C 
HETATM    4  N   UNL     1      37.181 -18.015  24.819  1.00  0.00    -0.016 N 
ATOM      5  HN1 UNL     1      36.227 -18.092  25.172  1.00  0.00     0.283 HD
ATOM      6  HN2 UNL     1      37.618 -18.744  25.383  1.00  0.00     0.283 HD
HETATM    7  C   UNL     1      39.277 -16.933  23.260  1.00  0.00     0.210 C 
HETATM    8  N   UNL     1      39.168 -16.679  24.714  1.00  0.00    -0.036 N 
ATOM      9  HN1 UNL     1      39.731 -17.329  25.263  1.00  0.00     0.280 HD
ATOM     10  HN2 UNL     1      39.632 -15.814  24.991  1.00  0.00     0.280 HD
ENDROOT
BRANCH   1  11
HETATM   11  C   UNL     1      37.545 -16.259  26.524  1.00  0.00     0.036 C 
HETATM   12  C   UNL     1      37.934 -17.050  27.625  1.00  0.00     0.093 C 
HETATM   13  C   UNL     1      37.206 -16.950  28.811  1.00  0.00     0.041 C 
HETATM   14  C   UNL     1      36.471 -15.784  29.044  1.00  0.00     0.039 C 
HETATM   15  C   UNL     1      36.470 -14.760  28.083  1.00  0.00     0.066 C 
HETATM   16  C   UNL     1      36.962 -15.018  26.800  1.00  0.00     0.050 C 
BRANCH  12  17
HETATM   17  O   UNL     1      39.037 -17.867  27.495  1.00  0.00    -0.239 OA
BRANCH  17  18
HETATM   18  P   UNL     1      38.985 -19.471  27.328  1.00  0.00     0.427 P 
HETATM   19  O   UNL     1      37.565 -19.940  27.453  1.00  0.00    -0.617 OA
HETATM   20  O   UNL     1      39.492 -19.764  25.943  1.00  0.00    -0.617 OA
HETATM   21  O   UNL     1      39.833 -20.005  28.436  1.00  0.00    -0.617 OA
ENDBRANCH  17  18
ENDBRANCH  12  17
BRANCH  15  22
HETATM   22  O   UNL     1      36.087 -13.495  28.392  1.00  0.00    -0.361 OA
ATOM     23  HO  UNL     1      35.347 -13.116  27.931  1.00  0.00     0.217 HD
ENDBRANCH  15  22
ENDBRANCH   1  11
BRANCH   2  24
HETATM   24  O   UNL     1      36.655 -19.560  23.109  1.00  0.00    -0.370 OA
ATOM     25  HO  UNL     1      36.762 -19.771  22.189  1.00  0.00     0.212 HD
ENDBRANCH   2  24
BRANCH   7  26
HETATM   26  C   UNL     1      40.746 -16.814  22.861  1.00  0.00     0.157 C 
BRANCH  26  27
HETATM   27  N   UNL     1      41.585 -16.349  23.957  1.00  0.00    -0.341 N 
HETATM   28  C   UNL     1      42.828 -16.801  24.263  1.00  0.00     0.313 C 
HETATM   29  O   UNL     1      43.526 -16.213  25.124  1.00  0.00    -0.248 OA
HETATM   30  N   UNL     1      43.286 -17.903  23.647  1.00  0.00    -0.352 N 
ATOM     31  HN2 UNL     1      44.219 -18.242  23.878  1.00  0.00     0.160 HD
ATOM     32  HN1 UNL     1      42.718 -18.380  22.947  1.00  0.00     0.160 HD
ATOM     33  HN  UNL     1      41.203 -15.613  24.551  1.00  0.00     0.164 HD
ENDBRANCH  26  27
ENDBRANCH   7  26
TORSDOF 7
ENDMDL
MODEL 8
REMARK VINA RESULT:      -6.3      2.082      2.640
REMARK  7 active torsions:
REMARK  status: ('A' for Active; 'I' for Inactive)
REMARK    1  A    between atoms: C_1  and  N_16 
REMARK    2  A    between atoms: C_1  and  C_30 
REMARK    3  A    between atoms: C_2  and  C_8 
REMARK    4  A    between atoms: C_3  and  O_22 
REMARK    5  A    between atoms: C_4  and  O_5 
REMARK    6  A    between atoms: O_13  and  C_24 
REMARK       I    between atoms: C_15  and  N_16 
REMARK       I    between atoms: C_15  and  N_19 
REMARK    7  A    between atoms: O_22  and  P_23 
ROOT
HETATM    1  C   UNL     1      37.513 -17.401  24.876  1.00  0.00     0.422 C 
HETATM    2  C   UNL     1      36.511 -18.875  23.259  1.00  0.00     0.323 C 
HETATM    3  C   UNL     1      37.894 -19.248  22.727  1.00  0.00     0.096 C 
HETATM    4  N   UNL     1      36.610 -18.528  24.666  1.00  0.00    -0.016 N 
ATOM      5  HN1 UNL     1      35.691 -18.350  25.072  1.00  0.00     0.283 HD
ATOM      6  HN2 UNL     1      36.879 -19.334  25.230  1.00  0.00     0.283 HD
HETATM    7  C   UNL     1      38.813 -18.053  22.960  1.00  0.00     0.210 C 
HETATM    8  N   UNL     1      38.862 -17.751  24.408  1.00  0.00    -0.036 N 
ATOM      9  HN1 UNL     1      39.272 -18.513  24.948  1.00  0.00     0.280 HD
ATOM     10  HN2 UNL     1      39.548 -17.030  24.630  1.00  0.00     0.280 HD
ENDROOT
BRANCH   1  11
HETATM   11  C   UNL     1      37.514 -16.892  26.287  1.00  0.00     0.036 C 
HETATM   12  C   UNL     1      37.828 -17.718  27.386  1.00  0.00     0.093 C 
HETATM   13  C   UNL     1      37.232 -17.447  28.619  1.00  0.00     0.041 C 
HETATM   14  C   UNL     1      36.762 -16.152  28.860  1.00  0.00     0.039 C 
HETATM   15  C   UNL     1      36.885 -15.172  27.862  1.00  0.00     0.066 C 
HETATM   16  C   UNL     1      37.212 -15.554  26.557  1.00  0.00     0.050 C 
BRANCH  12  17
HETATM   17  O   UNL     1      38.733 -18.742  27.206  1.00  0.00    -0.239 OA
BRANCH  17  18
HETATM   18  P   UNL     1      38.347 -20.298  27.022  1.00  0.00     0.427 P 
HETATM   19  O   UNL     1      38.952 -21.097  28.140  1.00  0.00    -0.617 OA
HETATM   20  O   UNL     1      36.847 -20.369  27.105  1.00  0.00    -0.617 OA
HETATM   21  O   UNL     1      38.926 -20.689  25.701  1.00  0.00    -0.617 OA
ENDBRANCH  17  18
ENDBRANCH  12  17
BRANCH  15  22
HETATM   22  O   UNL     1      36.786 -13.849  28.149  1.00  0.00    -0.361 OA
ATOM     23  HO  UNL     1      37.324 -13.492  28.846  1.00  0.00     0.217 HD
ENDBRANCH  15  22
ENDBRANCH   1  11
BRANCH   2  24
HETATM   24  O   UNL     1      35.603 -19.918  23.041  1.00  0.00    -0.370 OA
ATOM     25  HO  UNL     1      34.794 -19.584  22.670  1.00  0.00     0.212 HD
ENDBRANCH   2  24
BRANCH   7  26
HETATM   26  C   UNL     1      40.237 -18.325  22.478  1.00  0.00     0.157 C 
BRANCH  26  27
HETATM   27  N   UNL     1      40.721 -17.297  21.566  1.00  0.00    -0.341 N 
HETATM   28  C   UNL     1      41.683 -16.376  21.834  1.00  0.00     0.313 C 
HETATM   29  O   UNL     1      42.139 -15.647  20.921  1.00  0.00    -0.248 OA
HETATM   30  N   UNL     1      42.115 -16.241  23.098  1.00  0.00    -0.352 N 
ATOM     31  HN2 UNL     1      42.837 -15.549  23.298  1.00  0.00     0.160 HD
ATOM     32  HN1 UNL     1      41.744 -16.834  23.840  1.00  0.00     0.160 HD
ATOM     33  HN  UNL     1      40.299 -17.266  20.638  1.00  0.00     0.164 HD
ENDBRANCH  26  27
ENDBRANCH   7  26
TORSDOF 7
ENDMDL
MODEL 9
REMARK VINA RESULT:      -6.3      3.720      5.633
REMARK  7 active torsions:
REMARK  status: ('A' for Active; 'I' for Inactive)
REMARK    1  A    between atoms: C_1  and  N_16 
REMARK    2  A    between atoms: C_1  and  C_30 
REMARK    3  A    between atoms: C_2  and  C_8 
REMARK    4  A    between atoms: C_3  and  O_22 
REMARK    5  A    between atoms: C_4  and  O_5 
REMARK    6  A    between atoms: O_13  and  C_24 
REMARK       I    between atoms: C_15  and  N_16 
REMARK       I    between atoms: C_15  and  N_19 
REMARK    7  A    between atoms: O_22  and  P_23 
ROOT
HETATM    1  C   UNL     1      37.432 -18.242  24.775  1.00  0.00     0.422 C 
HETATM    2  C   UNL     1      36.658 -18.187  22.497  1.00  0.00     0.323 C 
HETATM    3  C   UNL     1      35.985 -19.546  22.682  1.00  0.00     0.096 C 
HETATM    4  N   UNL     1      36.694 -17.486  23.768  1.00  0.00    -0.016 N 
ATOM      5  HN1 UNL     1      37.067 -16.542  23.663  1.00  0.00     0.283 HD
ATOM      6  HN2 UNL     1      35.755 -17.250  24.090  1.00  0.00     0.283 HD
HETATM    7  C   UNL     1      36.777 -20.311  23.738  1.00  0.00     0.210 C 
HETATM    8  N   UNL     1      36.778 -19.539  25.000  1.00  0.00    -0.036 N 
ATOM      9  HN1 UNL     1      35.842 -19.437  25.392  1.00  0.00     0.280 HD
ATOM     10  HN2 UNL     1      37.202 -20.057  25.770  1.00  0.00     0.280 HD
ENDROOT
BRANCH   1  11
HETATM   11  C   UNL     1      37.648 -17.483  26.051  1.00  0.00     0.036 C 
HETATM   12  C   UNL     1      38.338 -18.036  27.149  1.00  0.00     0.093 C 
HETATM   13  C   UNL     1      37.987 -17.625  28.436  1.00  0.00     0.041 C 
HETATM   14  C   UNL     1      37.356 -16.387  28.590  1.00  0.00     0.039 C 
HETATM   15  C   UNL     1      37.079 -15.603  27.457  1.00  0.00     0.066 C 
HETATM   16  C   UNL     1      37.176 -16.173  26.184  1.00  0.00     0.050 C 
BRANCH  12  17
HETATM   17  O   UNL     1      39.351 -18.938  26.907  1.00  0.00    -0.239 OA
BRANCH  17  18
HETATM   18  P   UNL     1      39.357 -20.477  27.393  1.00  0.00     0.427 P 
HETATM   19  O   UNL     1      40.078 -21.317  26.379  1.00  0.00    -0.617 OA
HETATM   20  O   UNL     1      40.108 -20.503  28.695  1.00  0.00    -0.617 OA
HETATM   21  O   UNL     1      37.915 -20.860  27.487  1.00  0.00    -0.617 OA
ENDBRANCH  17  18
ENDBRANCH  12  17
BRANCH  15  22
HETATM   22  O   UNL     1      36.808 -14.278  27.559  1.00  0.00    -0.361 OA
ATOM     23  HO  UNL     1      37.436 -13.715  27.998  1.00  0.00     0.217 HD
ENDBRANCH  15  22
ENDBRANCH   1  11
BRANCH   2  24
HETATM   24  O   UNL     1      36.001 -17.444  21.508  1.00  0.00    -0.370 OA
ATOM     25  HO  UNL     1      36.485 -16.651  21.311  1.00  0.00     0.212 HD
ENDBRANCH   2  24
BRANCH   7  26
HETATM   26  C   UNL     1      36.177 -21.688  24.018  1.00  0.00     0.157 C 
BRANCH  26  27
HETATM   27  N   UNL     1      34.994 -21.953  23.210  1.00  0.00    -0.341 N 
HETATM   28  C   UNL     1      34.364 -23.149  23.080  1.00  0.00     0.313 C 
HETATM   29  O   UNL     1      33.259 -23.227  22.492  1.00  0.00    -0.248 OA
HETATM   30  N   UNL     1      34.959 -24.250  23.567  1.00  0.00    -0.352 N 
ATOM     31  HN2 UNL     1      34.486 -25.148  23.469  1.00  0.00     0.160 HD
ATOM     32  HN1 UNL     1      35.858 -24.187  24.045  1.00  0.00     0.160 HD
ATOM     33  HN  UNL     1      34.601 -21.167  22.693  1.00  0.00     0.164 HD
ENDBRANCH  26  27
ENDBRANCH   7  26
TORSDOF 7
ENDMDL
