REMARK  8 active torsions:
REMARK  status: ('A' for Active; 'I' for Inactive)
REMARK    1  A    between atoms: C_1  and  O_21 
REMARK    2  A    between atoms: O_2  and  C_20 
REMARK    3  A    between atoms: C_4  and  O_11 
REMARK    4  A    between atoms: C_4  and  O_18 
REMARK    5  A    between atoms: C_5  and  O_8 
REMARK    6  A    between atoms: O_6  and  C_17 
REMARK    7  A    between atoms: C_10  and  O_15 
REMARK    8  A    between atoms: O_13  and  C_20 
ROOT
HETATM    1  C   UNL     1      33.371  35.285  52.863  1.00  0.00     0.217 C 
HETATM    2  C   UNL     1      32.328  34.496  53.638  1.00  0.00     0.218 C 
HETATM    3  C   UNL     1      34.809  34.927  53.225  1.00  0.00     0.217 C 
HETATM    4  C   UNL     1      34.148  32.867  54.257  1.00  0.00     0.217 C 
HETATM    5  C   UNL     1      32.678  33.045  53.959  1.00  0.00     0.217 C 
HETATM    6  C   UNL     1      34.988  33.401  53.097  1.00  0.00     0.218 C 
ENDROOT
BRANCH   2   7
HETATM    7  O   UNL     1      32.084  35.082  54.897  1.00  0.00    -0.361 OA
ATOM      8  HO  UNL     1      31.432  34.589  55.381  1.00  0.00     0.213 HD
ENDBRANCH   2   7
BRANCH   2   9
HETATM    9  O   UNL     1      31.147  34.542  52.877  1.00  0.00    -0.361 OA
ATOM     10  HO  UNL     1      30.495  34.049  53.361  1.00  0.00     0.213 HD
ENDBRANCH   2   9
BRANCH   1  11
HETATM   11  O   UNL     1      33.195  36.676  53.081  1.00  0.00    -0.387 OA
ATOM     12  HO  UNL     1      33.847  37.169  52.597  1.00  0.00     0.210 HD
ENDBRANCH   1  11
BRANCH   5  13
HETATM   13  O   UNL     1      32.245  32.220  52.896  1.00  0.00    -0.387 OA
ATOM     14  HO  UNL     1      32.463  31.317  53.096  1.00  0.00     0.210 HD
ENDBRANCH   5  13
BRANCH   3  15
HETATM   15  O   UNL     1      35.711  35.602  52.369  1.00  0.00    -0.387 OA
ATOM     16  HO  UNL     1      36.607  35.379  52.594  1.00  0.00     0.210 HD
ENDBRANCH   3  15
BRANCH   4  17
HETATM   17  O   UNL     1      34.483  31.529  54.582  1.00  0.00    -0.387 OA
ATOM     18  HO  UNL     1      35.408  31.417  54.769  1.00  0.00     0.210 HD
ENDBRANCH   4  17
BRANCH   6  19
HETATM   19  O   UNL     1      34.554  32.991  51.816  1.00  0.00    -0.361 OA
ATOM     20  HO  UNL     1      34.664  32.051  51.737  1.00  0.00     0.213 HD
ENDBRANCH   6  19
BRANCH   6  21
HETATM   21  O   UNL     1      36.346  33.028  53.263  1.00  0.00    -0.361 OA
ATOM     22  HO  UNL     1      36.638  33.304  54.124  1.00  0.00     0.213 HD
ENDBRANCH   6  21
TORSDOF 8
