MODEL 1
REMARK VINA RESULT:      -8.4      0.000      0.000
REMARK  8 active torsions:
REMARK  status: ('A' for Active; 'I' for Inactive)
REMARK    1  A    between atoms: C_1  and  O_21 
REMARK    2  A    between atoms: O_2  and  C_20 
REMARK    3  A    between atoms: C_4  and  O_11 
REMARK    4  A    between atoms: C_4  and  O_18 
REMARK    5  A    between atoms: C_5  and  O_8 
REMARK    6  A    between atoms: O_6  and  C_17 
REMARK    7  A    between atoms: C_10  and  O_15 
REMARK    8  A    between atoms: O_13  and  C_20 
ROOT
HETATM    1  C   UNL     1      33.981  35.880  52.604  1.00  0.00     0.217 C 
HETATM    2  C   UNL     1      32.684  35.559  53.329  1.00  0.00     0.218 C 
HETATM    3  C   UNL     1      35.152  34.993  53.013  1.00  0.00     0.217 C 
HETATM    4  C   UNL     1      33.704  33.352  53.991  1.00  0.00     0.217 C 
HETATM    5  C   UNL     1      32.431  34.086  53.642  1.00  0.00     0.217 C 
HETATM    6  C   UNL     1      34.730  33.517  52.870  1.00  0.00     0.218 C 
ENDROOT
BRANCH   2   7
HETATM    7  O   UNL     1      32.638  36.195  54.586  1.00  0.00    -0.361 OA
ATOM      8  HO  UNL     1      33.489  36.542  54.823  1.00  0.00     0.213 HD
ENDBRANCH   2   7
BRANCH   2   9
HETATM    9  O   UNL     1      31.644  36.059  52.526  1.00  0.00    -0.361 OA
ATOM     10  HO  UNL     1      31.455  35.388  51.881  1.00  0.00     0.213 HD
ENDBRANCH   2   9
BRANCH   1  11
HETATM   11  O   UNL     1      34.350  37.231  52.835  1.00  0.00    -0.387 OA
ATOM     12  HO  UNL     1      33.621  37.808  52.642  1.00  0.00     0.210 HD
ENDBRANCH   1  11
BRANCH   5  13
HETATM   13  O   UNL     1      31.754  33.493  52.552  1.00  0.00    -0.387 OA
ATOM     14  HO  UNL     1      32.080  33.869  51.743  1.00  0.00     0.210 HD
ENDBRANCH   5  13
BRANCH   3  15
HETATM   15  O   UNL     1      36.278  35.264  52.200  1.00  0.00    -0.387 OA
ATOM     16  HO  UNL     1      37.032  35.469  52.741  1.00  0.00     0.210 HD
ENDBRANCH   3  15
BRANCH   4  17
HETATM   17  O   UNL     1      33.481  31.989  54.308  1.00  0.00    -0.387 OA
ATOM     18  HO  UNL     1      32.579  31.723  54.173  1.00  0.00     0.210 HD
ENDBRANCH   4  17
BRANCH   6  19
HETATM   19  O   UNL     1      34.222  33.306  51.568  1.00  0.00    -0.361 OA
ATOM     20  HO  UNL     1      34.109  34.146  51.139  1.00  0.00     0.213 HD
ENDBRANCH   6  19
BRANCH   6  21
HETATM   21  O   UNL     1      35.830  32.646  53.080  1.00  0.00    -0.361 OA
ATOM     22  HO  UNL     1      35.503  31.761  53.199  1.00  0.00     0.213 HD
ENDBRANCH   6  21
TORSDOF 8
ENDMDL
MODEL 2
REMARK VINA RESULT:      -7.4      0.890      3.424
REMARK  8 active torsions:
REMARK  status: ('A' for Active; 'I' for Inactive)
REMARK    1  A    between atoms: C_1  and  O_21 
REMARK    2  A    between atoms: O_2  and  C_20 
REMARK    3  A    between atoms: C_4  and  O_11 
REMARK    4  A    between atoms: C_4  and  O_18 
REMARK    5  A    between atoms: C_5  and  O_8 
REMARK    6  A    between atoms: O_6  and  C_17 
REMARK    7  A    between atoms: C_10  and  O_15 
REMARK    8  A    between atoms: O_13  and  C_20 
ROOT
HETATM    1  C   UNL     1      35.440  34.522  53.379  1.00  0.00     0.217 C 
HETATM    2  C   UNL     1      35.053  33.052  53.353  1.00  0.00     0.218 C 
HETATM    3  C   UNL     1      34.482  35.425  52.609  1.00  0.00     0.217 C 
HETATM    4  C   UNL     1      32.757  33.761  52.594  1.00  0.00     0.217 C 
HETATM    5  C   UNL     1      33.557  32.746  53.376  1.00  0.00     0.217 C 
HETATM    6  C   UNL     1      33.047  35.170  53.111  1.00  0.00     0.218 C 
ENDROOT
BRANCH   2   7
HETATM    7  O   UNL     1      35.518  32.428  52.178  1.00  0.00    -0.361 OA
ATOM      8  HO  UNL     1      34.816  31.962  51.739  1.00  0.00     0.213 HD
ENDBRANCH   2   7
BRANCH   2   9
HETATM    9  O   UNL     1      35.675  32.456  54.464  1.00  0.00    -0.361 OA
ATOM     10  HO  UNL     1      36.549  32.826  54.513  1.00  0.00     0.213 HD
ENDBRANCH   2   9
BRANCH   1  11
HETATM   11  O   UNL     1      36.740  34.696  52.838  1.00  0.00    -0.387 OA
ATOM     12  HO  UNL     1      36.818  34.230  52.014  1.00  0.00     0.210 HD
ENDBRANCH   1  11
BRANCH   5  13
HETATM   13  O   UNL     1      33.127  32.646  54.718  1.00  0.00    -0.387 OA
ATOM     14  HO  UNL     1      33.119  31.731  54.974  1.00  0.00     0.210 HD
ENDBRANCH   5  13
BRANCH   3  15
HETATM   15  O   UNL     1      34.834  36.783  52.795  1.00  0.00    -0.387 OA
ATOM     16  HO  UNL     1      35.747  36.854  53.050  1.00  0.00     0.210 HD
ENDBRANCH   3  15
BRANCH   4  17
HETATM   17  O   UNL     1      31.369  33.475  52.584  1.00  0.00    -0.387 OA
ATOM     18  HO  UNL     1      30.931  33.756  53.380  1.00  0.00     0.210 HD
ENDBRANCH   4  17
BRANCH   6  19
HETATM   19  O   UNL     1      33.020  35.300  54.518  1.00  0.00    -0.361 OA
ATOM     20  HO  UNL     1      33.575  34.631  54.902  1.00  0.00     0.213 HD
ENDBRANCH   6  19
BRANCH   6  21
HETATM   21  O   UNL     1      32.133  36.096  52.547  1.00  0.00    -0.361 OA
ATOM     22  HO  UNL     1      31.535  36.390  53.224  1.00  0.00     0.213 HD
ENDBRANCH   6  21
TORSDOF 8
ENDMDL
MODEL 3
REMARK VINA RESULT:      -6.2      1.009      3.444
REMARK  8 active torsions:
REMARK  status: ('A' for Active; 'I' for Inactive)
REMARK    1  A    between atoms: C_1  and  O_21 
REMARK    2  A    between atoms: O_2  and  C_20 
REMARK    3  A    between atoms: C_4  and  O_11 
REMARK    4  A    between atoms: C_4  and  O_18 
REMARK    5  A    between atoms: C_5  and  O_8 
REMARK    6  A    between atoms: O_6  and  C_17 
REMARK    7  A    between atoms: C_10  and  O_15 
REMARK    8  A    between atoms: O_13  and  C_20 
ROOT
HETATM    1  C   UNL     1      34.502  34.032  53.545  1.00  0.00     0.217 C 
HETATM    2  C   UNL     1      33.114  33.425  53.680  1.00  0.00     0.218 C 
HETATM    3  C   UNL     1      34.577  35.181  52.545  1.00  0.00     0.217 C 
HETATM    4  C   UNL     1      32.200  35.487  52.556  1.00  0.00     0.217 C 
HETATM    5  C   UNL     1      31.939  34.393  53.564  1.00  0.00     0.217 C 
HETATM    6  C   UNL     1      33.496  36.221  52.901  1.00  0.00     0.218 C 
ENDROOT
BRANCH   2   7
HETATM    7  O   UNL     1      32.880  32.470  52.669  1.00  0.00    -0.361 OA
ATOM      8  HO  UNL     1      32.326  32.828  51.985  1.00  0.00     0.213 HD
ENDBRANCH   2   7
BRANCH   2   9
HETATM    9  O   UNL     1      33.079  32.784  54.930  1.00  0.00    -0.361 OA
ATOM     10  HO  UNL     1      32.430  32.094  54.861  1.00  0.00     0.213 HD
ENDBRANCH   2   9
BRANCH   1  11
HETATM   11  O   UNL     1      35.434  33.039  53.147  1.00  0.00    -0.387 OA
ATOM     12  HO  UNL     1      35.323  32.836  52.225  1.00  0.00     0.210 HD
ENDBRANCH   1  11
BRANCH   5  13
HETATM   13  O   UNL     1      31.637  34.908  54.845  1.00  0.00    -0.387 OA
ATOM     14  HO  UNL     1      32.103  34.401  55.500  1.00  0.00     0.210 HD
ENDBRANCH   5  13
BRANCH   3  15
HETATM   15  O   UNL     1      35.861  35.775  52.579  1.00  0.00    -0.387 OA
ATOM     16  HO  UNL     1      36.529  35.108  52.692  1.00  0.00     0.210 HD
ENDBRANCH   3  15
BRANCH   4  17
HETATM   17  O   UNL     1      31.107  36.378  52.419  1.00  0.00    -0.387 OA
ATOM     18  HO  UNL     1      31.314  37.134  51.881  1.00  0.00     0.210 HD
ENDBRANCH   4  17
BRANCH   6  19
HETATM   19  O   UNL     1      33.628  36.578  54.262  1.00  0.00    -0.361 OA
ATOM     20  HO  UNL     1      34.488  36.316  54.569  1.00  0.00     0.213 HD
ENDBRANCH   6  19
BRANCH   6  21
HETATM   21  O   UNL     1      33.625  37.388  52.106  1.00  0.00    -0.361 OA
ATOM     22  HO  UNL     1      32.905  37.976  52.303  1.00  0.00     0.213 HD
ENDBRANCH   6  21
TORSDOF 8
ENDMDL
MODEL 4
REMARK VINA RESULT:      -5.9      1.048      2.188
REMARK  8 active torsions:
REMARK  status: ('A' for Active; 'I' for Inactive)
REMARK    1  A    between atoms: C_1  and  O_21 
REMARK    2  A    between atoms: O_2  and  C_20 
REMARK    3  A    between atoms: C_4  and  O_11 
REMARK    4  A    between atoms: C_4  and  O_18 
REMARK    5  A    between atoms: C_5  and  O_8 
REMARK    6  A    between atoms: O_6  and  C_17 
REMARK    7  A    between atoms: C_10  and  O_15 
REMARK    8  A    between atoms: O_13  and  C_20 
ROOT
HETATM    1  C   UNL     1      33.104  35.538  52.588  1.00  0.00     0.217 C 
HETATM    2  C   UNL     1      32.806  34.122  53.054  1.00  0.00     0.218 C 
HETATM    3  C   UNL     1      34.474  36.053  53.020  1.00  0.00     0.217 C 
HETATM    4  C   UNL     1      35.269  33.843  53.502  1.00  0.00     0.217 C 
HETATM    5  C   UNL     1      33.988  33.158  53.089  1.00  0.00     0.217 C 
HETATM    6  C   UNL     1      35.547  35.035  52.585  1.00  0.00     0.218 C 
ENDROOT
BRANCH   2   7
HETATM    7  O   UNL     1      32.314  34.118  54.375  1.00  0.00    -0.361 OA
ATOM      8  HO  UNL     1      32.667  33.387  54.868  1.00  0.00     0.213 HD
ENDBRANCH   2   7
BRANCH   2   9
HETATM    9  O   UNL     1      31.811  33.622  52.196  1.00  0.00    -0.361 OA
ATOM     10  HO  UNL     1      31.166  34.312  52.099  1.00  0.00     0.213 HD
ENDBRANCH   2   9
BRANCH   1  11
HETATM   11  O   UNL     1      32.121  36.434  53.082  1.00  0.00    -0.387 OA
ATOM     12  HO  UNL     1      31.761  36.109  53.898  1.00  0.00     0.210 HD
ENDBRANCH   1  11
BRANCH   5  13
HETATM   13  O   UNL     1      34.104  32.523  51.832  1.00  0.00    -0.387 OA
ATOM     14  HO  UNL     1      34.898  32.822  51.405  1.00  0.00     0.210 HD
ENDBRANCH   5  13
BRANCH   3  15
HETATM   15  O   UNL     1      34.728  37.316  52.435  1.00  0.00    -0.387 OA
ATOM     16  HO  UNL     1      34.226  37.414  51.634  1.00  0.00     0.210 HD
ENDBRANCH   3  15
BRANCH   4  17
HETATM   17  O   UNL     1      36.371  32.955  53.564  1.00  0.00    -0.387 OA
ATOM     18  HO  UNL     1      36.130  32.092  53.880  1.00  0.00     0.210 HD
ENDBRANCH   4  17
BRANCH   6  19
HETATM   19  O   UNL     1      35.396  34.766  51.205  1.00  0.00    -0.361 OA
ATOM     20  HO  UNL     1      34.477  34.618  51.017  1.00  0.00     0.213 HD
ENDBRANCH   6  19
BRANCH   6  21
HETATM   21  O   UNL     1      36.853  35.536  52.814  1.00  0.00    -0.361 OA
ATOM     22  HO  UNL     1      37.470  34.815  52.779  1.00  0.00     0.213 HD
ENDBRANCH   6  21
TORSDOF 8
ENDMDL
MODEL 5
REMARK VINA RESULT:      -5.8      1.016      2.226
REMARK  8 active torsions:
REMARK  status: ('A' for Active; 'I' for Inactive)
REMARK    1  A    between atoms: C_1  and  O_21 
REMARK    2  A    between atoms: O_2  and  C_20 
REMARK    3  A    between atoms: C_4  and  O_11 
REMARK    4  A    between atoms: C_4  and  O_18 
REMARK    5  A    between atoms: C_5  and  O_8 
REMARK    6  A    between atoms: O_6  and  C_17 
REMARK    7  A    between atoms: C_10  and  O_15 
REMARK    8  A    between atoms: O_13  and  C_20 
ROOT
HETATM    1  C   UNL     1      34.785  35.136  52.106  1.00  0.00     0.217 C 
HETATM    2  C   UNL     1      34.025  36.291  52.739  1.00  0.00     0.218 C 
HETATM    3  C   UNL     1      34.634  33.816  52.855  1.00  0.00     0.217 C 
HETATM    4  C   UNL     1      32.704  34.591  54.047  1.00  0.00     0.217 C 
HETATM    5  C   UNL     1      32.685  35.948  53.384  1.00  0.00     0.217 C 
HETATM    6  C   UNL     1      33.132  33.521  53.043  1.00  0.00     0.218 C 
ENDROOT
BRANCH   2   7
HETATM    7  O   UNL     1      34.773  36.876  53.782  1.00  0.00    -0.361 OA
ATOM      8  HO  UNL     1      35.072  36.218  54.397  1.00  0.00     0.213 HD
ENDBRANCH   2   7
BRANCH   2   9
HETATM    9  O   UNL     1      33.833  37.245  51.725  1.00  0.00    -0.361 OA
ATOM     10  HO  UNL     1      33.156  37.835  52.034  1.00  0.00     0.213 HD
ENDBRANCH   2   9
BRANCH   1  11
HETATM   11  O   UNL     1      36.168  35.443  52.028  1.00  0.00    -0.387 OA
ATOM     12  HO  UNL     1      36.331  36.044  51.311  1.00  0.00     0.210 HD
ENDBRANCH   1  11
BRANCH   5  13
HETATM   13  O   UNL     1      31.665  36.052  52.410  1.00  0.00    -0.387 OA
ATOM     14  HO  UNL     1      32.031  36.423  51.616  1.00  0.00     0.210 HD
ENDBRANCH   5  13
BRANCH   3  15
HETATM   15  O   UNL     1      35.254  32.770  52.131  1.00  0.00    -0.387 OA
ATOM     16  HO  UNL     1      35.739  33.123  51.394  1.00  0.00     0.210 HD
ENDBRANCH   3  15
BRANCH   4  17
HETATM   17  O   UNL     1      31.474  34.269  54.672  1.00  0.00    -0.387 OA
ATOM     18  HO  UNL     1      31.370  34.691  55.517  1.00  0.00     0.210 HD
ENDBRANCH   4  17
BRANCH   6  19
HETATM   19  O   UNL     1      32.486  33.596  51.788  1.00  0.00    -0.361 OA
ATOM     20  HO  UNL     1      31.693  34.111  51.878  1.00  0.00     0.213 HD
ENDBRANCH   6  19
BRANCH   6  21
HETATM   21  O   UNL     1      32.928  32.228  53.588  1.00  0.00    -0.361 OA
ATOM     22  HO  UNL     1      33.643  32.027  54.181  1.00  0.00     0.213 HD
ENDBRANCH   6  21
TORSDOF 8
ENDMDL
MODEL 6
REMARK VINA RESULT:      -5.8      1.161      4.165
REMARK  8 active torsions:
REMARK  status: ('A' for Active; 'I' for Inactive)
REMARK    1  A    between atoms: C_1  and  O_21 
REMARK    2  A    between atoms: O_2  and  C_20 
REMARK    3  A    between atoms: C_4  and  O_11 
REMARK    4  A    between atoms: C_4  and  O_18 
REMARK    5  A    between atoms: C_5  and  O_8 
REMARK    6  A    between atoms: O_6  and  C_17 
REMARK    7  A    between atoms: C_10  and  O_15 
REMARK    8  A    between atoms: O_13  and  C_20 
ROOT
HETATM    1  C   UNL     1      33.964  32.666  53.737  1.00  0.00     0.217 C 
HETATM    2  C   UNL     1      35.335  32.955  53.148  1.00  0.00     0.218 C 
HETATM    3  C   UNL     1      33.320  33.869  54.418  1.00  0.00     0.217 C 
HETATM    4  C   UNL     1      34.800  35.410  53.331  1.00  0.00     0.217 C 
HETATM    5  C   UNL     1      35.537  34.346  52.552  1.00  0.00     0.217 C 
HETATM    6  C   UNL     1      33.317  35.055  53.433  1.00  0.00     0.218 C 
ENDROOT
BRANCH   2   7
HETATM    7  O   UNL     1      36.340  32.848  54.131  1.00  0.00    -0.361 OA
ATOM      8  HO  UNL     1      37.049  33.457  53.960  1.00  0.00     0.213 HD
ENDBRANCH   2   7
BRANCH   2   9
HETATM    9  O   UNL     1      35.558  31.979  52.160  1.00  0.00    -0.361 OA
ATOM     10  HO  UNL     1      35.297  32.368  51.334  1.00  0.00     0.213 HD
ENDBRANCH   2   9
BRANCH   1  11
HETATM   11  O   UNL     1      34.050  31.615  54.687  1.00  0.00    -0.387 OA
ATOM     12  HO  UNL     1      33.181  31.367  54.980  1.00  0.00     0.210 HD
ENDBRANCH   1  11
BRANCH   5  13
HETATM   13  O   UNL     1      35.159  34.324  51.190  1.00  0.00    -0.387 OA
ATOM     14  HO  UNL     1      35.613  33.611  50.755  1.00  0.00     0.210 HD
ENDBRANCH   5  13
BRANCH   3  15
HETATM   15  O   UNL     1      31.999  33.557  54.817  1.00  0.00    -0.387 OA
ATOM     16  HO  UNL     1      31.378  34.116  54.364  1.00  0.00     0.210 HD
ENDBRANCH   3  15
BRANCH   4  17
HETATM   17  O   UNL     1      34.999  36.711  52.804  1.00  0.00    -0.387 OA
ATOM     18  HO  UNL     1      35.217  36.703  51.879  1.00  0.00     0.210 HD
ENDBRANCH   4  17
BRANCH   6  19
HETATM   19  O   UNL     1      32.723  34.644  52.218  1.00  0.00    -0.361 OA
ATOM     20  HO  UNL     1      33.339  34.784  51.508  1.00  0.00     0.213 HD
ENDBRANCH   6  19
BRANCH   6  21
HETATM   21  O   UNL     1      32.585  36.153  53.953  1.00  0.00    -0.361 OA
ATOM     22  HO  UNL     1      32.886  36.950  53.533  1.00  0.00     0.213 HD
ENDBRANCH   6  21
TORSDOF 8
ENDMDL
MODEL 7
REMARK VINA RESULT:      -5.8      1.031      3.098
REMARK  8 active torsions:
REMARK  status: ('A' for Active; 'I' for Inactive)
REMARK    1  A    between atoms: C_1  and  O_21 
REMARK    2  A    between atoms: O_2  and  C_20 
REMARK    3  A    between atoms: C_4  and  O_11 
REMARK    4  A    between atoms: C_4  and  O_18 
REMARK    5  A    between atoms: C_5  and  O_8 
REMARK    6  A    between atoms: O_6  and  C_17 
REMARK    7  A    between atoms: C_10  and  O_15 
REMARK    8  A    between atoms: O_13  and  C_20 
ROOT
HETATM    1  C   UNL     1      32.703  34.288  54.090  1.00  0.00     0.217 C 
HETATM    2  C   UNL     1      32.844  35.555  53.263  1.00  0.00     0.218 C 
HETATM    3  C   UNL     1      33.328  33.056  53.443  1.00  0.00     0.217 C 
HETATM    4  C   UNL     1      34.635  34.383  51.933  1.00  0.00     0.217 C 
HETATM    5  C   UNL     1      34.140  35.705  52.470  1.00  0.00     0.217 C 
HETATM    6  C   UNL     1      34.791  33.377  53.074  1.00  0.00     0.218 C 
ENDROOT
BRANCH   2   7
HETATM    7  O   UNL     1      31.829  35.638  52.288  1.00  0.00    -0.361 OA
ATOM      8  HO  UNL     1      31.018  35.955  52.668  1.00  0.00     0.213 HD
ENDBRANCH   2   7
BRANCH   2   9
HETATM    9  O   UNL     1      32.707  36.632  54.156  1.00  0.00    -0.361 OA
ATOM     10  HO  UNL     1      32.013  36.395  54.759  1.00  0.00     0.213 HD
ENDBRANCH   2   9
BRANCH   1  11
HETATM   11  O   UNL     1      31.333  34.011  54.333  1.00  0.00    -0.387 OA
ATOM     12  HO  UNL     1      31.037  33.304  53.771  1.00  0.00     0.210 HD
ENDBRANCH   1  11
BRANCH   5  13
HETATM   13  O   UNL     1      35.105  36.347  53.280  1.00  0.00    -0.387 OA
ATOM     14  HO  UNL     1      34.724  36.528  54.131  1.00  0.00     0.210 HD
ENDBRANCH   5  13
BRANCH   3  15
HETATM   15  O   UNL     1      33.275  31.957  54.331  1.00  0.00    -0.387 OA
ATOM     16  HO  UNL     1      32.537  31.397  54.117  1.00  0.00     0.210 HD
ENDBRANCH   3  15
BRANCH   4  17
HETATM   17  O   UNL     1      35.824  34.511  51.173  1.00  0.00    -0.387 OA
ATOM     18  HO  UNL     1      35.661  34.785  50.278  1.00  0.00     0.210 HD
ENDBRANCH   4  17
BRANCH   6  19
HETATM   19  O   UNL     1      35.456  33.878  54.216  1.00  0.00    -0.361 OA
ATOM     20  HO  UNL     1      35.854  33.155  54.685  1.00  0.00     0.213 HD
ENDBRANCH   6  19
BRANCH   6  21
HETATM   21  O   UNL     1      35.471  32.220  52.617  1.00  0.00    -0.361 OA
ATOM     22  HO  UNL     1      36.387  32.433  52.486  1.00  0.00     0.213 HD
ENDBRANCH   6  21
TORSDOF 8
ENDMDL
MODEL 8
REMARK VINA RESULT:      -5.7      1.421      3.369
REMARK  8 active torsions:
REMARK  status: ('A' for Active; 'I' for Inactive)
REMARK    1  A    between atoms: C_1  and  O_21 
REMARK    2  A    between atoms: O_2  and  C_20 
REMARK    3  A    between atoms: C_4  and  O_11 
REMARK    4  A    between atoms: C_4  and  O_18 
REMARK    5  A    between atoms: C_5  and  O_8 
REMARK    6  A    between atoms: O_6  and  C_17 
REMARK    7  A    between atoms: C_10  and  O_15 
REMARK    8  A    between atoms: O_13  and  C_20 
ROOT
HETATM    1  C   UNL     1      35.562  33.130  52.935  1.00  0.00     0.217 C 
HETATM    2  C   UNL     1      35.405  34.568  52.468  1.00  0.00     0.218 C 
HETATM    3  C   UNL     1      34.862  32.832  54.257  1.00  0.00     0.217 C 
HETATM    4  C   UNL     1      33.501  34.798  54.101  1.00  0.00     0.217 C 
HETATM    5  C   UNL     1      34.066  35.235  52.771  1.00  0.00     0.217 C 
HETATM    6  C   UNL     1      33.389  33.275  54.150  1.00  0.00     0.218 C 
ENDROOT
BRANCH   2   7
HETATM    7  O   UNL     1      36.359  35.406  53.082  1.00  0.00    -0.361 OA
ATOM      8  HO  UNL     1      37.184  35.384  52.612  1.00  0.00     0.213 HD
ENDBRANCH   2   7
BRANCH   2   9
HETATM    9  O   UNL     1      35.630  34.563  51.080  1.00  0.00    -0.361 OA
ATOM     10  HO  UNL     1      36.570  34.623  50.959  1.00  0.00     0.213 HD
ENDBRANCH   2   9
BRANCH   1  11
HETATM   11  O   UNL     1      36.937  32.810  53.082  1.00  0.00    -0.387 OA
ATOM     12  HO  UNL     1      37.468  33.392  52.553  1.00  0.00     0.210 HD
ENDBRANCH   1  11
BRANCH   5  13
HETATM   13  O   UNL     1      33.174  34.985  51.703  1.00  0.00    -0.387 OA
ATOM     14  HO  UNL     1      33.009  34.051  51.650  1.00  0.00     0.210 HD
ENDBRANCH   5  13
BRANCH   3  15
HETATM   15  O   UNL     1      34.941  31.450  54.551  1.00  0.00    -0.387 OA
ATOM     16  HO  UNL     1      35.823  31.220  54.818  1.00  0.00     0.210 HD
ENDBRANCH   3  15
BRANCH   4  17
HETATM   17  O   UNL     1      32.270  35.430  54.408  1.00  0.00    -0.387 OA
ATOM     18  HO  UNL     1      32.153  36.251  53.944  1.00  0.00     0.210 HD
ENDBRANCH   4  17
BRANCH   6  19
HETATM   19  O   UNL     1      32.813  32.688  53.001  1.00  0.00    -0.361 OA
ATOM     20  HO  UNL     1      33.500  32.299  52.473  1.00  0.00     0.213 HD
ENDBRANCH   6  19
BRANCH   6  21
HETATM   21  O   UNL     1      32.649  32.874  55.291  1.00  0.00    -0.361 OA
ATOM     22  HO  UNL     1      33.203  32.336  55.844  1.00  0.00     0.213 HD
ENDBRANCH   6  21
TORSDOF 8
ENDMDL
