REMARK  2 active torsions:
REMARK  status: ('A' for Active; 'I' for Inactive)
REMARK    1  A    between atoms: C_3  and  O_34 
REMARK    2  A    between atoms: C_7  and  O_40 
ROOT
HETATM    1  C   UNL     1      25.222  62.377  18.966  1.00  0.00     0.095 C 
HETATM    2  C   UNL     1      23.610  60.710  19.824  1.00  0.00    -0.003 C 
HETATM    3  C   UNL     1      17.554  63.315  22.894  1.00  0.00     0.135 C 
HETATM    4  O   UNL     1      20.776  59.411  25.553  1.00  0.00    -0.260 OA
HETATM    5  N   UNL     1      19.920  61.699  23.075  1.00  0.00     0.157 N 
HETATM    6  O   UNL     1      18.961  60.105  24.295  1.00  0.00    -0.281 OA
HETATM    7  C   UNL     1      24.162  60.972  22.181  1.00  0.00     0.151 C 
HETATM    8  C   UNL     1      25.623  61.975  20.378  1.00  0.00     0.033 C 
HETATM    9  N   UNL     1      25.026  63.834  18.818  1.00  0.00    -0.305 N 
HETATM   10  C   UNL     1      21.227  67.743  21.687  1.00  0.00     0.089 C 
HETATM   11  C   UNL     1      25.836  64.743  19.438  1.00  0.00     0.096 C 
HETATM   12  C   UNL     1      24.090  64.290  17.896  1.00  0.00     0.327 C 
HETATM   13  C   UNL     1      20.047  63.137  22.673  1.00  0.00     0.295 C 
HETATM   14  O   UNL     1      17.633  65.399  20.936  1.00  0.00    -0.292 OA
HETATM   15  C   UNL     1      22.664  61.211  22.048  1.00  0.00     0.154 C 
HETATM   16  C   UNL     1      18.744  63.556  21.939  1.00  0.00     0.118 C 
HETATM   17  C   UNL     1      25.492  66.046  19.667  1.00  0.00     0.020 C 
HETATM   18  O   UNL     1      21.813  60.329  22.805  1.00  0.00    -0.342 OA
HETATM   19  N   UNL     1      22.972  64.966  18.340  1.00  0.00    -0.306 N 
ATOM     20  HN  UNL     1      22.058  64.688  17.984  1.00  0.00     0.171 HD
HETATM   21  C   UNL     1      20.721  65.608  20.063  1.00  0.00     0.047 C 
HETATM   22  C   UNL     1      21.060  61.068  23.801  1.00  0.00     0.463 C 
HETATM   23  C   UNL     1      20.305  59.998  24.597  1.00  0.00     0.321 C 
HETATM   24  C   UNL     1      24.247  66.620  19.519  1.00  0.00     0.033 C 
HETATM   25  C   UNL     1      22.313  61.054  20.554  1.00  0.00     0.039 C 
HETATM   26  N   UNL     1      21.858  67.655  20.505  1.00  0.00    -0.364 N 
ATOM     27  HN  UNL     1      22.319  68.456  20.073  1.00  0.00     0.165 HD
HETATM   28  C   UNL     1      23.042  65.999  19.243  1.00  0.00     0.063 C 
HETATM   29  C   UNL     1      17.529  61.837  23.291  1.00  0.00     0.097 C 
HETATM   30  C   UNL     1      18.683  64.971  21.362  1.00  0.00     0.168 C 
HETATM   31  C   UNL     1      24.762  60.785  20.790  1.00  0.00     0.023 C 
HETATM   32  C   UNL     1      21.841  66.431  19.924  1.00  0.00     0.060 C 
HETATM   33  O   UNL     1      24.256  64.035  16.704  1.00  0.00    -0.246 OA
HETATM   34  C   UNL     1      20.225  66.850  22.066  1.00  0.00     0.032 C 
HETATM   35  C   UNL     1      18.822  61.534  24.054  1.00  0.00     0.373 C 
HETATM   36  C   UNL     1      23.963  61.584  18.632  1.00  0.00     0.031 C 
HETATM   37  C   UNL     1      19.900  65.829  21.169  1.00  0.00     0.014 C 
ENDROOT
BRANCH   3  38
HETATM   38  O   UNL     1      16.329  63.675  22.281  1.00  0.00    -0.395 OA
ATOM     39  HO  UNL     1      15.597  63.527  22.868  1.00  0.00     0.210 HD
ENDBRANCH   3  38
BRANCH   7  40
HETATM   40  O   UNL     1      24.429  59.829  22.994  1.00  0.00    -0.393 OA
ATOM     41  HO  UNL     1      25.364  59.680  23.077  1.00  0.00     0.210 HD
ENDBRANCH   7  40
TORSDOF 2
