REMARK  4 active torsions:
REMARK  status: ('A' for Active; 'I' for Inactive)
REMARK    1  A    between atoms: N_3  and  C_5 
REMARK    2  A    between atoms: C_4  and  C_5 
REMARK    3  A    between atoms: C_20  and  O_28 
REMARK    4  A    between atoms: C_23  and  O_28 
ROOT
HETATM    1  C   UNL     1      10.658  12.606  18.266  1.00  0.00     0.169 C 
ENDROOT
BRANCH   1   2
HETATM    2  N   UNL     1      10.656  13.568  19.384  1.00  0.00    -0.333 N 
HETATM    3  C   UNL     1      11.518  14.665  19.376  1.00  0.00     0.093 C 
HETATM    4  C   UNL     1      11.338  15.695  20.307  1.00  0.00     0.017 C 
HETATM    5  C   UNL     1      10.360  15.573  21.313  1.00  0.00     0.006 C 
HETATM    6  C   UNL     1       9.681  14.356  21.460  1.00  0.00     0.057 C 
HETATM    7  C   UNL     1       9.910  13.339  20.531  1.00  0.00     0.150 C 
BRANCH   7   8
HETATM    8  O   UNL     1       9.388  12.067  20.713  1.00  0.00    -0.294 OA
BRANCH   8   9
HETATM    9  C   UNL     1       9.396  11.300  21.869  1.00  0.00     0.077 C 
HETATM   10  C   UNL     1       8.449  11.558  22.880  1.00  0.00     0.037 C 
HETATM   11  C   UNL     1       8.248  10.894  24.081  1.00  0.00     0.003 C 
HETATM   12  C   UNL     1       8.908   9.897  24.809  1.00  0.00     0.000 C 
HETATM   13  C   UNL     1       9.853   9.056  24.204  1.00  0.00     0.000 C 
HETATM   14  C   UNL     1      10.487   9.335  23.007  1.00  0.00     0.003 C 
HETATM   15  C   UNL     1      10.280  10.200  21.950  1.00  0.00     0.037 C 
ENDBRANCH   8   9
ENDBRANCH   7   8
ENDBRANCH   1   2
BRANCH   1  16
HETATM   16  C   UNL     1       9.566  12.638  17.214  1.00  0.00    -0.038 C 
HETATM   17  C   UNL     1       9.724  13.481  16.109  1.00  0.00     0.009 C 
HETATM   18  C   UNL     1       8.900  13.350  14.979  1.00  0.00     0.010 C 
HETATM   19  C   UNL     1       7.962  12.330  14.932  1.00  0.00    -0.029 C 
HETATM   20  C   UNL     1       7.734  11.513  16.077  1.00  0.00     0.046 C 
HETATM   21  C   UNL     1       7.154  11.848  13.749  1.00  0.00     0.068 C 
HETATM   22  N   UNL     1       6.788  10.518  15.671  1.00  0.00    -0.293 N 
HETATM   23  C   UNL     1       8.492  11.717  17.248  1.00  0.00     0.039 C 
HETATM   24  C   UNL     1       6.284   9.279  16.089  1.00  0.00     0.323 C 
HETATM   25  C   UNL     1       6.135  10.918  14.389  1.00  0.00     0.117 C 
HETATM   26  N   UNL     1       5.617   8.759  15.013  1.00  0.00    -0.341 N 
HETATM   27  O   UNL     1       6.499   8.683  17.118  1.00  0.00    -0.247 OA
HETATM   28  C   UNL     1       5.875   9.540  13.789  1.00  0.00     0.150 C 
ATOM     29  HN  UNL     1       5.017   7.935  15.053  1.00  0.00     0.164 HD
ENDBRANCH   1  16
TORSDOF 4
