REMARK  1 active torsions:
REMARK  status: ('A' for Active; 'I' for Inactive)
REMARK    1  A    between atoms: C_5  and  C_15 
ROOT
HETATM    1  C   UNL     1      13.296  11.266  19.541  1.00  0.00     0.030 C 
HETATM    2  C   UNL     1      13.783  10.202  20.270  1.00  0.00    -0.032 C 
HETATM    3  C   UNL     1      15.332   9.426  18.509  1.00  0.00     0.001 C 
HETATM    4  C   UNL     1      11.741   9.778  23.895  1.00  0.00     0.005 C 
HETATM    5  C   UNL     1      14.405  11.363  17.400  1.00  0.00     0.018 C 
HETATM    6  C   UNL     1      15.101  10.172  17.385  1.00  0.00     0.001 C 
HETATM    7  C   UNL     1      11.211  10.493  22.658  1.00  0.00     0.009 C 
HETATM    8  C   UNL     1      14.941   9.571  19.815  1.00  0.00     0.011 C 
HETATM    9  C   UNL     1      13.085   9.694  21.401  1.00  0.00    -0.065 C 
HETATM   10  C   UNL     1      13.700   9.053  22.633  1.00  0.00     0.040 C 
HETATM   11  C   UNL     1      12.424   8.518  23.335  1.00  0.00    -0.010 C 
HETATM   12  C   UNL     1      14.055  11.951  18.614  1.00  0.00     0.041 C 
HETATM   13  C   UNL     1      11.529   8.168  22.152  1.00  0.00     0.014 C 
HETATM   14  C   UNL     1      11.601   9.556  21.523  1.00  0.00     0.016 C 
ENDROOT
BRANCH  12  15
HETATM   15  C   UNL     1      14.589  13.282  18.976  1.00  0.00     0.209 C 
HETATM   16  O   UNL     1      14.692  13.631  20.165  1.00  0.00    -0.644 OA
HETATM   17  O   UNL     1      14.882  14.001  17.973  1.00  0.00    -0.644 OA
ENDBRANCH  12  15
TORSDOF 1
