REMARK  1 active torsions:
REMARK  status: ('A' for Active; 'I' for Inactive)
REMARK    1  A    between atoms: C_6  and  C_8 
ROOT
HETATM    1  C   UNL     1     -12.352 -10.610  -8.037  1.00  0.00     0.161 C 
HETATM    2  C   UNL     1     -11.606  -9.434  -7.383  1.00  0.00     0.044 C 
HETATM    3  C   UNL     1     -12.598  -8.711  -9.455  1.00  0.00     0.173 C 
HETATM    4  O   UNL     1     -12.556 -10.159  -9.393  1.00  0.00    -0.381 OA
HETATM    5  C   UNL     1     -13.704 -10.888  -7.409  1.00  0.00     0.047 C 
HETATM    6  C   UNL     1     -12.290  -8.215  -8.030  1.00  0.00     0.016 C 
HETATM    7  C   UNL     1     -13.619  -7.842  -7.377  1.00  0.00     0.034 C 
HETATM    8  C   UNL     1     -14.241 -10.086  -6.434  1.00  0.00     0.012 C 
HETATM    9  C   UNL     1     -14.155  -8.714  -6.316  1.00  0.00    -0.025 C 
ENDROOT
BRANCH   5  10
HETATM   10  C   UNL     1     -14.405 -12.121  -7.852  1.00  0.00     0.207 C 
HETATM   11  O   UNL     1     -15.366 -12.034  -8.627  1.00  0.00    -0.644 OA
HETATM   12  O   UNL     1     -13.899 -13.229  -7.488  1.00  0.00    -0.644 OA
ENDBRANCH   5  10
TORSDOF 1
