MODEL 1
REMARK VINA RESULT:      -6.4      0.000      0.000
REMARK  1 active torsions:
REMARK  status: ('A' for Active; 'I' for Inactive)
REMARK    1  A    between atoms: C_4  and  C_9 
ROOT
HETATM    1  C   UNL     1     -10.730  -7.614 -10.131  1.00  0.00     0.010 C 
HETATM    2  C   UNL     1     -11.496  -9.737 -11.106  1.00  0.00     0.005 A 
HETATM    3  C   UNL     1     -12.767  -8.457 -12.791  1.00  0.00     0.019 A 
HETATM    4  C   UNL     1     -11.962  -8.453 -10.443  1.00  0.00    -0.018 A 
HETATM    5  C   UNL     1     -12.017  -9.743 -12.534  1.00  0.00     0.010 A 
HETATM    6  C   UNL     1     -12.790  -7.711 -11.481  1.00  0.00     0.013 A 
ENDROOT
BRANCH   3   7
HETATM    7  C   UNL     1     -12.359  -7.679 -14.012  1.00  0.00    -0.054 A 
HETATM    8  C   UNL     1     -12.868  -8.015 -15.256  1.00  0.00     0.007 A 
HETATM    9  C   UNL     1     -12.555  -7.280 -16.385  1.00  0.00     0.001 A 
HETATM   10  C   UNL     1     -11.844  -6.101 -16.250  1.00  0.00     0.000 A 
HETATM   11  C   UNL     1     -11.346  -5.744 -15.017  1.00  0.00     0.001 A 
HETATM   12  C   UNL     1     -11.559  -6.557 -13.916  1.00  0.00     0.007 A 
ENDBRANCH   3   7
TORSDOF 1
ENDMDL
MODEL 2
REMARK VINA RESULT:      -6.3      6.127      8.834
REMARK  1 active torsions:
REMARK  status: ('A' for Active; 'I' for Inactive)
REMARK    1  A    between atoms: C_4  and  C_9 
ROOT
HETATM    1  C   UNL     1     -13.868 -11.348  -8.037  1.00  0.00     0.010 C 
HETATM    2  C   UNL     1     -11.792 -10.173  -7.439  1.00  0.00     0.005 A 
HETATM    3  C   UNL     1     -13.149  -8.285  -6.609  1.00  0.00     0.019 A 
HETATM    4  C   UNL     1     -13.039 -10.098  -8.301  1.00  0.00    -0.018 A 
HETATM    5  C   UNL     1     -11.856  -9.043  -6.424  1.00  0.00     0.010 A 
HETATM    6  C   UNL     1     -13.828  -8.894  -7.809  1.00  0.00     0.013 A 
ENDROOT
BRANCH   3   7
HETATM    7  C   UNL     1     -13.990  -8.087  -5.377  1.00  0.00    -0.054 A 
HETATM    8  C   UNL     1     -14.297  -6.810  -4.939  1.00  0.00     0.007 A 
HETATM    9  C   UNL     1     -15.115  -6.601  -3.844  1.00  0.00     0.001 A 
HETATM   10  C   UNL     1     -15.761  -7.680  -3.265  1.00  0.00     0.000 A 
HETATM   11  C   UNL     1     -15.479  -8.954  -3.700  1.00  0.00     0.001 A 
HETATM   12  C   UNL     1     -14.559  -9.159  -4.715  1.00  0.00     0.007 A 
ENDBRANCH   3   7
TORSDOF 1
ENDMDL
MODEL 3
REMARK VINA RESULT:      -6.2      1.787      5.259
REMARK  1 active torsions:
REMARK  status: ('A' for Active; 'I' for Inactive)
REMARK    1  A    between atoms: C_4  and  C_9 
ROOT
HETATM    1  C   UNL     1     -12.339  -2.702 -16.180  1.00  0.00     0.010 C 
HETATM    2  C   UNL     1     -11.851  -4.316 -17.971  1.00  0.00     0.005 A 
HETATM    3  C   UNL     1     -11.161  -5.950 -16.254  1.00  0.00     0.019 A 
HETATM    4  C   UNL     1     -11.237  -3.534 -16.823  1.00  0.00    -0.018 A 
HETATM    5  C   UNL     1     -11.775  -5.794 -17.625  1.00  0.00     0.010 A 
HETATM    6  C   UNL     1     -10.768  -4.564 -15.806  1.00  0.00     0.013 A 
ENDROOT
BRANCH   3   7
HETATM    7  C   UNL     1     -11.927  -6.792 -15.271  1.00  0.00    -0.054 A 
HETATM    8  C   UNL     1     -12.786  -7.782 -15.720  1.00  0.00     0.007 A 
HETATM    9  C   UNL     1     -13.457  -8.608 -14.837  1.00  0.00     0.001 A 
HETATM   10  C   UNL     1     -13.153  -8.548 -13.489  1.00  0.00     0.000 A 
HETATM   11  C   UNL     1     -12.288  -7.582 -13.029  1.00  0.00     0.001 A 
HETATM   12  C   UNL     1     -11.720  -6.677 -13.909  1.00  0.00     0.007 A 
ENDBRANCH   3   7
TORSDOF 1
ENDMDL
MODEL 4
REMARK VINA RESULT:      -6.1      1.197      4.912
REMARK  1 active torsions:
REMARK  status: ('A' for Active; 'I' for Inactive)
REMARK    1  A    between atoms: C_4  and  C_9 
ROOT
HETATM    1  C   UNL     1     -12.364  -9.044 -15.437  1.00  0.00     0.010 C 
HETATM    2  C   UNL     1     -11.904  -6.895 -14.333  1.00  0.00     0.005 A 
HETATM    3  C   UNL     1     -12.473  -7.934 -12.167  1.00  0.00     0.019 A 
HETATM    4  C   UNL     1     -12.980  -7.933 -14.597  1.00  0.00    -0.018 A 
HETATM    5  C   UNL     1     -11.620  -6.885 -12.840  1.00  0.00     0.010 A 
HETATM    6  C   UNL     1     -13.355  -8.516 -13.243  1.00  0.00     0.013 A 
ENDROOT
BRANCH   3   7
HETATM    7  C   UNL     1     -11.754  -8.908 -11.274  1.00  0.00    -0.054 A 
HETATM    8  C   UNL     1     -11.622 -10.234 -11.650  1.00  0.00     0.007 A 
HETATM    9  C   UNL     1     -10.916 -11.136 -10.876  1.00  0.00     0.001 A 
HETATM   10  C   UNL     1     -10.202 -10.677  -9.783  1.00  0.00     0.000 A 
HETATM   11  C   UNL     1     -10.310  -9.358  -9.406  1.00  0.00     0.001 A 
HETATM   12  C   UNL     1     -11.123  -8.492 -10.117  1.00  0.00     0.007 A 
ENDBRANCH   3   7
TORSDOF 1
ENDMDL
MODEL 5
REMARK VINA RESULT:      -6.1      1.870      5.342
REMARK  1 active torsions:
REMARK  status: ('A' for Active; 'I' for Inactive)
REMARK    1  A    between atoms: C_4  and  C_9 
ROOT
HETATM    1  C   UNL     1     -12.038  -2.606 -15.409  1.00  0.00     0.010 C 
HETATM    2  C   UNL     1     -11.903  -3.829 -17.538  1.00  0.00     0.005 A 
HETATM    3  C   UNL     1     -11.095  -5.807 -16.302  1.00  0.00     0.019 A 
HETATM    4  C   UNL     1     -11.090  -3.325 -16.359  1.00  0.00    -0.018 A 
HETATM    5  C   UNL     1     -11.878  -5.349 -17.509  1.00  0.00     0.010 A 
HETATM    6  C   UNL     1     -10.555  -4.560 -15.649  1.00  0.00     0.013 A 
ENDROOT
BRANCH   3   7
HETATM    7  C   UNL     1     -11.773  -6.807 -15.406  1.00  0.00    -0.054 A 
HETATM    8  C   UNL     1     -11.610  -6.738 -14.033  1.00  0.00     0.007 A 
HETATM    9  C   UNL     1     -12.268  -7.609 -13.184  1.00  0.00     0.001 A 
HETATM   10  C   UNL     1     -13.223  -8.467 -13.701  1.00  0.00     0.000 A 
HETATM   11  C   UNL     1     -13.409  -8.535 -15.063  1.00  0.00     0.001 A 
HETATM   12  C   UNL     1     -12.651  -7.748 -15.912  1.00  0.00     0.007 A 
ENDBRANCH   3   7
TORSDOF 1
ENDMDL
MODEL 6
REMARK VINA RESULT:      -6.1      5.278      8.489
REMARK  1 active torsions:
REMARK  status: ('A' for Active; 'I' for Inactive)
REMARK    1  A    between atoms: C_4  and  C_9 
ROOT
HETATM    1  C   UNL     1     -11.229  -7.427  -8.294  1.00  0.00     0.010 C 
HETATM    2  C   UNL     1     -12.728  -9.300  -8.835  1.00  0.00     0.005 A 
HETATM    3  C   UNL     1     -13.209  -9.556  -6.427  1.00  0.00     0.019 A 
HETATM    4  C   UNL     1     -11.470  -8.916  -8.078  1.00  0.00    -0.018 A 
HETATM    5  C   UNL     1     -13.778  -9.716  -7.817  1.00  0.00     0.010 A 
HETATM    6  C   UNL     1     -11.772  -9.138  -6.604  1.00  0.00     0.013 A 
ENDROOT
BRANCH   3   7
HETATM    7  C   UNL     1     -14.037  -8.761  -5.454  1.00  0.00    -0.054 A 
HETATM    8  C   UNL     1     -14.642  -9.387  -4.377  1.00  0.00     0.007 A 
HETATM    9  C   UNL     1     -15.359  -8.670  -3.437  1.00  0.00     0.001 A 
HETATM   10  C   UNL     1     -15.348  -7.288  -3.486  1.00  0.00     0.000 A 
HETATM   11  C   UNL     1     -14.736  -6.650  -4.541  1.00  0.00     0.001 A 
HETATM   12  C   UNL     1     -14.130  -7.385  -5.545  1.00  0.00     0.007 A 
ENDBRANCH   3   7
TORSDOF 1
ENDMDL
MODEL 7
REMARK VINA RESULT:      -5.9      1.149      4.602
REMARK  1 active torsions:
REMARK  status: ('A' for Active; 'I' for Inactive)
REMARK    1  A    between atoms: C_4  and  C_9 
ROOT
HETATM    1  C   UNL     1     -11.708  -5.773 -15.573  1.00  0.00     0.010 C 
HETATM    2  C   UNL     1     -13.100  -7.781 -15.300  1.00  0.00     0.005 A 
HETATM    3  C   UNL     1     -11.723  -8.421 -13.354  1.00  0.00     0.019 A 
HETATM    4  C   UNL     1     -11.687  -7.296 -15.567  1.00  0.00    -0.018 A 
HETATM    5  C   UNL     1     -13.106  -8.492 -13.956  1.00  0.00     0.010 A 
HETATM    6  C   UNL     1     -10.847  -7.753 -14.384  1.00  0.00     0.013 A 
ENDROOT
BRANCH   3   7
HETATM    7  C   UNL     1     -11.633  -7.905 -11.944  1.00  0.00    -0.054 A 
HETATM    8  C   UNL     1     -11.993  -8.715 -10.880  1.00  0.00     0.007 A 
HETATM    9  C   UNL     1     -11.865  -8.286  -9.572  1.00  0.00     0.001 A 
HETATM   10  C   UNL     1     -11.228  -7.085  -9.312  1.00  0.00     0.000 A 
HETATM   11  C   UNL     1     -10.849  -6.276 -10.359  1.00  0.00     0.001 A 
HETATM   12  C   UNL     1     -11.099  -6.662 -11.665  1.00  0.00     0.007 A 
ENDBRANCH   3   7
TORSDOF 1
ENDMDL
MODEL 8
REMARK VINA RESULT:      -5.7      1.286      2.292
REMARK  1 active torsions:
REMARK  status: ('A' for Active; 'I' for Inactive)
REMARK    1  A    between atoms: C_4  and  C_9 
ROOT
HETATM    1  C   UNL     1      -9.688  -9.925  -9.420  1.00  0.00     0.010 C 
HETATM    2  C   UNL     1     -12.076  -9.672  -8.890  1.00  0.00     0.005 A 
HETATM    3  C   UNL     1     -12.193  -7.806 -10.502  1.00  0.00     0.019 A 
HETATM    4  C   UNL     1     -10.733  -8.966  -8.864  1.00  0.00    -0.018 A 
HETATM    5  C   UNL     1     -12.972  -8.938  -9.876  1.00  0.00     0.010 A 
HETATM    6  C   UNL     1     -10.849  -7.787  -9.819  1.00  0.00     0.013 A 
ENDROOT
BRANCH   3   7
HETATM    7  C   UNL     1     -12.196  -7.745 -12.005  1.00  0.00    -0.054 A 
HETATM    8  C   UNL     1     -13.033  -8.571 -12.736  1.00  0.00     0.007 A 
HETATM    9  C   UNL     1     -13.096  -8.494 -14.116  1.00  0.00     0.001 A 
HETATM   10  C   UNL     1     -12.426  -7.475 -14.769  1.00  0.00     0.000 A 
HETATM   11  C   UNL     1     -11.603  -6.635 -14.054  1.00  0.00     0.001 A 
HETATM   12  C   UNL     1     -11.449  -6.803 -12.689  1.00  0.00     0.007 A 
ENDBRANCH   3   7
TORSDOF 1
ENDMDL
MODEL 9
REMARK VINA RESULT:      -5.7      2.394      6.081
REMARK  1 active torsions:
REMARK  status: ('A' for Active; 'I' for Inactive)
REMARK    1  A    between atoms: C_4  and  C_9 
ROOT
HETATM    1  C   UNL     1     -11.974  -8.836 -12.786  1.00  0.00     0.010 C 
HETATM    2  C   UNL     1     -11.378  -6.676 -11.775  1.00  0.00     0.005 A 
HETATM    3  C   UNL     1     -11.569  -7.714  -9.544  1.00  0.00     0.019 A 
HETATM    4  C   UNL     1     -12.465  -7.732 -11.859  1.00  0.00    -0.018 A 
HETATM    5  C   UNL     1     -10.855  -6.654 -10.348  1.00  0.00     0.010 A 
HETATM    6  C   UNL     1     -12.604  -8.315 -10.460  1.00  0.00     0.013 A 
ENDROOT
BRANCH   3   7
HETATM    7  C   UNL     1     -10.697  -8.672  -8.778  1.00  0.00    -0.054 A 
HETATM    8  C   UNL     1      -9.989  -9.658  -9.445  1.00  0.00     0.007 A 
HETATM    9  C   UNL     1      -9.136 -10.513  -8.772  1.00  0.00     0.001 A 
HETATM   10  C   UNL     1      -8.868 -10.287  -7.433  1.00  0.00     0.000 A 
HETATM   11  C   UNL     1      -9.550  -9.299  -6.760  1.00  0.00     0.001 A 
HETATM   12  C   UNL     1     -10.497  -8.532  -7.418  1.00  0.00     0.007 A 
ENDBRANCH   3   7
TORSDOF 1
ENDMDL
