REMARK  1 active torsions:
REMARK  status: ('A' for Active; 'I' for Inactive)
REMARK    1  A    between atoms: N_1  and  C_11 
REMARK       I    between atoms: N_1  and  C_12 
ROOT
HETATM    1  C   UNL     1     -13.600  -8.414  -7.353  1.00  0.00    -0.002 C 
HETATM    2  C   UNL     1     -12.606  -7.350  -9.747  1.00  0.00     0.325 C 
HETATM    3  N   UNL     1     -13.618  -8.272  -9.715  1.00  0.00    -0.294 N 
ATOM      4  HN  UNL     1     -14.192  -8.413 -10.547  1.00  0.00     0.172 HD
HETATM    5  C   UNL     1     -12.488  -7.633  -7.329  1.00  0.00     0.103 C 
HETATM    6  O   UNL     1     -12.359  -6.714 -10.769  1.00  0.00    -0.247 OA
HETATM    7  C   UNL     1     -13.876  -9.009  -8.588  1.00  0.00     0.121 C 
HETATM    8  C   UNL     1     -14.594  -8.477  -6.200  1.00  0.00     0.054 C 
HETATM    9  N   UNL     1     -12.125  -6.993  -8.498  1.00  0.00    -0.318 N 
ATOM     10  HN  UNL     1     -11.467  -6.216  -8.438  1.00  0.00     0.170 HD
ENDROOT
BRANCH   7  11
HETATM   11  N   UNL     1     -13.830 -10.393  -8.753  1.00  0.00    -0.286 N 
HETATM   12  C   UNL     1     -14.466 -11.332  -7.981  1.00  0.00     0.289 C 
HETATM   13  O   UNL     1     -15.447 -11.910  -8.518  1.00  0.00    -0.629 OA
HETATM   14  O   UNL     1     -14.034 -11.595  -6.818  1.00  0.00    -0.629 OA
ATOM     15  HN  UNL     1     -13.266 -10.743  -9.527  1.00  0.00     0.173 HD
ENDBRANCH   7  11
TORSDOF 1
