MODEL 1
REMARK VINA RESULT:      -7.9      0.000      0.000
REMARK  3 active torsions:
REMARK  status: ('A' for Active; 'I' for Inactive)
REMARK    1  A    between atoms: C_3  and  C_26 
REMARK    2  A    between atoms: N_9  and  C_15 
REMARK       I    between atoms: N_9  and  C_21 
REMARK    3  A    between atoms: C_17  and  O_24 
ROOT
HETATM    1  C   UNL     1     -11.241  18.326  10.489  1.00  0.00     0.056 C 
HETATM    2  C   UNL     1     -10.273  19.040  11.475  1.00  0.00     0.075 C 
HETATM    3  C   UNL     1     -11.208  20.243   7.414  1.00  0.00     0.089 C 
HETATM    4  C   UNL     1     -12.002  20.698   6.365  1.00  0.00     0.077 C 
HETATM    5  C   UNL     1      -9.632  20.169  10.686  1.00  0.00     0.188 C 
HETATM    6  C   UNL     1     -11.617  17.957   6.858  1.00  0.00     0.047 C 
HETATM    7  C   UNL     1     -11.252  18.915   7.806  1.00  0.00     0.009 C 
HETATM    8  C   UNL     1     -12.494  18.374   5.850  1.00  0.00     0.071 C 
HETATM    9  C   UNL     1     -10.744  18.863   9.155  1.00  0.00    -0.007 C 
HETATM   10  C   UNL     1     -12.766  19.738   5.702  1.00  0.00     0.095 C 
HETATM   11  C   UNL     1     -10.192  20.118   9.387  1.00  0.00     0.129 C 
HETATM   12  O   UNL     1     -10.656  21.017   8.421  1.00  0.00    -0.305 OA
HETATM   13  O   UNL     1      -8.711  20.873  11.115  1.00  0.00    -0.290 OA
ENDROOT
BRANCH   2  14
HETATM   14  C   UNL     1     -10.895  19.599  12.764  1.00  0.00    -0.029 C 
HETATM   15  C   UNL     1     -12.234  18.856  12.995  1.00  0.00     0.011 C 
HETATM   16  C   UNL     1     -12.398  18.940  14.521  1.00  0.00     0.005 C 
HETATM   17  C   UNL     1     -11.264  19.876  14.947  1.00  0.00    -0.014 C 
HETATM   18  C   UNL     1     -11.573  21.253  14.342  1.00  0.00     0.005 C 
HETATM   19  C   UNL     1     -10.100  19.376  14.056  1.00  0.00     0.015 C 
HETATM   20  C   UNL     1     -11.248  21.092  12.847  1.00  0.00     0.011 C 
ENDBRANCH   2  14
BRANCH   8  21
HETATM   21  N   UNL     1     -13.327  17.442   5.225  1.00  0.00    -0.298 N 
HETATM   22  C   UNL     1     -13.018  16.122   4.989  1.00  0.00     0.288 C 
HETATM   23  O   UNL     1     -11.982  15.810   4.396  1.00  0.00    -0.629 OA
HETATM   24  O   UNL     1     -13.806  15.219   5.387  1.00  0.00    -0.629 OA
ATOM     25  HN  UNL     1     -14.244  17.768   4.918  1.00  0.00     0.172 HD
ENDBRANCH   8  21
BRANCH  10  26
HETATM   26  O   UNL     1     -13.727  20.155   4.824  1.00  0.00    -0.358 OA
ATOM     27  HO  UNL     1     -13.844  21.088   4.685  1.00  0.00     0.217 HD
ENDBRANCH  10  26
TORSDOF 3
ENDMDL
MODEL 2
REMARK VINA RESULT:      -7.2      1.621      2.098
REMARK  3 active torsions:
REMARK  status: ('A' for Active; 'I' for Inactive)
REMARK    1  A    between atoms: C_3  and  C_26 
REMARK    2  A    between atoms: N_9  and  C_15 
REMARK       I    between atoms: N_9  and  C_21 
REMARK    3  A    between atoms: C_17  and  O_24 
ROOT
HETATM    1  C   UNL     1     -11.624  18.342  11.157  1.00  0.00     0.056 C 
HETATM    2  C   UNL     1     -10.622  18.024  12.304  1.00  0.00     0.075 C 
HETATM    3  C   UNL     1      -9.788  20.199   8.645  1.00  0.00     0.089 C 
HETATM    4  C   UNL     1      -9.882  21.240   7.726  1.00  0.00     0.077 C 
HETATM    5  C   UNL     1      -9.269  18.522  11.825  1.00  0.00     0.188 C 
HETATM    6  C   UNL     1     -11.494  18.945   7.540  1.00  0.00     0.047 C 
HETATM    7  C   UNL     1     -10.765  19.218   8.700  1.00  0.00     0.009 C 
HETATM    8  C   UNL     1     -11.679  20.009   6.650  1.00  0.00     0.071 C 
HETATM    9  C   UNL     1     -10.669  18.608  10.003  1.00  0.00    -0.007 C 
HETATM   10  C   UNL     1     -10.954  21.190   6.835  1.00  0.00     0.095 C 
HETATM   11  C   UNL     1      -9.480  19.086  10.544  1.00  0.00     0.129 C 
HETATM   12  O   UNL     1      -9.055  20.204   9.819  1.00  0.00    -0.305 OA
HETATM   13  O   UNL     1      -8.209  18.324  12.429  1.00  0.00    -0.290 OA
ENDROOT
BRANCH   2  14
HETATM   14  C   UNL     1     -10.939  18.630  13.679  1.00  0.00    -0.029 C 
HETATM   15  C   UNL     1     -12.461  18.912  13.725  1.00  0.00     0.011 C 
HETATM   16  C   UNL     1     -12.767  18.828  15.229  1.00  0.00     0.005 C 
HETATM   17  C   UNL     1     -11.379  18.715  15.866  1.00  0.00    -0.014 C 
HETATM   18  C   UNL     1     -10.650  20.037  15.583  1.00  0.00     0.005 C 
HETATM   19  C   UNL     1     -10.673  17.735  14.896  1.00  0.00     0.015 C 
HETATM   20  C   UNL     1     -10.277  19.954  14.093  1.00  0.00     0.011 C 
ENDBRANCH   2  14
BRANCH   8  21
HETATM   21  N   UNL     1     -12.791  20.018   5.802  1.00  0.00    -0.298 N 
HETATM   22  C   UNL     1     -13.274  18.937   5.102  1.00  0.00     0.288 C 
HETATM   23  O   UNL     1     -12.536  18.278   4.365  1.00  0.00    -0.629 OA
HETATM   24  O   UNL     1     -14.490  18.615   5.217  1.00  0.00    -0.629 OA
ATOM     25  HN  UNL     1     -13.287  20.903   5.694  1.00  0.00     0.172 HD
ENDBRANCH   8  21
BRANCH  10  26
HETATM   26  O   UNL     1     -11.224  22.289   6.070  1.00  0.00    -0.358 OA
ATOM     27  HO  UNL     1     -11.906  22.231   5.412  1.00  0.00     0.217 HD
ENDBRANCH  10  26
TORSDOF 3
ENDMDL
MODEL 3
REMARK VINA RESULT:      -7.0      3.714      5.825
REMARK  3 active torsions:
REMARK  status: ('A' for Active; 'I' for Inactive)
REMARK    1  A    between atoms: C_3  and  C_26 
REMARK    2  A    between atoms: N_9  and  C_15 
REMARK       I    between atoms: N_9  and  C_21 
REMARK    3  A    between atoms: C_17  and  O_24 
ROOT
HETATM    1  C   UNL     1     -10.489  23.065   6.257  1.00  0.00     0.056 C 
HETATM    2  C   UNL     1     -10.222  24.177   7.311  1.00  0.00     0.075 C 
HETATM    3  C   UNL     1     -11.110  20.005   8.094  1.00  0.00     0.089 C 
HETATM    4  C   UNL     1     -10.898  18.629   8.089  1.00  0.00     0.077 C 
HETATM    5  C   UNL     1     -10.456  23.531   8.666  1.00  0.00     0.188 C 
HETATM    6  C   UNL     1     -12.360  19.915   6.061  1.00  0.00     0.047 C 
HETATM    7  C   UNL     1     -11.585  20.648   6.963  1.00  0.00     0.009 C 
HETATM    8  C   UNL     1     -12.093  18.544   5.974  1.00  0.00     0.071 C 
HETATM    9  C   UNL     1     -11.234  22.040   7.098  1.00  0.00    -0.007 C 
HETATM   10  C   UNL     1     -11.261  17.948   6.927  1.00  0.00     0.095 C 
HETATM   11  C   UNL     1     -10.802  22.182   8.413  1.00  0.00     0.129 C 
HETATM   12  O   UNL     1     -10.526  20.921   8.951  1.00  0.00    -0.305 OA
HETATM   13  O   UNL     1     -10.457  24.153   9.734  1.00  0.00    -0.290 OA
ENDROOT
BRANCH   2  14
HETATM   14  C   UNL     1      -8.831  24.829   7.283  1.00  0.00    -0.029 C 
HETATM   15  C   UNL     1      -8.385  24.913   5.802  1.00  0.00     0.011 C 
HETATM   16  C   UNL     1      -7.428  26.116   5.814  1.00  0.00     0.005 C 
HETATM   17  C   UNL     1      -7.287  26.440   7.303  1.00  0.00    -0.014 C 
HETATM   18  C   UNL     1      -6.581  25.241   7.955  1.00  0.00     0.005 C 
HETATM   19  C   UNL     1      -8.745  26.272   7.795  1.00  0.00     0.015 C 
HETATM   20  C   UNL     1      -7.662  24.150   8.013  1.00  0.00     0.011 C 
ENDBRANCH   2  14
BRANCH   8  21
HETATM   21  N   UNL     1     -12.375  17.856   4.790  1.00  0.00    -0.298 N 
HETATM   22  C   UNL     1     -13.386  16.939   4.618  1.00  0.00     0.288 C 
HETATM   23  O   UNL     1     -13.504  15.974   5.377  1.00  0.00    -0.629 OA
HETATM   24  O   UNL     1     -14.206  17.090   3.669  1.00  0.00    -0.629 OA
ATOM     25  HN  UNL     1     -11.779  18.050   3.985  1.00  0.00     0.172 HD
ENDBRANCH   8  21
BRANCH  10  26
HETATM   26  O   UNL     1     -10.870  16.646   6.780  1.00  0.00    -0.358 OA
ATOM     27  HO  UNL     1     -11.072  16.028   7.472  1.00  0.00     0.217 HD
ENDBRANCH  10  26
TORSDOF 3
ENDMDL
MODEL 4
REMARK VINA RESULT:      -6.6      3.503      4.804
REMARK  3 active torsions:
REMARK  status: ('A' for Active; 'I' for Inactive)
REMARK    1  A    between atoms: C_3  and  C_26 
REMARK    2  A    between atoms: N_9  and  C_15 
REMARK       I    between atoms: N_9  and  C_21 
REMARK    3  A    between atoms: C_17  and  O_24 
ROOT
HETATM    1  C   UNL     1     -11.008  23.613   9.422  1.00  0.00     0.056 C 
HETATM    2  C   UNL     1     -10.984  24.199  10.863  1.00  0.00     0.075 C 
HETATM    3  C   UNL     1     -11.305  20.018   9.754  1.00  0.00     0.089 C 
HETATM    4  C   UNL     1     -10.893  18.802   9.215  1.00  0.00     0.077 C 
HETATM    5  C   UNL     1     -11.219  23.022  11.794  1.00  0.00     0.188 C 
HETATM    6  C   UNL     1     -12.377  20.665   7.721  1.00  0.00     0.047 C 
HETATM    7  C   UNL     1     -11.786  21.025   8.934  1.00  0.00     0.009 C 
HETATM    8  C   UNL     1     -11.906  19.493   7.117  1.00  0.00     0.071 C 
HETATM    9  C   UNL     1     -11.653  22.259   9.670  1.00  0.00    -0.007 C 
HETATM   10  C   UNL     1     -11.067  18.640   7.841  1.00  0.00     0.095 C 
HETATM   11  C   UNL     1     -11.343  21.877  10.970  1.00  0.00     0.129 C 
HETATM   12  O   UNL     1     -10.925  20.543  10.978  1.00  0.00    -0.305 OA
HETATM   13  O   UNL     1     -11.389  23.132  13.013  1.00  0.00    -0.290 OA
ENDROOT
BRANCH   2  14
HETATM   14  C   UNL     1      -9.706  24.942  11.281  1.00  0.00    -0.029 C 
HETATM   15  C   UNL     1      -9.145  25.648  10.022  1.00  0.00     0.011 C 
HETATM   16  C   UNL     1      -8.377  26.836  10.625  1.00  0.00     0.005 C 
HETATM   17  C   UNL     1      -8.420  26.556  12.130  1.00  0.00    -0.014 C 
HETATM   18  C   UNL     1      -7.609  25.273  12.367  1.00  0.00     0.005 C 
HETATM   19  C   UNL     1      -9.877  26.065  12.311  1.00  0.00     0.015 C 
HETATM   20  C   UNL     1      -8.522  24.147  11.852  1.00  0.00     0.011 C 
ENDBRANCH   2  14
BRANCH   8  21
HETATM   21  N   UNL     1     -11.997  19.343   5.730  1.00  0.00    -0.298 N 
HETATM   22  C   UNL     1     -13.139  19.028   5.032  1.00  0.00     0.288 C 
HETATM   23  O   UNL     1     -13.811  18.037   5.328  1.00  0.00    -0.629 OA
HETATM   24  O   UNL     1     -13.505  19.765   4.074  1.00  0.00    -0.629 OA
ATOM     25  HN  UNL     1     -11.142  19.479   5.189  1.00  0.00     0.172 HD
ENDBRANCH   8  21
BRANCH  10  26
HETATM   26  O   UNL     1     -10.479  17.571   7.226  1.00  0.00    -0.358 OA
ATOM     27  HO  UNL     1      -9.811  17.084   7.695  1.00  0.00     0.217 HD
ENDBRANCH  10  26
TORSDOF 3
ENDMDL
MODEL 5
REMARK VINA RESULT:      -6.2      4.537      7.472
REMARK  3 active torsions:
REMARK  status: ('A' for Active; 'I' for Inactive)
REMARK    1  A    between atoms: C_3  and  C_26 
REMARK    2  A    between atoms: N_9  and  C_15 
REMARK       I    between atoms: N_9  and  C_21 
REMARK    3  A    between atoms: C_17  and  O_24 
ROOT
HETATM    1  C   UNL     1      -9.634  22.878   4.447  1.00  0.00     0.056 C 
HETATM    2  C   UNL     1      -8.965  24.251   4.737  1.00  0.00     0.075 C 
HETATM    3  C   UNL     1     -10.386  21.376   7.657  1.00  0.00     0.089 C 
HETATM    4  C   UNL     1     -10.424  20.170   8.352  1.00  0.00     0.077 C 
HETATM    5  C   UNL     1      -9.022  24.431   6.245  1.00  0.00     0.188 C 
HETATM    6  C   UNL     1     -12.026  20.632   6.089  1.00  0.00     0.047 C 
HETATM    7  C   UNL     1     -10.965  21.484   6.403  1.00  0.00     0.009 C 
HETATM    8  C   UNL     1     -12.027  19.376   6.707  1.00  0.00     0.071 C 
HETATM    9  C   UNL     1     -10.356  22.623   5.761  1.00  0.00    -0.007 C 
HETATM   10  C   UNL     1     -11.133  19.129   7.753  1.00  0.00     0.095 C 
HETATM   11  C   UNL     1      -9.643  23.270   6.764  1.00  0.00     0.129 C 
HETATM   12  O   UNL     1      -9.486  22.409   7.855  1.00  0.00    -0.305 OA
HETATM   13  O   UNL     1      -8.693  25.471   6.827  1.00  0.00    -0.290 OA
ENDROOT
BRANCH   2  14
HETATM   14  C   UNL     1      -7.517  24.426   4.251  1.00  0.00    -0.029 C 
HETATM   15  C   UNL     1      -7.393  23.699   2.889  1.00  0.00     0.011 C 
HETATM   16  C   UNL     1      -6.254  24.473   2.206  1.00  0.00     0.005 C 
HETATM   17  C   UNL     1      -5.739  25.395   3.314  1.00  0.00    -0.014 C 
HETATM   18  C   UNL     1      -5.139  24.491   4.402  1.00  0.00     0.005 C 
HETATM   19  C   UNL     1      -7.064  25.862   3.967  1.00  0.00     0.015 C 
HETATM   20  C   UNL     1      -6.362  23.877   5.103  1.00  0.00     0.011 C 
ENDBRANCH   2  14
BRANCH   8  21
HETATM   21  N   UNL     1     -12.664  18.297   6.086  1.00  0.00    -0.298 N 
HETATM   22  C   UNL     1     -12.033  17.223   5.502  1.00  0.00     0.288 C 
HETATM   23  O   UNL     1     -11.162  17.389   4.644  1.00  0.00    -0.629 OA
HETATM   24  O   UNL     1     -12.351  16.051   5.849  1.00  0.00    -0.629 OA
ATOM     25  HN  UNL     1     -13.683  18.307   6.065  1.00  0.00     0.172 HD
ENDBRANCH   8  21
BRANCH  10  26
HETATM   26  O   UNL     1     -11.014  17.870   8.273  1.00  0.00    -0.358 OA
ATOM     27  HO  UNL     1     -10.399  17.267   7.872  1.00  0.00     0.217 HD
ENDBRANCH  10  26
TORSDOF 3
ENDMDL
MODEL 6
REMARK VINA RESULT:      -5.8      3.569      5.087
REMARK  3 active torsions:
REMARK  status: ('A' for Active; 'I' for Inactive)
REMARK    1  A    between atoms: C_3  and  C_26 
REMARK    2  A    between atoms: N_9  and  C_15 
REMARK       I    between atoms: N_9  and  C_21 
REMARK    3  A    between atoms: C_17  and  O_24 
ROOT
HETATM    1  C   UNL     1     -11.339  21.816  10.115  1.00  0.00     0.056 C 
HETATM    2  C   UNL     1     -11.410  20.435  10.827  1.00  0.00     0.075 C 
HETATM    3  C   UNL     1      -8.942  21.485   7.418  1.00  0.00     0.089 C 
HETATM    4  C   UNL     1      -7.932  22.147   6.725  1.00  0.00     0.077 C 
HETATM    5  C   UNL     1     -10.533  19.500  10.011  1.00  0.00     0.188 C 
HETATM    6  C   UNL     1     -10.578  23.095   6.762  1.00  0.00     0.047 C 
HETATM    7  C   UNL     1     -10.159  22.105   7.652  1.00  0.00     0.009 C 
HETATM    8  C   UNL     1      -9.574  23.836   6.128  1.00  0.00     0.071 C 
HETATM    9  C   UNL     1     -10.769  21.416   8.762  1.00  0.00    -0.007 C 
HETATM   10  C   UNL     1      -8.245  23.411   6.227  1.00  0.00     0.095 C 
HETATM   11  C   UNL     1     -10.000  20.273   8.952  1.00  0.00     0.129 C 
HETATM   12  O   UNL     1      -8.779  20.418   8.285  1.00  0.00    -0.305 OA
HETATM   13  O   UNL     1     -10.451  18.283  10.211  1.00  0.00    -0.290 OA
ENDROOT
BRANCH   2  14
HETATM   14  C   UNL     1     -10.973  20.399  12.299  1.00  0.00    -0.029 C 
HETATM   15  C   UNL     1     -11.226  21.806  12.895  1.00  0.00     0.011 C 
HETATM   16  C   UNL     1     -11.437  21.499  14.386  1.00  0.00     0.005 C 
HETATM   17  C   UNL     1     -11.084  20.013  14.494  1.00  0.00    -0.014 C 
HETATM   18  C   UNL     1      -9.588  19.886  14.171  1.00  0.00     0.005 C 
HETATM   19  C   UNL     1     -11.748  19.445  13.216  1.00  0.00     0.015 C 
HETATM   20  C   UNL     1      -9.512  20.076  12.647  1.00  0.00     0.011 C 
ENDBRANCH   2  14
BRANCH   8  21
HETATM   21  N   UNL     1      -9.842  25.137   5.691  1.00  0.00    -0.298 N 
HETATM   22  C   UNL     1     -10.918  25.518   4.923  1.00  0.00     0.288 C 
HETATM   23  O   UNL     1     -11.167  24.953   3.855  1.00  0.00    -0.629 OA
HETATM   24  O   UNL     1     -11.661  26.460   5.318  1.00  0.00    -0.629 OA
ATOM     25  HN  UNL     1      -9.183  25.866   5.965  1.00  0.00     0.172 HD
ENDBRANCH   8  21
BRANCH  10  26
HETATM   26  O   UNL     1      -7.236  24.194   5.742  1.00  0.00    -0.358 OA
ATOM     27  HO  UNL     1      -6.528  23.782   5.261  1.00  0.00     0.217 HD
ENDBRANCH  10  26
TORSDOF 3
ENDMDL
MODEL 7
REMARK VINA RESULT:      -5.7      4.198      5.071
REMARK  3 active torsions:
REMARK  status: ('A' for Active; 'I' for Inactive)
REMARK    1  A    between atoms: C_3  and  C_26 
REMARK    2  A    between atoms: N_9  and  C_15 
REMARK       I    between atoms: N_9  and  C_21 
REMARK    3  A    between atoms: C_17  and  O_24 
ROOT
HETATM    1  C   UNL     1     -10.159  21.119   9.810  1.00  0.00     0.056 C 
HETATM    2  C   UNL     1      -9.485  20.859  11.187  1.00  0.00     0.075 C 
HETATM    3  C   UNL     1      -9.342  24.521   8.868  1.00  0.00     0.089 C 
HETATM    4  C   UNL     1      -9.840  25.667   8.254  1.00  0.00     0.077 C 
HETATM    5  C   UNL     1      -8.668  22.103  11.493  1.00  0.00     0.188 C 
HETATM    6  C   UNL     1      -9.578  23.235   6.870  1.00  0.00     0.047 C 
HETATM    7  C   UNL     1      -9.477  23.283   8.262  1.00  0.00     0.009 C 
HETATM    8  C   UNL     1     -10.165  24.341   6.245  1.00  0.00     0.071 C 
HETATM    9  C   UNL     1      -9.337  22.293   9.302  1.00  0.00    -0.007 C 
HETATM   10  C   UNL     1     -10.399  25.502   6.987  1.00  0.00     0.095 C 
HETATM   11  C   UNL     1      -8.872  22.992  10.411  1.00  0.00     0.129 C 
HETATM   12  O   UNL     1      -9.075  24.362  10.217  1.00  0.00    -0.305 OA
HETATM   13  O   UNL     1      -7.895  22.201  12.453  1.00  0.00    -0.290 OA
ENDROOT
BRANCH   2  14
HETATM   14  C   UNL     1     -10.424  20.555  12.365  1.00  0.00    -0.029 C 
HETATM   15  C   UNL     1     -11.555  19.639  11.834  1.00  0.00     0.011 C 
HETATM   16  C   UNL     1     -11.975  18.870  13.097  1.00  0.00     0.005 C 
HETATM   17  C   UNL     1     -11.193  19.568  14.213  1.00  0.00    -0.014 C 
HETATM   18  C   UNL     1     -11.735  21.002  14.305  1.00  0.00     0.005 C 
HETATM   19  C   UNL     1      -9.815  19.778  13.538  1.00  0.00     0.015 C 
HETATM   20  C   UNL     1     -11.147  21.711  13.073  1.00  0.00     0.011 C 
ENDBRANCH   2  14
BRANCH   8  21
HETATM   21  N   UNL     1     -10.802  24.183   5.010  1.00  0.00    -0.298 N 
HETATM   22  C   UNL     1     -10.296  24.574   3.792  1.00  0.00     0.288 C 
HETATM   23  O   UNL     1      -9.909  25.731   3.607  1.00  0.00    -0.629 OA
HETATM   24  O   UNL     1     -10.226  23.735   2.850  1.00  0.00    -0.629 OA
ATOM     25  HN  UNL     1     -11.721  23.740   5.012  1.00  0.00     0.172 HD
ENDBRANCH   8  21
BRANCH  10  26
HETATM   26  O   UNL     1     -11.101  26.539   6.440  1.00  0.00    -0.358 OA
ATOM     27  HO  UNL     1     -10.757  27.420   6.527  1.00  0.00     0.217 HD
ENDBRANCH  10  26
TORSDOF 3
ENDMDL
MODEL 8
REMARK VINA RESULT:      -5.6      3.843      7.009
REMARK  3 active torsions:
REMARK  status: ('A' for Active; 'I' for Inactive)
REMARK    1  A    between atoms: C_3  and  C_26 
REMARK    2  A    between atoms: N_9  and  C_15 
REMARK       I    between atoms: N_9  and  C_21 
REMARK    3  A    between atoms: C_17  and  O_24 
ROOT
HETATM    1  C   UNL     1     -10.679  19.953   8.711  1.00  0.00     0.056 C 
HETATM    2  C   UNL     1     -11.170  21.333   8.188  1.00  0.00     0.075 C 
HETATM    3  C   UNL     1     -10.832  20.088  12.329  1.00  0.00     0.089 C 
HETATM    4  C   UNL     1     -10.187  19.688  13.496  1.00  0.00     0.077 C 
HETATM    5  C   UNL     1     -11.620  22.108   9.415  1.00  0.00     0.188 C 
HETATM    6  C   UNL     1     -11.216  17.829  11.654  1.00  0.00     0.047 C 
HETATM    7  C   UNL     1     -11.081  19.177  11.315  1.00  0.00     0.009 C 
HETATM    8  C   UNL     1     -10.496  17.389  12.771  1.00  0.00     0.071 C 
HETATM    9  C   UNL     1     -11.280  19.943  10.108  1.00  0.00    -0.007 C 
HETATM   10  C   UNL     1      -9.888  18.330  13.608  1.00  0.00     0.095 C 
HETATM   11  C   UNL     1     -11.391  21.264  10.528  1.00  0.00     0.129 C 
HETATM   12  O   UNL     1     -10.912  21.379  11.837  1.00  0.00    -0.305 OA
HETATM   13  O   UNL     1     -12.188  23.204   9.367  1.00  0.00    -0.290 OA
ENDROOT
BRANCH   2  14
HETATM   14  C   UNL     1     -10.152  22.167   7.395  1.00  0.00    -0.029 C 
HETATM   15  C   UNL     1      -8.741  21.806   7.923  1.00  0.00     0.011 C 
HETATM   16  C   UNL     1      -7.849  22.095   6.705  1.00  0.00     0.005 C 
HETATM   17  C   UNL     1      -8.807  22.766   5.717  1.00  0.00    -0.014 C 
HETATM   18  C   UNL     1      -9.233  24.101   6.346  1.00  0.00     0.005 C 
HETATM   19  C   UNL     1     -10.080  21.901   5.886  1.00  0.00     0.015 C 
HETATM   20  C   UNL     1     -10.219  23.701   7.456  1.00  0.00     0.011 C 
ENDBRANCH   2  14
BRANCH   8  21
HETATM   21  N   UNL     1     -10.116  16.047  12.867  1.00  0.00    -0.298 N 
HETATM   22  C   UNL     1     -10.719  15.098  13.659  1.00  0.00     0.288 C 
HETATM   23  O   UNL     1     -10.878  15.288  14.868  1.00  0.00    -0.629 OA
HETATM   24  O   UNL     1     -11.115  14.016  13.141  1.00  0.00    -0.629 OA
ATOM     25  HN  UNL     1      -9.323  15.746  12.300  1.00  0.00     0.172 HD
ENDBRANCH   8  21
BRANCH  10  26
HETATM   26  O   UNL     1      -9.062  17.921  14.616  1.00  0.00    -0.358 OA
ATOM     27  HO  UNL     1      -8.302  18.451  14.828  1.00  0.00     0.217 HD
ENDBRANCH  10  26
TORSDOF 3
ENDMDL
MODEL 9
REMARK VINA RESULT:      -5.6      3.408      5.025
REMARK  3 active torsions:
REMARK  status: ('A' for Active; 'I' for Inactive)
REMARK    1  A    between atoms: C_3  and  C_26 
REMARK    2  A    between atoms: N_9  and  C_15 
REMARK       I    between atoms: N_9  and  C_21 
REMARK    3  A    between atoms: C_17  and  O_24 
ROOT
HETATM    1  C   UNL     1     -10.622  23.780  11.374  1.00  0.00     0.056 C 
HETATM    2  C   UNL     1     -10.459  23.941  12.913  1.00  0.00     0.075 C 
HETATM    3  C   UNL     1     -11.164  20.254  10.740  1.00  0.00     0.089 C 
HETATM    4  C   UNL     1     -10.881  19.215   9.857  1.00  0.00     0.077 C 
HETATM    5  C   UNL     1     -10.718  22.567  13.505  1.00  0.00     0.188 C 
HETATM    6  C   UNL     1     -12.317  21.496   9.058  1.00  0.00     0.047 C 
HETATM    7  C   UNL     1     -11.621  21.473  10.268  1.00  0.00     0.009 C 
HETATM    8  C   UNL     1     -11.976  20.514   8.120  1.00  0.00     0.071 C 
HETATM    9  C   UNL     1     -11.349  22.446  11.298  1.00  0.00    -0.007 C 
HETATM   10  C   UNL     1     -11.157  19.450   8.511  1.00  0.00     0.095 C 
HETATM   11  C   UNL     1     -10.982  21.703  12.415  1.00  0.00     0.129 C 
HETATM   12  O   UNL     1     -10.666  20.399  12.023  1.00  0.00    -0.305 OA
HETATM   13  O   UNL     1     -10.798  22.343  14.718  1.00  0.00    -0.290 OA
ENDROOT
BRANCH   2  14
HETATM   14  C   UNL     1      -9.103  24.470  13.407  1.00  0.00    -0.029 C 
HETATM   15  C   UNL     1      -8.588  25.485  12.358  1.00  0.00     0.011 C 
HETATM   16  C   UNL     1      -7.696  26.408  13.203  1.00  0.00     0.005 C 
HETATM   17  C   UNL     1      -7.647  25.704  14.562  1.00  0.00    -0.014 C 
HETATM   18  C   UNL     1      -6.914  24.372  14.347  1.00  0.00     0.005 C 
HETATM   19  C   UNL     1      -9.118  25.250  14.727  1.00  0.00     0.015 C 
HETATM   20  C   UNL     1      -7.940  23.488  13.617  1.00  0.00     0.011 C 
ENDBRANCH   2  14
BRANCH   8  21
HETATM   21  N   UNL     1     -12.170  20.758   6.757  1.00  0.00    -0.298 N 
HETATM   22  C   UNL     1     -11.207  20.656   5.780  1.00  0.00     0.288 C 
HETATM   23  O   UNL     1     -10.133  21.254   5.882  1.00  0.00    -0.629 OA
HETATM   24  O   UNL     1     -11.427  19.938   4.764  1.00  0.00    -0.629 OA
ATOM     25  HN  UNL     1     -13.106  21.037   6.462  1.00  0.00     0.172 HD
ENDBRANCH   8  21
BRANCH  10  26
HETATM   26  O   UNL     1     -10.693  18.562   7.581  1.00  0.00    -0.358 OA
ATOM     27  HO  UNL     1     -10.514  17.669   7.852  1.00  0.00     0.217 HD
ENDBRANCH  10  26
TORSDOF 3
ENDMDL
