MODEL 1
REMARK VINA RESULT:      -6.4      0.000      0.000
REMARK  2 active torsions:
REMARK  status: ('A' for Active; 'I' for Inactive)
REMARK       I    between atoms: C_3  and  N_5 
REMARK    1  A    between atoms: C_3  and  C_10 
REMARK    2  A    between atoms: C_4  and  O_8 
ROOT
HETATM    1  C   UNL     1      19.425 -18.230  24.699  1.00  0.00     0.017 C 
HETATM    2  C   UNL     1      19.436 -19.342  22.573  1.00  0.00     0.053 C 
HETATM    3  C   UNL     1      18.718 -18.263  22.058  1.00  0.00     0.066 C 
HETATM    4  C   UNL     1      20.054 -19.086  23.794  1.00  0.00     0.034 C 
HETATM    5  C   UNL     1      17.995 -17.455  22.944  1.00  0.00     0.036 C 
HETATM    6  C   UNL     1      18.371 -17.440  24.276  1.00  0.00     0.004 C 
ENDROOT
BRANCH   4   7
HETATM    7  C   UNL     1      21.496 -19.396  24.017  1.00  0.00     0.249 C 
HETATM    8  N   UNL     1      21.862 -20.667  23.967  1.00  0.00    -0.366 N 
ATOM      9  HN2 UNL     1      21.244 -21.428  23.684  1.00  0.00     0.159 HD
ATOM     10  HN1 UNL     1      22.848 -20.880  24.119  1.00  0.00     0.159 HD
HETATM   11  O   UNL     1      22.247 -18.472  24.359  1.00  0.00    -0.268 OA
ENDBRANCH   4   7
BRANCH   3  12
HETATM   12  O   UNL     1      19.010 -17.811  20.805  1.00  0.00    -0.361 OA
ATOM     13  HO  UNL     1      19.674 -18.260  20.295  1.00  0.00     0.217 HD
ENDBRANCH   3  12
TORSDOF 2
ENDMDL
MODEL 2
REMARK VINA RESULT:      -6.3      1.469      3.279
REMARK  2 active torsions:
REMARK  status: ('A' for Active; 'I' for Inactive)
REMARK       I    between atoms: C_3  and  N_5 
REMARK    1  A    between atoms: C_3  and  C_10 
REMARK    2  A    between atoms: C_4  and  O_8 
ROOT
HETATM    1  C   UNL     1      18.751 -18.028  23.774  1.00  0.00     0.017 C 
HETATM    2  C   UNL     1      21.085 -18.574  23.862  1.00  0.00     0.053 C 
HETATM    3  C   UNL     1      21.013 -18.452  25.250  1.00  0.00     0.066 C 
HETATM    4  C   UNL     1      19.849 -18.700  23.235  1.00  0.00     0.034 C 
HETATM    5  C   UNL     1      19.974 -17.693  25.803  1.00  0.00     0.036 C 
HETATM    6  C   UNL     1      18.831 -17.495  25.048  1.00  0.00     0.004 C 
ENDROOT
BRANCH   4   7
HETATM    7  C   UNL     1      19.584 -19.785  22.246  1.00  0.00     0.249 C 
HETATM    8  N   UNL     1      20.539 -20.680  22.051  1.00  0.00    -0.366 N 
ATOM      9  HN2 UNL     1      21.393 -20.734  22.606  1.00  0.00     0.159 HD
ATOM     10  HN1 UNL     1      20.358 -21.423  21.375  1.00  0.00     0.159 HD
HETATM   11  O   UNL     1      18.546 -19.721  21.572  1.00  0.00    -0.268 OA
ENDBRANCH   4   7
BRANCH   3  12
HETATM   12  O   UNL     1      21.704 -19.333  26.029  1.00  0.00    -0.361 OA
ATOM     13  HO  UNL     1      22.280 -18.997  26.705  1.00  0.00     0.217 HD
ENDBRANCH   3  12
TORSDOF 2
ENDMDL
MODEL 3
REMARK VINA RESULT:      -6.2      2.085      3.421
REMARK  2 active torsions:
REMARK  status: ('A' for Active; 'I' for Inactive)
REMARK       I    between atoms: C_3  and  N_5 
REMARK    1  A    between atoms: C_3  and  C_10 
REMARK    2  A    between atoms: C_4  and  O_8 
ROOT
HETATM    1  C   UNL     1      18.702 -17.896  24.051  1.00  0.00     0.017 C 
HETATM    2  C   UNL     1      21.008 -18.514  23.816  1.00  0.00     0.053 C 
HETATM    3  C   UNL     1      21.105 -18.499  25.207  1.00  0.00     0.066 C 
HETATM    4  C   UNL     1      19.702 -18.555  23.335  1.00  0.00     0.034 C 
HETATM    5  C   UNL     1      20.168 -17.755  25.936  1.00  0.00     0.036 C 
HETATM    6  C   UNL     1      18.952 -17.466  25.342  1.00  0.00     0.004 C 
ENDROOT
BRANCH   4   7
HETATM    7  C   UNL     1      19.281 -19.551  22.308  1.00  0.00     0.249 C 
HETATM    8  N   UNL     1      18.265 -19.228  21.524  1.00  0.00    -0.366 N 
ATOM      9  HN2 UNL     1      17.825 -18.308  21.510  1.00  0.00     0.159 HD
ATOM     10  HN1 UNL     1      17.977 -19.910  20.821  1.00  0.00     0.159 HD
HETATM   11  O   UNL     1      19.816 -20.670  22.324  1.00  0.00    -0.268 OA
ENDBRANCH   4   7
BRANCH   3  12
HETATM   12  O   UNL     1      21.849 -19.457  25.830  1.00  0.00    -0.361 OA
ATOM     13  HO  UNL     1      22.337 -20.077  25.302  1.00  0.00     0.217 HD
ENDBRANCH   3  12
TORSDOF 2
ENDMDL
MODEL 4
REMARK VINA RESULT:      -6.1      2.031      2.465
REMARK  2 active torsions:
REMARK  status: ('A' for Active; 'I' for Inactive)
REMARK       I    between atoms: C_3  and  N_5 
REMARK    1  A    between atoms: C_3  and  C_10 
REMARK    2  A    between atoms: C_4  and  O_8 
ROOT
HETATM    1  C   UNL     1      18.046 -17.565  22.978  1.00  0.00     0.017 C 
HETATM    2  C   UNL     1      19.425 -19.527  23.048  1.00  0.00     0.053 C 
HETATM    3  C   UNL     1      19.513 -19.458  21.658  1.00  0.00     0.066 C 
HETATM    4  C   UNL     1      18.980 -18.354  23.651  1.00  0.00     0.034 C 
HETATM    5  C   UNL     1      18.523 -18.756  20.958  1.00  0.00     0.036 C 
HETATM    6  C   UNL     1      17.795 -17.794  21.637  1.00  0.00     0.004 C 
ENDROOT
BRANCH   4   7
HETATM    7  C   UNL     1      19.713 -17.739  24.796  1.00  0.00     0.249 C 
HETATM    8  N   UNL     1      20.949 -17.322  24.576  1.00  0.00    -0.366 N 
ATOM      9  HN2 UNL     1      21.389 -17.299  23.656  1.00  0.00     0.159 HD
ATOM     10  HN1 UNL     1      21.451 -16.901  25.359  1.00  0.00     0.159 HD
HETATM   11  O   UNL     1      19.179 -17.766  25.914  1.00  0.00    -0.268 OA
ENDBRANCH   4   7
BRANCH   3  12
HETATM   12  O   UNL     1      20.701 -19.747  21.054  1.00  0.00    -0.361 OA
ATOM     13  HO  UNL     1      21.268 -19.033  20.786  1.00  0.00     0.217 HD
ENDBRANCH   3  12
TORSDOF 2
ENDMDL
MODEL 5
REMARK VINA RESULT:      -5.8      2.144      3.925
REMARK  2 active torsions:
REMARK  status: ('A' for Active; 'I' for Inactive)
REMARK       I    between atoms: C_3  and  N_5 
REMARK    1  A    between atoms: C_3  and  C_10 
REMARK    2  A    between atoms: C_4  and  O_8 
ROOT
HETATM    1  C   UNL     1      20.953 -19.321  23.411  1.00  0.00     0.017 C 
HETATM    2  C   UNL     1      19.334 -18.308  24.863  1.00  0.00     0.053 C 
HETATM    3  C   UNL     1      20.386 -17.944  25.704  1.00  0.00     0.066 C 
HETATM    4  C   UNL     1      19.730 -18.671  23.579  1.00  0.00     0.034 C 
HETATM    5  C   UNL     1      21.589 -18.656  25.620  1.00  0.00     0.036 C 
HETATM    6  C   UNL     1      21.867 -19.340  24.449  1.00  0.00     0.004 C 
ENDROOT
BRANCH   4   7
HETATM    7  C   UNL     1      19.081 -18.085  22.370  1.00  0.00     0.249 C 
HETATM    8  N   UNL     1      18.003 -17.341  22.555  1.00  0.00    -0.366 N 
ATOM      9  HN2 UNL     1      17.654 -17.059  23.471  1.00  0.00     0.159 HD
ATOM     10  HN1 UNL     1      17.559 -16.940  21.728  1.00  0.00     0.159 HD
HETATM   11  O   UNL     1      19.505 -18.426  21.256  1.00  0.00    -0.268 OA
ENDBRANCH   4   7
BRANCH   3  12
HETATM   12  O   UNL     1      20.357 -16.722  26.309  1.00  0.00    -0.361 OA
ATOM     13  HO  UNL     1      19.765 -16.582  27.038  1.00  0.00     0.217 HD
ENDBRANCH   3  12
TORSDOF 2
ENDMDL
MODEL 6
REMARK VINA RESULT:      -5.8      2.113      2.532
REMARK  2 active torsions:
REMARK  status: ('A' for Active; 'I' for Inactive)
REMARK       I    between atoms: C_3  and  N_5 
REMARK    1  A    between atoms: C_3  and  C_10 
REMARK    2  A    between atoms: C_4  and  O_8 
ROOT
HETATM    1  C   UNL     1      19.599 -19.596  23.186  1.00  0.00     0.017 C 
HETATM    2  C   UNL     1      18.130 -18.880  21.430  1.00  0.00     0.053 C 
HETATM    3  C   UNL     1      17.995 -17.665  22.102  1.00  0.00     0.066 C 
HETATM    4  C   UNL     1      19.216 -19.644  21.845  1.00  0.00     0.034 C 
HETATM    5  C   UNL     1      18.276 -17.623  23.473  1.00  0.00     0.036 C 
HETATM    6  C   UNL     1      19.098 -18.601  24.007  1.00  0.00     0.004 C 
ENDROOT
BRANCH   4   7
HETATM    7  C   UNL     1      20.184 -20.219  20.866  1.00  0.00     0.249 C 
HETATM    8  N   UNL     1      20.569 -21.472  21.050  1.00  0.00    -0.366 N 
ATOM      9  HN2 UNL     1      20.168 -22.094  21.752  1.00  0.00     0.159 HD
ATOM     10  HN1 UNL     1      21.230 -21.865  20.380  1.00  0.00     0.159 HD
HETATM   11  O   UNL     1      20.671 -19.462  20.013  1.00  0.00    -0.268 OA
ENDBRANCH   4   7
BRANCH   3  12
HETATM   12  O   UNL     1      17.951 -16.510  21.378  1.00  0.00    -0.361 OA
ATOM     13  HO  UNL     1      17.554 -15.738  21.766  1.00  0.00     0.217 HD
ENDBRANCH   3  12
TORSDOF 2
ENDMDL
MODEL 7
REMARK VINA RESULT:      -5.7      1.729      2.300
REMARK  2 active torsions:
REMARK  status: ('A' for Active; 'I' for Inactive)
REMARK       I    between atoms: C_3  and  N_5 
REMARK    1  A    between atoms: C_3  and  C_10 
REMARK    2  A    between atoms: C_4  and  O_8 
ROOT
HETATM    1  C   UNL     1      20.262 -19.384  22.720  1.00  0.00     0.017 C 
HETATM    2  C   UNL     1      20.519 -17.687  24.396  1.00  0.00     0.053 C 
HETATM    3  C   UNL     1      19.130 -17.556  24.409  1.00  0.00     0.066 C 
HETATM    4  C   UNL     1      20.976 -18.857  23.797  1.00  0.00     0.034 C 
HETATM    5  C   UNL     1      18.406 -17.987  23.290  1.00  0.00     0.036 C 
HETATM    6  C   UNL     1      18.987 -18.920  22.450  1.00  0.00     0.004 C 
ENDROOT
BRANCH   4   7
HETATM    7  C   UNL     1      21.969 -19.741  24.473  1.00  0.00     0.249 C 
HETATM    8  N   UNL     1      22.042 -20.999  24.069  1.00  0.00    -0.366 N 
ATOM      9  HN2 UNL     1      21.539 -21.369  23.262  1.00  0.00     0.159 HD
ATOM     10  HN1 UNL     1      22.721 -21.604  24.532  1.00  0.00     0.159 HD
HETATM   11  O   UNL     1      22.581 -19.291  25.453  1.00  0.00    -0.268 OA
ENDBRANCH   4   7
BRANCH   3  12
HETATM   12  O   UNL     1      18.495 -17.361  25.600  1.00  0.00    -0.361 OA
ATOM     13  HO  UNL     1      18.421 -16.479  25.944  1.00  0.00     0.217 HD
ENDBRANCH   3  12
TORSDOF 2
ENDMDL
MODEL 8
REMARK VINA RESULT:      -5.6      1.944      2.994
REMARK  2 active torsions:
REMARK  status: ('A' for Active; 'I' for Inactive)
REMARK       I    between atoms: C_3  and  N_5 
REMARK    1  A    between atoms: C_3  and  C_10 
REMARK    2  A    between atoms: C_4  and  O_8 
ROOT
HETATM    1  C   UNL     1      21.536 -19.326  24.024  1.00  0.00     0.017 C 
HETATM    2  C   UNL     1      19.154 -19.056  24.096  1.00  0.00     0.053 C 
HETATM    3  C   UNL     1      19.351 -17.950  24.922  1.00  0.00     0.066 C 
HETATM    4  C   UNL     1      20.292 -19.464  23.407  1.00  0.00     0.034 C 
HETATM    5  C   UNL     1      20.555 -17.849  25.631  1.00  0.00     0.036 C 
HETATM    6  C   UNL     1      21.656 -18.543  25.158  1.00  0.00     0.004 C 
ENDROOT
BRANCH   4   7
HETATM    7  C   UNL     1      20.268 -19.703  21.934  1.00  0.00     0.249 C 
HETATM    8  N   UNL     1      20.595 -20.911  21.506  1.00  0.00    -0.366 N 
ATOM      9  HN2 UNL     1      20.758 -21.710  22.120  1.00  0.00     0.159 HD
ATOM     10  HN1 UNL     1      20.578 -21.075  20.499  1.00  0.00     0.159 HD
HETATM   11  O   UNL     1      20.069 -18.733  21.188  1.00  0.00    -0.268 OA
ENDBRANCH   4   7
BRANCH   3  12
HETATM   12  O   UNL     1      18.563 -16.850  24.756  1.00  0.00    -0.361 OA
ATOM     13  HO  UNL     1      17.619 -16.950  24.787  1.00  0.00     0.217 HD
ENDBRANCH   3  12
TORSDOF 2
ENDMDL
MODEL 9
REMARK VINA RESULT:      -5.5      2.348      3.165
REMARK  2 active torsions:
REMARK  status: ('A' for Active; 'I' for Inactive)
REMARK       I    between atoms: C_3  and  N_5 
REMARK    1  A    between atoms: C_3  and  C_10 
REMARK    2  A    between atoms: C_4  and  O_8 
ROOT
HETATM    1  C   UNL     1      18.380 -19.998  21.194  1.00  0.00     0.017 C 
HETATM    2  C   UNL     1      20.540 -19.671  20.204  1.00  0.00     0.053 C 
HETATM    3  C   UNL     1      19.922 -18.887  19.230  1.00  0.00     0.066 C 
HETATM    4  C   UNL     1      19.763 -19.889  21.338  1.00  0.00     0.034 C 
HETATM    5  C   UNL     1      18.551 -19.059  19.001  1.00  0.00     0.036 C 
HETATM    6  C   UNL     1      17.781 -19.613  20.008  1.00  0.00     0.004 C 
ENDROOT
BRANCH   4   7
HETATM    7  C   UNL     1      20.304 -19.656  22.709  1.00  0.00     0.249 C 
HETATM    8  N   UNL     1      19.625 -20.159  23.727  1.00  0.00    -0.366 N 
ATOM      9  HN2 UNL     1      18.821 -20.779  23.627  1.00  0.00     0.159 HD
ATOM     10  HN1 UNL     1      19.995 -20.000  24.665  1.00  0.00     0.159 HD
HETATM   11  O   UNL     1      21.281 -18.903  22.832  1.00  0.00    -0.268 OA
ENDBRANCH   4   7
BRANCH   3  12
HETATM   12  O   UNL     1      20.551 -17.759  18.791  1.00  0.00    -0.361 OA
ATOM     13  HO  UNL     1      20.783 -17.086  19.419  1.00  0.00     0.217 HD
ENDBRANCH   3  12
TORSDOF 2
ENDMDL
