MODEL 1
REMARK VINA RESULT:      -7.0      0.000      0.000
REMARK  4 active torsions:
REMARK  status: ('A' for Active; 'I' for Inactive)
REMARK    1  A    between atoms: O_1  and  C_3 
REMARK    2  A    between atoms: O_4  and  C_13 
REMARK       I    between atoms: N_6  and  C_8 
REMARK    3  A    between atoms: N_6  and  S_9 
REMARK    4  A    between atoms: S_9  and  C_15 
ROOT
HETATM    1  C   UNL     1      28.294  80.022  34.846  1.00  0.00     0.069 C 
HETATM    2  C   UNL     1      30.217  78.950  38.444  1.00  0.00     0.052 C 
HETATM    3  C   UNL     1      29.636  79.554  37.205  1.00  0.00    -0.005 C 
HETATM    4  C   UNL     1      27.604  80.142  36.042  1.00  0.00     0.073 C 
HETATM    5  C   UNL     1      28.300  79.940  37.228  1.00  0.00     0.075 C 
HETATM    6  C   UNL     1      30.334  79.613  36.004  1.00  0.00     0.091 C 
HETATM    7  C   UNL     1      29.683  80.052  34.848  1.00  0.00     0.062 C 
ENDROOT
BRANCH   6   8
HETATM    8  S   UNL     1      32.020  79.198  35.799  1.00  0.00     0.266 S 
HETATM    9  O   UNL     1      32.385  79.766  34.526  1.00  0.00    -0.200 OA
HETATM   10  O   UNL     1      32.081  77.762  35.945  1.00  0.00    -0.200 OA
BRANCH   8  11
HETATM   11  N   UNL     1      33.029  79.833  36.903  1.00  0.00    -0.251 N 
HETATM   12  C   UNL     1      33.953  80.822  36.679  1.00  0.00     0.227 C 
HETATM   13  O   UNL     1      34.977  80.651  36.069  1.00  0.00    -0.273 OA
HETATM   14  C   UNL     1      33.622  82.111  37.368  1.00  0.00     0.118 C 
ATOM     15  HN  UNL     1      32.969  79.462  37.851  1.00  0.00     0.181 HD
ENDBRANCH   8  11
ENDBRANCH   6   8
BRANCH   5  16
HETATM   16  O   UNL     1      27.658  80.100  38.421  1.00  0.00    -0.360 OA
ATOM     17  HO  UNL     1      27.487  80.973  38.755  1.00  0.00     0.217 HD
ENDBRANCH   5  16
BRANCH   1  18
HETATM   18  O   UNL     1      27.633  79.638  33.714  1.00  0.00    -0.361 OA
ATOM     19  HO  UNL     1      26.919  80.168  33.381  1.00  0.00     0.217 HD
ENDBRANCH   1  18
TORSDOF 4
ENDMDL
MODEL 2
REMARK VINA RESULT:      -6.6      1.572      1.819
REMARK  4 active torsions:
REMARK  status: ('A' for Active; 'I' for Inactive)
REMARK    1  A    between atoms: O_1  and  C_3 
REMARK    2  A    between atoms: O_4  and  C_13 
REMARK       I    between atoms: N_6  and  C_8 
REMARK    3  A    between atoms: N_6  and  S_9 
REMARK    4  A    between atoms: S_9  and  C_15 
ROOT
HETATM    1  C   UNL     1      29.232  80.093  35.377  1.00  0.00     0.069 C 
HETATM    2  C   UNL     1      32.469  78.989  37.845  1.00  0.00     0.052 C 
HETATM    3  C   UNL     1      31.353  79.608  37.063  1.00  0.00    -0.005 C 
HETATM    4  C   UNL     1      28.975  79.614  36.652  1.00  0.00     0.073 C 
HETATM    5  C   UNL     1      30.051  79.408  37.507  1.00  0.00     0.075 C 
HETATM    6  C   UNL     1      31.560  80.250  35.847  1.00  0.00     0.091 C 
HETATM    7  C   UNL     1      30.461  80.675  35.095  1.00  0.00     0.062 C 
ENDROOT
BRANCH   6   8
HETATM    8  S   UNL     1      33.124  80.612  35.153  1.00  0.00     0.266 S 
HETATM    9  O   UNL     1      33.015  81.973  34.695  1.00  0.00    -0.200 OA
HETATM   10  O   UNL     1      33.354  79.580  34.169  1.00  0.00    -0.200 OA
BRANCH   8  11
HETATM   11  N   UNL     1      34.370  80.565  36.194  1.00  0.00    -0.251 N 
HETATM   12  C   UNL     1      35.056  81.648  36.683  1.00  0.00     0.227 C 
HETATM   13  O   UNL     1      35.828  82.299  36.027  1.00  0.00    -0.273 OA
HETATM   14  C   UNL     1      34.840  81.875  38.148  1.00  0.00     0.118 C 
ATOM     15  HN  UNL     1      34.672  79.644  36.513  1.00  0.00     0.181 HD
ENDBRANCH   8  11
ENDBRANCH   6   8
BRANCH   5  16
HETATM   16  O   UNL     1      29.825  78.983  38.784  1.00  0.00    -0.360 OA
ATOM     17  HO  UNL     1      29.880  78.058  38.993  1.00  0.00     0.217 HD
ENDBRANCH   5  16
BRANCH   1  18
HETATM   18  O   UNL     1      28.384  79.784  34.350  1.00  0.00    -0.361 OA
ATOM     19  HO  UNL     1      27.756  79.080  34.452  1.00  0.00     0.217 HD
ENDBRANCH   1  18
TORSDOF 4
ENDMDL
MODEL 3
REMARK VINA RESULT:      -6.6      1.982      2.299
REMARK  4 active torsions:
REMARK  status: ('A' for Active; 'I' for Inactive)
REMARK    1  A    between atoms: O_1  and  C_3 
REMARK    2  A    between atoms: O_4  and  C_13 
REMARK       I    between atoms: N_6  and  C_8 
REMARK    3  A    between atoms: N_6  and  S_9 
REMARK    4  A    between atoms: S_9  and  C_15 
ROOT
HETATM    1  C   UNL     1      29.253  80.201  35.608  1.00  0.00     0.069 C 
HETATM    2  C   UNL     1      32.720  79.256  37.817  1.00  0.00     0.052 C 
HETATM    3  C   UNL     1      31.500  79.810  37.150  1.00  0.00    -0.005 C 
HETATM    4  C   UNL     1      29.121  79.563  36.831  1.00  0.00     0.073 C 
HETATM    5  C   UNL     1      30.255  79.404  37.617  1.00  0.00     0.075 C 
HETATM    6  C   UNL     1      31.567  80.596  36.004  1.00  0.00     0.091 C 
HETATM    7  C   UNL     1      30.389  80.956  35.345  1.00  0.00     0.062 C 
ENDROOT
BRANCH   6   8
HETATM    8  S   UNL     1      33.039  81.219  35.297  1.00  0.00     0.266 S 
HETATM    9  O   UNL     1      32.635  81.751  34.020  1.00  0.00    -0.200 OA
HETATM   10  O   UNL     1      33.968  80.113  35.308  1.00  0.00    -0.200 OA
BRANCH   8  11
HETATM   11  N   UNL     1      33.738  82.437  36.113  1.00  0.00    -0.251 N 
HETATM   12  C   UNL     1      33.339  82.927  37.331  1.00  0.00     0.227 C 
HETATM   13  O   UNL     1      32.349  83.594  37.490  1.00  0.00    -0.273 OA
HETATM   14  C   UNL     1      34.317  82.650  38.432  1.00  0.00     0.118 C 
ATOM     15  HN  UNL     1      34.549  82.879  35.680  1.00  0.00     0.181 HD
ENDBRANCH   8  11
ENDBRANCH   6   8
BRANCH   5  16
HETATM   16  O   UNL     1      30.147  78.824  38.848  1.00  0.00    -0.360 OA
ATOM     17  HO  UNL     1      29.374  78.316  39.066  1.00  0.00     0.217 HD
ENDBRANCH   5  16
BRANCH   1  18
HETATM   18  O   UNL     1      28.398  79.897  34.586  1.00  0.00    -0.361 OA
ATOM     19  HO  UNL     1      28.338  80.473  33.833  1.00  0.00     0.217 HD
ENDBRANCH   1  18
TORSDOF 4
ENDMDL
MODEL 4
REMARK VINA RESULT:      -6.5      2.560      2.935
REMARK  4 active torsions:
REMARK  status: ('A' for Active; 'I' for Inactive)
REMARK    1  A    between atoms: O_1  and  C_3 
REMARK    2  A    between atoms: O_4  and  C_13 
REMARK       I    between atoms: N_6  and  C_8 
REMARK    3  A    between atoms: N_6  and  S_9 
REMARK    4  A    between atoms: S_9  and  C_15 
ROOT
HETATM    1  C   UNL     1      29.402  80.288  35.666  1.00  0.00     0.069 C 
HETATM    2  C   UNL     1      32.797  79.245  37.943  1.00  0.00     0.052 C 
HETATM    3  C   UNL     1      31.588  79.821  37.274  1.00  0.00    -0.005 C 
HETATM    4  C   UNL     1      29.239  79.523  36.810  1.00  0.00     0.073 C 
HETATM    5  C   UNL     1      30.340  79.325  37.634  1.00  0.00     0.075 C 
HETATM    6  C   UNL     1      31.677  80.723  36.219  1.00  0.00     0.091 C 
HETATM    7  C   UNL     1      30.517  81.107  35.540  1.00  0.00     0.062 C 
ENDROOT
BRANCH   6   8
HETATM    8  S   UNL     1      33.154  81.468  35.654  1.00  0.00     0.266 S 
HETATM    9  O   UNL     1      33.893  80.396  35.037  1.00  0.00    -0.200 OA
HETATM   10  O   UNL     1      33.728  82.108  36.815  1.00  0.00    -0.200 OA
BRANCH   8  11
HETATM   11  N   UNL     1      32.961  82.618  34.523  1.00  0.00    -0.251 N 
HETATM   12  C   UNL     1      33.873  82.964  33.558  1.00  0.00     0.227 C 
HETATM   13  O   UNL     1      34.884  83.576  33.787  1.00  0.00    -0.273 OA
HETATM   14  C   UNL     1      33.434  82.607  32.170  1.00  0.00     0.118 C 
ATOM     15  HN  UNL     1      32.079  83.131  34.530  1.00  0.00     0.181 HD
ENDBRANCH   8  11
ENDBRANCH   6   8
BRANCH   5  16
HETATM   16  O   UNL     1      30.197  78.618  38.792  1.00  0.00    -0.360 OA
ATOM     17  HO  UNL     1      30.407  79.024  39.625  1.00  0.00     0.217 HD
ENDBRANCH   5  16
BRANCH   1  18
HETATM   18  O   UNL     1      28.610  80.061  34.577  1.00  0.00    -0.361 OA
ATOM     19  HO  UNL     1      28.988  79.701  33.783  1.00  0.00     0.217 HD
ENDBRANCH   1  18
TORSDOF 4
ENDMDL
MODEL 5
REMARK VINA RESULT:      -6.3      2.171      5.069
REMARK  4 active torsions:
REMARK  status: ('A' for Active; 'I' for Inactive)
REMARK    1  A    between atoms: O_1  and  C_3 
REMARK    2  A    between atoms: O_4  and  C_13 
REMARK       I    between atoms: N_6  and  C_8 
REMARK    3  A    between atoms: N_6  and  S_9 
REMARK    4  A    between atoms: S_9  and  C_15 
ROOT
HETATM    1  C   UNL     1      32.202  80.396  33.531  1.00  0.00     0.069 C 
HETATM    2  C   UNL     1      33.396  80.723  37.564  1.00  0.00     0.052 C 
HETATM    3  C   UNL     1      32.991  80.362  36.169  1.00  0.00    -0.005 C 
HETATM    4  C   UNL     1      33.549  80.535  33.827  1.00  0.00     0.073 C 
HETATM    5  C   UNL     1      33.940  80.479  35.159  1.00  0.00     0.075 C 
HETATM    6  C   UNL     1      31.679  80.052  35.829  1.00  0.00     0.091 C 
HETATM    7  C   UNL     1      31.339  79.871  34.485  1.00  0.00     0.062 C 
ENDROOT
BRANCH   6   8
HETATM    8  S   UNL     1      30.369  79.835  36.966  1.00  0.00     0.266 S 
HETATM    9  O   UNL     1      30.009  81.171  37.368  1.00  0.00    -0.200 OA
HETATM   10  O   UNL     1      30.882  78.938  37.975  1.00  0.00    -0.200 OA
BRANCH   8  11
HETATM   11  N   UNL     1      29.029  79.150  36.355  1.00  0.00    -0.251 N 
HETATM   12  C   UNL     1      27.763  79.678  36.392  1.00  0.00     0.227 C 
HETATM   13  O   UNL     1      27.093  79.734  37.392  1.00  0.00    -0.273 OA
HETATM   14  C   UNL     1      27.245  80.076  35.043  1.00  0.00     0.118 C 
ATOM     15  HN  UNL     1      29.138  78.243  35.902  1.00  0.00     0.181 HD
ENDBRANCH   8  11
ENDBRANCH   6   8
BRANCH   5  16
HETATM   16  O   UNL     1      35.265  80.565  35.477  1.00  0.00    -0.360 OA
ATOM     17  HO  UNL     1      35.527  80.750  36.371  1.00  0.00     0.217 HD
ENDBRANCH   5  16
BRANCH   1  18
HETATM   18  O   UNL     1      31.686  80.986  32.413  1.00  0.00    -0.361 OA
ATOM     19  HO  UNL     1      30.748  81.110  32.333  1.00  0.00     0.217 HD
ENDBRANCH   1  18
TORSDOF 4
ENDMDL
MODEL 6
REMARK VINA RESULT:      -6.2      2.400      5.664
REMARK  4 active torsions:
REMARK  status: ('A' for Active; 'I' for Inactive)
REMARK    1  A    between atoms: O_1  and  C_3 
REMARK    2  A    between atoms: O_4  and  C_13 
REMARK       I    between atoms: N_6  and  C_8 
REMARK    3  A    between atoms: N_6  and  S_9 
REMARK    4  A    between atoms: S_9  and  C_15 
ROOT
HETATM    1  C   UNL     1      32.675  83.372  36.420  1.00  0.00     0.069 C 
HETATM    2  C   UNL     1      33.679  79.963  34.147  1.00  0.00     0.052 C 
HETATM    3  C   UNL     1      33.208  81.250  34.748  1.00  0.00    -0.005 C 
HETATM    4  C   UNL     1      33.879  83.349  35.733  1.00  0.00     0.073 C 
HETATM    5  C   UNL     1      34.121  82.293  34.863  1.00  0.00     0.075 C 
HETATM    6  C   UNL     1      31.946  81.393  35.315  1.00  0.00     0.091 C 
HETATM    7  C   UNL     1      31.623  82.573  35.991  1.00  0.00     0.062 C 
ENDROOT
BRANCH   6   8
HETATM    8  S   UNL     1      30.669  80.202  35.239  1.00  0.00     0.266 S 
HETATM    9  O   UNL     1      31.020  79.224  36.237  1.00  0.00    -0.200 OA
HETATM   10  O   UNL     1      30.623  79.778  33.859  1.00  0.00    -0.200 OA
BRANCH   8  11
HETATM   11  N   UNL     1      29.188  80.750  35.620  1.00  0.00    -0.251 N 
HETATM   12  C   UNL     1      28.039  80.003  35.675  1.00  0.00     0.227 C 
HETATM   13  O   UNL     1      27.466  79.588  34.700  1.00  0.00    -0.273 OA
HETATM   14  C   UNL     1      27.497  79.847  37.063  1.00  0.00     0.118 C 
ATOM     15  HN  UNL     1      29.104  81.743  35.838  1.00  0.00     0.181 HD
ENDBRANCH   8  11
ENDBRANCH   6   8
BRANCH   5  16
HETATM   16  O   UNL     1      35.276  82.270  34.136  1.00  0.00    -0.360 OA
ATOM     17  HO  UNL     1      35.588  83.063  33.717  1.00  0.00     0.217 HD
ENDBRANCH   5  16
BRANCH   1  18
HETATM   18  O   UNL     1      32.600  83.984  37.639  1.00  0.00    -0.361 OA
ATOM     19  HO  UNL     1      32.031  83.629  38.312  1.00  0.00     0.217 HD
ENDBRANCH   1  18
TORSDOF 4
ENDMDL
MODEL 7
REMARK VINA RESULT:      -6.1      2.459      3.384
REMARK  4 active torsions:
REMARK  status: ('A' for Active; 'I' for Inactive)
REMARK    1  A    between atoms: O_1  and  C_3 
REMARK    2  A    between atoms: O_4  and  C_13 
REMARK       I    between atoms: N_6  and  C_8 
REMARK    3  A    between atoms: N_6  and  S_9 
REMARK    4  A    between atoms: S_9  and  C_15 
ROOT
HETATM    1  C   UNL     1      31.691  77.191  36.666  1.00  0.00     0.069 C 
HETATM    2  C   UNL     1      30.553  81.243  36.947  1.00  0.00     0.052 C 
HETATM    3  C   UNL     1      30.780  79.789  36.674  1.00  0.00    -0.005 C 
HETATM    4  C   UNL     1      30.733  77.560  37.597  1.00  0.00     0.073 C 
HETATM    5  C   UNL     1      30.253  78.864  37.567  1.00  0.00     0.075 C 
HETATM    6  C   UNL     1      31.607  79.342  35.649  1.00  0.00     0.091 C 
HETATM    7  C   UNL     1      31.896  77.979  35.541  1.00  0.00     0.062 C 
ENDROOT
BRANCH   6   8
HETATM    8  S   UNL     1      32.328  80.358  34.422  1.00  0.00     0.266 S 
HETATM    9  O   UNL     1      32.407  81.663  35.027  1.00  0.00    -0.200 OA
HETATM   10  O   UNL     1      31.492  80.199  33.255  1.00  0.00    -0.200 OA
BRANCH   8  11
HETATM   11  N   UNL     1      33.839  79.950  33.986  1.00  0.00    -0.251 N 
HETATM   12  C   UNL     1      34.870  80.820  33.736  1.00  0.00     0.227 C 
HETATM   13  O   UNL     1      34.936  81.507  32.749  1.00  0.00    -0.273 OA
HETATM   14  C   UNL     1      35.968  80.749  34.752  1.00  0.00     0.118 C 
ATOM     15  HN  UNL     1      34.040  78.955  33.890  1.00  0.00     0.181 HD
ENDBRANCH   8  11
ENDBRANCH   6   8
BRANCH   5  16
HETATM   16  O   UNL     1      29.274  79.241  38.440  1.00  0.00    -0.360 OA
ATOM     17  HO  UNL     1      29.067  78.692  39.187  1.00  0.00     0.217 HD
ENDBRANCH   5  16
BRANCH   1  18
HETATM   18  O   UNL     1      32.587  76.204  36.967  1.00  0.00    -0.361 OA
ATOM     19  HO  UNL     1      32.308  75.297  36.970  1.00  0.00     0.217 HD
ENDBRANCH   1  18
TORSDOF 4
ENDMDL
MODEL 8
REMARK VINA RESULT:      -6.1      1.290      2.717
REMARK  4 active torsions:
REMARK  status: ('A' for Active; 'I' for Inactive)
REMARK    1  A    between atoms: O_1  and  C_3 
REMARK    2  A    between atoms: O_4  and  C_13 
REMARK       I    between atoms: N_6  and  C_8 
REMARK    3  A    between atoms: N_6  and  S_9 
REMARK    4  A    between atoms: S_9  and  C_15 
ROOT
HETATM    1  C   UNL     1      28.143  79.777  37.351  1.00  0.00     0.069 C 
HETATM    2  C   UNL     1      31.008  79.992  34.262  1.00  0.00     0.052 C 
HETATM    3  C   UNL     1      29.994  79.671  35.315  1.00  0.00    -0.005 C 
HETATM    4  C   UNL     1      27.718  79.993  36.049  1.00  0.00     0.073 C 
HETATM    5  C   UNL     1      28.654  79.901  35.026  1.00  0.00     0.075 C 
HETATM    6  C   UNL     1      30.351  79.290  36.604  1.00  0.00     0.091 C 
HETATM    7  C   UNL     1      29.361  79.150  37.581  1.00  0.00     0.062 C 
ENDROOT
BRANCH   6   8
HETATM    8  S   UNL     1      31.978  78.931  37.133  1.00  0.00     0.266 S 
HETATM    9  O   UNL     1      32.315  77.697  36.471  1.00  0.00    -0.200 OA
HETATM   10  O   UNL     1      31.921  78.935  38.576  1.00  0.00    -0.200 OA
BRANCH   8  11
HETATM   11  N   UNL     1      33.103  80.019  36.698  1.00  0.00    -0.251 N 
HETATM   12  C   UNL     1      33.219  81.299  37.180  1.00  0.00     0.227 C 
HETATM   13  O   UNL     1      32.465  82.191  36.888  1.00  0.00    -0.273 OA
HETATM   14  C   UNL     1      34.445  81.510  38.015  1.00  0.00     0.118 C 
ATOM     15  HN  UNL     1      33.787  79.724  36.001  1.00  0.00     0.181 HD
ENDBRANCH   8  11
ENDBRANCH   6   8
BRANCH   5  16
HETATM   16  O   UNL     1      28.254  80.060  33.731  1.00  0.00    -0.360 OA
ATOM     17  HO  UNL     1      28.539  79.443  33.067  1.00  0.00     0.217 HD
ENDBRANCH   5  16
BRANCH   1  18
HETATM   18  O   UNL     1      27.494  80.384  38.388  1.00  0.00    -0.361 OA
ATOM     19  HO  UNL     1      26.819  81.028  38.212  1.00  0.00     0.217 HD
ENDBRANCH   1  18
TORSDOF 4
ENDMDL
MODEL 9
REMARK VINA RESULT:      -6.0      2.417      3.754
REMARK  4 active torsions:
REMARK  status: ('A' for Active; 'I' for Inactive)
REMARK    1  A    between atoms: O_1  and  C_3 
REMARK    2  A    between atoms: O_4  and  C_13 
REMARK       I    between atoms: N_6  and  C_8 
REMARK    3  A    between atoms: N_6  and  S_9 
REMARK    4  A    between atoms: S_9  and  C_15 
ROOT
HETATM    1  C   UNL     1      31.055  79.054  37.775  1.00  0.00     0.069 C 
HETATM    2  C   UNL     1      31.472  82.772  35.827  1.00  0.00     0.052 C 
HETATM    3  C   UNL     1      31.436  81.359  36.318  1.00  0.00    -0.005 C 
HETATM    4  C   UNL     1      30.022  79.516  36.974  1.00  0.00     0.073 C 
HETATM    5  C   UNL     1      30.238  80.659  36.215  1.00  0.00     0.075 C 
HETATM    6  C   UNL     1      32.503  80.774  36.991  1.00  0.00     0.091 C 
HETATM    7  C   UNL     1      32.350  79.504  37.554  1.00  0.00     0.062 C 
ENDROOT
BRANCH   6   8
HETATM    8  S   UNL     1      34.084  81.493  37.188  1.00  0.00     0.266 S 
HETATM    9  O   UNL     1      34.911  80.426  37.692  1.00  0.00    -0.200 OA
HETATM   10  O   UNL     1      33.877  82.648  38.031  1.00  0.00    -0.200 OA
BRANCH   8  11
HETATM   11  N   UNL     1      34.780  82.021  35.818  1.00  0.00    -0.251 N 
HETATM   12  C   UNL     1      35.083  81.257  34.720  1.00  0.00     0.227 C 
HETATM   13  O   UNL     1      35.987  80.462  34.690  1.00  0.00    -0.273 OA
HETATM   14  C   UNL     1      34.253  81.590  33.517  1.00  0.00     0.118 C 
ATOM     15  HN  UNL     1      35.013  83.013  35.771  1.00  0.00     0.181 HD
ENDBRANCH   8  11
ENDBRANCH   6   8
BRANCH   5  16
HETATM   16  O   UNL     1      29.256  81.110  35.380  1.00  0.00    -0.360 OA
ATOM     17  HO  UNL     1      29.469  81.720  34.684  1.00  0.00     0.217 HD
ENDBRANCH   5  16
BRANCH   1  18
HETATM   18  O   UNL     1      30.772  78.355  38.915  1.00  0.00    -0.361 OA
ATOM     19  HO  UNL     1      31.242  78.550  39.717  1.00  0.00     0.217 HD
ENDBRANCH   1  18
TORSDOF 4
ENDMDL
