MODEL 1
REMARK VINA RESULT:      -6.9      0.000      0.000
REMARK  2 active torsions:
REMARK  status: ('A' for Active; 'I' for Inactive)
REMARK    1  A    between atoms: P_10  and  C_13 
REMARK    2  A    between atoms: C_16  and  S_17 
ROOT
HETATM    1  C   UNL     1      66.345  57.485  -1.453  1.00  0.00     0.113 C 
HETATM    2  O   UNL     1      64.643  60.445  -1.056  1.00  0.00    -0.266 OA
HETATM    3  C   UNL     1      64.258  57.786  -3.428  1.00  0.00     0.033 C 
HETATM    4  C   UNL     1      65.097  56.710  -3.353  1.00  0.00     0.025 C 
HETATM    5  C   UNL     1      64.727  59.267  -1.468  1.00  0.00     0.269 C 
HETATM    6  N   UNL     1      65.553  58.398  -0.884  1.00  0.00    -0.331 N 
ATOM      7  HN  UNL     1      65.584  58.436   0.135  1.00  0.00     0.168 HD
HETATM    8  C   UNL     1      66.070  56.535  -2.403  1.00  0.00     0.083 C 
HETATM    9  C   UNL     1      63.920  58.829  -2.622  1.00  0.00     0.148 C 
ENDROOT
BRANCH   8  10
HETATM   10  P   UNL     1      67.033  55.048  -2.283  1.00  0.00     0.297 P 
HETATM   11  O   UNL     1      66.087  53.914  -2.364  1.00  0.00    -0.636 OA
HETATM   12  O   UNL     1      67.762  55.249  -1.012  1.00  0.00    -0.636 OA
HETATM   13  O   UNL     1      67.940  55.162  -3.490  1.00  0.00    -0.636 OA
ENDBRANCH   8  10
BRANCH   9  14
HETATM   14  S   UNL     1      62.598  59.910  -3.071  1.00  0.00     0.143 S 
HETATM   15  O   UNL     1      61.611  59.743  -2.018  1.00  0.00    -0.591 OA
HETATM   16  O   UNL     1      63.187  61.220  -3.281  1.00  0.00    -0.591 OA
HETATM   17  O   UNL     1      62.080  59.440  -4.365  1.00  0.00    -0.591 OA
ENDBRANCH   9  14
TORSDOF 2
ENDMDL
MODEL 2
REMARK VINA RESULT:      -6.6      2.637      5.534
REMARK  2 active torsions:
REMARK  status: ('A' for Active; 'I' for Inactive)
REMARK    1  A    between atoms: P_10  and  C_13 
REMARK    2  A    between atoms: C_16  and  S_17 
ROOT
HETATM    1  C   UNL     1      64.439  59.817  -1.658  1.00  0.00     0.113 C 
HETATM    2  O   UNL     1      67.320  58.509  -0.313  1.00  0.00    -0.266 OA
HETATM    3  C   UNL     1      65.076  57.242  -2.805  1.00  0.00     0.033 C 
HETATM    4  C   UNL     1      63.983  57.987  -3.147  1.00  0.00     0.025 C 
HETATM    5  C   UNL     1      66.466  58.593  -1.223  1.00  0.00     0.269 C 
HETATM    6  N   UNL     1      65.741  59.701  -1.377  1.00  0.00    -0.331 N 
ATOM      7  HN  UNL     1      66.247  60.579  -1.264  1.00  0.00     0.168 HD
HETATM    8  C   UNL     1      63.683  59.225  -2.638  1.00  0.00     0.083 C 
HETATM    9  C   UNL     1      66.239  57.452  -2.131  1.00  0.00     0.148 C 
ENDROOT
BRANCH   8  10
HETATM   10  P   UNL     1      62.320  60.197  -3.228  1.00  0.00     0.297 P 
HETATM   11  O   UNL     1      62.824  61.575  -3.419  1.00  0.00    -0.636 OA
HETATM   12  O   UNL     1      61.300  59.976  -2.180  1.00  0.00    -0.636 OA
HETATM   13  O   UNL     1      61.973  59.499  -4.526  1.00  0.00    -0.636 OA
ENDBRANCH   8  10
BRANCH   9  14
HETATM   14  S   UNL     1      67.490  56.206  -2.100  1.00  0.00     0.143 S 
HETATM   15  O   UNL     1      68.735  56.926  -2.303  1.00  0.00    -0.591 OA
HETATM   16  O   UNL     1      67.301  55.460  -0.870  1.00  0.00    -0.591 OA
HETATM   17  O   UNL     1      67.213  55.295  -3.222  1.00  0.00    -0.591 OA
ENDBRANCH   9  14
TORSDOF 2
ENDMDL
MODEL 3
REMARK VINA RESULT:      -6.3      2.960      5.159
REMARK  2 active torsions:
REMARK  status: ('A' for Active; 'I' for Inactive)
REMARK    1  A    between atoms: P_10  and  C_13 
REMARK    2  A    between atoms: C_16  and  S_17 
ROOT
HETATM    1  C   UNL     1      65.135  59.225  -1.804  1.00  0.00     0.113 C 
HETATM    2  O   UNL     1      64.270  57.212  -4.452  1.00  0.00    -0.266 OA
HETATM    3  C   UNL     1      66.580  56.724  -1.756  1.00  0.00     0.033 C 
HETATM    4  C   UNL     1      66.731  57.717  -0.830  1.00  0.00     0.025 C 
HETATM    5  C   UNL     1      64.728  57.385  -3.301  1.00  0.00     0.269 C 
HETATM    6  N   UNL     1      64.373  58.449  -2.580  1.00  0.00    -0.331 N 
ATOM      7  HN  UNL     1      63.386  58.704  -2.626  1.00  0.00     0.168 HD
HETATM    8  C   UNL     1      66.030  58.896  -0.818  1.00  0.00     0.083 C 
HETATM    9  C   UNL     1      65.686  56.418  -2.735  1.00  0.00     0.148 C 
ENDROOT
BRANCH   8  10
HETATM   10  P   UNL     1      66.177  60.084   0.493  1.00  0.00     0.297 P 
HETATM   11  O   UNL     1      66.567  61.367  -0.130  1.00  0.00    -0.636 OA
HETATM   12  O   UNL     1      67.150  59.434   1.398  1.00  0.00    -0.636 OA
HETATM   13  O   UNL     1      64.776  60.095   1.067  1.00  0.00    -0.636 OA
ENDBRANCH   8  10
BRANCH   9  14
HETATM   14  S   UNL     1      65.790  54.874  -3.586  1.00  0.00     0.143 S 
HETATM   15  O   UNL     1      64.479  54.273  -3.424  1.00  0.00    -0.591 OA
HETATM   16  O   UNL     1      66.266  55.171  -4.924  1.00  0.00    -0.591 OA
HETATM   17  O   UNL     1      66.827  54.080  -2.908  1.00  0.00    -0.591 OA
ENDBRANCH   9  14
TORSDOF 2
ENDMDL
MODEL 4
REMARK VINA RESULT:      -6.2      3.220      5.647
REMARK  2 active torsions:
REMARK  status: ('A' for Active; 'I' for Inactive)
REMARK    1  A    between atoms: P_10  and  C_13 
REMARK    2  A    between atoms: C_16  and  S_17 
ROOT
HETATM    1  C   UNL     1      65.147  58.337  -1.753  1.00  0.00     0.113 C 
HETATM    2  O   UNL     1      65.017  55.834  -4.105  1.00  0.00    -0.266 OA
HETATM    3  C   UNL     1      67.628  56.862  -1.876  1.00  0.00     0.033 C 
HETATM    4  C   UNL     1      67.401  57.915  -1.036  1.00  0.00     0.025 C 
HETATM    5  C   UNL     1      65.491  56.352  -3.069  1.00  0.00     0.269 C 
HETATM    6  N   UNL     1      64.765  57.198  -2.338  1.00  0.00    -0.331 N 
ATOM      7  HN  UNL     1      63.786  56.942  -2.208  1.00  0.00     0.168 HD
HETATM    8  C   UNL     1      66.220  58.605  -0.940  1.00  0.00     0.083 C 
HETATM    9  C   UNL     1      66.871  56.042  -2.654  1.00  0.00     0.148 C 
ENDROOT
BRANCH   8  10
HETATM   10  P   UNL     1      65.949  59.876   0.269  1.00  0.00     0.297 P 
HETATM   11  O   UNL     1      64.557  59.726   0.747  1.00  0.00    -0.636 OA
HETATM   12  O   UNL     1      66.291  61.103  -0.482  1.00  0.00    -0.636 OA
HETATM   13  O   UNL     1      66.985  59.537   1.320  1.00  0.00    -0.636 OA
ENDBRANCH   8  10
BRANCH   9  14
HETATM   14  S   UNL     1      67.600  54.641  -3.446  1.00  0.00     0.143 S 
HETATM   15  O   UNL     1      66.856  53.502  -2.940  1.00  0.00    -0.591 OA
HETATM   16  O   UNL     1      67.583  54.916  -4.871  1.00  0.00    -0.591 OA
HETATM   17  O   UNL     1      69.007  54.591  -3.017  1.00  0.00    -0.591 OA
ENDBRANCH   9  14
TORSDOF 2
ENDMDL
MODEL 5
REMARK VINA RESULT:      -6.1      4.511      6.496
REMARK  2 active torsions:
REMARK  status: ('A' for Active; 'I' for Inactive)
REMARK    1  A    between atoms: P_10  and  C_13 
REMARK    2  A    between atoms: C_16  and  S_17 
ROOT
HETATM    1  C   UNL     1      67.729  53.843  -3.770  1.00  0.00     0.113 C 
HETATM    2  O   UNL     1      67.036  51.586  -6.269  1.00  0.00    -0.266 OA
HETATM    3  C   UNL     1      64.887  53.612  -4.239  1.00  0.00     0.033 C 
HETATM    4  C   UNL     1      65.447  54.430  -3.299  1.00  0.00     0.025 C 
HETATM    5  C   UNL     1      66.739  52.573  -5.559  1.00  0.00     0.269 C 
HETATM    6  N   UNL     1      67.691  53.320  -4.999  1.00  0.00    -0.331 N 
ATOM      7  HN  UNL     1      68.499  53.519  -5.589  1.00  0.00     0.168 HD
HETATM    8  C   UNL     1      66.794  54.577  -3.085  1.00  0.00     0.083 C 
HETATM    9  C   UNL     1      65.324  52.910  -5.320  1.00  0.00     0.148 C 
ENDROOT
BRANCH   8  10
HETATM   10  P   UNL     1      67.458  55.759  -1.939  1.00  0.00     0.297 P 
HETATM   11  O   UNL     1      68.762  56.198  -2.480  1.00  0.00    -0.636 OA
HETATM   12  O   UNL     1      67.458  55.000  -0.670  1.00  0.00    -0.636 OA
HETATM   13  O   UNL     1      66.402  56.845  -1.959  1.00  0.00    -0.636 OA
ENDBRANCH   8  10
BRANCH   9  14
HETATM   14  S   UNL     1      64.168  52.120  -6.396  1.00  0.00     0.143 S 
HETATM   15  O   UNL     1      64.648  52.415  -7.734  1.00  0.00    -0.591 OA
HETATM   16  O   UNL     1      64.084  50.736  -5.968  1.00  0.00    -0.591 OA
HETATM   17  O   UNL     1      62.859  52.744  -6.150  1.00  0.00    -0.591 OA
ENDBRANCH   9  14
TORSDOF 2
ENDMDL
MODEL 6
REMARK VINA RESULT:      -5.9      4.508      6.499
REMARK  2 active torsions:
REMARK  status: ('A' for Active; 'I' for Inactive)
REMARK    1  A    between atoms: P_10  and  C_13 
REMARK    2  A    between atoms: C_16  and  S_17 
ROOT
HETATM    1  C   UNL     1      65.447  54.752  -3.103  1.00  0.00     0.113 C 
HETATM    2  O   UNL     1      63.269  53.005  -5.109  1.00  0.00    -0.266 OA
HETATM    3  C   UNL     1      66.846  53.232  -5.122  1.00  0.00     0.033 C 
HETATM    4  C   UNL     1      67.460  54.024  -4.193  1.00  0.00     0.025 C 
HETATM    5  C   UNL     1      64.399  53.190  -4.605  1.00  0.00     0.269 C 
HETATM    6  N   UNL     1      64.532  53.842  -3.450  1.00  0.00    -0.331 N 
ATOM      7  HN  UNL     1      63.841  53.615  -2.734  1.00  0.00     0.168 HD
HETATM    8  C   UNL     1      66.814  54.726  -3.207  1.00  0.00     0.083 C 
HETATM    9  C   UNL     1      65.605  52.701  -5.299  1.00  0.00     0.148 C 
ENDROOT
BRANCH   8  10
HETATM   10  P   UNL     1      67.683  55.627  -1.949  1.00  0.00     0.297 P 
HETATM   11  O   UNL     1      69.103  55.682  -2.361  1.00  0.00    -0.636 OA
HETATM   12  O   UNL     1      67.349  54.863  -0.728  1.00  0.00    -0.636 OA
HETATM   13  O   UNL     1      66.992  56.974  -1.992  1.00  0.00    -0.636 OA
ENDBRANCH   8  10
BRANCH   9  14
HETATM   14  S   UNL     1      65.310  51.535  -6.592  1.00  0.00     0.143 S 
HETATM   15  O   UNL     1      64.568  50.460  -5.958  1.00  0.00    -0.591 OA
HETATM   16  O   UNL     1      64.693  52.271  -7.680  1.00  0.00    -0.591 OA
HETATM   17  O   UNL     1      66.626  51.070  -7.057  1.00  0.00    -0.591 OA
ENDBRANCH   9  14
TORSDOF 2
ENDMDL
MODEL 7
REMARK VINA RESULT:      -5.9      4.506      6.222
REMARK  2 active torsions:
REMARK  status: ('A' for Active; 'I' for Inactive)
REMARK    1  A    between atoms: P_10  and  C_13 
REMARK    2  A    between atoms: C_16  and  S_17 
ROOT
HETATM    1  C   UNL     1      66.684  52.617  -5.387  1.00  0.00     0.113 C 
HETATM    2  O   UNL     1      69.185  53.924  -3.424  1.00  0.00    -0.266 OA
HETATM    3  C   UNL     1      65.743  54.847  -3.810  1.00  0.00     0.033 C 
HETATM    4  C   UNL     1      64.966  54.143  -4.685  1.00  0.00     0.025 C 
HETATM    5  C   UNL     1      67.978  53.731  -3.690  1.00  0.00     0.269 C 
HETATM    6  N   UNL     1      67.601  52.679  -4.417  1.00  0.00    -0.331 N 
ATOM      7  HN  UNL     1      68.077  51.802  -4.204  1.00  0.00     0.168 HD
HETATM    8  C   UNL     1      65.386  53.061  -5.416  1.00  0.00     0.083 C 
HETATM    9  C   UNL     1      66.955  54.681  -3.215  1.00  0.00     0.148 C 
ENDROOT
BRANCH   8  10
HETATM   10  P   UNL     1      64.287  52.107  -6.432  1.00  0.00     0.297 P 
HETATM   11  O   UNL     1      64.349  50.712  -5.942  1.00  0.00    -0.636 OA
HETATM   12  O   UNL     1      64.797  52.383  -7.792  1.00  0.00    -0.636 OA
HETATM   13  O   UNL     1      62.954  52.777  -6.170  1.00  0.00    -0.636 OA
ENDBRANCH   8  10
BRANCH   9  14
HETATM   14  S   UNL     1      67.493  55.801  -1.959  1.00  0.00     0.143 S 
HETATM   15  O   UNL     1      67.524  55.006  -0.744  1.00  0.00    -0.591 OA
HETATM   16  O   UNL     1      68.724  56.400  -2.439  1.00  0.00    -0.591 OA
HETATM   17  O   UNL     1      66.481  56.865  -1.872  1.00  0.00    -0.591 OA
ENDBRANCH   9  14
TORSDOF 2
ENDMDL
MODEL 8
REMARK VINA RESULT:      -5.6      4.697      6.342
REMARK  2 active torsions:
REMARK  status: ('A' for Active; 'I' for Inactive)
REMARK    1  A    between atoms: P_10  and  C_13 
REMARK    2  A    between atoms: C_16  and  S_17 
ROOT
HETATM    1  C   UNL     1      63.697  52.959  -5.522  1.00  0.00     0.113 C 
HETATM    2  O   UNL     1      65.024  56.069  -4.902  1.00  0.00    -0.266 OA
HETATM    3  C   UNL     1      65.262  52.983  -3.093  1.00  0.00     0.033 C 
HETATM    4  C   UNL     1      64.613  51.884  -3.578  1.00  0.00     0.025 C 
HETATM    5  C   UNL     1      65.017  54.825  -4.768  1.00  0.00     0.269 C 
HETATM    6  N   UNL     1      64.459  54.044  -5.692  1.00  0.00    -0.331 N 
ATOM      7  HN  UNL     1      64.637  54.310  -6.661  1.00  0.00     0.168 HD
HETATM    8  C   UNL     1      63.893  51.845  -4.745  1.00  0.00     0.083 C 
HETATM    9  C   UNL     1      65.616  54.208  -3.569  1.00  0.00     0.148 C 
ENDROOT
BRANCH   8  10
HETATM   10  P   UNL     1      63.189  50.347  -5.386  1.00  0.00     0.297 P 
HETATM   11  O   UNL     1      61.807  50.666  -5.806  1.00  0.00    -0.636 OA
HETATM   12  O   UNL     1      63.367  49.408  -4.258  1.00  0.00    -0.636 OA
HETATM   13  O   UNL     1      64.112  50.035  -6.546  1.00  0.00    -0.636 OA
ENDBRANCH   8  10
BRANCH   9  14
HETATM   14  S   UNL     1      66.655  55.270  -2.614  1.00  0.00     0.143 S 
HETATM   15  O   UNL     1      67.894  55.350  -3.367  1.00  0.00    -0.591 OA
HETATM   16  O   UNL     1      65.897  56.485  -2.376  1.00  0.00    -0.591 OA
HETATM   17  O   UNL     1      66.863  54.610  -1.316  1.00  0.00    -0.591 OA
ENDBRANCH   9  14
TORSDOF 2
ENDMDL
MODEL 9
REMARK VINA RESULT:      -5.5      2.907      6.032
REMARK  2 active torsions:
REMARK  status: ('A' for Active; 'I' for Inactive)
REMARK    1  A    between atoms: P_10  and  C_13 
REMARK    2  A    between atoms: C_16  and  S_17 
ROOT
HETATM    1  C   UNL     1      63.957  58.166  -5.071  1.00  0.00     0.113 C 
HETATM    2  O   UNL     1      65.987  55.471  -5.727  1.00  0.00    -0.266 OA
HETATM    3  C   UNL     1      65.151  57.121  -2.657  1.00  0.00     0.033 C 
HETATM    4  C   UNL     1      64.307  58.194  -2.694  1.00  0.00     0.025 C 
HETATM    5  C   UNL     1      65.272  56.154  -4.960  1.00  0.00     0.269 C 
HETATM    6  N   UNL     1      64.303  56.931  -5.444  1.00  0.00    -0.331 N 
ATOM      7  HN  UNL     1      63.751  56.528  -6.202  1.00  0.00     0.168 HD
HETATM    8  C   UNL     1      63.705  58.684  -3.825  1.00  0.00     0.083 C 
HETATM    9  C   UNL     1      65.507  56.118  -3.505  1.00  0.00     0.148 C 
ENDROOT
BRANCH   8  10
HETATM   10  P   UNL     1      62.512  59.997  -3.783  1.00  0.00     0.297 P 
HETATM   11  O   UNL     1      61.559  59.679  -2.698  1.00  0.00    -0.636 OA
HETATM   12  O   UNL     1      62.001  60.003  -5.170  1.00  0.00    -0.636 OA
HETATM   13  O   UNL     1      63.381  61.202  -3.485  1.00  0.00    -0.636 OA
ENDBRANCH   8  10
BRANCH   9  14
HETATM   14  S   UNL     1      66.527  54.791  -2.939  1.00  0.00     0.143 S 
HETATM   15  O   UNL     1      65.773  53.589  -3.245  1.00  0.00    -0.591 OA
HETATM   16  O   UNL     1      67.829  54.980  -3.551  1.00  0.00    -0.591 OA
HETATM   17  O   UNL     1      66.687  54.964  -1.486  1.00  0.00    -0.591 OA
ENDBRANCH   9  14
TORSDOF 2
ENDMDL
