REMARK  2 active torsions:
REMARK  status: ('A' for Active; 'I' for Inactive)
REMARK    1  A    between atoms: N_7  and  C_9 
REMARK    2  A    between atoms: C_9  and  O_10 
ROOT
HETATM    1  O   UNL     1      13.365   0.451   9.501  1.00  0.00    -0.273 OA
HETATM    2  C   UNL     1      13.899   2.083  12.641  1.00  0.00     0.062 C 
HETATM    3  C   UNL     1      14.080   0.896  15.263  1.00  0.00     0.121 C 
HETATM    4  C   UNL     1      14.241   1.991  11.164  1.00  0.00     0.115 C 
HETATM    5  C   UNL     1      14.302   2.392  15.033  1.00  0.00     0.020 C 
HETATM    6  N   UNL     1      12.983   0.084  11.743  1.00  0.00    -0.267 N 
HETATM    7  C   UNL     1      13.535   0.639  12.974  1.00  0.00     0.089 C 
HETATM    8  C   UNL     1      14.952   2.511  13.660  1.00  0.00     0.014 C 
HETATM    9  C   UNL     1      13.431   0.814  10.659  1.00  0.00     0.229 C 
HETATM   10  N   UNL     1      13.001   0.484  14.321  1.00  0.00    -0.379 N 
ATOM     11  HN  UNL     1      12.068   0.156  14.571  1.00  0.00     0.160 HD
ENDROOT
BRANCH   6  12
HETATM   12  C   UNL     1      11.981  -0.976  11.762  1.00  0.00     0.180 C 
HETATM   13  C   UNL     1      10.589  -0.434  11.760  1.00  0.00     0.038 C 
HETATM   14  C   UNL     1       9.528  -1.298  11.444  1.00  0.00     0.001 C 
HETATM   15  C   UNL     1       9.786  -2.582  10.945  1.00  0.00    -0.000 C 
HETATM   16  C   UNL     1      11.062  -2.865  10.420  1.00  0.00     0.001 C 
HETATM   17  C   UNL     1      12.134  -1.988  10.664  1.00  0.00     0.038 C 
BRANCH  12  18
HETATM   18  O   UNL     1      12.180  -1.667  12.984  1.00  0.00    -0.363 OA
ATOM     19  HO  UNL     1      13.065  -2.012  12.985  1.00  0.00     0.213 HD
ENDBRANCH  12  18
ENDBRANCH   6  12
TORSDOF 2
