MODEL 1
REMARK VINA RESULT:      -9.9      0.000      0.000
REMARK  4 active torsions:
REMARK  status: ('A' for Active; 'I' for Inactive)
REMARK    1  A    between atoms: C_5  and  O_23 
REMARK    2  A    between atoms: N_8  and  C_25 
REMARK    3  A    between atoms: C_17  and  C_20 
REMARK    4  A    between atoms: C_19  and  C_27 
ROOT
HETATM    1  C   UNL     1      16.892   2.506  -3.575  1.00  0.00     0.127 C 
HETATM    2  C   UNL     1      20.340   1.715  -3.181  1.00  0.00     0.043 C 
HETATM    3  C   UNL     1      19.044   1.843  -2.665  1.00  0.00    -0.005 C 
HETATM    4  N   UNL     1      16.612   2.902  -2.280  1.00  0.00    -0.331 N 
HETATM    5  C   UNL     1      18.554   1.898  -1.343  1.00  0.00     0.031 C 
HETATM    6  C   UNL     1      17.241   2.269  -1.215  1.00  0.00     0.097 C 
HETATM    7  N   UNL     1      18.894   1.703  -4.883  1.00  0.00    -0.354 N 
ATOM      8  HN  UNL     1      18.526   1.475  -5.807  1.00  0.00     0.166 HD
HETATM    9  C   UNL     1      20.208   1.832  -4.559  1.00  0.00     0.035 C 
HETATM   10  C   UNL     1      18.149   1.932  -3.757  1.00  0.00     0.059 C 
ENDROOT
BRANCH   4  11
HETATM   11  C   UNL     1      15.583   3.706  -1.895  1.00  0.00     0.039 C 
HETATM   12  C   UNL     1      15.929   4.862  -1.197  1.00  0.00     0.042 C 
HETATM   13  C   UNL     1      14.969   5.811  -0.876  1.00  0.00    -0.024 C 
HETATM   14  C   UNL     1      13.844   5.851  -1.696  1.00  0.00     0.012 C 
HETATM   15  C   UNL     1      13.450   4.692  -2.370  1.00  0.00     0.003 C 
HETATM   16  C   UNL     1      14.290   3.578  -2.382  1.00  0.00     0.030 C 
BRANCH  13  17
HETATM   17  C   UNL     1      15.074   6.498   0.345  1.00  0.00    -0.023 C 
HETATM   18  C   UNL     1      14.011   7.313   0.737  1.00  0.00     0.012 C 
HETATM   19  C   UNL     1      14.241   8.402   1.566  1.00  0.00     0.004 C 
HETATM   20  C   UNL     1      15.497   8.604   2.107  1.00  0.00     0.036 C 
HETATM   21  C   UNL     1      16.495   7.659   1.885  1.00  0.00     0.066 C 
HETATM   22  C   UNL     1      16.210   6.490   1.162  1.00  0.00     0.048 C 
BRANCH  21  23
HETATM   23  O   UNL     1      17.752   7.906   2.333  1.00  0.00    -0.361 OA
ATOM     24  HO  UNL     1      18.493   7.564   1.847  1.00  0.00     0.217 HD
ENDBRANCH  21  23
ENDBRANCH  13  17
ENDBRANCH   4  11
BRANCH   9  25
HETATM   25  C   UNL     1      21.073   2.692  -5.381  1.00  0.00    -0.053 C 
HETATM   26  C   UNL     1      21.973   3.702  -4.800  1.00  0.00     0.036 C 
HETATM   27  C   UNL     1      22.694   4.305  -5.974  1.00  0.00     0.005 C 
HETATM   28  C   UNL     1      22.157   3.657  -7.241  1.00  0.00     0.005 C 
HETATM   29  C   UNL     1      21.463   2.412  -6.774  1.00  0.00     0.036 C 
ENDBRANCH   9  25
TORSDOF 4
ENDMDL
MODEL 2
REMARK VINA RESULT:      -9.9      3.394      5.253
REMARK  4 active torsions:
REMARK  status: ('A' for Active; 'I' for Inactive)
REMARK    1  A    between atoms: C_5  and  O_23 
REMARK    2  A    between atoms: N_8  and  C_25 
REMARK    3  A    between atoms: C_17  and  C_20 
REMARK    4  A    between atoms: C_19  and  C_27 
ROOT
HETATM    1  C   UNL     1      17.034   2.144  -3.854  1.00  0.00     0.127 C 
HETATM    2  C   UNL     1      20.329   1.868  -2.537  1.00  0.00     0.043 C 
HETATM    3  C   UNL     1      18.945   2.000  -2.363  1.00  0.00    -0.005 C 
HETATM    4  N   UNL     1      16.450   2.861  -2.826  1.00  0.00    -0.331 N 
HETATM    5  C   UNL     1      18.165   2.377  -1.250  1.00  0.00     0.031 C 
HETATM    6  C   UNL     1      16.843   2.628  -1.514  1.00  0.00     0.097 C 
HETATM    7  N   UNL     1      19.312   1.218  -4.417  1.00  0.00    -0.354 N 
ATOM      8  HN  UNL     1      19.174   0.699  -5.283  1.00  0.00     0.166 HD
HETATM    9  C   UNL     1      20.511   1.572  -3.883  1.00  0.00     0.035 C 
HETATM   10  C   UNL     1      18.321   1.679  -3.591  1.00  0.00     0.059 C 
ENDROOT
BRANCH   4  11
HETATM   11  C   UNL     1      15.329   3.629  -2.923  1.00  0.00     0.039 C 
HETATM   12  C   UNL     1      14.209   3.018  -3.485  1.00  0.00     0.042 C 
HETATM   13  C   UNL     1      12.984   3.668  -3.509  1.00  0.00    -0.024 C 
HETATM   14  C   UNL     1      12.781   4.637  -2.529  1.00  0.00     0.012 C 
HETATM   15  C   UNL     1      13.886   5.296  -1.984  1.00  0.00     0.003 C 
HETATM   16  C   UNL     1      15.174   4.841  -2.268  1.00  0.00     0.030 C 
BRANCH  13  17
HETATM   17  C   UNL     1      12.137   3.482  -4.615  1.00  0.00    -0.023 C 
HETATM   18  C   UNL     1      11.035   4.328  -4.751  1.00  0.00     0.012 C 
HETATM   19  C   UNL     1       9.904   3.889  -5.425  1.00  0.00     0.004 C 
HETATM   20  C   UNL     1       9.916   2.668  -6.073  1.00  0.00     0.036 C 
HETATM   21  C   UNL     1      11.097   1.931  -6.115  1.00  0.00     0.066 C 
HETATM   22  C   UNL     1      12.272   2.451  -5.550  1.00  0.00     0.048 C 
BRANCH  21  23
HETATM   23  O   UNL     1      11.083   0.690  -6.664  1.00  0.00    -0.361 OA
ATOM     24  HO  UNL     1      10.674   0.563  -7.512  1.00  0.00     0.217 HD
ENDBRANCH  21  23
ENDBRANCH  13  17
ENDBRANCH   4  11
BRANCH   9  25
HETATM   25  C   UNL     1      21.507   2.249  -4.727  1.00  0.00    -0.053 C 
HETATM   26  C   UNL     1      21.150   3.312  -5.682  1.00  0.00     0.036 C 
HETATM   27  C   UNL     1      22.456   3.748  -6.286  1.00  0.00     0.005 C 
HETATM   28  C   UNL     1      23.562   2.885  -5.697  1.00  0.00     0.005 C 
HETATM   29  C   UNL     1      22.957   2.269  -4.470  1.00  0.00     0.036 C 
ENDBRANCH   9  25
TORSDOF 4
ENDMDL
MODEL 3
REMARK VINA RESULT:      -9.8      1.906      2.374
REMARK  4 active torsions:
REMARK  status: ('A' for Active; 'I' for Inactive)
REMARK    1  A    between atoms: C_5  and  O_23 
REMARK    2  A    between atoms: N_8  and  C_25 
REMARK    3  A    between atoms: C_17  and  C_20 
REMARK    4  A    between atoms: C_19  and  C_27 
ROOT
HETATM    1  C   UNL     1      15.085   2.513  -3.465  1.00  0.00     0.127 C 
HETATM    2  C   UNL     1      18.336   1.434  -4.431  1.00  0.00     0.043 C 
HETATM    3  C   UNL     1      17.432   1.892  -3.464  1.00  0.00    -0.005 C 
HETATM    4  N   UNL     1      15.435   3.335  -2.409  1.00  0.00    -0.331 N 
HETATM    5  C   UNL     1      17.622   2.429  -2.173  1.00  0.00     0.031 C 
HETATM    6  C   UNL     1      16.513   2.994  -1.600  1.00  0.00     0.097 C 
HETATM    7  N   UNL     1      16.259   1.076  -5.173  1.00  0.00    -0.354 N 
ATOM      8  HN  UNL     1      15.508   0.618  -5.687  1.00  0.00     0.166 HD
HETATM    9  C   UNL     1      17.566   1.124  -5.546  1.00  0.00     0.035 C 
HETATM   10  C   UNL     1      16.126   1.749  -3.987  1.00  0.00     0.059 C 
ENDROOT
BRANCH   4  11
HETATM   11  C   UNL     1      14.682   4.350  -1.902  1.00  0.00     0.039 C 
HETATM   12  C   UNL     1      15.359   5.297  -1.134  1.00  0.00     0.042 C 
HETATM   13  C   UNL     1      14.710   6.438  -0.683  1.00  0.00    -0.024 C 
HETATM   14  C   UNL     1      13.614   6.860  -1.430  1.00  0.00     0.012 C 
HETATM   15  C   UNL     1      12.892   5.920  -2.171  1.00  0.00     0.003 C 
HETATM   16  C   UNL     1      13.390   4.625  -2.322  1.00  0.00     0.030 C 
BRANCH  13  17
HETATM   17  C   UNL     1      15.043   6.953   0.582  1.00  0.00    -0.023 C 
HETATM   18  C   UNL     1      14.114   7.774   1.224  1.00  0.00     0.012 C 
HETATM   19  C   UNL     1      14.547   8.731   2.132  1.00  0.00     0.004 C 
HETATM   20  C   UNL     1      15.879   8.783   2.498  1.00  0.00     0.036 C 
HETATM   21  C   UNL     1      16.756   7.815   2.017  1.00  0.00     0.066 C 
HETATM   22  C   UNL     1      16.278   6.770   1.211  1.00  0.00     0.048 C 
BRANCH  21  23
HETATM   23  O   UNL     1      18.080   7.924   2.297  1.00  0.00    -0.361 OA
ATOM     24  HO  UNL     1      18.403   7.617   3.136  1.00  0.00     0.217 HD
ENDBRANCH  21  23
ENDBRANCH  13  17
ENDBRANCH   4  11
BRANCH   9  25
HETATM   25  C   UNL     1      17.913   1.553  -6.908  1.00  0.00    -0.053 C 
HETATM   26  C   UNL     1      17.006   2.358  -7.744  1.00  0.00     0.036 C 
HETATM   27  C   UNL     1      17.766   2.608  -9.017  1.00  0.00     0.005 C 
HETATM   28  C   UNL     1      19.105   1.893  -8.916  1.00  0.00     0.005 C 
HETATM   29  C   UNL     1      19.280   1.607  -7.454  1.00  0.00     0.036 C 
ENDBRANCH   9  25
TORSDOF 4
ENDMDL
MODEL 4
REMARK VINA RESULT:      -9.2      3.036      8.398
REMARK  4 active torsions:
REMARK  status: ('A' for Active; 'I' for Inactive)
REMARK    1  A    between atoms: C_5  and  O_23 
REMARK    2  A    between atoms: N_8  and  C_25 
REMARK    3  A    between atoms: C_17  and  C_20 
REMARK    4  A    between atoms: C_19  and  C_27 
ROOT
HETATM    1  C   UNL     1      14.481   1.585  -3.902  1.00  0.00     0.127 C 
HETATM    2  C   UNL     1      12.700   4.646  -3.551  1.00  0.00     0.043 C 
HETATM    3  C   UNL     1      13.114   3.549  -4.316  1.00  0.00    -0.005 C 
HETATM    4  N   UNL     1      14.751   1.646  -5.257  1.00  0.00    -0.331 N 
HETATM    5  C   UNL     1      13.115   3.313  -5.707  1.00  0.00     0.031 C 
HETATM    6  C   UNL     1      13.820   2.212  -6.119  1.00  0.00     0.097 C 
HETATM    7  N   UNL     1      13.341   3.016  -2.165  1.00  0.00    -0.354 N 
ATOM      8  HN  UNL     1      13.361   2.456  -1.313  1.00  0.00     0.166 HD
HETATM    9  C   UNL     1      13.046   4.341  -2.240  1.00  0.00     0.035 C 
HETATM   10  C   UNL     1      13.608   2.563  -3.430  1.00  0.00     0.059 C 
ENDROOT
BRANCH   4  11
HETATM   11  C   UNL     1      15.750   0.983  -5.903  1.00  0.00     0.039 C 
HETATM   12  C   UNL     1      16.903   0.732  -5.164  1.00  0.00     0.042 C 
HETATM   13  C   UNL     1      17.925  -0.050  -5.687  1.00  0.00    -0.024 C 
HETATM   14  C   UNL     1      17.557  -0.971  -6.664  1.00  0.00     0.012 C 
HETATM   15  C   UNL     1      16.430  -0.716  -7.450  1.00  0.00     0.003 C 
HETATM   16  C   UNL     1      15.575   0.335  -7.117  1.00  0.00     0.030 C 
BRANCH  13  17
HETATM   17  C   UNL     1      19.256   0.277  -5.377  1.00  0.00    -0.023 C 
HETATM   18  C   UNL     1      20.249  -0.661  -5.666  1.00  0.00     0.012 C 
HETATM   19  C   UNL     1      21.422  -0.680  -4.924  1.00  0.00     0.004 C 
HETATM   20  C   UNL     1      21.662   0.309  -3.988  1.00  0.00     0.036 C 
HETATM   21  C   UNL     1      20.763   1.364  -3.865  1.00  0.00     0.066 C 
HETATM   22  C   UNL     1      19.652   1.446  -4.719  1.00  0.00     0.048 C 
BRANCH  21  23
HETATM   23  O   UNL     1      20.948   2.280  -2.881  1.00  0.00    -0.361 OA
ATOM     24  HO  UNL     1      20.440   2.210  -2.081  1.00  0.00     0.217 HD
ENDBRANCH  21  23
ENDBRANCH  13  17
ENDBRANCH   4  11
BRANCH   9  25
HETATM   25  C   UNL     1      13.734   5.286  -1.348  1.00  0.00    -0.053 C 
HETATM   26  C   UNL     1      14.762   4.864  -0.383  1.00  0.00     0.036 C 
HETATM   27  C   UNL     1      15.227   6.134   0.274  1.00  0.00     0.005 C 
HETATM   28  C   UNL     1      14.414   7.286  -0.297  1.00  0.00     0.005 C 
HETATM   29  C   UNL     1      13.807   6.743  -1.557  1.00  0.00     0.036 C 
ENDBRANCH   9  25
TORSDOF 4
ENDMDL
MODEL 5
REMARK VINA RESULT:      -9.2      3.509      5.455
REMARK  4 active torsions:
REMARK  status: ('A' for Active; 'I' for Inactive)
REMARK    1  A    between atoms: C_5  and  O_23 
REMARK    2  A    between atoms: N_8  and  C_25 
REMARK    3  A    between atoms: C_17  and  C_20 
REMARK    4  A    between atoms: C_19  and  C_27 
ROOT
HETATM    1  C   UNL     1      17.183   2.034  -3.912  1.00  0.00     0.127 C 
HETATM    2  C   UNL     1      20.427   1.946  -2.451  1.00  0.00     0.043 C 
HETATM    3  C   UNL     1      19.033   2.026  -2.340  1.00  0.00    -0.005 C 
HETATM    4  N   UNL     1      16.527   2.764  -2.937  1.00  0.00    -0.331 N 
HETATM    5  C   UNL     1      18.191   2.411  -1.275  1.00  0.00     0.031 C 
HETATM    6  C   UNL     1      16.873   2.597  -1.602  1.00  0.00     0.097 C 
HETATM    7  N   UNL     1      19.517   1.185  -4.344  1.00  0.00    -0.354 N 
ATOM      8  HN  UNL     1      19.438   0.628  -5.195  1.00  0.00     0.166 HD
HETATM    9  C   UNL     1      20.678   1.608  -3.776  1.00  0.00     0.035 C 
HETATM   10  C   UNL     1      18.474   1.633  -3.578  1.00  0.00     0.059 C 
ENDROOT
BRANCH   4  11
HETATM   11  C   UNL     1      15.381   3.480  -3.109  1.00  0.00     0.039 C 
HETATM   12  C   UNL     1      14.396   2.887  -3.897  1.00  0.00     0.042 C 
HETATM   13  C   UNL     1      13.144   3.472  -4.026  1.00  0.00    -0.024 C 
HETATM   14  C   UNL     1      12.740   4.301  -2.982  1.00  0.00     0.012 C 
HETATM   15  C   UNL     1      13.711   4.943  -2.208  1.00  0.00     0.003 C 
HETATM   16  C   UNL     1      15.054   4.593  -2.349  1.00  0.00     0.030 C 
BRANCH  13  17
HETATM   17  C   UNL     1      12.476   3.382  -5.259  1.00  0.00    -0.023 C 
HETATM   18  C   UNL     1      11.254   2.708  -5.299  1.00  0.00     0.012 C 
HETATM   19  C   UNL     1      10.835   2.101  -6.474  1.00  0.00     0.004 C 
HETATM   20  C   UNL     1      11.562   2.273  -7.637  1.00  0.00     0.036 C 
HETATM   21  C   UNL     1      12.660   3.129  -7.634  1.00  0.00     0.066 C 
HETATM   22  C   UNL     1      12.990   3.847  -6.474  1.00  0.00     0.048 C 
BRANCH  21  23
HETATM   23  O   UNL     1      13.430   3.221  -8.748  1.00  0.00    -0.361 OA
ATOM     24  HO  UNL     1      14.372   3.305  -8.654  1.00  0.00     0.217 HD
ENDBRANCH  21  23
ENDBRANCH  13  17
ENDBRANCH   4  11
BRANCH   9  25
HETATM   25  C   UNL     1      21.680   2.293  -4.605  1.00  0.00    -0.053 C 
HETATM   26  C   UNL     1      23.027   1.747  -4.841  1.00  0.00     0.036 C 
HETATM   27  C   UNL     1      23.691   2.728  -5.767  1.00  0.00     0.005 C 
HETATM   28  C   UNL     1      22.719   3.870  -6.021  1.00  0.00     0.005 C 
HETATM   29  C   UNL     1      21.381   3.339  -5.599  1.00  0.00     0.036 C 
ENDBRANCH   9  25
TORSDOF 4
ENDMDL
MODEL 6
REMARK VINA RESULT:      -8.8      4.053      5.320
REMARK  4 active torsions:
REMARK  status: ('A' for Active; 'I' for Inactive)
REMARK    1  A    between atoms: C_5  and  O_23 
REMARK    2  A    between atoms: N_8  and  C_25 
REMARK    3  A    between atoms: C_17  and  C_20 
REMARK    4  A    between atoms: C_19  and  C_27 
ROOT
HETATM    1  C   UNL     1      14.231   3.279  -7.849  1.00  0.00     0.127 C 
HETATM    2  C   UNL     1      16.441   0.753  -9.033  1.00  0.00     0.043 C 
HETATM    3  C   UNL     1      15.175   1.174  -8.606  1.00  0.00    -0.005 C 
HETATM    4  N   UNL     1      13.350   2.481  -7.143  1.00  0.00    -0.331 N 
HETATM    5  C   UNL     1      14.031   0.459  -8.193  1.00  0.00     0.031 C 
HETATM    6  C   UNL     1      13.042   1.210  -7.614  1.00  0.00     0.097 C 
HETATM    7  N   UNL     1      16.337   2.978  -9.203  1.00  0.00    -0.354 N 
ATOM      8  HN  UNL     1      16.545   3.906  -9.570  1.00  0.00     0.166 HD
HETATM    9  C   UNL     1      17.185   1.915  -9.202  1.00  0.00     0.035 C 
HETATM   10  C   UNL     1      15.158   2.588  -8.627  1.00  0.00     0.059 C 
ENDROOT
BRANCH   4  11
HETATM   11  C   UNL     1      12.535   2.890  -6.131  1.00  0.00     0.039 C 
HETATM   12  C   UNL     1      13.128   3.663  -5.135  1.00  0.00     0.042 C 
HETATM   13  C   UNL     1      12.360   4.239  -4.132  1.00  0.00    -0.024 C 
HETATM   14  C   UNL     1      11.023   4.478  -4.440  1.00  0.00     0.012 C 
HETATM   15  C   UNL     1      10.394   3.685  -5.403  1.00  0.00     0.003 C 
HETATM   16  C   UNL     1      11.151   2.812  -6.186  1.00  0.00     0.030 C 
BRANCH  13  17
HETATM   17  C   UNL     1      12.896   4.335  -2.836  1.00  0.00    -0.023 C 
HETATM   18  C   UNL     1      13.258   5.598  -2.365  1.00  0.00     0.012 C 
HETATM   19  C   UNL     1      14.258   5.720  -1.409  1.00  0.00     0.004 C 
HETATM   20  C   UNL     1      14.802   4.589  -0.831  1.00  0.00     0.036 C 
HETATM   21  C   UNL     1      14.277   3.339  -1.151  1.00  0.00     0.066 C 
HETATM   22  C   UNL     1      13.173   3.239  -2.011  1.00  0.00     0.048 C 
BRANCH  21  23
HETATM   23  O   UNL     1      14.875   2.225  -0.660  1.00  0.00    -0.361 OA
ATOM     24  HO  UNL     1      14.495   1.789   0.094  1.00  0.00     0.217 HD
ENDBRANCH  21  23
ENDBRANCH  13  17
ENDBRANCH   4  11
BRANCH   9  25
HETATM   25  C   UNL     1      18.549   2.079  -8.679  1.00  0.00    -0.053 C 
HETATM   26  C   UNL     1      18.854   2.088  -7.239  1.00  0.00     0.036 C 
HETATM   27  C   UNL     1      20.349   2.229  -7.156  1.00  0.00     0.005 C 
HETATM   28  C   UNL     1      20.891   2.348  -8.572  1.00  0.00     0.005 C 
HETATM   29  C   UNL     1      19.782   1.853  -9.453  1.00  0.00     0.036 C 
ENDBRANCH   9  25
TORSDOF 4
ENDMDL
MODEL 7
REMARK VINA RESULT:      -8.7      4.413      8.516
REMARK  4 active torsions:
REMARK  status: ('A' for Active; 'I' for Inactive)
REMARK    1  A    between atoms: C_5  and  O_23 
REMARK    2  A    between atoms: N_8  and  C_25 
REMARK    3  A    between atoms: C_17  and  C_20 
REMARK    4  A    between atoms: C_19  and  C_27 
ROOT
HETATM    1  C   UNL     1      15.462   3.354  -4.913  1.00  0.00     0.127 C 
HETATM    2  C   UNL     1      11.939   2.919  -5.163  1.00  0.00     0.043 C 
HETATM    3  C   UNL     1      13.101   3.109  -4.405  1.00  0.00    -0.005 C 
HETATM    4  N   UNL     1      15.657   2.820  -3.653  1.00  0.00    -0.331 N 
HETATM    5  C   UNL     1      13.366   2.953  -3.028  1.00  0.00     0.031 C 
HETATM    6  C   UNL     1      14.689   2.998  -2.672  1.00  0.00     0.097 C 
HETATM    7  N   UNL     1      13.537   3.723  -6.501  1.00  0.00    -0.354 N 
ATOM      8  HN  UNL     1      13.942   4.233  -7.286  1.00  0.00     0.166 HD
HETATM    9  C   UNL     1      12.317   3.124  -6.485  1.00  0.00     0.035 C 
HETATM   10  C   UNL     1      14.130   3.525  -5.282  1.00  0.00     0.059 C 
ENDROOT
BRANCH   4  11
HETATM   11  C   UNL     1      16.828   2.323  -3.167  1.00  0.00     0.039 C 
HETATM   12  C   UNL     1      17.863   2.171  -4.088  1.00  0.00     0.042 C 
HETATM   13  C   UNL     1      19.134   1.798  -3.671  1.00  0.00    -0.024 C 
HETATM   14  C   UNL     1      19.466   2.107  -2.355  1.00  0.00     0.012 C 
HETATM   15  C   UNL     1      18.448   2.219  -1.404  1.00  0.00     0.003 C 
HETATM   16  C   UNL     1      17.115   2.228  -1.813  1.00  0.00     0.030 C 
BRANCH  13  17
HETATM   17  C   UNL     1      19.901   0.959  -4.498  1.00  0.00    -0.023 C 
HETATM   18  C   UNL     1      19.311   0.465  -5.663  1.00  0.00     0.012 C 
HETATM   19  C   UNL     1      19.742  -0.741  -6.199  1.00  0.00     0.004 C 
HETATM   20  C   UNL     1      20.837  -1.386  -5.657  1.00  0.00     0.036 C 
HETATM   21  C   UNL     1      21.552  -0.771  -4.632  1.00  0.00     0.066 C 
HETATM   22  C   UNL     1      21.191   0.513  -4.194  1.00  0.00     0.048 C 
BRANCH  21  23
HETATM   23  O   UNL     1      22.566  -1.447  -4.035  1.00  0.00    -0.361 OA
ATOM     24  HO  UNL     1      22.931  -1.113  -3.224  1.00  0.00     0.217 HD
ENDBRANCH  21  23
ENDBRANCH  13  17
ENDBRANCH   4  11
BRANCH   9  25
HETATM   25  C   UNL     1      11.945   2.215  -7.579  1.00  0.00    -0.053 C 
HETATM   26  C   UNL     1      12.571   2.273  -8.910  1.00  0.00     0.036 C 
HETATM   27  C   UNL     1      11.939   1.153  -9.689  1.00  0.00     0.005 C 
HETATM   28  C   UNL     1      10.906   0.481  -8.797  1.00  0.00     0.005 C 
HETATM   29  C   UNL     1      11.249   0.928  -7.406  1.00  0.00     0.036 C 
ENDBRANCH   9  25
TORSDOF 4
ENDMDL
MODEL 8
REMARK VINA RESULT:      -8.7      3.568      9.031
REMARK  4 active torsions:
REMARK  status: ('A' for Active; 'I' for Inactive)
REMARK    1  A    between atoms: C_5  and  O_23 
REMARK    2  A    between atoms: N_8  and  C_25 
REMARK    3  A    between atoms: C_17  and  C_20 
REMARK    4  A    between atoms: C_19  and  C_27 
ROOT
HETATM    1  C   UNL     1      16.327   2.655  -1.620  1.00  0.00     0.127 C 
HETATM    2  C   UNL     1      14.624   5.771  -1.856  1.00  0.00     0.043 C 
HETATM    3  C   UNL     1      15.178   4.628  -2.446  1.00  0.00    -0.005 C 
HETATM    4  N   UNL     1      16.929   2.643  -2.865  1.00  0.00    -0.331 N 
HETATM    5  C   UNL     1      15.518   4.325  -3.781  1.00  0.00     0.031 C 
HETATM    6  C   UNL     1      16.265   3.188  -3.957  1.00  0.00     0.097 C 
HETATM    7  N   UNL     1      14.841   4.196  -0.287  1.00  0.00    -0.354 N 
ATOM      8  HN  UNL     1      14.627   3.678   0.565  1.00  0.00     0.166 HD
HETATM    9  C   UNL     1      14.620   5.522  -0.489  1.00  0.00     0.035 C 
HETATM   10  C   UNL     1      15.399   3.675  -1.424  1.00  0.00     0.059 C 
ENDROOT
BRANCH   4  11
HETATM   11  C   UNL     1      18.034   1.926  -3.212  1.00  0.00     0.039 C 
HETATM   12  C   UNL     1      18.104   1.502  -4.537  1.00  0.00     0.042 C 
HETATM   13  C   UNL     1      19.246   0.881  -5.024  1.00  0.00    -0.024 C 
HETATM   14  C   UNL     1      20.437   1.176  -4.365  1.00  0.00     0.012 C 
HETATM   15  C   UNL     1      20.395   1.559  -3.021  1.00  0.00     0.003 C 
HETATM   16  C   UNL     1      19.169   1.840  -2.418  1.00  0.00     0.030 C 
BRANCH  13  17
HETATM   17  C   UNL     1      19.108  -0.148  -5.971  1.00  0.00    -0.023 C 
HETATM   18  C   UNL     1      17.859  -0.332  -6.567  1.00  0.00     0.012 C 
HETATM   19  C   UNL     1      17.493  -1.586  -7.036  1.00  0.00     0.004 C 
HETATM   20  C   UNL     1      18.410  -2.620  -7.032  1.00  0.00     0.036 C 
HETATM   21  C   UNL     1      19.721  -2.366  -6.638  1.00  0.00     0.066 C 
HETATM   22  C   UNL     1      20.115  -1.061  -6.300  1.00  0.00     0.048 C 
BRANCH  21  23
HETATM   23  O   UNL     1      20.595  -3.400  -6.540  1.00  0.00    -0.361 OA
ATOM     24  HO  UNL     1      20.965  -3.615  -5.692  1.00  0.00     0.217 HD
ENDBRANCH  21  23
ENDBRANCH  13  17
ENDBRANCH   4  11
BRANCH   9  25
HETATM   25  C   UNL     1      15.096   6.493   0.508  1.00  0.00    -0.053 C 
HETATM   26  C   UNL     1      16.492   6.538   0.972  1.00  0.00     0.036 C 
HETATM   27  C   UNL     1      16.548   7.692   1.933  1.00  0.00     0.005 C 
HETATM   28  C   UNL     1      15.149   8.279   2.049  1.00  0.00     0.005 C 
HETATM   29  C   UNL     1      14.409   7.749   0.857  1.00  0.00     0.036 C 
ENDBRANCH   9  25
TORSDOF 4
ENDMDL
MODEL 9
REMARK VINA RESULT:      -8.5      3.768      8.786
REMARK  4 active torsions:
REMARK  status: ('A' for Active; 'I' for Inactive)
REMARK    1  A    between atoms: C_5  and  O_23 
REMARK    2  A    between atoms: N_8  and  C_25 
REMARK    3  A    between atoms: C_17  and  C_20 
REMARK    4  A    between atoms: C_19  and  C_27 
ROOT
HETATM    1  C   UNL     1      15.251   2.531  -5.159  1.00  0.00     0.127 C 
HETATM    2  C   UNL     1      12.614   4.427  -3.703  1.00  0.00     0.043 C 
HETATM    3  C   UNL     1      13.190   3.762  -4.793  1.00  0.00    -0.005 C 
HETATM    4  N   UNL     1      15.107   2.934  -6.474  1.00  0.00    -0.331 N 
HETATM    5  C   UNL     1      12.909   3.793  -6.175  1.00  0.00     0.031 C 
HETATM    6  C   UNL     1      13.838   3.188  -6.981  1.00  0.00     0.097 C 
HETATM    7  N   UNL     1      14.165   3.015  -2.934  1.00  0.00    -0.354 N 
ATOM      8  HN  UNL     1      14.619   2.379  -2.279  1.00  0.00     0.166 HD
HETATM    9  C   UNL     1      13.385   4.078  -2.601  1.00  0.00     0.035 C 
HETATM   10  C   UNL     1      14.235   2.945  -4.300  1.00  0.00     0.059 C 
ENDROOT
BRANCH   4  11
HETATM   11  C   UNL     1      16.070   2.884  -7.435  1.00  0.00     0.039 C 
HETATM   12  C   UNL     1      17.276   2.288  -7.071  1.00  0.00     0.042 C 
HETATM   13  C   UNL     1      18.272   2.070  -8.013  1.00  0.00    -0.024 C 
HETATM   14  C   UNL     1      17.853   1.951  -9.336  1.00  0.00     0.012 C 
HETATM   15  C   UNL     1      16.671   2.580  -9.736  1.00  0.00     0.003 C 
HETATM   16  C   UNL     1      15.823   3.136  -8.777  1.00  0.00     0.030 C 
BRANCH  13  17
HETATM   17  C   UNL     1      19.616   2.203  -7.624  1.00  0.00    -0.023 C 
HETATM   18  C   UNL     1      19.909   2.204  -6.259  1.00  0.00     0.012 C 
HETATM   19  C   UNL     1      21.037   2.865  -5.794  1.00  0.00     0.004 C 
HETATM   20  C   UNL     1      21.936   3.411  -6.690  1.00  0.00     0.036 C 
HETATM   21  C   UNL     1      21.745   3.212  -8.055  1.00  0.00     0.066 C 
HETATM   22  C   UNL     1      20.677   2.421  -8.508  1.00  0.00     0.048 C 
BRANCH  21  23
HETATM   23  O   UNL     1      22.572   3.829  -8.936  1.00  0.00    -0.361 OA
ATOM     24  HO  UNL     1      22.559   3.563  -9.848  1.00  0.00     0.217 HD
ENDBRANCH  21  23
ENDBRANCH  13  17
ENDBRANCH   4  11
BRANCH   9  25
HETATM   25  C   UNL     1      13.879   5.056  -1.621  1.00  0.00    -0.053 C 
HETATM   26  C   UNL     1      14.867   4.716  -0.584  1.00  0.00     0.036 C 
HETATM   27  C   UNL     1      15.120   6.001   0.153  1.00  0.00     0.005 C 
HETATM   28  C   UNL     1      14.224   7.074  -0.448  1.00  0.00     0.005 C 
HETATM   29  C   UNL     1      13.793   6.519  -1.773  1.00  0.00     0.036 C 
ENDBRANCH   9  25
TORSDOF 4
ENDMDL
