MODEL 1
REMARK VINA RESULT:      -9.1      0.000      0.000
REMARK  6 active torsions:
REMARK  status: ('A' for Active; 'I' for Inactive)
REMARK    1  A    between atoms: C_2  and  C_3 
REMARK    2  A    between atoms: C_4  and  C_30 
REMARK    3  A    between atoms: N_12  and  C_28 
REMARK    4  A    between atoms: N_14  and  C_17 
REMARK       I    between atoms: N_14  and  C_30 
REMARK    5  A    between atoms: C_18  and  O_25 
REMARK    6  A    between atoms: C_21  and  O_31 
ROOT
HETATM    1  C   UNL     1      15.351   4.159  -1.895  1.00  0.00     0.031 C 
HETATM    2  C   UNL     1      14.905   3.210  -2.771  1.00  0.00     0.032 C 
HETATM    3  C   UNL     1      13.659   2.935  -3.281  1.00  0.00     0.035 C 
HETATM    4  C   UNL     1      12.733   5.080  -2.697  1.00  0.00     0.004 C 
HETATM    5  C   UNL     1      12.826   4.005  -3.550  1.00  0.00     0.029 C 
HETATM    6  C   UNL     1      14.584   4.953  -1.067  1.00  0.00     0.032 C 
HETATM    7  C   UNL     1      13.348   5.383  -1.510  1.00  0.00     0.029 C 
ENDROOT
BRANCH   3   8
HETATM    8  N   UNL     1      13.288   1.604  -3.483  1.00  0.00    -0.323 N 
HETATM    9  C   UNL     1      12.674   0.968  -4.527  1.00  0.00     0.259 C 
HETATM   10  O   UNL     1      11.796   0.133  -4.374  1.00  0.00    -0.267 OA
ATOM     11  HN  UNL     1      13.518   0.989  -2.704  1.00  0.00     0.169 HD
BRANCH   9  12
HETATM   12  C   UNL     1      13.218   1.201  -5.879  1.00  0.00     0.068 C 
HETATM   13  C   UNL     1      14.548   0.964  -6.098  1.00  0.00     0.056 C 
HETATM   14  C   UNL     1      15.385   1.676  -6.979  1.00  0.00     0.066 C 
HETATM   15  C   UNL     1      14.933   2.367  -8.095  1.00  0.00     0.036 C 
HETATM   16  C   UNL     1      13.739   3.012  -8.277  1.00  0.00     0.005 C 
HETATM   17  C   UNL     1      12.520   2.689  -7.723  1.00  0.00     0.037 C 
HETATM   18  C   UNL     1      12.287   1.670  -6.824  1.00  0.00     0.081 C 
BRANCH  14  19
HETATM   19  O   UNL     1      16.723   1.713  -6.717  1.00  0.00    -0.361 OA
ATOM     20  HO  UNL     1      17.204   2.505  -6.929  1.00  0.00     0.217 HD
ENDBRANCH  14  19
BRANCH  18  21
HETATM   21  O   UNL     1      11.062   1.098  -6.802  1.00  0.00    -0.360 OA
ATOM     22  HO  UNL     1      10.707   0.887  -5.946  1.00  0.00     0.217 HD
ENDBRANCH  18  21
ENDBRANCH   9  12
ENDBRANCH   3   8
BRANCH   6  23
HETATM   23  N   UNL     1      15.155   5.329   0.142  1.00  0.00    -0.365 N 
HETATM   24  C   UNL     1      15.869   6.425   0.465  1.00  0.00     0.101 C 
ATOM     25  HN  UNL     1      15.010   4.671   0.907  1.00  0.00     0.165 HD
BRANCH  24  26
HETATM   26  C   UNL     1      15.425   7.421   1.422  1.00  0.00    -0.005 C 
HETATM   27  C   UNL     1      14.227   8.109   1.254  1.00  0.00     0.100 C 
HETATM   28  N   UNL     1      14.007   9.269   1.848  1.00  0.00    -0.374 N 
HETATM   29  C   UNL     1      14.649   9.505   3.004  1.00  0.00     0.087 C 
ATOM     30  HN  UNL     1      13.372   9.959   1.445  1.00  0.00     0.164 HD
HETATM   31  C   UNL     1      15.863   8.904   3.274  1.00  0.00     0.018 C 
HETATM   32  C   UNL     1      16.207   7.781   2.523  1.00  0.00     0.015 C 
ENDBRANCH  24  26
ENDBRANCH   6  23
TORSDOF 6
ENDMDL
MODEL 2
REMARK VINA RESULT:      -8.8      1.696      2.891
REMARK  6 active torsions:
REMARK  status: ('A' for Active; 'I' for Inactive)
REMARK    1  A    between atoms: C_2  and  C_3 
REMARK    2  A    between atoms: C_4  and  C_30 
REMARK    3  A    between atoms: N_12  and  C_28 
REMARK    4  A    between atoms: N_14  and  C_17 
REMARK       I    between atoms: N_14  and  C_30 
REMARK    5  A    between atoms: C_18  and  O_25 
REMARK    6  A    between atoms: C_21  and  O_31 
ROOT
HETATM    1  C   UNL     1      12.898   4.985  -2.503  1.00  0.00     0.031 C 
HETATM    2  C   UNL     1      12.359   4.215  -3.495  1.00  0.00     0.032 C 
HETATM    3  C   UNL     1      12.828   3.110  -4.165  1.00  0.00     0.035 C 
HETATM    4  C   UNL     1      14.519   2.595  -2.529  1.00  0.00     0.004 C 
HETATM    5  C   UNL     1      13.577   2.195  -3.448  1.00  0.00     0.029 C 
HETATM    6  C   UNL     1      14.213   5.005  -2.087  1.00  0.00     0.032 C 
HETATM    7  C   UNL     1      14.936   3.828  -2.099  1.00  0.00     0.029 C 
ENDROOT
BRANCH   3   8
HETATM    8  N   UNL     1      12.548   2.973  -5.526  1.00  0.00    -0.323 N 
HETATM    9  C   UNL     1      13.336   3.055  -6.641  1.00  0.00     0.259 C 
HETATM   10  O   UNL     1      12.989   3.631  -7.660  1.00  0.00    -0.267 OA
ATOM     11  HN  UNL     1      11.569   2.773  -5.727  1.00  0.00     0.169 HD
BRANCH   9  12
HETATM   12  C   UNL     1      14.590   2.277  -6.645  1.00  0.00     0.068 C 
HETATM   13  C   UNL     1      14.525   0.935  -6.905  1.00  0.00     0.056 C 
HETATM   14  C   UNL     1      15.355  -0.059  -6.352  1.00  0.00     0.066 C 
HETATM   15  C   UNL     1      16.638   0.174  -5.873  1.00  0.00     0.036 C 
HETATM   16  C   UNL     1      17.138   1.302  -5.282  1.00  0.00     0.005 C 
HETATM   17  C   UNL     1      16.760   2.607  -5.513  1.00  0.00     0.037 C 
HETATM   18  C   UNL     1      15.752   3.017  -6.360  1.00  0.00     0.081 C 
BRANCH  14  19
HETATM   19  O   UNL     1      14.872  -1.332  -6.256  1.00  0.00    -0.361 OA
ATOM     20  HO  UNL     1      14.841  -1.865  -7.042  1.00  0.00     0.217 HD
ENDBRANCH  14  19
BRANCH  18  21
HETATM   21  O   UNL     1      15.847   4.239  -6.930  1.00  0.00    -0.360 OA
ATOM     22  HO  UNL     1      16.072   4.961  -6.354  1.00  0.00     0.217 HD
ENDBRANCH  18  21
ENDBRANCH   9  12
ENDBRANCH   3   8
BRANCH   6  23
HETATM   23  N   UNL     1      14.697   6.214  -1.605  1.00  0.00    -0.365 N 
HETATM   24  C   UNL     1      14.163   7.076  -0.717  1.00  0.00     0.101 C 
ATOM     25  HN  UNL     1      15.601   6.494  -1.983  1.00  0.00     0.165 HD
BRANCH  24  26
HETATM   26  C   UNL     1      14.763   7.380   0.569  1.00  0.00    -0.005 C 
HETATM   27  C   UNL     1      14.195   8.310   1.435  1.00  0.00     0.100 C 
HETATM   28  N   UNL     1      14.907   8.898   2.381  1.00  0.00    -0.374 N 
HETATM   29  C   UNL     1      15.965   8.229   2.867  1.00  0.00     0.087 C 
ATOM     30  HN  UNL     1      14.662   9.825   2.729  1.00  0.00     0.164 HD
HETATM   31  C   UNL     1      16.633   7.302   2.091  1.00  0.00     0.018 C 
HETATM   32  C   UNL     1      15.970   6.803   0.970  1.00  0.00     0.015 C 
ENDBRANCH  24  26
ENDBRANCH   6  23
TORSDOF 6
ENDMDL
MODEL 3
REMARK VINA RESULT:      -8.7      1.577      2.115
REMARK  6 active torsions:
REMARK  status: ('A' for Active; 'I' for Inactive)
REMARK    1  A    between atoms: C_2  and  C_3 
REMARK    2  A    between atoms: C_4  and  C_30 
REMARK    3  A    between atoms: N_12  and  C_28 
REMARK    4  A    between atoms: N_14  and  C_17 
REMARK       I    between atoms: N_14  and  C_30 
REMARK    5  A    between atoms: C_18  and  O_25 
REMARK    6  A    between atoms: C_21  and  O_31 
ROOT
HETATM    1  C   UNL     1      14.040   3.999  -1.376  1.00  0.00     0.031 C 
HETATM    2  C   UNL     1      13.521   2.880  -1.965  1.00  0.00     0.032 C 
HETATM    3  C   UNL     1      13.841   2.212  -3.123  1.00  0.00     0.035 C 
HETATM    4  C   UNL     1      16.015   3.225  -3.337  1.00  0.00     0.004 C 
HETATM    5  C   UNL     1      15.176   2.145  -3.476  1.00  0.00     0.029 C 
HETATM    6  C   UNL     1      14.882   4.927  -1.952  1.00  0.00     0.032 C 
HETATM    7  C   UNL     1      15.823   4.499  -2.868  1.00  0.00     0.029 C 
ENDROOT
BRANCH   3   8
HETATM    8  N   UNL     1      12.815   1.656  -3.891  1.00  0.00    -0.323 N 
HETATM    9  C   UNL     1      12.293   1.989  -5.110  1.00  0.00     0.259 C 
HETATM   10  O   UNL     1      11.095   1.993  -5.343  1.00  0.00    -0.267 OA
ATOM     11  HN  UNL     1      12.370   0.847  -3.459  1.00  0.00     0.169 HD
BRANCH   9  12
HETATM   12  C   UNL     1      13.244   2.200  -6.220  1.00  0.00     0.068 C 
HETATM   13  C   UNL     1      13.772   1.103  -6.845  1.00  0.00     0.056 C 
HETATM   14  C   UNL     1      15.067   1.001  -7.388  1.00  0.00     0.066 C 
HETATM   15  C   UNL     1      15.817   2.085  -7.826  1.00  0.00     0.036 C 
HETATM   16  C   UNL     1      15.827   3.367  -7.346  1.00  0.00     0.005 C 
HETATM   17  C   UNL     1      14.780   4.054  -6.771  1.00  0.00     0.037 C 
HETATM   18  C   UNL     1      13.523   3.546  -6.519  1.00  0.00     0.081 C 
BRANCH  14  19
HETATM   19  O   UNL     1      15.640  -0.234  -7.479  1.00  0.00    -0.361 OA
ATOM     20  HO  UNL     1      16.534  -0.343  -7.175  1.00  0.00     0.217 HD
ENDBRANCH  14  19
BRANCH  18  21
HETATM   21  O   UNL     1      12.474   4.399  -6.507  1.00  0.00    -0.360 OA
ATOM     22  HO  UNL     1      12.598   5.232  -6.947  1.00  0.00     0.217 HD
ENDBRANCH  18  21
ENDBRANCH   9  12
ENDBRANCH   3   8
BRANCH   6  23
HETATM   23  N   UNL     1      14.769   6.236  -1.502  1.00  0.00    -0.365 N 
HETATM   24  C   UNL     1      14.176   6.730  -0.397  1.00  0.00     0.101 C 
ATOM     25  HN  UNL     1      15.204   6.934  -2.104  1.00  0.00     0.165 HD
BRANCH  24  26
HETATM   26  C   UNL     1      14.896   7.403   0.669  1.00  0.00    -0.005 C 
HETATM   27  C   UNL     1      16.167   6.995   1.058  1.00  0.00     0.100 C 
HETATM   28  N   UNL     1      16.655   7.295   2.250  1.00  0.00    -0.374 N 
HETATM   29  C   UNL     1      16.202   8.412   2.842  1.00  0.00     0.087 C 
ATOM     30  HN  UNL     1      17.349   6.700   2.704  1.00  0.00     0.164 HD
HETATM   31  C   UNL     1      14.940   8.900   2.560  1.00  0.00     0.018 C 
HETATM   32  C   UNL     1      14.321   8.449   1.395  1.00  0.00     0.015 C 
ENDBRANCH  24  26
ENDBRANCH   6  23
TORSDOF 6
ENDMDL
MODEL 4
REMARK VINA RESULT:      -8.7      3.849      6.508
REMARK  6 active torsions:
REMARK  status: ('A' for Active; 'I' for Inactive)
REMARK    1  A    between atoms: C_2  and  C_3 
REMARK    2  A    between atoms: C_4  and  C_30 
REMARK    3  A    between atoms: N_12  and  C_28 
REMARK    4  A    between atoms: N_14  and  C_17 
REMARK       I    between atoms: N_14  and  C_30 
REMARK    5  A    between atoms: C_18  and  O_25 
REMARK    6  A    between atoms: C_21  and  O_31 
ROOT
HETATM    1  C   UNL     1      15.535   0.439  -7.352  1.00  0.00     0.031 C 
HETATM    2  C   UNL     1      14.170   0.479  -7.308  1.00  0.00     0.032 C 
HETATM    3  C   UNL     1      13.270   1.506  -7.466  1.00  0.00     0.035 C 
HETATM    4  C   UNL     1      14.844   2.979  -8.542  1.00  0.00     0.004 C 
HETATM    5  C   UNL     1      13.569   2.482  -8.399  1.00  0.00     0.029 C 
HETATM    6  C   UNL     1      16.401   1.512  -7.308  1.00  0.00     0.032 C 
HETATM    7  C   UNL     1      16.029   2.697  -7.913  1.00  0.00     0.029 C 
ENDROOT
BRANCH   3   8
HETATM    8  N   UNL     1      12.120   1.528  -6.675  1.00  0.00    -0.323 N 
HETATM    9  C   UNL     1      11.935   1.541  -5.320  1.00  0.00     0.259 C 
HETATM   10  O   UNL     1      11.087   0.866  -4.758  1.00  0.00    -0.267 OA
ATOM     11  HN  UNL     1      11.252   1.535  -7.210  1.00  0.00     0.169 HD
BRANCH   9  12
HETATM   12  C   UNL     1      12.698   2.535  -4.540  1.00  0.00     0.068 C 
HETATM   13  C   UNL     1      13.777   2.108  -3.816  1.00  0.00     0.056 C 
HETATM   14  C   UNL     1      14.209   2.632  -2.582  1.00  0.00     0.066 C 
HETATM   15  C   UNL     1      13.951   3.926  -2.151  1.00  0.00     0.036 C 
HETATM   16  C   UNL     1      12.861   4.713  -2.411  1.00  0.00     0.005 C 
HETATM   17  C   UNL     1      12.074   4.706  -3.542  1.00  0.00     0.037 C 
HETATM   18  C   UNL     1      12.213   3.853  -4.616  1.00  0.00     0.081 C 
BRANCH  14  19
HETATM   19  O   UNL     1      14.910   1.819  -1.739  1.00  0.00    -0.361 OA
ATOM     20  HO  UNL     1      14.797   0.879  -1.818  1.00  0.00     0.217 HD
ENDBRANCH  14  19
BRANCH  18  21
HETATM   21  O   UNL     1      11.812   4.282  -5.834  1.00  0.00    -0.360 OA
ATOM     22  HO  UNL     1      12.025   3.723  -6.573  1.00  0.00     0.217 HD
ENDBRANCH  18  21
ENDBRANCH   9  12
ENDBRANCH   3   8
BRANCH   6  23
HETATM   23  N   UNL     1      17.637   1.293  -6.715  1.00  0.00    -0.365 N 
HETATM   24  C   UNL     1      18.432   2.131  -6.020  1.00  0.00     0.101 C 
ATOM     25  HN  UNL     1      18.002   0.347  -6.821  1.00  0.00     0.165 HD
BRANCH  24  26
HETATM   26  C   UNL     1      18.761   1.951  -4.619  1.00  0.00    -0.005 C 
HETATM   27  C   UNL     1      17.774   1.914  -3.639  1.00  0.00     0.100 C 
HETATM   28  N   UNL     1      18.049   2.167  -2.370  1.00  0.00    -0.374 N 
HETATM   29  C   UNL     1      19.296   1.908  -1.942  1.00  0.00     0.087 C 
ATOM     30  HN  UNL     1      17.341   2.545  -1.740  1.00  0.00     0.164 HD
HETATM   31  C   UNL     1      20.365   1.944  -2.817  1.00  0.00     0.018 C 
HETATM   32  C   UNL     1      20.085   1.870  -4.180  1.00  0.00     0.015 C 
ENDBRANCH  24  26
ENDBRANCH   6  23
TORSDOF 6
ENDMDL
MODEL 5
REMARK VINA RESULT:      -8.5      4.294      7.343
REMARK  6 active torsions:
REMARK  status: ('A' for Active; 'I' for Inactive)
REMARK    1  A    between atoms: C_2  and  C_3 
REMARK    2  A    between atoms: C_4  and  C_30 
REMARK    3  A    between atoms: N_12  and  C_28 
REMARK    4  A    between atoms: N_14  and  C_17 
REMARK       I    between atoms: N_14  and  C_30 
REMARK    5  A    between atoms: C_18  and  O_25 
REMARK    6  A    between atoms: C_21  and  O_31 
ROOT
HETATM    1  C   UNL     1      16.950  -0.125  -6.162  1.00  0.00     0.031 C 
HETATM    2  C   UNL     1      15.639   0.059  -6.500  1.00  0.00     0.032 C 
HETATM    3  C   UNL     1      14.875   1.191  -6.658  1.00  0.00     0.035 C 
HETATM    4  C   UNL     1      16.764   2.672  -6.860  1.00  0.00     0.004 C 
HETATM    5  C   UNL     1      15.485   2.304  -7.208  1.00  0.00     0.029 C 
HETATM    6  C   UNL     1      17.809   0.808  -5.621  1.00  0.00     0.032 C 
HETATM    7  C   UNL     1      17.690   2.129  -6.007  1.00  0.00     0.029 C 
ENDROOT
BRANCH   3   8
HETATM    8  N   UNL     1      13.541   1.173  -6.244  1.00  0.00    -0.323 N 
HETATM    9  C   UNL     1      12.957   1.311  -5.016  1.00  0.00     0.259 C 
HETATM   10  O   UNL     1      12.029   0.613  -4.638  1.00  0.00    -0.267 OA
ATOM     11  HN  UNL     1      12.876   1.030  -7.004  1.00  0.00     0.169 HD
BRANCH   9  12
HETATM   12  C   UNL     1      13.377   2.459  -4.189  1.00  0.00     0.068 C 
HETATM   13  C   UNL     1      14.294   2.248  -3.195  1.00  0.00     0.056 C 
HETATM   14  C   UNL     1      14.344   2.915  -1.956  1.00  0.00     0.066 C 
HETATM   15  C   UNL     1      13.829   4.185  -1.733  1.00  0.00     0.036 C 
HETATM   16  C   UNL     1      12.745   4.783  -2.317  1.00  0.00     0.005 C 
HETATM   17  C   UNL     1      12.263   4.581  -3.592  1.00  0.00     0.037 C 
HETATM   18  C   UNL     1      12.763   3.683  -4.511  1.00  0.00     0.081 C 
BRANCH  14  19
HETATM   19  O   UNL     1      14.916   2.276  -0.895  1.00  0.00    -0.361 OA
ATOM     20  HO  UNL     1      15.852   2.110  -0.916  1.00  0.00     0.217 HD
ENDBRANCH  14  19
BRANCH  18  21
HETATM   21  O   UNL     1      12.619   3.961  -5.826  1.00  0.00    -0.360 OA
ATOM     22  HO  UNL     1      12.073   4.706  -6.047  1.00  0.00     0.217 HD
ENDBRANCH  18  21
ENDBRANCH   9  12
ENDBRANCH   3   8
BRANCH   6  23
HETATM   23  N   UNL     1      18.797   0.329  -4.771  1.00  0.00    -0.365 N 
HETATM   24  C   UNL     1      20.088   0.031  -5.015  1.00  0.00     0.101 C 
ATOM     25  HN  UNL     1      18.497   0.178  -3.808  1.00  0.00     0.165 HD
BRANCH  24  26
HETATM   26  C   UNL     1      21.204   0.736  -4.411  1.00  0.00    -0.005 C 
HETATM   27  C   UNL     1      21.047   1.996  -3.842  1.00  0.00     0.100 C 
HETATM   28  N   UNL     1      22.074   2.810  -3.672  1.00  0.00    -0.374 N 
HETATM   29  C   UNL     1      23.287   2.255  -3.515  1.00  0.00     0.087 C 
ATOM     30  HN  UNL     1      21.950   3.823  -3.660  1.00  0.00     0.164 HD
HETATM   31  C   UNL     1      23.574   1.018  -4.060  1.00  0.00     0.018 C 
HETATM   32  C   UNL     1      22.498   0.210  -4.427  1.00  0.00     0.015 C 
ENDBRANCH  24  26
ENDBRANCH   6  23
TORSDOF 6
ENDMDL
MODEL 6
REMARK VINA RESULT:      -8.5      1.991      3.069
REMARK  6 active torsions:
REMARK  status: ('A' for Active; 'I' for Inactive)
REMARK    1  A    between atoms: C_2  and  C_3 
REMARK    2  A    between atoms: C_4  and  C_30 
REMARK    3  A    between atoms: N_12  and  C_28 
REMARK    4  A    between atoms: N_14  and  C_17 
REMARK       I    between atoms: N_14  and  C_30 
REMARK    5  A    between atoms: C_18  and  O_25 
REMARK    6  A    between atoms: C_21  and  O_31 
ROOT
HETATM    1  C   UNL     1      13.088   5.195  -2.304  1.00  0.00     0.031 C 
HETATM    2  C   UNL     1      12.926   4.290  -3.315  1.00  0.00     0.032 C 
HETATM    3  C   UNL     1      13.711   3.253  -3.762  1.00  0.00     0.035 C 
HETATM    4  C   UNL     1      15.037   3.134  -1.755  1.00  0.00     0.004 C 
HETATM    5  C   UNL     1      14.411   2.525  -2.817  1.00  0.00     0.029 C 
HETATM    6  C   UNL     1      14.249   5.470  -1.612  1.00  0.00     0.032 C 
HETATM    7  C   UNL     1      15.136   4.442  -1.358  1.00  0.00     0.029 C 
ENDROOT
BRANCH   3   8
HETATM    8  N   UNL     1      13.780   2.998  -5.133  1.00  0.00    -0.323 N 
HETATM    9  C   UNL     1      14.833   2.762  -5.973  1.00  0.00     0.259 C 
HETATM   10  O   UNL     1      14.920   3.256  -7.086  1.00  0.00    -0.267 OA
ATOM     11  HN  UNL     1      12.872   2.984  -5.596  1.00  0.00     0.169 HD
BRANCH   9  12
HETATM   12  C   UNL     1      15.818   1.743  -5.559  1.00  0.00     0.068 C 
HETATM   13  C   UNL     1      16.964   2.158  -4.936  1.00  0.00     0.056 C 
HETATM   14  C   UNL     1      18.234   1.560  -5.050  1.00  0.00     0.066 C 
HETATM   15  C   UNL     1      18.441   0.227  -5.379  1.00  0.00     0.036 C 
HETATM   16  C   UNL     1      17.690  -0.581  -6.189  1.00  0.00     0.005 C 
HETATM   17  C   UNL     1      16.329  -0.521  -6.402  1.00  0.00     0.037 C 
HETATM   18  C   UNL     1      15.470   0.416  -5.869  1.00  0.00     0.081 C 
BRANCH  14  19
HETATM   19  O   UNL     1      19.339   2.335  -4.846  1.00  0.00    -0.361 OA
ATOM     20  HO  UNL     1      20.098   1.940  -4.433  1.00  0.00     0.217 HD
ENDBRANCH  14  19
BRANCH  18  21
HETATM   21  O   UNL     1      14.180   0.066  -5.668  1.00  0.00    -0.360 OA
ATOM     22  HO  UNL     1      13.632   0.700  -5.220  1.00  0.00     0.217 HD
ENDBRANCH  18  21
ENDBRANCH   9  12
ENDBRANCH   3   8
BRANCH   6  23
HETATM   23  N   UNL     1      14.406   6.770  -1.148  1.00  0.00    -0.365 N 
HETATM   24  C   UNL     1      13.927   7.363  -0.037  1.00  0.00     0.101 C 
ATOM     25  HN  UNL     1      14.974   7.372  -1.744  1.00  0.00     0.165 HD
BRANCH  24  26
HETATM   26  C   UNL     1      14.770   7.862   1.034  1.00  0.00    -0.005 C 
HETATM   27  C   UNL     1      16.022   7.314   1.292  1.00  0.00     0.100 C 
HETATM   28  N   UNL     1      16.608   7.450   2.469  1.00  0.00    -0.374 N 
HETATM   29  C   UNL     1      16.295   8.536   3.195  1.00  0.00     0.087 C 
ATOM     30  HN  UNL     1      17.274   6.758   2.813  1.00  0.00     0.164 HD
HETATM   31  C   UNL     1      15.067   9.153   3.051  1.00  0.00     0.018 C 
HETATM   32  C   UNL     1      14.338   8.874   1.896  1.00  0.00     0.015 C 
ENDBRANCH  24  26
ENDBRANCH   6  23
TORSDOF 6
ENDMDL
MODEL 7
REMARK VINA RESULT:      -8.4      3.435      5.434
REMARK  6 active torsions:
REMARK  status: ('A' for Active; 'I' for Inactive)
REMARK    1  A    between atoms: C_2  and  C_3 
REMARK    2  A    between atoms: C_4  and  C_30 
REMARK    3  A    between atoms: N_12  and  C_28 
REMARK    4  A    between atoms: N_14  and  C_17 
REMARK       I    between atoms: N_14  and  C_30 
REMARK    5  A    between atoms: C_18  and  O_25 
REMARK    6  A    between atoms: C_21  and  O_31 
ROOT
HETATM    1  C   UNL     1      16.502  -0.007  -5.959  1.00  0.00     0.031 C 
HETATM    2  C   UNL     1      15.762  -0.363  -7.051  1.00  0.00     0.032 C 
HETATM    3  C   UNL     1      15.400   0.321  -8.186  1.00  0.00     0.035 C 
HETATM    4  C   UNL     1      17.081   2.027  -7.928  1.00  0.00     0.004 C 
HETATM    5  C   UNL     1      16.320   1.203  -8.724  1.00  0.00     0.029 C 
HETATM    6  C   UNL     1      16.874   1.268  -5.587  1.00  0.00     0.032 C 
HETATM    7  C   UNL     1      17.160   2.195  -6.570  1.00  0.00     0.029 C 
ENDROOT
BRANCH   3   8
HETATM    8  N   UNL     1      14.129   0.114  -8.728  1.00  0.00    -0.323 N 
HETATM    9  C   UNL     1      12.907  -0.098  -8.153  1.00  0.00     0.259 C 
HETATM   10  O   UNL     1      12.112  -0.927  -8.566  1.00  0.00    -0.267 OA
ATOM     11  HN  UNL     1      14.109   0.122  -9.747  1.00  0.00     0.169 HD
BRANCH   9  12
HETATM   12  C   UNL     1      12.488   0.831  -7.085  1.00  0.00     0.068 C 
HETATM   13  C   UNL     1      12.313   2.151  -7.400  1.00  0.00     0.056 C 
HETATM   14  C   UNL     1      12.572   3.248  -6.555  1.00  0.00     0.066 C 
HETATM   15  C   UNL     1      12.562   3.184  -5.168  1.00  0.00     0.036 C 
HETATM   16  C   UNL     1      12.901   2.134  -4.358  1.00  0.00     0.005 C 
HETATM   17  C   UNL     1      12.773   0.789  -4.632  1.00  0.00     0.037 C 
HETATM   18  C   UNL     1      12.322   0.247  -5.816  1.00  0.00     0.081 C 
BRANCH  14  19
HETATM   19  O   UNL     1      12.874   4.451  -7.124  1.00  0.00    -0.361 OA
ATOM     20  HO  UNL     1      12.202   4.896  -7.626  1.00  0.00     0.217 HD
ENDBRANCH  14  19
BRANCH  18  21
HETATM   21  O   UNL     1      11.715  -0.961  -5.781  1.00  0.00    -0.360 OA
ATOM     22  HO  UNL     1      11.503  -1.355  -6.619  1.00  0.00     0.217 HD
ENDBRANCH  18  21
ENDBRANCH   9  12
ENDBRANCH   3   8
BRANCH   6  23
HETATM   23  N   UNL     1      17.008   1.507  -4.225  1.00  0.00    -0.365 N 
HETATM   24  C   UNL     1      17.018   2.667  -3.540  1.00  0.00     0.101 C 
ATOM     25  HN  UNL     1      17.115   0.670  -3.652  1.00  0.00     0.165 HD
BRANCH  24  26
HETATM   26  C   UNL     1      16.007   3.035  -2.566  1.00  0.00    -0.005 C 
HETATM   27  C   UNL     1      15.528   2.120  -1.634  1.00  0.00     0.100 C 
HETATM   28  N   UNL     1      14.360   2.287  -1.038  1.00  0.00    -0.374 N 
HETATM   29  C   UNL     1      13.912   3.545  -0.893  1.00  0.00     0.087 C 
ATOM     30  HN  UNL     1      13.818   1.490  -0.701  1.00  0.00     0.164 HD
HETATM   31  C   UNL     1      14.292   4.537  -1.776  1.00  0.00     0.018 C 
HETATM   32  C   UNL     1      15.422   4.304  -2.559  1.00  0.00     0.015 C 
ENDBRANCH  24  26
ENDBRANCH   6  23
TORSDOF 6
ENDMDL
MODEL 8
REMARK VINA RESULT:      -8.3      3.671      6.113
REMARK  6 active torsions:
REMARK  status: ('A' for Active; 'I' for Inactive)
REMARK    1  A    between atoms: C_2  and  C_3 
REMARK    2  A    between atoms: C_4  and  C_30 
REMARK    3  A    between atoms: N_12  and  C_28 
REMARK    4  A    between atoms: N_14  and  C_17 
REMARK       I    between atoms: N_14  and  C_30 
REMARK    5  A    between atoms: C_18  and  O_25 
REMARK    6  A    between atoms: C_21  and  O_31 
ROOT
HETATM    1  C   UNL     1      16.206   3.558  -3.320  1.00  0.00     0.031 C 
HETATM    2  C   UNL     1      14.990   4.177  -3.386  1.00  0.00     0.032 C 
HETATM    3  C   UNL     1      13.794   3.936  -2.751  1.00  0.00     0.035 C 
HETATM    4  C   UNL     1      14.767   2.582  -1.013  1.00  0.00     0.004 C 
HETATM    5  C   UNL     1      13.841   3.506  -1.437  1.00  0.00     0.029 C 
HETATM    6  C   UNL     1      16.482   2.323  -2.771  1.00  0.00     0.032 C 
HETATM    7  C   UNL     1      15.779   1.915  -1.654  1.00  0.00     0.029 C 
ENDROOT
BRANCH   3   8
HETATM    8  N   UNL     1      12.603   4.115  -3.458  1.00  0.00    -0.323 N 
HETATM    9  C   UNL     1      12.289   3.980  -4.781  1.00  0.00     0.259 C 
HETATM   10  O   UNL     1      11.585   4.776  -5.383  1.00  0.00    -0.267 OA
ATOM     11  HN  UNL     1      11.817   4.402  -2.875  1.00  0.00     0.169 HD
BRANCH   9  12
HETATM   12  C   UNL     1      12.700   2.731  -5.453  1.00  0.00     0.068 C 
HETATM   13  C   UNL     1      12.055   1.570  -5.125  1.00  0.00     0.056 C 
HETATM   14  C   UNL     1      12.628   0.285  -5.082  1.00  0.00     0.066 C 
HETATM   15  C   UNL     1      13.745  -0.095  -5.815  1.00  0.00     0.036 C 
HETATM   16  C   UNL     1      14.817   0.666  -6.197  1.00  0.00     0.005 C 
HETATM   17  C   UNL     1      14.828   2.014  -6.480  1.00  0.00     0.037 C 
HETATM   18  C   UNL     1      13.752   2.869  -6.377  1.00  0.00     0.081 C 
BRANCH  14  19
HETATM   19  O   UNL     1      12.072  -0.649  -4.258  1.00  0.00    -0.361 OA
ATOM     20  HO  UNL     1      11.496  -0.354  -3.562  1.00  0.00     0.217 HD
ENDBRANCH  14  19
BRANCH  18  21
HETATM   21  O   UNL     1      13.712   3.954  -7.182  1.00  0.00    -0.360 OA
ATOM     22  HO  UNL     1      12.878   4.404  -7.249  1.00  0.00     0.217 HD
ENDBRANCH  18  21
ENDBRANCH   9  12
ENDBRANCH   3   8
BRANCH   6  23
HETATM   23  N   UNL     1      17.519   1.601  -3.348  1.00  0.00    -0.365 N 
HETATM   24  C   UNL     1      18.154   1.775  -4.524  1.00  0.00     0.101 C 
ATOM     25  HN  UNL     1      17.853   0.814  -2.793  1.00  0.00     0.165 HD
BRANCH  24  26
HETATM   26  C   UNL     1      19.561   2.114  -4.635  1.00  0.00    -0.005 C 
HETATM   27  C   UNL     1      20.451   1.876  -3.593  1.00  0.00     0.100 C 
HETATM   28  N   UNL     1      21.597   2.529  -3.501  1.00  0.00    -0.374 N 
HETATM   29  C   UNL     1      22.150   2.976  -4.640  1.00  0.00     0.087 C 
ATOM     30  HN  UNL     1      22.045   2.687  -2.598  1.00  0.00     0.164 HD
HETATM   31  C   UNL     1      21.365   3.277  -5.736  1.00  0.00     0.018 C 
HETATM   32  C   UNL     1      20.074   2.751  -5.768  1.00  0.00     0.015 C 
ENDBRANCH  24  26
ENDBRANCH   6  23
TORSDOF 6
ENDMDL
MODEL 9
REMARK VINA RESULT:      -8.1      2.114      3.432
REMARK  6 active torsions:
REMARK  status: ('A' for Active; 'I' for Inactive)
REMARK    1  A    between atoms: C_2  and  C_3 
REMARK    2  A    between atoms: C_4  and  C_30 
REMARK    3  A    between atoms: N_12  and  C_28 
REMARK    4  A    between atoms: N_14  and  C_17 
REMARK       I    between atoms: N_14  and  C_30 
REMARK    5  A    between atoms: C_18  and  O_25 
REMARK    6  A    between atoms: C_21  and  O_31 
ROOT
HETATM    1  C   UNL     1      14.760   3.855  -2.979  1.00  0.00     0.031 C 
HETATM    2  C   UNL     1      15.310   3.306  -4.102  1.00  0.00     0.032 C 
HETATM    3  C   UNL     1      16.567   2.819  -4.372  1.00  0.00     0.035 C 
HETATM    4  C   UNL     1      17.189   2.593  -2.056  1.00  0.00     0.004 C 
HETATM    5  C   UNL     1      17.227   2.150  -3.358  1.00  0.00     0.029 C 
HETATM    6  C   UNL     1      15.428   4.315  -1.864  1.00  0.00     0.032 C 
HETATM    7  C   UNL     1      16.574   3.660  -1.454  1.00  0.00     0.029 C 
ENDROOT
BRANCH   3   8
HETATM    8  N   UNL     1      17.122   3.035  -5.636  1.00  0.00    -0.323 N 
HETATM    9  C   UNL     1      16.949   2.406  -6.837  1.00  0.00     0.259 C 
HETATM   10  O   UNL     1      17.873   2.142  -7.590  1.00  0.00    -0.267 OA
ATOM     11  HN  UNL     1      17.782   3.811  -5.668  1.00  0.00     0.169 HD
BRANCH   9  12
HETATM   12  C   UNL     1      15.562   2.185  -7.294  1.00  0.00     0.068 C 
HETATM   13  C   UNL     1      14.796   3.275  -7.608  1.00  0.00     0.056 C 
HETATM   14  C   UNL     1      13.406   3.395  -7.416  1.00  0.00     0.066 C 
HETATM   15  C   UNL     1      12.531   2.319  -7.360  1.00  0.00     0.036 C 
HETATM   16  C   UNL     1      12.759   1.055  -6.887  1.00  0.00     0.005 C 
HETATM   17  C   UNL     1      13.948   0.358  -6.899  1.00  0.00     0.037 C 
HETATM   18  C   UNL     1      15.159   0.838  -7.348  1.00  0.00     0.081 C 
BRANCH  14  19
HETATM   19  O   UNL     1      12.877   4.643  -7.255  1.00  0.00    -0.361 OA
ATOM     20  HO  UNL     1      13.246   5.360  -7.757  1.00  0.00     0.217 HD
ENDBRANCH  14  19
BRANCH  18  21
HETATM   21  O   UNL     1      16.060  -0.044  -7.837  1.00  0.00    -0.360 OA
ATOM     22  HO  UNL     1      16.081  -0.152  -8.781  1.00  0.00     0.217 HD
ENDBRANCH  18  21
ENDBRANCH   9  12
ENDBRANCH   3   8
BRANCH   6  23
HETATM   23  N   UNL     1      14.847   5.375  -1.180  1.00  0.00    -0.365 N 
HETATM   24  C   UNL     1      14.698   5.581   0.144  1.00  0.00     0.101 C 
ATOM     25  HN  UNL     1      14.474   6.114  -1.773  1.00  0.00     0.165 HD
BRANCH  24  26
HETATM   26  C   UNL     1      15.332   6.670   0.864  1.00  0.00    -0.005 C 
HETATM   27  C   UNL     1      16.696   6.664   1.139  1.00  0.00     0.100 C 
HETATM   28  N   UNL     1      17.207   7.395   2.115  1.00  0.00    -0.374 N 
HETATM   29  C   UNL     1      16.556   8.520   2.454  1.00  0.00     0.087 C 
ATOM     30  HN  UNL     1      18.064   7.116   2.593  1.00  0.00     0.164 HD
HETATM   31  C   UNL     1      15.194   8.635   2.257  1.00  0.00     0.018 C 
HETATM   32  C   UNL     1      14.594   7.744   1.368  1.00  0.00     0.015 C 
ENDBRANCH  24  26
ENDBRANCH   6  23
TORSDOF 6
ENDMDL
