MODEL 1
REMARK VINA RESULT:     -13.2      0.000      0.000
REMARK  4 active torsions:
REMARK  status: ('A' for Active; 'I' for Inactive)
REMARK    1  A    between atoms: C_1  and  C_24 
REMARK    2  A    between atoms: C_9  and  C_25 
REMARK    3  A    between atoms: C_15  and  C_16 
REMARK    4  A    between atoms: C_20  and  O_28 
ROOT
HETATM    1  C   UNL     1      13.333  24.944 -14.753  1.00  0.00    -0.051 C 
HETATM    2  C   UNL     1      14.728  23.010 -15.204  1.00  0.00     0.044 C 
HETATM    3  C   UNL     1      12.438  22.733 -14.451  1.00  0.00     0.037 C 
HETATM    4  C   UNL     1      14.556  24.389 -15.086  1.00  0.00    -0.040 C 
HETATM    5  C   UNL     1      13.688  22.189 -14.757  1.00  0.00     0.066 C 
HETATM    6  C   UNL     1      15.569  25.469 -15.315  1.00  0.00     0.058 C 
HETATM    7  C   UNL     1      14.938  26.766 -14.805  1.00  0.00     0.025 C 
HETATM    8  C   UNL     1      12.243  24.120 -14.503  1.00  0.00     0.010 C 
HETATM    9  C   UNL     1      13.450  26.442 -14.567  1.00  0.00     0.046 C 
ENDROOT
BRANCH   7  10
HETATM   10  C   UNL     1      15.225  28.026 -15.648  1.00  0.00     0.082 C 
HETATM   11  C   UNL     1      14.037  28.982 -15.816  1.00  0.00     0.025 C 
HETATM   12  C   UNL     1      13.688  29.702 -14.497  1.00  0.00     0.004 C 
HETATM   13  C   UNL     1      14.877  30.315 -13.763  1.00  0.00     0.029 C 
HETATM   14  C   UNL     1      16.264  29.731 -14.022  1.00  0.00     0.110 C 
HETATM   15  N   UNL     1      16.394  28.731 -15.093  1.00  0.00    -0.409 N 
ATOM     16  HN  UNL     1      17.321  28.519 -15.461  1.00  0.00     0.154 HD
BRANCH  14  17
HETATM   17  C   UNL     1      17.165  30.934 -14.310  1.00  0.00    -0.036 C 
HETATM   18  C   UNL     1      17.882  30.980 -15.494  1.00  0.00     0.009 C 
HETATM   19  C   UNL     1      19.004  31.758 -15.722  1.00  0.00     0.001 C 
HETATM   20  C   UNL     1      19.684  32.690 -14.982  1.00  0.00     0.000 C 
HETATM   21  C   UNL     1      19.315  33.164 -13.714  1.00  0.00     0.000 C 
HETATM   22  C   UNL     1      18.068  32.965 -13.167  1.00  0.00     0.001 C 
HETATM   23  C   UNL     1      17.101  32.014 -13.436  1.00  0.00     0.009 C 
ENDBRANCH  14  17
ENDBRANCH   7  10
BRANCH   6  24
HETATM   24  C   UNL     1      16.084  25.498 -16.750  1.00  0.00    -0.049 C 
HETATM   25  C   UNL     1      17.438  25.603 -17.023  1.00  0.00     0.008 C 
HETATM   26  C   UNL     1      18.051  25.874 -18.230  1.00  0.00     0.001 C 
HETATM   27  C   UNL     1      17.610  25.990 -19.521  1.00  0.00     0.000 C 
HETATM   28  C   UNL     1      16.301  25.899 -19.933  1.00  0.00     0.000 C 
HETATM   29  C   UNL     1      15.255  25.574 -19.106  1.00  0.00     0.001 C 
HETATM   30  C   UNL     1      15.128  25.425 -17.747  1.00  0.00     0.008 C 
ENDBRANCH   6  24
BRANCH   5  31
HETATM   31  O   UNL     1      13.855  20.846 -14.567  1.00  0.00    -0.361 OA
ATOM     32  HO  UNL     1      13.505  20.397 -13.806  1.00  0.00     0.217 HD
ENDBRANCH   5  31
TORSDOF 4
ENDMDL
