MODEL 1
REMARK VINA RESULT:      -7.3      0.000      0.000
REMARK  1 active torsions:
REMARK  status: ('A' for Active; 'I' for Inactive)
REMARK    1  A    between atoms: C_8  and  O_16 
ROOT
HETATM    1  C   UNL     1     -11.695 -28.547   4.824  1.00  0.00     0.006 C 
HETATM    2  C   UNL     1      -7.121 -27.314   4.607  1.00  0.00     0.064 C 
HETATM    3  C   UNL     1      -9.488 -27.582   4.595  1.00  0.00    -0.009 C 
HETATM    4  C   UNL     1      -3.720 -24.775   3.118  1.00  0.00     0.020 C 
HETATM    5  C   UNL     1      -9.959 -27.480   2.058  1.00  0.00     0.038 C 
HETATM    6  C   UNL     1      -8.291 -27.306   5.525  1.00  0.00     0.076 C 
HETATM    7  C   UNL     1      -8.948 -27.579   3.165  1.00  0.00    -0.042 C 
HETATM    8  C   UNL     1      -2.542 -23.756   4.951  1.00  0.00     0.065 C 
HETATM    9  C   UNL     1      -5.493 -26.428   3.515  1.00  0.00     0.140 C 
HETATM   10  C   UNL     1     -10.549 -26.501   4.640  1.00  0.00     0.019 C 
HETATM   11  C   UNL     1      -2.914 -25.919   5.910  1.00  0.00     0.035 C 
HETATM   12  N   UNL     1      -6.551 -26.422   2.664  1.00  0.00    -0.338 N 
ATOM     13  HN  UNL     1      -6.598 -25.976   1.747  1.00  0.00     0.167 HD
HETATM   14  C   UNL     1      -2.119 -24.824   5.714  1.00  0.00     0.039 C 
HETATM   15  C   UNL     1     -11.702 -27.269   4.016  1.00  0.00    -0.013 C 
HETATM   16  C   UNL     1     -11.414 -27.594   2.544  1.00  0.00     0.009 C 
HETATM   17  N   UNL     1      -4.801 -27.293   5.391  1.00  0.00    -0.291 N 
ATOM     18  HN  UNL     1      -4.699 -27.960   6.156  1.00  0.00     0.187 HD
HETATM   19  C   UNL     1      -7.541 -27.132   3.282  1.00  0.00     0.062 C 
HETATM   20  C   UNL     1     -10.217 -28.860   4.955  1.00  0.00     0.015 C 
HETATM   21  C   UNL     1      -3.902 -26.346   5.040  1.00  0.00     0.062 C 
HETATM   22  N   UNL     1      -5.823 -27.206   4.581  1.00  0.00    -0.240 N 
HETATM   23  C   UNL     1      -4.322 -25.788   3.842  1.00  0.00     0.038 C 
HETATM   24  C   UNL     1      -2.799 -23.864   3.598  1.00  0.00     0.037 C 
ENDROOT
BRANCH   8  25
HETATM   25  O   UNL     1      -2.803 -22.592   5.563  1.00  0.00    -0.361 OA
ATOM     26  HO  UNL     1      -2.522 -22.477   6.463  1.00  0.00     0.217 HD
ENDBRANCH   8  25
TORSDOF 1
ENDMDL
MODEL 2
REMARK VINA RESULT:      -7.2      5.880      8.868
REMARK  1 active torsions:
REMARK  status: ('A' for Active; 'I' for Inactive)
REMARK    1  A    between atoms: C_8  and  O_16 
ROOT
HETATM    1  C   UNL     1     -18.434 -31.255  -1.066  1.00  0.00     0.006 C 
HETATM    2  C   UNL     1     -14.929 -28.842   1.029  1.00  0.00     0.064 C 
HETATM    3  C   UNL     1     -16.568 -30.347   0.181  1.00  0.00    -0.009 C 
HETATM    4  C   UNL     1     -11.928 -28.172   4.311  1.00  0.00     0.020 C 
HETATM    5  C   UNL     1     -17.989 -30.739   2.302  1.00  0.00     0.038 C 
HETATM    6  C   UNL     1     -15.217 -29.691  -0.158  1.00  0.00     0.076 C 
HETATM    7  C   UNL     1     -16.905 -29.953   1.619  1.00  0.00    -0.042 C 
HETATM    8  C   UNL     1      -9.695 -28.054   3.423  1.00  0.00     0.065 C 
HETATM    9  C   UNL     1     -13.878 -28.288   2.823  1.00  0.00     0.140 C 
HETATM   10  C   UNL     1     -16.524 -31.862   0.166  1.00  0.00     0.019 C 
HETATM   11  C   UNL     1     -10.835 -26.816   1.718  1.00  0.00     0.035 C 
HETATM   12  N   UNL     1     -14.929 -29.044   3.233  1.00  0.00    -0.338 N 
ATOM     13  HN  UNL     1     -15.109 -29.382   4.178  1.00  0.00     0.167 HD
HETATM   14  C   UNL     1      -9.746 -27.011   2.523  1.00  0.00     0.039 C 
HETATM   15  C   UNL     1     -18.015 -32.146   0.081  1.00  0.00    -0.013 C 
HETATM   16  C   UNL     1     -18.733 -31.703   1.362  1.00  0.00     0.009 C 
HETATM   17  N   UNL     1     -13.111 -27.202   1.097  1.00  0.00    -0.291 N 
ATOM     18  HN  UNL     1     -13.108 -26.668   0.227  1.00  0.00     0.187 HD
HETATM   19  C   UNL     1     -15.698 -29.260   2.124  1.00  0.00     0.062 C 
HETATM   20  C   UNL     1     -17.654 -29.979  -0.809  1.00  0.00     0.015 C 
HETATM   21  C   UNL     1     -12.124 -27.218   2.020  1.00  0.00     0.062 C 
HETATM   22  N   UNL     1     -14.071 -27.988   1.510  1.00  0.00    -0.240 N 
HETATM   23  C   UNL     1     -12.597 -27.900   3.132  1.00  0.00     0.038 C 
HETATM   24  C   UNL     1     -10.559 -28.153   4.496  1.00  0.00     0.037 C 
ENDROOT
BRANCH   8  25
HETATM   25  O   UNL     1      -8.837 -29.058   3.195  1.00  0.00    -0.361 OA
ATOM     26  HO  UNL     1      -8.670 -29.682   3.891  1.00  0.00     0.217 HD
ENDBRANCH   8  25
TORSDOF 1
ENDMDL
MODEL 3
REMARK VINA RESULT:      -6.7      5.454      9.589
REMARK  1 active torsions:
REMARK  status: ('A' for Active; 'I' for Inactive)
REMARK    1  A    between atoms: C_8  and  O_16 
ROOT
HETATM    1  C   UNL     1      -7.918 -27.427   5.011  1.00  0.00     0.006 C 
HETATM    2  C   UNL     1     -12.316 -28.027   3.341  1.00  0.00     0.064 C 
HETATM    3  C   UNL     1      -9.995 -27.897   3.862  1.00  0.00    -0.009 C 
HETATM    4  C   UNL     1     -15.289 -28.723   0.039  1.00  0.00     0.020 C 
HETATM    5  C   UNL     1      -9.201 -26.228   2.058  1.00  0.00     0.038 C 
HETATM    6  C   UNL     1     -11.273 -28.704   4.158  1.00  0.00     0.076 C 
HETATM    7  C   UNL     1     -10.349 -26.893   2.766  1.00  0.00    -0.042 C 
HETATM    8  C   UNL     1     -16.605 -30.691   0.468  1.00  0.00     0.065 C 
HETATM    9  C   UNL     1     -13.718 -27.860   1.718  1.00  0.00     0.140 C 
HETATM   10  C   UNL     1      -8.866 -28.739   3.305  1.00  0.00     0.019 C 
HETATM   11  C   UNL     1     -16.529 -29.807   2.693  1.00  0.00     0.035 C 
HETATM   12  N   UNL     1     -12.563 -27.307   1.263  1.00  0.00    -0.338 N 
ATOM     13  HN  UNL     1     -12.366 -26.995   0.312  1.00  0.00     0.167 HD
HETATM   14  C   UNL     1     -17.204 -30.436   1.683  1.00  0.00     0.039 C 
HETATM   15  C   UNL     1      -7.707 -27.789   3.558  1.00  0.00    -0.013 C 
HETATM   16  C   UNL     1      -7.833 -26.527   2.694  1.00  0.00     0.009 C 
HETATM   17  N   UNL     1     -14.707 -28.514   3.545  1.00  0.00    -0.291 N 
ATOM     18  HN  UNL     1     -14.957 -28.560   4.533  1.00  0.00     0.187 HD
HETATM   19  C   UNL     1     -11.719 -27.253   2.336  1.00  0.00     0.062 C 
HETATM   20  C   UNL     1      -9.420 -27.247   5.104  1.00  0.00     0.015 C 
HETATM   21  C   UNL     1     -15.477 -28.927   2.513  1.00  0.00     0.062 C 
HETATM   22  N   UNL     1     -13.587 -28.047   3.059  1.00  0.00    -0.240 N 
HETATM   23  C   UNL     1     -14.866 -28.512   1.338  1.00  0.00     0.038 C 
HETATM   24  C   UNL     1     -16.188 -29.684  -0.381  1.00  0.00     0.037 C 
ENDROOT
BRANCH   8  25
HETATM   25  O   UNL     1     -16.331 -31.961   0.139  1.00  0.00    -0.361 OA
ATOM     26  HO  UNL     1     -17.001 -32.621   0.273  1.00  0.00     0.217 HD
ENDBRANCH   8  25
TORSDOF 1
ENDMDL
