MODEL 1
REMARK VINA RESULT:      -9.6      0.000      0.000
REMARK  0 active torsions:
REMARK  status: ('A' for Active; 'I' for Inactive)
ROOT
HETATM    1  C   UNL     1     -11.068 -27.077   2.814  1.00  0.00    -0.013 C 
HETATM    2  C   UNL     1     -15.765 -29.619   0.617  1.00  0.00    -0.048 C 
HETATM    3  C   UNL     1      -7.769 -27.471   2.934  1.00  0.00     0.209 C 
HETATM    4  C   UNL     1     -13.097 -28.233   4.210  1.00  0.00     0.099 C 
HETATM    5  C   UNL     1      -9.473 -28.233   4.480  1.00  0.00     0.064 C 
HETATM    6  C   UNL     1     -12.358 -27.065   2.284  1.00  0.00     0.026 C 
HETATM    7  C   UNL     1      -8.631 -28.698   3.285  1.00  0.00     0.049 C 
HETATM    8  C   UNL     1     -10.028 -26.429   2.076  1.00  0.00     0.011 C 
HETATM    9  C   UNL     1     -16.080 -30.156   1.837  1.00  0.00    -0.048 C 
HETATM   10  C   UNL     1     -16.264 -30.018  -0.611  1.00  0.00     0.008 C 
HETATM   11  N   UNL     1     -11.897 -28.166   4.787  1.00  0.00    -0.367 N 
ATOM     12  HN  UNL     1     -11.778 -28.408   5.771  1.00  0.00     0.165 HD
HETATM   13  C   UNL     1     -15.139 -29.647   2.885  1.00  0.00     0.074 C 
HETATM   14  C   UNL     1     -17.017 -31.112   2.131  1.00  0.00     0.008 C 
HETATM   15  C   UNL     1     -10.848 -27.773   4.047  1.00  0.00     0.025 C 
HETATM   16  C   UNL     1     -14.744 -28.501   0.701  1.00  0.00     0.074 C 
HETATM   17  C   UNL     1     -13.275 -27.945   2.844  1.00  0.00    -0.017 C 
HETATM   18  C   UNL     1      -8.608 -26.479   2.127  1.00  0.00     0.007 C 
HETATM   19  C   UNL     1     -14.367 -28.576   2.161  1.00  0.00    -0.060 C 
HETATM   20  C   UNL     1     -18.043 -31.559   1.346  1.00  0.00     0.001 C 
HETATM   21  N   UNL     1      -7.460 -26.961   4.287  1.00  0.00    -0.067 N 
ATOM     22  HN1 UNL     1      -7.145 -25.991   4.275  1.00  0.00     0.277 HD
ATOM     23  HN2 UNL     1      -6.616 -27.379   4.677  1.00  0.00     0.277 HD
HETATM   24  C   UNL     1     -18.291 -31.254   0.029  1.00  0.00     0.000 C 
HETATM   25  C   UNL     1     -17.486 -30.580  -0.843  1.00  0.00     0.001 C 
HETATM   26  C   UNL     1      -8.636 -27.160   5.150  1.00  0.00     0.244 C 
ENDROOT
TORSDOF 0
ENDMDL
MODEL 2
REMARK VINA RESULT:      -9.5      2.431      8.193
REMARK  0 active torsions:
REMARK  status: ('A' for Active; 'I' for Inactive)
ROOT
HETATM    1  C   UNL     1     -16.232 -29.480   1.757  1.00  0.00    -0.013 C 
HETATM    2  C   UNL     1     -11.090 -27.915   3.869  1.00  0.00    -0.048 C 
HETATM    3  C   UNL     1     -17.853 -32.195   0.728  1.00  0.00     0.209 C 
HETATM    4  C   UNL     1     -14.392 -27.883   0.546  1.00  0.00     0.099 C 
HETATM    5  C   UNL     1     -16.541 -30.603  -0.546  1.00  0.00     0.064 C 
HETATM    6  C   UNL     1     -15.397 -28.682   2.538  1.00  0.00     0.026 C 
HETATM    7  C   UNL     1     -16.442 -31.965   0.153  1.00  0.00     0.049 C 
HETATM    8  C   UNL     1     -17.214 -30.282   2.418  1.00  0.00     0.011 C 
HETATM    9  C   UNL     1     -10.704 -27.432   2.647  1.00  0.00    -0.048 C 
HETATM   10  C   UNL     1     -10.260 -28.212   4.936  1.00  0.00     0.008 C 
HETATM   11  N   UNL     1     -15.246 -28.555  -0.228  1.00  0.00    -0.367 N 
ATOM     12  HN  UNL     1     -15.302 -28.365  -1.229  1.00  0.00     0.165 HD
HETATM   13  C   UNL     1     -11.844 -27.500   1.679  1.00  0.00     0.074 C 
HETATM   14  C   UNL     1      -9.455 -27.037   2.243  1.00  0.00     0.008 C 
HETATM   15  C   UNL     1     -16.031 -29.486   0.338  1.00  0.00     0.025 C 
HETATM   16  C   UNL     1     -12.585 -28.145   3.976  1.00  0.00     0.074 C 
HETATM   17  C   UNL     1     -14.269 -28.160   1.920  1.00  0.00    -0.017 C 
HETATM   18  C   UNL     1     -18.007 -31.393   2.021  1.00  0.00     0.007 C 
HETATM   19  C   UNL     1     -13.010 -27.885   2.551  1.00  0.00    -0.060 C 
HETATM   20  C   UNL     1      -8.361 -26.767   3.019  1.00  0.00     0.001 C 
HETATM   21  N   UNL     1     -18.683 -31.646  -0.365  1.00  0.00    -0.067 N 
ATOM     22  HN1 UNL     1     -19.634 -31.434  -0.063  1.00  0.00     0.277 HD
ATOM     23  HN2 UNL     1     -18.911 -32.346  -1.071  1.00  0.00     0.277 HD
HETATM   24  C   UNL     1      -8.220 -26.961   4.373  1.00  0.00     0.000 C 
HETATM   25  C   UNL     1      -9.063 -27.620   5.219  1.00  0.00     0.001 C 
HETATM   26  C   UNL     1     -18.001 -30.474  -0.938  1.00  0.00     0.244 C 
ENDROOT
TORSDOF 0
ENDMDL
MODEL 3
REMARK VINA RESULT:      -8.2      1.004      1.267
REMARK  0 active torsions:
REMARK  status: ('A' for Active; 'I' for Inactive)
ROOT
HETATM    1  C   UNL     1      -9.892 -26.770   3.191  1.00  0.00    -0.013 C 
HETATM    2  C   UNL     1     -14.845 -28.918   1.142  1.00  0.00    -0.048 C 
HETATM    3  C   UNL     1      -6.633 -27.429   3.207  1.00  0.00     0.209 C 
HETATM    4  C   UNL     1     -11.963 -27.762   4.650  1.00  0.00     0.099 C 
HETATM    5  C   UNL     1      -8.345 -28.056   4.806  1.00  0.00     0.064 C 
HETATM    6  C   UNL     1     -11.193 -26.652   2.702  1.00  0.00     0.026 C 
HETATM    7  C   UNL     1      -7.580 -28.584   3.585  1.00  0.00     0.049 C 
HETATM    8  C   UNL     1      -8.827 -26.207   2.421  1.00  0.00     0.011 C 
HETATM    9  C   UNL     1     -15.164 -29.431   2.371  1.00  0.00    -0.048 C 
HETATM   10  C   UNL     1     -15.414 -29.273  -0.069  1.00  0.00     0.008 C 
HETATM   11  N   UNL     1     -10.744 -27.794   5.189  1.00  0.00    -0.367 N 
ATOM     12  HN  UNL     1     -10.615 -28.048   6.169  1.00  0.00     0.165 HD
HETATM   13  C   UNL     1     -14.153 -29.003   3.390  1.00  0.00     0.074 C 
HETATM   14  C   UNL     1     -16.166 -30.309   2.694  1.00  0.00     0.008 C 
HETATM   15  C   UNL     1      -9.690 -27.485   4.416  1.00  0.00     0.025 C 
HETATM   16  C   UNL     1     -13.735 -27.886   1.194  1.00  0.00     0.074 C 
HETATM   17  C   UNL     1     -12.160 -27.457   3.290  1.00  0.00    -0.017 C 
HETATM   18  C   UNL     1      -7.415 -26.371   2.427  1.00  0.00     0.007 C 
HETATM   19  C   UNL     1     -13.320 -27.996   2.641  1.00  0.00    -0.060 C 
HETATM   20  C   UNL     1     -17.249 -30.670   1.942  1.00  0.00     0.001 C 
HETATM   21  N   UNL     1      -6.242 -26.950   4.550  1.00  0.00    -0.067 N 
ATOM     22  HN1 UNL     1      -5.850 -26.009   4.528  1.00  0.00     0.277 HD
ATOM     23  HN2 UNL     1      -5.423 -27.437   4.913  1.00  0.00     0.277 HD
HETATM   24  C   UNL     1     -17.513 -30.342   0.633  1.00  0.00     0.000 C 
HETATM   25  C   UNL     1     -16.684 -29.733  -0.264  1.00  0.00     0.001 C 
HETATM   26  C   UNL     1      -7.403 -27.056   5.450  1.00  0.00     0.244 C 
ENDROOT
TORSDOF 0
ENDMDL
MODEL 4
REMARK VINA RESULT:      -7.3      1.996      3.721
REMARK  0 active torsions:
REMARK  status: ('A' for Active; 'I' for Inactive)
ROOT
HETATM    1  C   UNL     1      -7.405 -26.433   3.312  1.00  0.00    -0.013 C 
HETATM    2  C   UNL     1     -12.781 -27.830   1.731  1.00  0.00    -0.048 C 
HETATM    3  C   UNL     1      -4.308 -27.633   3.175  1.00  0.00     0.209 C 
HETATM    4  C   UNL     1      -9.500 -26.969   4.963  1.00  0.00     0.099 C 
HETATM    5  C   UNL     1      -5.978 -27.862   4.917  1.00  0.00     0.064 C 
HETATM    6  C   UNL     1      -8.701 -26.126   2.897  1.00  0.00     0.026 C 
HETATM    7  C   UNL     1      -5.402 -28.586   3.692  1.00  0.00     0.049 C 
HETATM    8  C   UNL     1      -6.320 -26.106   2.439  1.00  0.00     0.011 C 
HETATM    9  C   UNL     1     -13.090 -28.206   3.012  1.00  0.00    -0.048 C 
HETATM   10  C   UNL     1     -13.486 -28.155   0.586  1.00  0.00     0.008 C 
HETATM   11  N   UNL     1      -8.267 -27.174   5.427  1.00  0.00    -0.367 N 
ATOM     12  HN  UNL     1      -8.110 -27.387   6.413  1.00  0.00     0.165 HD
HETATM   13  C   UNL     1     -11.950 -27.895   3.932  1.00  0.00     0.074 C 
HETATM   14  C   UNL     1     -14.197 -28.880   3.458  1.00  0.00     0.008 C 
HETATM   15  C   UNL     1      -7.236 -27.096   4.570  1.00  0.00     0.025 C 
HETATM   16  C   UNL     1     -11.515 -27.000   1.641  1.00  0.00     0.074 C 
HETATM   17  C   UNL     1      -9.742 -26.718   3.600  1.00  0.00    -0.017 C 
HETATM   18  C   UNL     1      -4.958 -26.507   2.371  1.00  0.00     0.007 C 
HETATM   19  C   UNL     1     -11.019 -27.091   3.063  1.00  0.00    -0.060 C 
HETATM   20  C   UNL     1     -15.376 -29.097   2.801  1.00  0.00     0.001 C 
HETATM   21  N   UNL     1      -3.746 -27.147   4.453  1.00  0.00    -0.067 N 
ATOM     22  HN1 UNL     1      -3.207 -26.289   4.340  1.00  0.00     0.277 HD
ATOM     23  HN2 UNL     1      -2.994 -27.742   4.800  1.00  0.00     0.277 HD
HETATM   24  C   UNL     1     -15.677 -28.809   1.491  1.00  0.00     0.000 C 
HETATM   25  C   UNL     1     -14.826 -28.405   0.503  1.00  0.00     0.001 C 
HETATM   26  C   UNL     1      -4.840 -27.000   5.428  1.00  0.00     0.244 C 
ENDROOT
TORSDOF 0
ENDMDL
MODEL 5
REMARK VINA RESULT:      -7.2      1.291      2.043
REMARK  0 active torsions:
REMARK  status: ('A' for Active; 'I' for Inactive)
ROOT
HETATM    1  C   UNL     1     -12.837 -27.739   2.367  1.00  0.00    -0.013 C 
HETATM    2  C   UNL     1     -16.793 -30.738  -0.582  1.00  0.00    -0.048 C 
HETATM    3  C   UNL     1      -9.596 -27.819   3.106  1.00  0.00     0.209 C 
HETATM    4  C   UNL     1     -14.978 -29.063   3.398  1.00  0.00     0.099 C 
HETATM    5  C   UNL     1     -11.484 -28.719   4.332  1.00  0.00     0.064 C 
HETATM    6  C   UNL     1     -14.001 -27.855   1.608  1.00  0.00     0.026 C 
HETATM    7  C   UNL     1     -10.394 -29.118   3.328  1.00  0.00     0.049 C 
HETATM    8  C   UNL     1     -11.740 -27.006   1.815  1.00  0.00     0.011 C 
HETATM    9  C   UNL     1     -17.281 -31.287   0.574  1.00  0.00    -0.048 C 
HETATM   10  C   UNL     1     -17.017 -31.198  -1.869  1.00  0.00     0.008 C 
HETATM   11  N   UNL     1     -13.918 -28.876   4.185  1.00  0.00    -0.367 N 
ATOM     12  HN  UNL     1     -13.964 -29.093   5.181  1.00  0.00     0.165 HD
HETATM   13  C   UNL     1     -16.601 -30.679   1.763  1.00  0.00     0.074 C 
HETATM   14  C   UNL     1     -18.166 -32.323   0.719  1.00  0.00     0.008 C 
HETATM   15  C   UNL     1     -12.789 -28.395   3.639  1.00  0.00     0.025 C 
HETATM   16  C   UNL     1     -15.911 -29.528  -0.345  1.00  0.00     0.074 C 
HETATM   17  C   UNL     1     -14.923 -28.810   2.015  1.00  0.00    -0.017 C 
HETATM   18  C   UNL     1     -10.356 -26.921   2.128  1.00  0.00     0.007 C 
HETATM   19  C   UNL     1     -15.807 -29.549   1.161  1.00  0.00    -0.060 C 
HETATM   20  C   UNL     1     -18.984 -32.875  -0.228  1.00  0.00     0.001 C 
HETATM   21  N   UNL     1      -9.592 -27.266   4.476  1.00  0.00    -0.067 N 
ATOM     22  HN1 UNL     1      -9.369 -26.271   4.494  1.00  0.00     0.277 HD
ATOM     23  HN2 UNL     1      -8.801 -27.598   5.028  1.00  0.00     0.277 HD
HETATM   24  C   UNL     1     -19.008 -32.611  -1.578  1.00  0.00     0.000 C 
HETATM   25  C   UNL     1     -18.118 -31.875  -2.306  1.00  0.00     0.001 C 
HETATM   26  C   UNL     1     -10.886 -27.564   5.113  1.00  0.00     0.244 C 
ENDROOT
TORSDOF 0
ENDMDL
