REMARK  6 active torsions:
REMARK  status: ('A' for Active; 'I' for Inactive)
REMARK    1  A    between atoms: O_7  and  C_13 
REMARK    2  A    between atoms: O_10  and  C_29 
REMARK    3  A    between atoms: C_17  and  C_18 
REMARK    4  A    between atoms: C_17  and  C_34 
REMARK    5  A    between atoms: C_30  and  C_33 
REMARK    6  A    between atoms: C_31  and  N_35 
ROOT
HETATM    1  C   UNL     1     -23.592  90.950 -61.075  1.00  0.00     0.190 C 
HETATM    2  O   UNL     1     -23.499  90.741 -59.883  1.00  0.00    -0.287 OA
ENDROOT
BRANCH   1   3
HETATM    3  C   UNL     1     -24.647  91.846 -61.641  1.00  0.00     0.017 C 
HETATM    4  C   UNL     1     -26.001  91.563 -61.506  1.00  0.00     0.045 C 
HETATM    5  C   UNL     1     -26.931  92.559 -61.785  1.00  0.00     0.038 C 
HETATM    6  C   UNL     1     -26.510  93.748 -62.371  1.00  0.00     0.030 C 
HETATM    7  C   UNL     1     -25.173  93.940 -62.675  1.00  0.00     0.003 C 
HETATM    8  C   UNL     1     -24.244  92.991 -62.312  1.00  0.00     0.015 C 
BRANCH   5   9
HETATM    9  N   UNL     1     -28.316  92.437 -61.472  1.00  0.00    -0.312 N 
HETATM   10  C   UNL     1     -29.023  93.387 -60.633  1.00  0.00     0.154 C 
HETATM   11  C   UNL     1     -30.502  93.154 -60.926  1.00  0.00     0.158 C 
HETATM   12  C   UNL     1     -30.562  91.981 -61.879  1.00  0.00     0.108 C 
HETATM   13  N   UNL     1     -31.450  92.037 -63.021  1.00  0.00    -0.100 NA
HETATM   14  C   UNL     1     -29.148  91.485 -62.030  1.00  0.00     0.269 C 
HETATM   15  O   UNL     1     -28.820  90.387 -62.398  1.00  0.00    -0.266 OA
BRANCH  11  16
HETATM   16  C   UNL     1     -31.265  92.800 -59.664  1.00  0.00     0.184 C 
HETATM   17  O   UNL     1     -30.793  91.912 -58.920  1.00  0.00    -0.647 OA
HETATM   18  O   UNL     1     -32.358  93.353 -59.456  1.00  0.00    -0.647 OA
ENDBRANCH  11  16
ENDBRANCH   5   9
ENDBRANCH   1   3
BRANCH   1  19
HETATM   19  C   UNL     1     -22.613  90.425 -62.067  1.00  0.00     0.018 C 
HETATM   20  C   UNL     1     -22.923  89.385 -62.888  1.00  0.00     0.032 C 
HETATM   21  C   UNL     1     -21.852  88.584 -63.381  1.00  0.00     0.052 C 
HETATM   22  C   UNL     1     -22.148  87.656 -64.405  1.00  0.00     0.113 C 
HETATM   23  C   UNL     1     -20.556  88.895 -62.963  1.00  0.00     0.158 C 
HETATM   24  C   UNL     1     -21.286  86.699 -64.935  1.00  0.00     0.105 C 
HETATM   25  C   UNL     1     -19.918  86.801 -64.997  1.00  0.00     0.113 C 
HETATM   26  C   UNL     1     -19.306  86.927 -63.729  1.00  0.00     0.249 C 
HETATM   27  O   UNL     1     -18.740  85.983 -63.200  1.00  0.00    -0.268 OA
HETATM   28  N   UNL     1     -19.454  88.118 -63.082  1.00  0.00    -0.303 N 
ATOM     29  HN  UNL     1     -18.616  88.474 -62.623  1.00  0.00     0.171 HD
HETATM   30  O   UNL     1     -20.335  89.944 -62.117  1.00  0.00    -0.330 OA
HETATM   31  C   UNL     1     -21.261  91.005 -62.196  1.00  0.00     0.220 C 
BRANCH  22  32
HETATM   32  O   UNL     1     -23.345  87.754 -65.018  1.00  0.00    -0.357 OA
ATOM     33  HO  UNL     1     -23.544  87.130 -65.706  1.00  0.00     0.217 HD
ENDBRANCH  22  32
BRANCH  24  34
HETATM   34  O   UNL     1     -21.785  85.528 -65.444  1.00  0.00    -0.358 OA
ATOM     35  HO  UNL     1     -21.197  84.875 -65.806  1.00  0.00     0.217 HD
ENDBRANCH  24  34
ENDBRANCH   1  19
TORSDOF 6
