MODEL 1
REMARK VINA RESULT:      -7.3      0.000      0.000
REMARK  1 active torsions:
REMARK  status: ('A' for Active; 'I' for Inactive)
REMARK    1  A    between atoms: C_7  and  C_13 
ROOT
HETATM    1  C   UNL     1      22.331  19.152  68.075  1.00  0.00     0.030 C 
HETATM    2  N   UNL     1      21.155  19.348  69.955  1.00  0.00    -0.365 N 
ATOM      3  HN  UNL     1      20.784  19.736  70.822  1.00  0.00     0.165 HD
HETATM    4  C   UNL     1      21.602  17.964  68.253  1.00  0.00    -0.008 C 
HETATM    5  C   UNL     1      20.659  16.898  70.172  1.00  0.00     0.048 C 
HETATM    6  C   UNL     1      20.594  15.710  69.450  1.00  0.00     0.043 C 
HETATM    7  C   UNL     1      20.937  18.073  69.482  1.00  0.00     0.043 C 
HETATM    8  C   UNL     1      21.958  20.004  69.060  1.00  0.00     0.089 C 
HETATM    9  C   UNL     1      20.889  15.688  68.087  1.00  0.00     0.019 C 
HETATM   10  C   UNL     1      21.327  16.851  67.467  1.00  0.00     0.015 C 
ENDROOT
BRANCH   6  11
HETATM   11  C   UNL     1      20.440  14.408  70.187  1.00  0.00     0.209 C 
HETATM   12  O   UNL     1      20.816  13.363  69.633  1.00  0.00    -0.644 OA
HETATM   13  O   UNL     1      20.054  14.392  71.365  1.00  0.00    -0.644 OA
ENDBRANCH   6  11
TORSDOF 1
ENDMDL
MODEL 2
REMARK VINA RESULT:      -7.1      3.060      4.724
REMARK  1 active torsions:
REMARK  status: ('A' for Active; 'I' for Inactive)
REMARK    1  A    between atoms: C_7  and  C_13 
ROOT
HETATM    1  C   UNL     1      19.624  14.394  70.542  1.00  0.00     0.030 C 
HETATM    2  N   UNL     1      19.261  14.642  68.360  1.00  0.00    -0.365 N 
ATOM      3  HN  UNL     1      18.989  14.432  67.400  1.00  0.00     0.165 HD
HETATM    4  C   UNL     1      20.060  15.680  70.177  1.00  0.00    -0.008 C 
HETATM    5  C   UNL     1      20.761  16.637  68.103  1.00  0.00     0.048 C 
HETATM    6  C   UNL     1      21.367  17.669  68.813  1.00  0.00     0.043 C 
HETATM    7  C   UNL     1      19.902  15.784  68.787  1.00  0.00     0.043 C 
HETATM    8  C   UNL     1      19.051  13.837  69.449  1.00  0.00     0.089 C 
HETATM    9  C   UNL     1      21.188  17.787  70.191  1.00  0.00     0.019 C 
HETATM   10  C   UNL     1      20.461  16.816  70.867  1.00  0.00     0.015 C 
ENDROOT
BRANCH   6  11
HETATM   11  C   UNL     1      22.409  18.516  68.134  1.00  0.00     0.209 C 
HETATM   12  O   UNL     1      22.326  19.750  68.229  1.00  0.00    -0.644 OA
HETATM   13  O   UNL     1      23.392  17.991  67.590  1.00  0.00    -0.644 OA
ENDBRANCH   6  11
TORSDOF 1
ENDMDL
MODEL 3
REMARK VINA RESULT:      -6.9      1.932      2.940
REMARK  1 active torsions:
REMARK  status: ('A' for Active; 'I' for Inactive)
REMARK    1  A    between atoms: C_7  and  C_13 
ROOT
HETATM    1  C   UNL     1      20.714  17.926  70.699  1.00  0.00     0.030 C 
HETATM    2  N   UNL     1      20.904  17.703  68.492  1.00  0.00    -0.365 N 
ATOM      3  HN  UNL     1      21.046  17.938  67.510  1.00  0.00     0.165 HD
HETATM    4  C   UNL     1      20.459  16.582  70.379  1.00  0.00    -0.008 C 
HETATM    5  C   UNL     1      19.729  15.488  68.384  1.00  0.00     0.048 C 
HETATM    6  C   UNL     1      19.368  14.385  69.150  1.00  0.00     0.043 C 
HETATM    7  C   UNL     1      20.499  16.481  68.981  1.00  0.00     0.043 C 
HETATM    8  C   UNL     1      21.083  18.550  69.554  1.00  0.00     0.089 C 
HETATM    9  C   UNL     1      19.694  14.321  70.505  1.00  0.00     0.019 C 
HETATM   10  C   UNL     1      20.315  15.407  71.106  1.00  0.00     0.015 C 
ENDROOT
BRANCH   6  11
HETATM   11  C   UNL     1      18.417  13.370  68.576  1.00  0.00     0.209 C 
HETATM   12  O   UNL     1      17.197  13.576  68.676  1.00  0.00    -0.644 OA
HETATM   13  O   UNL     1      18.841  12.408  67.919  1.00  0.00    -0.644 OA
ENDBRANCH   6  11
TORSDOF 1
ENDMDL
MODEL 4
REMARK VINA RESULT:      -6.8      1.542      1.835
REMARK  1 active torsions:
REMARK  status: ('A' for Active; 'I' for Inactive)
REMARK    1  A    between atoms: C_7  and  C_13 
ROOT
HETATM    1  C   UNL     1      22.061  18.225  68.455  1.00  0.00     0.030 C 
HETATM    2  N   UNL     1      20.210  18.428  69.675  1.00  0.00    -0.365 N 
ATOM      3  HN  UNL     1      19.542  18.785  70.357  1.00  0.00     0.165 HD
HETATM    4  C   UNL     1      21.205  17.162  68.117  1.00  0.00    -0.008 C 
HETATM    5  C   UNL     1      19.409  16.085  69.267  1.00  0.00     0.048 C 
HETATM    6  C   UNL     1      19.538  15.002  68.403  1.00  0.00     0.043 C 
HETATM    7  C   UNL     1      20.085  17.260  68.956  1.00  0.00     0.043 C 
HETATM    8  C   UNL     1      21.389  19.026  69.316  1.00  0.00     0.089 C 
HETATM    9  C   UNL     1      20.395  15.066  67.305  1.00  0.00     0.019 C 
HETATM   10  C   UNL     1      21.183  16.194  67.121  1.00  0.00     0.015 C 
ENDROOT
BRANCH   6  11
HETATM   11  C   UNL     1      18.938  13.677  68.789  1.00  0.00     0.209 C 
HETATM   12  O   UNL     1      18.517  13.530  69.946  1.00  0.00    -0.644 OA
HETATM   13  O   UNL     1      18.765  12.792  67.938  1.00  0.00    -0.644 OA
ENDBRANCH   6  11
TORSDOF 1
ENDMDL
MODEL 5
REMARK VINA RESULT:      -6.7      1.586      2.187
REMARK  1 active torsions:
REMARK  status: ('A' for Active; 'I' for Inactive)
REMARK    1  A    between atoms: C_7  and  C_13 
ROOT
HETATM    1  C   UNL     1      21.543  19.294  69.404  1.00  0.00     0.030 C 
HETATM    2  N   UNL     1      22.247  18.268  67.559  1.00  0.00    -0.365 N 
ATOM      3  HN  UNL     1      22.663  18.119  66.639  1.00  0.00     0.165 HD
HETATM    4  C   UNL     1      21.188  17.938  69.504  1.00  0.00    -0.008 C 
HETATM    5  C   UNL     1      20.834  16.219  67.882  1.00  0.00     0.048 C 
HETATM    6  C   UNL     1      20.139  15.490  68.841  1.00  0.00     0.043 C 
HETATM    7  C   UNL     1      21.563  17.328  68.298  1.00  0.00     0.043 C 
HETATM    8  C   UNL     1      22.272  19.437  68.272  1.00  0.00     0.089 C 
HETATM    9  C   UNL     1      20.101  15.915  70.170  1.00  0.00     0.019 C 
HETATM   10  C   UNL     1      20.700  17.120  70.515  1.00  0.00     0.015 C 
ENDROOT
BRANCH   6  11
HETATM   11  C   UNL     1      19.228  14.377  68.403  1.00  0.00     0.209 C 
HETATM   12  O   UNL     1      19.246  14.028  67.212  1.00  0.00    -0.644 OA
HETATM   13  O   UNL     1      18.559  13.745  69.233  1.00  0.00    -0.644 OA
ENDBRANCH   6  11
TORSDOF 1
ENDMDL
MODEL 6
REMARK VINA RESULT:      -6.7      2.328      3.185
REMARK  1 active torsions:
REMARK  status: ('A' for Active; 'I' for Inactive)
REMARK    1  A    between atoms: C_7  and  C_13 
ROOT
HETATM    1  C   UNL     1      20.495  17.515  70.815  1.00  0.00     0.030 C 
HETATM    2  N   UNL     1      21.668  18.433  69.161  1.00  0.00    -0.365 N 
ATOM      3  HN  UNL     1      22.177  19.125  68.611  1.00  0.00     0.165 HD
HETATM    4  C   UNL     1      20.670  16.539  69.817  1.00  0.00    -0.008 C 
HETATM    5  C   UNL     1      21.110  16.663  67.473  1.00  0.00     0.048 C 
HETATM    6  C   UNL     1      20.671  15.349  67.345  1.00  0.00     0.043 C 
HETATM    7  C   UNL     1      21.335  17.161  68.751  1.00  0.00     0.043 C 
HETATM    8  C   UNL     1      21.198  18.608  70.436  1.00  0.00     0.089 C 
HETATM    9  C   UNL     1      20.378  14.584  68.475  1.00  0.00     0.019 C 
HETATM   10  C   UNL     1      20.452  15.170  69.731  1.00  0.00     0.015 C 
ENDROOT
BRANCH   6  11
HETATM   11  C   UNL     1      20.282  14.831  65.988  1.00  0.00     0.209 C 
HETATM   12  O   UNL     1      21.089  14.948  65.053  1.00  0.00    -0.644 OA
HETATM   13  O   UNL     1      19.226  14.199  65.833  1.00  0.00    -0.644 OA
ENDBRANCH   6  11
TORSDOF 1
ENDMDL
MODEL 7
REMARK VINA RESULT:      -6.5      3.593      5.051
REMARK  1 active torsions:
REMARK  status: ('A' for Active; 'I' for Inactive)
REMARK    1  A    between atoms: C_7  and  C_13 
ROOT
HETATM    1  C   UNL     1      18.391  13.306  65.643  1.00  0.00     0.030 C 
HETATM    2  N   UNL     1      18.361  13.002  67.848  1.00  0.00    -0.365 N 
ATOM      3  HN  UNL     1      18.091  12.654  68.768  1.00  0.00     0.165 HD
HETATM    4  C   UNL     1      19.367  14.146  66.207  1.00  0.00    -0.008 C 
HETATM    5  C   UNL     1      19.651  15.086  68.385  1.00  0.00     0.048 C 
HETATM    6  C   UNL     1      20.524  16.023  67.840  1.00  0.00     0.043 C 
HETATM    7  C   UNL     1      19.273  14.003  67.599  1.00  0.00     0.043 C 
HETATM    8  C   UNL     1      17.878  12.554  66.647  1.00  0.00     0.089 C 
HETATM    9  C   UNL     1      20.934  15.925  66.511  1.00  0.00     0.019 C 
HETATM   10  C   UNL     1      20.402  14.925  65.707  1.00  0.00     0.015 C 
ENDROOT
BRANCH   6  11
HETATM   11  C   UNL     1      20.834  17.276  68.612  1.00  0.00     0.209 C 
HETATM   12  O   UNL     1      19.891  17.973  69.018  1.00  0.00    -0.644 OA
HETATM   13  O   UNL     1      22.000  17.546  68.935  1.00  0.00    -0.644 OA
ENDBRANCH   6  11
TORSDOF 1
ENDMDL
MODEL 8
REMARK VINA RESULT:      -6.4      3.078      4.480
REMARK  1 active torsions:
REMARK  status: ('A' for Active; 'I' for Inactive)
REMARK    1  A    between atoms: C_7  and  C_13 
ROOT
HETATM    1  C   UNL     1      19.277  14.126  66.020  1.00  0.00     0.030 C 
HETATM    2  N   UNL     1      18.559  13.781  68.099  1.00  0.00    -0.365 N 
ATOM      3  HN  UNL     1      18.012  13.421  68.881  1.00  0.00     0.165 HD
HETATM    4  C   UNL     1      20.037  14.939  66.879  1.00  0.00    -0.008 C 
HETATM    5  C   UNL     1      19.639  15.833  69.058  1.00  0.00     0.048 C 
HETATM    6  C   UNL     1      20.647  16.765  68.834  1.00  0.00     0.043 C 
HETATM    7  C   UNL     1      19.514  14.771  68.169  1.00  0.00     0.043 C 
HETATM    8  C   UNL     1      18.470  13.365  66.797  1.00  0.00     0.089 C 
HETATM    9  C   UNL     1      21.451  16.684  67.696  1.00  0.00     0.019 C 
HETATM   10  C   UNL     1      21.185  15.709  66.744  1.00  0.00     0.015 C 
ENDROOT
BRANCH   6  11
HETATM   11  C   UNL     1      20.715  17.998  69.693  1.00  0.00     0.209 C 
HETATM   12  O   UNL     1      20.402  17.906  70.890  1.00  0.00    -0.644 OA
HETATM   13  O   UNL     1      21.181  19.055  69.243  1.00  0.00    -0.644 OA
ENDBRANCH   6  11
TORSDOF 1
ENDMDL
MODEL 9
REMARK VINA RESULT:      -6.3      3.066      4.471
REMARK  1 active torsions:
REMARK  status: ('A' for Active; 'I' for Inactive)
REMARK    1  A    between atoms: C_7  and  C_13 
ROOT
HETATM    1  C   UNL     1      18.865  13.794  67.895  1.00  0.00     0.030 C 
HETATM    2  N   UNL     1      19.276  14.269  70.030  1.00  0.00    -0.365 N 
ATOM      3  HN  UNL     1      19.208  14.264  71.048  1.00  0.00     0.165 HD
HETATM    4  C   UNL     1      19.882  14.764  67.932  1.00  0.00    -0.008 C 
HETATM    5  C   UNL     1      20.526  16.393  69.556  1.00  0.00     0.048 C 
HETATM    6  C   UNL     1      21.223  17.073  68.562  1.00  0.00     0.043 C 
HETATM    7  C   UNL     1      20.066  15.111  69.278  1.00  0.00     0.043 C 
HETATM    8  C   UNL     1      18.598  13.442  69.175  1.00  0.00     0.089 C 
HETATM    9  C   UNL     1      21.375  16.517  67.292  1.00  0.00     0.019 C 
HETATM   10  C   UNL     1      20.756  15.309  67.000  1.00  0.00     0.015 C 
ENDROOT
BRANCH   6  11
HETATM   11  C   UNL     1      21.604  18.511  68.783  1.00  0.00     0.209 C 
HETATM   12  O   UNL     1      22.277  19.088  67.914  1.00  0.00    -0.644 OA
HETATM   13  O   UNL     1      21.160  19.140  69.755  1.00  0.00    -0.644 OA
ENDBRANCH   6  11
TORSDOF 1
ENDMDL
