REMARK  7 active torsions:
REMARK  status: ('A' for Active; 'I' for Inactive)
REMARK    1  A    between atoms: C_4  and  C_6 
REMARK    2  A    between atoms: C_5  and  C_12 
REMARK    3  A    between atoms: C_6  and  C_24 
REMARK    4  A    between atoms: C_9  and  C_12 
REMARK    5  A    between atoms: C_9  and  C_24 
REMARK    6  A    between atoms: N_15  and  C_19 
REMARK    7  A    between atoms: N_15  and  C_21 
ROOT
HETATM    1  C   UNL     1      22.725  18.076  67.927  1.00  0.00    -0.031 C 
HETATM    2  C   UNL     1      20.381  18.126  68.474  1.00  0.00     0.030 C 
HETATM    3  C   UNL     1      21.893  19.675  69.529  1.00  0.00     0.001 C 
HETATM    4  C   UNL     1      22.939  19.139  68.793  1.00  0.00     0.009 C 
HETATM    5  C   UNL     1      21.414  17.676  67.655  1.00  0.00     0.038 C 
HETATM    6  C   UNL     1      20.622  19.119  69.418  1.00  0.00     0.002 C 
ENDROOT
BRANCH   1   7
HETATM    7  C   UNL     1      23.896  17.343  67.305  1.00  0.00     0.041 C 
BRANCH   7   8
HETATM    8  C   UNL     1      24.331  18.066  66.041  1.00  0.00     0.005 C 
BRANCH   8   9
HETATM    9  C   UNL     1      25.541  17.575  65.266  1.00  0.00     0.004 C 
BRANCH   9  10
HETATM   10  C   UNL     1      26.340  18.758  64.733  1.00  0.00     0.027 C 
BRANCH  10  11
HETATM   11  C   UNL     1      25.460  19.668  63.901  1.00  0.00    -0.024 C 
HETATM   12  C   UNL     1      25.447  19.652  62.571  1.00  0.00    -0.084 C 
HETATM   13  C   UNL     1      25.086  20.875  61.775  1.00  0.00     0.034 C 
HETATM   14  C   UNL     1      25.785  18.498  61.677  1.00  0.00     0.034 C 
HETATM   15  C   UNL     1      25.235  20.500  60.323  1.00  0.00     0.005 C 
HETATM   16  C   UNL     1      25.800  19.081  60.271  1.00  0.00     0.005 C 
ENDBRANCH  10  11
ENDBRANCH   9  10
ENDBRANCH   8   9
ENDBRANCH   7   8
ENDBRANCH   1   7
BRANCH   5  17
HETATM   17  N   UNL     1      21.208  16.824  66.573  1.00  0.00    -0.356 N 
ATOM     18  HN  UNL     1      21.501  17.168  65.659  1.00  0.00     0.166 HD
BRANCH  17  19
HETATM   19  C   UNL     1      20.644  15.553  66.609  1.00  0.00     0.032 C 
HETATM   20  C   UNL     1      20.101  15.020  67.773  1.00  0.00     0.029 C 
HETATM   21  C   UNL     1      19.263  13.935  67.923  1.00  0.00     0.002 C 
HETATM   22  C   UNL     1      18.488  13.232  67.028  1.00  0.00     0.000 C 
HETATM   23  C   UNL     1      18.546  13.413  65.658  1.00  0.00     0.000 C 
HETATM   24  C   UNL     1      19.553  14.059  65.004  1.00  0.00     0.002 C 
HETATM   25  C   UNL     1      20.618  14.816  65.431  1.00  0.00     0.029 C 
ENDBRANCH  17  19
ENDBRANCH   5  17
TORSDOF 7
