MODEL 1
REMARK VINA RESULT:      -4.2      0.000      0.000
REMARK  1 active torsions:
REMARK  status: ('A' for Active; 'I' for Inactive)
REMARK    1  A    between atoms: C_8  and  O_10 
ROOT
HETATM    1  C   UNL     1      -3.524  42.885  21.713  1.00  0.00     0.041 C 
HETATM    2  C   UNL     1      -3.499  43.662  20.337  1.00  0.00     0.191 C 
HETATM    3  C   UNL     1      -2.021  44.153  20.122  1.00  0.00     0.023 C 
HETATM    4  N   UNL     1      -3.644  42.574  19.282  1.00  0.00    -0.063 N 
ATOM      5  HN1 UNL     1      -3.872  42.927  18.353  1.00  0.00     0.278 HD
ATOM      6  HN2 UNL     1      -4.477  41.997  19.396  1.00  0.00     0.278 HD
HETATM    7  C   UNL     1      -2.351  41.797  19.340  1.00  0.00     0.220 C 
HETATM    8  C   UNL     1      -2.481  40.880  20.605  1.00  0.00     0.153 C 
HETATM    9  C   UNL     1      -2.280  41.912  21.762  1.00  0.00     0.023 C 
HETATM   10  C   UNL     1      -1.292  42.851  19.752  1.00  0.00     0.029 C 
HETATM   11  C   UNL     1      -1.237  44.216  21.434  1.00  0.00     0.012 C 
HETATM   12  C   UNL     1      -1.042  42.688  21.251  1.00  0.00    -0.001 C 
ENDROOT
BRANCH   8  13
HETATM   13  O   UNL     1      -1.296  40.061  20.619  1.00  0.00    -0.393 OA
ATOM     14  HO  UNL     1      -1.474  39.359  21.234  1.00  0.00     0.210 HD
ENDBRANCH   8  13
TORSDOF 1
ENDMDL
MODEL 2
REMARK VINA RESULT:      -4.2      3.335      4.713
REMARK  1 active torsions:
REMARK  status: ('A' for Active; 'I' for Inactive)
REMARK    1  A    between atoms: C_8  and  O_10 
ROOT
HETATM    1  C   UNL     1      -3.676  41.134  17.525  1.00  0.00     0.041 C 
HETATM    2  C   UNL     1      -2.597  41.263  18.672  1.00  0.00     0.191 C 
HETATM    3  C   UNL     1      -2.112  39.805  19.004  1.00  0.00     0.023 C 
HETATM    4  N   UNL     1      -1.382  41.869  17.985  1.00  0.00    -0.063 N 
ATOM      5  HN1 UNL     1      -0.677  42.226  18.631  1.00  0.00     0.278 HD
ATOM      6  HN2 UNL     1      -1.571  42.756  17.517  1.00  0.00     0.278 HD
HETATM    7  C   UNL     1      -0.873  40.789  17.063  1.00  0.00     0.220 C 
HETATM    8  C   UNL     1      -1.843  40.812  15.830  1.00  0.00     0.153 C 
HETATM    9  C   UNL     1      -3.123  40.142  16.427  1.00  0.00     0.023 C 
HETATM   10  C   UNL     1      -1.231  39.468  17.791  1.00  0.00     0.029 C 
HETATM   11  C   UNL     1      -3.123  38.746  18.561  1.00  0.00     0.012 C 
HETATM   12  C   UNL     1      -2.505  38.920  17.149  1.00  0.00    -0.001 C 
ENDROOT
BRANCH   8  13
HETATM   13  O   UNL     1      -1.313  39.852  14.896  1.00  0.00    -0.393 OA
ATOM     14  HO  UNL     1      -0.896  40.362  14.211  1.00  0.00     0.210 HD
ENDBRANCH   8  13
TORSDOF 1
ENDMDL
MODEL 3
REMARK VINA RESULT:      -4.2      1.828      2.816
REMARK  1 active torsions:
REMARK  status: ('A' for Active; 'I' for Inactive)
REMARK    1  A    between atoms: C_8  and  O_10 
ROOT
HETATM    1  C   UNL     1      -1.636  44.396  20.015  1.00  0.00     0.041 C 
HETATM    2  C   UNL     1      -2.859  43.609  19.396  1.00  0.00     0.191 C 
HETATM    3  C   UNL     1      -2.689  42.105  19.820  1.00  0.00     0.023 C 
HETATM    4  N   UNL     1      -4.056  44.054  20.224  1.00  0.00    -0.063 N 
ATOM      5  HN1 UNL     1      -4.957  43.812  19.811  1.00  0.00     0.278 HD
ATOM      6  HN2 UNL     1      -4.199  45.064  20.234  1.00  0.00     0.278 HD
HETATM    7  C   UNL     1      -3.832  43.457  21.592  1.00  0.00     0.220 C 
HETATM    8  C   UNL     1      -2.756  44.376  22.268  1.00  0.00     0.153 C 
HETATM    9  C   UNL     1      -1.456  43.943  21.517  1.00  0.00     0.023 C 
HETATM   10  C   UNL     1      -3.067  42.138  21.309  1.00  0.00     0.029 C 
HETATM   11  C   UNL     1      -1.245  41.771  20.197  1.00  0.00     0.012 C 
HETATM   12  C   UNL     1      -1.584  42.401  21.573  1.00  0.00    -0.001 C 
ENDROOT
BRANCH   8  13
HETATM   13  O   UNL     1      -2.602  43.877  23.611  1.00  0.00    -0.393 OA
ATOM     14  HO  UNL     1      -3.361  44.187  24.091  1.00  0.00     0.210 HD
ENDBRANCH   8  13
TORSDOF 1
ENDMDL
MODEL 4
REMARK VINA RESULT:      -4.2      3.106      4.418
REMARK  1 active torsions:
REMARK  status: ('A' for Active; 'I' for Inactive)
REMARK    1  A    between atoms: C_8  and  O_10 
ROOT
HETATM    1  C   UNL     1      -3.291  40.963  16.061  1.00  0.00     0.041 C 
HETATM    2  C   UNL     1      -3.840  41.343  17.493  1.00  0.00     0.191 C 
HETATM    3  C   UNL     1      -3.123  40.391  18.519  1.00  0.00     0.023 C 
HETATM    4  N   UNL     1      -3.209  42.694  17.796  1.00  0.00    -0.063 N 
ATOM      5  HN1 UNL     1      -3.637  43.183  18.582  1.00  0.00     0.278 HD
ATOM      6  HN2 UNL     1      -3.405  43.409  17.094  1.00  0.00     0.278 HD
HETATM    7  C   UNL     1      -1.739  42.409  17.982  1.00  0.00     0.220 C 
HETATM    8  C   UNL     1      -1.170  42.233  16.531  1.00  0.00     0.153 C 
HETATM    9  C   UNL     1      -1.720  40.821  16.147  1.00  0.00     0.023 C 
HETATM   10  C   UNL     1      -1.702  40.975  18.571  1.00  0.00     0.029 C 
HETATM   11  C   UNL     1      -2.578  39.128  17.851  1.00  0.00     0.012 C 
HETATM   12  C   UNL     1      -1.379  40.016  17.425  1.00  0.00    -0.001 C 
ENDROOT
BRANCH   8  13
HETATM   13  O   UNL     1       0.252  42.056  16.686  1.00  0.00    -0.393 OA
ATOM     14  HO  UNL     1       0.357  41.308  17.263  1.00  0.00     0.210 HD
ENDBRANCH   8  13
TORSDOF 1
ENDMDL
MODEL 5
REMARK VINA RESULT:      -4.1      3.119      4.443
REMARK  1 active torsions:
REMARK  status: ('A' for Active; 'I' for Inactive)
REMARK    1  A    between atoms: C_8  and  O_10 
ROOT
HETATM    1  C   UNL     1      -0.896  41.031  17.031  1.00  0.00     0.041 C 
HETATM    2  C   UNL     1      -1.890  40.023  16.330  1.00  0.00     0.191 C 
HETATM    3  C   UNL     1      -2.527  39.149  17.471  1.00  0.00     0.023 C 
HETATM    4  N   UNL     1      -3.059  40.890  15.883  1.00  0.00    -0.063 N 
ATOM      5  HN1 UNL     1      -3.681  40.432  15.217  1.00  0.00     0.278 HD
ATOM      6  HN2 UNL     1      -2.790  41.666  15.278  1.00  0.00     0.278 HD
HETATM    7  C   UNL     1      -3.740  41.318  17.159  1.00  0.00     0.220 C 
HETATM    8  C   UNL     1      -2.840  42.464  17.739  1.00  0.00     0.153 C 
HETATM    9  C   UNL     1      -1.620  41.657  18.288  1.00  0.00     0.023 C 
HETATM   10  C   UNL     1      -3.505  40.134  18.132  1.00  0.00     0.029 C 
HETATM   11  C   UNL     1      -1.675  39.147  18.741  1.00  0.00     0.012 C 
HETATM   12  C   UNL     1      -2.340  40.515  19.046  1.00  0.00    -0.001 C 
ENDROOT
BRANCH   8  13
HETATM   13  O   UNL     1      -3.529  42.951  18.907  1.00  0.00    -0.393 OA
ATOM     14  HO  UNL     1      -4.222  42.324  19.078  1.00  0.00     0.210 HD
ENDBRANCH   8  13
TORSDOF 1
ENDMDL
MODEL 6
REMARK VINA RESULT:      -4.1      2.935      4.268
REMARK  1 active torsions:
REMARK  status: ('A' for Active; 'I' for Inactive)
REMARK    1  A    between atoms: C_8  and  O_10 
ROOT
HETATM    1  C   UNL     1      -1.003  41.691  17.312  1.00  0.00     0.041 C 
HETATM    2  C   UNL     1      -1.866  41.923  18.615  1.00  0.00     0.191 C 
HETATM    3  C   UNL     1      -3.367  41.689  18.211  1.00  0.00     0.023 C 
HETATM    4  N   UNL     1      -1.565  40.715  19.491  1.00  0.00    -0.063 N 
ATOM      5  HN1 UNL     1      -1.866  40.823  20.460  1.00  0.00     0.278 HD
ATOM      6  HN2 UNL     1      -0.573  40.586  19.691  1.00  0.00     0.278 HD
HETATM    7  C   UNL     1      -2.201  39.546  18.780  1.00  0.00     0.220 C 
HETATM    8  C   UNL     1      -1.222  39.200  17.604  1.00  0.00     0.153 C 
HETATM    9  C   UNL     1      -1.506  40.370  16.607  1.00  0.00     0.023 C 
HETATM   10  C   UNL     1      -3.434  40.160  18.068  1.00  0.00     0.029 C 
HETATM   11  C   UNL     1      -3.589  41.837  16.705  1.00  0.00     0.012 C 
HETATM   12  C   UNL     1      -3.054  40.385  16.604  1.00  0.00    -0.001 C 
ENDROOT
BRANCH   8  13
HETATM   13  O   UNL     1      -1.766  38.024  16.974  1.00  0.00    -0.393 OA
ATOM     14  HO  UNL     1      -2.707  38.153  16.956  1.00  0.00     0.210 HD
ENDBRANCH   8  13
TORSDOF 1
ENDMDL
MODEL 7
REMARK VINA RESULT:      -4.1      3.350      4.110
REMARK  1 active torsions:
REMARK  status: ('A' for Active; 'I' for Inactive)
REMARK    1  A    between atoms: C_8  and  O_10 
ROOT
HETATM    1  C   UNL     1      -3.691  41.004  17.151  1.00  0.00     0.041 C 
HETATM    2  C   UNL     1      -2.712  40.494  16.021  1.00  0.00     0.191 C 
HETATM    3  C   UNL     1      -1.254  40.842  16.495  1.00  0.00     0.023 C 
HETATM    4  N   UNL     1      -2.747  38.977  16.142  1.00  0.00    -0.063 N 
ATOM      5  HN1 UNL     1      -2.346  38.489  15.340  1.00  0.00     0.278 HD
ATOM      6  HN2 UNL     1      -3.684  38.578  16.065  1.00  0.00     0.278 HD
HETATM    7  C   UNL     1      -2.060  38.671  17.450  1.00  0.00     0.220 C 
HETATM    8  C   UNL     1      -3.123  38.994  18.556  1.00  0.00     0.153 C 
HETATM    9  C   UNL     1      -3.115  40.557  18.553  1.00  0.00     0.023 C 
HETATM   10  C   UNL     1      -1.011  39.803  17.601  1.00  0.00     0.029 C 
HETATM   11  C   UNL     1      -1.238  41.957  17.541  1.00  0.00     0.012 C 
HETATM   12  C   UNL     1      -1.593  40.843  18.560  1.00  0.00    -0.001 C 
ENDROOT
BRANCH   8  13
HETATM   13  O   UNL     1      -2.516  38.615  19.807  1.00  0.00    -0.393 OA
ATOM     14  HO  UNL     1      -1.631  38.962  19.780  1.00  0.00     0.210 HD
ENDBRANCH   8  13
TORSDOF 1
ENDMDL
MODEL 8
REMARK VINA RESULT:      -4.1      2.172      3.165
REMARK  1 active torsions:
REMARK  status: ('A' for Active; 'I' for Inactive)
REMARK    1  A    between atoms: C_8  and  O_10 
ROOT
HETATM    1  C   UNL     1      -3.313  42.517  21.727  1.00  0.00     0.041 C 
HETATM    2  C   UNL     1      -1.744  42.325  21.730  1.00  0.00     0.191 C 
HETATM    3  C   UNL     1      -1.355  41.757  20.317  1.00  0.00     0.023 C 
HETATM    4  N   UNL     1      -1.187  43.741  21.684  1.00  0.00    -0.063 N 
ATOM      5  HN1 UNL     1      -0.193  43.801  21.909  1.00  0.00     0.278 HD
ATOM      6  HN2 UNL     1      -1.515  44.339  22.443  1.00  0.00     0.278 HD
HETATM    7  C   UNL     1      -1.535  44.255  20.309  1.00  0.00     0.220 C 
HETATM    8  C   UNL     1      -3.055  44.632  20.385  1.00  0.00     0.153 C 
HETATM    9  C   UNL     1      -3.728  43.221  20.375  1.00  0.00     0.023 C 
HETATM   10  C   UNL     1      -1.510  42.990  19.413  1.00  0.00     0.029 C 
HETATM   11  C   UNL     1      -2.542  41.095  19.614  1.00  0.00     0.012 C 
HETATM   12  C   UNL     1      -2.957  42.536  19.219  1.00  0.00    -0.001 C 
ENDROOT
BRANCH   8  13
HETATM   13  O   UNL     1      -3.379  45.216  19.109  1.00  0.00    -0.393 OA
ATOM     14  HO  UNL     1      -3.476  46.147  19.268  1.00  0.00     0.210 HD
ENDBRANCH   8  13
TORSDOF 1
ENDMDL
MODEL 9
REMARK VINA RESULT:      -4.0      1.570      2.627
REMARK  1 active torsions:
REMARK  status: ('A' for Active; 'I' for Inactive)
REMARK    1  A    between atoms: C_8  and  O_10 
ROOT
HETATM    1  C   UNL     1      -1.597  44.542  20.064  1.00  0.00     0.041 C 
HETATM    2  C   UNL     1      -1.506  44.172  21.598  1.00  0.00     0.191 C 
HETATM    3  C   UNL     1      -2.909  43.594  22.008  1.00  0.00     0.023 C 
HETATM    4  N   UNL     1      -0.614  42.939  21.640  1.00  0.00    -0.063 N 
ATOM      5  HN1 UNL     1      -0.271  42.709  22.573  1.00  0.00     0.278 HD
ATOM      6  HN2 UNL     1       0.301  43.076  21.210  1.00  0.00     0.278 HD
HETATM    7  C   UNL     1      -1.430  41.842  21.001  1.00  0.00     0.220 C 
HETATM    8  C   UNL     1      -1.341  42.112  19.458  1.00  0.00     0.153 C 
HETATM    9  C   UNL     1      -2.289  43.344  19.300  1.00  0.00     0.023 C 
HETATM   10  C   UNL     1      -2.895  42.202  21.356  1.00  0.00     0.029 C 
HETATM   11  C   UNL     1      -4.016  44.031  21.047  1.00  0.00     0.012 C 
HETATM   12  C   UNL     1      -3.510  42.884  20.134  1.00  0.00    -0.001 C 
ENDROOT
BRANCH   8  13
HETATM   13  O   UNL     1      -2.034  41.017  18.828  1.00  0.00    -0.393 OA
ATOM     14  HO  UNL     1      -1.358  40.473  18.441  1.00  0.00     0.210 HD
ENDBRANCH   8  13
TORSDOF 1
ENDMDL
