REMARK  3 active torsions:
REMARK  status: ('A' for Active; 'I' for Inactive)
REMARK    1  A    between atoms: C_1  and  C_3 
REMARK    2  A    between atoms: C_1  and  C_5 
REMARK    3  A    between atoms: C_9  and  O_11 
ROOT
HETATM    1  C   UNL     1     -44.821  -0.747   6.776  1.00  0.00     0.039 C 
HETATM    2  C   UNL     1     -44.056   0.785   5.037  1.00  0.00     0.187 C 
HETATM    3  C   UNL     1     -47.245   0.764   9.153  1.00  0.00     0.028 C 
HETATM    4  C   UNL     1     -44.472   2.369   7.071  1.00  0.00     0.039 C 
HETATM    5  C   UNL     1     -47.124   3.059   8.690  1.00  0.00     0.077 C 
HETATM    6  C   UNL     1     -43.654  -0.469   5.838  1.00  0.00     0.035 C 
HETATM    7  C   UNL     1     -48.642   0.809   9.174  1.00  0.00     0.016 C 
HETATM    8  N   UNL     1     -45.529   0.769   5.057  1.00  0.00    -0.063 N 
ATOM      9  HN1 UNL     1     -45.948   0.218   4.307  1.00  0.00     0.278 HD
ATOM     10  HN2 UNL     1     -45.957   1.659   4.800  1.00  0.00     0.278 HD
HETATM   11  C   UNL     1     -46.600   1.779   8.401  1.00  0.00     0.016 C 
HETATM   12  C   UNL     1     -45.692   1.514   7.310  1.00  0.00    -0.036 C 
HETATM   13  C   UNL     1     -43.598   2.009   5.864  1.00  0.00     0.037 C 
HETATM   14  C   UNL     1     -45.883   0.303   6.414  1.00  0.00     0.216 C 
HETATM   15  C   UNL     1     -49.279   2.019   8.865  1.00  0.00     0.004 C 
HETATM   16  C   UNL     1     -48.522   3.182   8.735  1.00  0.00     0.037 C 
ENDROOT
BRANCH   3  17
HETATM   17  C   UNL     1     -46.394  -0.245   9.885  1.00  0.00     0.193 C 
HETATM   18  O   UNL     1     -45.178  -0.258   9.674  1.00  0.00    -0.287 OA
BRANCH  17  19
HETATM   19  C   UNL     1     -46.899  -1.235  10.886  1.00  0.00     0.015 C 
HETATM   20  C   UNL     1     -48.232  -1.621  10.896  1.00  0.00     0.015 C 
HETATM   21  C   UNL     1     -48.928  -2.215  11.945  1.00  0.00     0.001 C 
HETATM   22  C   UNL     1     -48.557  -2.842  13.098  1.00  0.00     0.000 C 
HETATM   23  C   UNL     1     -47.258  -2.999  13.579  1.00  0.00     0.000 C 
HETATM   24  C   UNL     1     -46.133  -2.467  12.970  1.00  0.00     0.001 C 
HETATM   25  C   UNL     1     -45.975  -1.744  11.802  1.00  0.00     0.015 C 
ENDBRANCH  17  19
ENDBRANCH   3  17
BRANCH   5  26
HETATM   26  O   UNL     1     -46.314   4.043   9.004  1.00  0.00    -0.360 OA
ATOM     27  HO  UNL     1     -46.666   4.904   9.198  1.00  0.00     0.217 HD
ENDBRANCH   5  26
TORSDOF 3
