MODEL 1
REMARK VINA RESULT:      -8.2      0.000      0.000
REMARK  0 active torsions:
REMARK  status: ('A' for Active; 'I' for Inactive)
ROOT
HETATM    1  C   UNL     1      11.263   2.218 -61.544  1.00  0.00     0.008 C 
HETATM    2  C   UNL     1      10.162  -1.197 -65.883  1.00  0.00     0.067 C 
HETATM    3  C   UNL     1       8.776  -1.528 -65.320  1.00  0.00     0.009 C 
HETATM    4  C   UNL     1      11.561   1.862 -64.086  1.00  0.00     0.054 C 
HETATM    5  C   UNL     1       8.239  -2.456 -66.387  1.00  0.00     0.006 C 
HETATM    6  C   UNL     1      10.742   1.105 -65.145  1.00  0.00     0.100 C 
HETATM    7  C   UNL     1       9.056  -1.692 -63.824  1.00  0.00     0.058 C 
HETATM    8  C   UNL     1      11.124   1.463 -62.702  1.00  0.00    -0.045 C 
HETATM    9  C   UNL     1       9.957  -0.481 -63.626  1.00  0.00    -0.001 C 
HETATM   10  C   UNL     1       8.688  -1.781 -67.699  1.00  0.00     0.002 C 
HETATM   11  C   UNL     1      10.780   0.083 -62.521  1.00  0.00    -0.013 C 
HETATM   12  C   UNL     1      11.609   1.517 -60.369  1.00  0.00     0.001 C 
HETATM   13  C   UNL     1      11.480  -0.607 -61.537  1.00  0.00     0.013 C 
HETATM   14  C   UNL     1      12.002   0.179 -60.491  1.00  0.00     0.001 C 
HETATM   15  C   UNL     1       9.749  -0.752 -67.288  1.00  0.00     0.020 C 
HETATM   16  N   UNL     1      10.782  -0.351 -64.856  1.00  0.00    -0.281 NA
ENDROOT
TORSDOF 0
ENDMDL
MODEL 2
REMARK VINA RESULT:      -8.2      1.244      2.699
REMARK  0 active torsions:
REMARK  status: ('A' for Active; 'I' for Inactive)
ROOT
HETATM    1  C   UNL     1      11.112  -0.332 -61.108  1.00  0.00     0.008 C 
HETATM    2  C   UNL     1      10.189   0.210 -66.635  1.00  0.00     0.067 C 
HETATM    3  C   UNL     1      11.691   0.148 -66.931  1.00  0.00     0.009 C 
HETATM    4  C   UNL     1       9.552  -0.971 -63.066  1.00  0.00     0.054 C 
HETATM    5  C   UNL     1      11.698   0.245 -68.441  1.00  0.00     0.006 C 
HETATM    6  C   UNL     1       9.773  -1.125 -64.580  1.00  0.00     0.100 C 
HETATM    7  C   UNL     1      12.285   1.014 -65.817  1.00  0.00     0.058 C 
HETATM    8  C   UNL     1      10.715  -0.252 -62.437  1.00  0.00    -0.045 C 
HETATM    9  C   UNL     1      11.468   0.475 -64.650  1.00  0.00    -0.001 C 
HETATM   10  C   UNL     1      10.524  -0.664 -68.857  1.00  0.00     0.002 C 
HETATM   11  C   UNL     1      11.295   0.807 -63.209  1.00  0.00    -0.013 C 
HETATM   12  C   UNL     1      11.554   0.866 -60.506  1.00  0.00     0.001 C 
HETATM   13  C   UNL     1      11.340   2.061 -62.608  1.00  0.00     0.013 C 
HETATM   14  C   UNL     1      11.354   2.065 -61.199  1.00  0.00     0.001 C 
HETATM   15  C   UNL     1       9.715  -0.901 -67.575  1.00  0.00     0.020 C 
HETATM   16  N   UNL     1      10.103   0.197 -65.171  1.00  0.00    -0.281 NA
ENDROOT
TORSDOF 0
ENDMDL
MODEL 3
REMARK VINA RESULT:      -8.1      2.267      4.544
REMARK  0 active torsions:
REMARK  status: ('A' for Active; 'I' for Inactive)
ROOT
HETATM    1  C   UNL     1       9.099  -0.603 -63.103  1.00  0.00     0.008 C 
HETATM    2  C   UNL     1      12.570   1.744 -66.864  1.00  0.00     0.067 C 
HETATM    3  C   UNL     1      11.393   2.376 -67.614  1.00  0.00     0.009 C 
HETATM    4  C   UNL     1      11.393   0.539 -63.443  1.00  0.00     0.054 C 
HETATM    5  C   UNL     1      12.112   3.129 -68.711  1.00  0.00     0.006 C 
HETATM    6  C   UNL     1      11.921   1.552 -64.472  1.00  0.00     0.100 C 
HETATM    7  C   UNL     1      10.357   1.248 -67.614  1.00  0.00     0.058 C 
HETATM    8  C   UNL     1      10.086  -0.048 -63.908  1.00  0.00    -0.045 C 
HETATM    9  C   UNL     1      10.502   0.804 -66.165  1.00  0.00    -0.001 C 
HETATM   10  C   UNL     1      13.322   3.745 -67.979  1.00  0.00     0.002 C 
HETATM   11  C   UNL     1       9.970  -0.296 -65.315  1.00  0.00    -0.013 C 
HETATM   12  C   UNL     1       8.449  -1.752 -63.600  1.00  0.00     0.001 C 
HETATM   13  C   UNL     1       9.671  -1.601 -65.692  1.00  0.00     0.013 C 
HETATM   14  C   UNL     1       8.983  -2.373 -64.735  1.00  0.00     0.001 C 
HETATM   15  C   UNL     1      13.412   3.002 -66.639  1.00  0.00     0.020 C 
HETATM   16  N   UNL     1      11.943   0.927 -65.819  1.00  0.00    -0.281 NA
ENDROOT
TORSDOF 0
ENDMDL
MODEL 4
REMARK VINA RESULT:      -8.0      2.759      4.069
REMARK  0 active torsions:
REMARK  status: ('A' for Active; 'I' for Inactive)
ROOT
HETATM    1  C   UNL     1      11.580   0.969 -62.452  1.00  0.00     0.008 C 
HETATM    2  C   UNL     1      12.322   1.705 -67.985  1.00  0.00     0.067 C 
HETATM    3  C   UNL     1      11.156   2.697 -68.048  1.00  0.00     0.009 C 
HETATM    4  C   UNL     1      13.328   1.163 -64.347  1.00  0.00     0.054 C 
HETATM    5  C   UNL     1      11.178   3.084 -69.510  1.00  0.00     0.006 C 
HETATM    6  C   UNL     1      13.322   1.865 -65.714  1.00  0.00     0.100 C 
HETATM    7  C   UNL     1      10.108   2.035 -67.149  1.00  0.00     0.058 C 
HETATM    8  C   UNL     1      11.930   1.084 -63.792  1.00  0.00    -0.045 C 
HETATM    9  C   UNL     1      11.019   1.628 -65.998  1.00  0.00    -0.001 C 
HETATM   10  C   UNL     1      12.683   3.237 -69.811  1.00  0.00     0.002 C 
HETATM   11  C   UNL     1      10.886   0.839 -64.743  1.00  0.00    -0.013 C 
HETATM   12  C   UNL     1      10.491   0.123 -62.153  1.00  0.00     0.001 C 
HETATM   13  C   UNL     1      10.086  -0.275 -64.513  1.00  0.00     0.013 C 
HETATM   14  C   UNL     1       9.994  -0.697 -63.172  1.00  0.00     0.001 C 
HETATM   15  C   UNL     1      13.406   2.569 -68.634  1.00  0.00     0.020 C 
HETATM   16  N   UNL     1      12.318   1.222 -66.599  1.00  0.00    -0.281 NA
ENDROOT
TORSDOF 0
ENDMDL
MODEL 5
REMARK VINA RESULT:      -8.0      1.679      4.873
REMARK  0 active torsions:
REMARK  status: ('A' for Active; 'I' for Inactive)
ROOT
HETATM    1  C   UNL     1       7.632  -3.966 -64.551  1.00  0.00     0.008 C 
HETATM    2  C   UNL     1      10.569   0.777 -65.312  1.00  0.00     0.067 C 
HETATM    3  C   UNL     1      11.414   0.499 -64.065  1.00  0.00     0.009 C 
HETATM    4  C   UNL     1       8.695  -2.393 -66.304  1.00  0.00     0.054 C 
HETATM    5  C   UNL     1      12.354   1.685 -64.076  1.00  0.00     0.006 C 
HETATM    6  C   UNL     1       9.883  -1.417 -66.259  1.00  0.00     0.100 C 
HETATM    7  C   UNL     1      10.372  -0.011 -63.065  1.00  0.00     0.058 C 
HETATM    8  C   UNL     1       8.298  -2.801 -64.910  1.00  0.00    -0.045 C 
HETATM    9  C   UNL     1       9.609  -0.949 -63.990  1.00  0.00    -0.001 C 
HETATM   10  C   UNL     1      12.725   1.825 -65.567  1.00  0.00     0.002 C 
HETATM   11  C   UNL     1       8.377  -1.780 -63.907  1.00  0.00    -0.013 C 
HETATM   12  C   UNL     1       6.659  -3.850 -63.535  1.00  0.00     0.001 C 
HETATM   13  C   UNL     1       7.207  -1.509 -63.205  1.00  0.00     0.013 C 
HETATM   14  C   UNL     1       6.279  -2.566 -63.129  1.00  0.00     0.001 C 
HETATM   15  C   UNL     1      11.698   0.975 -66.326  1.00  0.00     0.020 C 
HETATM   16  N   UNL     1       9.574  -0.301 -65.329  1.00  0.00    -0.281 NA
ENDROOT
TORSDOF 0
ENDMDL
MODEL 6
REMARK VINA RESULT:      -7.9      1.789      3.283
REMARK  0 active torsions:
REMARK  status: ('A' for Active; 'I' for Inactive)
ROOT
HETATM    1  C   UNL     1      10.754  -0.575 -61.703  1.00  0.00     0.008 C 
HETATM    2  C   UNL     1      10.752   1.600 -66.896  1.00  0.00     0.067 C 
HETATM    3  C   UNL     1      12.256   1.347 -67.044  1.00  0.00     0.009 C 
HETATM    4  C   UNL     1       9.425  -0.366 -63.910  1.00  0.00     0.054 C 
HETATM    5  C   UNL     1      12.501   1.846 -68.451  1.00  0.00     0.006 C 
HETATM    6  C   UNL     1       9.844  -0.142 -65.372  1.00  0.00     0.100 C 
HETATM    7  C   UNL     1      12.797   1.757 -65.672  1.00  0.00     0.058 C 
HETATM    8  C   UNL     1      10.575  -0.068 -62.984  1.00  0.00    -0.045 C 
HETATM    9  C   UNL     1      11.746   1.081 -64.801  1.00  0.00    -0.001 C 
HETATM   10  C   UNL     1      11.281   1.313 -69.231  1.00  0.00     0.002 C 
HETATM   11  C   UNL     1      11.412   1.036 -63.351  1.00  0.00    -0.013 C 
HETATM   12  C   UNL     1      11.273   0.313 -60.737  1.00  0.00     0.001 C 
HETATM   13  C   UNL     1      11.549   2.051 -62.410  1.00  0.00     0.013 C 
HETATM   14  C   UNL     1      11.354   1.671 -61.067  1.00  0.00     0.001 C 
HETATM   15  C   UNL     1      10.265   0.890 -68.162  1.00  0.00     0.020 C 
HETATM   16  N   UNL     1      10.448   1.207 -65.515  1.00  0.00    -0.281 NA
ENDROOT
TORSDOF 0
ENDMDL
MODEL 7
REMARK VINA RESULT:      -7.8      2.265      4.892
REMARK  0 active torsions:
REMARK  status: ('A' for Active; 'I' for Inactive)
ROOT
HETATM    1  C   UNL     1       9.227  -2.378 -65.512  1.00  0.00     0.008 C 
HETATM    2  C   UNL     1      11.488   2.544 -67.049  1.00  0.00     0.067 C 
HETATM    3  C   UNL     1      12.852   2.139 -66.481  1.00  0.00     0.009 C 
HETATM    4  C   UNL     1       9.266  -0.542 -67.331  1.00  0.00     0.054 C 
HETATM    5  C   UNL     1      13.685   3.354 -66.821  1.00  0.00     0.006 C 
HETATM    6  C   UNL     1      10.333   0.468 -67.783  1.00  0.00     0.100 C 
HETATM    7  C   UNL     1      12.472   1.457 -65.163  1.00  0.00     0.058 C 
HETATM    8  C   UNL     1       9.645  -1.148 -66.006  1.00  0.00    -0.045 C 
HETATM    9  C   UNL     1      11.305   0.619 -65.668  1.00  0.00    -0.001 C 
HETATM   10  C   UNL     1      13.225   3.707 -68.251  1.00  0.00     0.002 C 
HETATM   11  C   UNL     1      10.273  -0.268 -65.065  1.00  0.00    -0.013 C 
HETATM   12  C   UNL     1       8.935  -2.440 -64.133  1.00  0.00     0.001 C 
HETATM   13  C   UNL     1       9.655  -0.142 -63.825  1.00  0.00     0.013 C 
HETATM   14  C   UNL     1       8.869  -1.239 -63.418  1.00  0.00     0.001 C 
HETATM   15  C   UNL     1      11.923   2.923 -68.467  1.00  0.00     0.020 C 
HETATM   16  N   UNL     1      10.596   1.436 -66.688  1.00  0.00    -0.281 NA
ENDROOT
TORSDOF 0
ENDMDL
MODEL 8
REMARK VINA RESULT:      -7.7      2.490      5.497
REMARK  0 active torsions:
REMARK  status: ('A' for Active; 'I' for Inactive)
ROOT
HETATM    1  C   UNL     1      12.673   1.958 -68.871  1.00  0.00     0.008 C 
HETATM    2  C   UNL     1      11.142   1.299 -63.493  1.00  0.00     0.067 C 
HETATM    3  C   UNL     1      10.549  -0.082 -63.791  1.00  0.00     0.009 C 
HETATM    4  C   UNL     1      13.341   2.389 -66.412  1.00  0.00     0.054 C 
HETATM    5  C   UNL     1      10.077  -0.502 -62.416  1.00  0.00     0.006 C 
HETATM    6  C   UNL     1      13.009   1.675 -65.091  1.00  0.00     0.100 C 
HETATM    7  C   UNL     1       9.835   0.145 -65.126  1.00  0.00     0.058 C 
HETATM    8  C   UNL     1      12.416   1.924 -67.506  1.00  0.00    -0.045 C 
HETATM    9  C   UNL     1      10.922   0.945 -65.832  1.00  0.00    -0.001 C 
HETATM   10  C   UNL     1      11.229  -0.049 -61.495  1.00  0.00     0.002 C 
HETATM   11  C   UNL     1      11.058   1.676 -67.122  1.00  0.00    -0.013 C 
HETATM   12  C   UNL     1      11.592   2.304 -69.709  1.00  0.00     0.001 C 
HETATM   13  C   UNL     1      10.079   2.382 -67.813  1.00  0.00     0.013 C 
HETATM   14  C   UNL     1      10.427   2.800 -69.113  1.00  0.00     0.001 C 
HETATM   15  C   UNL     1      12.073   0.915 -62.340  1.00  0.00     0.020 C 
HETATM   16  N   UNL     1      11.558   1.810 -64.804  1.00  0.00    -0.281 NA
ENDROOT
TORSDOF 0
ENDMDL
MODEL 9
REMARK VINA RESULT:      -7.6      1.648      3.803
REMARK  0 active torsions:
REMARK  status: ('A' for Active; 'I' for Inactive)
ROOT
HETATM    1  C   UNL     1      12.791   2.043 -65.292  1.00  0.00     0.008 C 
HETATM    2  C   UNL     1       8.515  -1.487 -64.311  1.00  0.00     0.067 C 
HETATM    3  C   UNL     1       9.063  -2.494 -65.327  1.00  0.00     0.009 C 
HETATM    4  C   UNL     1      11.216   1.075 -63.485  1.00  0.00     0.054 C 
HETATM    5  C   UNL     1       8.047  -3.609 -65.214  1.00  0.00     0.006 C 
HETATM    6  C   UNL     1      10.452  -0.253 -63.358  1.00  0.00     0.100 C 
HETATM    7  C   UNL     1       9.513  -1.591 -66.479  1.00  0.00     0.058 C 
HETATM    8  C   UNL     1      11.712   1.262 -64.895  1.00  0.00    -0.045 C 
HETATM    9  C   UNL     1      10.207  -0.509 -65.663  1.00  0.00    -0.001 C 
HETATM   10  C   UNL     1       7.798  -3.705 -63.694  1.00  0.00     0.002 C 
HETATM   11  C   UNL     1      10.838   0.811 -65.937  1.00  0.00    -0.013 C 
HETATM   12  C   UNL     1      12.640   2.765 -66.495  1.00  0.00     0.001 C 
HETATM   13  C   UNL     1      10.467   1.756 -66.888  1.00  0.00     0.013 C 
HETATM   14  C   UNL     1      11.366   2.825 -67.073  1.00  0.00     0.001 C 
HETATM   15  C   UNL     1       8.383  -2.416 -63.102  1.00  0.00     0.020 C 
HETATM   16  N   UNL     1       9.414  -0.332 -64.418  1.00  0.00    -0.281 NA
ENDROOT
TORSDOF 0
ENDMDL
