MODEL 1
REMARK VINA RESULT:      -8.0      0.000      0.000
REMARK  2 active torsions:
REMARK  status: ('A' for Active; 'I' for Inactive)
REMARK    1  A    between atoms: N_4  and  C_18 
REMARK       I    between atoms: N_4  and  C_26 
REMARK    2  A    between atoms: N_11  and  C_24 
REMARK       I    between atoms: N_12  and  C_26 
ROOT
HETATM    1  C   UNL     1      -9.821  19.807   9.847  1.00  0.00    -0.002 C 
HETATM    2  C   UNL     1      -8.093  20.138   8.009  1.00  0.00     0.158 C 
HETATM    3  C   UNL     1     -10.754  18.410   7.970  1.00  0.00     0.049 C 
HETATM    4  N   UNL     1      -8.477  19.038   7.083  1.00  0.00    -0.333 N 
HETATM    5  C   UNL     1     -10.783  18.916   9.237  1.00  0.00     0.003 C 
HETATM    6  C   UNL     1      -8.571  20.034   9.446  1.00  0.00    -0.007 C 
HETATM    7  C   UNL     1      -9.867  18.856   6.883  1.00  0.00     0.111 C 
ENDROOT
BRANCH   7   8
HETATM    8  N   UNL     1     -10.420  18.999   5.623  1.00  0.00    -0.294 N 
HETATM    9  C   UNL     1     -11.605  19.167   5.012  1.00  0.00     0.336 C 
HETATM   10  N   UNL     1     -12.457  18.066   4.818  1.00  0.00    -0.226 N 
HETATM   11  O   UNL     1     -11.904  20.287   4.569  1.00  0.00    -0.246 OA
HETATM   12  C   UNL     1     -11.965  16.747   4.871  1.00  0.00     0.112 C 
HETATM   13  C   UNL     1     -13.850  18.274   4.530  1.00  0.00     0.337 C 
HETATM   14  C   UNL     1     -12.745  15.681   4.659  1.00  0.00     0.092 C 
HETATM   15  C   UNL     1     -14.176  15.843   4.611  1.00  0.00     0.250 C 
HETATM   16  O   UNL     1     -14.933  14.877   4.516  1.00  0.00    -0.268 OA
HETATM   17  N   UNL     1     -14.620  17.126   4.448  1.00  0.00    -0.275 N 
ATOM     18  HN  UNL     1     -15.613  17.250   4.247  1.00  0.00     0.173 HD
HETATM   19  O   UNL     1     -14.313  19.388   4.321  1.00  0.00    -0.246 OA
ATOM     20  HN  UNL     1      -9.680  18.966   4.922  1.00  0.00     0.172 HD
ENDBRANCH   7   8
BRANCH   4  21
HETATM   21  C   UNL     1      -7.517  18.155   6.471  1.00  0.00     0.018 C 
HETATM   22  C   UNL     1      -6.310  18.650   5.912  1.00  0.00     0.044 A 
HETATM   23  C   UNL     1      -4.862  18.900   5.958  1.00  0.00     0.021 A 
HETATM   24  C   UNL     1      -5.591  17.961   5.027  1.00  0.00     0.019 A 
HETATM   25  C   UNL     1      -5.839  16.592   4.795  1.00  0.00    -0.021 C 
HETATM   26  C   UNL     1      -6.917  15.996   5.457  1.00  0.00    -0.002 C 
HETATM   27  C   UNL     1      -7.715  16.758   6.317  1.00  0.00     0.025 C 
ENDBRANCH   4  21
TORSDOF 2
ENDMDL
MODEL 2
REMARK VINA RESULT:      -8.0      1.807      4.045
REMARK  2 active torsions:
REMARK  status: ('A' for Active; 'I' for Inactive)
REMARK    1  A    between atoms: N_4  and  C_18 
REMARK       I    between atoms: N_4  and  C_26 
REMARK    2  A    between atoms: N_11  and  C_24 
REMARK       I    between atoms: N_12  and  C_26 
ROOT
HETATM    1  C   UNL     1      -7.936  17.146   8.396  1.00  0.00    -0.002 C 
HETATM    2  C   UNL     1     -10.244  18.163   8.726  1.00  0.00     0.158 C 
HETATM    3  C   UNL     1      -8.143  18.673   6.404  1.00  0.00     0.049 C 
HETATM    4  N   UNL     1     -10.174  19.297   7.764  1.00  0.00    -0.333 N 
HETATM    5  C   UNL     1      -7.471  17.773   7.178  1.00  0.00     0.003 C 
HETATM    6  C   UNL     1      -8.930  17.558   9.182  1.00  0.00    -0.007 C 
HETATM    7  C   UNL     1      -9.571  19.010   6.515  1.00  0.00     0.111 C 
ENDROOT
BRANCH   7   8
HETATM    8  N   UNL     1     -10.293  19.137   5.341  1.00  0.00    -0.294 N 
HETATM    9  C   UNL     1     -11.555  19.253   4.896  1.00  0.00     0.336 C 
HETATM   10  N   UNL     1     -12.372  18.113   4.799  1.00  0.00    -0.226 N 
HETATM   11  O   UNL     1     -11.963  20.360   4.513  1.00  0.00    -0.246 OA
HETATM   12  C   UNL     1     -11.816  16.819   4.765  1.00  0.00     0.112 C 
HETATM   13  C   UNL     1     -13.799  18.254   4.700  1.00  0.00     0.337 C 
HETATM   14  C   UNL     1     -12.565  15.718   4.642  1.00  0.00     0.092 C 
HETATM   15  C   UNL     1     -13.996  15.809   4.785  1.00  0.00     0.250 C 
HETATM   16  O   UNL     1     -14.712  14.809   4.776  1.00  0.00    -0.268 OA
HETATM   17  N   UNL     1     -14.518  17.071   4.703  1.00  0.00    -0.275 N 
ATOM     18  HN  UNL     1     -15.533  17.148   4.637  1.00  0.00     0.173 HD
HETATM   19  O   UNL     1     -14.338  19.346   4.572  1.00  0.00    -0.246 OA
ATOM     20  HN  UNL     1      -9.652  19.147   4.549  1.00  0.00     0.172 HD
ENDBRANCH   7   8
BRANCH   4  21
HETATM   21  C   UNL     1     -10.621  20.628   8.085  1.00  0.00     0.018 C 
HETATM   22  C   UNL     1     -10.028  21.771   7.487  1.00  0.00     0.044 A 
HETATM   23  C   UNL     1     -10.016  22.867   6.508  1.00  0.00     0.021 A 
HETATM   24  C   UNL     1     -10.132  22.992   8.009  1.00  0.00     0.019 A 
HETATM   25  C   UNL     1     -11.059  23.269   9.035  1.00  0.00    -0.021 C 
HETATM   26  C   UNL     1     -11.809  22.207   9.551  1.00  0.00    -0.002 C 
HETATM   27  C   UNL     1     -11.623  20.914   9.049  1.00  0.00     0.025 C 
ENDBRANCH   4  21
TORSDOF 2
ENDMDL
MODEL 3
REMARK VINA RESULT:      -8.0      2.421      3.776
REMARK  2 active torsions:
REMARK  status: ('A' for Active; 'I' for Inactive)
REMARK    1  A    between atoms: N_4  and  C_18 
REMARK       I    between atoms: N_4  and  C_26 
REMARK    2  A    between atoms: N_11  and  C_24 
REMARK       I    between atoms: N_12  and  C_26 
ROOT
HETATM    1  C   UNL     1     -10.769  18.778   9.888  1.00  0.00    -0.002 C 
HETATM    2  C   UNL     1     -11.483  20.915   8.705  1.00  0.00     0.158 C 
HETATM    3  C   UNL     1      -9.595  18.586   7.668  1.00  0.00     0.049 C 
HETATM    4  N   UNL     1     -10.504  20.938   7.585  1.00  0.00    -0.333 N 
HETATM    5  C   UNL     1      -9.909  18.137   8.917  1.00  0.00     0.003 C 
HETATM    6  C   UNL     1     -11.139  20.058   9.910  1.00  0.00    -0.007 C 
HETATM    7  C   UNL     1     -10.255  19.693   6.957  1.00  0.00     0.111 C 
ENDROOT
BRANCH   7   8
HETATM    8  N   UNL     1     -10.539  19.514   5.615  1.00  0.00    -0.294 N 
HETATM    9  C   UNL     1     -11.575  19.467   4.761  1.00  0.00     0.336 C 
HETATM   10  N   UNL     1     -12.353  18.300   4.665  1.00  0.00    -0.226 N 
HETATM   11  O   UNL     1     -11.793  20.437   4.019  1.00  0.00    -0.246 OA
HETATM   12  C   UNL     1     -11.864  17.060   5.119  1.00  0.00     0.112 C 
HETATM   13  C   UNL     1     -13.660  18.352   4.068  1.00  0.00     0.337 C 
HETATM   14  C   UNL     1     -12.568  15.927   5.013  1.00  0.00     0.092 C 
HETATM   15  C   UNL     1     -13.962  15.986   4.647  1.00  0.00     0.250 C 
HETATM   16  O   UNL     1     -14.669  14.979   4.633  1.00  0.00    -0.268 OA
HETATM   17  N   UNL     1     -14.381  17.170   4.106  1.00  0.00    -0.275 N 
ATOM     18  HN  UNL     1     -15.312  17.184   3.690  1.00  0.00     0.173 HD
HETATM   19  O   UNL     1     -14.086  19.360   3.518  1.00  0.00    -0.246 OA
ATOM     20  HN  UNL     1      -9.670  19.370   5.101  1.00  0.00     0.172 HD
ENDBRANCH   7   8
BRANCH   4  21
HETATM   21  C   UNL     1      -9.790  22.125   7.190  1.00  0.00     0.018 C 
HETATM   22  C   UNL     1     -10.013  22.736   5.929  1.00  0.00     0.044 A 
HETATM   23  C   UNL     1     -10.610  23.772   5.074  1.00  0.00     0.021 A 
HETATM   24  C   UNL     1      -9.142  23.578   5.373  1.00  0.00     0.019 A 
HETATM   25  C   UNL     1      -8.076  24.121   6.119  1.00  0.00    -0.021 C 
HETATM   26  C   UNL     1      -7.906  23.687   7.438  1.00  0.00    -0.002 C 
HETATM   27  C   UNL     1      -8.779  22.737   7.977  1.00  0.00     0.025 C 
ENDBRANCH   4  21
TORSDOF 2
ENDMDL
MODEL 4
REMARK VINA RESULT:      -7.7      1.243      1.622
REMARK  2 active torsions:
REMARK  status: ('A' for Active; 'I' for Inactive)
REMARK    1  A    between atoms: N_4  and  C_18 
REMARK       I    between atoms: N_4  and  C_26 
REMARK    2  A    between atoms: N_11  and  C_24 
REMARK       I    between atoms: N_12  and  C_26 
ROOT
HETATM    1  C   UNL     1     -10.424  21.019   9.847  1.00  0.00    -0.002 C 
HETATM    2  C   UNL     1      -8.408  20.409   8.420  1.00  0.00     0.158 C 
HETATM    3  C   UNL     1     -11.427  19.480   8.124  1.00  0.00     0.049 C 
HETATM    4  N   UNL     1      -8.956  19.247   7.669  1.00  0.00    -0.333 N 
HETATM    5  C   UNL     1     -11.502  20.282   9.225  1.00  0.00     0.003 C 
HETATM    6  C   UNL     1      -9.117  20.803   9.702  1.00  0.00    -0.007 C 
HETATM    7  C   UNL     1     -10.285  19.387   7.199  1.00  0.00     0.111 C 
ENDROOT
BRANCH   7   8
HETATM    8  N   UNL     1     -10.560  19.341   5.844  1.00  0.00    -0.294 N 
HETATM    9  C   UNL     1     -11.589  19.396   4.982  1.00  0.00     0.336 C 
HETATM   10  N   UNL     1     -12.389  18.259   4.772  1.00  0.00    -0.226 N 
HETATM   11  O   UNL     1     -11.781  20.436   4.333  1.00  0.00    -0.246 OA
HETATM   12  C   UNL     1     -11.929  16.972   5.110  1.00  0.00     0.112 C 
HETATM   13  C   UNL     1     -13.689  18.393   4.172  1.00  0.00     0.337 C 
HETATM   14  C   UNL     1     -12.655  15.869   4.893  1.00  0.00     0.092 C 
HETATM   15  C   UNL     1     -14.043  15.990   4.524  1.00  0.00     0.250 C 
HETATM   16  O   UNL     1     -14.770  15.005   4.410  1.00  0.00    -0.268 OA
HETATM   17  N   UNL     1     -14.434  17.229   4.093  1.00  0.00    -0.275 N 
ATOM     18  HN  UNL     1     -15.361  17.301   3.674  1.00  0.00     0.173 HD
HETATM   19  O   UNL     1     -14.090  19.457   3.716  1.00  0.00    -0.246 OA
ATOM     20  HN  UNL     1      -9.690  19.228   5.325  1.00  0.00     0.172 HD
ENDBRANCH   7   8
BRANCH   4  21
HETATM   21  C   UNL     1      -8.227  18.019   7.477  1.00  0.00     0.018 C 
HETATM   22  C   UNL     1      -7.447  17.454   8.520  1.00  0.00     0.044 A 
HETATM   23  C   UNL     1      -7.232  16.484   9.602  1.00  0.00     0.021 A 
HETATM   24  C   UNL     1      -6.482  16.563   8.294  1.00  0.00     0.019 A 
HETATM   25  C   UNL     1      -6.357  15.927   7.042  1.00  0.00    -0.021 C 
HETATM   26  C   UNL     1      -7.221  16.318   6.013  1.00  0.00    -0.002 C 
HETATM   27  C   UNL     1      -8.171  17.318   6.245  1.00  0.00     0.025 C 
ENDBRANCH   4  21
TORSDOF 2
ENDMDL
MODEL 5
REMARK VINA RESULT:      -7.4      2.979      6.447
REMARK  2 active torsions:
REMARK  status: ('A' for Active; 'I' for Inactive)
REMARK    1  A    between atoms: N_4  and  C_18 
REMARK       I    between atoms: N_4  and  C_26 
REMARK    2  A    between atoms: N_11  and  C_24 
REMARK       I    between atoms: N_12  and  C_26 
ROOT
HETATM    1  C   UNL     1      -8.692  17.356   8.293  1.00  0.00    -0.002 C 
HETATM    2  C   UNL     1      -9.509  17.482   5.887  1.00  0.00     0.158 C 
HETATM    3  C   UNL     1     -10.805  18.709   8.509  1.00  0.00     0.049 C 
HETATM    4  N   UNL     1     -10.903  17.954   6.104  1.00  0.00    -0.333 N 
HETATM    5  C   UNL     1      -9.703  18.091   9.022  1.00  0.00     0.003 C 
HETATM    6  C   UNL     1      -8.800  16.845   7.067  1.00  0.00    -0.007 C 
HETATM    7  C   UNL     1     -11.068  18.964   7.083  1.00  0.00     0.111 C 
ENDROOT
BRANCH   7   8
HETATM    8  N   UNL     1     -11.579  20.202   6.736  1.00  0.00    -0.294 N 
HETATM    9  C   UNL     1     -11.206  21.484   6.584  1.00  0.00     0.336 C 
HETATM   10  N   UNL     1     -11.060  22.311   7.711  1.00  0.00    -0.226 N 
HETATM   11  O   UNL     1     -11.058  21.939   5.439  1.00  0.00    -0.246 OA
HETATM   12  C   UNL     1     -11.663  21.980   8.939  1.00  0.00     0.112 C 
HETATM   13  C   UNL     1     -10.310  23.534   7.615  1.00  0.00     0.337 C 
HETATM   14  C   UNL     1     -11.568  22.763  10.020  1.00  0.00     0.092 C 
HETATM   15  C   UNL     1     -10.632  23.859  10.026  1.00  0.00     0.250 C 
HETATM   16  O   UNL     1     -10.442  24.542  11.032  1.00  0.00    -0.268 OA
HETATM   17  N   UNL     1     -10.147  24.228   8.802  1.00  0.00    -0.275 N 
ATOM     18  HN  UNL     1      -9.616  25.098   8.758  1.00  0.00     0.173 HD
HETATM   19  O   UNL     1      -9.887  23.957   6.546  1.00  0.00    -0.246 OA
ATOM     20  HN  UNL     1     -12.573  20.111   6.525  1.00  0.00     0.172 HD
ENDBRANCH   7   8
BRANCH   4  21
HETATM   21  C   UNL     1     -12.040  17.387   5.424  1.00  0.00     0.018 C 
HETATM   22  C   UNL     1     -13.143  18.190   5.033  1.00  0.00     0.044 A 
HETATM   23  C   UNL     1     -13.918  18.934   4.031  1.00  0.00     0.021 A 
HETATM   24  C   UNL     1     -14.342  17.679   4.756  1.00  0.00     0.019 A 
HETATM   25  C   UNL     1     -14.518  16.292   4.573  1.00  0.00    -0.021 C 
HETATM   26  C   UNL     1     -13.416  15.455   4.773  1.00  0.00    -0.002 C 
HETATM   27  C   UNL     1     -12.184  16.002   5.148  1.00  0.00     0.025 C 
ENDBRANCH   4  21
TORSDOF 2
ENDMDL
MODEL 6
REMARK VINA RESULT:      -7.2      2.480      5.477
REMARK  2 active torsions:
REMARK  status: ('A' for Active; 'I' for Inactive)
REMARK    1  A    between atoms: N_4  and  C_18 
REMARK       I    between atoms: N_4  and  C_26 
REMARK    2  A    between atoms: N_11  and  C_24 
REMARK       I    between atoms: N_12  and  C_26 
ROOT
HETATM    1  C   UNL     1     -13.768  16.477   4.255  1.00  0.00    -0.002 C 
HETATM    2  C   UNL     1     -11.828  16.445   5.901  1.00  0.00     0.158 C 
HETATM    3  C   UNL     1     -13.299  18.929   4.585  1.00  0.00     0.049 C 
HETATM    4  N   UNL     1     -11.358  17.852   5.783  1.00  0.00    -0.333 N 
HETATM    5  C   UNL     1     -13.979  17.889   4.023  1.00  0.00     0.003 C 
HETATM    6  C   UNL     1     -12.682  15.902   4.770  1.00  0.00    -0.007 C 
HETATM    7  C   UNL     1     -12.372  18.839   5.724  1.00  0.00     0.111 C 
ENDROOT
BRANCH   7   8
HETATM    8  N   UNL     1     -12.456  19.818   6.699  1.00  0.00    -0.294 N 
HETATM    9  C   UNL     1     -11.702  20.727   7.338  1.00  0.00     0.336 C 
HETATM   10  N   UNL     1     -10.857  20.326   8.387  1.00  0.00    -0.226 N 
HETATM   11  O   UNL     1     -11.809  21.925   7.032  1.00  0.00    -0.246 OA
HETATM   12  C   UNL     1     -11.059  19.104   9.057  1.00  0.00     0.112 C 
HETATM   13  C   UNL     1      -9.784  21.181   8.816  1.00  0.00     0.337 C 
HETATM   14  C   UNL     1     -10.291  18.709  10.079  1.00  0.00     0.092 C 
HETATM   15  C   UNL     1      -9.071  19.420  10.371  1.00  0.00     0.250 C 
HETATM   16  O   UNL     1      -8.289  19.033  11.237  1.00  0.00    -0.268 OA
HETATM   17  N   UNL     1      -8.954  20.654   9.792  1.00  0.00    -0.275 N 
ATOM     18  HN  UNL     1      -8.184  21.242  10.109  1.00  0.00     0.173 HD
HETATM   19  O   UNL     1      -9.643  22.318   8.383  1.00  0.00    -0.246 OA
ATOM     20  HN  UNL     1     -13.413  19.865   7.050  1.00  0.00     0.172 HD
ENDBRANCH   7   8
BRANCH   4  21
HETATM   21  C   UNL     1      -9.966  18.208   5.665  1.00  0.00     0.018 C 
HETATM   22  C   UNL     1      -8.938  17.272   5.945  1.00  0.00     0.044 A 
HETATM   23  C   UNL     1      -7.907  16.310   5.530  1.00  0.00     0.021 A 
HETATM   24  C   UNL     1      -7.685  17.638   6.215  1.00  0.00     0.019 A 
HETATM   25  C   UNL     1      -7.244  18.955   5.974  1.00  0.00    -0.021 C 
HETATM   26  C   UNL     1      -8.179  19.893   5.523  1.00  0.00    -0.002 C 
HETATM   27  C   UNL     1      -9.511  19.510   5.329  1.00  0.00     0.025 C 
ENDBRANCH   4  21
TORSDOF 2
ENDMDL
MODEL 7
REMARK VINA RESULT:      -7.2      2.801      6.536
REMARK  2 active torsions:
REMARK  status: ('A' for Active; 'I' for Inactive)
REMARK    1  A    between atoms: N_4  and  C_18 
REMARK       I    between atoms: N_4  and  C_26 
REMARK    2  A    between atoms: N_11  and  C_24 
REMARK       I    between atoms: N_12  and  C_26 
ROOT
HETATM    1  C   UNL     1     -14.088  16.722   4.423  1.00  0.00    -0.002 C 
HETATM    2  C   UNL     1     -13.190  19.061   4.862  1.00  0.00     0.158 C 
HETATM    3  C   UNL     1     -11.740  16.261   5.210  1.00  0.00     0.049 C 
HETATM    4  N   UNL     1     -11.972  18.734   5.652  1.00  0.00    -0.333 N 
HETATM    5  C   UNL     1     -12.972  15.870   4.773  1.00  0.00     0.003 C 
HETATM    6  C   UNL     1     -14.266  17.995   4.773  1.00  0.00    -0.007 C 
HETATM    7  C   UNL     1     -11.211  17.635   5.185  1.00  0.00     0.111 C 
ENDROOT
BRANCH   7   8
HETATM    8  N   UNL     1      -9.899  17.809   4.781  1.00  0.00    -0.294 N 
HETATM    9  C   UNL     1      -8.649  17.850   5.273  1.00  0.00     0.336 C 
HETATM   10  N   UNL     1      -8.183  19.013   5.909  1.00  0.00    -0.226 N 
HETATM   11  O   UNL     1      -7.899  16.877   5.100  1.00  0.00    -0.246 OA
HETATM   12  C   UNL     1      -8.812  20.257   5.706  1.00  0.00     0.112 C 
HETATM   13  C   UNL     1      -7.026  18.955   6.761  1.00  0.00     0.337 C 
HETATM   14  C   UNL     1      -8.373  21.386   6.272  1.00  0.00     0.092 C 
HETATM   15  C   UNL     1      -7.376  21.321   7.312  1.00  0.00     0.250 C 
HETATM   16  O   UNL     1      -7.016  22.324   7.926  1.00  0.00    -0.268 OA
HETATM   17  N   UNL     1      -6.704  20.134   7.412  1.00  0.00    -0.275 N 
ATOM     18  HN  UNL     1      -5.889  20.115   8.025  1.00  0.00     0.173 HD
HETATM   19  O   UNL     1      -6.342  17.944   6.864  1.00  0.00    -0.246 OA
ATOM     20  HN  UNL     1      -9.871  17.956   3.773  1.00  0.00     0.172 HD
ENDBRANCH   7   8
BRANCH   4  21
HETATM   21  C   UNL     1     -11.606  19.432   6.858  1.00  0.00     0.018 C 
HETATM   22  C   UNL     1     -11.060  18.744   7.973  1.00  0.00     0.044 A 
HETATM   23  C   UNL     1      -9.933  18.327   8.818  1.00  0.00     0.021 A 
HETATM   24  C   UNL     1     -11.060  19.255   9.204  1.00  0.00     0.019 A 
HETATM   25  C   UNL     1     -11.356  20.615   9.428  1.00  0.00    -0.021 C 
HETATM   26  C   UNL     1     -11.733  21.397   8.332  1.00  0.00    -0.002 C 
HETATM   27  C   UNL     1     -11.812  20.822   7.059  1.00  0.00     0.025 C 
ENDBRANCH   4  21
TORSDOF 2
ENDMDL
MODEL 8
REMARK VINA RESULT:      -7.2      3.960      6.481
REMARK  2 active torsions:
REMARK  status: ('A' for Active; 'I' for Inactive)
REMARK    1  A    between atoms: N_4  and  C_18 
REMARK       I    between atoms: N_4  and  C_26 
REMARK    2  A    between atoms: N_11  and  C_24 
REMARK       I    between atoms: N_12  and  C_26 
ROOT
HETATM    1  C   UNL     1     -11.433  20.718  10.185  1.00  0.00    -0.002 C 
HETATM    2  C   UNL     1     -10.501  18.784   8.819  1.00  0.00     0.158 C 
HETATM    3  C   UNL     1     -11.443  21.653   7.846  1.00  0.00     0.049 C 
HETATM    4  N   UNL     1     -10.862  19.231   7.446  1.00  0.00    -0.333 N 
HETATM    5  C   UNL     1     -11.682  21.735   9.187  1.00  0.00     0.003 C 
HETATM    6  C   UNL     1     -11.257  19.414   9.975  1.00  0.00    -0.007 C 
HETATM    7  C   UNL     1     -10.659  20.605   7.171  1.00  0.00     0.111 C 
ENDROOT
BRANCH   7   8
HETATM    8  N   UNL     1      -9.780  21.001   6.179  1.00  0.00    -0.294 N 
HETATM    9  C   UNL     1      -8.882  21.960   5.898  1.00  0.00     0.336 C 
HETATM   10  N   UNL     1      -9.318  23.221   5.452  1.00  0.00    -0.226 N 
HETATM   11  O   UNL     1      -7.672  21.698   5.975  1.00  0.00    -0.246 OA
HETATM   12  C   UNL     1     -10.606  23.396   4.911  1.00  0.00     0.112 C 
HETATM   13  C   UNL     1      -8.434  24.353   5.515  1.00  0.00     0.337 C 
HETATM   14  C   UNL     1     -11.037  24.576   4.450  1.00  0.00     0.092 C 
HETATM   15  C   UNL     1     -10.274  25.769   4.720  1.00  0.00     0.250 C 
HETATM   16  O   UNL     1     -10.683  26.883   4.400  1.00  0.00    -0.268 OA
HETATM   17  N   UNL     1      -8.989  25.565   5.139  1.00  0.00    -0.275 N 
ATOM     18  HN  UNL     1      -8.380  26.383   5.179  1.00  0.00     0.173 HD
HETATM   19  O   UNL     1      -7.256  24.243   5.831  1.00  0.00    -0.246 OA
ATOM     20  HN  UNL     1      -9.830  20.345   5.400  1.00  0.00     0.172 HD
ENDBRANCH   7   8
BRANCH   4  21
HETATM   21  C   UNL     1     -11.446  18.355   6.462  1.00  0.00     0.018 C 
HETATM   22  C   UNL     1     -12.541  18.771   5.660  1.00  0.00     0.044 A 
HETATM   23  C   UNL     1     -13.116  19.266   4.402  1.00  0.00     0.021 A 
HETATM   24  C   UNL     1     -13.338  17.910   5.029  1.00  0.00     0.019 A 
HETATM   25  C   UNL     1     -12.985  16.552   4.899  1.00  0.00    -0.021 C 
HETATM   26  C   UNL     1     -11.814  16.111   5.524  1.00  0.00    -0.002 C 
HETATM   27  C   UNL     1     -11.034  17.012   6.257  1.00  0.00     0.025 C 
ENDBRANCH   4  21
TORSDOF 2
ENDMDL
MODEL 9
REMARK VINA RESULT:      -7.1      3.070      5.313
REMARK  2 active torsions:
REMARK  status: ('A' for Active; 'I' for Inactive)
REMARK    1  A    between atoms: N_4  and  C_18 
REMARK       I    between atoms: N_4  and  C_26 
REMARK    2  A    between atoms: N_11  and  C_24 
REMARK       I    between atoms: N_12  and  C_26 
ROOT
HETATM    1  C   UNL     1      -8.535  24.788   5.103  1.00  0.00    -0.002 C 
HETATM    2  C   UNL     1      -8.098  22.719   6.518  1.00  0.00     0.158 C 
HETATM    3  C   UNL     1     -10.671  23.482   4.827  1.00  0.00     0.049 C 
HETATM    4  N   UNL     1      -9.478  22.172   6.623  1.00  0.00    -0.333 N 
HETATM    5  C   UNL     1      -9.872  24.564   4.598  1.00  0.00     0.003 C 
HETATM    6  C   UNL     1      -7.957  24.182   6.140  1.00  0.00    -0.007 C 
HETATM    7  C   UNL     1     -10.249  22.210   5.435  1.00  0.00     0.111 C 
ENDROOT
BRANCH   7   8
HETATM    8  N   UNL     1     -10.714  21.039   4.863  1.00  0.00    -0.294 N 
HETATM    9  C   UNL     1     -11.232  19.845   5.196  1.00  0.00     0.336 C 
HETATM   10  N   UNL     1     -10.387  18.814   5.642  1.00  0.00    -0.226 N 
HETATM   11  O   UNL     1     -12.447  19.648   5.043  1.00  0.00    -0.246 OA
HETATM   12  C   UNL     1      -9.004  18.841   5.379  1.00  0.00     0.112 C 
HETATM   13  C   UNL     1     -10.934  17.690   6.352  1.00  0.00     0.337 C 
HETATM   14  C   UNL     1      -8.179  17.860   5.763  1.00  0.00     0.092 C 
HETATM   15  C   UNL     1      -8.650  16.851   6.679  1.00  0.00     0.250 C 
HETATM   16  O   UNL     1      -7.900  15.989   7.133  1.00  0.00    -0.268 OA
HETATM   17  N   UNL     1     -10.008  16.777   6.829  1.00  0.00    -0.275 N 
ATOM     18  HN  UNL     1     -10.373  15.973   7.339  1.00  0.00     0.173 HD
HETATM   19  O   UNL     1     -12.140  17.526   6.484  1.00  0.00    -0.246 OA
ATOM     20  HN  UNL     1     -10.640  21.106   3.848  1.00  0.00     0.172 HD
ENDBRANCH   7   8
BRANCH   4  21
HETATM   21  C   UNL     1     -10.042  21.694   7.859  1.00  0.00     0.018 C 
HETATM   22  C   UNL     1      -9.564  20.510   8.479  1.00  0.00     0.044 A 
HETATM   23  C   UNL     1      -8.767  19.803   9.492  1.00  0.00     0.021 A 
HETATM   24  C   UNL     1     -10.273  19.835   9.384  1.00  0.00     0.019 A 
HETATM   25  C   UNL     1     -11.421  20.399   9.977  1.00  0.00    -0.021 C 
HETATM   26  C   UNL     1     -11.846  21.654   9.530  1.00  0.00    -0.002 C 
HETATM   27  C   UNL     1     -11.138  22.310   8.518  1.00  0.00     0.025 C 
ENDBRANCH   4  21
TORSDOF 2
ENDMDL
