MODEL 1
REMARK VINA RESULT:      -9.1      0.000      0.000
REMARK  1 active torsions:
REMARK  status: ('A' for Active; 'I' for Inactive)
REMARK    1  A    between atoms: C_12  and  C_26 
ROOT
HETATM    1  C   UNL     1     380.277 152.232  63.884  1.00  0.00     0.176 C 
HETATM    2  O   UNL     1     376.394 156.052  60.948  1.00  0.00    -0.247 OA
HETATM    3  C   UNL     1     379.489 153.390  64.272  1.00  0.00    -0.028 C 
HETATM    4  C   UNL     1     375.583 151.625  62.260  1.00  0.00    -0.113 C 
HETATM    5  C   UNL     1     379.322 150.527  61.219  1.00  0.00     0.198 C 
HETATM    6  C   UNL     1     375.738 150.439  62.267  1.00  0.00     0.128 C 
HETATM    7  C   UNL     1     378.000 153.427  64.114  1.00  0.00     0.063 C 
HETATM    8  C   UNL     1     380.033 154.749  64.556  1.00  0.00     0.040 C 
HETATM    9  C   UNL     1     378.997 150.362  62.684  1.00  0.00     0.089 C 
HETATM   10  C   UNL     1     379.019 151.832  60.571  1.00  0.00     0.062 C 
HETATM   11  C   UNL     1     375.261 153.012  61.894  1.00  0.00     0.270 C 
HETATM   12  N   UNL     1     376.750 155.234  63.012  1.00  0.00    -0.338 N 
ATOM     13  HN  UNL     1     375.997 155.808  63.392  1.00  0.00     0.164 HD
HETATM   14  N   UNL     1     376.331 153.784  61.178  1.00  0.00    -0.241 N 
HETATM   15  C   UNL     1     376.776 149.356  62.231  1.00  0.00     0.253 C 
HETATM   16  N   UNL     1     377.897 149.558  62.984  1.00  0.00    -0.320 N 
ATOM     17  HN  UNL     1     377.936 149.060  63.873  1.00  0.00     0.169 HD
HETATM   18  O   UNL     1     376.635 148.317  61.595  1.00  0.00    -0.268 OA
HETATM   19  C   UNL     1     379.703 150.943  63.685  1.00  0.00     0.088 C 
HETATM   20  C   UNL     1     378.012 152.281  60.029  1.00  0.00     0.079 C 
HETATM   21  O   UNL     1     381.526 152.395  63.756  1.00  0.00    -0.288 OA
HETATM   22  C   UNL     1     378.925 155.732  64.161  1.00  0.00     0.030 C 
HETATM   23  C   UNL     1     376.977 153.318  60.007  1.00  0.00     0.253 C 
HETATM   24  O   UNL     1     379.813 149.580  60.614  1.00  0.00    -0.286 OA
HETATM   25  C   UNL     1     377.651 154.904  64.104  1.00  0.00     0.090 C 
HETATM   26  O   UNL     1     376.619 153.808  58.935  1.00  0.00    -0.268 OA
HETATM   27  C   UNL     1     376.523 155.077  61.690  1.00  0.00     0.327 C 
ENDROOT
BRANCH  11  28
HETATM   28  C   UNL     1     373.941 153.259  61.135  1.00  0.00     0.209 C 
HETATM   29  O   UNL     1     373.630 152.537  60.170  1.00  0.00    -0.646 OA
HETATM   30  O   UNL     1     373.204 154.176  61.558  1.00  0.00    -0.646 OA
ENDBRANCH  11  28
TORSDOF 1
ENDMDL
MODEL 2
REMARK VINA RESULT:      -8.2      2.326      4.987
REMARK  1 active torsions:
REMARK  status: ('A' for Active; 'I' for Inactive)
REMARK    1  A    between atoms: C_12  and  C_26 
ROOT
HETATM    1  C   UNL     1     376.858 149.735  62.516  1.00  0.00     0.176 C 
HETATM    2  O   UNL     1     380.162 153.291  66.354  1.00  0.00    -0.247 OA
HETATM    3  C   UNL     1     376.830 150.004  63.943  1.00  0.00    -0.028 C 
HETATM    4  C   UNL     1     376.944 154.686  63.242  1.00  0.00    -0.113 C 
HETATM    5  C   UNL     1     378.247 151.990  60.539  1.00  0.00     0.198 C 
HETATM    6  C   UNL     1     376.469 154.849  62.157  1.00  0.00     0.128 C 
HETATM    7  C   UNL     1     376.642 151.387  64.489  1.00  0.00     0.063 C 
HETATM    8  C   UNL     1     377.284 149.064  65.008  1.00  0.00     0.040 C 
HETATM    9  C   UNL     1     376.820 151.797  60.991  1.00  0.00     0.089 C 
HETATM   10  C   UNL     1     379.300 152.160  61.577  1.00  0.00     0.062 C 
HETATM   11  C   UNL     1     377.780 154.749  64.450  1.00  0.00     0.270 C 
HETATM   12  N   UNL     1     378.088 152.440  66.175  1.00  0.00    -0.338 N 
ATOM     13  HN  UNL     1     377.827 152.831  67.080  1.00  0.00     0.164 HD
HETATM   14  N   UNL     1     378.981 153.849  64.484  1.00  0.00    -0.241 N 
HETATM   15  C   UNL     1     376.278 154.211  60.813  1.00  0.00     0.253 C 
HETATM   16  N   UNL     1     375.962 152.882  60.806  1.00  0.00    -0.320 N 
ATOM     17  HN  UNL     1     374.981 152.655  60.646  1.00  0.00     0.169 HD
HETATM   18  O   UNL     1     376.361 154.833  59.759  1.00  0.00    -0.268 OA
HETATM   19  C   UNL     1     376.353 150.654  61.550  1.00  0.00     0.088 C 
HETATM   20  C   UNL     1     379.734 153.142  62.173  1.00  0.00     0.079 C 
HETATM   21  O   UNL     1     377.326 148.620  62.144  1.00  0.00    -0.288 OA
HETATM   22  C   UNL     1     377.793 149.947  66.154  1.00  0.00     0.030 C 
HETATM   23  C   UNL     1     379.957 153.812  63.458  1.00  0.00     0.253 C 
HETATM   24  O   UNL     1     378.487 152.012  59.336  1.00  0.00    -0.286 OA
HETATM   25  C   UNL     1     377.198 151.324  65.899  1.00  0.00     0.090 C 
HETATM   26  O   UNL     1     381.021 154.393  63.673  1.00  0.00    -0.268 OA
HETATM   27  C   UNL     1     379.127 153.160  65.698  1.00  0.00     0.327 C 
ENDROOT
BRANCH  11  28
HETATM   28  C   UNL     1     378.247 156.143  64.919  1.00  0.00     0.209 C 
HETATM   29  O   UNL     1     378.243 156.429  66.130  1.00  0.00    -0.646 OA
HETATM   30  O   UNL     1     378.656 156.931  64.039  1.00  0.00    -0.646 OA
ENDBRANCH  11  28
TORSDOF 1
ENDMDL
MODEL 3
REMARK VINA RESULT:      -8.2      2.198      5.738
REMARK  1 active torsions:
REMARK  status: ('A' for Active; 'I' for Inactive)
REMARK    1  A    between atoms: C_12  and  C_26 
ROOT
HETATM    1  C   UNL     1     376.943 155.226  62.497  1.00  0.00     0.176 C 
HETATM    2  O   UNL     1     378.158 149.270  61.337  1.00  0.00    -0.247 OA
HETATM    3  C   UNL     1     376.149 154.077  62.097  1.00  0.00    -0.028 C 
HETATM    4  C   UNL     1     378.000 151.381  65.521  1.00  0.00    -0.113 C 
HETATM    5  C   UNL     1     379.811 154.667  64.041  1.00  0.00     0.198 C 
HETATM    6  C   UNL     1     378.338 152.149  66.373  1.00  0.00     0.128 C 
HETATM    7  C   UNL     1     376.081 152.829  62.923  1.00  0.00     0.063 C 
HETATM    8  C   UNL     1     375.584 153.850  60.735  1.00  0.00     0.040 C 
HETATM    9  C   UNL     1     378.415 154.895  64.571  1.00  0.00     0.089 C 
HETATM   10  C   UNL     1     380.031 153.543  63.091  1.00  0.00     0.062 C 
HETATM   11  C   UNL     1     377.926 150.274  64.556  1.00  0.00     0.270 C 
HETATM   12  N   UNL     1     376.464 150.556  62.069  1.00  0.00    -0.338 N 
ATOM     13  HN  UNL     1     375.842 149.749  62.111  1.00  0.00     0.164 HD
HETATM   14  N   UNL     1     378.547 150.512  63.210  1.00  0.00    -0.241 N 
HETATM   15  C   UNL     1     378.811 153.551  66.617  1.00  0.00     0.253 C 
HETATM   16  N   UNL     1     378.196 154.538  65.901  1.00  0.00    -0.320 N 
ATOM     17  HN  UNL     1     377.490 155.080  66.399  1.00  0.00     0.169 HD
HETATM   18  O   UNL     1     379.680 153.831  67.436  1.00  0.00    -0.268 OA
HETATM   19  C   UNL     1     377.403 155.413  63.833  1.00  0.00     0.088 C 
HETATM   20  C   UNL     1     380.285 152.352  63.252  1.00  0.00     0.079 C 
HETATM   21  O   UNL     1     377.194 156.095  61.613  1.00  0.00    -0.288 OA
HETATM   22  C   UNL     1     375.538 152.328  60.552  1.00  0.00     0.030 C 
HETATM   23  C   UNL     1     379.879 150.960  63.035  1.00  0.00     0.253 C 
HETATM   24  O   UNL     1     380.713 155.408  64.419  1.00  0.00    -0.286 OA
HETATM   25  C   UNL     1     375.640 151.748  61.954  1.00  0.00     0.090 C 
HETATM   26  O   UNL     1     380.716 150.119  62.706  1.00  0.00    -0.268 OA
HETATM   27  C   UNL     1     377.735 150.103  62.142  1.00  0.00     0.327 C 
ENDROOT
BRANCH  11  28
HETATM   28  C   UNL     1     378.399 148.884  65.032  1.00  0.00     0.209 C 
HETATM   29  O   UNL     1     379.459 148.769  65.673  1.00  0.00    -0.646 OA
HETATM   30  O   UNL     1     377.654 147.912  64.777  1.00  0.00    -0.646 OA
ENDBRANCH  11  28
TORSDOF 1
ENDMDL
MODEL 4
REMARK VINA RESULT:      -7.9      2.142      5.738
REMARK  1 active torsions:
REMARK  status: ('A' for Active; 'I' for Inactive)
REMARK    1  A    between atoms: C_12  and  C_26 
ROOT
HETATM    1  C   UNL     1     376.636 149.301  62.241  1.00  0.00     0.176 C 
HETATM    2  O   UNL     1     381.189 150.832  66.142  1.00  0.00    -0.247 OA
HETATM    3  C   UNL     1     376.873 149.117  63.662  1.00  0.00    -0.028 C 
HETATM    4  C   UNL     1     377.984 153.682  64.249  1.00  0.00    -0.113 C 
HETATM    5  C   UNL     1     378.223 151.763  60.710  1.00  0.00     0.198 C 
HETATM    6  C   UNL     1     377.413 154.257  63.369  1.00  0.00     0.128 C 
HETATM    7  C   UNL     1     377.093 150.273  64.589  1.00  0.00     0.063 C 
HETATM    8  C   UNL     1     377.239 147.828  64.317  1.00  0.00     0.040 C 
HETATM    9  C   UNL     1     376.868 151.703  61.374  1.00  0.00     0.089 C 
HETATM   10  C   UNL     1     379.422 151.408  61.517  1.00  0.00     0.062 C 
HETATM   11  C   UNL     1     378.973 153.216  65.231  1.00  0.00     0.270 C 
HETATM   12  N   UNL     1     378.969 150.471  66.165  1.00  0.00    -0.338 N 
ATOM     13  HN  UNL     1     378.937 150.605  67.176  1.00  0.00     0.164 HD
HETATM   14  N   UNL     1     379.922 152.145  64.775  1.00  0.00    -0.241 N 
HETATM   15  C   UNL     1     376.890 154.110  61.971  1.00  0.00     0.253 C 
HETATM   16  N   UNL     1     376.273 152.930  61.668  1.00  0.00    -0.320 N 
ATOM     17  HN  UNL     1     375.253 152.947  61.656  1.00  0.00     0.169 HD
HETATM   18  O   UNL     1     376.968 155.001  61.131  1.00  0.00    -0.268 OA
HETATM   19  C   UNL     1     376.229 150.549  61.685  1.00  0.00     0.088 C 
HETATM   20  C   UNL     1     380.154 152.061  62.256  1.00  0.00     0.079 C 
HETATM   21  O   UNL     1     376.772 148.290  61.493  1.00  0.00    -0.288 OA
HETATM   22  C   UNL     1     378.097 148.205  65.530  1.00  0.00     0.030 C 
HETATM   23  C   UNL     1     380.706 152.249  63.600  1.00  0.00     0.253 C 
HETATM   24  O   UNL     1     378.289 152.110  59.535  1.00  0.00    -0.286 OA
HETATM   25  C   UNL     1     377.813 149.677  65.785  1.00  0.00     0.090 C 
HETATM   26  O   UNL     1     381.897 152.530  63.743  1.00  0.00    -0.268 OA
HETATM   27  C   UNL     1     380.070 151.101  65.700  1.00  0.00     0.327 C 
ENDROOT
BRANCH  11  28
HETATM   28  C   UNL     1     379.816 154.286  65.955  1.00  0.00     0.209 C 
HETATM   29  O   UNL     1     380.410 155.163  65.300  1.00  0.00    -0.646 OA
HETATM   30  O   UNL     1     379.834 154.247  67.205  1.00  0.00    -0.646 OA
ENDBRANCH  11  28
TORSDOF 1
ENDMDL
MODEL 5
REMARK VINA RESULT:      -7.7      2.473      5.663
REMARK  1 active torsions:
REMARK  status: ('A' for Active; 'I' for Inactive)
REMARK    1  A    between atoms: C_12  and  C_26 
ROOT
HETATM    1  C   UNL     1     377.011 154.468  62.567  1.00  0.00     0.176 C 
HETATM    2  O   UNL     1     379.868 152.641  67.742  1.00  0.00    -0.247 OA
HETATM    3  C   UNL     1     378.023 155.043  63.436  1.00  0.00    -0.028 C 
HETATM    4  C   UNL     1     380.580 151.057  63.387  1.00  0.00    -0.113 C 
HETATM    5  C   UNL     1     376.628 151.186  62.589  1.00  0.00     0.198 C 
HETATM    6  C   UNL     1     380.295 150.518  62.358  1.00  0.00     0.128 C 
HETATM    7  C   UNL     1     379.324 154.351  63.708  1.00  0.00     0.063 C 
HETATM    8  C   UNL     1     377.806 156.170  64.388  1.00  0.00     0.040 C 
HETATM    9  C   UNL     1     377.479 152.090  61.730  1.00  0.00     0.089 C 
HETATM   10  C   UNL     1     376.810 151.238  64.065  1.00  0.00     0.062 C 
HETATM   11  C   UNL     1     380.900 151.359  64.790  1.00  0.00     0.270 C 
HETATM   12  N   UNL     1     380.254 153.938  65.946  1.00  0.00    -0.338 N 
ATOM     13  HN  UNL     1     381.159 154.222  66.319  1.00  0.00     0.164 HD
HETATM   14  N   UNL     1     379.738 151.633  65.701  1.00  0.00    -0.241 N 
HETATM   15  C   UNL     1     379.203 150.349  61.345  1.00  0.00     0.253 C 
HETATM   16  N   UNL     1     378.500 151.471  61.009  1.00  0.00    -0.320 N 
ATOM     17  HN  UNL     1     378.752 151.910  60.123  1.00  0.00     0.169 HD
HETATM   18  O   UNL     1     378.954 149.277  60.803  1.00  0.00    -0.268 OA
HETATM   19  C   UNL     1     377.299 153.430  61.634  1.00  0.00     0.088 C 
HETATM   20  C   UNL     1     377.571 150.655  64.834  1.00  0.00     0.079 C 
HETATM   21  O   UNL     1     375.843 154.949  62.638  1.00  0.00    -0.288 OA
HETATM   22  C   UNL     1     378.782 155.932  65.546  1.00  0.00     0.030 C 
HETATM   23  C   UNL     1     378.633 150.757  65.838  1.00  0.00     0.253 C 
HETATM   24  O   UNL     1     375.827 150.436  62.042  1.00  0.00    -0.286 OA
HETATM   25  C   UNL     1     379.820 154.960  65.007  1.00  0.00     0.090 C 
HETATM   26  O   UNL     1     378.600 150.048  66.845  1.00  0.00    -0.268 OA
HETATM   27  C   UNL     1     379.922 152.759  66.517  1.00  0.00     0.327 C 
ENDROOT
BRANCH  11  28
HETATM   28  C   UNL     1     381.835 150.383  65.532  1.00  0.00     0.209 C 
HETATM   29  O   UNL     1     381.661 149.154  65.435  1.00  0.00    -0.646 OA
HETATM   30  O   UNL     1     382.777 150.882  66.185  1.00  0.00    -0.646 OA
ENDBRANCH  11  28
TORSDOF 1
ENDMDL
MODEL 6
REMARK VINA RESULT:      -7.7      1.903      5.142
REMARK  1 active torsions:
REMARK  status: ('A' for Active; 'I' for Inactive)
REMARK    1  A    between atoms: C_12  and  C_26 
ROOT
HETATM    1  C   UNL     1     374.777 152.648  61.231  1.00  0.00     0.176 C 
HETATM    2  O   UNL     1     377.930 156.021  65.350  1.00  0.00    -0.247 OA
HETATM    3  C   UNL     1     375.153 154.047  61.337  1.00  0.00    -0.028 C 
HETATM    4  C   UNL     1     379.664 152.948  62.263  1.00  0.00    -0.113 C 
HETATM    5  C   UNL     1     376.578 150.428  62.889  1.00  0.00     0.198 C 
HETATM    6  C   UNL     1     379.832 151.874  61.763  1.00  0.00     0.128 C 
HETATM    7  C   UNL     1     376.583 154.481  61.437  1.00  0.00     0.063 C 
HETATM    8  C   UNL     1     374.227 155.167  61.673  1.00  0.00     0.040 C 
HETATM    9  C   UNL     1     376.690 150.957  61.479  1.00  0.00     0.089 C 
HETATM   10  C   UNL     1     376.625 151.400  64.014  1.00  0.00     0.062 C 
HETATM   11  C   UNL     1     379.661 154.107  63.167  1.00  0.00     0.270 C 
HETATM   12  N   UNL     1     377.471 156.007  63.149  1.00  0.00    -0.338 N 
ATOM     13  HN  UNL     1     377.970 156.886  63.017  1.00  0.00     0.164 HD
HETATM   14  N   UNL     1     378.557 154.165  64.183  1.00  0.00    -0.241 N 
HETATM   15  C   UNL     1     379.141 150.599  61.379  1.00  0.00     0.253 C 
HETATM   16  N   UNL     1     377.898 150.719  60.826  1.00  0.00    -0.320 N 
ATOM     17  HN  UNL     1     377.848 150.622  59.812  1.00  0.00     0.169 HD
HETATM   18  O   UNL     1     379.657 149.494  61.512  1.00  0.00    -0.268 OA
HETATM   19  C   UNL     1     375.699 151.631  60.845  1.00  0.00     0.088 C 
HETATM   20  C   UNL     1     377.551 151.891  64.656  1.00  0.00     0.079 C 
HETATM   21  O   UNL     1     373.569 152.351  61.464  1.00  0.00    -0.288 OA
HETATM   22  C   UNL     1     375.083 156.210  62.402  1.00  0.00     0.030 C 
HETATM   23  C   UNL     1     378.261 153.103  65.072  1.00  0.00     0.253 C 
HETATM   24  O   UNL     1     376.464 149.218  63.057  1.00  0.00    -0.286 OA
HETATM   25  C   UNL     1     376.523 155.866  62.055  1.00  0.00     0.090 C 
HETATM   26  O   UNL     1     378.647 153.221  66.236  1.00  0.00    -0.268 OA
HETATM   27  C   UNL     1     377.946 155.425  64.271  1.00  0.00     0.327 C 
ENDROOT
BRANCH  11  28
HETATM   28  C   UNL     1     380.973 154.435  63.908  1.00  0.00     0.209 C 
HETATM   29  O   UNL     1     381.657 153.521  64.405  1.00  0.00    -0.646 OA
HETATM   30  O   UNL     1     381.321 155.636  63.944  1.00  0.00    -0.646 OA
ENDBRANCH  11  28
TORSDOF 1
ENDMDL
MODEL 7
REMARK VINA RESULT:      -7.5      2.783      5.554
REMARK  1 active torsions:
REMARK  status: ('A' for Active; 'I' for Inactive)
REMARK    1  A    between atoms: C_12  and  C_26 
ROOT
HETATM    1  C   UNL     1     377.264 149.043  64.517  1.00  0.00     0.176 C 
HETATM    2  O   UNL     1     381.696 152.536  67.056  1.00  0.00    -0.247 OA
HETATM    3  C   UNL     1     377.497 149.603  65.837  1.00  0.00    -0.028 C 
HETATM    4  C   UNL     1     378.364 153.903  64.054  1.00  0.00    -0.113 C 
HETATM    5  C   UNL     1     378.734 150.491  61.936  1.00  0.00     0.198 C 
HETATM    6  C   UNL     1     377.771 153.934  63.016  1.00  0.00     0.128 C 
HETATM    7  C   UNL     1     377.649 151.076  66.061  1.00  0.00     0.063 C 
HETATM    8  C   UNL     1     377.924 148.831  67.039  1.00  0.00     0.040 C 
HETATM    9  C   UNL     1     377.378 150.703  62.566  1.00  0.00     0.089 C 
HETATM   10  C   UNL     1     379.942 150.646  62.791  1.00  0.00     0.062 C 
HETATM   11  C   UNL     1     379.367 154.037  65.121  1.00  0.00     0.270 C 
HETATM   12  N   UNL     1     379.498 152.126  67.296  1.00  0.00    -0.338 N 
ATOM     13  HN  UNL     1     379.450 152.743  68.106  1.00  0.00     0.164 HD
HETATM   14  N   UNL     1     380.374 152.930  65.240  1.00  0.00    -0.241 N 
HETATM   15  C   UNL     1     377.269 153.085  61.885  1.00  0.00     0.253 C 
HETATM   16  N   UNL     1     376.717 151.882  62.222  1.00  0.00    -0.320 N 
ATOM     17  HN  UNL     1     375.698 151.841  62.221  1.00  0.00     0.169 HD
HETATM   18  O   UNL     1     377.308 153.443  60.713  1.00  0.00    -0.268 OA
HETATM   19  C   UNL     1     376.798 149.827  63.421  1.00  0.00     0.088 C 
HETATM   20  C   UNL     1     380.633 151.615  63.093  1.00  0.00     0.079 C 
HETATM   21  O   UNL     1     377.459 147.802  64.369  1.00  0.00    -0.288 OA
HETATM   22  C   UNL     1     378.750 149.804  67.888  1.00  0.00     0.030 C 
HETATM   23  C   UNL     1     381.163 152.474  64.156  1.00  0.00     0.253 C 
HETATM   24  O   UNL     1     378.792 150.210  60.743  1.00  0.00    -0.286 OA
HETATM   25  C   UNL     1     378.387 151.191  67.382  1.00  0.00     0.090 C 
HETATM   26  O   UNL     1     382.336 152.848  64.118  1.00  0.00    -0.268 OA
HETATM   27  C   UNL     1     380.569 152.494  66.559  1.00  0.00     0.327 C 
ENDROOT
BRANCH  11  28
HETATM   28  C   UNL     1     380.146 155.366  65.200  1.00  0.00     0.209 C 
HETATM   29  O   UNL     1     380.415 155.869  66.307  1.00  0.00    -0.646 OA
HETATM   30  O   UNL     1     380.515 155.875  64.119  1.00  0.00    -0.646 OA
ENDBRANCH  11  28
TORSDOF 1
ENDMDL
MODEL 8
REMARK VINA RESULT:      -7.4      3.248      6.421
REMARK  1 active torsions:
REMARK  status: ('A' for Active; 'I' for Inactive)
REMARK    1  A    between atoms: C_12  and  C_26 
ROOT
HETATM    1  C   UNL     1     376.965 150.004  61.804  1.00  0.00     0.176 C 
HETATM    2  O   UNL     1     381.512 153.269  64.440  1.00  0.00    -0.247 OA
HETATM    3  C   UNL     1     378.294 150.426  61.395  1.00  0.00    -0.028 C 
HETATM    4  C   UNL     1     380.221 148.873  65.432  1.00  0.00    -0.113 C 
HETATM    5  C   UNL     1     376.321 149.825  65.040  1.00  0.00     0.198 C 
HETATM    6  C   UNL     1     379.490 148.005  65.812  1.00  0.00     0.128 C 
HETATM    7  C   UNL     1     379.521 150.049  62.168  1.00  0.00     0.063 C 
HETATM    8  C   UNL     1     378.592 151.498  60.403  1.00  0.00     0.040 C 
HETATM    9  C   UNL     1     376.824 148.793  64.060  1.00  0.00     0.089 C 
HETATM   10  C   UNL     1     377.097 151.084  65.201  1.00  0.00     0.062 C 
HETATM   11  C   UNL     1     381.115 150.036  65.340  1.00  0.00     0.270 C 
HETATM   12  N   UNL     1     381.245 151.631  62.923  1.00  0.00    -0.338 N 
ATOM     13  HN  UNL     1     382.246 151.619  62.729  1.00  0.00     0.164 HD
HETATM   14  N   UNL     1     380.462 151.374  65.150  1.00  0.00    -0.241 N 
HETATM   15  C   UNL     1     378.067 147.531  65.796  1.00  0.00     0.253 C 
HETATM   16  N   UNL     1     377.396 147.647  64.612  1.00  0.00    -0.320 N 
ATOM     17  HN  UNL     1     377.302 146.791  64.065  1.00  0.00     0.169 HD
HETATM   18  O   UNL     1     377.519 147.030  66.772  1.00  0.00    -0.268 OA
HETATM   19  C   UNL     1     376.746 148.928  62.714  1.00  0.00     0.088 C 
HETATM   20  C   UNL     1     378.048 151.394  65.914  1.00  0.00     0.079 C 
HETATM   21  O   UNL     1     375.979 150.611  61.292  1.00  0.00    -0.288 OA
HETATM   22  C   UNL     1     379.931 152.106  60.837  1.00  0.00     0.030 C 
HETATM   23  C   UNL     1     379.434 151.865  65.993  1.00  0.00     0.253 C 
HETATM   24  O   UNL     1     375.299 149.586  65.676  1.00  0.00    -0.286 OA
HETATM   25  C   UNL     1     380.561 151.079  61.765  1.00  0.00     0.090 C 
HETATM   26  O   UNL     1     379.751 152.708  66.832  1.00  0.00    -0.268 OA
HETATM   27  C   UNL     1     381.069 152.155  64.156  1.00  0.00     0.327 C 
ENDROOT
BRANCH  11  28
HETATM   28  C   UNL     1     382.178 150.204  66.446  1.00  0.00     0.209 C 
HETATM   29  O   UNL     1     383.117 151.007  66.294  1.00  0.00    -0.646 OA
HETATM   30  O   UNL     1     382.022 149.536  67.491  1.00  0.00    -0.646 OA
ENDBRANCH  11  28
TORSDOF 1
ENDMDL
MODEL 9
REMARK VINA RESULT:      -7.2      3.797      5.547
REMARK  1 active torsions:
REMARK  status: ('A' for Active; 'I' for Inactive)
REMARK    1  A    between atoms: C_12  and  C_26 
ROOT
HETATM    1  C   UNL     1     379.713 154.071  69.769  1.00  0.00     0.176 C 
HETATM    2  O   UNL     1     379.393 157.291  64.494  1.00  0.00    -0.247 OA
HETATM    3  C   UNL     1     378.811 155.078  69.235  1.00  0.00    -0.028 C 
HETATM    4  C   UNL     1     378.369 152.760  65.130  1.00  0.00    -0.113 C 
HETATM    5  C   UNL     1     381.503 152.301  67.628  1.00  0.00     0.198 C 
HETATM    6  C   UNL     1     378.589 151.615  65.394  1.00  0.00     0.128 C 
HETATM    7  C   UNL     1     378.070 154.880  67.948  1.00  0.00     0.063 C 
HETATM    8  C   UNL     1     378.742 156.499  69.681  1.00  0.00     0.040 C 
HETATM    9  C   UNL     1     380.151 152.050  68.252  1.00  0.00     0.089 C 
HETATM   10  C   UNL     1     381.701 153.556  66.852  1.00  0.00     0.062 C 
HETATM   11  C   UNL     1     378.319 154.086  64.497  1.00  0.00     0.270 C 
HETATM   12  N   UNL     1     378.027 156.490  66.091  1.00  0.00    -0.338 N 
ATOM     13  HN  UNL     1     377.219 156.926  65.647  1.00  0.00     0.164 HD
HETATM   14  N   UNL     1     379.429 155.037  64.840  1.00  0.00    -0.241 N 
HETATM   15  C   UNL     1     379.343 150.713  66.326  1.00  0.00     0.253 C 
HETATM   16  N   UNL     1     379.363 151.073  67.644  1.00  0.00    -0.320 N 
ATOM     17  HN  UNL     1     378.725 150.566  68.257  1.00  0.00     0.169 HD
HETATM   18  O   UNL     1     379.893 149.681  65.958  1.00  0.00    -0.268 OA
HETATM   19  C   UNL     1     379.687 152.712  69.340  1.00  0.00     0.088 C 
HETATM   20  C   UNL     1     381.503 153.851  65.677  1.00  0.00     0.079 C 
HETATM   21  O   UNL     1     380.521 154.435  70.671  1.00  0.00    -0.288 OA
HETATM   22  C   UNL     1     378.305 157.302  68.450  1.00  0.00     0.030 C 
HETATM   23  C   UNL     1     380.802 154.709  64.718  1.00  0.00     0.253 C 
HETATM   24  O   UNL     1     382.384 151.460  67.772  1.00  0.00    -0.286 OA
HETATM   25  C   UNL     1     377.706 156.282  67.493  1.00  0.00     0.090 C 
HETATM   26  O   UNL     1     381.403 155.162  63.742  1.00  0.00    -0.268 OA
HETATM   27  C   UNL     1     378.980 156.331  65.147  1.00  0.00     0.327 C 
ENDROOT
BRANCH  11  28
HETATM   28  C   UNL     1     378.139 154.137  62.966  1.00  0.00     0.209 C 
HETATM   29  O   UNL     1     377.490 155.062  62.442  1.00  0.00    -0.646 OA
HETATM   30  O   UNL     1     378.699 153.241  62.297  1.00  0.00    -0.646 OA
ENDBRANCH  11  28
TORSDOF 1
ENDMDL
