MODEL 1
REMARK VINA RESULT:      -7.6      0.000      0.000
REMARK  2 active torsions:
REMARK  status: ('A' for Active; 'I' for Inactive)
REMARK       I    between atoms: N_1  and  C_6 
REMARK       I    between atoms: N_1  and  C_19 
REMARK    1  A    between atoms: C_7  and  N_17 
REMARK    2  A    between atoms: N_11  and  N_17 
REMARK       I    between atoms: N_11  and  C_19 
ROOT
HETATM    1  N   UNL     1     -12.761  -8.027  -9.100  1.00  0.00    -0.292 N 
ATOM      2  HN  UNL     1     -12.877  -8.878  -9.648  1.00  0.00     0.187 HD
ENDROOT
BRANCH   1   3
HETATM    3  C   UNL     1     -13.793  -7.323  -8.562  1.00  0.00     0.116 C 
HETATM    4  C   UNL     1     -13.661  -6.535  -7.413  1.00  0.00     0.038 C 
HETATM    5  C   UNL     1     -14.708  -5.720  -7.016  1.00  0.00     0.020 C 
HETATM    6  C   UNL     1     -15.945  -5.884  -7.600  1.00  0.00     0.091 C 
HETATM    7  N   UNL     1     -16.140  -6.825  -8.561  1.00  0.00    -0.332 N 
HETATM    8  C   UNL     1     -15.083  -7.384  -9.231  1.00  0.00     0.273 C 
ATOM      9  HN  UNL     1     -17.090  -7.120  -8.787  1.00  0.00     0.168 HD
HETATM   10  O   UNL     1     -15.216  -7.873 -10.357  1.00  0.00    -0.266 OA
ENDBRANCH   1   3
BRANCH   1  11
HETATM   11  N   UNL     1     -11.495  -7.431  -8.805  1.00  0.00    -0.251 N 
HETATM   12  C   UNL     1     -10.531  -8.400  -8.565  1.00  0.00     0.343 C 
HETATM   13  N   UNL     1      -9.925  -8.866  -9.694  1.00  0.00    -0.249 N 
HETATM   14  O   UNL     1     -10.303  -8.845  -7.449  1.00  0.00    -0.245 OA
HETATM   15  C   UNL     1      -9.548  -7.940 -10.615  1.00  0.00     0.406 C 
ATOM     16  HN  UNL     1      -9.761  -9.862  -9.841  1.00  0.00     0.176 HD
HETATM   17  O   UNL     1     -10.247  -7.628 -11.547  1.00  0.00    -0.233 OA
HETATM   18  F   UNL     1      -8.346  -7.432 -10.460  1.00  0.00    -0.141 F 
ATOM     19  HN  UNL     1     -11.323  -6.426  -8.776  1.00  0.00     0.191 HD
ENDBRANCH   1  11
TORSDOF 2
ENDMDL
MODEL 2
REMARK VINA RESULT:      -7.4      1.875      1.936
REMARK  2 active torsions:
REMARK  status: ('A' for Active; 'I' for Inactive)
REMARK       I    between atoms: N_1  and  C_6 
REMARK       I    between atoms: N_1  and  C_19 
REMARK    1  A    between atoms: C_7  and  N_17 
REMARK    2  A    between atoms: N_11  and  N_17 
REMARK       I    between atoms: N_11  and  C_19 
ROOT
HETATM    1  N   UNL     1     -12.545  -7.524  -9.378  1.00  0.00    -0.292 N 
ATOM      2  HN  UNL     1     -12.556  -8.025 -10.266  1.00  0.00     0.187 HD
ENDROOT
BRANCH   1   3
HETATM    3  C   UNL     1     -13.657  -7.051  -8.757  1.00  0.00     0.116 C 
HETATM    4  C   UNL     1     -13.612  -6.317  -7.565  1.00  0.00     0.038 C 
HETATM    5  C   UNL     1     -14.767  -5.730  -7.077  1.00  0.00     0.020 C 
HETATM    6  C   UNL     1     -15.982  -6.084  -7.622  1.00  0.00     0.091 C 
HETATM    7  N   UNL     1     -16.053  -6.990  -8.633  1.00  0.00    -0.332 N 
HETATM    8  C   UNL     1     -14.947  -7.309  -9.378  1.00  0.00     0.273 C 
ATOM      9  HN  UNL     1     -16.945  -7.440  -8.841  1.00  0.00     0.168 HD
HETATM   10  O   UNL     1     -15.046  -7.751 -10.526  1.00  0.00    -0.266 OA
ENDBRANCH   1   3
BRANCH   1  11
HETATM   11  N   UNL     1     -11.355  -7.237  -8.637  1.00  0.00    -0.251 N 
HETATM   12  C   UNL     1     -10.237  -7.258  -9.461  1.00  0.00     0.343 C 
HETATM   13  N   UNL     1      -9.997  -6.076 -10.095  1.00  0.00    -0.249 N 
HETATM   14  O   UNL     1      -9.577  -8.269  -9.654  1.00  0.00    -0.245 OA
HETATM   15  C   UNL     1     -10.099  -4.946  -9.346  1.00  0.00     0.406 C 
ATOM     16  HN  UNL     1      -9.751  -6.040 -11.084  1.00  0.00     0.176 HD
HETATM   17  O   UNL     1     -11.114  -4.297  -9.283  1.00  0.00    -0.233 OA
HETATM   18  F   UNL     1      -9.005  -4.567  -8.725  1.00  0.00    -0.141 F 
ATOM     19  HN  UNL     1     -11.331  -7.041  -7.637  1.00  0.00     0.191 HD
ENDBRANCH   1  11
TORSDOF 2
ENDMDL
MODEL 3
REMARK VINA RESULT:      -7.4      4.055      5.752
REMARK  2 active torsions:
REMARK  status: ('A' for Active; 'I' for Inactive)
REMARK       I    between atoms: N_1  and  C_6 
REMARK       I    between atoms: N_1  and  C_19 
REMARK    1  A    between atoms: C_7  and  N_17 
REMARK    2  A    between atoms: N_11  and  N_17 
REMARK       I    between atoms: N_11  and  C_19 
ROOT
HETATM    1  N   UNL     1     -11.414  -5.871  -8.885  1.00  0.00    -0.292 N 
ATOM      2  HN  UNL     1     -10.978  -6.754  -8.621  1.00  0.00     0.187 HD
ENDROOT
BRANCH   1   3
HETATM    3  C   UNL     1     -10.734  -4.706  -9.048  1.00  0.00     0.116 C 
HETATM    4  C   UNL     1     -11.191  -3.480  -8.549  1.00  0.00     0.038 C 
HETATM    5  C   UNL     1     -10.371  -2.366  -8.611  1.00  0.00     0.020 C 
HETATM    6  C   UNL     1      -9.231  -2.413  -9.384  1.00  0.00     0.091 C 
HETATM    7  N   UNL     1      -8.904  -3.539 -10.072  1.00  0.00    -0.332 N 
HETATM    8  C   UNL     1      -9.465  -4.750  -9.759  1.00  0.00     0.273 C 
ATOM      9  HN  UNL     1      -8.230  -3.481 -10.836  1.00  0.00     0.168 HD
HETATM   10  O   UNL     1      -8.901  -5.814 -10.028  1.00  0.00    -0.266 OA
ENDBRANCH   1   3
BRANCH   1  11
HETATM   11  N   UNL     1     -12.815  -5.713  -9.128  1.00  0.00    -0.251 N 
HETATM   12  C   UNL     1     -13.520  -6.845  -8.743  1.00  0.00     0.343 C 
HETATM   13  N   UNL     1     -13.863  -6.858  -7.424  1.00  0.00    -0.249 N 
HETATM   14  O   UNL     1     -13.744  -7.776  -9.504  1.00  0.00    -0.245 OA
HETATM   15  C   UNL     1     -14.362  -5.705  -6.908  1.00  0.00     0.406 C 
ATOM     16  HN  UNL     1     -13.750  -7.694  -6.851  1.00  0.00     0.176 HD
HETATM   17  O   UNL     1     -13.671  -4.886  -6.354  1.00  0.00    -0.233 OA
HETATM   18  F   UNL     1     -15.664  -5.548  -7.004  1.00  0.00    -0.141 F 
ATOM     19  HN  UNL     1     -13.239  -4.878  -9.531  1.00  0.00     0.191 HD
ENDBRANCH   1  11
TORSDOF 2
ENDMDL
MODEL 4
REMARK VINA RESULT:      -7.2      2.304      2.538
REMARK  2 active torsions:
REMARK  status: ('A' for Active; 'I' for Inactive)
REMARK       I    between atoms: N_1  and  C_6 
REMARK       I    between atoms: N_1  and  C_19 
REMARK    1  A    between atoms: C_7  and  N_17 
REMARK    2  A    between atoms: N_11  and  N_17 
REMARK       I    between atoms: N_11  and  C_19 
ROOT
HETATM    1  N   UNL     1     -12.830  -6.847  -8.708  1.00  0.00    -0.292 N 
ATOM      2  HN  UNL     1     -12.123  -7.517  -8.407  1.00  0.00     0.187 HD
ENDROOT
BRANCH   1   3
HETATM    3  C   UNL     1     -14.170  -7.060  -8.612  1.00  0.00     0.116 C 
HETATM    4  C   UNL     1     -14.875  -6.947  -7.408  1.00  0.00     0.038 C 
HETATM    5  C   UNL     1     -16.258  -7.018  -7.414  1.00  0.00     0.020 C 
HETATM    6  C   UNL     1     -16.903  -7.450  -8.552  1.00  0.00     0.091 C 
HETATM    7  N   UNL     1     -16.198  -7.796  -9.662  1.00  0.00    -0.332 N 
HETATM    8  C   UNL     1     -14.895  -7.401  -9.826  1.00  0.00     0.273 C 
ATOM      9  HN  UNL     1     -16.646  -8.358 -10.385  1.00  0.00     0.168 HD
HETATM   10  O   UNL     1     -14.385  -7.302 -10.945  1.00  0.00    -0.266 OA
ENDBRANCH   1   3
BRANCH   1  11
HETATM   11  N   UNL     1     -12.531  -5.571  -9.281  1.00  0.00    -0.251 N 
HETATM   12  C   UNL     1     -11.619  -4.875  -8.499  1.00  0.00     0.343 C 
HETATM   13  N   UNL     1     -10.317  -5.179  -8.768  1.00  0.00    -0.249 N 
HETATM   14  O   UNL     1     -11.959  -4.117  -7.602  1.00  0.00    -0.245 OA
HETATM   15  C   UNL     1      -9.963  -5.256 -10.078  1.00  0.00     0.406 C 
ATOM     16  HN  UNL     1      -9.641  -5.339  -8.022  1.00  0.00     0.176 HD
HETATM   17  O   UNL     1      -9.961  -6.295 -10.691  1.00  0.00    -0.233 OA
HETATM   18  F   UNL     1      -9.572  -4.132 -10.635  1.00  0.00    -0.141 F 
ATOM     19  HN  UNL     1     -12.933  -5.220 -10.149  1.00  0.00     0.191 HD
ENDBRANCH   1  11
TORSDOF 2
ENDMDL
MODEL 5
REMARK VINA RESULT:      -7.1      3.969      5.676
REMARK  2 active torsions:
REMARK  status: ('A' for Active; 'I' for Inactive)
REMARK       I    between atoms: N_1  and  C_6 
REMARK       I    between atoms: N_1  and  C_19 
REMARK    1  A    between atoms: C_7  and  N_17 
REMARK    2  A    between atoms: N_11  and  N_17 
REMARK       I    between atoms: N_11  and  C_19 
ROOT
HETATM    1  N   UNL     1     -12.437  -5.154  -9.129  1.00  0.00    -0.292 N 
ATOM      2  HN  UNL     1     -13.016  -5.088  -9.965  1.00  0.00     0.187 HD
ENDROOT
BRANCH   1   3
HETATM    3  C   UNL     1     -11.289  -4.450  -8.941  1.00  0.00     0.116 C 
HETATM    4  C   UNL     1     -11.271  -3.074  -8.687  1.00  0.00     0.038 C 
HETATM    5  C   UNL     1     -10.081  -2.454  -8.346  1.00  0.00     0.020 C 
HETATM    6  C   UNL     1      -8.897  -3.139  -8.509  1.00  0.00     0.091 C 
HETATM    7  N   UNL     1      -8.890  -4.410  -8.989  1.00  0.00    -0.332 N 
HETATM    8  C   UNL     1     -10.028  -5.175  -8.989  1.00  0.00     0.273 C 
ATOM      9  HN  UNL     1      -8.023  -4.803  -9.355  1.00  0.00     0.168 HD
HETATM   10  O   UNL     1      -9.980  -6.408  -8.987  1.00  0.00    -0.266 OA
ENDBRANCH   1   3
BRANCH   1  11
HETATM   11  N   UNL     1     -12.736  -5.999  -8.014  1.00  0.00    -0.251 N 
HETATM   12  C   UNL     1     -13.729  -5.443  -7.219  1.00  0.00     0.343 C 
HETATM   13  N   UNL     1     -14.995  -5.732  -7.636  1.00  0.00    -0.249 N 
HETATM   14  O   UNL     1     -13.486  -4.702  -6.277  1.00  0.00    -0.245 OA
HETATM   15  C   UNL     1     -15.243  -7.018  -7.998  1.00  0.00     0.406 C 
ATOM     16  HN  UNL     1     -15.720  -5.016  -7.675  1.00  0.00     0.176 HD
HETATM   17  O   UNL     1     -15.161  -7.401  -9.138  1.00  0.00    -0.233 OA
HETATM   18  F   UNL     1     -15.629  -7.822  -7.032  1.00  0.00    -0.141 F 
ATOM     19  HN  UNL     1     -12.280  -6.891  -7.827  1.00  0.00     0.191 HD
ENDBRANCH   1  11
TORSDOF 2
ENDMDL
MODEL 6
REMARK VINA RESULT:      -7.1      2.486      2.935
REMARK  2 active torsions:
REMARK  status: ('A' for Active; 'I' for Inactive)
REMARK       I    between atoms: N_1  and  C_6 
REMARK       I    between atoms: N_1  and  C_19 
REMARK    1  A    between atoms: C_7  and  N_17 
REMARK    2  A    between atoms: N_11  and  N_17 
REMARK       I    between atoms: N_11  and  C_19 
ROOT
HETATM    1  N   UNL     1     -14.110  -6.269  -9.329  1.00  0.00    -0.292 N 
ATOM      2  HN  UNL     1     -13.946  -5.946 -10.281  1.00  0.00     0.187 HD
ENDROOT
BRANCH   1   3
HETATM    3  C   UNL     1     -15.291  -6.783  -8.893  1.00  0.00     0.116 C 
HETATM    4  C   UNL     1     -15.920  -7.873  -9.505  1.00  0.00     0.038 C 
HETATM    5  C   UNL     1     -17.033  -8.445  -8.912  1.00  0.00     0.020 C 
HETATM    6  C   UNL     1     -17.656  -7.783  -7.876  1.00  0.00     0.091 C 
HETATM    7  N   UNL     1     -17.183  -6.589  -7.430  1.00  0.00    -0.332 N 
HETATM    8  C   UNL     1     -15.909  -6.176  -7.724  1.00  0.00     0.273 C 
ATOM      9  HN  UNL     1     -17.787  -5.990  -6.866  1.00  0.00     0.168 HD
HETATM   10  O   UNL     1     -15.310  -5.366  -7.011  1.00  0.00    -0.266 OA
ENDBRANCH   1   3
BRANCH   1  11
HETATM   11  N   UNL     1     -13.126  -6.234  -8.292  1.00  0.00    -0.251 N 
HETATM   12  C   UNL     1     -12.031  -7.024  -8.617  1.00  0.00     0.343 C 
HETATM   13  N   UNL     1     -11.095  -6.384  -9.375  1.00  0.00    -0.249 N 
HETATM   14  O   UNL     1     -11.953  -8.205  -8.312  1.00  0.00    -0.245 OA
HETATM   15  C   UNL     1     -10.763  -5.120  -9.002  1.00  0.00     0.406 C 
ATOM     16  HN  UNL     1     -10.665  -6.833 -10.183  1.00  0.00     0.176 HD
HETATM   17  O   UNL     1     -11.294  -4.143  -9.469  1.00  0.00    -0.233 OA
HETATM   18  F   UNL     1      -9.786  -5.016  -8.128  1.00  0.00    -0.141 F 
ATOM     19  HN  UNL     1     -13.216  -5.700  -7.428  1.00  0.00     0.191 HD
ENDBRANCH   1  11
TORSDOF 2
ENDMDL
MODEL 7
REMARK VINA RESULT:      -7.1      3.975      5.692
REMARK  2 active torsions:
REMARK  status: ('A' for Active; 'I' for Inactive)
REMARK       I    between atoms: N_1  and  C_6 
REMARK       I    between atoms: N_1  and  C_19 
REMARK    1  A    between atoms: C_7  and  N_17 
REMARK    2  A    between atoms: N_11  and  N_17 
REMARK       I    between atoms: N_11  and  C_19 
ROOT
HETATM    1  N   UNL     1     -12.701  -5.041  -7.990  1.00  0.00    -0.292 N 
ATOM      2  HN  UNL     1     -12.970  -4.646  -7.090  1.00  0.00     0.187 HD
ENDROOT
BRANCH   1   3
HETATM    3  C   UNL     1     -11.573  -4.695  -8.666  1.00  0.00     0.116 C 
HETATM    4  C   UNL     1     -10.726  -5.634  -9.268  1.00  0.00     0.038 C 
HETATM    5  C   UNL     1      -9.687  -5.203 -10.075  1.00  0.00     0.020 C 
HETATM    6  C   UNL     1      -9.344  -3.868 -10.071  1.00  0.00     0.091 C 
HETATM    7  N   UNL     1     -10.018  -2.979  -9.295  1.00  0.00    -0.332 N 
HETATM    8  C   UNL     1     -11.252  -3.281  -8.779  1.00  0.00     0.273 C 
ATOM      9  HN  UNL     1      -9.598  -2.072  -9.092  1.00  0.00     0.168 HD
HETATM   10  O   UNL     1     -12.057  -2.399  -8.470  1.00  0.00    -0.266 OA
ENDBRANCH   1   3
BRANCH   1  11
HETATM   11  N   UNL     1     -13.465  -6.025  -8.692  1.00  0.00    -0.251 N 
HETATM   12  C   UNL     1     -13.545  -7.206  -7.966  1.00  0.00     0.343 C 
HETATM   13  N   UNL     1     -14.560  -7.226  -7.057  1.00  0.00    -0.249 N 
HETATM   14  O   UNL     1     -12.732  -8.112  -8.084  1.00  0.00    -0.245 OA
HETATM   15  C   UNL     1     -15.767  -6.761  -7.473  1.00  0.00     0.406 C 
ATOM     16  HN  UNL     1     -14.421  -7.574  -6.108  1.00  0.00     0.176 HD
HETATM   17  O   UNL     1     -16.117  -5.619  -7.308  1.00  0.00    -0.233 OA
HETATM   18  F   UNL     1     -16.563  -7.646  -8.032  1.00  0.00    -0.141 F 
ATOM     19  HN  UNL     1     -13.895  -5.879  -9.605  1.00  0.00     0.191 HD
ENDBRANCH   1  11
TORSDOF 2
ENDMDL
MODEL 8
REMARK VINA RESULT:      -7.0      3.190      5.290
REMARK  2 active torsions:
REMARK  status: ('A' for Active; 'I' for Inactive)
REMARK       I    between atoms: N_1  and  C_6 
REMARK       I    between atoms: N_1  and  C_19 
REMARK    1  A    between atoms: C_7  and  N_17 
REMARK    2  A    between atoms: N_11  and  N_17 
REMARK       I    between atoms: N_11  and  C_19 
ROOT
HETATM    1  N   UNL     1     -13.053  -5.432  -7.891  1.00  0.00    -0.292 N 
ATOM      2  HN  UNL     1     -13.299  -4.509  -7.535  1.00  0.00     0.187 HD
ENDROOT
BRANCH   1   3
HETATM    3  C   UNL     1     -11.910  -5.704  -8.575  1.00  0.00     0.116 C 
HETATM    4  C   UNL     1     -11.512  -7.003  -8.910  1.00  0.00     0.038 C 
HETATM    5  C   UNL     1     -10.424  -7.194  -9.745  1.00  0.00     0.020 C 
HETATM    6  C   UNL     1      -9.598  -6.128 -10.025  1.00  0.00     0.091 C 
HETATM    7  N   UNL     1      -9.847  -4.899  -9.500  1.00  0.00    -0.332 N 
HETATM    8  C   UNL     1     -11.079  -4.583  -8.988  1.00  0.00     0.273 C 
ATOM      9  HN  UNL     1      -9.104  -4.200  -9.488  1.00  0.00     0.168 HD
HETATM   10  O   UNL     1     -11.472  -3.415  -8.922  1.00  0.00    -0.266 OA
ENDBRANCH   1   3
BRANCH   1  11
HETATM   11  N   UNL     1     -13.870  -6.595  -7.730  1.00  0.00    -0.251 N 
HETATM   12  C   UNL     1     -15.209  -6.296  -7.941  1.00  0.00     0.343 C 
HETATM   13  N   UNL     1     -15.586  -6.348  -9.251  1.00  0.00    -0.249 N 
HETATM   14  O   UNL     1     -15.960  -5.947  -7.041  1.00  0.00    -0.245 OA
HETATM   15  C   UNL     1     -15.144  -7.409  -9.975  1.00  0.00     0.406 C 
ATOM     16  HN  UNL     1     -16.171  -5.624  -9.667  1.00  0.00     0.176 HD
HETATM   17  O   UNL     1     -14.136  -7.373 -10.635  1.00  0.00    -0.233 OA
HETATM   18  F   UNL     1     -15.910  -8.478  -9.955  1.00  0.00    -0.141 F 
ATOM     19  HN  UNL     1     -13.516  -7.520  -7.493  1.00  0.00     0.191 HD
ENDBRANCH   1  11
TORSDOF 2
ENDMDL
MODEL 9
REMARK VINA RESULT:      -6.9      2.836      3.167
REMARK  2 active torsions:
REMARK  status: ('A' for Active; 'I' for Inactive)
REMARK       I    between atoms: N_1  and  C_6 
REMARK       I    between atoms: N_1  and  C_19 
REMARK    1  A    between atoms: C_7  and  N_17 
REMARK    2  A    between atoms: N_11  and  N_17 
REMARK       I    between atoms: N_11  and  C_19 
ROOT
HETATM    1  N   UNL     1     -12.434  -6.229  -8.279  1.00  0.00    -0.292 N 
ATOM      2  HN  UNL     1     -11.749  -6.941  -8.026  1.00  0.00     0.187 HD
ENDROOT
BRANCH   1   3
HETATM    3  C   UNL     1     -13.773  -6.358  -8.082  1.00  0.00     0.116 C 
HETATM    4  C   UNL     1     -14.576  -7.219  -8.838  1.00  0.00     0.038 C 
HETATM    5  C   UNL     1     -15.898  -7.420  -8.477  1.00  0.00     0.020 C 
HETATM    6  C   UNL     1     -16.473  -6.584  -7.545  1.00  0.00     0.091 C 
HETATM    7  N   UNL     1     -15.755  -5.579  -6.976  1.00  0.00    -0.332 N 
HETATM    8  C   UNL     1     -14.385  -5.573  -7.021  1.00  0.00     0.273 C 
ATOM      9  HN  UNL     1     -16.245  -4.817  -6.507  1.00  0.00     0.168 HD
HETATM   10  O   UNL     1     -13.713  -4.968  -6.181  1.00  0.00    -0.266 OA
ENDBRANCH   1   3
BRANCH   1  11
HETATM   11  N   UNL     1     -12.099  -4.977  -8.882  1.00  0.00    -0.251 N 
HETATM   12  C   UNL     1     -10.980  -4.416  -8.282  1.00  0.00     0.343 C 
HETATM   13  N   UNL     1      -9.798  -4.856  -8.800  1.00  0.00    -0.249 N 
HETATM   14  O   UNL     1     -11.052  -3.656  -7.327  1.00  0.00    -0.245 OA
HETATM   15  C   UNL     1      -9.711  -4.928 -10.154  1.00  0.00     0.406 C 
ATOM     16  HN  UNL     1      -9.017  -5.119  -8.200  1.00  0.00     0.176 HD
HETATM   17  O   UNL     1      -9.948  -5.937 -10.769  1.00  0.00    -0.233 OA
HETATM   18  F   UNL     1      -9.302  -3.836 -10.762  1.00  0.00    -0.141 F 
ATOM     19  HN  UNL     1     -12.615  -4.551  -9.652  1.00  0.00     0.191 HD
ENDBRANCH   1  11
TORSDOF 2
ENDMDL
