REMARK  5 active torsions:
REMARK  status: ('A' for Active; 'I' for Inactive)
REMARK    1  A    between atoms: C_1  and  C_5 
REMARK    2  A    between atoms: C_6  and  C_7 
REMARK    3  A    between atoms: C_6  and  C_13 
REMARK    4  A    between atoms: C_6  and  C_16 
REMARK    5  A    between atoms: O_10  and  C_30 
ROOT
HETATM    1  C   UNL     1       2.843  40.345  49.968  1.00  0.00    -0.013 C 
HETATM    2  C   UNL     1       4.923  43.470  50.345  1.00  0.00     0.074 A 
HETATM    3  C   UNL     1       5.075  42.868  51.730  1.00  0.00    -0.059 A 
HETATM    4  C   UNL     1       4.318  41.532  51.865  1.00  0.00     0.075 A 
HETATM    5  C   UNL     1       3.725  41.351  50.483  1.00  0.00    -0.036 A 
HETATM    6  C   UNL     1       3.059  41.354  47.757  1.00  0.00     0.001 C 
HETATM    7  C   UNL     1       4.147  42.389  49.639  1.00  0.00    -0.047 A 
HETATM    8  C   UNL     1       2.508  40.411  48.611  1.00  0.00     0.013 C 
HETATM    9  C   UNL     1       3.908  42.323  48.276  1.00  0.00     0.008 C 
ENDROOT
BRANCH   3  10
HETATM   10  C   UNL     1       6.221  43.243  52.643  1.00  0.00    -0.010 C 
BRANCH  10  11
HETATM   11  C   UNL     1       5.885  43.748  54.016  1.00  0.00     0.008 C 
HETATM   12  C   UNL     1       5.971  42.883  55.099  1.00  0.00     0.015 C 
HETATM   13  C   UNL     1       6.304  43.390  56.348  1.00  0.00     0.001 C 
HETATM   14  C   UNL     1       6.463  44.761  56.518  1.00  0.00     0.003 C 
HETATM   15  C   UNL     1       6.115  45.631  55.492  1.00  0.00     0.037 C 
HETATM   16  C   UNL     1       5.659  45.111  54.280  1.00  0.00     0.076 C 
BRANCH  16  17
HETATM   17  O   UNL     1       4.978  45.861  53.403  1.00  0.00    -0.360 OA
ATOM     18  HO  UNL     1       4.825  46.782  53.581  1.00  0.00     0.217 HD
ENDBRANCH  16  17
ENDBRANCH  10  11
BRANCH  10  19
HETATM   19  C   UNL     1       7.536  43.869  52.235  1.00  0.00    -0.025 C 
HETATM   20  C   UNL     1       7.644  45.134  51.673  1.00  0.00     0.012 C 
HETATM   21  C   UNL     1       8.864  45.802  51.696  1.00  0.00     0.001 C 
HETATM   22  C   UNL     1       9.979  45.195  52.260  1.00  0.00     0.000 C 
HETATM   23  C   UNL     1       9.896  43.883  52.703  1.00  0.00     0.001 C 
HETATM   24  C   UNL     1       8.691  43.195  52.614  1.00  0.00     0.012 C 
ENDBRANCH  10  19
ENDBRANCH   3  10
BRANCH   1  25
HETATM   25  C   UNL     1       2.178  39.252  50.723  1.00  0.00     0.043 C 
HETATM   26  C   UNL     1       0.875  38.879  50.395  1.00  0.00     0.023 C 
HETATM   27  C   UNL     1       0.137  38.030  51.221  1.00  0.00     0.075 C 
HETATM   28  C   UNL     1       0.698  37.611  52.439  1.00  0.00     0.248 C 
HETATM   29  O   UNL     1       0.057  37.276  53.429  1.00  0.00    -0.268 OA
HETATM   30  N   UNL     1       2.083  37.604  52.499  1.00  0.00    -0.290 N 
HETATM   31  C   UNL     1       2.884  38.463  51.756  1.00  0.00     0.259 C 
ATOM     32  HN  UNL     1       2.537  36.934  53.120  1.00  0.00     0.172 HD
HETATM   33  O   UNL     1       4.082  38.588  51.984  1.00  0.00    -0.267 OA
ENDBRANCH   1  25
TORSDOF 5
