MODEL 1
REMARK VINA RESULT:      -9.1      0.000      0.000
REMARK  3 active torsions:
REMARK  status: ('A' for Active; 'I' for Inactive)
REMARK    1  A    between atoms: C_4  and  C_13 
REMARK    2  A    between atoms: C_17  and  C_31 
REMARK    3  A    between atoms: C_26  and  C_32 
ROOT
HETATM    1  C   UNL     1      -4.165  12.328  13.973  1.00  0.00     0.045 C 
HETATM    2  C   UNL     1      -6.691  12.942  15.590  1.00  0.00     0.086 C 
HETATM    3  C   UNL     1      -6.537  12.612  13.188  1.00  0.00     0.014 C 
HETATM    4  O   UNL     1      -5.041  13.569  17.095  1.00  0.00    -0.268 OA
HETATM    5  N   UNL     1      -4.330  12.422  15.326  1.00  0.00    -0.323 N 
ATOM      6  HN  UNL     1      -3.598  11.986  15.888  1.00  0.00     0.169 HD
HETATM    7  C   UNL     1      -5.333  13.016  16.030  1.00  0.00     0.246 C 
HETATM    8  C   UNL     1      -5.206  12.282  13.060  1.00  0.00     0.031 C 
HETATM    9  C   UNL     1      -7.235  13.045  14.316  1.00  0.00    -0.020 C 
ENDROOT
BRANCH   1  10
HETATM   10  C   UNL     1      -2.769  12.273  13.527  1.00  0.00    -0.009 C 
HETATM   11  C   UNL     1      -2.190  13.395  12.928  1.00  0.00     0.026 C 
HETATM   12  C   UNL     1      -0.807  13.510  12.839  1.00  0.00    -0.025 C 
HETATM   13  C   UNL     1      -0.003  12.472  13.310  1.00  0.00     0.012 C 
HETATM   14  C   UNL     1      -0.592  11.276  13.721  1.00  0.00     0.002 C 
HETATM   15  C   UNL     1      -1.975  11.142  13.724  1.00  0.00     0.014 C 
BRANCH  12  16
HETATM   16  C   UNL     1      -0.255  14.731  12.197  1.00  0.00    -0.014 C 
HETATM   17  C   UNL     1       0.806  15.404  12.816  1.00  0.00     0.095 C 
HETATM   18  C   UNL     1       1.942  15.677  11.983  1.00  0.00     0.291 C 
HETATM   19  O   UNL     1       1.651  16.007  10.674  1.00  0.00    -0.238 OA
HETATM   20  O   UNL     1       3.099  15.722  12.357  1.00  0.00    -0.260 OA
HETATM   21  C   UNL     1       0.486  15.581  10.031  1.00  0.00     0.291 C 
HETATM   22  O   UNL     1       0.239  16.108   8.950  1.00  0.00    -0.260 OA
HETATM   23  C   UNL     1      -0.503  14.921  10.825  1.00  0.00     0.095 C 
ENDBRANCH  12  16
ENDBRANCH   1  10
BRANCH   9  24
HETATM   24  C   UNL     1      -8.639  13.453  14.133  1.00  0.00    -0.015 C 
HETATM   25  C   UNL     1      -9.033  14.797  14.118  1.00  0.00     0.013 C 
HETATM   26  C   UNL     1     -10.153  15.166  13.362  1.00  0.00     0.002 C 
HETATM   27  C   UNL     1     -10.894  14.205  12.698  1.00  0.00     0.012 C 
HETATM   28  C   UNL     1     -10.699  12.850  13.032  1.00  0.00    -0.025 C 
HETATM   29  C   UNL     1      -9.654  12.487  13.922  1.00  0.00    -0.015 C 
HETATM   30  C   UNL     1     -11.575  11.896  12.509  1.00  0.00     0.012 C 
HETATM   31  C   UNL     1      -9.618  11.248  14.585  1.00  0.00     0.013 C 
HETATM   32  C   UNL     1     -10.684  10.437  14.868  1.00  0.00     0.001 C 
HETATM   33  C   UNL     1     -12.000  10.492  14.434  1.00  0.00     0.000 C 
HETATM   34  C   UNL     1     -12.408  11.095  13.272  1.00  0.00     0.001 C 
ENDBRANCH   9  24
TORSDOF 3
ENDMDL
MODEL 2
REMARK VINA RESULT:      -8.1      5.613      9.704
REMARK  3 active torsions:
REMARK  status: ('A' for Active; 'I' for Inactive)
REMARK    1  A    between atoms: C_4  and  C_13 
REMARK    2  A    between atoms: C_17  and  C_31 
REMARK    3  A    between atoms: C_26  and  C_32 
ROOT
HETATM    1  C   UNL     1      -6.622  12.294  17.113  1.00  0.00     0.045 C 
HETATM    2  C   UNL     1      -5.373  11.940  19.885  1.00  0.00     0.086 C 
HETATM    3  C   UNL     1      -7.204  10.660  18.933  1.00  0.00     0.014 C 
HETATM    4  O   UNL     1      -4.622  14.063  19.332  1.00  0.00    -0.268 OA
HETATM    5  N   UNL     1      -5.532  12.910  17.661  1.00  0.00    -0.323 N 
ATOM      6  HN  UNL     1      -4.896  13.349  16.995  1.00  0.00     0.169 HD
HETATM    7  C   UNL     1      -5.177  13.021  18.971  1.00  0.00     0.246 C 
HETATM    8  C   UNL     1      -7.256  11.193  17.663  1.00  0.00     0.031 C 
HETATM    9  C   UNL     1      -6.436  11.058  20.027  1.00  0.00    -0.020 C 
ENDROOT
BRANCH   1  10
HETATM   10  C   UNL     1      -7.095  12.886  15.858  1.00  0.00    -0.009 C 
HETATM   11  C   UNL     1      -8.037  12.203  15.083  1.00  0.00     0.026 C 
HETATM   12  C   UNL     1      -8.772  12.875  14.113  1.00  0.00    -0.025 C 
HETATM   13  C   UNL     1      -8.528  14.230  13.887  1.00  0.00     0.012 C 
HETATM   14  C   UNL     1      -7.453  14.852  14.524  1.00  0.00     0.002 C 
HETATM   15  C   UNL     1      -6.670  14.144  15.427  1.00  0.00     0.014 C 
BRANCH  12  16
HETATM   16  C   UNL     1      -9.762  12.092  13.329  1.00  0.00    -0.014 C 
HETATM   17  C   UNL     1     -10.537  11.126  13.985  1.00  0.00     0.095 C 
HETATM   18  C   UNL     1     -11.953  11.217  13.775  1.00  0.00     0.291 C 
HETATM   19  O   UNL     1     -12.342  11.596  12.505  1.00  0.00    -0.238 OA
HETATM   20  O   UNL     1     -12.810  10.910  14.584  1.00  0.00    -0.260 OA
HETATM   21  C   UNL     1     -11.530  12.366  11.669  1.00  0.00     0.291 C 
HETATM   22  O   UNL     1     -11.891  12.460  10.498  1.00  0.00    -0.260 OA
HETATM   23  C   UNL     1     -10.191  12.620  12.098  1.00  0.00     0.095 C 
ENDBRANCH  12  16
ENDBRANCH   1  10
BRANCH   9  24
HETATM   24  C   UNL     1      -6.679  10.378  21.312  1.00  0.00    -0.015 C 
HETATM   25  C   UNL     1      -7.556  10.890  22.277  1.00  0.00     0.013 C 
HETATM   26  C   UNL     1      -8.220   9.999  23.130  1.00  0.00     0.002 C 
HETATM   27  C   UNL     1      -7.959   8.642  23.060  1.00  0.00     0.012 C 
HETATM   28  C   UNL     1      -6.820   8.207  22.354  1.00  0.00    -0.025 C 
HETATM   29  C   UNL     1      -6.054   9.141  21.608  1.00  0.00    -0.015 C 
HETATM   30  C   UNL     1      -6.447   6.864  22.443  1.00  0.00     0.012 C 
HETATM   31  C   UNL     1      -4.737   8.882  21.192  1.00  0.00     0.013 C 
HETATM   32  C   UNL     1      -3.854   8.005  21.762  1.00  0.00     0.001 C 
HETATM   33  C   UNL     1      -4.048   7.026  22.725  1.00  0.00     0.000 C 
HETATM   34  C   UNL     1      -5.251   6.418  22.980  1.00  0.00     0.001 C 
ENDBRANCH   9  24
TORSDOF 3
ENDMDL
MODEL 3
REMARK VINA RESULT:      -8.0      2.964      9.292
REMARK  3 active torsions:
REMARK  status: ('A' for Active; 'I' for Inactive)
REMARK    1  A    between atoms: C_4  and  C_13 
REMARK    2  A    between atoms: C_17  and  C_31 
REMARK    3  A    between atoms: C_26  and  C_32 
ROOT
HETATM    1  C   UNL     1      -4.703  12.170  14.651  1.00  0.00     0.045 C 
HETATM    2  C   UNL     1      -1.860  11.787  13.582  1.00  0.00     0.086 C 
HETATM    3  C   UNL     1      -2.663  13.599  14.987  1.00  0.00     0.014 C 
HETATM    4  O   UNL     1      -3.053  10.383  12.174  1.00  0.00    -0.268 OA
HETATM    5  N   UNL     1      -4.172  11.126  13.947  1.00  0.00    -0.323 N 
ATOM      6  HN  UNL     1      -4.695  10.251  13.999  1.00  0.00     0.169 HD
HETATM    7  C   UNL     1      -3.043  11.089  13.186  1.00  0.00     0.246 C 
HETATM    8  C   UNL     1      -3.958  13.191  15.216  1.00  0.00     0.031 C 
HETATM    9  C   UNL     1      -1.699  13.048  14.141  1.00  0.00    -0.020 C 
ENDROOT
BRANCH   1  10
HETATM   10  C   UNL     1      -6.163  12.142  14.782  1.00  0.00    -0.009 C 
HETATM   11  C   UNL     1      -6.914  13.251  14.384  1.00  0.00     0.026 C 
HETATM   12  C   UNL     1      -8.279  13.129  14.143  1.00  0.00    -0.025 C 
HETATM   13  C   UNL     1      -8.901  11.898  14.347  1.00  0.00     0.012 C 
HETATM   14  C   UNL     1      -8.185  10.853  14.932  1.00  0.00     0.002 C 
HETATM   15  C   UNL     1      -6.842  11.015  15.250  1.00  0.00     0.014 C 
BRANCH  12  16
HETATM   16  C   UNL     1      -9.017  14.346  13.717  1.00  0.00    -0.014 C 
HETATM   17  C   UNL     1      -8.528  15.604  14.091  1.00  0.00     0.095 C 
HETATM   18  C   UNL     1      -8.373  16.554  13.027  1.00  0.00     0.291 C 
HETATM   19  O   UNL     1      -9.345  16.511  12.047  1.00  0.00    -0.238 OA
HETATM   20  O   UNL     1      -7.523  17.424  12.973  1.00  0.00    -0.260 OA
HETATM   21  C   UNL     1     -10.069  15.352  11.757  1.00  0.00     0.291 C 
HETATM   22  O   UNL     1     -11.042  15.491  11.020  1.00  0.00    -0.260 OA
HETATM   23  C   UNL     1      -9.899  14.231  12.627  1.00  0.00     0.095 C 
ENDBRANCH  12  16
ENDBRANCH   1  10
BRANCH   9  24
HETATM   24  C   UNL     1      -0.425  13.774  13.997  1.00  0.00    -0.015 C 
HETATM   25  C   UNL     1       0.435  13.999  15.079  1.00  0.00     0.013 C 
HETATM   26  C   UNL     1       1.812  14.100  14.841  1.00  0.00     0.002 C 
HETATM   27  C   UNL     1       2.302  14.046  13.548  1.00  0.00     0.012 C 
HETATM   28  C   UNL     1       1.400  14.194  12.476  1.00  0.00    -0.025 C 
HETATM   29  C   UNL     1       0.004  14.244  12.731  1.00  0.00    -0.015 C 
HETATM   30  C   UNL     1       1.909  14.333  11.183  1.00  0.00     0.012 C 
HETATM   31  C   UNL     1      -0.920  14.749  11.800  1.00  0.00     0.013 C 
HETATM   32  C   UNL     1      -0.665  15.637  10.789  1.00  0.00     0.001 C 
HETATM   33  C   UNL     1       0.536  16.114  10.288  1.00  0.00     0.000 C 
HETATM   34  C   UNL     1       1.734  15.453  10.388  1.00  0.00     0.001 C 
ENDBRANCH   9  24
TORSDOF 3
ENDMDL
MODEL 4
REMARK VINA RESULT:      -7.8      3.052      9.584
REMARK  3 active torsions:
REMARK  status: ('A' for Active; 'I' for Inactive)
REMARK    1  A    between atoms: C_4  and  C_13 
REMARK    2  A    between atoms: C_17  and  C_31 
REMARK    3  A    between atoms: C_26  and  C_32 
ROOT
HETATM    1  C   UNL     1      -4.703  12.623  14.395  1.00  0.00     0.045 C 
HETATM    2  C   UNL     1      -2.313  11.852  12.644  1.00  0.00     0.086 C 
HETATM    3  C   UNL     1      -2.921  14.083  13.389  1.00  0.00     0.014 C 
HETATM    4  O   UNL     1      -3.640   9.962  12.434  1.00  0.00    -0.268 OA
HETATM    5  N   UNL     1      -4.255  11.384  14.031  1.00  0.00    -0.323 N 
ATOM      6  HN  UNL     1      -4.586  10.611  14.609  1.00  0.00     0.169 HD
HETATM    7  C   UNL     1      -3.430  11.037  13.005  1.00  0.00     0.246 C 
HETATM    8  C   UNL     1      -3.996  13.798  14.202  1.00  0.00     0.031 C 
HETATM    9  C   UNL     1      -2.194  13.233  12.555  1.00  0.00    -0.020 C 
ENDROOT
BRANCH   1  10
HETATM   10  C   UNL     1      -6.024  12.635  15.030  1.00  0.00    -0.009 C 
HETATM   11  C   UNL     1      -7.134  13.088  14.310  1.00  0.00     0.026 C 
HETATM   12  C   UNL     1      -8.422  12.772  14.728  1.00  0.00    -0.025 C 
HETATM   13  C   UNL     1      -8.599  12.037  15.901  1.00  0.00     0.012 C 
HETATM   14  C   UNL     1      -7.499  11.763  16.715  1.00  0.00     0.002 C 
HETATM   15  C   UNL     1      -6.225  12.161  16.328  1.00  0.00     0.014 C 
BRANCH  12  16
HETATM   16  C   UNL     1      -9.557  13.279  13.914  1.00  0.00    -0.014 C 
HETATM   17  C   UNL     1      -9.710  14.661  13.749  1.00  0.00     0.095 C 
HETATM   18  C   UNL     1      -9.854  15.114  12.394  1.00  0.00     0.291 C 
HETATM   19  O   UNL     1     -10.585  14.285  11.566  1.00  0.00    -0.238 OA
HETATM   20  O   UNL     1      -9.465  16.183  11.961  1.00  0.00    -0.260 OA
HETATM   21  C   UNL     1     -10.694  12.910  11.786  1.00  0.00     0.291 C 
HETATM   22  O   UNL     1     -11.534  12.318  11.112  1.00  0.00    -0.260 OA
HETATM   23  C   UNL     1     -10.162  12.391  13.007  1.00  0.00     0.095 C 
ENDBRANCH  12  16
ENDBRANCH   1  10
BRANCH   9  24
HETATM   24  C   UNL     1      -1.164  13.842  11.694  1.00  0.00    -0.015 C 
HETATM   25  C   UNL     1      -1.313  13.947  10.306  1.00  0.00     0.013 C 
HETATM   26  C   UNL     1      -0.692  15.009   9.636  1.00  0.00     0.002 C 
HETATM   27  C   UNL     1       0.110  15.898  10.329  1.00  0.00     0.012 C 
HETATM   28  C   UNL     1       0.535  15.553  11.628  1.00  0.00    -0.025 C 
HETATM   29  C   UNL     1       0.019  14.388  12.253  1.00  0.00    -0.015 C 
HETATM   30  C   UNL     1       1.496  16.350  12.254  1.00  0.00     0.012 C 
HETATM   31  C   UNL     1       0.642  13.779  13.356  1.00  0.00     0.013 C 
HETATM   32  C   UNL     1       1.963  13.868  13.705  1.00  0.00     0.001 C 
HETATM   33  C   UNL     1       2.968  14.695  13.228  1.00  0.00     0.000 C 
HETATM   34  C   UNL     1       2.753  15.911  12.631  1.00  0.00     0.001 C 
ENDBRANCH   9  24
TORSDOF 3
ENDMDL
MODEL 5
REMARK VINA RESULT:      -7.5      3.240      9.925
REMARK  3 active torsions:
REMARK  status: ('A' for Active; 'I' for Inactive)
REMARK    1  A    between atoms: C_4  and  C_13 
REMARK    2  A    between atoms: C_17  and  C_31 
REMARK    3  A    between atoms: C_26  and  C_32 
ROOT
HETATM    1  C   UNL     1      -4.589  12.166  13.956  1.00  0.00     0.045 C 
HETATM    2  C   UNL     1      -1.908  11.772  12.533  1.00  0.00     0.086 C 
HETATM    3  C   UNL     1      -3.006  13.882  13.024  1.00  0.00     0.014 C 
HETATM    4  O   UNL     1      -2.823   9.650  12.343  1.00  0.00    -0.268 OA
HETATM    5  N   UNL     1      -3.878  11.019  13.744  1.00  0.00    -0.323 N 
ATOM      6  HN  UNL     1      -4.123  10.233  14.346  1.00  0.00     0.169 HD
HETATM    7  C   UNL     1      -2.887  10.778  12.841  1.00  0.00     0.246 C 
HETATM    8  C   UNL     1      -4.097  13.443  13.741  1.00  0.00     0.031 C 
HETATM    9  C   UNL     1      -2.039  13.142  12.343  1.00  0.00    -0.020 C 
ENDROOT
BRANCH   1  10
HETATM   10  C   UNL     1      -5.955  11.959  14.447  1.00  0.00    -0.009 C 
HETATM   11  C   UNL     1      -6.174  11.746  15.811  1.00  0.00     0.026 C 
HETATM   12  C   UNL     1      -7.442  11.919  16.357  1.00  0.00    -0.025 C 
HETATM   13  C   UNL     1      -8.504  12.261  15.520  1.00  0.00     0.012 C 
HETATM   14  C   UNL     1      -8.317  12.276  14.138  1.00  0.00     0.002 C 
HETATM   15  C   UNL     1      -7.062  12.015  13.599  1.00  0.00     0.014 C 
BRANCH  12  16
HETATM   16  C   UNL     1      -7.605  11.683  17.814  1.00  0.00    -0.014 C 
HETATM   17  C   UNL     1      -7.808  10.374  18.272  1.00  0.00     0.095 C 
HETATM   18  C   UNL     1      -6.935   9.941  19.325  1.00  0.00     0.291 C 
HETATM   19  O   UNL     1      -6.611  10.905  20.261  1.00  0.00    -0.238 OA
HETATM   20  O   UNL     1      -6.543   8.801  19.496  1.00  0.00    -0.260 OA
HETATM   21  C   UNL     1      -6.614  12.270  19.967  1.00  0.00     0.291 C 
HETATM   22  O   UNL     1      -6.516  13.032  20.925  1.00  0.00    -0.260 OA
HETATM   23  C   UNL     1      -7.133  12.671  18.697  1.00  0.00     0.095 C 
ENDBRANCH  12  16
ENDBRANCH   1  10
BRANCH   9  24
HETATM   24  C   UNL     1      -1.047  13.886  11.547  1.00  0.00    -0.015 C 
HETATM   25  C   UNL     1      -1.212  14.124  10.177  1.00  0.00     0.013 C 
HETATM   26  C   UNL     1      -0.650  15.279   9.617  1.00  0.00     0.002 C 
HETATM   27  C   UNL     1       0.112  16.132  10.397  1.00  0.00     0.012 C 
HETATM   28  C   UNL     1       0.563  15.680  11.653  1.00  0.00    -0.025 C 
HETATM   29  C   UNL     1       0.110  14.432  12.156  1.00  0.00    -0.015 C 
HETATM   30  C   UNL     1       1.487  16.457  12.355  1.00  0.00     0.012 C 
HETATM   31  C   UNL     1       0.771  13.746  13.190  1.00  0.00     0.013 C 
HETATM   32  C   UNL     1       2.088  13.867  13.545  1.00  0.00     0.001 C 
HETATM   33  C   UNL     1       3.047  14.788  13.153  1.00  0.00     0.000 C 
HETATM   34  C   UNL     1       2.767  16.046  12.683  1.00  0.00     0.001 C 
ENDBRANCH   9  24
TORSDOF 3
ENDMDL
MODEL 6
REMARK VINA RESULT:      -7.4      2.928     10.040
REMARK  3 active torsions:
REMARK  status: ('A' for Active; 'I' for Inactive)
REMARK    1  A    between atoms: C_4  and  C_13 
REMARK    2  A    between atoms: C_17  and  C_31 
REMARK    3  A    between atoms: C_26  and  C_32 
ROOT
HETATM    1  C   UNL     1      -4.254  12.353  15.430  1.00  0.00     0.045 C 
HETATM    2  C   UNL     1      -1.774  12.061  13.658  1.00  0.00     0.086 C 
HETATM    3  C   UNL     1      -2.070  13.597  15.517  1.00  0.00     0.014 C 
HETATM    4  O   UNL     1      -3.377  11.015  12.349  1.00  0.00    -0.268 OA
HETATM    5  N   UNL     1      -3.992  11.445  14.443  1.00  0.00    -0.323 N 
ATOM      6  HN  UNL     1      -4.565  10.601  14.461  1.00  0.00     0.169 HD
HETATM    7  C   UNL     1      -3.074  11.508  13.439  1.00  0.00     0.246 C 
HETATM    8  C   UNL     1      -3.311  13.210  15.974  1.00  0.00     0.031 C 
HETATM    9  C   UNL     1      -1.378  13.180  14.379  1.00  0.00    -0.020 C 
ENDROOT
BRANCH   1  10
HETATM   10  C   UNL     1      -5.642  12.365  15.901  1.00  0.00    -0.009 C 
HETATM   11  C   UNL     1      -6.677  12.062  15.011  1.00  0.00     0.026 C 
HETATM   12  C   UNL     1      -7.932  11.701  15.487  1.00  0.00    -0.025 C 
HETATM   13  C   UNL     1      -8.164  11.690  16.863  1.00  0.00     0.012 C 
HETATM   14  C   UNL     1      -7.189  12.184  17.730  1.00  0.00     0.002 C 
HETATM   15  C   UNL     1      -5.969  12.624  17.233  1.00  0.00     0.014 C 
BRANCH  12  16
HETATM   16  C   UNL     1      -8.986  11.386  14.488  1.00  0.00    -0.014 C 
HETATM   17  C   UNL     1      -9.995  10.476  14.830  1.00  0.00     0.095 C 
HETATM   18  C   UNL     1     -11.340  10.927  14.609  1.00  0.00     0.291 C 
HETATM   19  O   UNL     1     -11.529  11.699  13.480  1.00  0.00    -0.238 OA
HETATM   20  O   UNL     1     -12.309  10.614  15.276  1.00  0.00    -0.260 OA
HETATM   21  C   UNL     1     -10.508  12.464  12.912  1.00  0.00     0.291 C 
HETATM   22  O   UNL     1     -10.736  12.936  11.802  1.00  0.00    -0.260 OA
HETATM   23  C   UNL     1      -9.188  12.297  13.436  1.00  0.00     0.095 C 
ENDBRANCH  12  16
ENDBRANCH   1  10
BRANCH   9  24
HETATM   24  C   UNL     1      -0.110  13.863  14.066  1.00  0.00    -0.015 C 
HETATM   25  C   UNL     1       0.894  14.055  15.024  1.00  0.00     0.013 C 
HETATM   26  C   UNL     1       2.229  14.110  14.604  1.00  0.00     0.002 C 
HETATM   27  C   UNL     1       2.540  14.043  13.257  1.00  0.00     0.012 C 
HETATM   28  C   UNL     1       1.509  14.225  12.315  1.00  0.00    -0.025 C 
HETATM   29  C   UNL     1       0.162  14.323  12.754  1.00  0.00    -0.015 C 
HETATM   30  C   UNL     1       1.846  14.352  10.966  1.00  0.00     0.012 C 
HETATM   31  C   UNL     1      -0.860  14.861  11.953  1.00  0.00     0.013 C 
HETATM   32  C   UNL     1      -0.712  15.744  10.917  1.00  0.00     0.001 C 
HETATM   33  C   UNL     1       0.428  16.181  10.260  1.00  0.00     0.000 C 
HETATM   34  C   UNL     1       1.605  15.479  10.200  1.00  0.00     0.001 C 
ENDBRANCH   9  24
TORSDOF 3
ENDMDL
MODEL 7
REMARK VINA RESULT:      -7.3      3.005     10.079
REMARK  3 active torsions:
REMARK  status: ('A' for Active; 'I' for Inactive)
REMARK    1  A    between atoms: C_4  and  C_13 
REMARK    2  A    between atoms: C_17  and  C_31 
REMARK    3  A    between atoms: C_26  and  C_32 
ROOT
HETATM    1  C   UNL     1      -4.595  12.557  14.402  1.00  0.00     0.045 C 
HETATM    2  C   UNL     1      -2.191  11.858  12.641  1.00  0.00     0.086 C 
HETATM    3  C   UNL     1      -2.866  14.071  13.383  1.00  0.00     0.014 C 
HETATM    4  O   UNL     1      -3.458   9.926  12.443  1.00  0.00    -0.268 OA
HETATM    5  N   UNL     1      -4.110  11.332  14.039  1.00  0.00    -0.323 N 
ATOM      6  HN  UNL     1      -4.412  10.551  14.621  1.00  0.00     0.169 HD
HETATM    7  C   UNL     1      -3.279  11.009  13.010  1.00  0.00     0.246 C 
HETATM    8  C   UNL     1      -3.927  13.754  14.202  1.00  0.00     0.031 C 
HETATM    9  C   UNL     1      -2.116  13.242  12.547  1.00  0.00    -0.020 C 
ENDROOT
BRANCH   1  10
HETATM   10  C   UNL     1      -5.913  12.529  15.045  1.00  0.00    -0.009 C 
HETATM   11  C   UNL     1      -7.039  12.176  14.298  1.00  0.00     0.026 C 
HETATM   12  C   UNL     1      -8.211  11.780  14.933  1.00  0.00    -0.025 C 
HETATM   13  C   UNL     1      -8.267  11.785  16.327  1.00  0.00     0.012 C 
HETATM   14  C   UNL     1      -7.210  12.327  17.058  1.00  0.00     0.002 C 
HETATM   15  C   UNL     1      -6.078  12.800  16.405  1.00  0.00     0.014 C 
BRANCH  12  16
HETATM   16  C   UNL     1      -9.370  11.411  14.080  1.00  0.00    -0.014 C 
HETATM   17  C   UNL     1     -10.323  10.514  14.580  1.00  0.00     0.095 C 
HETATM   18  C   UNL     1     -11.689  10.946  14.496  1.00  0.00     0.291 C 
HETATM   19  O   UNL     1     -12.016  11.662  13.361  1.00  0.00    -0.238 OA
HETATM   20  O   UNL     1     -12.571  10.661  15.285  1.00  0.00    -0.260 OA
HETATM   21  C   UNL     1     -11.076  12.404  12.642  1.00  0.00     0.291 C 
HETATM   22  O   UNL     1     -11.436  12.820  11.545  1.00  0.00    -0.260 OA
HETATM   23  C   UNL     1      -9.702  12.269  13.016  1.00  0.00     0.095 C 
ENDBRANCH  12  16
ENDBRANCH   1  10
BRANCH   9  24
HETATM   24  C   UNL     1      -1.111  13.881  11.679  1.00  0.00    -0.015 C 
HETATM   25  C   UNL     1      -1.301  14.036  10.301  1.00  0.00     0.013 C 
HETATM   26  C   UNL     1      -0.698  15.122   9.652  1.00  0.00     0.002 C 
HETATM   27  C   UNL     1       0.126  15.984  10.353  1.00  0.00     0.012 C 
HETATM   28  C   UNL     1       0.589  15.592  11.625  1.00  0.00    -0.025 C 
HETATM   29  C   UNL     1       0.088  14.405  12.222  1.00  0.00    -0.015 C 
HETATM   30  C   UNL     1       1.569  16.365  12.251  1.00  0.00     0.012 C 
HETATM   31  C   UNL     1       0.742  13.756  13.283  1.00  0.00     0.013 C 
HETATM   32  C   UNL     1       2.073  13.831  13.597  1.00  0.00     0.001 C 
HETATM   33  C   UNL     1       3.066  14.674  13.121  1.00  0.00     0.000 C 
HETATM   34  C   UNL     1       2.836  15.911  12.575  1.00  0.00     0.001 C 
ENDBRANCH   9  24
TORSDOF 3
ENDMDL
MODEL 8
REMARK VINA RESULT:      -6.7      5.422      9.001
REMARK  3 active torsions:
REMARK  status: ('A' for Active; 'I' for Inactive)
REMARK    1  A    between atoms: C_4  and  C_13 
REMARK    2  A    between atoms: C_17  and  C_31 
REMARK    3  A    between atoms: C_26  and  C_32 
ROOT
HETATM    1  C   UNL     1      -6.117  12.786  17.111  1.00  0.00     0.045 C 
HETATM    2  C   UNL     1      -5.095  12.032  19.896  1.00  0.00     0.086 C 
HETATM    3  C   UNL     1      -7.130  11.249  18.824  1.00  0.00     0.014 C 
HETATM    4  O   UNL     1      -3.859  13.948  19.477  1.00  0.00    -0.268 OA
HETATM    5  N   UNL     1      -4.939  13.110  17.722  1.00  0.00    -0.323 N 
ATOM      6  HN  UNL     1      -4.194  13.421  17.099  1.00  0.00     0.169 HD
HETATM    7  C   UNL     1      -4.621  13.078  19.045  1.00  0.00     0.246 C 
HETATM    8  C   UNL     1      -7.008  11.836  17.584  1.00  0.00     0.031 C 
HETATM    9  C   UNL     1      -6.336  11.412  19.960  1.00  0.00    -0.020 C 
ENDROOT
BRANCH   1  10
HETATM   10  C   UNL     1      -6.393  13.525  15.875  1.00  0.00    -0.009 C 
HETATM   11  C   UNL     1      -7.649  13.421  15.272  1.00  0.00     0.026 C 
HETATM   12  C   UNL     1      -8.066  14.368  14.343  1.00  0.00    -0.025 C 
HETATM   13  C   UNL     1      -7.197  15.399  13.982  1.00  0.00     0.012 C 
HETATM   14  C   UNL     1      -5.879  15.380  14.437  1.00  0.00     0.002 C 
HETATM   15  C   UNL     1      -5.449  14.377  15.298  1.00  0.00     0.014 C 
BRANCH  12  16
HETATM   16  C   UNL     1      -9.415  14.203  13.744  1.00  0.00    -0.014 C 
HETATM   17  C   UNL     1     -10.030  15.307  13.138  1.00  0.00     0.095 C 
HETATM   18  C   UNL     1     -10.520  15.093  11.807  1.00  0.00     0.291 C 
HETATM   19  O   UNL     1     -11.065  13.846  11.569  1.00  0.00    -0.238 OA
HETATM   20  O   UNL     1     -10.569  15.933  10.927  1.00  0.00    -0.260 OA
HETATM   21  C   UNL     1     -10.690  12.711  12.292  1.00  0.00     0.291 C 
HETATM   22  O   UNL     1     -11.389  11.713  12.135  1.00  0.00    -0.260 OA
HETATM   23  C   UNL     1      -9.836  12.900  13.422  1.00  0.00     0.095 C 
ENDBRANCH  12  16
ENDBRANCH   1  10
BRANCH   9  24
HETATM   24  C   UNL     1      -6.779  10.750  21.200  1.00  0.00    -0.015 C 
HETATM   25  C   UNL     1      -7.657  11.361  22.104  1.00  0.00     0.013 C 
HETATM   26  C   UNL     1      -8.508  10.555  22.872  1.00  0.00     0.002 C 
HETATM   27  C   UNL     1      -8.430   9.177  22.785  1.00  0.00     0.012 C 
HETATM   28  C   UNL     1      -7.305   8.601  22.162  1.00  0.00    -0.025 C 
HETATM   29  C   UNL     1      -6.357   9.433  21.510  1.00  0.00    -0.015 C 
HETATM   30  C   UNL     1      -7.127   7.218  22.242  1.00  0.00     0.012 C 
HETATM   31  C   UNL     1      -5.057   9.001  21.197  1.00  0.00     0.013 C 
HETATM   32  C   UNL     1      -4.354   7.999  21.812  1.00  0.00     0.001 C 
HETATM   33  C   UNL     1      -4.762   7.040  22.726  1.00  0.00     0.000 C 
HETATM   34  C   UNL     1      -6.054   6.601  22.862  1.00  0.00     0.001 C 
ENDBRANCH   9  24
TORSDOF 3
ENDMDL
MODEL 9
REMARK VINA RESULT:      -6.5      5.062      7.259
REMARK  3 active torsions:
REMARK  status: ('A' for Active; 'I' for Inactive)
REMARK    1  A    between atoms: C_4  and  C_13 
REMARK    2  A    between atoms: C_17  and  C_31 
REMARK    3  A    between atoms: C_26  and  C_32 
ROOT
HETATM    1  C   UNL     1      -6.306  12.596  17.190  1.00  0.00     0.045 C 
HETATM    2  C   UNL     1      -7.809  10.466  18.794  1.00  0.00     0.086 C 
HETATM    3  C   UNL     1      -6.211  12.083  19.649  1.00  0.00     0.014 C 
HETATM    4  O   UNL     1      -8.065   9.655  16.637  1.00  0.00    -0.268 OA
HETATM    5  N   UNL     1      -7.285  11.733  16.786  1.00  0.00    -0.323 N 
ATOM      6  HN  UNL     1      -7.765  11.988  15.923  1.00  0.00     0.169 HD
HETATM    7  C   UNL     1      -7.709  10.580  17.373  1.00  0.00     0.246 C 
HETATM    8  C   UNL     1      -5.953  12.816  18.511  1.00  0.00     0.031 C 
HETATM    9  C   UNL     1      -6.962  10.917  19.799  1.00  0.00    -0.020 C 
ENDROOT
BRANCH   1  10
HETATM   10  C   UNL     1      -5.627  13.307  16.102  1.00  0.00    -0.009 C 
HETATM   11  C   UNL     1      -4.344  12.911  15.712  1.00  0.00     0.026 C 
HETATM   12  C   UNL     1      -3.833  13.295  14.478  1.00  0.00    -0.025 C 
HETATM   13  C   UNL     1      -4.595  14.120  13.649  1.00  0.00     0.012 C 
HETATM   14  C   UNL     1      -5.784  14.669  14.129  1.00  0.00     0.002 C 
HETATM   15  C   UNL     1      -6.241  14.346  15.401  1.00  0.00     0.014 C 
BRANCH  12  16
HETATM   16  C   UNL     1      -2.465  12.836  14.122  1.00  0.00    -0.014 C 
HETATM   17  C   UNL     1      -2.248  12.259  12.864  1.00  0.00     0.095 C 
HETATM   18  C   UNL     1      -1.167  12.814  12.102  1.00  0.00     0.291 C 
HETATM   19  O   UNL     1      -0.057  13.190  12.835  1.00  0.00    -0.238 OA
HETATM   20  O   UNL     1      -1.124  12.894  10.888  1.00  0.00    -0.260 OA
HETATM   21  C   UNL     1      -0.133  13.556  14.180  1.00  0.00     0.291 C 
HETATM   22  O   UNL     1       0.936  13.665  14.775  1.00  0.00    -0.260 OA
HETATM   23  C   UNL     1      -1.384  13.369  14.847  1.00  0.00     0.095 C 
ENDBRANCH  12  16
ENDBRANCH   1  10
BRANCH   9  24
HETATM   24  C   UNL     1      -6.963  10.273  21.124  1.00  0.00    -0.015 C 
HETATM   25  C   UNL     1      -7.775  10.719  22.174  1.00  0.00     0.013 C 
HETATM   26  C   UNL     1      -8.216   9.794  23.130  1.00  0.00     0.002 C 
HETATM   27  C   UNL     1      -7.797   8.477  23.071  1.00  0.00     0.012 C 
HETATM   28  C   UNL     1      -6.706   8.150  22.242  1.00  0.00    -0.025 C 
HETATM   29  C   UNL     1      -6.157   9.135  21.379  1.00  0.00    -0.015 C 
HETATM   30  C   UNL     1      -6.159   6.868  22.325  1.00  0.00     0.012 C 
HETATM   31  C   UNL     1      -4.877   9.018  20.811  1.00  0.00     0.013 C 
HETATM   32  C   UNL     1      -3.829   8.280  21.293  1.00  0.00     0.001 C 
HETATM   33  C   UNL     1      -3.783   7.331  22.302  1.00  0.00     0.000 C 
HETATM   34  C   UNL     1      -4.861   6.595  22.723  1.00  0.00     0.001 C 
ENDBRANCH   9  24
TORSDOF 3
ENDMDL
