REMARK  8 active torsions:
REMARK  status: ('A' for Active; 'I' for Inactive)
REMARK    1  A    between atoms: O_2  and  C_20 
REMARK    2  A    between atoms: C_4  and  C_8 
REMARK    3  A    between atoms: C_9  and  N_38 
REMARK    4  A    between atoms: C_10  and  O_19 
REMARK    5  A    between atoms: C_15  and  C_18 
REMARK    6  A    between atoms: C_16  and  O_19 
REMARK    7  A    between atoms: C_21  and  C_22 
REMARK    8  A    between atoms: O_29  and  C_36 
ROOT
HETATM    1  N   UNL     1      -8.853  13.170  14.525  1.00  0.00    -0.298 N 
HETATM    2  O   UNL     1      -7.870  10.472  16.315  1.00  0.00    -0.266 OA
HETATM    3  C   UNL     1      -9.184  14.605  14.291  1.00  0.00     0.323 C 
HETATM    4  C   UNL     1      -8.778  15.034  12.845  1.00  0.00     0.236 C 
HETATM    5  C   UNL     1      -8.327  11.258  15.475  1.00  0.00     0.273 C 
HETATM    6  N   UNL     1      -9.442  11.050  14.677  1.00  0.00    -0.309 N 
ATOM      7  HN  UNL     1     -10.016  10.208  14.643  1.00  0.00     0.170 HD
HETATM    8  C   UNL     1      -7.845  12.591  15.243  1.00  0.00     0.106 C 
HETATM    9  C   UNL     1     -10.052  14.847  12.014  1.00  0.00     0.073 C 
HETATM   10  N   UNL     1     -10.665  14.677  14.255  1.00  0.00    -0.044 N 
ATOM     11  HN1 UNL     1     -11.046  15.610  14.415  1.00  0.00     0.280 HD
ATOM     12  HN2 UNL     1     -11.128  14.234  15.049  1.00  0.00     0.280 HD
HETATM   13  C   UNL     1     -11.011  14.090  12.936  1.00  0.00     0.226 C 
HETATM   14  C   UNL     1      -9.620  12.168  13.959  1.00  0.00     0.120 C 
HETATM   15  C   UNL     1     -10.781  12.574  13.057  1.00  0.00     0.216 C 
ENDROOT
BRANCH   8  16
HETATM   16  C   UNL     1      -6.580  13.101  15.601  1.00  0.00     0.036 C 
HETATM   17  C   UNL     1      -5.287  13.118  15.408  1.00  0.00     0.014 C 
BRANCH  17  18
HETATM   18  C   UNL     1      -4.483  12.642  14.294  1.00  0.00    -0.033 C 
HETATM   19  C   UNL     1      -4.889  11.512  13.532  1.00  0.00     0.014 C 
HETATM   20  C   UNL     1      -3.896  10.695  12.950  1.00  0.00     0.040 C 
HETATM   21  C   UNL     1      -2.564  11.107  13.096  1.00  0.00     0.099 C 
HETATM   22  C   UNL     1      -2.366  12.558  13.152  1.00  0.00     0.111 C 
HETATM   23  C   UNL     1      -3.268  13.290  13.960  1.00  0.00     0.051 C 
BRANCH  21  24
HETATM   24  O   UNL     1      -1.564  10.253  13.408  1.00  0.00    -0.358 OA
ATOM     25  HO  UNL     1      -1.692   9.312  13.372  1.00  0.00     0.217 HD
ENDBRANCH  21  24
BRANCH  22  26
HETATM   26  O   UNL     1      -1.524  13.118  12.255  1.00  0.00    -0.291 OA
BRANCH  26  27
HETATM   27  C   UNL     1      -0.521  13.816  11.681  1.00  0.00     0.149 C 
HETATM   28  N   UNL     1      -0.790  14.242  10.394  1.00  0.00    -0.347 N 
HETATM   29  C   UNL     1      -0.110  15.328   9.919  1.00  0.00     0.091 C 
ATOM     30  HN  UNL     1      -1.477  13.759   9.815  1.00  0.00     0.167 HD
HETATM   31  C   UNL     1       1.068  15.739  10.526  1.00  0.00     0.035 C 
HETATM   32  C   UNL     1       1.588  14.955  11.584  1.00  0.00     0.046 C 
HETATM   33  C   UNL     1       0.753  14.038  12.227  1.00  0.00     0.074 C 
BRANCH  32  34
HETATM   34  C   UNL     1       3.025  15.129  12.033  1.00  0.00     0.209 C 
HETATM   35  O   UNL     1       3.885  14.332  11.634  1.00  0.00    -0.644 OA
HETATM   36  O   UNL     1       3.284  16.199  12.659  1.00  0.00    -0.644 OA
ENDBRANCH  32  34
ENDBRANCH  26  27
ENDBRANCH  22  26
ENDBRANCH  17  18
ENDBRANCH   8  16
BRANCH   4  37
HETATM   37  N   UNL     1      -8.455  16.474  12.857  1.00  0.00    -0.071 N 
ATOM     38  HN3 UNL     1      -9.213  17.042  13.236  1.00  0.00     0.274 HD
ATOM     39  HN2 UNL     1      -7.744  16.710  13.549  1.00  0.00     0.274 HD
ATOM     40  HN1 UNL     1      -8.190  16.754  11.913  1.00  0.00     0.274 HD
ENDBRANCH   4  37
BRANCH  15  41
HETATM   41  O   UNL     1     -10.487  12.102  11.739  1.00  0.00    -0.386 OA
ATOM     42  HO  UNL     1     -10.345  11.166  11.814  1.00  0.00     0.210 HD
ENDBRANCH  15  41
TORSDOF 8
