MODEL 1
REMARK VINA RESULT:      -4.3      0.000      0.000
REMARK  3 active torsions:
REMARK  status: ('A' for Active; 'I' for Inactive)
REMARK    1  A    between atoms: C_1  and  C_6 
REMARK       I    between atoms: C_1  and  N_7 
REMARK    2  A    between atoms: C_3  and  C_6 
REMARK    3  A    between atoms: C_5  and  C_10 
ROOT
HETATM    1  C   UNL     1      70.605  45.657  24.675  1.00  0.00     0.130 C 
ENDROOT
BRANCH   1   2
HETATM    2  C   UNL     1      69.903  45.839  23.371  1.00  0.00     0.218 C 
HETATM    3  N   UNL     1      69.710  44.703  22.661  1.00  0.00    -0.370 N 
ATOM      4  HN2 UNL     1      69.804  43.779  23.082  1.00  0.00     0.159 HD
ATOM      5  HN1 UNL     1      69.231  44.827  21.770  1.00  0.00     0.159 HD
HETATM    6  O   UNL     1      69.790  46.943  22.867  1.00  0.00    -0.274 OA
ENDBRANCH   1   2
BRANCH   1   7
HETATM    7  C   UNL     1      70.885  44.232  25.108  1.00  0.00    -0.011 C 
HETATM    8  C   UNL     1      72.247  44.021  25.334  1.00  0.00     0.081 C 
BRANCH   8   9
HETATM    9  C   UNL     1      73.420  43.151  25.586  1.00  0.00     0.198 C 
HETATM   10  O   UNL     1      74.544  43.675  25.373  1.00  0.00    -0.645 OA
HETATM   11  O   UNL     1      73.268  41.996  26.015  1.00  0.00    -0.645 OA
ENDBRANCH   8   9
ENDBRANCH   1   7
TORSDOF 3
ENDMDL
MODEL 2
REMARK VINA RESULT:      -4.3      2.324      3.039
REMARK  3 active torsions:
REMARK  status: ('A' for Active; 'I' for Inactive)
REMARK    1  A    between atoms: C_1  and  C_6 
REMARK       I    between atoms: C_1  and  N_7 
REMARK    2  A    between atoms: C_3  and  C_6 
REMARK    3  A    between atoms: C_5  and  C_10 
ROOT
HETATM    1  C   UNL     1      72.067  43.721  25.740  1.00  0.00     0.130 C 
ENDROOT
BRANCH   1   2
HETATM    2  C   UNL     1      71.403  43.889  24.414  1.00  0.00     0.218 C 
HETATM    3  N   UNL     1      70.271  43.167  24.245  1.00  0.00    -0.370 N 
ATOM      4  HN2 UNL     1      69.776  42.744  25.030  1.00  0.00     0.159 HD
ATOM      5  HN1 UNL     1      69.817  43.282  23.339  1.00  0.00     0.159 HD
HETATM    6  O   UNL     1      71.994  44.395  23.475  1.00  0.00    -0.274 OA
ENDBRANCH   1   2
BRANCH   1   7
HETATM    7  C   UNL     1      73.568  43.517  25.731  1.00  0.00    -0.011 C 
HETATM    8  C   UNL     1      74.034  43.075  26.972  1.00  0.00     0.081 C 
BRANCH   8   9
HETATM    9  C   UNL     1      75.115  42.767  27.938  1.00  0.00     0.198 C 
HETATM   10  O   UNL     1      75.119  41.596  28.399  1.00  0.00    -0.645 OA
HETATM   11  O   UNL     1      75.967  43.623  28.225  1.00  0.00    -0.645 OA
ENDBRANCH   8   9
ENDBRANCH   1   7
TORSDOF 3
ENDMDL
MODEL 3
REMARK VINA RESULT:      -4.2      3.453      3.733
REMARK  3 active torsions:
REMARK  status: ('A' for Active; 'I' for Inactive)
REMARK    1  A    between atoms: C_1  and  C_6 
REMARK       I    between atoms: C_1  and  N_7 
REMARK    2  A    between atoms: C_3  and  C_6 
REMARK    3  A    between atoms: C_5  and  C_10 
ROOT
HETATM    1  C   UNL     1      71.223  43.826  27.187  1.00  0.00     0.130 C 
ENDROOT
BRANCH   1   2
HETATM    2  C   UNL     1      69.978  43.274  26.576  1.00  0.00     0.218 C 
HETATM    3  N   UNL     1      69.350  42.327  27.312  1.00  0.00    -0.370 N 
ATOM      4  HN2 UNL     1      69.560  42.182  28.299  1.00  0.00     0.159 HD
ATOM      5  HN1 UNL     1      68.500  41.950  26.895  1.00  0.00     0.159 HD
HETATM    6  O   UNL     1      69.727  43.447  25.395  1.00  0.00    -0.274 OA
ENDBRANCH   1   2
BRANCH   1   7
HETATM    7  C   UNL     1      71.846  43.024  28.310  1.00  0.00    -0.011 C 
HETATM    8  C   UNL     1      73.017  42.384  27.897  1.00  0.00     0.081 C 
BRANCH   8   9
HETATM    9  C   UNL     1      74.126  41.418  28.084  1.00  0.00     0.198 C 
HETATM   10  O   UNL     1      75.231  41.914  28.422  1.00  0.00    -0.645 OA
HETATM   11  O   UNL     1      73.932  40.199  27.944  1.00  0.00    -0.645 OA
ENDBRANCH   8   9
ENDBRANCH   1   7
TORSDOF 3
ENDMDL
MODEL 4
REMARK VINA RESULT:      -4.1      1.315      1.678
REMARK  3 active torsions:
REMARK  status: ('A' for Active; 'I' for Inactive)
REMARK    1  A    between atoms: C_1  and  C_6 
REMARK       I    between atoms: C_1  and  N_7 
REMARK    2  A    between atoms: C_3  and  C_6 
REMARK    3  A    between atoms: C_5  and  C_10 
ROOT
HETATM    1  C   UNL     1      70.029  44.910  25.258  1.00  0.00     0.130 C 
ENDROOT
BRANCH   1   2
HETATM    2  C   UNL     1      69.817  44.258  23.932  1.00  0.00     0.218 C 
HETATM    3  N   UNL     1      69.338  42.994  23.985  1.00  0.00    -0.370 N 
ATOM      4  HN2 UNL     1      68.920  42.609  24.832  1.00  0.00     0.159 HD
ATOM      5  HN1 UNL     1      69.193  42.549  23.079  1.00  0.00     0.159 HD
HETATM    6  O   UNL     1      70.316  44.719  22.920  1.00  0.00    -0.274 OA
ENDBRANCH   1   2
BRANCH   1   7
HETATM    7  C   UNL     1      70.887  44.162  26.258  1.00  0.00    -0.011 C 
HETATM    8  C   UNL     1      72.127  43.817  25.714  1.00  0.00     0.081 C 
BRANCH   8   9
HETATM    9  C   UNL     1      73.419  43.090  25.738  1.00  0.00     0.198 C 
HETATM   10  O   UNL     1      73.357  41.876  26.063  1.00  0.00    -0.645 OA
HETATM   11  O   UNL     1      74.472  43.665  25.417  1.00  0.00    -0.645 OA
ENDBRANCH   8   9
ENDBRANCH   1   7
TORSDOF 3
ENDMDL
MODEL 5
REMARK VINA RESULT:      -4.1      2.835      3.100
REMARK  3 active torsions:
REMARK  status: ('A' for Active; 'I' for Inactive)
REMARK    1  A    between atoms: C_1  and  C_6 
REMARK       I    between atoms: C_1  and  N_7 
REMARK    2  A    between atoms: C_3  and  C_6 
REMARK    3  A    between atoms: C_5  and  C_10 
ROOT
HETATM    1  C   UNL     1      69.760  44.225  26.979  1.00  0.00     0.130 C 
ENDROOT
BRANCH   1   2
HETATM    2  C   UNL     1      68.714  43.207  26.668  1.00  0.00     0.218 C 
HETATM    3  N   UNL     1      68.518  42.276  27.630  1.00  0.00    -0.370 N 
ATOM      4  HN2 UNL     1      68.865  42.399  28.581  1.00  0.00     0.159 HD
ATOM      5  HN1 UNL     1      67.803  41.580  27.418  1.00  0.00     0.159 HD
HETATM    6  O   UNL     1      68.299  43.060  25.531  1.00  0.00    -0.274 OA
ENDBRANCH   1   2
BRANCH   1   7
HETATM    7  C   UNL     1      70.877  44.388  25.967  1.00  0.00    -0.011 C 
HETATM    8  C   UNL     1      71.839  43.384  26.097  1.00  0.00     0.081 C 
BRANCH   8   9
HETATM    9  C   UNL     1      73.158  42.779  25.797  1.00  0.00     0.198 C 
HETATM   10  O   UNL     1      73.959  43.505  25.153  1.00  0.00    -0.645 OA
HETATM   11  O   UNL     1      73.436  41.638  26.202  1.00  0.00    -0.645 OA
ENDBRANCH   8   9
ENDBRANCH   1   7
TORSDOF 3
ENDMDL
MODEL 6
REMARK VINA RESULT:      -3.9      3.472      5.589
REMARK  3 active torsions:
REMARK  status: ('A' for Active; 'I' for Inactive)
REMARK    1  A    between atoms: C_1  and  C_6 
REMARK       I    between atoms: C_1  and  N_7 
REMARK    2  A    between atoms: C_3  and  C_6 
REMARK    3  A    between atoms: C_5  and  C_10 
ROOT
HETATM    1  C   UNL     1      73.146  41.840  26.971  1.00  0.00     0.130 C 
ENDROOT
BRANCH   1   2
HETATM    2  C   UNL     1      73.809  41.687  28.300  1.00  0.00     0.218 C 
HETATM    3  N   UNL     1      73.028  41.976  29.366  1.00  0.00    -0.370 N 
ATOM      4  HN2 UNL     1      72.013  42.048  29.290  1.00  0.00     0.159 HD
ATOM      5  HN1 UNL     1      73.481  41.871  30.273  1.00  0.00     0.159 HD
HETATM    6  O   UNL     1      75.022  41.601  28.390  1.00  0.00    -0.274 OA
ENDBRANCH   1   2
BRANCH   1   7
HETATM    7  C   UNL     1      73.513  43.068  26.163  1.00  0.00    -0.011 C 
HETATM    8  C   UNL     1      72.459  43.477  25.343  1.00  0.00     0.081 C 
BRANCH   8   9
HETATM    9  C   UNL     1      71.883  44.293  24.247  1.00  0.00     0.198 C 
HETATM   10  O   UNL     1      70.810  43.863  23.751  1.00  0.00    -0.645 OA
HETATM   11  O   UNL     1      72.433  45.348  23.891  1.00  0.00    -0.645 OA
ENDBRANCH   8   9
ENDBRANCH   1   7
TORSDOF 3
ENDMDL
MODEL 7
REMARK VINA RESULT:      -3.8      1.907      5.009
REMARK  3 active torsions:
REMARK  status: ('A' for Active; 'I' for Inactive)
REMARK    1  A    between atoms: C_1  and  C_6 
REMARK       I    between atoms: C_1  and  N_7 
REMARK    2  A    between atoms: C_3  and  C_6 
REMARK    3  A    between atoms: C_5  and  C_10 
ROOT
HETATM    1  C   UNL     1      72.262  44.700  25.517  1.00  0.00     0.130 C 
ENDROOT
BRANCH   1   2
HETATM    2  C   UNL     1      73.060  43.441  25.459  1.00  0.00     0.218 C 
HETATM    3  N   UNL     1      72.469  42.361  26.021  1.00  0.00    -0.370 N 
ATOM      4  HN2 UNL     1      71.473  42.342  26.238  1.00  0.00     0.159 HD
ATOM      5  HN1 UNL     1      73.014  41.501  25.980  1.00  0.00     0.159 HD
HETATM    6  O   UNL     1      74.251  43.464  25.198  1.00  0.00    -0.274 OA
ENDBRANCH   1   2
BRANCH   1   7
HETATM    7  C   UNL     1      71.938  45.366  24.195  1.00  0.00    -0.011 C 
HETATM    8  C   UNL     1      70.600  45.762  24.134  1.00  0.00     0.081 C 
BRANCH   8   9
HETATM    9  C   UNL     1      69.407  46.262  23.409  1.00  0.00     0.198 C 
HETATM   10  O   UNL     1      68.388  45.527  23.462  1.00  0.00    -0.645 OA
HETATM   11  O   UNL     1      69.436  47.359  22.828  1.00  0.00    -0.645 OA
ENDBRANCH   8   9
ENDBRANCH   1   7
TORSDOF 3
ENDMDL
MODEL 8
REMARK VINA RESULT:      -3.7      3.484      3.769
REMARK  3 active torsions:
REMARK  status: ('A' for Active; 'I' for Inactive)
REMARK    1  A    between atoms: C_1  and  C_6 
REMARK       I    between atoms: C_1  and  N_7 
REMARK    2  A    between atoms: C_3  and  C_6 
REMARK    3  A    between atoms: C_5  and  C_10 
ROOT
HETATM    1  C   UNL     1      71.366  43.424  28.596  1.00  0.00     0.130 C 
ENDROOT
BRANCH   1   2
HETATM    2  C   UNL     1      70.165  43.445  27.710  1.00  0.00     0.218 C 
HETATM    3  N   UNL     1      69.783  42.237  27.236  1.00  0.00    -0.370 N 
ATOM      4  HN2 UNL     1      70.122  41.365  27.641  1.00  0.00     0.159 HD
ATOM      5  HN1 UNL     1      68.962  42.251  26.630  1.00  0.00     0.159 HD
HETATM    6  O   UNL     1      69.760  44.488  27.226  1.00  0.00    -0.274 OA
ENDBRANCH   1   2
BRANCH   1   7
HETATM    7  C   UNL     1      72.603  42.737  28.054  1.00  0.00    -0.011 C 
HETATM    8  C   UNL     1      73.278  43.543  27.134  1.00  0.00     0.081 C 
BRANCH   8   9
HETATM    9  C   UNL     1      74.304  43.772  26.089  1.00  0.00     0.198 C 
HETATM   10  O   UNL     1      73.965  43.470  24.915  1.00  0.00    -0.645 OA
HETATM   11  O   UNL     1      75.404  44.266  26.383  1.00  0.00    -0.645 OA
ENDBRANCH   8   9
ENDBRANCH   1   7
TORSDOF 3
ENDMDL
MODEL 9
REMARK VINA RESULT:      -3.6      3.420      4.863
REMARK  3 active torsions:
REMARK  status: ('A' for Active; 'I' for Inactive)
REMARK    1  A    between atoms: C_1  and  C_6 
REMARK       I    between atoms: C_1  and  N_7 
REMARK    2  A    between atoms: C_3  and  C_6 
REMARK    3  A    between atoms: C_5  and  C_10 
ROOT
HETATM    1  C   UNL     1      73.888  42.977  27.225  1.00  0.00     0.130 C 
ENDROOT
BRANCH   1   2
HETATM    2  C   UNL     1      73.097  43.067  25.963  1.00  0.00     0.218 C 
HETATM    3  N   UNL     1      71.883  42.471  26.004  1.00  0.00    -0.370 N 
ATOM      4  HN2 UNL     1      71.440  42.205  26.882  1.00  0.00     0.159 HD
ATOM      5  HN1 UNL     1      71.343  42.534  25.141  1.00  0.00     0.159 HD
HETATM    6  O   UNL     1      73.627  43.385  24.912  1.00  0.00    -0.274 OA
ENDBRANCH   1   2
BRANCH   1   7
HETATM    7  C   UNL     1      74.747  44.173  27.581  1.00  0.00    -0.011 C 
HETATM    8  C   UNL     1      76.076  43.985  27.193  1.00  0.00     0.081 C 
BRANCH   8   9
HETATM    9  C   UNL     1      77.510  44.359  27.185  1.00  0.00     0.198 C 
HETATM   10  O   UNL     1      78.052  44.470  28.315  1.00  0.00    -0.645 OA
HETATM   11  O   UNL     1      78.117  44.509  26.112  1.00  0.00    -0.645 OA
ENDBRANCH   8   9
ENDBRANCH   1   7
TORSDOF 3
ENDMDL
