MODEL 1
REMARK VINA RESULT:      -5.5      0.000      0.000
REMARK  3 active torsions:
REMARK  status: ('A' for Active; 'I' for Inactive)
REMARK    1  A    between atoms: C_1  and  O_4 
REMARK    2  A    between atoms: O_6  and  C_9 
REMARK    3  A    between atoms: C_8  and  O_10 
ROOT
HETATM    1  C   UNL     1      12.634 -49.444  53.791  1.00  0.00     0.155 C 
HETATM    2  C   UNL     1      13.705 -50.226  53.047  1.00  0.00     0.039 C 
HETATM    3  C   UNL     1      11.982 -49.791  51.472  1.00  0.00     0.048 C 
HETATM    4  C   UNL     1      11.387 -49.576  52.877  1.00  0.00     0.110 C 
HETATM    5  C   UNL     1      10.851 -50.971  53.223  1.00  0.00     0.155 C 
HETATM    6  C   UNL     1      12.914 -50.916  51.932  1.00  0.00    -0.006 C 
HETATM    7  C   UNL     1      11.931 -51.886  52.615  1.00  0.00     0.039 C 
ENDROOT
BRANCH   1   8
HETATM    8  O   UNL     1      12.920 -48.123  54.201  1.00  0.00    -0.392 OA
ATOM      9  HO  UNL     1      12.746 -47.877  55.101  1.00  0.00     0.210 HD
ENDBRANCH   1   8
BRANCH   4  10
HETATM   10  O   UNL     1      10.454 -48.525  53.026  1.00  0.00    -0.385 OA
ATOM     11  HO  UNL     1      10.777 -47.793  53.538  1.00  0.00     0.210 HD
ENDBRANCH   4  10
BRANCH   5  12
HETATM   12  O   UNL     1      10.813 -51.158  54.644  1.00  0.00    -0.392 OA
ATOM     13  HO  UNL     1      11.482 -50.633  55.069  1.00  0.00     0.210 HD
ENDBRANCH   5  12
TORSDOF 3
ENDMDL
MODEL 2
REMARK VINA RESULT:      -5.5      1.459      2.501
REMARK  3 active torsions:
REMARK  status: ('A' for Active; 'I' for Inactive)
REMARK    1  A    between atoms: C_1  and  O_4 
REMARK    2  A    between atoms: O_6  and  C_9 
REMARK    3  A    between atoms: C_8  and  O_10 
ROOT
HETATM    1  C   UNL     1      12.066 -51.541  53.273  1.00  0.00     0.155 C 
HETATM    2  C   UNL     1      13.218 -51.074  52.399  1.00  0.00     0.039 C 
HETATM    3  C   UNL     1      12.771 -49.303  53.916  1.00  0.00     0.048 C 
HETATM    4  C   UNL     1      11.540 -50.230  53.914  1.00  0.00     0.110 C 
HETATM    5  C   UNL     1      10.676 -49.624  52.802  1.00  0.00     0.155 C 
HETATM    6  C   UNL     1      13.081 -49.549  52.437  1.00  0.00    -0.006 C 
HETATM    7  C   UNL     1      11.736 -49.204  51.767  1.00  0.00     0.039 C 
ENDROOT
BRANCH   1   8
HETATM    8  O   UNL     1      12.293 -52.589  54.192  1.00  0.00    -0.392 OA
ATOM      9  HO  UNL     1      13.091 -52.579  54.708  1.00  0.00     0.210 HD
ENDBRANCH   1   8
BRANCH   4  10
HETATM   10  O   UNL     1      10.877 -50.420  55.148  1.00  0.00    -0.385 OA
ATOM     11  HO  UNL     1      10.494 -49.628  55.505  1.00  0.00     0.210 HD
ENDBRANCH   4  10
BRANCH   5  12
HETATM   12  O   UNL     1       9.820 -50.622  52.228  1.00  0.00    -0.392 OA
ATOM     13  HO  UNL     1       9.895 -50.622  51.281  1.00  0.00     0.210 HD
ENDBRANCH   5  12
TORSDOF 3
ENDMDL
MODEL 3
REMARK VINA RESULT:      -5.5      1.415      2.959
REMARK  3 active torsions:
REMARK  status: ('A' for Active; 'I' for Inactive)
REMARK    1  A    between atoms: C_1  and  O_4 
REMARK    2  A    between atoms: O_6  and  C_9 
REMARK    3  A    between atoms: C_8  and  O_10 
ROOT
HETATM    1  C   UNL     1      10.818 -50.809  53.088  1.00  0.00     0.155 C 
HETATM    2  C   UNL     1      10.937 -50.146  51.725  1.00  0.00     0.039 C 
HETATM    3  C   UNL     1      12.635 -51.804  51.813  1.00  0.00     0.048 C 
HETATM    4  C   UNL     1      12.176 -51.537  53.259  1.00  0.00     0.110 C 
HETATM    5  C   UNL     1      13.120 -50.411  53.699  1.00  0.00     0.155 C 
HETATM    6  C   UNL     1      12.413 -50.355  51.371  1.00  0.00    -0.006 C 
HETATM    7  C   UNL     1      13.238 -49.573  52.412  1.00  0.00     0.039 C 
ENDROOT
BRANCH   1   8
HETATM    8  O   UNL     1       9.687 -51.612  53.355  1.00  0.00    -0.392 OA
ATOM      9  HO  UNL     1       8.982 -51.634  52.718  1.00  0.00     0.210 HD
ENDBRANCH   1   8
BRANCH   4  10
HETATM   10  O   UNL     1      12.125 -52.648  54.133  1.00  0.00    -0.385 OA
ATOM     11  HO  UNL     1      12.978 -53.007  54.348  1.00  0.00     0.210 HD
ENDBRANCH   4  10
BRANCH   5  12
HETATM   12  O   UNL     1      12.513 -49.619  54.729  1.00  0.00    -0.392 OA
ATOM     13  HO  UNL     1      12.279 -48.760  54.396  1.00  0.00     0.210 HD
ENDBRANCH   5  12
TORSDOF 3
ENDMDL
MODEL 4
REMARK VINA RESULT:      -5.4      1.068      2.694
REMARK  3 active torsions:
REMARK  status: ('A' for Active; 'I' for Inactive)
REMARK    1  A    between atoms: C_1  and  O_4 
REMARK    2  A    between atoms: O_6  and  C_9 
REMARK    3  A    between atoms: C_8  and  O_10 
ROOT
HETATM    1  C   UNL     1      11.045 -49.510  52.762  1.00  0.00     0.155 C 
HETATM    2  C   UNL     1      11.103 -50.431  51.554  1.00  0.00     0.039 C 
HETATM    3  C   UNL     1      12.062 -51.639  53.359  1.00  0.00     0.048 C 
HETATM    4  C   UNL     1      12.051 -50.150  53.755  1.00  0.00     0.110 C 
HETATM    5  C   UNL     1      13.409 -49.662  53.234  1.00  0.00     0.155 C 
HETATM    6  C   UNL     1      12.290 -51.343  51.875  1.00  0.00    -0.006 C 
HETATM    7  C   UNL     1      13.544 -50.448  51.916  1.00  0.00     0.039 C 
ENDROOT
BRANCH   1   8
HETATM    8  O   UNL     1       9.785 -49.205  53.323  1.00  0.00    -0.392 OA
ATOM      9  HO  UNL     1       9.695 -49.204  54.268  1.00  0.00     0.210 HD
ENDBRANCH   1   8
BRANCH   4  10
HETATM   10  O   UNL     1      11.789 -49.846  55.111  1.00  0.00    -0.385 OA
ATOM     11  HO  UNL     1      12.359 -50.297  55.723  1.00  0.00     0.210 HD
ENDBRANCH   4  10
BRANCH   5  12
HETATM   12  O   UNL     1      13.364 -48.258  52.948  1.00  0.00    -0.392 OA
ATOM     13  HO  UNL     1      13.436 -48.105  52.013  1.00  0.00     0.210 HD
ENDBRANCH   5  12
TORSDOF 3
ENDMDL
MODEL 5
REMARK VINA RESULT:      -5.4      1.113      2.350
REMARK  3 active torsions:
REMARK  status: ('A' for Active; 'I' for Inactive)
REMARK    1  A    between atoms: C_1  and  O_4 
REMARK    2  A    between atoms: O_6  and  C_9 
REMARK    3  A    between atoms: C_8  and  O_10 
ROOT
HETATM    1  C   UNL     1      11.197 -50.968  53.392  1.00  0.00     0.155 C 
HETATM    2  C   UNL     1      12.636 -51.451  53.481  1.00  0.00     0.039 C 
HETATM    3  C   UNL     1      12.731 -49.079  53.405  1.00  0.00     0.048 C 
HETATM    4  C   UNL     1      11.335 -49.500  52.908  1.00  0.00     0.110 C 
HETATM    5  C   UNL     1      11.557 -49.653  51.399  1.00  0.00     0.155 C 
HETATM    6  C   UNL     1      13.420 -50.315  52.819  1.00  0.00    -0.006 C 
HETATM    7  C   UNL     1      12.972 -50.261  51.345  1.00  0.00     0.039 C 
ENDROOT
BRANCH   1   8
HETATM    8  O   UNL     1      10.354 -51.136  54.513  1.00  0.00    -0.392 OA
ATOM      9  HO  UNL     1       9.436 -51.332  54.369  1.00  0.00     0.210 HD
ENDBRANCH   1   8
BRANCH   4  10
HETATM   10  O   UNL     1      10.247 -48.673  53.270  1.00  0.00    -0.385 OA
ATOM     11  HO  UNL     1       9.533 -49.138  53.688  1.00  0.00     0.210 HD
ENDBRANCH   4  10
BRANCH   5  12
HETATM   12  O   UNL     1      10.618 -50.584  50.843  1.00  0.00    -0.392 OA
ATOM     13  HO  UNL     1      11.013 -51.444  50.753  1.00  0.00     0.210 HD
ENDBRANCH   5  12
TORSDOF 3
ENDMDL
MODEL 6
REMARK VINA RESULT:      -5.4      1.462      2.823
REMARK  3 active torsions:
REMARK  status: ('A' for Active; 'I' for Inactive)
REMARK    1  A    between atoms: C_1  and  O_4 
REMARK    2  A    between atoms: O_6  and  C_9 
REMARK    3  A    between atoms: C_8  and  O_10 
ROOT
HETATM    1  C   UNL     1      11.396 -50.327  51.276  1.00  0.00     0.155 C 
HETATM    2  C   UNL     1      12.913 -50.287  51.177  1.00  0.00     0.039 C 
HETATM    3  C   UNL     1      12.403 -51.647  53.055  1.00  0.00     0.048 C 
HETATM    4  C   UNL     1      11.139 -50.831  52.721  1.00  0.00     0.110 C 
HETATM    5  C   UNL     1      11.332 -49.567  53.567  1.00  0.00     0.155 C 
HETATM    6  C   UNL     1      13.357 -50.531  52.622  1.00  0.00    -0.006 C 
HETATM    7  C   UNL     1      12.851 -49.337  53.454  1.00  0.00     0.039 C 
ENDROOT
BRANCH   1   8
HETATM    8  O   UNL     1      10.669 -51.016  50.280  1.00  0.00    -0.392 OA
ATOM      9  HO  UNL     1       9.952 -51.579  50.546  1.00  0.00     0.210 HD
ENDBRANCH   1   8
BRANCH   4  10
HETATM   10  O   UNL     1       9.893 -51.477  52.889  1.00  0.00    -0.385 OA
ATOM     11  HO  UNL     1       9.653 -51.619  53.797  1.00  0.00     0.210 HD
ENDBRANCH   4  10
BRANCH   5  12
HETATM   12  O   UNL     1      10.638 -48.457  52.982  1.00  0.00    -0.392 OA
ATOM     13  HO  UNL     1      11.179 -47.677  53.001  1.00  0.00     0.210 HD
ENDBRANCH   5  12
TORSDOF 3
ENDMDL
MODEL 7
REMARK VINA RESULT:      -5.3      2.376      3.054
REMARK  3 active torsions:
REMARK  status: ('A' for Active; 'I' for Inactive)
REMARK    1  A    between atoms: C_1  and  O_4 
REMARK    2  A    between atoms: O_6  and  C_9 
REMARK    3  A    between atoms: C_8  and  O_10 
ROOT
HETATM    1  C   UNL     1      11.867 -49.431  51.264  1.00  0.00     0.155 C 
HETATM    2  C   UNL     1      11.655 -49.703  52.744  1.00  0.00     0.039 C 
HETATM    3  C   UNL     1      13.887 -50.352  52.260  1.00  0.00     0.048 C 
HETATM    4  C   UNL     1      13.133 -50.259  50.920  1.00  0.00     0.110 C 
HETATM    5  C   UNL     1      12.583 -51.681  50.755  1.00  0.00     0.155 C 
HETATM    6  C   UNL     1      12.654 -50.827  53.033  1.00  0.00    -0.006 C 
HETATM    7  C   UNL     1      12.208 -52.047  52.203  1.00  0.00     0.039 C 
ENDROOT
BRANCH   1   8
HETATM    8  O   UNL     1      11.907 -48.091  50.819  1.00  0.00    -0.392 OA
ATOM      9  HO  UNL     1      12.396 -47.456  51.328  1.00  0.00     0.210 HD
ENDBRANCH   1   8
BRANCH   4  10
HETATM   10  O   UNL     1      13.855 -49.766  49.809  1.00  0.00    -0.385 OA
ATOM     11  HO  UNL     1      14.540 -49.149  50.037  1.00  0.00     0.210 HD
ENDBRANCH   4  10
BRANCH   5  12
HETATM   12  O   UNL     1      11.400 -51.672  49.944  1.00  0.00    -0.392 OA
ATOM     13  HO  UNL     1      11.433 -52.366  49.296  1.00  0.00     0.210 HD
ENDBRANCH   5  12
TORSDOF 3
ENDMDL
MODEL 8
REMARK VINA RESULT:      -5.3      2.178      3.243
REMARK  3 active torsions:
REMARK  status: ('A' for Active; 'I' for Inactive)
REMARK    1  A    between atoms: C_1  and  O_4 
REMARK    2  A    between atoms: O_6  and  C_9 
REMARK    3  A    between atoms: C_8  and  O_10 
ROOT
HETATM    1  C   UNL     1      12.378 -51.473  51.157  1.00  0.00     0.155 C 
HETATM    2  C   UNL     1      12.074 -52.324  52.379  1.00  0.00     0.039 C 
HETATM    3  C   UNL     1      11.024 -50.227  52.749  1.00  0.00     0.048 C 
HETATM    4  C   UNL     1      12.067 -50.030  51.632  1.00  0.00     0.110 C 
HETATM    5  C   UNL     1      13.324 -49.647  52.423  1.00  0.00     0.155 C 
HETATM    6  C   UNL     1      11.861 -51.280  53.479  1.00  0.00    -0.006 C 
HETATM    7  C   UNL     1      13.204 -50.547  53.667  1.00  0.00     0.039 C 
ENDROOT
BRANCH   1   8
HETATM    8  O   UNL     1      11.785 -51.822  49.923  1.00  0.00    -0.392 OA
ATOM      9  HO  UNL     1      12.318 -51.798  49.137  1.00  0.00     0.210 HD
ENDBRANCH   1   8
BRANCH   4  10
HETATM   10  O   UNL     1      11.728 -49.142  50.585  1.00  0.00    -0.385 OA
ATOM     11  HO  UNL     1      11.265 -49.554  49.866  1.00  0.00     0.210 HD
ENDBRANCH   4  10
BRANCH   5  12
HETATM   12  O   UNL     1      14.506 -50.002  51.692  1.00  0.00    -0.392 OA
ATOM     13  HO  UNL     1      14.566 -49.499  50.888  1.00  0.00     0.210 HD
ENDBRANCH   5  12
TORSDOF 3
ENDMDL
MODEL 9
REMARK VINA RESULT:      -5.3      1.564      2.460
REMARK  3 active torsions:
REMARK  status: ('A' for Active; 'I' for Inactive)
REMARK    1  A    between atoms: C_1  and  O_4 
REMARK    2  A    between atoms: O_6  and  C_9 
REMARK    3  A    between atoms: C_8  and  O_10 
ROOT
HETATM    1  C   UNL     1      10.895 -49.720  52.705  1.00  0.00     0.155 C 
HETATM    2  C   UNL     1      11.134 -50.781  53.768  1.00  0.00     0.039 C 
HETATM    3  C   UNL     1      13.279 -50.112  52.999  1.00  0.00     0.048 C 
HETATM    4  C   UNL     1      12.249 -49.651  51.950  1.00  0.00     0.110 C 
HETATM    5  C   UNL     1      12.181 -50.857  51.005  1.00  0.00     0.155 C 
HETATM    6  C   UNL     1      12.488 -51.371  53.364  1.00  0.00    -0.006 C 
HETATM    7  C   UNL     1      12.294 -52.038  51.988  1.00  0.00     0.039 C 
ENDROOT
BRANCH   1   8
HETATM    8  O   UNL     1      10.384 -48.465  53.102  1.00  0.00    -0.392 OA
ATOM      9  HO  UNL     1      10.267 -47.791  52.443  1.00  0.00     0.210 HD
ENDBRANCH   1   8
BRANCH   4  10
HETATM   10  O   UNL     1      12.489 -48.410  51.316  1.00  0.00    -0.385 OA
ATOM     11  HO  UNL     1      12.145 -47.662  51.791  1.00  0.00     0.210 HD
ENDBRANCH   4  10
BRANCH   5  12
HETATM   12  O   UNL     1      10.909 -50.908  50.345  1.00  0.00    -0.392 OA
ATOM     13  HO  UNL     1      10.928 -51.535  49.630  1.00  0.00     0.210 HD
ENDBRANCH   5  12
TORSDOF 3
ENDMDL
