REMARK  0 active torsions:
REMARK  status: ('A' for Active; 'I' for Inactive)
ROOT
HETATM    1  C   UNL     1      11.402  14.656 -11.774  1.00  0.00     0.002 C 
HETATM    2  N   UNL     1       8.856  18.108  -6.699  1.00  0.00    -0.374 N 
ATOM      3  HN  UNL     1       7.873  18.000  -6.449  1.00  0.00     0.164 HD
HETATM    4  C   UNL     1       8.149  16.057 -15.706  1.00  0.00     0.017 C 
HETATM    5  C   UNL     1       9.063  15.253 -17.773  1.00  0.00     0.144 C 
HETATM    6  C   UNL     1       9.173  18.990  -7.654  1.00  0.00     0.090 C 
HETATM    7  C   UNL     1      10.280  18.906  -8.458  1.00  0.00     0.047 C 
HETATM    8  C   UNL     1      13.623  16.326 -10.751  1.00  0.00    -0.053 C 
HETATM    9  C   UNL     1       9.830  17.014 -10.793  1.00  0.00     0.049 C 
HETATM   10  N   UNL     1      11.902  17.725  -7.135  1.00  0.00    -0.364 N 
ATOM     11  HN  UNL     1      12.910  17.795  -6.995  1.00  0.00     0.165 HD
HETATM   12  C   UNL     1       8.669  14.916 -15.085  1.00  0.00     0.016 C 
HETATM   13  C   UNL     1      10.127  14.081 -11.846  1.00  0.00     0.030 C 
HETATM   14  C   UNL     1      12.241  14.571 -12.873  1.00  0.00     0.044 C 
HETATM   15  C   UNL     1       8.571  14.697 -13.697  1.00  0.00     0.031 C 
HETATM   16  C   UNL     1      10.613  13.505 -14.091  1.00  0.00     0.118 C 
HETATM   17  C   UNL     1       9.687  14.021 -13.176  1.00  0.00     0.010 C 
HETATM   18  C   UNL     1      11.153  16.575 -10.269  1.00  0.00    -0.042 C 
HETATM   19  C   UNL     1      11.749  15.355 -10.624  1.00  0.00    -0.017 C 
HETATM   20  N   UNL     1      10.203  13.067 -15.309  1.00  0.00    -0.321 N 
ATOM     21  HN  UNL     1      10.465  12.182 -15.743  1.00  0.00     0.169 HD
HETATM   22  C   UNL     1       8.267  16.168 -17.091  1.00  0.00     0.026 C 
HETATM   23  C   UNL     1      11.917  17.431  -9.488  1.00  0.00    -0.020 C 
HETATM   24  C   UNL     1      11.362  18.044  -8.334  1.00  0.00     0.040 C 
HETATM   25  C   UNL     1      13.853  16.307 -12.111  1.00  0.00     0.010 C 
HETATM   26  N   UNL     1      11.938  13.725 -13.889  1.00  0.00    -0.341 N 
ATOM     27  HN  UNL     1      12.657  13.284 -14.463  1.00  0.00     0.167 HD
HETATM   28  C   UNL     1      13.073  15.193 -10.185  1.00  0.00     0.020 C 
HETATM   29  C   UNL     1       9.753  17.365  -6.059  1.00  0.00     0.104 C 
HETATM   30  O   UNL     1       9.314  14.035 -17.204  1.00  0.00    -0.305 OA
HETATM   31  C   UNL     1       9.392  13.999 -15.849  1.00  0.00     0.159 C 
HETATM   32  C   UNL     1      11.092  17.307  -6.106  1.00  0.00     0.105 C 
HETATM   33  C   UNL     1      13.310  17.562  -9.983  1.00  0.00     0.080 C 
HETATM   34  C   UNL     1      13.392  15.343 -12.974  1.00  0.00     0.031 C 
ENDROOT
TORSDOF 0
