MODEL 1
REMARK VINA RESULT:      -9.6      0.000      0.000
REMARK  4 active torsions:
REMARK  status: ('A' for Active; 'I' for Inactive)
REMARK    1  A    between atoms: C_1  and  C_16 
REMARK    2  A    between atoms: C_2  and  C_6 
REMARK    3  A    between atoms: O_3  and  C_13 
REMARK    4  A    between atoms: C_9  and  O_20 
ROOT
HETATM    1  C   UNL     1       9.994 -36.471  48.501  1.00  0.00     0.012 C 
HETATM    2  C   UNL     1       9.991 -36.870  49.831  1.00  0.00     0.013 C 
HETATM    3  C   UNL     1       6.642 -38.908  51.137  1.00  0.00     0.037 C 
HETATM    4  C   UNL     1       7.595 -38.511  52.065  1.00  0.00     0.066 C 
HETATM    5  C   UNL     1       8.759 -37.878  51.641  1.00  0.00     0.048 C 
HETATM    6  C   UNL     1       7.021 -39.048  49.805  1.00  0.00     0.015 C 
HETATM    7  C   UNL     1       9.121 -37.069  47.589  1.00  0.00    -0.035 C 
HETATM    8  C   UNL     1       8.372 -38.170  47.977  1.00  0.00     0.023 C 
HETATM    9  C   UNL     1       9.059 -37.819  50.273  1.00  0.00    -0.023 C 
HETATM   10  C   UNL     1       8.167 -38.400  49.341  1.00  0.00    -0.025 C 
ENDROOT
BRANCH   7  11
HETATM   11  C   UNL     1       9.022 -36.480  46.212  1.00  0.00     0.012 C 
HETATM   12  C   UNL     1       9.799 -35.984  45.371  1.00  0.00     0.012 C 
BRANCH  12  13
HETATM   13  C   UNL     1      10.459 -34.646  45.193  1.00  0.00    -0.036 C 
HETATM   14  C   UNL     1      11.652 -34.579  44.478  1.00  0.00     0.014 C 
HETATM   15  C   UNL     1      12.229 -33.339  44.218  1.00  0.00     0.037 C 
HETATM   16  C   UNL     1      11.454 -32.192  44.433  1.00  0.00     0.065 C 
HETATM   17  C   UNL     1      10.418 -32.246  45.352  1.00  0.00     0.037 C 
HETATM   18  C   UNL     1       9.860 -33.484  45.673  1.00  0.00     0.014 C 
BRANCH  16  19
HETATM   19  O   UNL     1      11.593 -31.136  43.585  1.00  0.00    -0.361 OA
ATOM     20  HO  UNL     1      10.909 -30.908  42.965  1.00  0.00     0.217 HD
ENDBRANCH  16  19
ENDBRANCH  12  13
ENDBRANCH   7  11
BRANCH   4  21
HETATM   21  O   UNL     1       7.336 -38.675  53.395  1.00  0.00    -0.361 OA
ATOM     22  HO  UNL     1       7.931 -38.298  54.031  1.00  0.00     0.217 HD
ENDBRANCH   4  21
TORSDOF 4
ENDMDL
MODEL 2
REMARK VINA RESULT:      -9.5      0.777      8.028
REMARK  4 active torsions:
REMARK  status: ('A' for Active; 'I' for Inactive)
REMARK    1  A    between atoms: C_1  and  C_16 
REMARK    2  A    between atoms: C_2  and  C_6 
REMARK    3  A    between atoms: O_3  and  C_13 
REMARK    4  A    between atoms: C_9  and  O_20 
ROOT
HETATM    1  C   UNL     1       9.055 -35.092  46.817  1.00  0.00     0.012 C 
HETATM    2  C   UNL     1       9.097 -33.820  46.262  1.00  0.00     0.013 C 
HETATM    3  C   UNL     1      12.540 -32.819  44.208  1.00  0.00     0.037 C 
HETATM    4  C   UNL     1      11.591 -31.836  44.455  1.00  0.00     0.066 C 
HETATM    5  C   UNL     1      10.398 -32.163  45.091  1.00  0.00     0.048 C 
HETATM    6  C   UNL     1      12.140 -34.152  44.215  1.00  0.00     0.015 C 
HETATM    7  C   UNL     1       9.931 -36.082  46.366  1.00  0.00    -0.035 C 
HETATM    8  C   UNL     1      10.725 -35.841  45.255  1.00  0.00     0.023 C 
HETATM    9  C   UNL     1      10.070 -33.509  45.303  1.00  0.00    -0.023 C 
HETATM   10  C   UNL     1      10.963 -34.517  44.871  1.00  0.00    -0.025 C 
ENDROOT
BRANCH   7  11
HETATM   11  C   UNL     1       9.982 -37.380  47.119  1.00  0.00     0.012 C 
HETATM   12  C   UNL     1       9.197 -38.079  47.791  1.00  0.00     0.012 C 
BRANCH  12  13
HETATM   13  C   UNL     1       8.668 -38.031  49.196  1.00  0.00    -0.036 C 
HETATM   14  C   UNL     1       7.376 -38.491  49.439  1.00  0.00     0.014 C 
HETATM   15  C   UNL     1       6.901 -38.546  50.746  1.00  0.00     0.037 C 
HETATM   16  C   UNL     1       7.823 -38.409  51.791  1.00  0.00     0.065 C 
HETATM   17  C   UNL     1       9.002 -37.718  51.557  1.00  0.00     0.037 C 
HETATM   18  C   UNL     1       9.471 -37.599  50.248  1.00  0.00     0.014 C 
BRANCH  16  19
HETATM   19  O   UNL     1       7.645 -39.138  52.927  1.00  0.00    -0.361 OA
ATOM     20  HO  UNL     1       7.057 -39.885  52.946  1.00  0.00     0.217 HD
ENDBRANCH  16  19
ENDBRANCH  12  13
ENDBRANCH   7  11
BRANCH   4  21
HETATM   21  O   UNL     1      11.882 -30.539  44.143  1.00  0.00    -0.361 OA
ATOM     22  HO  UNL     1      12.331 -30.351  43.327  1.00  0.00     0.217 HD
ENDBRANCH   4  21
TORSDOF 4
ENDMDL
MODEL 3
REMARK VINA RESULT:      -9.3      2.034      8.394
REMARK  4 active torsions:
REMARK  status: ('A' for Active; 'I' for Inactive)
REMARK    1  A    between atoms: C_1  and  C_16 
REMARK    2  A    between atoms: C_2  and  C_6 
REMARK    3  A    between atoms: O_3  and  C_13 
REMARK    4  A    between atoms: C_9  and  O_20 
ROOT
HETATM    1  C   UNL     1       8.810 -38.364  48.840  1.00  0.00     0.012 C 
HETATM    2  C   UNL     1       8.779 -38.066  47.485  1.00  0.00     0.013 C 
HETATM    3  C   UNL     1       9.663 -34.169  46.433  1.00  0.00     0.037 C 
HETATM    4  C   UNL     1       9.188 -35.039  45.461  1.00  0.00     0.066 C 
HETATM    5  C   UNL     1       8.942 -36.371  45.778  1.00  0.00     0.048 C 
HETATM    6  C   UNL     1      10.268 -34.699  47.568  1.00  0.00     0.015 C 
HETATM    7  C   UNL     1       9.483 -37.520  49.727  1.00  0.00    -0.035 C 
HETATM    8  C   UNL     1      10.255 -36.480  49.232  1.00  0.00     0.023 C 
HETATM    9  C   UNL     1       9.357 -36.878  47.018  1.00  0.00    -0.023 C 
HETATM   10  C   UNL     1      10.017 -36.023  47.931  1.00  0.00    -0.025 C 
ENDROOT
BRANCH   7  11
HETATM   11  C   UNL     1       9.332 -37.773  51.199  1.00  0.00     0.012 C 
HETATM   12  C   UNL     1       8.778 -38.619  51.930  1.00  0.00     0.012 C 
BRANCH  12  13
HETATM   13  C   UNL     1       7.372 -38.858  52.402  1.00  0.00    -0.036 C 
HETATM   14  C   UNL     1       6.349 -38.903  51.458  1.00  0.00     0.014 C 
HETATM   15  C   UNL     1       5.055 -39.220  51.862  1.00  0.00     0.037 C 
HETATM   16  C   UNL     1       4.875 -39.756  53.144  1.00  0.00     0.065 C 
HETATM   17  C   UNL     1       5.810 -39.471  54.126  1.00  0.00     0.037 C 
HETATM   18  C   UNL     1       7.100 -39.096  53.747  1.00  0.00     0.014 C 
BRANCH  16  19
HETATM   19  O   UNL     1       3.923 -40.711  53.331  1.00  0.00    -0.361 OA
ATOM     20  HO  UNL     1       3.129 -40.724  52.808  1.00  0.00     0.217 HD
ENDBRANCH  16  19
ENDBRANCH  12  13
ENDBRANCH   7  11
BRANCH   4  21
HETATM   21  O   UNL     1       8.890 -34.552  44.222  1.00  0.00    -0.361 OA
ATOM     22  HO  UNL     1       9.486 -33.936  43.812  1.00  0.00     0.217 HD
ENDBRANCH   4  21
TORSDOF 4
ENDMDL
MODEL 4
REMARK VINA RESULT:      -9.1      1.608      3.068
REMARK  4 active torsions:
REMARK  status: ('A' for Active; 'I' for Inactive)
REMARK    1  A    between atoms: C_1  and  C_16 
REMARK    2  A    between atoms: C_2  and  C_6 
REMARK    3  A    between atoms: O_3  and  C_13 
REMARK    4  A    between atoms: C_9  and  O_20 
ROOT
HETATM    1  C   UNL     1       7.033 -39.638  48.967  1.00  0.00     0.012 C 
HETATM    2  C   UNL     1       6.230 -39.964  50.051  1.00  0.00     0.013 C 
HETATM    3  C   UNL     1       7.625 -38.858  53.779  1.00  0.00     0.037 C 
HETATM    4  C   UNL     1       6.502 -39.670  53.693  1.00  0.00     0.066 C 
HETATM    5  C   UNL     1       5.979 -40.005  52.448  1.00  0.00     0.048 C 
HETATM    6  C   UNL     1       7.965 -38.066  52.687  1.00  0.00     0.015 C 
HETATM    7  C   UNL     1       8.023 -38.660  49.098  1.00  0.00    -0.035 C 
HETATM    8  C   UNL     1       8.090 -37.904  50.258  1.00  0.00     0.023 C 
HETATM    9  C   UNL     1       6.462 -39.367  51.297  1.00  0.00    -0.023 C 
HETATM   10  C   UNL     1       7.481 -38.393  51.419  1.00  0.00    -0.025 C 
ENDROOT
BRANCH   7  11
HETATM   11  C   UNL     1       8.990 -38.474  47.966  1.00  0.00     0.012 C 
HETATM   12  C   UNL     1       9.745 -37.573  47.546  1.00  0.00     0.012 C 
BRANCH  12  13
HETATM   13  C   UNL     1       9.558 -36.320  46.739  1.00  0.00    -0.036 C 
HETATM   14  C   UNL     1       9.917 -35.100  47.308  1.00  0.00     0.014 C 
HETATM   15  C   UNL     1       9.844 -33.938  46.543  1.00  0.00     0.037 C 
HETATM   16  C   UNL     1       9.687 -34.068  45.158  1.00  0.00     0.065 C 
HETATM   17  C   UNL     1       9.091 -35.213  44.655  1.00  0.00     0.037 C 
HETATM   18  C   UNL     1       9.101 -36.377  45.425  1.00  0.00     0.014 C 
BRANCH  16  19
HETATM   19  O   UNL     1      10.317 -33.181  44.338  1.00  0.00    -0.361 OA
ATOM     20  HO  UNL     1      10.323 -32.250  44.530  1.00  0.00     0.217 HD
ENDBRANCH  16  19
ENDBRANCH  12  13
ENDBRANCH   7  11
BRANCH   4  21
HETATM   21  O   UNL     1       5.975 -40.199  54.835  1.00  0.00    -0.361 OA
ATOM     22  HO  UNL     1       5.031 -40.247  54.929  1.00  0.00     0.217 HD
ENDBRANCH   4  21
TORSDOF 4
ENDMDL
MODEL 5
REMARK VINA RESULT:      -9.1      1.748      3.223
REMARK  4 active torsions:
REMARK  status: ('A' for Active; 'I' for Inactive)
REMARK    1  A    between atoms: C_1  and  C_16 
REMARK    2  A    between atoms: C_2  and  C_6 
REMARK    3  A    between atoms: O_3  and  C_13 
REMARK    4  A    between atoms: C_9  and  O_20 
ROOT
HETATM    1  C   UNL     1       7.754 -39.534  48.407  1.00  0.00     0.012 C 
HETATM    2  C   UNL     1       6.628 -40.190  48.886  1.00  0.00     0.013 C 
HETATM    3  C   UNL     1       5.770 -39.693  52.897  1.00  0.00     0.037 C 
HETATM    4  C   UNL     1       5.046 -40.622  52.162  1.00  0.00     0.066 C 
HETATM    5  C   UNL     1       5.277 -40.763  50.797  1.00  0.00     0.048 C 
HETATM    6  C   UNL     1       6.401 -38.652  52.224  1.00  0.00     0.015 C 
HETATM    7  C   UNL     1       8.306 -38.473  49.130  1.00  0.00    -0.035 C 
HETATM    8  C   UNL     1       7.634 -37.972  50.234  1.00  0.00     0.023 C 
HETATM    9  C   UNL     1       6.091 -39.837  50.131  1.00  0.00    -0.023 C 
HETATM   10  C   UNL     1       6.674 -38.774  50.860  1.00  0.00    -0.025 C 
ENDROOT
BRANCH   7  11
HETATM   11  C   UNL     1       9.626 -37.919  48.678  1.00  0.00     0.012 C 
HETATM   12  C   UNL     1      10.069 -36.824  48.277  1.00  0.00     0.012 C 
BRANCH  12  13
HETATM   13  C   UNL     1      10.044 -36.081  46.971  1.00  0.00    -0.036 C 
HETATM   14  C   UNL     1       9.011 -35.176  46.738  1.00  0.00     0.014 C 
HETATM   15  C   UNL     1       9.021 -34.406  45.578  1.00  0.00     0.037 C 
HETATM   16  C   UNL     1      10.203 -34.358  44.827  1.00  0.00     0.065 C 
HETATM   17  C   UNL     1      11.093 -35.417  44.911  1.00  0.00     0.037 C 
HETATM   18  C   UNL     1      11.066 -36.239  46.039  1.00  0.00     0.014 C 
BRANCH  16  19
HETATM   19  O   UNL     1      10.548 -33.191  44.217  1.00  0.00    -0.361 OA
ATOM     20  HO  UNL     1      11.348 -32.732  44.447  1.00  0.00     0.217 HD
ENDBRANCH  16  19
ENDBRANCH  12  13
ENDBRANCH   7  11
BRANCH   4  21
HETATM   21  O   UNL     1       4.173 -41.446  52.810  1.00  0.00    -0.361 OA
ATOM     22  HO  UNL     1       3.790 -41.159  53.631  1.00  0.00     0.217 HD
ENDBRANCH   4  21
TORSDOF 4
ENDMDL
MODEL 6
REMARK VINA RESULT:      -8.9      2.310      8.572
REMARK  4 active torsions:
REMARK  status: ('A' for Active; 'I' for Inactive)
REMARK    1  A    between atoms: C_1  and  C_16 
REMARK    2  A    between atoms: C_2  and  C_6 
REMARK    3  A    between atoms: O_3  and  C_13 
REMARK    4  A    between atoms: C_9  and  O_20 
ROOT
HETATM    1  C   UNL     1       8.689 -38.406  48.731  1.00  0.00     0.012 C 
HETATM    2  C   UNL     1       8.720 -38.085  47.381  1.00  0.00     0.013 C 
HETATM    3  C   UNL     1       9.659 -34.173  46.438  1.00  0.00     0.037 C 
HETATM    4  C   UNL     1       9.228 -35.026  45.430  1.00  0.00     0.066 C 
HETATM    5  C   UNL     1       8.965 -36.362  45.714  1.00  0.00     0.048 C 
HETATM    6  C   UNL     1      10.210 -34.724  47.591  1.00  0.00     0.015 C 
HETATM    7  C   UNL     1       9.321 -37.579  49.663  1.00  0.00    -0.035 C 
HETATM    8  C   UNL     1      10.117 -36.533  49.222  1.00  0.00     0.023 C 
HETATM    9  C   UNL     1       9.322 -36.891  46.962  1.00  0.00    -0.023 C 
HETATM   10  C   UNL     1       9.940 -36.054  47.920  1.00  0.00    -0.025 C 
ENDROOT
BRANCH   7  11
HETATM   11  C   UNL     1       9.102 -37.857  51.122  1.00  0.00     0.012 C 
HETATM   12  C   UNL     1       9.248 -38.820  51.902  1.00  0.00     0.012 C 
BRANCH  12  13
HETATM   13  C   UNL     1       8.468 -40.065  52.210  1.00  0.00    -0.036 C 
HETATM   14  C   UNL     1       7.162 -39.937  52.678  1.00  0.00     0.014 C 
HETATM   15  C   UNL     1       6.388 -41.077  52.877  1.00  0.00     0.037 C 
HETATM   16  C   UNL     1       6.843 -42.286  52.338  1.00  0.00     0.065 C 
HETATM   17  C   UNL     1       8.201 -42.455  52.120  1.00  0.00     0.037 C 
HETATM   18  C   UNL     1       9.009 -41.326  51.972  1.00  0.00     0.014 C 
BRANCH  16  19
HETATM   19  O   UNL     1       5.932 -43.169  51.839  1.00  0.00    -0.361 OA
ATOM     20  HO  UNL     1       5.574 -43.066  50.965  1.00  0.00     0.217 HD
ENDBRANCH  16  19
ENDBRANCH  12  13
ENDBRANCH   7  11
BRANCH   4  21
HETATM   21  O   UNL     1       8.988 -34.516  44.188  1.00  0.00    -0.361 OA
ATOM     22  HO  UNL     1       9.565 -33.843  43.845  1.00  0.00     0.217 HD
ENDBRANCH   4  21
TORSDOF 4
ENDMDL
MODEL 7
REMARK VINA RESULT:      -8.9      1.514      2.482
REMARK  4 active torsions:
REMARK  status: ('A' for Active; 'I' for Inactive)
REMARK    1  A    between atoms: C_1  and  C_16 
REMARK    2  A    between atoms: C_2  and  C_6 
REMARK    3  A    between atoms: O_3  and  C_13 
REMARK    4  A    between atoms: C_9  and  O_20 
ROOT
HETATM    1  C   UNL     1       9.225 -37.582  50.156  1.00  0.00     0.012 C 
HETATM    2  C   UNL     1       8.898 -37.610  51.504  1.00  0.00     0.013 C 
HETATM    3  C   UNL     1       5.708 -40.007  52.578  1.00  0.00     0.037 C 
HETATM    4  C   UNL     1       6.265 -39.159  53.526  1.00  0.00     0.066 C 
HETATM    5  C   UNL     1       7.377 -38.389  53.204  1.00  0.00     0.048 C 
HETATM    6  C   UNL     1       6.480 -40.388  51.485  1.00  0.00     0.015 C 
HETATM    7  C   UNL     1       8.773 -38.593  49.304  1.00  0.00    -0.035 C 
HETATM    8  C   UNL     1       8.141 -39.706  49.836  1.00  0.00     0.023 C 
HETATM    9  C   UNL     1       8.052 -38.613  51.996  1.00  0.00    -0.023 C 
HETATM   10  C   UNL     1       7.586 -39.618  51.117  1.00  0.00    -0.025 C 
ENDROOT
BRANCH   7  11
HETATM   11  C   UNL     1       8.986 -38.424  47.828  1.00  0.00     0.012 C 
HETATM   12  C   UNL     1       9.653 -37.682  47.078  1.00  0.00     0.012 C 
BRANCH  12  13
HETATM   13  C   UNL     1       9.500 -36.280  46.561  1.00  0.00    -0.036 C 
HETATM   14  C   UNL     1       9.925 -35.223  47.361  1.00  0.00     0.014 C 
HETATM   15  C   UNL     1       9.883 -33.924  46.862  1.00  0.00     0.037 C 
HETATM   16  C   UNL     1       9.685 -33.750  45.486  1.00  0.00     0.065 C 
HETATM   17  C   UNL     1       9.027 -34.740  44.774  1.00  0.00     0.037 C 
HETATM   18  C   UNL     1       9.006 -36.040  45.281  1.00  0.00     0.014 C 
BRANCH  16  19
HETATM   19  O   UNL     1      10.331 -32.733  44.851  1.00  0.00    -0.361 OA
ATOM     20  HO  UNL     1      10.441 -32.733  43.907  1.00  0.00     0.217 HD
ENDBRANCH  16  19
ENDBRANCH  12  13
ENDBRANCH   7  11
BRANCH   4  21
HETATM   21  O   UNL     1       5.657 -39.033  54.742  1.00  0.00    -0.361 OA
ATOM     22  HO  UNL     1       5.121 -39.747  55.066  1.00  0.00     0.217 HD
ENDBRANCH   4  21
TORSDOF 4
ENDMDL
MODEL 8
REMARK VINA RESULT:      -8.9      2.286      3.366
REMARK  4 active torsions:
REMARK  status: ('A' for Active; 'I' for Inactive)
REMARK    1  A    between atoms: C_1  and  C_16 
REMARK    2  A    between atoms: C_2  and  C_6 
REMARK    3  A    between atoms: O_3  and  C_13 
REMARK    4  A    between atoms: C_9  and  O_20 
ROOT
HETATM    1  C   UNL     1       8.021 -37.584  49.866  1.00  0.00     0.012 C 
HETATM    2  C   UNL     1       6.982 -38.488  50.036  1.00  0.00     0.013 C 
HETATM    3  C   UNL     1       6.975 -41.779  47.537  1.00  0.00     0.037 C 
HETATM    4  C   UNL     1       5.876 -41.549  48.354  1.00  0.00     0.066 C 
HETATM    5  C   UNL     1       5.882 -40.483  49.247  1.00  0.00     0.048 C 
HETATM    6  C   UNL     1       8.200 -41.222  47.891  1.00  0.00     0.015 C 
HETATM    7  C   UNL     1       9.180 -37.968  49.188  1.00  0.00    -0.035 C 
HETATM    8  C   UNL     1       9.359 -39.297  48.834  1.00  0.00     0.023 C 
HETATM    9  C   UNL     1       7.066 -39.764  49.463  1.00  0.00    -0.023 C 
HETATM   10  C   UNL     1       8.239 -40.132  48.761  1.00  0.00    -0.025 C 
ENDROOT
BRANCH   7  11
HETATM   11  C   UNL     1      10.194 -36.910  48.860  1.00  0.00     0.012 C 
HETATM   12  C   UNL     1      10.193 -35.763  48.370  1.00  0.00     0.012 C 
BRANCH  12  13
HETATM   13  C   UNL     1      10.112 -35.202  46.978  1.00  0.00    -0.036 C 
HETATM   14  C   UNL     1       9.842 -33.845  46.820  1.00  0.00     0.014 C 
HETATM   15  C   UNL     1       9.859 -33.286  45.545  1.00  0.00     0.037 C 
HETATM   16  C   UNL     1      10.421 -34.034  44.503  1.00  0.00     0.065 C 
HETATM   17  C   UNL     1      10.440 -35.416  44.605  1.00  0.00     0.037 C 
HETATM   18  C   UNL     1      10.367 -36.004  45.868  1.00  0.00     0.014 C 
BRANCH  16  19
HETATM   19  O   UNL     1      11.125 -33.387  43.533  1.00  0.00    -0.361 OA
ATOM     20  HO  UNL     1      11.339 -33.814  42.711  1.00  0.00     0.217 HD
ENDBRANCH  16  19
ENDBRANCH  12  13
ENDBRANCH   7  11
BRANCH   4  21
HETATM   21  O   UNL     1       4.766 -42.329  48.208  1.00  0.00    -0.361 OA
ATOM     22  HO  UNL     1       3.937 -42.024  48.559  1.00  0.00     0.217 HD
ENDBRANCH   4  21
TORSDOF 4
ENDMDL
MODEL 9
REMARK VINA RESULT:      -8.8      2.160      3.506
REMARK  4 active torsions:
REMARK  status: ('A' for Active; 'I' for Inactive)
REMARK    1  A    between atoms: C_1  and  C_16 
REMARK    2  A    between atoms: C_2  and  C_6 
REMARK    3  A    between atoms: O_3  and  C_13 
REMARK    4  A    between atoms: C_9  and  O_20 
ROOT
HETATM    1  C   UNL     1       7.797 -37.925  49.941  1.00  0.00     0.012 C 
HETATM    2  C   UNL     1       6.827 -38.699  50.561  1.00  0.00     0.013 C 
HETATM    3  C   UNL     1       8.054 -42.358  52.038  1.00  0.00     0.037 C 
HETATM    4  C   UNL     1       6.699 -42.054  52.028  1.00  0.00     0.066 C 
HETATM    5  C   UNL     1       6.268 -40.805  51.592  1.00  0.00     0.048 C 
HETATM    6  C   UNL     1       8.974 -41.314  52.014  1.00  0.00     0.015 C 
HETATM    7  C   UNL     1       9.151 -38.187  50.164  1.00  0.00    -0.035 C 
HETATM    8  C   UNL     1       9.520 -39.109  51.131  1.00  0.00     0.023 C 
HETATM    9  C   UNL     1       7.206 -39.791  51.353  1.00  0.00    -0.023 C 
HETATM   10  C   UNL     1       8.581 -40.056  51.553  1.00  0.00    -0.025 C 
ENDROOT
BRANCH   7  11
HETATM   11  C   UNL     1      10.162 -37.455  49.330  1.00  0.00     0.012 C 
HETATM   12  C   UNL     1      10.243 -36.355  48.747  1.00  0.00     0.012 C 
BRANCH  12  13
HETATM   13  C   UNL     1       9.729 -35.800  47.450  1.00  0.00    -0.036 C 
HETATM   14  C   UNL     1       9.843 -34.431  47.217  1.00  0.00     0.014 C 
HETATM   15  C   UNL     1       9.462 -33.910  45.983  1.00  0.00     0.037 C 
HETATM   16  C   UNL     1       9.246 -34.804  44.927  1.00  0.00     0.065 C 
HETATM   17  C   UNL     1       8.888 -36.111  45.217  1.00  0.00     0.037 C 
HETATM   18  C   UNL     1       9.209 -36.640  46.468  1.00  0.00     0.014 C 
BRANCH  16  19
HETATM   19  O   UNL     1       9.606 -34.433  43.667  1.00  0.00    -0.361 OA
ATOM     20  HO  UNL     1      10.309 -33.811  43.518  1.00  0.00     0.217 HD
ENDBRANCH  16  19
ENDBRANCH  12  13
ENDBRANCH   7  11
BRANCH   4  21
HETATM   21  O   UNL     1       5.799 -43.022  52.369  1.00  0.00    -0.361 OA
ATOM     22  HO  UNL     1       4.999 -42.771  52.817  1.00  0.00     0.217 HD
ENDBRANCH   4  21
TORSDOF 4
ENDMDL
