REMARK  0 active torsions:
REMARK  status: ('A' for Active; 'I' for Inactive)
ROOT
HETATM    1  C   UNL     1       7.337 -18.866  77.435  1.00  0.00     0.051 C 
HETATM    2  C   UNL     1       8.488 -18.993  76.651  1.00  0.00     0.004 C 
HETATM    3  C   UNL     1       7.408 -19.180  78.791  1.00  0.00     0.161 C 
HETATM    4  C   UNL     1      10.225 -20.870  80.601  1.00  0.00     0.006 C 
HETATM    5  C   UNL     1      10.786 -20.652  79.217  1.00  0.00     0.035 C 
HETATM    6  O   UNL     1       6.706 -18.597  79.638  1.00  0.00    -0.292 OA
HETATM    7  C   UNL     1       8.380 -20.250  79.187  1.00  0.00     0.044 C 
HETATM    8  C   UNL     1       9.644 -20.144  78.410  1.00  0.00    -0.064 C 
HETATM    9  C   UNL     1       8.872 -20.175  80.634  1.00  0.00     0.022 C 
HETATM   10  C   UNL     1       7.732 -21.616  78.953  1.00  0.00     0.029 C 
HETATM   11  C   UNL     1       9.661 -19.528  77.185  1.00  0.00     0.004 C 
ENDROOT
TORSDOF 0
