MODEL 1
REMARK VINA RESULT:     -12.7      0.000      0.000
REMARK  6 active torsions:
REMARK  status: ('A' for Active; 'I' for Inactive)
REMARK    1  A    between atoms: C_3  and  O_9 
REMARK       I    between atoms: C_7  and  N_26 
REMARK    2  A    between atoms: N_8  and  C_29 
REMARK    3  A    between atoms: C_12  and  C_14 
REMARK    4  A    between atoms: C_12  and  C_32 
REMARK    5  A    between atoms: N_26  and  C_30 
REMARK    6  A    between atoms: N_26  and  C_38 
ROOT
HETATM    1  C   UNL     1       3.833 -48.033  50.879  1.00  0.00    -0.033 A 
HETATM    2  C   UNL     1       6.500 -47.192  50.890  1.00  0.00     0.030 A 
HETATM    3  C   UNL     1       4.273 -47.107  51.827  1.00  0.00     0.041 A 
HETATM    4  C   UNL     1       4.740 -48.570  49.970  1.00  0.00     0.011 A 
HETATM    5  C   UNL     1       5.591 -46.631  51.792  1.00  0.00     0.045 A 
HETATM    6  C   UNL     1       6.070 -48.155  49.983  1.00  0.00     0.003 A 
ENDROOT
BRANCH   5   7
HETATM    7  N   UNL     1       6.013 -45.620  52.709  1.00  0.00    -0.264 N 
HETATM    8  C   UNL     1       6.889 -45.964  53.729  1.00  0.00     0.295 C 
HETATM    9  O   UNL     1       6.483 -46.763  54.605  1.00  0.00    -0.629 OA
HETATM   10  O   UNL     1       8.048 -45.490  53.713  1.00  0.00    -0.629 OA
BRANCH   7  11
HETATM   11  C   UNL     1       5.686 -44.191  52.604  1.00  0.00     0.009 C 
HETATM   12  C   UNL     1       6.002 -43.543  51.257  1.00  0.00     0.055 C 
HETATM   13  C   UNL     1       4.728 -43.268  50.430  1.00  0.00     0.026 C 
HETATM   14  C   UNL     1       4.102 -41.908  50.749  1.00  0.00     0.133 C 
HETATM   15  N   UNL     1       4.209 -41.554  52.179  1.00  0.00    -0.315 N 
HETATM   16  C   UNL     1       3.799 -42.510  53.119  1.00  0.00     0.229 C 
HETATM   17  C   UNL     1       4.841 -43.492  53.660  1.00  0.00     0.156 C 
HETATM   18  O   UNL     1       2.638 -42.604  53.455  1.00  0.00    -0.273 OA
BRANCH  15  19
HETATM   19  C   UNL     1       4.823 -40.352  52.600  1.00  0.00     0.070 C 
HETATM   20  C   UNL     1       5.427 -39.509  51.638  1.00  0.00     0.092 C 
HETATM   21  C   UNL     1       6.666 -38.929  51.930  1.00  0.00     0.039 C 
HETATM   22  C   UNL     1       7.046 -38.812  53.264  1.00  0.00     0.003 C 
HETATM   23  C   UNL     1       6.184 -39.253  54.263  1.00  0.00     0.002 C 
HETATM   24  C   UNL     1       5.052 -39.999  53.928  1.00  0.00     0.033 C 
BRANCH  20  25
HETATM   25  O   UNL     1       4.800 -39.196  50.487  1.00  0.00    -0.358 OA
ATOM     26  HO  UNL     1       5.106 -38.461  49.970  1.00  0.00     0.217 HD
ENDBRANCH  20  25
ENDBRANCH  15  19
ENDBRANCH   7  11
ENDBRANCH   5   7
BRANCH   1  27
HETATM   27  C   UNL     1       2.377 -48.391  50.827  1.00  0.00     0.025 C 
BRANCH  27  28
HETATM   28  C   UNL     1       1.835 -49.786  50.905  1.00  0.00    -0.007 C 
HETATM   29  C   UNL     1       1.824 -50.583  52.069  1.00  0.00     0.014 C 
HETATM   30  C   UNL     1       0.742 -51.449  52.270  1.00  0.00     0.002 C 
HETATM   31  C   UNL     1      -0.311 -51.454  51.334  1.00  0.00     0.009 C 
HETATM   32  C   UNL     1      -0.198 -50.634  50.193  1.00  0.00    -0.028 C 
HETATM   33  C   UNL     1       1.113 -50.296  49.783  1.00  0.00     0.061 C 
HETATM   34  C   UNL     1      -1.388 -49.985  49.521  1.00  0.00     0.060 C 
HETATM   35  N   UNL     1       1.679 -50.618  48.515  1.00  0.00    -0.263 N 
HETATM   36  C   UNL     1       0.928 -50.447  47.293  1.00  0.00     0.110 C 
HETATM   37  C   UNL     1       3.026 -51.100  48.456  1.00  0.00     0.253 C 
HETATM   38  N   UNL     1      -0.348 -49.845  47.329  1.00  0.00    -0.376 N 
HETATM   39  C   UNL     1       1.323 -50.758  45.973  1.00  0.00     0.049 C 
HETATM   40  C   UNL     1      -1.458 -50.470  48.069  1.00  0.00     0.126 C 
ATOM     41  HN  UNL     1      -0.504 -48.965  46.836  1.00  0.00     0.161 HD
HETATM   42  C   UNL     1       2.477 -50.986  45.267  1.00  0.00     0.004 C 
HETATM   43  C   UNL     1       3.661 -51.390  45.929  1.00  0.00     0.006 C 
HETATM   44  C   UNL     1       3.797 -51.184  47.277  1.00  0.00     0.075 C 
HETATM   45  O   UNL     1       3.524 -51.502  49.514  1.00  0.00    -0.268 OA
ENDBRANCH  27  28
ENDBRANCH   1  27
TORSDOF 6
ENDMDL
MODEL 2
REMARK VINA RESULT:     -12.3      2.141      4.075
REMARK  6 active torsions:
REMARK  status: ('A' for Active; 'I' for Inactive)
REMARK    1  A    between atoms: C_3  and  O_9 
REMARK       I    between atoms: C_7  and  N_26 
REMARK    2  A    between atoms: N_8  and  C_29 
REMARK    3  A    between atoms: C_12  and  C_14 
REMARK    4  A    between atoms: C_12  and  C_32 
REMARK    5  A    between atoms: N_26  and  C_30 
REMARK    6  A    between atoms: N_26  and  C_38 
ROOT
HETATM    1  C   UNL     1       4.149 -47.760  50.977  1.00  0.00    -0.033 A 
HETATM    2  C   UNL     1       6.157 -46.724  52.625  1.00  0.00     0.030 A 
HETATM    3  C   UNL     1       4.124 -46.415  51.353  1.00  0.00     0.041 A 
HETATM    4  C   UNL     1       5.153 -48.592  51.465  1.00  0.00     0.011 A 
HETATM    5  C   UNL     1       5.166 -45.876  52.121  1.00  0.00     0.045 A 
HETATM    6  C   UNL     1       6.148 -48.075  52.293  1.00  0.00     0.003 A 
ENDROOT
BRANCH   5   7
HETATM    7  N   UNL     1       5.181 -44.482  52.432  1.00  0.00    -0.264 N 
HETATM    8  C   UNL     1       4.337 -44.008  53.426  1.00  0.00     0.295 C 
HETATM    9  O   UNL     1       3.101 -44.076  53.229  1.00  0.00    -0.629 OA
HETATM   10  O   UNL     1       4.842 -43.564  54.483  1.00  0.00    -0.629 OA
BRANCH   7  11
HETATM   11  C   UNL     1       6.108 -43.497  51.858  1.00  0.00     0.009 C 
HETATM   12  C   UNL     1       7.544 -43.981  51.669  1.00  0.00     0.055 C 
HETATM   13  C   UNL     1       7.878 -44.247  50.185  1.00  0.00     0.026 C 
HETATM   14  C   UNL     1       8.380 -42.996  49.461  1.00  0.00     0.133 C 
HETATM   15  N   UNL     1       7.697 -41.766  49.910  1.00  0.00    -0.315 N 
HETATM   16  C   UNL     1       6.295 -41.776  49.946  1.00  0.00     0.229 C 
HETATM   17  C   UNL     1       5.604 -42.197  51.245  1.00  0.00     0.156 C 
HETATM   18  O   UNL     1       5.638 -41.519  48.960  1.00  0.00    -0.273 OA
BRANCH  15  19
HETATM   19  C   UNL     1       8.419 -40.659  50.412  1.00  0.00     0.070 C 
HETATM   20  C   UNL     1       9.186 -40.810  51.591  1.00  0.00     0.092 C 
HETATM   21  C   UNL     1       9.152 -39.798  52.554  1.00  0.00     0.039 C 
HETATM   22  C   UNL     1       8.765 -38.519  52.160  1.00  0.00     0.003 C 
HETATM   23  C   UNL     1       8.442 -38.282  50.828  1.00  0.00     0.002 C 
HETATM   24  C   UNL     1       8.300 -39.353  49.943  1.00  0.00     0.033 C 
BRANCH  20  25
HETATM   25  O   UNL     1      10.002 -41.869  51.765  1.00  0.00    -0.358 OA
ATOM     26  HO  UNL     1      10.429 -42.000  52.604  1.00  0.00     0.217 HD
ENDBRANCH  20  25
ENDBRANCH  15  19
ENDBRANCH   7  11
ENDBRANCH   5   7
BRANCH   1  27
HETATM   27  C   UNL     1       3.121 -48.268  50.010  1.00  0.00     0.025 C 
BRANCH  27  28
HETATM   28  C   UNL     1       3.114 -49.642  49.411  1.00  0.00    -0.007 C 
HETATM   29  C   UNL     1       3.899 -50.047  48.311  1.00  0.00     0.014 C 
HETATM   30  C   UNL     1       4.389 -51.358  48.291  1.00  0.00     0.002 C 
HETATM   31  C   UNL     1       4.123 -52.201  49.387  1.00  0.00     0.009 C 
HETATM   32  C   UNL     1       3.314 -51.710  50.431  1.00  0.00    -0.028 C 
HETATM   33  C   UNL     1       2.408 -50.677  50.097  1.00  0.00     0.061 C 
HETATM   34  C   UNL     1       3.495 -52.114  51.878  1.00  0.00     0.060 C 
HETATM   35  N   UNL     1       0.991 -50.759  50.231  1.00  0.00    -0.263 N 
HETATM   36  C   UNL     1       0.381 -51.324  51.413  1.00  0.00     0.110 C 
HETATM   37  C   UNL     1       0.162 -50.252  49.181  1.00  0.00     0.253 C 
HETATM   38  N   UNL     1       1.186 -51.700  52.510  1.00  0.00    -0.376 N 
HETATM   39  C   UNL     1      -0.992 -51.518  51.679  1.00  0.00     0.049 C 
HETATM   40  C   UNL     1       2.198 -52.762  52.375  1.00  0.00     0.126 C 
ATOM     41  HN  UNL     1       1.064 -51.231  53.407  1.00  0.00     0.161 HD
HETATM   42  C   UNL     1      -2.207 -51.056  51.238  1.00  0.00     0.004 C 
HETATM   43  C   UNL     1      -2.334 -50.476  49.953  1.00  0.00     0.006 C 
HETATM   44  C   UNL     1      -1.224 -50.010  49.298  1.00  0.00     0.075 C 
HETATM   45  O   UNL     1       0.703 -50.050  48.088  1.00  0.00    -0.268 OA
ENDBRANCH  27  28
ENDBRANCH   1  27
TORSDOF 6
ENDMDL
MODEL 3
REMARK VINA RESULT:     -12.3      1.278      1.812
REMARK  6 active torsions:
REMARK  status: ('A' for Active; 'I' for Inactive)
REMARK    1  A    between atoms: C_3  and  O_9 
REMARK       I    between atoms: C_7  and  N_26 
REMARK    2  A    between atoms: N_8  and  C_29 
REMARK    3  A    between atoms: C_12  and  C_14 
REMARK    4  A    between atoms: C_12  and  C_32 
REMARK    5  A    between atoms: N_26  and  C_30 
REMARK    6  A    between atoms: N_26  and  C_38 
ROOT
HETATM    1  C   UNL     1       5.265 -48.146  48.908  1.00  0.00    -0.033 A 
HETATM    2  C   UNL     1       7.605 -46.840  49.709  1.00  0.00     0.030 A 
HETATM    3  C   UNL     1       5.292 -47.422  50.103  1.00  0.00     0.041 A 
HETATM    4  C   UNL     1       6.423 -48.252  48.143  1.00  0.00     0.011 A 
HETATM    5  C   UNL     1       6.441 -46.709  50.472  1.00  0.00     0.045 A 
HETATM    6  C   UNL     1       7.590 -47.607  48.548  1.00  0.00     0.003 A 
ENDROOT
BRANCH   5   7
HETATM    7  N   UNL     1       6.436 -45.900  51.649  1.00  0.00    -0.264 N 
HETATM    8  C   UNL     1       7.081 -46.368  52.786  1.00  0.00     0.295 C 
HETATM    9  O   UNL     1       6.623 -47.394  53.340  1.00  0.00    -0.629 OA
HETATM   10  O   UNL     1       8.104 -45.767  53.188  1.00  0.00    -0.629 OA
BRANCH   7  11
HETATM   11  C   UNL     1       5.894 -44.538  51.739  1.00  0.00     0.009 C 
HETATM   12  C   UNL     1       5.830 -43.769  50.420  1.00  0.00     0.055 C 
HETATM   13  C   UNL     1       4.387 -43.650  49.885  1.00  0.00     0.026 C 
HETATM   14  C   UNL     1       3.652 -42.428  50.440  1.00  0.00     0.133 C 
HETATM   15  N   UNL     1       3.999 -42.147  51.848  1.00  0.00    -0.315 N 
HETATM   16  C   UNL     1       3.933 -43.210  52.760  1.00  0.00     0.229 C 
HETATM   17  C   UNL     1       5.193 -44.045  52.998  1.00  0.00     0.156 C 
HETATM   18  O   UNL     1       2.891 -43.506  53.305  1.00  0.00    -0.273 OA
BRANCH  15  19
HETATM   19  C   UNL     1       4.509 -40.890  52.248  1.00  0.00     0.070 C 
HETATM   20  C   UNL     1       5.088 -40.038  51.279  1.00  0.00     0.092 C 
HETATM   21  C   UNL     1       6.269 -39.360  51.595  1.00  0.00     0.039 C 
HETATM   22  C   UNL     1       6.587 -39.170  52.938  1.00  0.00     0.003 C 
HETATM   23  C   UNL     1       5.720 -39.640  53.919  1.00  0.00     0.002 C 
HETATM   24  C   UNL     1       4.658 -40.477  53.570  1.00  0.00     0.033 C 
BRANCH  20  25
HETATM   25  O   UNL     1       4.486 -39.811  50.095  1.00  0.00    -0.358 OA
ATOM     26  HO  UNL     1       5.011 -39.576  49.338  1.00  0.00     0.217 HD
ENDBRANCH  20  25
ENDBRANCH  15  19
ENDBRANCH   7  11
ENDBRANCH   5   7
BRANCH   1  27
HETATM   27  C   UNL     1       3.971 -48.751  48.449  1.00  0.00     0.025 C 
BRANCH  27  28
HETATM   28  C   UNL     1       3.473 -50.107  48.845  1.00  0.00    -0.007 C 
HETATM   29  C   UNL     1       4.184 -51.026  49.645  1.00  0.00     0.014 C 
HETATM   30  C   UNL     1       3.460 -51.837  50.528  1.00  0.00     0.002 C 
HETATM   31  C   UNL     1       2.065 -51.669  50.619  1.00  0.00     0.009 C 
HETATM   32  C   UNL     1       1.444 -50.736  49.764  1.00  0.00    -0.028 C 
HETATM   33  C   UNL     1       2.115 -50.442  48.555  1.00  0.00     0.061 C 
HETATM   34  C   UNL     1       0.219 -49.941  50.159  1.00  0.00     0.060 C 
HETATM   35  N   UNL     1       1.579 -50.657  47.251  1.00  0.00    -0.263 N 
HETATM   36  C   UNL     1       0.215 -50.303  46.933  1.00  0.00     0.110 C 
HETATM   37  C   UNL     1       2.420 -51.216  46.237  1.00  0.00     0.253 C 
HETATM   38  N   UNL     1      -0.577 -49.626  47.885  1.00  0.00    -0.376 N 
HETATM   39  C   UNL     1      -0.475 -50.490  45.715  1.00  0.00     0.049 C 
HETATM   40  C   UNL     1      -0.912 -50.256  49.174  1.00  0.00     0.126 C 
ATOM     41  HN  UNL     1      -0.923 -48.689  47.678  1.00  0.00     0.161 HD
HETATM   42  C   UNL     1      -0.193 -50.713  44.391  1.00  0.00     0.004 C 
HETATM   43  C   UNL     1       1.051 -51.265  44.001  1.00  0.00     0.006 C 
HETATM   44  C   UNL     1       2.120 -51.219  44.857  1.00  0.00     0.075 C 
HETATM   45  O   UNL     1       3.462 -51.765  46.613  1.00  0.00    -0.268 OA
ENDBRANCH  27  28
ENDBRANCH   1  27
TORSDOF 6
ENDMDL
MODEL 4
REMARK VINA RESULT:     -12.2      2.654      4.433
REMARK  6 active torsions:
REMARK  status: ('A' for Active; 'I' for Inactive)
REMARK    1  A    between atoms: C_3  and  O_9 
REMARK       I    between atoms: C_7  and  N_26 
REMARK    2  A    between atoms: N_8  and  C_29 
REMARK    3  A    between atoms: C_12  and  C_14 
REMARK    4  A    between atoms: C_12  and  C_32 
REMARK    5  A    between atoms: N_26  and  C_30 
REMARK    6  A    between atoms: N_26  and  C_38 
ROOT
HETATM    1  C   UNL     1       3.995 -47.687  50.516  1.00  0.00    -0.033 A 
HETATM    2  C   UNL     1       6.276 -46.498  51.615  1.00  0.00     0.030 A 
HETATM    3  C   UNL     1       4.771 -46.816  49.749  1.00  0.00     0.041 A 
HETATM    4  C   UNL     1       4.337 -47.923  51.845  1.00  0.00     0.011 A 
HETATM    5  C   UNL     1       5.953 -46.273  50.273  1.00  0.00     0.045 A 
HETATM    6  C   UNL     1       5.469 -47.323  52.392  1.00  0.00     0.003 A 
ENDROOT
BRANCH   5   7
HETATM    7  N   UNL     1       6.789 -45.452  49.457  1.00  0.00    -0.264 N 
HETATM    8  C   UNL     1       7.303 -45.979  48.280  1.00  0.00     0.295 C 
HETATM    9  O   UNL     1       8.114 -46.930  48.369  1.00  0.00    -0.629 OA
HETATM   10  O   UNL     1       6.912 -45.506  47.188  1.00  0.00    -0.629 OA
BRANCH   7  11
HETATM   11  C   UNL     1       7.074 -44.030  49.696  1.00  0.00     0.009 C 
HETATM   12  C   UNL     1       5.858 -43.104  49.669  1.00  0.00     0.055 C 
HETATM   13  C   UNL     1       5.456 -42.631  51.082  1.00  0.00     0.026 C 
HETATM   14  C   UNL     1       6.201 -41.366  51.514  1.00  0.00     0.133 C 
HETATM   15  N   UNL     1       7.600 -41.340  51.039  1.00  0.00    -0.315 N 
HETATM   16  C   UNL     1       8.389 -42.474  51.277  1.00  0.00     0.229 C 
HETATM   17  C   UNL     1       8.431 -43.569  50.209  1.00  0.00     0.156 C 
HETATM   18  O   UNL     1       8.978 -42.621  52.326  1.00  0.00    -0.273 OA
BRANCH  15  19
HETATM   19  C   UNL     1       8.096 -40.272  50.257  1.00  0.00     0.070 C 
HETATM   20  C   UNL     1       9.092 -39.423  50.794  1.00  0.00     0.092 C 
HETATM   21  C   UNL     1       8.987 -38.044  50.590  1.00  0.00     0.039 C 
HETATM   22  C   UNL     1       8.213 -37.587  49.526  1.00  0.00     0.003 C 
HETATM   23  C   UNL     1       7.586 -38.507  48.692  1.00  0.00     0.002 C 
HETATM   24  C   UNL     1       7.554 -39.859  49.042  1.00  0.00     0.033 C 
BRANCH  20  25
HETATM   25  O   UNL     1      10.171 -39.923  51.429  1.00  0.00    -0.358 OA
ATOM     26  HO  UNL     1      11.036 -39.792  51.059  1.00  0.00     0.217 HD
ENDBRANCH  20  25
ENDBRANCH  15  19
ENDBRANCH   7  11
ENDBRANCH   5   7
BRANCH   1  27
HETATM   27  C   UNL     1       2.836 -48.391  49.875  1.00  0.00     0.025 C 
BRANCH  27  28
HETATM   28  C   UNL     1       2.858 -49.810  49.393  1.00  0.00    -0.007 C 
HETATM   29  C   UNL     1       3.648 -50.288  48.326  1.00  0.00     0.014 C 
HETATM   30  C   UNL     1       4.167 -51.585  48.414  1.00  0.00     0.002 C 
HETATM   31  C   UNL     1       3.924 -52.340  49.578  1.00  0.00     0.009 C 
HETATM   32  C   UNL     1       3.107 -51.781  50.581  1.00  0.00    -0.028 C 
HETATM   33  C   UNL     1       2.177 -50.799  50.166  1.00  0.00     0.061 C 
HETATM   34  C   UNL     1       3.302 -52.059  52.055  1.00  0.00     0.060 C 
HETATM   35  N   UNL     1       0.763 -50.901  50.314  1.00  0.00    -0.263 N 
HETATM   36  C   UNL     1       0.169 -51.379  51.542  1.00  0.00     0.110 C 
HETATM   37  C   UNL     1      -0.081 -50.502  49.229  1.00  0.00     0.253 C 
HETATM   38  N   UNL     1       0.986 -51.644  52.662  1.00  0.00    -0.376 N 
HETATM   39  C   UNL     1      -1.198 -51.580  51.831  1.00  0.00     0.049 C 
HETATM   40  C   UNL     1       2.021 -52.691  52.611  1.00  0.00     0.126 C 
ATOM     41  HN  UNL     1       0.857 -51.105  53.518  1.00  0.00     0.161 HD
HETATM   42  C   UNL     1      -2.424 -51.183  51.358  1.00  0.00     0.004 C 
HETATM   43  C   UNL     1      -2.569 -50.715  50.030  1.00  0.00     0.006 C 
HETATM   44  C   UNL     1      -1.472 -50.281  49.333  1.00  0.00     0.075 C 
HETATM   45  O   UNL     1       0.452 -50.380  48.121  1.00  0.00    -0.268 OA
ENDBRANCH  27  28
ENDBRANCH   1  27
TORSDOF 6
ENDMDL
MODEL 5
REMARK VINA RESULT:     -12.0      1.352      3.139
REMARK  6 active torsions:
REMARK  status: ('A' for Active; 'I' for Inactive)
REMARK    1  A    between atoms: C_3  and  O_9 
REMARK       I    between atoms: C_7  and  N_26 
REMARK    2  A    between atoms: N_8  and  C_29 
REMARK    3  A    between atoms: C_12  and  C_14 
REMARK    4  A    between atoms: C_12  and  C_32 
REMARK    5  A    between atoms: N_26  and  C_30 
REMARK    6  A    between atoms: N_26  and  C_38 
ROOT
HETATM    1  C   UNL     1       4.724 -48.101  49.630  1.00  0.00    -0.033 A 
HETATM    2  C   UNL     1       7.114 -46.791  50.255  1.00  0.00     0.030 A 
HETATM    3  C   UNL     1       4.798 -47.273  50.752  1.00  0.00     0.041 A 
HETATM    4  C   UNL     1       5.859 -48.307  48.851  1.00  0.00     0.011 A 
HETATM    5  C   UNL     1       5.973 -46.561  51.029  1.00  0.00     0.045 A 
HETATM    6  C   UNL     1       7.051 -47.659  49.169  1.00  0.00     0.003 A 
ENDROOT
BRANCH   5   7
HETATM    7  N   UNL     1       6.017 -45.650  52.129  1.00  0.00    -0.264 N 
HETATM    8  C   UNL     1       6.543 -46.083  53.338  1.00  0.00     0.295 C 
HETATM    9  O   UNL     1       5.931 -46.988  53.952  1.00  0.00    -0.629 OA
HETATM   10  O   UNL     1       7.615 -45.578  53.744  1.00  0.00    -0.629 OA
BRANCH   7  11
HETATM   11  C   UNL     1       5.651 -44.228  52.066  1.00  0.00     0.009 C 
HETATM   12  C   UNL     1       5.776 -43.579  50.688  1.00  0.00     0.055 C 
HETATM   13  C   UNL     1       4.400 -43.332  50.034  1.00  0.00     0.026 C 
HETATM   14  C   UNL     1       3.793 -41.984  50.430  1.00  0.00     0.133 C 
HETATM   15  N   UNL     1       4.078 -41.622  51.834  1.00  0.00    -0.315 N 
HETATM   16  C   UNL     1       3.814 -42.582  52.820  1.00  0.00     0.229 C 
HETATM   17  C   UNL     1       4.937 -43.542  53.222  1.00  0.00     0.156 C 
HETATM   18  O   UNL     1       2.709 -42.698  53.305  1.00  0.00    -0.273 OA
BRANCH  15  19
HETATM   19  C   UNL     1       4.718 -40.407  52.169  1.00  0.00     0.070 C 
HETATM   20  C   UNL     1       5.462 -39.719  51.182  1.00  0.00     0.092 C 
HETATM   21  C   UNL     1       6.698 -39.166  51.530  1.00  0.00     0.039 C 
HETATM   22  C   UNL     1       6.952 -38.900  52.873  1.00  0.00     0.003 C 
HETATM   23  C   UNL     1       5.972 -39.173  53.822  1.00  0.00     0.002 C 
HETATM   24  C   UNL     1       4.836 -39.902  53.462  1.00  0.00     0.033 C 
BRANCH  20  25
HETATM   25  O   UNL     1       4.970 -39.525  49.943  1.00  0.00    -0.358 OA
ATOM     26  HO  UNL     1       4.531 -38.708  49.734  1.00  0.00     0.217 HD
ENDBRANCH  20  25
ENDBRANCH  15  19
ENDBRANCH   7  11
ENDBRANCH   5   7
BRANCH   1  27
HETATM   27  C   UNL     1       3.405 -48.711  49.257  1.00  0.00     0.025 C 
BRANCH  27  28
HETATM   28  C   UNL     1       3.205 -50.142  48.862  1.00  0.00    -0.007 C 
HETATM   29  C   UNL     1       3.886 -50.792  47.811  1.00  0.00     0.014 C 
HETATM   30  C   UNL     1       4.212 -52.145  47.967  1.00  0.00     0.002 C 
HETATM   31  C   UNL     1       3.893 -52.787  49.180  1.00  0.00     0.009 C 
HETATM   32  C   UNL     1       3.196 -52.057  50.162  1.00  0.00    -0.028 C 
HETATM   33  C   UNL     1       2.408 -50.974  49.707  1.00  0.00     0.061 C 
HETATM   34  C   UNL     1       3.389 -52.276  51.647  1.00  0.00     0.060 C 
HETATM   35  N   UNL     1       0.999 -50.857  49.888  1.00  0.00    -0.263 N 
HETATM   36  C   UNL     1       0.377 -51.170  51.153  1.00  0.00     0.110 C 
HETATM   37  C   UNL     1       0.193 -50.400  48.797  1.00  0.00     0.253 C 
HETATM   38  N   UNL     1       1.177 -51.489  52.272  1.00  0.00    -0.376 N 
HETATM   39  C   UNL     1      -0.997 -51.150  51.480  1.00  0.00     0.049 C 
HETATM   40  C   UNL     1       2.046 -52.678  52.265  1.00  0.00     0.126 C 
ATOM     41  HN  UNL     1       1.153 -50.888  53.096  1.00  0.00     0.161 HD
HETATM   42  C   UNL     1      -2.164 -50.603  51.008  1.00  0.00     0.004 C 
HETATM   43  C   UNL     1      -2.276 -50.196  49.657  1.00  0.00     0.006 C 
HETATM   44  C   UNL     1      -1.147 -49.970  48.914  1.00  0.00     0.075 C 
HETATM   45  O   UNL     1       0.707 -50.422  47.673  1.00  0.00    -0.268 OA
ENDBRANCH  27  28
ENDBRANCH   1  27
TORSDOF 6
ENDMDL
MODEL 6
REMARK VINA RESULT:     -11.9      1.545      1.838
REMARK  6 active torsions:
REMARK  status: ('A' for Active; 'I' for Inactive)
REMARK    1  A    between atoms: C_3  and  O_9 
REMARK       I    between atoms: C_7  and  N_26 
REMARK    2  A    between atoms: N_8  and  C_29 
REMARK    3  A    between atoms: C_12  and  C_14 
REMARK    4  A    between atoms: C_12  and  C_32 
REMARK    5  A    between atoms: N_26  and  C_30 
REMARK    6  A    between atoms: N_26  and  C_38 
ROOT
HETATM    1  C   UNL     1       4.475 -48.038  50.527  1.00  0.00    -0.033 A 
HETATM    2  C   UNL     1       7.190 -47.376  50.408  1.00  0.00     0.030 A 
HETATM    3  C   UNL     1       4.988 -47.028  51.344  1.00  0.00     0.041 A 
HETATM    4  C   UNL     1       5.332 -48.745  49.688  1.00  0.00     0.011 A 
HETATM    5  C   UNL     1       6.333 -46.647  51.237  1.00  0.00     0.045 A 
HETATM    6  C   UNL     1       6.686 -48.418  49.636  1.00  0.00     0.003 A 
ENDROOT
BRANCH   5   7
HETATM    7  N   UNL     1       6.833 -45.556  52.013  1.00  0.00    -0.264 N 
HETATM    8  C   UNL     1       7.362 -45.815  53.270  1.00  0.00     0.295 C 
HETATM    9  O   UNL     1       6.586 -46.249  54.154  1.00  0.00    -0.629 OA
HETATM   10  O   UNL     1       8.587 -45.634  53.456  1.00  0.00    -0.629 OA
BRANCH   7  11
HETATM   11  C   UNL     1       6.944 -44.167  51.548  1.00  0.00     0.009 C 
HETATM   12  C   UNL     1       8.014 -43.913  50.487  1.00  0.00     0.055 C 
HETATM   13  C   UNL     1       7.404 -43.688  49.087  1.00  0.00     0.026 C 
HETATM   14  C   UNL     1       7.041 -42.223  48.832  1.00  0.00     0.133 C 
HETATM   15  N   UNL     1       6.523 -41.547  50.039  1.00  0.00    -0.315 N 
HETATM   16  C   UNL     1       5.499 -42.184  50.753  1.00  0.00     0.229 C 
HETATM   17  C   UNL     1       5.885 -43.128  51.894  1.00  0.00     0.156 C 
HETATM   18  O   UNL     1       4.335 -42.044  50.443  1.00  0.00    -0.273 OA
BRANCH  15  19
HETATM   19  C   UNL     1       7.121 -40.367  50.540  1.00  0.00     0.070 C 
HETATM   20  C   UNL     1       6.497 -39.120  50.304  1.00  0.00     0.092 C 
HETATM   21  C   UNL     1       7.289 -38.026  49.940  1.00  0.00     0.039 C 
HETATM   22  C   UNL     1       8.645 -38.054  50.257  1.00  0.00     0.003 C 
HETATM   23  C   UNL     1       9.167 -39.150  50.936  1.00  0.00     0.002 C 
HETATM   24  C   UNL     1       8.392 -40.299  51.106  1.00  0.00     0.033 C 
BRANCH  20  25
HETATM   25  O   UNL     1       5.174 -38.950  50.495  1.00  0.00    -0.358 OA
ATOM     26  HO  UNL     1       4.566 -39.180  49.802  1.00  0.00     0.217 HD
ENDBRANCH  20  25
ENDBRANCH  15  19
ENDBRANCH   7  11
ENDBRANCH   5   7
BRANCH   1  27
HETATM   27  C   UNL     1       2.999 -48.305  50.534  1.00  0.00     0.025 C 
BRANCH  27  28
HETATM   28  C   UNL     1       2.375 -49.658  50.692  1.00  0.00    -0.007 C 
HETATM   29  C   UNL     1       2.317 -50.384  51.900  1.00  0.00     0.014 C 
HETATM   30  C   UNL     1       1.186 -51.170  52.149  1.00  0.00     0.002 C 
HETATM   31  C   UNL     1       0.133 -51.166  51.213  1.00  0.00     0.009 C 
HETATM   32  C   UNL     1       0.293 -50.422  50.027  1.00  0.00    -0.028 C 
HETATM   33  C   UNL     1       1.621 -50.189  49.600  1.00  0.00     0.061 C 
HETATM   34  C   UNL     1      -0.857 -49.744  49.316  1.00  0.00     0.060 C 
HETATM   35  N   UNL     1       2.165 -50.617  48.354  1.00  0.00    -0.263 N 
HETATM   36  C   UNL     1       1.424 -50.473  47.123  1.00  0.00     0.110 C 
HETATM   37  C   UNL     1       3.480 -51.182  48.326  1.00  0.00     0.253 C 
HETATM   38  N   UNL     1       0.186 -49.794  47.121  1.00  0.00    -0.376 N 
HETATM   39  C   UNL     1       1.797 -50.883  45.824  1.00  0.00     0.049 C 
HETATM   40  C   UNL     1      -0.958 -50.308  47.894  1.00  0.00     0.126 C 
ATOM     41  HN  UNL     1       0.082 -48.937  46.578  1.00  0.00     0.161 HD
HETATM   42  C   UNL     1       2.934 -51.221  45.134  1.00  0.00     0.004 C 
HETATM   43  C   UNL     1       4.093 -51.656  45.821  1.00  0.00     0.006 C 
HETATM   44  C   UNL     1       4.243 -51.380  47.155  1.00  0.00     0.075 C 
HETATM   45  O   UNL     1       3.955 -51.550  49.406  1.00  0.00    -0.268 OA
ENDBRANCH  27  28
ENDBRANCH   1  27
TORSDOF 6
ENDMDL
MODEL 7
REMARK VINA RESULT:     -11.9      2.392     10.531
REMARK  6 active torsions:
REMARK  status: ('A' for Active; 'I' for Inactive)
REMARK    1  A    between atoms: C_3  and  O_9 
REMARK       I    between atoms: C_7  and  N_26 
REMARK    2  A    between atoms: N_8  and  C_29 
REMARK    3  A    between atoms: C_12  and  C_14 
REMARK    4  A    between atoms: C_12  and  C_32 
REMARK    5  A    between atoms: N_26  and  C_30 
REMARK    6  A    between atoms: N_26  and  C_38 
ROOT
HETATM    1  C   UNL     1       7.104 -43.778  50.479  1.00  0.00    -0.033 A 
HETATM    2  C   UNL     1       7.076 -45.787  48.533  1.00  0.00     0.030 A 
HETATM    3  C   UNL     1       6.753 -45.085  50.824  1.00  0.00     0.041 A 
HETATM    4  C   UNL     1       7.393 -43.472  49.152  1.00  0.00     0.011 A 
HETATM    5  C   UNL     1       6.806 -46.108  49.867  1.00  0.00     0.045 A 
HETATM    6  C   UNL     1       7.371 -44.473  48.183  1.00  0.00     0.003 A 
ENDROOT
BRANCH   5   7
HETATM    7  N   UNL     1       6.530 -47.458  50.244  1.00  0.00    -0.264 N 
HETATM    8  C   UNL     1       7.468 -48.148  50.999  1.00  0.00     0.295 C 
HETATM    9  O   UNL     1       8.579 -48.392  50.472  1.00  0.00    -0.629 OA
HETATM   10  O   UNL     1       7.178 -48.467  52.174  1.00  0.00    -0.629 OA
BRANCH   7  11
HETATM   11  C   UNL     1       5.267 -48.166  49.994  1.00  0.00     0.009 C 
HETATM   12  C   UNL     1       5.063 -48.660  48.563  1.00  0.00     0.055 C 
HETATM   13  C   UNL     1       5.233 -50.190  48.445  1.00  0.00     0.026 C 
HETATM   14  C   UNL     1       3.932 -50.949  48.715  1.00  0.00     0.133 C 
HETATM   15  N   UNL     1       3.118 -50.323  49.777  1.00  0.00    -0.315 N 
HETATM   16  C   UNL     1       3.755 -50.006  50.984  1.00  0.00     0.229 C 
HETATM   17  C   UNL     1       4.369 -48.612  51.140  1.00  0.00     0.156 C 
HETATM   18  O   UNL     1       3.875 -50.828  51.867  1.00  0.00    -0.273 OA
BRANCH  15  19
HETATM   19  C   UNL     1       1.779 -49.931  49.548  1.00  0.00     0.070 C 
HETATM   20  C   UNL     1       0.782 -50.285  50.488  1.00  0.00     0.092 C 
HETATM   21  C   UNL     1      -0.453 -50.746  50.022  1.00  0.00     0.039 C 
HETATM   22  C   UNL     1      -0.836 -50.422  48.723  1.00  0.00     0.003 C 
HETATM   23  C   UNL     1       0.005 -49.642  47.936  1.00  0.00     0.002 C 
HETATM   24  C   UNL     1       1.306 -49.369  48.364  1.00  0.00     0.033 C 
BRANCH  20  25
HETATM   25  O   UNL     1       0.975 -50.116  51.811  1.00  0.00    -0.358 OA
ATOM     26  HO  UNL     1       0.442 -49.490  52.287  1.00  0.00     0.217 HD
ENDBRANCH  20  25
ENDBRANCH  15  19
ENDBRANCH   7  11
ENDBRANCH   5   7
BRANCH   1  27
HETATM   27  C   UNL     1       7.212 -42.741  51.557  1.00  0.00     0.025 C 
BRANCH  27  28
HETATM   28  C   UNL     1       6.207 -41.657  51.805  1.00  0.00    -0.007 C 
HETATM   29  C   UNL     1       4.834 -41.870  52.050  1.00  0.00     0.014 C 
HETATM   30  C   UNL     1       4.178 -41.013  52.941  1.00  0.00     0.002 C 
HETATM   31  C   UNL     1       4.920 -40.009  53.594  1.00  0.00     0.009 C 
HETATM   32  C   UNL     1       6.284 -39.865  53.269  1.00  0.00    -0.028 C 
HETATM   33  C   UNL     1       6.681 -40.323  51.991  1.00  0.00     0.061 C 
HETATM   34  C   UNL     1       7.328 -39.414  54.266  1.00  0.00     0.060 C 
HETATM   35  N   UNL     1       7.268 -39.508  50.979  1.00  0.00    -0.263 N 
HETATM   36  C   UNL     1       8.305 -38.552  51.293  1.00  0.00     0.110 C 
HETATM   37  C   UNL     1       6.832 -39.659  49.624  1.00  0.00     0.253 C 
HETATM   38  N   UNL     1       8.836 -38.493  52.599  1.00  0.00    -0.376 N 
HETATM   39  C   UNL     1       8.951 -37.646  50.423  1.00  0.00     0.049 C 
HETATM   40  C   UNL     1       7.985 -38.131  53.746  1.00  0.00     0.126 C 
ATOM     41  HN  UNL     1       9.823 -38.703  52.751  1.00  0.00     0.161 HD
HETATM   42  C   UNL     1       9.161 -37.477  49.077  1.00  0.00     0.004 C 
HETATM   43  C   UNL     1       8.301 -38.082  48.130  1.00  0.00     0.006 C 
HETATM   44  C   UNL     1       7.508 -39.137  48.500  1.00  0.00     0.075 C 
HETATM   45  O   UNL     1       5.767 -40.259  49.442  1.00  0.00    -0.268 OA
ENDBRANCH  27  28
ENDBRANCH   1  27
TORSDOF 6
ENDMDL
MODEL 8
REMARK VINA RESULT:     -11.9      2.062      2.813
REMARK  6 active torsions:
REMARK  status: ('A' for Active; 'I' for Inactive)
REMARK    1  A    between atoms: C_3  and  O_9 
REMARK       I    between atoms: C_7  and  N_26 
REMARK    2  A    between atoms: N_8  and  C_29 
REMARK    3  A    between atoms: C_12  and  C_14 
REMARK    4  A    between atoms: C_12  and  C_32 
REMARK    5  A    between atoms: N_26  and  C_30 
REMARK    6  A    between atoms: N_26  and  C_38 
ROOT
HETATM    1  C   UNL     1       4.379 -48.029  51.059  1.00  0.00    -0.033 A 
HETATM    2  C   UNL     1       6.803 -46.739  50.525  1.00  0.00     0.030 A 
HETATM    3  C   UNL     1       4.385 -46.726  50.556  1.00  0.00     0.041 A 
HETATM    4  C   UNL     1       5.586 -48.664  51.337  1.00  0.00     0.011 A 
HETATM    5  C   UNL     1       5.595 -46.102  50.222  1.00  0.00     0.045 A 
HETATM    6  C   UNL     1       6.792 -48.016  51.077  1.00  0.00     0.003 A 
ENDROOT
BRANCH   5   7
HETATM    7  N   UNL     1       5.593 -44.803  49.628  1.00  0.00    -0.264 N 
HETATM    8  C   UNL     1       5.265 -44.681  48.285  1.00  0.00     0.295 C 
HETATM    9  O   UNL     1       6.036 -45.199  47.444  1.00  0.00    -0.629 OA
HETATM   10  O   UNL     1       4.205 -44.090  47.975  1.00  0.00    -0.629 OA
BRANCH   7  11
HETATM   11  C   UNL     1       5.802 -43.541  50.350  1.00  0.00     0.009 C 
HETATM   12  C   UNL     1       6.461 -42.424  49.542  1.00  0.00     0.055 C 
HETATM   13  C   UNL     1       5.456 -41.321  49.148  1.00  0.00     0.026 C 
HETATM   14  C   UNL     1       5.320 -40.237  50.221  1.00  0.00     0.133 C 
HETATM   15  N   UNL     1       5.401 -40.781  51.592  1.00  0.00    -0.315 N 
HETATM   16  C   UNL     1       4.588 -41.880  51.905  1.00  0.00     0.229 C 
HETATM   17  C   UNL     1       5.157 -43.287  51.706  1.00  0.00     0.156 C 
HETATM   18  O   UNL     1       3.441 -41.730  52.267  1.00  0.00    -0.273 OA
BRANCH  15  19
HETATM   19  C   UNL     1       6.354 -40.306  52.522  1.00  0.00     0.070 C 
HETATM   20  C   UNL     1       5.959 -39.363  53.499  1.00  0.00     0.092 C 
HETATM   21  C   UNL     1       6.805 -38.286  53.781  1.00  0.00     0.039 C 
HETATM   22  C   UNL     1       8.156 -38.403  53.463  1.00  0.00     0.003 C 
HETATM   23  C   UNL     1       8.626 -39.582  52.895  1.00  0.00     0.002 C 
HETATM   24  C   UNL     1       7.724 -40.552  52.452  1.00  0.00     0.033 C 
BRANCH  20  25
HETATM   25  O   UNL     1       4.826 -39.525  54.211  1.00  0.00    -0.358 OA
ATOM     26  HO  UNL     1       4.597 -38.890  54.880  1.00  0.00     0.217 HD
ENDBRANCH  20  25
ENDBRANCH  15  19
ENDBRANCH   7  11
ENDBRANCH   5   7
BRANCH   1  27
HETATM   27  C   UNL     1       3.069 -48.737  51.240  1.00  0.00     0.025 C 
BRANCH  27  28
HETATM   28  C   UNL     1       2.881 -50.222  51.162  1.00  0.00    -0.007 C 
HETATM   29  C   UNL     1       3.800 -51.178  51.642  1.00  0.00     0.014 C 
HETATM   30  C   UNL     1       3.299 -52.362  52.196  1.00  0.00     0.002 C 
HETATM   31  C   UNL     1       1.904 -52.529  52.298  1.00  0.00     0.009 C 
HETATM   32  C   UNL     1       1.067 -51.524  51.773  1.00  0.00    -0.028 C 
HETATM   33  C   UNL     1       1.611 -50.723  50.742  1.00  0.00     0.061 C 
HETATM   34  C   UNL     1      -0.278 -51.174  52.369  1.00  0.00     0.060 C 
HETATM   35  N   UNL     1       1.077 -50.615  49.425  1.00  0.00    -0.263 N 
HETATM   36  C   UNL     1      -0.343 -50.472  49.200  1.00  0.00     0.110 C 
HETATM   37  C   UNL     1       1.972 -50.629  48.308  1.00  0.00     0.253 C 
HETATM   38  N   UNL     1      -1.218 -50.320  50.298  1.00  0.00    -0.376 N 
HETATM   39  C   UNL     1      -1.030 -50.400  47.969  1.00  0.00     0.049 C 
HETATM   40  C   UNL     1      -1.360 -51.387  51.304  1.00  0.00     0.126 C 
ATOM     41  HN  UNL     1      -1.759 -49.461  50.395  1.00  0.00     0.161 HD
HETATM   42  C   UNL     1      -0.764 -50.121  46.652  1.00  0.00     0.004 C 
HETATM   43  C   UNL     1       0.549 -50.243  46.139  1.00  0.00     0.006 C 
HETATM   44  C   UNL     1       1.621 -50.251  46.993  1.00  0.00     0.075 C 
HETATM   45  O   UNL     1       3.120 -51.037  48.515  1.00  0.00    -0.268 OA
ENDBRANCH  27  28
ENDBRANCH   1  27
TORSDOF 6
ENDMDL
MODEL 9
REMARK VINA RESULT:     -11.9      2.661      9.739
REMARK  6 active torsions:
REMARK  status: ('A' for Active; 'I' for Inactive)
REMARK    1  A    between atoms: C_3  and  O_9 
REMARK       I    between atoms: C_7  and  N_26 
REMARK    2  A    between atoms: N_8  and  C_29 
REMARK    3  A    between atoms: C_12  and  C_14 
REMARK    4  A    between atoms: C_12  and  C_32 
REMARK    5  A    between atoms: N_26  and  C_30 
REMARK    6  A    between atoms: N_26  and  C_38 
ROOT
HETATM    1  C   UNL     1       8.184 -43.543  50.546  1.00  0.00    -0.033 A 
HETATM    2  C   UNL     1       7.942 -45.541  52.488  1.00  0.00     0.030 A 
HETATM    3  C   UNL     1       8.111 -44.886  50.167  1.00  0.00     0.041 A 
HETATM    4  C   UNL     1       8.183 -43.209  51.897  1.00  0.00     0.011 A 
HETATM    5  C   UNL     1       7.920 -45.884  51.133  1.00  0.00     0.045 A 
HETATM    6  C   UNL     1       8.069 -44.206  52.863  1.00  0.00     0.003 A 
ENDROOT
BRANCH   5   7
HETATM    7  N   UNL     1       7.759 -47.246  50.735  1.00  0.00    -0.264 N 
HETATM    8  C   UNL     1       8.890 -47.996  50.442  1.00  0.00     0.295 C 
HETATM    9  O   UNL     1       9.576 -47.658  49.450  1.00  0.00    -0.629 OA
HETATM   10  O   UNL     1       9.190 -48.951  51.194  1.00  0.00    -0.629 OA
BRANCH   7  11
HETATM   11  C   UNL     1       6.485 -47.978  50.713  1.00  0.00     0.009 C 
HETATM   12  C   UNL     1       5.562 -47.723  51.903  1.00  0.00     0.055 C 
HETATM   13  C   UNL     1       4.356 -46.837  51.525  1.00  0.00     0.026 C 
HETATM   14  C   UNL     1       3.172 -47.650  50.994  1.00  0.00     0.133 C 
HETATM   15  N   UNL     1       3.596 -48.802  50.173  1.00  0.00    -0.315 N 
HETATM   16  C   UNL     1       4.522 -48.565  49.147  1.00  0.00     0.229 C 
HETATM   17  C   UNL     1       6.013 -48.709  49.464  1.00  0.00     0.156 C 
HETATM   18  O   UNL     1       4.164 -48.195  48.050  1.00  0.00    -0.273 OA
BRANCH  15  19
HETATM   19  C   UNL     1       3.193 -50.121  50.484  1.00  0.00     0.070 C 
HETATM   20  C   UNL     1       1.880 -50.538  50.164  1.00  0.00     0.092 C 
HETATM   21  C   UNL     1       1.166 -51.298  51.096  1.00  0.00     0.039 C 
HETATM   22  C   UNL     1       1.878 -51.996  52.068  1.00  0.00     0.003 C 
HETATM   23  C   UNL     1       3.268 -51.933  52.076  1.00  0.00     0.002 C 
HETATM   24  C   UNL     1       3.930 -51.015  51.259  1.00  0.00     0.033 C 
BRANCH  20  25
HETATM   25  O   UNL     1       1.338 -50.283  48.957  1.00  0.00    -0.358 OA
ATOM     26  HO  UNL     1       1.841 -49.804  48.308  1.00  0.00     0.217 HD
ENDBRANCH  20  25
ENDBRANCH  15  19
ENDBRANCH   7  11
ENDBRANCH   5   7
BRANCH   1  27
HETATM   27  C   UNL     1       8.210 -42.485  49.483  1.00  0.00     0.025 C 
BRANCH  27  28
HETATM   28  C   UNL     1       7.027 -41.669  49.058  1.00  0.00    -0.007 C 
HETATM   29  C   UNL     1       6.792 -41.211  47.745  1.00  0.00     0.014 C 
HETATM   30  C   UNL     1       5.470 -41.148  47.290  1.00  0.00     0.002 C 
HETATM   31  C   UNL     1       4.435 -41.589  48.137  1.00  0.00     0.009 C 
HETATM   32  C   UNL     1       4.770 -42.013  49.439  1.00  0.00    -0.028 C 
HETATM   33  C   UNL     1       5.960 -41.485  49.990  1.00  0.00     0.061 C 
HETATM   34  C   UNL     1       4.019 -43.104  50.171  1.00  0.00     0.060 C 
HETATM   35  N   UNL     1       6.032 -40.708  51.183  1.00  0.00    -0.263 N 
HETATM   36  C   UNL     1       5.291 -41.078  52.366  1.00  0.00     0.110 C 
HETATM   37  C   UNL     1       6.873 -39.549  51.209  1.00  0.00     0.253 C 
HETATM   38  N   UNL     1       4.568 -42.290  52.394  1.00  0.00    -0.376 N 
HETATM   39  C   UNL     1       5.218 -40.396  53.601  1.00  0.00     0.049 C 
HETATM   40  C   UNL     1       3.446 -42.522  51.468  1.00  0.00     0.126 C 
ATOM     41  HN  UNL     1       4.827 -43.015  53.064  1.00  0.00     0.161 HD
HETATM   42  C   UNL     1       5.924 -39.452  54.303  1.00  0.00     0.004 C 
HETATM   43  C   UNL     1       6.799 -38.561  53.636  1.00  0.00     0.006 C 
HETATM   44  C   UNL     1       7.258 -38.863  52.381  1.00  0.00     0.075 C 
HETATM   45  O   UNL     1       7.253 -39.109  50.118  1.00  0.00    -0.268 OA
ENDBRANCH  27  28
ENDBRANCH   1  27
TORSDOF 6
ENDMDL
