REMARK  3 active torsions:
REMARK  status: ('A' for Active; 'I' for Inactive)
REMARK    1  A    between atoms: C_7  and  C_21 
REMARK    2  A    between atoms: C_9  and  O_14 
REMARK    3  A    between atoms: C_13  and  C_24 
ROOT
HETATM    1  C   UNL     1       1.731  45.257   1.976  1.00  0.00     0.005 C 
HETATM    2  C   UNL     1       2.758  46.017   4.073  1.00  0.00     0.002 C 
HETATM    3  C   UNL     1       4.176  44.884   2.397  1.00  0.00     0.010 C 
HETATM    4  C   UNL     1       0.474  46.553   3.991  1.00  0.00     0.040 C 
HETATM    5  C   UNL     1       1.018  46.925   5.368  1.00  0.00    -0.066 C 
HETATM    6  C   UNL     1       1.463  45.497   3.461  1.00  0.00    -0.005 C 
HETATM    7  C   UNL     1       2.358  46.213   5.522  1.00  0.00     0.041 C 
HETATM    8  C   UNL     1       3.873  45.018   3.881  1.00  0.00     0.026 C 
HETATM    9  C   UNL     1       2.921  44.313   1.726  1.00  0.00     0.001 C 
ENDROOT
BRANCH   5  10
HETATM   10  C   UNL     1       0.826  47.798   6.578  1.00  0.00     0.004 C 
HETATM   11  C   UNL     1       1.161  49.141   6.692  1.00  0.00     0.016 C 
HETATM   12  C   UNL     1       1.583  49.623   7.939  1.00  0.00     0.018 C 
HETATM   13  C   UNL     1       1.727  48.720   8.987  1.00  0.00     0.089 C 
HETATM   14  N   UNL     1       1.225  47.481   8.893  1.00  0.00    -0.356 N 
HETATM   15  C   UNL     1       0.463  47.163   7.811  1.00  0.00     0.111 C 
ATOM     16  HN  UNL     1       1.411  46.789   9.619  1.00  0.00     0.166 HD
HETATM   17  S   UNL     1      -0.951  46.172   7.839  1.00  0.00    -0.059 SA
ENDBRANCH   5  10
BRANCH   8  18
HETATM   18  C   UNL     1       4.981  45.164   4.884  1.00  0.00    -0.021 C 
HETATM   19  C   UNL     1       6.074  44.287   4.845  1.00  0.00     0.072 C 
HETATM   20  C   UNL     1       6.674  43.878   6.033  1.00  0.00     0.037 C 
HETATM   21  C   UNL     1       6.504  44.670   7.164  1.00  0.00     0.003 C 
HETATM   22  C   UNL     1       5.729  45.825   7.084  1.00  0.00     0.001 C 
HETATM   23  C   UNL     1       4.971  46.096   5.943  1.00  0.00     0.010 C 
BRANCH  19  24
HETATM   24  O   UNL     1       6.643  44.093   3.633  1.00  0.00    -0.360 OA
ATOM     25  HO  UNL     1       7.384  43.499   3.607  1.00  0.00     0.217 HD
ENDBRANCH  19  24
ENDBRANCH   8  18
TORSDOF 3
