MODEL 1
REMARK VINA RESULT:     -10.6      0.000      0.000
REMARK  1 active torsions:
REMARK  status: ('A' for Active; 'I' for Inactive)
REMARK    1  A    between atoms: C_13  and  N_17 
ROOT
HETATM    1  C   UNL     1       0.950  45.971   3.593  1.00  0.00     0.154 C 
HETATM    2  C   UNL     1       2.044  45.959   4.479  1.00  0.00     0.006 C 
HETATM    3  C   UNL     1       0.114  47.769   6.625  1.00  0.00     0.042 C 
HETATM    4  C   UNL     1       5.470  46.428   6.814  1.00  0.00     0.014 C 
HETATM    5  N   UNL     1       2.934  46.694   8.005  1.00  0.00    -0.384 N 
ATOM      6  HN  UNL     1       3.742  47.072   8.499  1.00  0.00     0.160 HD
HETATM    7  C   UNL     1       6.752  44.345   6.805  1.00  0.00     0.000 C 
HETATM    8  C   UNL     1       6.541  45.636   7.212  1.00  0.00     0.001 C 
HETATM    9  C   UNL     1       6.261  43.826   5.625  1.00  0.00     0.001 C 
HETATM   10  C   UNL     1       3.284  45.458   4.015  1.00  0.00    -0.011 C 
HETATM   11  C   UNL     1       0.561  46.312   6.523  1.00  0.00     0.026 C 
HETATM   12  C   UNL     1       3.363  45.011   2.677  1.00  0.00     0.038 C 
HETATM   13  C   UNL     1       0.145  48.343   8.013  1.00  0.00     0.186 C 
HETATM   14  C   UNL     1       2.204  44.826   1.949  1.00  0.00     0.142 C 
HETATM   15  C   UNL     1       0.670  45.682   7.910  1.00  0.00     0.034 C 
HETATM   16  C   UNL     1       1.134  47.867   9.051  1.00  0.00     0.057 C 
HETATM   17  C   UNL     1       1.922  46.283   5.849  1.00  0.00    -0.014 C 
HETATM   18  C   UNL     1       1.675  46.470   8.744  1.00  0.00     0.084 C 
HETATM   19  C   UNL     1       4.309  46.037   6.141  1.00  0.00     0.002 C 
HETATM   20  C   UNL     1       5.303  44.301   4.767  1.00  0.00     0.013 C 
HETATM   21  C   UNL     1       3.040  46.401   6.646  1.00  0.00     0.047 C 
HETATM   22  C   UNL     1       4.335  45.290   4.952  1.00  0.00    -0.012 C 
HETATM   23  O   UNL     1       1.056  45.468   2.321  1.00  0.00    -0.334 OA
ENDROOT
BRANCH  13  24
HETATM   24  N   UNL     1      -0.785  49.335   8.386  1.00  0.00    -0.075 N 
ATOM     25  HN3 UNL     1      -1.248  49.677   7.545  1.00  0.00     0.274 HD
ATOM     26  HN2 UNL     1      -1.558  48.884   8.876  1.00  0.00     0.274 HD
ATOM     27  HN1 UNL     1      -0.481  50.139   8.935  1.00  0.00     0.274 HD
ENDBRANCH  13  24
TORSDOF 1
ENDMDL
MODEL 2
REMARK VINA RESULT:     -10.2      1.375      1.929
REMARK  1 active torsions:
REMARK  status: ('A' for Active; 'I' for Inactive)
REMARK    1  A    between atoms: C_13  and  N_17 
ROOT
HETATM    1  C   UNL     1      -0.821  46.526   4.685  1.00  0.00     0.154 C 
HETATM    2  C   UNL     1       0.557  46.314   4.875  1.00  0.00     0.006 C 
HETATM    3  C   UNL     1       0.273  48.126   7.745  1.00  0.00     0.042 C 
HETATM    4  C   UNL     1       4.721  46.187   5.103  1.00  0.00     0.014 C 
HETATM    5  N   UNL     1       3.218  46.625   7.442  1.00  0.00    -0.384 N 
ATOM      6  HN  UNL     1       4.209  46.865   7.453  1.00  0.00     0.160 HD
HETATM    7  C   UNL     1       5.509  43.984   4.390  1.00  0.00     0.000 C 
HETATM    8  C   UNL     1       5.720  45.249   4.873  1.00  0.00     0.001 C 
HETATM    9  C   UNL     1       4.416  43.631   3.626  1.00  0.00     0.001 C 
HETATM   10  C   UNL     1       1.300  45.721   3.825  1.00  0.00    -0.011 C 
HETATM   11  C   UNL     1       0.394  46.643   7.398  1.00  0.00     0.026 C 
HETATM   12  C   UNL     1       0.620  45.391   2.632  1.00  0.00     0.038 C 
HETATM   13  C   UNL     1       1.090  48.566   8.928  1.00  0.00     0.186 C 
HETATM   14  C   UNL     1      -0.761  45.402   2.607  1.00  0.00     0.142 C 
HETATM   15  C   UNL     1       1.106  45.883   8.515  1.00  0.00     0.034 C 
HETATM   16  C   UNL     1       2.392  47.891   9.292  1.00  0.00     0.057 C 
HETATM   17  C   UNL     1       1.200  46.524   6.115  1.00  0.00    -0.014 C 
HETATM   18  C   UNL     1       2.496  46.476   8.722  1.00  0.00     0.084 C 
HETATM   19  C   UNL     1       3.337  45.989   5.123  1.00  0.00     0.002 C 
HETATM   20  C   UNL     1       3.232  44.285   3.398  1.00  0.00     0.013 C 
HETATM   21  C   UNL     1       2.572  46.445   6.219  1.00  0.00     0.047 C 
HETATM   22  C   UNL     1       2.646  45.354   4.078  1.00  0.00    -0.012 C 
HETATM   23  O   UNL     1      -1.453  46.131   3.532  1.00  0.00    -0.334 OA
ENDROOT
BRANCH  13  24
HETATM   24  N   UNL     1       0.633  49.617   9.748  1.00  0.00    -0.075 N 
ATOM     25  HN3 UNL     1       1.262  50.411   9.636  1.00  0.00     0.274 HD
ATOM     26  HN2 UNL     1      -0.232  49.984   9.351  1.00  0.00     0.274 HD
ATOM     27  HN1 UNL     1       0.488  49.460  10.746  1.00  0.00     0.274 HD
ENDBRANCH  13  24
TORSDOF 1
ENDMDL
MODEL 3
REMARK VINA RESULT:      -9.5      1.971      4.416
REMARK  1 active torsions:
REMARK  status: ('A' for Active; 'I' for Inactive)
REMARK    1  A    between atoms: C_13  and  N_17 
ROOT
HETATM    1  C   UNL     1       4.389  45.805   6.120  1.00  0.00     0.154 C 
HETATM    2  C   UNL     1       3.199  45.700   5.378  1.00  0.00     0.006 C 
HETATM    3  C   UNL     1       1.567  46.833   8.144  1.00  0.00     0.042 C 
HETATM    4  C   UNL     1      -0.352  44.814   3.373  1.00  0.00     0.014 C 
HETATM    5  N   UNL     1      -0.370  46.711   5.453  1.00  0.00    -0.384 N 
ATOM      6  HN  UNL     1      -1.259  46.304   5.161  1.00  0.00     0.160 HD
HETATM    7  C   UNL     1      -0.119  45.397   1.009  1.00  0.00     0.000 C 
HETATM    8  C   UNL     1      -0.842  44.937   2.078  1.00  0.00     0.001 C 
HETATM    9  C   UNL     1       1.257  45.335   0.934  1.00  0.00     0.001 C 
HETATM   10  C   UNL     1       3.246  45.069   4.110  1.00  0.00    -0.011 C 
HETATM   11  C   UNL     1       1.998  47.435   6.809  1.00  0.00     0.026 C 
HETATM   12  C   UNL     1       4.487  44.560   3.666  1.00  0.00     0.038 C 
HETATM   13  C   UNL     1       0.191  47.230   8.601  1.00  0.00     0.186 C 
HETATM   14  C   UNL     1       5.646  44.911   4.329  1.00  0.00     0.142 C 
HETATM   15  C   UNL     1       1.033  48.537   6.376  1.00  0.00     0.034 C 
HETATM   16  C   UNL     1      -0.911  47.557   7.621  1.00  0.00     0.057 C 
HETATM   17  C   UNL     1       1.995  46.327   5.770  1.00  0.00    -0.014 C 
HETATM   18  C   UNL     1      -0.371  47.956   6.247  1.00  0.00     0.084 C 
HETATM   19  C   UNL     1       0.839  45.325   3.899  1.00  0.00     0.002 C 
HETATM   20  C   UNL     1       2.198  45.092   1.901  1.00  0.00     0.013 C 
HETATM   21  C   UNL     1       0.820  46.080   5.093  1.00  0.00     0.047 C 
HETATM   22  C   UNL     1       2.088  45.114   3.293  1.00  0.00    -0.012 C 
HETATM   23  O   UNL     1       5.585  45.352   5.622  1.00  0.00    -0.334 OA
ENDROOT
BRANCH  13  24
HETATM   24  N   UNL     1      -0.092  47.334   9.979  1.00  0.00    -0.075 N 
ATOM     25  HN3 UNL     1      -0.599  46.498  10.268  1.00  0.00     0.274 HD
ATOM     26  HN2 UNL     1       0.782  47.232  10.496  1.00  0.00     0.274 HD
ATOM     27  HN1 UNL     1      -0.586  48.151  10.338  1.00  0.00     0.274 HD
ENDBRANCH  13  24
TORSDOF 1
ENDMDL
MODEL 4
REMARK VINA RESULT:      -9.5      2.089      4.365
REMARK  1 active torsions:
REMARK  status: ('A' for Active; 'I' for Inactive)
REMARK    1  A    between atoms: C_13  and  N_17 
ROOT
HETATM    1  C   UNL     1       4.166  46.827   7.858  1.00  0.00     0.154 C 
HETATM    2  C   UNL     1       3.092  46.587   6.982  1.00  0.00     0.006 C 
HETATM    3  C   UNL     1       1.065  47.942   9.361  1.00  0.00     0.042 C 
HETATM    4  C   UNL     1      -0.125  45.325   4.643  1.00  0.00     0.014 C 
HETATM    5  N   UNL     1      -0.484  47.436   6.470  1.00  0.00    -0.384 N 
ATOM      6  HN  UNL     1      -1.312  46.960   6.113  1.00  0.00     0.160 HD
HETATM    7  C   UNL     1       0.409  45.654   2.279  1.00  0.00     0.000 C 
HETATM    8  C   UNL     1      -0.439  45.282   3.290  1.00  0.00     0.001 C 
HETATM    9  C   UNL     1       1.783  45.647   2.393  1.00  0.00     0.001 C 
HETATM   10  C   UNL     1       3.329  45.823   5.813  1.00  0.00    -0.011 C 
HETATM   11  C   UNL     1       1.655  48.413   8.034  1.00  0.00     0.026 C 
HETATM   12  C   UNL     1       4.634  45.325   5.597  1.00  0.00     0.038 C 
HETATM   13  C   UNL     1      -0.371  48.324   9.584  1.00  0.00     0.186 C 
HETATM   14  C   UNL     1       5.681  45.799   6.362  1.00  0.00     0.142 C 
HETATM   15  C   UNL     1       0.725  49.415   7.354  1.00  0.00     0.034 C 
HETATM   16  C   UNL     1      -1.340  48.490   8.436  1.00  0.00     0.057 C 
HETATM   17  C   UNL     1       1.827  47.198   7.137  1.00  0.00    -0.014 C 
HETATM   18  C   UNL     1      -0.630  48.760   7.108  1.00  0.00     0.084 C 
HETATM   19  C   UNL     1       0.966  45.945   5.259  1.00  0.00     0.002 C 
HETATM   20  C   UNL     1       2.591  45.555   3.498  1.00  0.00     0.013 C 
HETATM   21  C   UNL     1       0.763  46.824   6.345  1.00  0.00     0.047 C 
HETATM   22  C   UNL     1       2.292  45.725   4.851  1.00  0.00    -0.012 C 
HETATM   23  O   UNL     1       5.432  46.377   7.576  1.00  0.00    -0.334 OA
ENDROOT
BRANCH  13  24
HETATM   24  N   UNL     1      -0.842  48.566  10.891  1.00  0.00    -0.075 N 
ATOM     25  HN3 UNL     1      -0.332  47.961  11.535  1.00  0.00     0.274 HD
ATOM     26  HN2 UNL     1      -0.522  49.490  11.183  1.00  0.00     0.274 HD
ATOM     27  HN1 UNL     1      -1.837  48.489  11.098  1.00  0.00     0.274 HD
ENDBRANCH  13  24
TORSDOF 1
ENDMDL
MODEL 5
REMARK VINA RESULT:      -8.8      2.488      5.338
REMARK  1 active torsions:
REMARK  status: ('A' for Active; 'I' for Inactive)
REMARK    1  A    between atoms: C_13  and  N_17 
ROOT
HETATM    1  C   UNL     1       4.903  44.994   4.852  1.00  0.00     0.154 C 
HETATM    2  C   UNL     1       3.847  45.784   5.344  1.00  0.00     0.006 C 
HETATM    3  C   UNL     1       2.320  45.325   2.334  1.00  0.00     0.042 C 
HETATM    4  C   UNL     1       1.033  48.600   6.593  1.00  0.00     0.014 C 
HETATM    5  N   UNL     1       0.344  46.747   4.589  1.00  0.00    -0.384 N 
ATOM      6  HN  UNL     1      -0.230  47.584   4.692  1.00  0.00     0.160 HD
HETATM    7  C   UNL     1       0.551  48.271   8.968  1.00  0.00     0.000 C 
HETATM    8  C   UNL     1       0.356  48.904   7.768  1.00  0.00     0.001 C 
HETATM    9  C   UNL     1       1.721  47.626   9.311  1.00  0.00     0.001 C 
HETATM   10  C   UNL     1       4.020  46.449   6.583  1.00  0.00    -0.011 C 
HETATM   11  C   UNL     1       2.154  44.753   3.740  1.00  0.00     0.026 C 
HETATM   12  C   UNL     1       5.255  46.299   7.252  1.00  0.00     0.038 C 
HETATM   13  C   UNL     1       1.033  45.638   1.624  1.00  0.00     0.186 C 
HETATM   14  C   UNL     1       6.143  45.325   6.837  1.00  0.00     0.142 C 
HETATM   15  C   UNL     1       0.700  44.364   3.997  1.00  0.00     0.034 C 
HETATM   16  C   UNL     1      -0.214  46.045   2.375  1.00  0.00     0.057 C 
HETATM   17  C   UNL     1       2.572  45.822   4.736  1.00  0.00    -0.014 C 
HETATM   18  C   UNL     1      -0.188  45.594   3.836  1.00  0.00     0.084 C 
HETATM   19  C   UNL     1       1.841  47.492   6.322  1.00  0.00     0.002 C 
HETATM   20  C   UNL     1       2.787  47.234   8.542  1.00  0.00     0.013 C 
HETATM   21  C   UNL     1       1.615  46.716   5.163  1.00  0.00     0.047 C 
HETATM   22  C   UNL     1       2.901  47.103   7.157  1.00  0.00    -0.012 C 
HETATM   23  O   UNL     1       6.062  44.826   5.567  1.00  0.00    -0.334 OA
ENDROOT
BRANCH  13  24
HETATM   24  N   UNL     1       0.958  45.529   0.220  1.00  0.00    -0.075 N 
ATOM     25  HN3 UNL     1       1.122  44.556  -0.037  1.00  0.00     0.274 HD
ATOM     26  HN2 UNL     1      -0.015  45.653  -0.061  1.00  0.00     0.274 HD
ATOM     27  HN1 UNL     1       1.543  46.120  -0.370  1.00  0.00     0.274 HD
ENDBRANCH  13  24
TORSDOF 1
ENDMDL
MODEL 6
REMARK VINA RESULT:      -8.8      2.670      4.931
REMARK  1 active torsions:
REMARK  status: ('A' for Active; 'I' for Inactive)
REMARK    1  A    between atoms: C_13  and  N_17 
ROOT
HETATM    1  C   UNL     1       3.931  44.635   3.048  1.00  0.00     0.154 C 
HETATM    2  C   UNL     1       3.174  45.448   3.911  1.00  0.00     0.006 C 
HETATM    3  C   UNL     1       0.802  45.548   1.468  1.00  0.00     0.042 C 
HETATM    4  C   UNL     1       1.229  48.325   6.225  1.00  0.00     0.014 C 
HETATM    5  N   UNL     1      -0.241  46.834   4.344  1.00  0.00    -0.384 N 
ATOM      6  HN  UNL     1      -0.647  47.700   4.698  1.00  0.00     0.160 HD
HETATM    7  C   UNL     1       1.409  47.726   8.589  1.00  0.00     0.000 C 
HETATM    8  C   UNL     1       0.964  48.530   7.573  1.00  0.00     0.001 C 
HETATM    9  C   UNL     1       2.533  46.932   8.498  1.00  0.00     0.001 C 
HETATM   10  C   UNL     1       3.780  45.920   5.101  1.00  0.00    -0.011 C 
HETATM   11  C   UNL     1       0.972  44.809   2.794  1.00  0.00     0.026 C 
HETATM   12  C   UNL     1       5.124  45.564   5.350  1.00  0.00     0.038 C 
HETATM   13  C   UNL     1      -0.582  46.075   1.212  1.00  0.00     0.186 C 
HETATM   14  C   UNL     1       5.721  44.575   4.591  1.00  0.00     0.142 C 
HETATM   15  C   UNL     1      -0.386  44.529   3.435  1.00  0.00     0.034 C 
HETATM   16  C   UNL     1      -1.497  46.494   2.340  1.00  0.00     0.057 C 
HETATM   17  C   UNL     1       1.794  45.689   3.721  1.00  0.00    -0.014 C 
HETATM   18  C   UNL     1      -1.113  45.849   3.673  1.00  0.00     0.084 C 
HETATM   19  C   UNL     1       1.773  47.192   5.613  1.00  0.00     0.002 C 
HETATM   20  C   UNL     1       3.273  46.547   7.409  1.00  0.00     0.013 C 
HETATM   21  C   UNL     1       1.125  46.605   4.503  1.00  0.00     0.047 C 
HETATM   22  C   UNL     1       2.968  46.594   6.048  1.00  0.00    -0.012 C 
HETATM   23  O   UNL     1       5.214  44.262   3.361  1.00  0.00    -0.334 OA
ENDROOT
BRANCH  13  24
HETATM   24  N   UNL     1      -1.070  46.164  -0.108  1.00  0.00    -0.075 N 
ATOM     25  HN3 UNL     1      -0.459  45.619  -0.715  1.00  0.00     0.274 HD
ATOM     26  HN2 UNL     1      -1.940  45.635  -0.166  1.00  0.00     0.274 HD
ATOM     27  HN1 UNL     1      -1.218  47.077  -0.537  1.00  0.00     0.274 HD
ENDBRANCH  13  24
TORSDOF 1
ENDMDL
MODEL 7
REMARK VINA RESULT:      -8.2      1.617      5.216
REMARK  1 active torsions:
REMARK  status: ('A' for Active; 'I' for Inactive)
REMARK    1  A    between atoms: C_13  and  N_17 
ROOT
HETATM    1  C   UNL     1       1.087  44.955   3.527  1.00  0.00     0.154 C 
HETATM    2  C   UNL     1       1.236  45.613   4.762  1.00  0.00     0.006 C 
HETATM    3  C   UNL     1       4.403  44.363   4.861  1.00  0.00     0.042 C 
HETATM    4  C   UNL     1       1.445  47.055   8.672  1.00  0.00     0.014 C 
HETATM    5  N   UNL     1       3.821  46.614   7.228  1.00  0.00    -0.384 N 
ATOM      6  HN  UNL     1       3.880  46.697   8.243  1.00  0.00     0.160 HD
HETATM    7  C   UNL     1       0.320  49.222   8.801  1.00  0.00     0.000 C 
HETATM    8  C   UNL     1       1.040  48.196   9.354  1.00  0.00     0.001 C 
HETATM    9  C   UNL     1      -0.501  49.075   7.703  1.00  0.00     0.001 C 
HETATM   10  C   UNL     1       0.093  46.201   5.356  1.00  0.00    -0.011 C 
HETATM   11  C   UNL     1       3.774  45.719   4.550  1.00  0.00     0.026 C 
HETATM   12  C   UNL     1      -1.144  46.080   4.684  1.00  0.00     0.038 C 
HETATM   13  C   UNL     1       5.650  44.421   5.697  1.00  0.00     0.186 C 
HETATM   14  C   UNL     1      -1.170  45.641   3.375  1.00  0.00     0.142 C 
HETATM   15  C   UNL     1       4.724  46.855   4.929  1.00  0.00     0.034 C 
HETATM   16  C   UNL     1       5.880  45.519   6.710  1.00  0.00     0.057 C 
HETATM   17  C   UNL     1       2.495  45.842   5.360  1.00  0.00    -0.014 C 
HETATM   18  C   UNL     1       5.046  46.767   6.417  1.00  0.00     0.084 C 
HETATM   19  C   UNL     1       1.423  46.817   7.295  1.00  0.00     0.002 C 
HETATM   20  C   UNL     1      -0.601  48.058   6.788  1.00  0.00     0.013 C 
HETATM   21  C   UNL     1       2.585  46.358   6.635  1.00  0.00     0.047 C 
HETATM   22  C   UNL     1       0.273  47.005   6.511  1.00  0.00    -0.012 C 
HETATM   23  O   UNL     1      -0.122  44.917   2.879  1.00  0.00    -0.334 OA
ENDROOT
BRANCH  13  24
HETATM   24  N   UNL     1       6.659  43.450   5.528  1.00  0.00    -0.075 N 
ATOM     25  HN3 UNL     1       7.411  43.859   4.974  1.00  0.00     0.274 HD
ATOM     26  HN2 UNL     1       7.121  43.307   6.426  1.00  0.00     0.274 HD
ATOM     27  HN1 UNL     1       6.428  42.538   5.134  1.00  0.00     0.274 HD
ENDBRANCH  13  24
TORSDOF 1
ENDMDL
MODEL 8
REMARK VINA RESULT:      -8.0      2.443      4.157
REMARK  1 active torsions:
REMARK  status: ('A' for Active; 'I' for Inactive)
REMARK    1  A    between atoms: C_13  and  N_17 
ROOT
HETATM    1  C   UNL     1       0.692  45.700   2.959  1.00  0.00     0.154 C 
HETATM    2  C   UNL     1       0.716  46.347   4.208  1.00  0.00     0.006 C 
HETATM    3  C   UNL     1      -2.448  47.413   3.533  1.00  0.00     0.042 C 
HETATM    4  C   UNL     1       1.033  48.738   7.614  1.00  0.00     0.014 C 
HETATM    5  N   UNL     1      -1.514  48.013   6.661  1.00  0.00    -0.384 N 
ATOM      6  HN  UNL     1      -1.445  48.800   7.306  1.00  0.00     0.160 HD
HETATM    7  C   UNL     1       2.227  47.511   9.361  1.00  0.00     0.000 C 
HETATM    8  C   UNL     1       1.552  48.610   8.896  1.00  0.00     0.001 C 
HETATM    9  C   UNL     1       2.901  46.627   8.544  1.00  0.00     0.001 C 
HETATM   10  C   UNL     1       1.940  46.399   4.919  1.00  0.00    -0.011 C 
HETATM   11  C   UNL     1      -1.825  46.331   4.414  1.00  0.00     0.026 C 
HETATM   12  C   UNL     1       3.080  45.813   4.325  1.00  0.00     0.038 C 
HETATM   13  C   UNL     1      -3.580  48.170   4.169  1.00  0.00     0.186 C 
HETATM   14  C   UNL     1       2.931  44.991   3.225  1.00  0.00     0.142 C 
HETATM   15  C   UNL     1      -2.688  46.075   5.648  1.00  0.00     0.034 C 
HETATM   16  C   UNL     1      -3.652  48.391   5.662  1.00  0.00     0.057 C 
HETATM   17  C   UNL     1      -0.452  46.813   4.851  1.00  0.00    -0.014 C 
HETATM   18  C   UNL     1      -2.825  47.369   6.444  1.00  0.00     0.084 C 
HETATM   19  C   UNL     1       0.878  47.746   6.640  1.00  0.00     0.002 C 
HETATM   20  C   UNL     1       2.857  46.450   7.185  1.00  0.00     0.013 C 
HETATM   21  C   UNL     1      -0.369  47.569   6.001  1.00  0.00     0.047 C 
HETATM   22  C   UNL     1       1.927  46.899   6.246  1.00  0.00    -0.012 C 
HETATM   23  O   UNL     1       1.810  45.089   2.449  1.00  0.00    -0.334 OA
ENDROOT
BRANCH  13  24
HETATM   24  N   UNL     1      -4.628  48.672   3.371  1.00  0.00    -0.075 N 
ATOM     25  HN3 UNL     1      -4.287  49.489   2.866  1.00  0.00     0.274 HD
ATOM     26  HN2 UNL     1      -4.795  48.016   2.608  1.00  0.00     0.274 HD
ATOM     27  HN1 UNL     1      -5.525  48.908   3.796  1.00  0.00     0.274 HD
ENDBRANCH  13  24
TORSDOF 1
ENDMDL
MODEL 9
REMARK VINA RESULT:      -8.0      3.442      6.068
REMARK  1 active torsions:
REMARK  status: ('A' for Active; 'I' for Inactive)
REMARK    1  A    between atoms: C_13  and  N_17 
ROOT
HETATM    1  C   UNL     1      -1.592  45.799   3.733  1.00  0.00     0.154 C 
HETATM    2  C   UNL     1      -0.227  45.471   3.630  1.00  0.00     0.006 C 
HETATM    3  C   UNL     1      -0.974  43.999   0.651  1.00  0.00     0.042 C 
HETATM    4  C   UNL     1       3.675  43.994   3.635  1.00  0.00     0.014 C 
HETATM    5  N   UNL     1       2.290  44.242   1.197  1.00  0.00    -0.384 N 
ATOM      6  HN  UNL     1       3.112  43.639   1.227  1.00  0.00     0.160 HD
HETATM    7  C   UNL     1       5.191  45.701   4.513  1.00  0.00     0.000 C 
HETATM    8  C   UNL     1       4.937  44.468   3.971  1.00  0.00     0.001 C 
HETATM    9  C   UNL     1       4.264  46.423   5.235  1.00  0.00     0.001 C 
HETATM   10  C   UNL     1       0.609  45.699   4.750  1.00  0.00    -0.011 C 
HETATM   11  C   UNL     1      -0.322  45.309   1.087  1.00  0.00     0.026 C 
HETATM   12  C   UNL     1       0.023  46.227   5.922  1.00  0.00     0.038 C 
HETATM   13  C   UNL     1      -0.305  43.316  -0.509  1.00  0.00     0.186 C 
HETATM   14  C   UNL     1      -1.255  46.748   5.872  1.00  0.00     0.142 C 
HETATM   15  C   UNL     1       0.704  45.772   0.055  1.00  0.00     0.034 C 
HETATM   16  C   UNL     1       1.179  43.449  -0.764  1.00  0.00     0.057 C 
HETATM   17  C   UNL     1       0.374  45.069   2.416  1.00  0.00    -0.014 C 
HETATM   18  C   UNL     1       1.773  44.697  -0.110  1.00  0.00     0.084 C 
HETATM   19  C   UNL     1       2.477  44.709   3.551  1.00  0.00     0.002 C 
HETATM   20  C   UNL     1       2.907  46.268   5.361  1.00  0.00     0.013 C 
HETATM   21  C   UNL     1       1.676  44.618   2.391  1.00  0.00     0.047 C 
HETATM   22  C   UNL     1       2.008  45.528   4.592  1.00  0.00    -0.012 C 
HETATM   23  O   UNL     1      -2.106  46.370   4.870  1.00  0.00    -0.334 OA
ENDROOT
BRANCH  13  24
HETATM   24  N   UNL     1      -1.069  42.547  -1.411  1.00  0.00    -0.075 N 
ATOM     25  HN3 UNL     1      -0.515  41.741  -1.697  1.00  0.00     0.274 HD
ATOM     26  HN2 UNL     1      -1.826  42.102  -0.894  1.00  0.00     0.274 HD
ATOM     27  HN1 UNL     1      -1.460  42.981  -2.247  1.00  0.00     0.274 HD
ENDBRANCH  13  24
TORSDOF 1
ENDMDL
