MODEL 1
REMARK VINA RESULT:     -10.1      0.000      0.000
REMARK  4 active torsions:
REMARK  status: ('A' for Active; 'I' for Inactive)
REMARK    1  A    between atoms: N_1  and  C_33 
REMARK    2  A    between atoms: C_4  and  C_31 
REMARK    3  A    between atoms: C_11  and  C_33 
REMARK    4  A    between atoms: C_12  and  C_29 
ROOT
HETATM    1  C   UNL     1       7.379   6.360  18.371  1.00  0.00    -0.026 C 
HETATM    2  C   UNL     1       8.207   5.313  18.728  1.00  0.00     0.013 C 
HETATM    3  C   UNL     1       6.699   6.299  17.164  1.00  0.00     0.013 C 
HETATM    4  C   UNL     1       8.517   4.328  17.813  1.00  0.00     0.010 C 
HETATM    5  C   UNL     1       6.953   5.263  16.292  1.00  0.00     0.010 C 
HETATM    6  C   UNL     1       7.966   4.359  16.554  1.00  0.00    -0.027 C 
ENDROOT
BRANCH   1   7
HETATM    7  C   UNL     1       7.259   7.468  19.206  1.00  0.00    -0.026 C 
HETATM    8  C   UNL     1       6.352   7.429  20.278  1.00  0.00     0.014 C 
HETATM    9  C   UNL     1       6.925   7.646  21.524  1.00  0.00     0.030 C 
HETATM   10  C   UNL     1       8.228   8.131  21.525  1.00  0.00     0.028 C 
HETATM   11  N   UNL     1       9.059   7.791  22.527  1.00  0.00    -0.386 N 
HETATM   12  C   UNL     1       8.652   8.920  20.459  1.00  0.00     0.030 C 
ATOM     13  HN  UNL     1       9.236   6.816  22.770  1.00  0.00     0.160 HD
HETATM   14  C   UNL     1       8.173   8.530  19.210  1.00  0.00     0.014 C 
BRANCH  11  15
HETATM   15  C   UNL     1       9.691   8.881  23.243  1.00  0.00     0.158 C 
BRANCH  15  16
HETATM   16  C   UNL     1      10.071   8.349  24.577  1.00  0.00    -0.041 C 
HETATM   17  C   UNL     1      11.405   8.192  24.897  1.00  0.00     0.009 C 
HETATM   18  C   UNL     1      11.765   7.162  25.756  1.00  0.00     0.001 C 
HETATM   19  C   UNL     1      10.782   6.429  26.388  1.00  0.00     0.000 C 
HETATM   20  C   UNL     1       9.479   6.900  26.378  1.00  0.00     0.001 C 
HETATM   21  C   UNL     1       9.120   7.844  25.442  1.00  0.00     0.009 C 
ENDBRANCH  15  16
ENDBRANCH  11  15
ENDBRANCH   1   7
BRANCH   6  22
HETATM   22  C   UNL     1       8.423   3.414  15.497  1.00  0.00     0.225 C 
HETATM   23  N   UNL     1       7.227   2.801  14.865  1.00  0.00    -0.060 N 
HETATM   24  C   UNL     1       7.860   1.641  14.152  1.00  0.00     0.213 C 
ATOM     25  HN2 UNL     1       6.667   3.424  14.283  1.00  0.00     0.278 HD
ATOM     26  HN1 UNL     1       6.464   2.567  15.499  1.00  0.00     0.278 HD
HETATM   27  C   UNL     1       6.733   0.734  13.673  1.00  0.00     0.042 C 
HETATM   28  C   UNL     1       8.579   0.983  15.333  1.00  0.00     0.222 C 
HETATM   29  N   UNL     1       9.678   0.045  15.606  1.00  0.00    -0.065 N 
HETATM   30  C   UNL     1       9.062   2.197  16.094  1.00  0.00     0.055 C 
HETATM   31  C   UNL     1      10.046   0.371  17.027  1.00  0.00     0.183 C 
ATOM     32  HN2 UNL     1      10.452   0.089  14.943  1.00  0.00     0.278 HD
ATOM     33  HN1 UNL     1       9.455  -0.936  15.436  1.00  0.00     0.278 HD
HETATM   34  C   UNL     1      10.343   1.884  16.807  1.00  0.00     0.041 C 
HETATM   35  C   UNL     1      11.313  -0.396  17.408  1.00  0.00     0.040 C 
ENDBRANCH   6  22
TORSDOF 4
ENDMDL
MODEL 2
REMARK VINA RESULT:      -9.8      0.787      1.256
REMARK  4 active torsions:
REMARK  status: ('A' for Active; 'I' for Inactive)
REMARK    1  A    between atoms: N_1  and  C_33 
REMARK    2  A    between atoms: C_4  and  C_31 
REMARK    3  A    between atoms: C_11  and  C_33 
REMARK    4  A    between atoms: C_12  and  C_29 
ROOT
HETATM    1  C   UNL     1       7.059   6.491  18.967  1.00  0.00    -0.026 C 
HETATM    2  C   UNL     1       7.987   5.498  19.215  1.00  0.00     0.013 C 
HETATM    3  C   UNL     1       6.349   6.468  17.776  1.00  0.00     0.013 C 
HETATM    4  C   UNL     1       8.353   4.623  18.212  1.00  0.00     0.010 C 
HETATM    5  C   UNL     1       6.665   5.533  16.814  1.00  0.00     0.010 C 
HETATM    6  C   UNL     1       7.762   4.706  16.975  1.00  0.00    -0.027 C 
ENDROOT
BRANCH   1   7
HETATM    7  C   UNL     1       6.869   7.512  19.896  1.00  0.00    -0.026 C 
HETATM    8  C   UNL     1       5.681   7.552  20.644  1.00  0.00     0.014 C 
HETATM    9  C   UNL     1       5.867   7.524  22.020  1.00  0.00     0.030 C 
HETATM   10  C   UNL     1       7.167   7.731  22.468  1.00  0.00     0.028 C 
HETATM   11  N   UNL     1       7.580   7.133  23.600  1.00  0.00    -0.386 N 
HETATM   12  C   UNL     1       8.023   8.521  21.704  1.00  0.00     0.030 C 
ATOM     13  HN  UNL     1       7.511   6.123  23.728  1.00  0.00     0.160 HD
HETATM   14  C   UNL     1       7.897   8.361  20.325  1.00  0.00     0.014 C 
BRANCH  11  15
HETATM   15  C   UNL     1       8.127   7.996  24.627  1.00  0.00     0.158 C 
BRANCH  15  16
HETATM   16  C   UNL     1       9.482   7.474  24.943  1.00  0.00    -0.041 C 
HETATM   17  C   UNL     1       9.674   6.701  26.070  1.00  0.00     0.009 C 
HETATM   18  C   UNL     1      10.898   6.768  26.721  1.00  0.00     0.001 C 
HETATM   19  C   UNL     1      11.936   7.471  26.146  1.00  0.00     0.000 C 
HETATM   20  C   UNL     1      11.834   7.858  24.819  1.00  0.00     0.001 C 
HETATM   21  C   UNL     1      10.590   7.889  24.229  1.00  0.00     0.009 C 
ENDBRANCH  15  16
ENDBRANCH  11  15
ENDBRANCH   1   7
BRANCH   6  22
HETATM   22  C   UNL     1       8.267   3.896  15.831  1.00  0.00     0.225 C 
HETATM   23  N   UNL     1       7.101   3.380  15.069  1.00  0.00    -0.060 N 
HETATM   24  C   UNL     1       7.763   2.311  14.249  1.00  0.00     0.213 C 
ATOM     25  HN2 UNL     1       6.573   4.077  14.544  1.00  0.00     0.278 HD
ATOM     26  HN1 UNL     1       6.306   3.076  15.632  1.00  0.00     0.278 HD
HETATM   27  C   UNL     1       6.656   1.484  13.606  1.00  0.00     0.042 C 
HETATM   28  C   UNL     1       8.419   1.503  15.371  1.00  0.00     0.222 C 
HETATM   29  N   UNL     1       9.499   0.527  15.578  1.00  0.00    -0.065 N 
HETATM   30  C   UNL     1       8.869   2.607  16.301  1.00  0.00     0.055 C 
HETATM   31  C   UNL     1       9.798   0.668  17.045  1.00  0.00     0.183 C 
ATOM     32  HN2 UNL     1      10.305   0.645  14.964  1.00  0.00     0.278 HD
ATOM     33  HN1 UNL     1       9.281  -0.423  15.276  1.00  0.00     0.278 HD
HETATM   34  C   UNL     1      10.111   2.194  17.031  1.00  0.00     0.041 C 
HETATM   35  C   UNL     1      11.041  -0.154  17.387  1.00  0.00     0.040 C 
ENDBRANCH   6  22
TORSDOF 4
ENDMDL
MODEL 3
REMARK VINA RESULT:      -9.7      1.340      2.693
REMARK  4 active torsions:
REMARK  status: ('A' for Active; 'I' for Inactive)
REMARK    1  A    between atoms: N_1  and  C_33 
REMARK    2  A    between atoms: C_4  and  C_31 
REMARK    3  A    between atoms: C_11  and  C_33 
REMARK    4  A    between atoms: C_12  and  C_29 
ROOT
HETATM    1  C   UNL     1       7.111   5.897  19.409  1.00  0.00    -0.026 C 
HETATM    2  C   UNL     1       6.157   4.918  19.615  1.00  0.00     0.013 C 
HETATM    3  C   UNL     1       8.104   5.680  18.467  1.00  0.00     0.013 C 
HETATM    4  C   UNL     1       6.310   3.668  19.052  1.00  0.00     0.010 C 
HETATM    5  C   UNL     1       8.198   4.454  17.845  1.00  0.00     0.010 C 
HETATM    6  C   UNL     1       7.391   3.404  18.244  1.00  0.00    -0.027 C 
ENDROOT
BRANCH   1   7
HETATM    7  C   UNL     1       7.079   7.068  20.163  1.00  0.00    -0.026 C 
HETATM    8  C   UNL     1       5.901   7.420  20.842  1.00  0.00     0.014 C 
HETATM    9  C   UNL     1       6.055   7.577  22.214  1.00  0.00     0.030 C 
HETATM   10  C   UNL     1       7.362   7.636  22.683  1.00  0.00     0.028 C 
HETATM   11  N   UNL     1       7.646   7.163  23.909  1.00  0.00    -0.386 N 
HETATM   12  C   UNL     1       8.353   8.144  21.847  1.00  0.00     0.030 C 
ATOM     13  HN  UNL     1       7.405   6.212  24.186  1.00  0.00     0.160 HD
HETATM   14  C   UNL     1       8.228   7.793  20.504  1.00  0.00     0.014 C 
BRANCH  11  15
HETATM   15  C   UNL     1       8.313   8.074  24.817  1.00  0.00     0.158 C 
BRANCH  15  16
HETATM   16  C   UNL     1       9.644   7.483  25.112  1.00  0.00    -0.041 C 
HETATM   17  C   UNL     1       9.805   6.675  26.219  1.00  0.00     0.009 C 
HETATM   18  C   UNL     1      11.035   6.670  26.864  1.00  0.00     0.001 C 
HETATM   19  C   UNL     1      12.101   7.337  26.299  1.00  0.00     0.000 C 
HETATM   20  C   UNL     1      12.011   7.761  24.983  1.00  0.00     0.001 C 
HETATM   21  C   UNL     1      10.766   7.863  24.402  1.00  0.00     0.009 C 
ENDBRANCH  15  16
ENDBRANCH  11  15
ENDBRANCH   1   7
BRANCH   6  22
HETATM   22  C   UNL     1       7.673   2.018  17.775  1.00  0.00     0.225 C 
HETATM   23  N   UNL     1       9.086   1.692  18.097  1.00  0.00    -0.060 N 
HETATM   24  C   UNL     1       9.290   0.483  17.230  1.00  0.00     0.213 C 
ATOM     25  HN2 UNL     1       9.296   1.566  19.087  1.00  0.00     0.278 HD
ATOM     26  HN1 UNL     1       9.755   2.450  17.963  1.00  0.00     0.278 HD
HETATM   27  C   UNL     1      10.784   0.178  17.223  1.00  0.00     0.042 C 
HETATM   28  C   UNL     1       8.883   1.073  15.877  1.00  0.00     0.222 C 
HETATM   29  N   UNL     1       8.441   0.641  14.542  1.00  0.00    -0.065 N 
HETATM   30  C   UNL     1       7.718   1.949  16.279  1.00  0.00     0.055 C 
HETATM   31  C   UNL     1       7.758   1.868  14.006  1.00  0.00     0.183 C 
ATOM     32  HN2 UNL     1       7.870  -0.204  14.535  1.00  0.00     0.278 HD
ATOM     33  HN1 UNL     1       9.181   0.268  13.947  1.00  0.00     0.278 HD
HETATM   34  C   UNL     1       6.725   2.034  15.159  1.00  0.00     0.041 C 
HETATM   35  C   UNL     1       7.070   1.524  12.684  1.00  0.00     0.040 C 
ENDBRANCH   6  22
TORSDOF 4
ENDMDL
MODEL 4
REMARK VINA RESULT:      -9.3      1.066      1.752
REMARK  4 active torsions:
REMARK  status: ('A' for Active; 'I' for Inactive)
REMARK    1  A    between atoms: N_1  and  C_33 
REMARK    2  A    between atoms: C_4  and  C_31 
REMARK    3  A    between atoms: C_11  and  C_33 
REMARK    4  A    between atoms: C_12  and  C_29 
ROOT
HETATM    1  C   UNL     1       6.659   6.167  18.075  1.00  0.00    -0.026 C 
HETATM    2  C   UNL     1       6.327   6.307  16.741  1.00  0.00     0.013 C 
HETATM    3  C   UNL     1       7.682   5.301  18.427  1.00  0.00     0.013 C 
HETATM    4  C   UNL     1       6.857   5.449  15.799  1.00  0.00     0.010 C 
HETATM    5  C   UNL     1       8.265   4.508  17.462  1.00  0.00     0.010 C 
HETATM    6  C   UNL     1       7.754   4.479  16.178  1.00  0.00    -0.027 C 
ENDROOT
BRANCH   1   7
HETATM    7  C   UNL     1       5.948   6.870  19.045  1.00  0.00    -0.026 C 
HETATM    8  C   UNL     1       5.056   6.181  19.883  1.00  0.00     0.014 C 
HETATM    9  C   UNL     1       5.326   6.308  21.239  1.00  0.00     0.030 C 
HETATM   10  C   UNL     1       6.244   7.290  21.593  1.00  0.00     0.028 C 
HETATM   11  N   UNL     1       7.026   7.106  22.672  1.00  0.00    -0.386 N 
HETATM   12  C   UNL     1       6.361   8.421  20.790  1.00  0.00     0.030 C 
ATOM     13  HN  UNL     1       7.610   6.276  22.776  1.00  0.00     0.160 HD
HETATM   14  C   UNL     1       6.255   8.185  19.420  1.00  0.00     0.014 C 
BRANCH  11  15
HETATM   15  C   UNL     1       6.996   8.146  23.679  1.00  0.00     0.158 C 
BRANCH  15  16
HETATM   16  C   UNL     1       8.406   8.393  24.078  1.00  0.00    -0.041 C 
HETATM   17  C   UNL     1       9.271   9.007  23.195  1.00  0.00     0.009 C 
HETATM   18  C   UNL     1      10.616   8.666  23.238  1.00  0.00     0.001 C 
HETATM   19  C   UNL     1      11.080   7.856  24.253  1.00  0.00     0.000 C 
HETATM   20  C   UNL     1      10.271   7.624  25.354  1.00  0.00     0.001 C 
HETATM   21  C   UNL     1       8.919   7.867  25.248  1.00  0.00     0.009 C 
ENDBRANCH  15  16
ENDBRANCH  11  15
ENDBRANCH   1   7
BRANCH   6  22
HETATM   22  C   UNL     1       8.197   3.432  15.215  1.00  0.00     0.225 C 
HETATM   23  N   UNL     1       6.993   2.749  14.676  1.00  0.00    -0.060 N 
HETATM   24  C   UNL     1       7.620   1.525  14.075  1.00  0.00     0.213 C 
ATOM     25  HN2 UNL     1       6.415   3.305  14.045  1.00  0.00     0.278 HD
ATOM     26  HN1 UNL     1       6.245   2.578  15.348  1.00  0.00     0.278 HD
HETATM   27  C   UNL     1       6.490   0.566  13.718  1.00  0.00     0.042 C 
HETATM   28  C   UNL     1       8.368   0.997  15.302  1.00  0.00     0.222 C 
HETATM   29  N   UNL     1       9.480   0.100  15.648  1.00  0.00    -0.065 N 
HETATM   30  C   UNL     1       8.857   2.287  15.922  1.00  0.00     0.055 C 
HETATM   31  C   UNL     1       9.875   0.574  17.019  1.00  0.00     0.183 C 
ATOM     32  HN2 UNL     1      10.240   0.079  14.968  1.00  0.00     0.278 HD
ATOM     33  HN1 UNL     1       9.262  -0.895  15.586  1.00  0.00     0.278 HD
HETATM   34  C   UNL     1      10.155   2.057  16.637  1.00  0.00     0.041 C 
HETATM   35  C   UNL     1      11.156  -0.142  17.450  1.00  0.00     0.040 C 
ENDBRANCH   6  22
TORSDOF 4
ENDMDL
MODEL 5
REMARK VINA RESULT:      -8.9      1.991      9.008
REMARK  4 active torsions:
REMARK  status: ('A' for Active; 'I' for Inactive)
REMARK    1  A    between atoms: N_1  and  C_33 
REMARK    2  A    between atoms: C_4  and  C_31 
REMARK    3  A    between atoms: C_11  and  C_33 
REMARK    4  A    between atoms: C_12  and  C_29 
ROOT
HETATM    1  C   UNL     1       5.768   4.585  19.589  1.00  0.00    -0.026 C 
HETATM    2  C   UNL     1       4.739   5.212  20.265  1.00  0.00     0.013 C 
HETATM    3  C   UNL     1       7.054   5.092  19.701  1.00  0.00     0.013 C 
HETATM    4  C   UNL     1       4.946   6.437  20.867  1.00  0.00     0.010 C 
HETATM    5  C   UNL     1       7.263   6.273  20.378  1.00  0.00     0.010 C 
HETATM    6  C   UNL     1       6.191   7.018  20.835  1.00  0.00    -0.027 C 
ENDROOT
BRANCH   1   7
HETATM    7  C   UNL     1       5.500   3.478  18.787  1.00  0.00    -0.026 C 
HETATM    8  C   UNL     1       4.627   3.612  17.695  1.00  0.00     0.014 C 
HETATM    9  C   UNL     1       5.183   3.268  16.469  1.00  0.00     0.030 C 
HETATM   10  C   UNL     1       6.400   2.597  16.513  1.00  0.00     0.028 C 
HETATM   11  N   UNL     1       7.289   2.775  15.520  1.00  0.00    -0.386 N 
HETATM   12  C   UNL     1       6.684   1.792  17.614  1.00  0.00     0.030 C 
ATOM     13  HN  UNL     1       7.612   3.704  15.249  1.00  0.00     0.160 HD
HETATM   14  C   UNL     1       6.247   2.294  18.839  1.00  0.00     0.014 C 
BRANCH  11  15
HETATM   15  C   UNL     1       7.764   1.579  14.854  1.00  0.00     0.158 C 
BRANCH  15  16
HETATM   16  C   UNL     1       9.084   1.255  15.453  1.00  0.00    -0.041 C 
HETATM   17  C   UNL     1       9.478  -0.063  15.572  1.00  0.00     0.009 C 
HETATM   18  C   UNL     1      10.293  -0.419  16.638  1.00  0.00     0.001 C 
HETATM   19  C   UNL     1      10.815   0.564  17.452  1.00  0.00     0.000 C 
HETATM   20  C   UNL     1      10.752   1.885  17.039  1.00  0.00     0.001 C 
HETATM   21  C   UNL     1       9.855   2.231  16.054  1.00  0.00     0.009 C 
ENDBRANCH  15  16
ENDBRANCH  11  15
ENDBRANCH   1   7
BRANCH   6  22
HETATM   22  C   UNL     1       6.395   8.413  21.316  1.00  0.00     0.225 C 
HETATM   23  N   UNL     1       6.663   9.281  20.141  1.00  0.00    -0.060 N 
HETATM   24  C   UNL     1       7.219  10.498  20.822  1.00  0.00     0.213 C 
ATOM     25  HN2 UNL     1       5.869   9.445  19.522  1.00  0.00     0.278 HD
ATOM     26  HN1 UNL     1       7.253   8.872  19.416  1.00  0.00     0.278 HD
HETATM   27  C   UNL     1       7.812  11.391  19.739  1.00  0.00     0.042 C 
HETATM   28  C   UNL     1       8.350   9.844  21.621  1.00  0.00     0.222 C 
HETATM   29  N   UNL     1       9.207  10.106  22.787  1.00  0.00    -0.065 N 
HETATM   30  C   UNL     1       7.694   8.552  22.051  1.00  0.00     0.055 C 
HETATM   31  C   UNL     1       9.660   8.727  23.181  1.00  0.00     0.183 C 
ATOM     32  HN2 UNL     1       8.762  10.640  23.533  1.00  0.00     0.278 HD
ATOM     33  HN1 UNL     1       9.961  10.772  22.621  1.00  0.00     0.278 HD
HETATM   34  C   UNL     1       8.244   8.107  23.372  1.00  0.00     0.041 C 
HETATM   35  C   UNL     1      10.418   8.807  24.507  1.00  0.00     0.040 C 
ENDBRANCH   6  22
TORSDOF 4
ENDMDL
MODEL 6
REMARK VINA RESULT:      -8.8      1.956      9.142
REMARK  4 active torsions:
REMARK  status: ('A' for Active; 'I' for Inactive)
REMARK    1  A    between atoms: N_1  and  C_33 
REMARK    2  A    between atoms: C_4  and  C_31 
REMARK    3  A    between atoms: C_11  and  C_33 
REMARK    4  A    between atoms: C_12  and  C_29 
ROOT
HETATM    1  C   UNL     1       7.771   8.196  21.485  1.00  0.00    -0.026 C 
HETATM    2  C   UNL     1       9.107   8.540  21.403  1.00  0.00     0.013 C 
HETATM    3  C   UNL     1       7.171   8.118  22.733  1.00  0.00     0.013 C 
HETATM    4  C   UNL     1       9.881   8.598  22.544  1.00  0.00     0.010 C 
HETATM    5  C   UNL     1       7.939   8.263  23.867  1.00  0.00     0.010 C 
HETATM    6  C   UNL     1       9.315   8.358  23.774  1.00  0.00    -0.027 C 
ENDROOT
BRANCH   1   7
HETATM    7  C   UNL     1       7.055   7.906  20.326  1.00  0.00    -0.026 C 
HETATM    8  C   UNL     1       7.505   8.409  19.094  1.00  0.00     0.014 C 
HETATM    9  C   UNL     1       7.758   7.437  18.134  1.00  0.00     0.030 C 
HETATM   10  C   UNL     1       7.286   6.159  18.415  1.00  0.00     0.028 C 
HETATM   11  N   UNL     1       7.959   5.090  17.955  1.00  0.00    -0.386 N 
HETATM   12  C   UNL     1       6.149   6.022  19.208  1.00  0.00     0.030 C 
ATOM     13  HN  UNL     1       8.952   4.956  18.151  1.00  0.00     0.160 HD
HETATM   14  C   UNL     1       6.056   6.927  20.264  1.00  0.00     0.014 C 
BRANCH  11  15
HETATM   15  C   UNL     1       7.204   4.138  17.167  1.00  0.00     0.158 C 
BRANCH  15  16
HETATM   16  C   UNL     1       8.077   2.951  16.981  1.00  0.00    -0.041 C 
HETATM   17  C   UNL     1       7.931   1.855  17.808  1.00  0.00     0.009 C 
HETATM   18  C   UNL     1       9.053   1.093  18.105  1.00  0.00     0.001 C 
HETATM   19  C   UNL     1      10.239   1.346  17.450  1.00  0.00     0.000 C 
HETATM   20  C   UNL     1      10.229   2.154  16.325  1.00  0.00     0.001 C 
HETATM   21  C   UNL     1       9.151   2.984  16.113  1.00  0.00     0.009 C 
ENDBRANCH  15  16
ENDBRANCH  11  15
ENDBRANCH   1   7
BRANCH   6  22
HETATM   22  C   UNL     1      10.163   8.237  24.993  1.00  0.00     0.225 C 
HETATM   23  N   UNL     1      11.578   8.090  24.569  1.00  0.00    -0.060 N 
HETATM   24  C   UNL     1      12.196   7.595  25.845  1.00  0.00     0.213 C 
ATOM     25  HN2 UNL     1      12.007   8.922  24.164  1.00  0.00     0.278 HD
ATOM     26  HN1 UNL     1      11.734   7.506  23.747  1.00  0.00     0.278 HD
HETATM   27  C   UNL     1      13.606   7.122  25.512  1.00  0.00     0.042 C 
HETATM   28  C   UNL     1      11.298   6.382  26.104  1.00  0.00     0.222 C 
HETATM   29  N   UNL     1      10.889   5.492  27.201  1.00  0.00    -0.065 N 
HETATM   30  C   UNL     1       9.951   6.919  25.674  1.00  0.00     0.055 C 
HETATM   31  C   UNL     1       9.593   4.920  26.699  1.00  0.00     0.183 C 
ATOM     32  HN2 UNL     1      10.834   5.940  28.116  1.00  0.00     0.278 HD
ATOM     33  HN1 UNL     1      11.587   4.799  27.471  1.00  0.00     0.278 HD
HETATM   34  C   UNL     1       8.859   6.275  26.474  1.00  0.00     0.041 C 
HETATM   35  C   UNL     1       8.935   4.108  27.816  1.00  0.00     0.040 C 
ENDBRANCH   6  22
TORSDOF 4
ENDMDL
MODEL 7
REMARK VINA RESULT:      -8.5      1.970     10.192
REMARK  4 active torsions:
REMARK  status: ('A' for Active; 'I' for Inactive)
REMARK    1  A    between atoms: N_1  and  C_33 
REMARK    2  A    between atoms: C_4  and  C_31 
REMARK    3  A    between atoms: C_11  and  C_33 
REMARK    4  A    between atoms: C_12  and  C_29 
ROOT
HETATM    1  C   UNL     1       7.992   4.428  18.654  1.00  0.00    -0.026 C 
HETATM    2  C   UNL     1       8.359   5.628  18.076  1.00  0.00     0.013 C 
HETATM    3  C   UNL     1       7.083   4.434  19.701  1.00  0.00     0.013 C 
HETATM    4  C   UNL     1       7.994   6.823  18.663  1.00  0.00     0.010 C 
HETATM    5  C   UNL     1       6.658   5.635  20.225  1.00  0.00     0.010 C 
HETATM    6  C   UNL     1       7.225   6.824  19.802  1.00  0.00    -0.027 C 
ENDROOT
BRANCH   1   7
HETATM    7  C   UNL     1       8.556   3.237  18.200  1.00  0.00    -0.026 C 
HETATM    8  C   UNL     1       8.075   2.014  18.695  1.00  0.00     0.014 C 
HETATM    9  C   UNL     1       7.606   1.144  17.719  1.00  0.00     0.030 C 
HETATM   10  C   UNL     1       7.917   1.471  16.404  1.00  0.00     0.028 C 
HETATM   11  N   UNL     1       7.063   1.138  15.420  1.00  0.00    -0.386 N 
HETATM   12  C   UNL     1       9.088   2.180  16.146  1.00  0.00     0.030 C 
ATOM     13  HN  UNL     1       6.082   1.419  15.442  1.00  0.00     0.160 HD
HETATM   14  C   UNL     1       9.399   3.163  17.084  1.00  0.00     0.014 C 
BRANCH  11  15
HETATM   15  C   UNL     1       7.606   0.358  14.326  1.00  0.00     0.158 C 
BRANCH  15  16
HETATM   16  C   UNL     1       6.488  -0.461  13.791  1.00  0.00    -0.041 C 
HETATM   17  C   UNL     1       5.187  -0.023  13.936  1.00  0.00     0.009 C 
HETATM   18  C   UNL     1       4.179  -0.969  14.070  1.00  0.00     0.001 C 
HETATM   19  C   UNL     1       4.473  -2.305  13.896  1.00  0.00     0.000 C 
HETATM   20  C   UNL     1       5.685  -2.660  13.325  1.00  0.00     0.001 C 
HETATM   21  C   UNL     1       6.706  -1.736  13.306  1.00  0.00     0.009 C 
ENDBRANCH  15  16
ENDBRANCH  11  15
ENDBRANCH   1   7
BRANCH   6  22
HETATM   22  C   UNL     1       6.972   8.087  20.551  1.00  0.00     0.225 C 
HETATM   23  N   UNL     1       7.085   9.225  19.604  1.00  0.00    -0.060 N 
HETATM   24  C   UNL     1       7.201  10.371  20.568  1.00  0.00     0.213 C 
ATOM     25  HN2 UNL     1       6.336   9.302  18.915  1.00  0.00     0.278 HD
ATOM     26  HN1 UNL     1       7.830   9.152  18.912  1.00  0.00     0.278 HD
HETATM   27  C   UNL     1       7.607  11.600  19.763  1.00  0.00     0.042 C 
HETATM   28  C   UNL     1       8.395   9.883  21.393  1.00  0.00     0.222 C 
HETATM   29  N   UNL     1       9.032  10.106  22.700  1.00  0.00    -0.065 N 
HETATM   30  C   UNL     1       8.104   8.403  21.482  1.00  0.00     0.055 C 
HETATM   31  C   UNL     1       9.825   8.845  22.902  1.00  0.00     0.183 C 
ATOM     32  HN2 UNL     1       8.386  10.331  23.457  1.00  0.00     0.278 HD
ATOM     33  HN1 UNL     1       9.573  10.968  22.771  1.00  0.00     0.278 HD
HETATM   34  C   UNL     1       8.637   7.847  22.768  1.00  0.00     0.041 C 
HETATM   35  C   UNL     1      10.405   8.836  24.317  1.00  0.00     0.040 C 
ENDBRANCH   6  22
TORSDOF 4
ENDMDL
MODEL 8
REMARK VINA RESULT:      -8.5      1.611      2.631
REMARK  4 active torsions:
REMARK  status: ('A' for Active; 'I' for Inactive)
REMARK    1  A    between atoms: N_1  and  C_33 
REMARK    2  A    between atoms: C_4  and  C_31 
REMARK    3  A    between atoms: C_11  and  C_33 
REMARK    4  A    between atoms: C_12  and  C_29 
ROOT
HETATM    1  C   UNL     1       7.604   6.289  18.129  1.00  0.00    -0.026 C 
HETATM    2  C   UNL     1       7.012   6.197  16.883  1.00  0.00     0.013 C 
HETATM    3  C   UNL     1       8.401   5.246  18.574  1.00  0.00     0.013 C 
HETATM    4  C   UNL     1       7.040   5.006  16.186  1.00  0.00     0.010 C 
HETATM    5  C   UNL     1       8.491   4.091  17.827  1.00  0.00     0.010 C 
HETATM    6  C   UNL     1       7.697   3.918  16.708  1.00  0.00    -0.027 C 
ENDROOT
BRANCH   1   7
HETATM    7  C   UNL     1       7.371   7.406  18.928  1.00  0.00    -0.026 C 
HETATM    8  C   UNL     1       6.379   7.350  19.921  1.00  0.00     0.014 C 
HETATM    9  C   UNL     1       6.837   7.613  21.205  1.00  0.00     0.030 C 
HETATM   10  C   UNL     1       8.116   8.150  21.304  1.00  0.00     0.028 C 
HETATM   11  N   UNL     1       8.872   7.863  22.378  1.00  0.00    -0.386 N 
HETATM   12  C   UNL     1       8.597   8.936  20.260  1.00  0.00     0.030 C 
ATOM     13  HN  UNL     1       9.066   6.900  22.657  1.00  0.00     0.160 HD
HETATM   14  C   UNL     1       8.240   8.504  18.984  1.00  0.00     0.014 C 
BRANCH  11  15
HETATM   15  C   UNL     1       9.398   8.990  23.121  1.00  0.00     0.158 C 
BRANCH  15  16
HETATM   16  C   UNL     1       9.838   8.464  24.439  1.00  0.00    -0.041 C 
HETATM   17  C   UNL     1      11.184   8.382  24.730  1.00  0.00     0.009 C 
HETATM   18  C   UNL     1      11.622   7.363  25.566  1.00  0.00     0.001 C 
HETATM   19  C   UNL     1      10.698   6.565  26.206  1.00  0.00     0.000 C 
HETATM   20  C   UNL     1       9.370   6.958  26.230  1.00  0.00     0.001 C 
HETATM   21  C   UNL     1       8.936   7.891  25.315  1.00  0.00     0.009 C 
ENDBRANCH  15  16
ENDBRANCH  11  15
ENDBRANCH   1   7
BRANCH   6  22
HETATM   22  C   UNL     1       7.588   2.579  16.064  1.00  0.00     0.225 C 
HETATM   23  N   UNL     1       7.839   2.736  14.609  1.00  0.00    -0.060 N 
HETATM   24  C   UNL     1       7.308   1.428  14.098  1.00  0.00     0.213 C 
ATOM     25  HN2 UNL     1       8.800   2.955  14.347  1.00  0.00     0.278 HD
ATOM     26  HN1 UNL     1       7.441   3.572  14.180  1.00  0.00     0.278 HD
HETATM   27  C   UNL     1       7.231   1.532  12.579  1.00  0.00     0.042 C 
HETATM   28  C   UNL     1       5.896   1.482  14.686  1.00  0.00     0.222 C 
HETATM   29  N   UNL     1       4.777   0.589  15.024  1.00  0.00    -0.065 N 
HETATM   30  C   UNL     1       6.167   2.101  16.039  1.00  0.00     0.055 C 
HETATM   31  C   UNL     1       4.006   1.392  16.035  1.00  0.00     0.183 C 
ATOM     32  HN2 UNL     1       5.053  -0.341  15.338  1.00  0.00     0.278 HD
ATOM     33  HN1 UNL     1       4.231   0.269  14.225  1.00  0.00     0.278 HD
HETATM   34  C   UNL     1       5.173   1.604  17.044  1.00  0.00     0.041 C 
HETATM   35  C   UNL     1       2.901   0.520  16.633  1.00  0.00     0.040 C 
ENDBRANCH   6  22
TORSDOF 4
ENDMDL
MODEL 9
REMARK VINA RESULT:      -8.3      3.127      3.709
REMARK  4 active torsions:
REMARK  status: ('A' for Active; 'I' for Inactive)
REMARK    1  A    between atoms: N_1  and  C_33 
REMARK    2  A    between atoms: C_4  and  C_31 
REMARK    3  A    between atoms: C_11  and  C_33 
REMARK    4  A    between atoms: C_12  and  C_29 
ROOT
HETATM    1  C   UNL     1       7.248   6.255  18.506  1.00  0.00    -0.026 C 
HETATM    2  C   UNL     1       6.043   6.153  17.838  1.00  0.00     0.013 C 
HETATM    3  C   UNL     1       8.028   5.120  18.665  1.00  0.00     0.013 C 
HETATM    4  C   UNL     1       5.526   4.913  17.523  1.00  0.00     0.010 C 
HETATM    5  C   UNL     1       7.537   3.896  18.268  1.00  0.00     0.010 C 
HETATM    6  C   UNL     1       6.231   3.774  17.831  1.00  0.00    -0.027 C 
ENDROOT
BRANCH   1   7
HETATM    7  C   UNL     1       7.649   7.482  19.031  1.00  0.00    -0.026 C 
HETATM    8  C   UNL     1       6.767   8.202  19.853  1.00  0.00     0.014 C 
HETATM    9  C   UNL     1       7.265   8.487  21.118  1.00  0.00     0.030 C 
HETATM   10  C   UNL     1       8.625   8.273  21.306  1.00  0.00     0.028 C 
HETATM   11  N   UNL     1       9.075   7.902  22.518  1.00  0.00    -0.386 N 
HETATM   12  C   UNL     1       9.483   8.404  20.217  1.00  0.00     0.030 C 
ATOM     13  HN  UNL     1       8.701   7.084  23.002  1.00  0.00     0.160 HD
HETATM   14  C   UNL     1       8.977   7.930  19.008  1.00  0.00     0.014 C 
BRANCH  11  15
HETATM   15  C   UNL     1      10.116   8.721  23.103  1.00  0.00     0.158 C 
BRANCH  15  16
HETATM   16  C   UNL     1      10.294   8.251  24.501  1.00  0.00    -0.041 C 
HETATM   17  C   UNL     1      11.563   8.016  24.989  1.00  0.00     0.009 C 
HETATM   18  C   UNL     1      11.735   7.020  25.941  1.00  0.00     0.001 C 
HETATM   19  C   UNL     1      10.628   6.406  26.489  1.00  0.00     0.000 C 
HETATM   20  C   UNL     1       9.378   6.972  26.295  1.00  0.00     0.001 C 
HETATM   21  C   UNL     1       9.210   7.876  25.271  1.00  0.00     0.009 C 
ENDBRANCH  15  16
ENDBRANCH  11  15
ENDBRANCH   1   7
BRANCH   6  22
HETATM   22  C   UNL     1       5.616   2.427  17.666  1.00  0.00     0.225 C 
HETATM   23  N   UNL     1       4.584   2.509  16.600  1.00  0.00    -0.060 N 
HETATM   24  C   UNL     1       3.832   1.234  16.850  1.00  0.00     0.213 C 
ATOM     25  HN2 UNL     1       4.937   2.636  15.652  1.00  0.00     0.278 HD
ATOM     26  HN1 UNL     1       4.021   3.360  16.596  1.00  0.00     0.278 HD
HETATM   27  C   UNL     1       2.556   1.291  16.018  1.00  0.00     0.042 C 
HETATM   28  C   UNL     1       3.487   1.431  18.328  1.00  0.00     0.222 C 
HETATM   29  N   UNL     1       3.090   0.651  19.510  1.00  0.00    -0.065 N 
HETATM   30  C   UNL     1       4.756   2.073  18.841  1.00  0.00     0.055 C 
HETATM   31  C   UNL     1       3.477   1.553  20.649  1.00  0.00     0.183 C 
ATOM     32  HN2 UNL     1       3.486  -0.288  19.555  1.00  0.00     0.278 HD
ATOM     33  HN1 UNL     1       2.115   0.350  19.515  1.00  0.00     0.278 HD
HETATM   34  C   UNL     1       4.982   1.700  20.275  1.00  0.00     0.041 C 
HETATM   35  C   UNL     1       3.300   0.802  21.969  1.00  0.00     0.040 C 
ENDBRANCH   6  22
TORSDOF 4
ENDMDL
