REMARK  6 active torsions:
REMARK  status: ('A' for Active; 'I' for Inactive)
REMARK    1  A    between atoms: C_4  and  C_30 
REMARK    2  A    between atoms: C_5  and  O_28 
REMARK    3  A    between atoms: C_14  and  C_15 
REMARK    4  A    between atoms: C_14  and  C_30 
REMARK    5  A    between atoms: C_19  and  C_25 
REMARK    6  A    between atoms: C_23  and  O_28 
ROOT
HETATM    1  C   UNL     1       7.350   7.717  20.927  1.00  0.00     0.056 C 
HETATM    2  C   UNL     1       8.862   9.643  20.643  1.00  0.00     0.003 C 
HETATM    3  C   UNL     1       8.054   8.630  20.065  1.00  0.00     0.024 C 
HETATM    4  C   UNL     1       8.562   8.631  22.885  1.00  0.00     0.042 C 
HETATM    5  C   UNL     1       7.265   8.079  22.373  1.00  0.00     0.202 C 
HETATM    6  C   UNL     1       9.154   9.601  22.028  1.00  0.00     0.018 C 
HETATM    7  O   UNL     1       6.224   8.027  23.051  1.00  0.00    -0.286 OA
ENDROOT
BRANCH   4   8
HETATM    8  C   UNL     1       9.242   8.018  24.034  1.00  0.00     0.052 C 
HETATM    9  N   UNL     1      10.592   8.145  24.194  1.00  0.00    -0.320 N 
HETATM   10  C   UNL     1      11.031   7.394  25.218  1.00  0.00     0.280 C 
ATOM     11  HN  UNL     1      11.189   8.733  23.612  1.00  0.00     0.169 HD
HETATM   12  C   UNL     1       9.866   6.548  25.639  1.00  0.00     0.146 C 
HETATM   13  O   UNL     1      12.201   7.296  25.621  1.00  0.00    -0.265 OA
HETATM   14  C   UNL     1       8.738   7.126  25.040  1.00  0.00     0.073 C 
BRANCH  12  15
HETATM   15  O   UNL     1      10.028   5.431  26.469  1.00  0.00    -0.305 OA
BRANCH  15  16
HETATM   16  C   UNL     1       9.684   4.181  26.963  1.00  0.00     0.076 C 
HETATM   17  C   UNL     1       9.463   4.125  28.352  1.00  0.00     0.037 C 
HETATM   18  C   UNL     1       9.252   3.091  29.263  1.00  0.00     0.003 C 
HETATM   19  C   UNL     1       8.783   1.796  29.011  1.00  0.00     0.000 C 
HETATM   20  C   UNL     1       8.892   1.171  27.773  1.00  0.00     0.000 C 
HETATM   21  C   UNL     1       9.339   1.722  26.577  1.00  0.00     0.003 C 
HETATM   22  C   UNL     1       9.713   3.006  26.162  1.00  0.00     0.037 C 
ENDBRANCH  15  16
ENDBRANCH  12  15
ENDBRANCH   4   8
BRANCH   1  23
HETATM   23  C   UNL     1       6.890   6.455  20.442  1.00  0.00    -0.140 C 
BRANCH  23  24
HETATM   24  C   UNL     1       6.449   5.464  19.841  1.00  0.00     0.095 C 
BRANCH  24  25
HETATM   25  C   UNL     1       6.620   4.232  18.982  1.00  0.00    -0.034 C 
HETATM   26  C   UNL     1       6.125   4.504  17.555  1.00  0.00     0.016 C 
HETATM   27  C   UNL     1       8.104   3.871  18.964  1.00  0.00     0.010 C 
HETATM   28  C   UNL     1       8.526   2.415  18.866  1.00  0.00     0.001 C 
HETATM   29  C   UNL     1       7.493   1.334  18.702  1.00  0.00     0.000 C 
HETATM   30  C   UNL     1       6.060   1.709  18.988  1.00  0.00     0.001 C 
HETATM   31  C   UNL     1       5.789   3.087  19.600  1.00  0.00     0.010 C 
ENDBRANCH  24  25
ENDBRANCH  23  24
ENDBRANCH   1  23
TORSDOF 6
