REMARK  7 active torsions:
REMARK  status: ('A' for Active; 'I' for Inactive)
REMARK    1  A    between atoms: C_2  and  O_8 
REMARK    2  A    between atoms: C_4  and  C_22 
REMARK    3  A    between atoms: C_4  and  C_24 
REMARK    4  A    between atoms: C_6  and  O_11 
REMARK    5  A    between atoms: C_15  and  C_16 
REMARK    6  A    between atoms: C_15  and  C_25 
REMARK    7  A    between atoms: C_24  and  C_25 
ROOT
HETATM    1  C   UNL     1      -0.486  13.099  15.892  1.00  0.00     0.015 C 
HETATM    2  C   UNL     1       0.353   8.001  18.695  1.00  0.00     0.151 C 
HETATM    3  C   UNL     1      -0.683  11.593  17.958  1.00  0.00     0.008 C 
HETATM    4  C   UNL     1       1.737  12.148  15.380  1.00  0.00     0.015 C 
HETATM    5  C   UNL     1       1.038   7.587  17.459  1.00  0.00     0.151 C 
HETATM    6  C   UNL     1       0.818  10.008  16.665  1.00  0.00    -0.049 C 
HETATM    7  C   UNL     1       1.653  10.909  15.939  1.00  0.00     0.009 C 
HETATM    8  C   UNL     1       0.798  13.234  15.355  1.00  0.00     0.010 C 
HETATM    9  C   UNL     1      -1.086  12.415  16.927  1.00  0.00     0.002 C 
HETATM   10  C   UNL     1      -0.057   9.410  19.015  1.00  0.00     0.073 C 
HETATM   11  C   UNL     1       0.920   8.544  16.287  1.00  0.00     0.073 C 
HETATM   12  C   UNL     1       0.016  10.365  17.843  1.00  0.00    -0.049 C 
ENDROOT
BRANCH   8  13
HETATM   13  C   UNL     1       1.064  14.540  14.616  1.00  0.00     0.163 C 
HETATM   14  O   UNL     1       2.040  14.695  13.881  1.00  0.00    -0.292 OA
BRANCH  13  15
HETATM   15  C   UNL     1       0.102  15.711  14.812  1.00  0.00     0.057 C 
HETATM   16  C   UNL     1      -1.246  15.525  14.148  1.00  0.00     0.018 C 
BRANCH  15  17
HETATM   17  C   UNL     1       0.702  17.076  14.473  1.00  0.00     0.016 C 
BRANCH  17  18
HETATM   18  C   UNL     1       0.315  18.215  15.410  1.00  0.00     0.039 C 
BRANCH  18  19
HETATM   19  C   UNL     1       1.407  19.250  15.520  1.00  0.00    -0.057 C 
HETATM   20  C   UNL     1       1.830  19.894  14.380  1.00  0.00     0.008 C 
HETATM   21  C   UNL     1       2.828  20.798  14.220  1.00  0.00     0.017 C 
HETATM   22  C   UNL     1       3.473  21.611  15.108  1.00  0.00     0.087 C 
HETATM   23  N   UNL     1       3.447  21.511  16.440  1.00  0.00    -0.375 N 
HETATM   24  C   UNL     1       2.895  20.502  17.066  1.00  0.00     0.088 C 
ATOM     25  HN  UNL     1       3.876  22.253  16.993  1.00  0.00     0.164 HD
HETATM   26  C   UNL     1       1.993  19.531  16.742  1.00  0.00     0.024 C 
ENDBRANCH  18  19
ENDBRANCH  17  18
ENDBRANCH  15  17
ENDBRANCH  13  15
ENDBRANCH   8  13
BRANCH   5  27
HETATM   27  O   UNL     1       2.338   7.125  17.699  1.00  0.00    -0.393 OA
ATOM     28  HO  UNL     1       2.780   6.858  16.902  1.00  0.00     0.210 HD
ENDBRANCH   5  27
BRANCH   2  29
HETATM   29  O   UNL     1       0.356   7.123  19.771  1.00  0.00    -0.393 OA
ATOM     30  HO  UNL     1      -0.086   7.390  20.568  1.00  0.00     0.210 HD
ENDBRANCH   2  29
TORSDOF 7
