MODEL 1
REMARK VINA RESULT:     -10.8      0.000      0.000
REMARK  1 active torsions:
REMARK  status: ('A' for Active; 'I' for Inactive)
REMARK    1  A    between atoms: C_2  and  O_19 
ROOT
HETATM    1  C   UNL     1      50.716  42.046  -3.567  1.00  0.00     0.053 C 
HETATM    2  C   UNL     1      54.858  46.939   0.453  1.00  0.00     0.066 C 
HETATM    3  N   UNL     1      49.016  40.875  -4.913  1.00  0.00    -0.062 N 
ATOM      4  HN1 UNL     1      48.512  40.797  -5.796  1.00  0.00     0.278 HD
ATOM      5  HN2 UNL     1      49.628  40.066  -5.018  1.00  0.00     0.278 HD
HETATM    6  C   UNL     1      50.641  42.475  -6.044  1.00  0.00     0.040 C 
HETATM    7  C   UNL     1      51.780  44.179  -2.379  1.00  0.00     0.000 C 
HETATM    8  C   UNL     1      51.563  45.484  -0.339  1.00  0.00     0.013 C 
HETATM    9  C   UNL     1      51.024  44.583  -1.248  1.00  0.00     0.015 C 
HETATM   10  C   UNL     1      48.096  40.736  -3.726  1.00  0.00     0.216 C 
HETATM   11  C   UNL     1      53.459  46.828   0.433  1.00  0.00     0.049 C 
HETATM   12  N   UNL     1      53.159  44.717  -4.086  1.00  0.00    -0.358 N 
ATOM     13  HN  UNL     1      53.862  45.194  -4.650  1.00  0.00     0.166 HD
HETATM   14  C   UNL     1      52.964  44.877  -2.733  1.00  0.00     0.054 C 
HETATM   15  C   UNL     1      48.609  40.334  -1.176  1.00  0.00    -0.020 C 
HETATM   16  C   UNL     1      54.943  46.082  -1.824  1.00  0.00     0.017 C 
HETATM   17  C   UNL     1      49.784  42.148  -4.818  1.00  0.00     0.195 C 
HETATM   18  C   UNL     1      52.867  46.006  -0.542  1.00  0.00    -0.021 C 
HETATM   19  C   UNL     1      53.595  45.683  -1.726  1.00  0.00     0.002 C 
HETATM   20  C   UNL     1      47.448  39.375  -3.909  1.00  0.00     0.006 C 
HETATM   21  C   UNL     1      49.709  42.121  -2.405  1.00  0.00     0.022 C 
HETATM   22  C   UNL     1      55.539  46.794  -0.773  1.00  0.00     0.037 C 
HETATM   23  C   UNL     1      51.822  43.429  -5.946  1.00  0.00     0.059 C 
HETATM   24  C   UNL     1      47.247  38.393  -2.994  1.00  0.00    -0.002 C 
HETATM   25  C   UNL     1      52.238  43.800  -4.547  1.00  0.00     0.017 C 
HETATM   26  C   UNL     1      49.050  40.751  -2.513  1.00  0.00     0.043 C 
HETATM   27  C   UNL     1      47.457  38.204  -1.625  1.00  0.00    -0.001 C 
HETATM   28  C   UNL     1      51.529  43.298  -3.460  1.00  0.00    -0.017 C 
HETATM   29  C   UNL     1      48.056  39.164  -0.744  1.00  0.00    -0.004 C 
ENDROOT
BRANCH   2  30
HETATM   30  O   UNL     1      55.411  47.753   1.402  1.00  0.00    -0.361 OA
ATOM     31  HO  UNL     1      54.819  48.281   1.925  1.00  0.00     0.217 HD
ENDBRANCH   2  30
TORSDOF 1
ENDMDL
MODEL 2
REMARK VINA RESULT:     -10.1      3.289      8.131
REMARK  1 active torsions:
REMARK  status: ('A' for Active; 'I' for Inactive)
REMARK    1  A    between atoms: C_2  and  O_19 
ROOT
HETATM    1  C   UNL     1      53.199  45.053  -2.058  1.00  0.00     0.053 C 
HETATM    2  C   UNL     1      48.486  39.143  -2.392  1.00  0.00     0.066 C 
HETATM    3  N   UNL     1      54.374  47.207  -2.298  1.00  0.00    -0.062 N 
ATOM      4  HN1 UNL     1      54.375  48.215  -2.144  1.00  0.00     0.278 HD
ATOM      5  HN2 UNL     1      55.044  46.944  -1.575  1.00  0.00     0.278 HD
HETATM    6  C   UNL     1      52.362  47.029  -0.748  1.00  0.00     0.040 C 
HETATM    7  C   UNL     1      51.164  43.377  -2.441  1.00  0.00     0.000 C 
HETATM    8  C   UNL     1      50.287  41.856  -4.122  1.00  0.00     0.013 C 
HETATM    9  C   UNL     1      51.090  42.939  -3.788  1.00  0.00     0.015 C 
HETATM   10  C   UNL     1      54.862  46.847  -3.679  1.00  0.00     0.216 C 
HETATM   11  C   UNL     1      48.813  40.026  -3.433  1.00  0.00     0.049 C 
HETATM   12  N   UNL     1      50.124  43.847  -0.491  1.00  0.00    -0.358 N 
ATOM     13  HN  UNL     1      49.450  43.838   0.275  1.00  0.00     0.166 HD
HETATM   14  C   UNL     1      50.235  42.897  -1.481  1.00  0.00     0.054 C 
HETATM   15  C   UNL     1      55.615  44.542  -4.702  1.00  0.00    -0.020 C 
HETATM   16  C   UNL     1      48.907  40.914  -0.776  1.00  0.00     0.017 C 
HETATM   17  C   UNL     1      53.030  46.607  -2.059  1.00  0.00     0.195 C 
HETATM   18  C   UNL     1      49.537  41.191  -3.118  1.00  0.00    -0.021 C 
HETATM   19  C   UNL     1      49.527  41.684  -1.780  1.00  0.00     0.002 C 
HETATM   20  C   UNL     1      56.256  47.445  -3.752  1.00  0.00     0.006 C 
HETATM   21  C   UNL     1      53.489  44.758  -3.542  1.00  0.00     0.022 C 
HETATM   22  C   UNL     1      48.305  39.692  -1.106  1.00  0.00     0.037 C 
HETATM   23  C   UNL     1      51.264  46.185  -0.118  1.00  0.00     0.059 C 
HETATM   24  C   UNL     1      57.402  46.889  -4.221  1.00  0.00    -0.002 C 
HETATM   25  C   UNL     1      51.081  44.814  -0.714  1.00  0.00     0.017 C 
HETATM   26  C   UNL     1      54.907  45.305  -3.666  1.00  0.00     0.043 C 
HETATM   27  C   UNL     1      57.790  45.692  -4.827  1.00  0.00    -0.001 C 
HETATM   28  C   UNL     1      51.872  44.417  -1.788  1.00  0.00    -0.017 C 
HETATM   29  C   UNL     1      56.916  44.591  -5.113  1.00  0.00    -0.004 C 
ENDROOT
BRANCH   2  30
HETATM   30  O   UNL     1      47.772  38.023  -2.718  1.00  0.00    -0.361 OA
ATOM     31  HO  UNL     1      46.968  38.145  -3.209  1.00  0.00     0.217 HD
ENDBRANCH   2  30
TORSDOF 1
ENDMDL
MODEL 3
REMARK VINA RESULT:      -9.7      3.642      8.205
REMARK  1 active torsions:
REMARK  status: ('A' for Active; 'I' for Inactive)
REMARK    1  A    between atoms: C_2  and  O_19 
ROOT
HETATM    1  C   UNL     1      54.352  45.184  -3.155  1.00  0.00     0.053 C 
HETATM    2  C   UNL     1      48.964  39.911  -2.500  1.00  0.00     0.066 C 
HETATM    3  N   UNL     1      55.757  47.125  -3.731  1.00  0.00    -0.062 N 
ATOM      4  HN1 UNL     1      55.886  48.137  -3.716  1.00  0.00     0.278 HD
ATOM      5  HN2 UNL     1      56.430  46.878  -3.005  1.00  0.00     0.278 HD
HETATM    6  C   UNL     1      53.826  47.402  -2.095  1.00  0.00     0.040 C 
HETATM    7  C   UNL     1      52.116  43.738  -3.228  1.00  0.00     0.000 C 
HETATM    8  C   UNL     1      50.975  42.131  -4.651  1.00  0.00     0.013 C 
HETATM    9  C   UNL     1      51.917  43.141  -4.499  1.00  0.00     0.015 C 
HETATM   10  C   UNL     1      56.123  46.530  -5.067  1.00  0.00     0.216 C 
HETATM   11  C   UNL     1      49.336  40.604  -3.663  1.00  0.00     0.049 C 
HETATM   12  N   UNL     1      51.246  44.584  -1.322  1.00  0.00    -0.358 N 
ATOM     13  HN  UNL     1      50.618  44.758  -0.537  1.00  0.00     0.166 HD
HETATM   14  C   UNL     1      51.190  43.506  -2.177  1.00  0.00     0.054 C 
HETATM   15  C   UNL     1      56.543  44.036  -5.795  1.00  0.00    -0.020 C 
HETATM   16  C   UNL     1      49.678  41.812  -1.158  1.00  0.00     0.017 C 
HETATM   17  C   UNL     1      54.367  46.733  -3.361  1.00  0.00     0.195 C 
HETATM   18  C   UNL     1      50.207  41.701  -3.538  1.00  0.00    -0.021 C 
HETATM   19  C   UNL     1      50.329  42.362  -2.281  1.00  0.00     0.002 C 
HETATM   20  C   UNL     1      57.572  46.936  -5.275  1.00  0.00     0.006 C 
HETATM   21  C   UNL     1      54.524  44.664  -4.595  1.00  0.00     0.022 C 
HETATM   22  C   UNL     1      48.919  40.642  -1.295  1.00  0.00     0.037 C 
HETATM   23  C   UNL     1      52.672  46.791  -1.315  1.00  0.00     0.059 C 
HETATM   24  C   UNL     1      58.618  46.185  -5.707  1.00  0.00    -0.002 C 
HETATM   25  C   UNL     1      52.296  45.388  -1.711  1.00  0.00     0.017 C 
HETATM   26  C   UNL     1      55.988  45.009  -4.847  1.00  0.00     0.043 C 
HETATM   27  C   UNL     1      58.829  44.880  -6.158  1.00  0.00    -0.001 C 
HETATM   28  C   UNL     1      52.976  44.758  -2.750  1.00  0.00    -0.017 C 
HETATM   29  C   UNL     1      57.817  43.869  -6.257  1.00  0.00    -0.004 C 
ENDROOT
BRANCH   2  30
HETATM   30  O   UNL     1      48.106  38.856  -2.643  1.00  0.00    -0.361 OA
ATOM     31  HO  UNL     1      47.176  39.048  -2.660  1.00  0.00     0.217 HD
ENDBRANCH   2  30
TORSDOF 1
ENDMDL
MODEL 4
REMARK VINA RESULT:      -9.5      2.766      4.241
REMARK  1 active torsions:
REMARK  status: ('A' for Active; 'I' for Inactive)
REMARK    1  A    between atoms: C_2  and  O_19 
ROOT
HETATM    1  C   UNL     1      50.799  43.781  -2.085  1.00  0.00     0.053 C 
HETATM    2  C   UNL     1      56.062  47.535  -6.018  1.00  0.00     0.066 C 
HETATM    3  N   UNL     1      49.519  42.295  -0.592  1.00  0.00    -0.062 N 
ATOM      4  HN1 UNL     1      49.289  42.014   0.361  1.00  0.00     0.278 HD
ATOM      5  HN2 UNL     1      48.652  42.783  -0.818  1.00  0.00     0.278 HD
HETATM    6  C   UNL     1      50.648  44.371   0.354  1.00  0.00     0.040 C 
HETATM    7  C   UNL     1      53.035  44.843  -3.068  1.00  0.00     0.000 C 
HETATM    8  C   UNL     1      54.791  44.345  -4.673  1.00  0.00     0.013 C 
HETATM    9  C   UNL     1      53.761  43.908  -3.851  1.00  0.00     0.015 C 
HETATM   10  C   UNL     1      49.750  41.106  -1.491  1.00  0.00     0.216 C 
HETATM   11  C   UNL     1      56.087  46.182  -5.645  1.00  0.00     0.049 C 
HETATM   12  N   UNL     1      53.026  46.658  -1.723  1.00  0.00    -0.358 N 
ATOM     13  HN  UNL     1      53.289  47.541  -1.286  1.00  0.00     0.166 HD
HETATM   14  C   UNL     1      53.514  46.170  -2.915  1.00  0.00     0.054 C 
HETATM   15  C   UNL     1      49.901  40.922  -4.112  1.00  0.00    -0.020 C 
HETATM   16  C   UNL     1      54.698  48.033  -4.064  1.00  0.00     0.017 C 
HETATM   17  C   UNL     1      50.700  43.205  -0.635  1.00  0.00     0.195 C 
HETATM   18  C   UNL     1      55.122  45.723  -4.729  1.00  0.00    -0.021 C 
HETATM   19  C   UNL     1      54.466  46.656  -3.873  1.00  0.00     0.002 C 
HETATM   20  C   UNL     1      48.453  40.320  -1.414  1.00  0.00     0.006 C 
HETATM   21  C   UNL     1      51.239  42.548  -2.895  1.00  0.00     0.022 C 
HETATM   22  C   UNL     1      55.572  48.460  -5.073  1.00  0.00     0.037 C 
HETATM   23  C   UNL     1      51.480  45.627   0.134  1.00  0.00     0.059 C 
HETATM   24  C   UNL     1      47.734  39.756  -2.418  1.00  0.00    -0.002 C 
HETATM   25  C   UNL     1      52.122  45.745  -1.223  1.00  0.00     0.017 C 
HETATM   26  C   UNL     1      49.952  41.731  -2.887  1.00  0.00     0.043 C 
HETATM   27  C   UNL     1      47.848  39.598  -3.801  1.00  0.00    -0.001 C 
HETATM   28  C   UNL     1      51.956  44.726  -2.157  1.00  0.00    -0.017 C 
HETATM   29  C   UNL     1      48.922  40.108  -4.603  1.00  0.00    -0.004 C 
ENDROOT
BRANCH   2  30
HETATM   30  O   UNL     1      57.016  47.962  -6.900  1.00  0.00    -0.361 OA
ATOM     31  HO  UNL     1      57.007  47.584  -7.771  1.00  0.00     0.217 HD
ENDBRANCH   2  30
TORSDOF 1
ENDMDL
MODEL 5
REMARK VINA RESULT:      -9.4      2.396      4.615
REMARK  1 active torsions:
REMARK  status: ('A' for Active; 'I' for Inactive)
REMARK    1  A    between atoms: C_2  and  O_19 
ROOT
HETATM    1  C   UNL     1      51.585  44.851  -2.060  1.00  0.00     0.053 C 
HETATM    2  C   UNL     1      57.575  49.395  -2.916  1.00  0.00     0.066 C 
HETATM    3  N   UNL     1      50.011  43.012  -1.599  1.00  0.00    -0.062 N 
ATOM      4  HN1 UNL     1      49.566  42.404  -0.912  1.00  0.00     0.278 HD
ATOM      5  HN2 UNL     1      49.215  43.617  -1.801  1.00  0.00     0.278 HD
HETATM    6  C   UNL     1      50.856  44.462   0.314  1.00  0.00     0.040 C 
HETATM    7  C   UNL     1      53.976  46.026  -2.021  1.00  0.00     0.000 C 
HETATM    8  C   UNL     1      56.068  46.047  -3.259  1.00  0.00     0.013 C 
HETATM    9  C   UNL     1      54.879  45.411  -2.926  1.00  0.00     0.015 C 
HETATM   10  C   UNL     1      50.463  42.249  -2.819  1.00  0.00     0.216 C 
HETATM   11  C   UNL     1      57.530  48.006  -3.112  1.00  0.00     0.049 C 
HETATM   12  N   UNL     1      53.625  47.175  -0.107  1.00  0.00    -0.358 N 
ATOM     13  HN  UNL     1      53.764  47.796   0.690  1.00  0.00     0.166 HD
HETATM   14  C   UNL     1      54.386  47.148  -1.254  1.00  0.00     0.054 C 
HETATM   15  C   UNL     1      51.231  43.081  -5.195  1.00  0.00    -0.020 C 
HETATM   16  C   UNL     1      55.782  49.208  -1.281  1.00  0.00     0.017 C 
HETATM   17  C   UNL     1      51.155  43.770  -1.017  1.00  0.00     0.195 C 
HETATM   18  C   UNL     1      56.383  47.309  -2.691  1.00  0.00    -0.021 C 
HETATM   19  C   UNL     1      55.530  47.888  -1.706  1.00  0.00     0.002 C 
HETATM   20  C   UNL     1      49.195  41.602  -3.349  1.00  0.00     0.006 C 
HETATM   21  C   UNL     1      52.221  43.996  -3.171  1.00  0.00     0.022 C 
HETATM   22  C   UNL     1      56.863  49.920  -1.818  1.00  0.00     0.037 C 
HETATM   23  C   UNL     1      51.698  45.634   0.798  1.00  0.00     0.059 C 
HETATM   24  C   UNL     1      48.741  41.529  -4.626  1.00  0.00    -0.002 C 
HETATM   25  C   UNL     1      52.641  46.215  -0.222  1.00  0.00     0.017 C 
HETATM   26  C   UNL     1      50.980  43.346  -3.773  1.00  0.00     0.043 C 
HETATM   27  C   UNL     1      49.180  41.910  -5.896  1.00  0.00    -0.001 C 
HETATM   28  C   UNL     1      52.714  45.654  -1.494  1.00  0.00    -0.017 C 
HETATM   29  C   UNL     1      50.406  42.601  -6.171  1.00  0.00    -0.004 C 
ENDROOT
BRANCH   2  30
HETATM   30  O   UNL     1      58.704  50.052  -3.322  1.00  0.00    -0.361 OA
ATOM     31  HO  UNL     1      58.690  51.001  -3.297  1.00  0.00     0.217 HD
ENDBRANCH   2  30
TORSDOF 1
ENDMDL
MODEL 6
REMARK VINA RESULT:      -9.3      4.105      8.424
REMARK  1 active torsions:
REMARK  status: ('A' for Active; 'I' for Inactive)
REMARK    1  A    between atoms: C_2  and  O_19 
ROOT
HETATM    1  C   UNL     1      55.854  45.871  -3.896  1.00  0.00     0.053 C 
HETATM    2  C   UNL     1      49.945  41.710  -1.654  1.00  0.00     0.066 C 
HETATM    3  N   UNL     1      57.444  47.365  -5.042  1.00  0.00    -0.062 N 
ATOM      4  HN1 UNL     1      57.683  48.311  -5.342  1.00  0.00     0.278 HD
ATOM      5  HN2 UNL     1      58.108  47.281  -4.272  1.00  0.00     0.278 HD
HETATM    6  C   UNL     1      55.607  48.354  -3.582  1.00  0.00     0.040 C 
HETATM    7  C   UNL     1      53.472  44.738  -3.524  1.00  0.00     0.000 C 
HETATM    8  C   UNL     1      52.118  42.910  -4.381  1.00  0.00     0.013 C 
HETATM    9  C   UNL     1      53.169  43.803  -4.547  1.00  0.00     0.015 C 
HETATM   10  C   UNL     1      57.701  46.348  -6.125  1.00  0.00     0.216 C 
HETATM   11  C   UNL     1      50.353  41.961  -2.973  1.00  0.00     0.049 C 
HETATM   12  N   UNL     1      52.760  46.227  -1.980  1.00  0.00    -0.358 N 
ATOM     13  HN  UNL     1      52.180  46.706  -1.292  1.00  0.00     0.166 HD
HETATM   14  C   UNL     1      52.560  44.951  -2.457  1.00  0.00     0.054 C 
HETATM   15  C   UNL     1      57.822  43.720  -6.037  1.00  0.00    -0.020 C 
HETATM   16  C   UNL     1      50.904  43.839  -0.967  1.00  0.00     0.017 C 
HETATM   17  C   UNL     1      56.031  47.268  -4.574  1.00  0.00     0.195 C 
HETATM   18  C   UNL     1      51.343  42.936  -3.192  1.00  0.00    -0.021 C 
HETATM   19  C   UNL     1      51.576  43.936  -2.203  1.00  0.00     0.002 C 
HETATM   20  C   UNL     1      59.178  46.502  -6.442  1.00  0.00     0.006 C 
HETATM   21  C   UNL     1      55.922  44.915  -5.101  1.00  0.00     0.022 C 
HETATM   22  C   UNL     1      50.017  42.779  -0.737  1.00  0.00     0.037 C 
HETATM   23  C   UNL     1      54.418  48.150  -2.655  1.00  0.00     0.059 C 
HETATM   24  C   UNL     1      60.121  45.541  -6.614  1.00  0.00    -0.002 C 
HETATM   25  C   UNL     1      53.879  46.745  -2.596  1.00  0.00     0.017 C 
HETATM   26  C   UNL     1      57.406  44.996  -5.442  1.00  0.00     0.043 C 
HETATM   27  C   UNL     1      60.174  44.145  -6.636  1.00  0.00    -0.001 C 
HETATM   28  C   UNL     1      54.452  45.752  -3.385  1.00  0.00    -0.017 C 
HETATM   29  C   UNL     1      59.054  43.274  -6.419  1.00  0.00    -0.004 C 
ENDROOT
BRANCH   2  30
HETATM   30  O   UNL     1      48.973  40.767  -1.464  1.00  0.00    -0.361 OA
ATOM     31  HO  UNL     1      49.176  40.039  -0.889  1.00  0.00     0.217 HD
ENDBRANCH   2  30
TORSDOF 1
ENDMDL
MODEL 7
REMARK VINA RESULT:      -8.7      5.217      8.411
REMARK  1 active torsions:
REMARK  status: ('A' for Active; 'I' for Inactive)
REMARK    1  A    between atoms: C_2  and  O_19 
ROOT
HETATM    1  C   UNL     1      54.885  48.216  -2.301  1.00  0.00     0.053 C 
HETATM    2  C   UNL     1      56.461  48.698  -9.686  1.00  0.00     0.066 C 
HETATM    3  N   UNL     1      54.790  47.701   0.108  1.00  0.00    -0.062 N 
ATOM      4  HN1 UNL     1      55.241  47.744   1.021  1.00  0.00     0.278 HD
ATOM      5  HN2 UNL     1      54.086  48.424   0.255  1.00  0.00     0.278 HD
HETATM    6  C   UNL     1      56.537  49.331  -0.769  1.00  0.00     0.040 C 
HETATM    7  C   UNL     1      55.952  48.092  -4.738  1.00  0.00     0.000 C 
HETATM    8  C   UNL     1      56.030  46.620  -6.671  1.00  0.00     0.013 C 
HETATM    9  C   UNL     1      55.800  46.804  -5.314  1.00  0.00     0.015 C 
HETATM   10  C   UNL     1      54.169  46.351  -0.152  1.00  0.00     0.216 C 
HETATM   11  C   UNL     1      56.544  47.556  -8.874  1.00  0.00     0.049 C 
HETATM   12  N   UNL     1      57.126  50.014  -4.562  1.00  0.00    -0.358 N 
ATOM     13  HN  UNL     1      57.738  50.799  -4.783  1.00  0.00     0.166 HD
HETATM   14  C   UNL     1      56.586  49.131  -5.469  1.00  0.00     0.054 C 
HETATM   15  C   UNL     1      52.449  45.560  -1.981  1.00  0.00    -0.020 C 
HETATM   16  C   UNL     1      56.902  50.095  -7.742  1.00  0.00     0.017 C 
HETATM   17  C   UNL     1      55.729  48.052  -0.996  1.00  0.00     0.195 C 
HETATM   18  C   UNL     1      56.422  47.716  -7.482  1.00  0.00    -0.021 C 
HETATM   19  C   UNL     1      56.673  48.991  -6.895  1.00  0.00     0.002 C 
HETATM   20  C   UNL     1      53.187  46.164   0.991  1.00  0.00     0.006 C 
HETATM   21  C   UNL     1      54.468  46.765  -2.603  1.00  0.00     0.022 C 
HETATM   22  C   UNL     1      56.891  49.922  -9.132  1.00  0.00     0.037 C 
HETATM   23  C   UNL     1      57.155  50.089  -1.936  1.00  0.00     0.059 C 
HETATM   24  C   UNL     1      51.905  45.718   0.954  1.00  0.00    -0.002 C 
HETATM   25  C   UNL     1      56.697  49.653  -3.302  1.00  0.00     0.017 C 
HETATM   26  C   UNL     1      53.441  46.531  -1.500  1.00  0.00     0.043 C 
HETATM   27  C   UNL     1      51.014  45.233  -0.006  1.00  0.00    -0.001 C 
HETATM   28  C   UNL     1      55.794  48.601  -3.425  1.00  0.00    -0.017 C 
HETATM   29  C   UNL     1      51.300  45.101  -1.405  1.00  0.00    -0.004 C 
ENDROOT
BRANCH   2  30
HETATM   30  O   UNL     1      56.595  48.522 -11.036  1.00  0.00    -0.361 OA
ATOM     31  HO  UNL     1      56.668  49.302 -11.573  1.00  0.00     0.217 HD
ENDBRANCH   2  30
TORSDOF 1
ENDMDL
MODEL 8
REMARK VINA RESULT:      -8.7      3.811      5.623
REMARK  1 active torsions:
REMARK  status: ('A' for Active; 'I' for Inactive)
REMARK    1  A    between atoms: C_2  and  O_19 
ROOT
HETATM    1  C   UNL     1      54.377  44.432  -3.615  1.00  0.00     0.053 C 
HETATM    2  C   UNL     1      58.707  50.551  -4.649  1.00  0.00     0.066 C 
HETATM    3  N   UNL     1      52.713  42.618  -3.734  1.00  0.00    -0.062 N 
ATOM      4  HN1 UNL     1      52.349  41.808  -4.235  1.00  0.00     0.278 HD
ATOM      5  HN2 UNL     1      53.166  42.125  -2.964  1.00  0.00     0.278 HD
HETATM    6  C   UNL     1      54.773  42.544  -5.227  1.00  0.00     0.040 C 
HETATM    7  C   UNL     1      55.635  46.594  -4.530  1.00  0.00     0.000 C 
HETATM    8  C   UNL     1      55.359  49.007  -4.648  1.00  0.00     0.013 C 
HETATM    9  C   UNL     1      54.804  47.744  -4.487  1.00  0.00     0.015 C 
HETATM   10  C   UNL     1      51.610  43.527  -3.252  1.00  0.00     0.216 C 
HETATM   11  C   UNL     1      57.334  50.430  -4.912  1.00  0.00     0.049 C 
HETATM   12  N   UNL     1      57.340  45.466  -5.491  1.00  0.00    -0.358 N 
ATOM     13  HN  UNL     1      58.202  45.258  -5.996  1.00  0.00     0.166 HD
HETATM   14  C   UNL     1      56.972  46.697  -4.996  1.00  0.00     0.054 C 
HETATM   15  C   UNL     1      51.632  45.506  -1.518  1.00  0.00    -0.020 C 
HETATM   16  C   UNL     1      58.980  48.166  -5.055  1.00  0.00     0.017 C 
HETATM   17  C   UNL     1      53.689  43.390  -4.555  1.00  0.00     0.195 C 
HETATM   18  C   UNL     1      56.754  49.149  -4.862  1.00  0.00    -0.021 C 
HETATM   19  C   UNL     1      57.581  47.997  -5.006  1.00  0.00     0.002 C 
HETATM   20  C   UNL     1      50.748  42.638  -2.373  1.00  0.00     0.006 C 
HETATM   21  C   UNL     1      53.235  45.429  -3.345  1.00  0.00     0.022 C 
HETATM   22  C   UNL     1      59.530  49.452  -4.974  1.00  0.00     0.037 C 
HETATM   23  C   UNL     1      56.087  43.165  -5.680  1.00  0.00     0.059 C 
HETATM   24  C   UNL     1      50.221  42.898  -1.149  1.00  0.00    -0.002 C 
HETATM   25  C   UNL     1      56.343  44.564  -5.187  1.00  0.00     0.017 C 
HETATM   26  C   UNL     1      52.348  44.599  -2.423  1.00  0.00     0.043 C 
HETATM   27  C   UNL     1      50.174  43.972  -0.258  1.00  0.00    -0.001 C 
HETATM   28  C   UNL     1      55.389  45.205  -4.401  1.00  0.00    -0.017 C 
HETATM   29  C   UNL     1      50.802  45.245  -0.466  1.00  0.00    -0.004 C 
ENDROOT
BRANCH   2  30
HETATM   30  O   UNL     1      59.253  51.803  -4.715  1.00  0.00    -0.361 OA
ATOM     31  HO  UNL     1      58.767  52.513  -4.312  1.00  0.00     0.217 HD
ENDBRANCH   2  30
TORSDOF 1
ENDMDL
MODEL 9
REMARK VINA RESULT:      -8.4      5.106      8.222
REMARK  1 active torsions:
REMARK  status: ('A' for Active; 'I' for Inactive)
REMARK    1  A    between atoms: C_2  and  O_19 
ROOT
HETATM    1  C   UNL     1      55.340  46.887  -3.084  1.00  0.00     0.053 C 
HETATM    2  C   UNL     1      57.698  43.666  -9.512  1.00  0.00     0.066 C 
HETATM    3  N   UNL     1      54.933  47.592  -0.757  1.00  0.00    -0.062 N 
ATOM      4  HN1 UNL     1      55.292  48.030   0.091  1.00  0.00     0.278 HD
ATOM      5  HN2 UNL     1      54.327  48.349  -1.072  1.00  0.00     0.278 HD
HETATM    6  C   UNL     1      56.972  48.466  -2.005  1.00  0.00     0.040 C 
HETATM    7  C   UNL     1      56.617  45.534  -4.990  1.00  0.00     0.000 C 
HETATM    8  C   UNL     1      56.678  43.317  -5.985  1.00  0.00     0.013 C 
HETATM    9  C   UNL     1      56.342  44.143  -4.921  1.00  0.00     0.015 C 
HETATM   10  C   UNL     1      54.156  46.334  -0.457  1.00  0.00     0.216 C 
HETATM   11  C   UNL     1      57.538  43.047  -8.263  1.00  0.00     0.049 C 
HETATM   12  N   UNL     1      58.028  47.210  -5.542  1.00  0.00    -0.358 N 
ATOM     13  HN  UNL     1      58.764  47.744  -6.003  1.00  0.00     0.166 HD
HETATM   14  C   UNL     1      57.461  46.046  -6.009  1.00  0.00     0.054 C 
HETATM   15  C   UNL     1      52.533  44.903  -1.955  1.00  0.00    -0.020 C 
HETATM   16  C   UNL     1      58.136  45.782  -8.391  1.00  0.00     0.017 C 
HETATM   17  C   UNL     1      56.018  47.300  -1.738  1.00  0.00     0.195 C 
HETATM   18  C   UNL     1      57.301  43.860  -7.139  1.00  0.00    -0.021 C 
HETATM   19  C   UNL     1      57.670  45.237  -7.177  1.00  0.00     0.002 C 
HETATM   20  C   UNL     1      53.048  46.791   0.476  1.00  0.00     0.006 C 
HETATM   21  C   UNL     1      54.754  45.505  -2.742  1.00  0.00     0.022 C 
HETATM   22  C   UNL     1      58.240  44.969  -9.527  1.00  0.00     0.037 C 
HETATM   23  C   UNL     1      57.804  48.525  -3.278  1.00  0.00     0.059 C 
HETATM   24  C   UNL     1      51.726  46.482   0.450  1.00  0.00    -0.002 C 
HETATM   25  C   UNL     1      57.428  47.527  -4.341  1.00  0.00     0.017 C 
HETATM   26  C   UNL     1      53.599  45.905  -1.830  1.00  0.00     0.043 C 
HETATM   27  C   UNL     1      50.876  45.669  -0.302  1.00  0.00    -0.001 C 
HETATM   28  C   UNL     1      56.402  46.618  -4.103  1.00  0.00    -0.017 C 
HETATM   29  C   UNL     1      51.279  44.865  -1.419  1.00  0.00    -0.004 C 
ENDROOT
BRANCH   2  30
HETATM   30  O   UNL     1      57.940  42.858 -10.589  1.00  0.00    -0.361 OA
ATOM     31  HO  UNL     1      57.768  43.217 -11.452  1.00  0.00     0.217 HD
ENDBRANCH   2  30
TORSDOF 1
ENDMDL
