MODEL 1
REMARK VINA RESULT:      -9.9      0.000      0.000
REMARK  7 active torsions:
REMARK  status: ('A' for Active; 'I' for Inactive)
REMARK    1  A    between atoms: C_1  and  O_21 
REMARK    2  A    between atoms: O_8  and  C_12 
REMARK    3  A    between atoms: C_11  and  C_40 
REMARK    4  A    between atoms: O_16  and  C_30 
REMARK    5  A    between atoms: C_20  and  O_24 
REMARK    6  A    between atoms: C_30  and  O_38 
REMARK    7  A    between atoms: N_35  and  C_40 
ROOT
HETATM    1  C   UNL     1      36.010 -15.222  28.926  1.00  0.00     0.150 C 
HETATM    2  C   UNL     1      38.320 -16.728  26.492  1.00  0.00     0.202 C 
HETATM    3  O   UNL     1      39.651 -19.100  30.359  1.00  0.00    -0.287 OA
HETATM    4  F   UNL     1      34.926 -15.858  29.447  1.00  0.00    -0.203 F 
HETATM    5  C   UNL     1      40.325 -19.356  28.004  1.00  0.00     0.027 C 
HETATM    6  C   UNL     1      39.746 -18.883  26.814  1.00  0.00     0.033 C 
HETATM    7  C   UNL     1      36.973 -16.154  28.355  1.00  0.00     0.077 C 
HETATM    8  N   UNL     1      37.532 -15.796  27.112  1.00  0.00    -0.315 N 
HETATM    9  C   UNL     1      39.590 -18.823  29.132  1.00  0.00     0.194 C 
HETATM   10  C   UNL     1      37.727 -16.995  29.198  1.00  0.00     0.049 C 
HETATM   11  F   UNL     1      38.799 -16.456  25.284  1.00  0.00    -0.185 F 
HETATM   12  C   UNL     1      36.576 -13.551  27.137  1.00  0.00     0.204 C 
HETATM   13  C   UNL     1      36.899 -14.773  26.269  1.00  0.00     0.205 C 
HETATM   14  C   UNL     1      38.859 -17.821  27.178  1.00  0.00     0.035 C 
HETATM   15  C   UNL     1      35.692 -14.051  28.281  1.00  0.00     0.020 C 
HETATM   16  C   UNL     1      38.632 -17.870  28.580  1.00  0.00     0.032 C 
HETATM   17  C   UNL     1      34.653 -13.144  28.805  1.00  0.00     0.053 C 
ENDROOT
BRANCH   5  18
HETATM   18  C   UNL     1      41.545 -20.203  28.058  1.00  0.00     0.092 C 
BRANCH  18  19
HETATM   19  N   UNL     1      41.492 -21.682  28.079  1.00  0.00    -0.186 NA
HETATM   20  C   UNL     1      40.057 -21.994  28.317  1.00  0.00     0.113 C 
HETATM   21  C   UNL     1      39.622 -23.294  27.643  1.00  0.00     0.023 C 
HETATM   22  C   UNL     1      39.844 -24.536  28.514  1.00  0.00     0.026 C 
HETATM   23  C   UNL     1      41.311 -24.730  28.919  1.00  0.00     0.039 C 
HETATM   24  C   UNL     1      39.590 -25.794  27.689  1.00  0.00     0.154 C 
HETATM   25  C   UNL     1      41.383 -26.198  29.315  1.00  0.00     0.154 C 
HETATM   26  C   UNL     1      41.754 -23.765  30.005  1.00  0.00     0.165 C 
HETATM   27  C   UNL     1      40.485 -26.846  28.283  1.00  0.00     0.176 C 
HETATM   28  S   UNL     1      42.470 -22.356  29.230  1.00  0.00     0.215 S 
HETATM   29  O   UNL     1      42.637 -21.384  30.273  1.00  0.00    -0.211 OA
HETATM   30  O   UNL     1      43.671 -22.822  28.570  1.00  0.00    -0.211 OA
BRANCH  25  31
HETATM   31  O   UNL     1      42.689 -26.732  29.183  1.00  0.00    -0.392 OA
ATOM     32  HO  UNL     1      43.138 -26.807  30.017  1.00  0.00     0.210 HD
ENDBRANCH  25  31
BRANCH  27  33
HETATM   33  O   UNL     1      39.918 -28.066  28.671  1.00  0.00    -0.390 OA
ATOM     34  HO  UNL     1      39.409 -28.506  28.000  1.00  0.00     0.210 HD
ENDBRANCH  27  33
BRANCH  24  35
HETATM   35  O   UNL     1      40.067 -25.602  26.354  1.00  0.00    -0.393 OA
ATOM     36  HO  UNL     1      40.977 -25.876  26.371  1.00  0.00     0.210 HD
ENDBRANCH  24  35
ENDBRANCH  18  19
ENDBRANCH   5  18
BRANCH  12  37
HETATM   37  O   UNL     1      35.822 -12.644  26.349  1.00  0.00    -0.360 OA
ATOM     38  HO  UNL     1      34.904 -12.768  26.560  1.00  0.00     0.213 HD
ENDBRANCH  12  37
BRANCH  12  39
HETATM   39  O   UNL     1      37.730 -12.913  27.591  1.00  0.00    -0.360 OA
ATOM     40  HO  UNL     1      37.969 -12.227  26.978  1.00  0.00     0.213 HD
ENDBRANCH  12  39
TORSDOF 7
ENDMDL
MODEL 2
REMARK VINA RESULT:      -9.6      2.447      3.885
REMARK  7 active torsions:
REMARK  status: ('A' for Active; 'I' for Inactive)
REMARK    1  A    between atoms: C_1  and  O_21 
REMARK    2  A    between atoms: O_8  and  C_12 
REMARK    3  A    between atoms: C_11  and  C_40 
REMARK    4  A    between atoms: O_16  and  C_30 
REMARK    5  A    between atoms: C_20  and  O_24 
REMARK    6  A    between atoms: C_30  and  O_38 
REMARK    7  A    between atoms: N_35  and  C_40 
ROOT
HETATM    1  C   UNL     1      36.441 -15.762  28.715  1.00  0.00     0.150 C 
HETATM    2  C   UNL     1      38.570 -16.868  25.927  1.00  0.00     0.202 C 
HETATM    3  O   UNL     1      40.327 -19.614  29.351  1.00  0.00    -0.287 OA
HETATM    4  F   UNL     1      35.431 -16.502  29.247  1.00  0.00    -0.203 F 
HETATM    5  C   UNL     1      40.793 -19.563  26.933  1.00  0.00     0.027 C 
HETATM    6  C   UNL     1      40.093 -18.980  25.863  1.00  0.00     0.033 C 
HETATM    7  C   UNL     1      37.379 -16.577  27.955  1.00  0.00     0.077 C 
HETATM    8  N   UNL     1      37.810 -16.052  26.721  1.00  0.00    -0.315 N 
HETATM    9  C   UNL     1      40.146 -19.198  28.176  1.00  0.00     0.194 C 
HETATM   10  C   UNL     1      38.235 -17.476  28.622  1.00  0.00     0.049 C 
HETATM   11  F   UNL     1      38.928 -16.436  24.724  1.00  0.00    -0.185 F 
HETATM   12  C   UNL     1      36.785 -13.870  27.098  1.00  0.00     0.204 C 
HETATM   13  C   UNL     1      37.069 -14.967  26.064  1.00  0.00     0.205 C 
HETATM   14  C   UNL     1      39.206 -18.009  26.428  1.00  0.00     0.035 C 
HETATM   15  C   UNL     1      36.026 -14.540  28.245  1.00  0.00     0.020 C 
HETATM   16  C   UNL     1      39.110 -18.231  27.828  1.00  0.00     0.032 C 
HETATM   17  C   UNL     1      35.008 -13.748  28.962  1.00  0.00     0.053 C 
ENDROOT
BRANCH   5  18
HETATM   18  C   UNL     1      42.041 -20.355  26.779  1.00  0.00     0.092 C 
BRANCH  18  19
HETATM   19  N   UNL     1      42.814 -20.862  27.935  1.00  0.00    -0.186 NA
HETATM   20  C   UNL     1      44.232 -20.601  27.570  1.00  0.00     0.113 C 
HETATM   21  C   UNL     1      45.104 -20.304  28.789  1.00  0.00     0.023 C 
HETATM   22  C   UNL     1      45.697 -21.561  29.435  1.00  0.00     0.026 C 
HETATM   23  C   UNL     1      44.627 -22.556  29.903  1.00  0.00     0.039 C 
HETATM   24  C   UNL     1      46.364 -21.193  30.757  1.00  0.00     0.154 C 
HETATM   25  C   UNL     1      45.363 -23.428  30.910  1.00  0.00     0.154 C 
HETATM   26  C   UNL     1      43.995 -23.323  28.753  1.00  0.00     0.165 C 
HETATM   27  C   UNL     1      46.238 -22.417  31.620  1.00  0.00     0.176 C 
HETATM   28  S   UNL     1      42.543 -22.463  28.252  1.00  0.00     0.215 S 
HETATM   29  O   UNL     1      42.133 -23.080  27.022  1.00  0.00    -0.211 OA
HETATM   30  O   UNL     1      41.620 -22.541  29.365  1.00  0.00    -0.211 OA
BRANCH  25  31
HETATM   31  O   UNL     1      44.489 -24.020  31.856  1.00  0.00    -0.392 OA
ATOM     32  HO  UNL     1      43.579 -23.979  31.586  1.00  0.00     0.210 HD
ENDBRANCH  25  31
BRANCH  27  33
HETATM   33  O   UNL     1      47.393 -22.942  32.211  1.00  0.00    -0.390 OA
ATOM     34  HO  UNL     1      47.374 -23.878  32.373  1.00  0.00     0.210 HD
ENDBRANCH  27  33
BRANCH  24  35
HETATM   35  O   UNL     1      45.599 -20.182  31.420  1.00  0.00    -0.393 OA
ATOM     36  HO  UNL     1      44.771 -20.150  30.956  1.00  0.00     0.210 HD
ENDBRANCH  24  35
ENDBRANCH  18  19
ENDBRANCH   5  18
BRANCH  12  37
HETATM   37  O   UNL     1      35.931 -12.912  26.493  1.00  0.00    -0.360 OA
ATOM     38  HO  UNL     1      36.068 -12.950  25.554  1.00  0.00     0.213 HD
ENDBRANCH  12  37
BRANCH  12  39
HETATM   39  O   UNL     1      37.952 -13.238  27.524  1.00  0.00    -0.360 OA
ATOM     40  HO  UNL     1      37.870 -12.302  27.383  1.00  0.00     0.213 HD
ENDBRANCH  12  39
TORSDOF 7
ENDMDL
MODEL 3
REMARK VINA RESULT:      -9.1      3.692     10.210
REMARK  7 active torsions:
REMARK  status: ('A' for Active; 'I' for Inactive)
REMARK    1  A    between atoms: C_1  and  O_21 
REMARK    2  A    between atoms: O_8  and  C_12 
REMARK    3  A    between atoms: C_11  and  C_40 
REMARK    4  A    between atoms: O_16  and  C_30 
REMARK    5  A    between atoms: C_20  and  O_24 
REMARK    6  A    between atoms: C_30  and  O_38 
REMARK    7  A    between atoms: N_35  and  C_40 
ROOT
HETATM    1  C   UNL     1      44.251 -23.230  30.770  1.00  0.00     0.150 C 
HETATM    2  C   UNL     1      43.611 -22.316  27.265  1.00  0.00     0.202 C 
HETATM    3  O   UNL     1      40.274 -19.693  29.347  1.00  0.00    -0.287 OA
HETATM    4  F   UNL     1      44.841 -22.409  31.680  1.00  0.00    -0.203 F 
HETATM    5  C   UNL     1      41.002 -19.799  26.997  1.00  0.00     0.027 C 
HETATM    6  C   UNL     1      42.160 -20.332  26.405  1.00  0.00     0.033 C 
HETATM    7  C   UNL     1      43.727 -22.498  29.625  1.00  0.00     0.077 C 
HETATM    8  N   UNL     1      43.961 -23.064  28.356  1.00  0.00    -0.315 N 
HETATM    9  C   UNL     1      41.013 -20.102  28.413  1.00  0.00     0.194 C 
HETATM   10  C   UNL     1      42.600 -21.665  29.775  1.00  0.00     0.049 C 
HETATM   11  F   UNL     1      43.889 -22.784  26.055  1.00  0.00    -0.185 F 
HETATM   12  C   UNL     1      44.833 -25.156  29.264  1.00  0.00     0.204 C 
HETATM   13  C   UNL     1      44.995 -24.092  28.171  1.00  0.00     0.205 C 
HETATM   14  C   UNL     1      42.740 -21.225  27.360  1.00  0.00     0.035 C 
HETATM   15  C   UNL     1      44.918 -24.420  30.603  1.00  0.00     0.020 C 
HETATM   16  C   UNL     1      42.153 -20.987  28.632  1.00  0.00     0.032 C 
HETATM   17  C   UNL     1      45.530 -25.124  31.746  1.00  0.00     0.053 C 
ENDROOT
BRANCH   5  18
HETATM   18  C   UNL     1      39.923 -19.109  26.244  1.00  0.00     0.092 C 
BRANCH  18  19
HETATM   19  N   UNL     1      39.243 -17.896  26.751  1.00  0.00    -0.186 NA
HETATM   20  C   UNL     1      37.915 -18.386  27.208  1.00  0.00     0.113 C 
HETATM   21  C   UNL     1      37.377 -17.591  28.398  1.00  0.00     0.023 C 
HETATM   22  C   UNL     1      36.572 -16.353  27.989  1.00  0.00     0.026 C 
HETATM   23  C   UNL     1      37.382 -15.364  27.140  1.00  0.00     0.039 C 
HETATM   24  C   UNL     1      36.265 -15.510  29.222  1.00  0.00     0.154 C 
HETATM   25  C   UNL     1      36.608 -14.060  27.273  1.00  0.00     0.154 C 
HETATM   26  C   UNL     1      37.572 -15.837  25.709  1.00  0.00     0.165 C 
HETATM   27  C   UNL     1      36.184 -14.093  28.726  1.00  0.00     0.176 C 
HETATM   28  S   UNL     1      39.102 -16.701  25.615  1.00  0.00     0.215 S 
HETATM   29  O   UNL     1      39.112 -17.333  24.325  1.00  0.00    -0.211 OA
HETATM   30  O   UNL     1      40.138 -15.724  25.874  1.00  0.00    -0.211 OA
BRANCH  25  31
HETATM   31  O   UNL     1      37.426 -12.921  27.063  1.00  0.00    -0.392 OA
ATOM     32  HO  UNL     1      36.937 -12.181  26.720  1.00  0.00     0.210 HD
ENDBRANCH  25  31
BRANCH  27  33
HETATM   33  O   UNL     1      35.043 -13.341  29.029  1.00  0.00    -0.390 OA
ATOM     34  HO  UNL     1      34.606 -13.579  29.838  1.00  0.00     0.210 HD
ENDBRANCH  27  33
BRANCH  24  35
HETATM   35  O   UNL     1      37.382 -15.534  30.116  1.00  0.00    -0.393 OA
ATOM     36  HO  UNL     1      38.132 -15.289  29.586  1.00  0.00     0.210 HD
ENDBRANCH  24  35
ENDBRANCH  18  19
ENDBRANCH   5  18
BRANCH  12  37
HETATM   37  O   UNL     1      45.932 -26.048  29.170  1.00  0.00    -0.360 OA
ATOM     38  HO  UNL     1      46.260 -26.014  28.280  1.00  0.00     0.213 HD
ENDBRANCH  12  37
BRANCH  12  39
HETATM   39  O   UNL     1      43.646 -25.875  29.122  1.00  0.00    -0.360 OA
ATOM     40  HO  UNL     1      43.846 -26.803  29.100  1.00  0.00     0.213 HD
ENDBRANCH  12  39
TORSDOF 7
ENDMDL
MODEL 4
REMARK VINA RESULT:      -8.8      4.093     10.016
REMARK  7 active torsions:
REMARK  status: ('A' for Active; 'I' for Inactive)
REMARK    1  A    between atoms: C_1  and  O_21 
REMARK    2  A    between atoms: O_8  and  C_12 
REMARK    3  A    between atoms: C_11  and  C_40 
REMARK    4  A    between atoms: O_16  and  C_30 
REMARK    5  A    between atoms: C_20  and  O_24 
REMARK    6  A    between atoms: C_30  and  O_38 
REMARK    7  A    between atoms: N_35  and  C_40 
ROOT
HETATM    1  C   UNL     1      45.949 -22.667  28.769  1.00  0.00     0.150 C 
HETATM    2  C   UNL     1      42.582 -21.301  29.340  1.00  0.00     0.202 C 
HETATM    3  O   UNL     1      43.078 -20.194  24.770  1.00  0.00    -0.287 OA
HETATM    4  F   UNL     1      46.205 -23.804  28.067  1.00  0.00    -0.203 F 
HETATM    5  C   UNL     1      41.140 -19.981  26.275  1.00  0.00     0.027 C 
HETATM    6  C   UNL     1      40.867 -20.558  27.526  1.00  0.00     0.033 C 
HETATM    7  C   UNL     1      44.629 -22.124  28.477  1.00  0.00     0.077 C 
HETATM    8  N   UNL     1      43.878 -21.672  29.579  1.00  0.00    -0.315 N 
HETATM    9  C   UNL     1      42.480 -20.347  25.868  1.00  0.00     0.194 C 
HETATM   10  C   UNL     1      44.368 -21.543  27.220  1.00  0.00     0.049 C 
HETATM   11  F   UNL     1      41.820 -20.944  30.367  1.00  0.00    -0.185 F 
HETATM   12  C   UNL     1      45.732 -21.892  31.150  1.00  0.00     0.204 C 
HETATM   13  C   UNL     1      44.224 -22.083  30.946  1.00  0.00     0.205 C 
HETATM   14  C   UNL     1      42.114 -21.022  28.051  1.00  0.00     0.035 C 
HETATM   15  C   UNL     1      46.426 -22.709  30.057  1.00  0.00     0.020 C 
HETATM   16  C   UNL     1      43.075 -21.044  27.005  1.00  0.00     0.032 C 
HETATM   17  C   UNL     1      47.722 -23.338  30.376  1.00  0.00     0.053 C 
ENDROOT
BRANCH   5  18
HETATM   18  C   UNL     1      40.207 -19.079  25.551  1.00  0.00     0.092 C 
BRANCH  18  19
HETATM   19  N   UNL     1      39.491 -17.967  26.216  1.00  0.00    -0.186 NA
HETATM   20  C   UNL     1      38.203 -18.570  26.652  1.00  0.00     0.113 C 
HETATM   21  C   UNL     1      37.672 -17.945  27.942  1.00  0.00     0.023 C 
HETATM   22  C   UNL     1      36.799 -16.708  27.704  1.00  0.00     0.026 C 
HETATM   23  C   UNL     1      37.534 -15.589  26.954  1.00  0.00     0.039 C 
HETATM   24  C   UNL     1      36.497 -16.029  29.037  1.00  0.00     0.154 C 
HETATM   25  C   UNL     1      36.709 -14.348  27.261  1.00  0.00     0.154 C 
HETATM   26  C   UNL     1      37.695 -15.884  25.472  1.00  0.00     0.165 C 
HETATM   27  C   UNL     1      36.337 -14.569  28.712  1.00  0.00     0.176 C 
HETATM   28  S   UNL     1      39.258 -16.657  25.233  1.00  0.00     0.215 S 
HETATM   29  O   UNL     1      39.251 -17.134  23.879  1.00  0.00    -0.211 OA
HETATM   30  O   UNL     1      40.258 -15.668  25.574  1.00  0.00    -0.211 OA
BRANCH  25  31
HETATM   31  O   UNL     1      37.467 -13.155  27.161  1.00  0.00    -0.392 OA
ATOM     32  HO  UNL     1      36.924 -12.391  27.000  1.00  0.00     0.210 HD
ENDBRANCH  25  31
BRANCH  27  33
HETATM   33  O   UNL     1      35.175 -13.914  29.134  1.00  0.00    -0.390 OA
ATOM     34  HO  UNL     1      34.479 -13.869  28.489  1.00  0.00     0.210 HD
ENDBRANCH  27  33
BRANCH  24  35
HETATM   35  O   UNL     1      37.645 -16.102  29.888  1.00  0.00    -0.393 OA
ATOM     36  HO  UNL     1      37.617 -15.312  30.415  1.00  0.00     0.210 HD
ENDBRANCH  24  35
ENDBRANCH  18  19
ENDBRANCH   5  18
BRANCH  12  37
HETATM   37  O   UNL     1      46.075 -22.446  32.410  1.00  0.00    -0.360 OA
ATOM     38  HO  UNL     1      47.022 -22.448  32.480  1.00  0.00     0.213 HD
ENDBRANCH  12  37
BRANCH  12  39
HETATM   39  O   UNL     1      46.096 -20.547  31.127  1.00  0.00    -0.360 OA
ATOM     40  HO  UNL     1      46.677 -20.394  30.391  1.00  0.00     0.213 HD
ENDBRANCH  12  39
TORSDOF 7
ENDMDL
MODEL 5
REMARK VINA RESULT:      -8.7      2.315      3.497
REMARK  7 active torsions:
REMARK  status: ('A' for Active; 'I' for Inactive)
REMARK    1  A    between atoms: C_1  and  O_21 
REMARK    2  A    between atoms: O_8  and  C_12 
REMARK    3  A    between atoms: C_11  and  C_40 
REMARK    4  A    between atoms: O_16  and  C_30 
REMARK    5  A    between atoms: C_20  and  O_24 
REMARK    6  A    between atoms: C_30  and  O_38 
REMARK    7  A    between atoms: N_35  and  C_40 
ROOT
HETATM    1  C   UNL     1      36.890 -14.784  26.585  1.00  0.00     0.150 C 
HETATM    2  C   UNL     1      38.197 -17.070  29.154  1.00  0.00     0.202 C 
HETATM    3  O   UNL     1      38.675 -19.850  25.361  1.00  0.00    -0.287 OA
HETATM    4  F   UNL     1      37.662 -14.144  25.666  1.00  0.00    -0.203 F 
HETATM    5  C   UNL     1      39.397 -20.174  27.693  1.00  0.00     0.027 C 
HETATM    6  C   UNL     1      39.535 -19.268  28.758  1.00  0.00     0.033 C 
HETATM    7  C   UNL     1      37.569 -15.931  27.173  1.00  0.00     0.077 C 
HETATM    8  N   UNL     1      37.443 -16.089  28.567  1.00  0.00    -0.315 N 
HETATM    9  C   UNL     1      38.825 -19.484  26.556  1.00  0.00     0.194 C 
HETATM   10  C   UNL     1      37.805 -17.085  26.399  1.00  0.00     0.049 C 
HETATM   11  F   UNL     1      38.163 -17.196  30.475  1.00  0.00    -0.185 F 
HETATM   12  C   UNL     1      35.759 -14.336  28.784  1.00  0.00     0.204 C 
HETATM   13  C   UNL     1      37.004 -14.972  29.414  1.00  0.00     0.205 C 
HETATM   14  C   UNL     1      38.778 -18.104  28.413  1.00  0.00     0.035 C 
HETATM   15  C   UNL     1      36.153 -13.925  27.364  1.00  0.00     0.020 C 
HETATM   16  C   UNL     1      38.468 -18.149  27.027  1.00  0.00     0.032 C 
HETATM   17  C   UNL     1      35.536 -12.711  26.794  1.00  0.00     0.053 C 
ENDROOT
BRANCH   5  18
HETATM   18  C   UNL     1      39.723 -21.621  27.782  1.00  0.00     0.092 C 
BRANCH  18  19
HETATM   19  N   UNL     1      40.984 -22.123  28.372  1.00  0.00    -0.186 NA
HETATM   20  C   UNL     1      41.425 -23.193  27.438  1.00  0.00     0.113 C 
HETATM   21  C   UNL     1      42.946 -23.311  27.360  1.00  0.00     0.023 C 
HETATM   22  C   UNL     1      43.540 -24.247  28.419  1.00  0.00     0.026 C 
HETATM   23  C   UNL     1      43.213 -23.814  29.854  1.00  0.00     0.039 C 
HETATM   24  C   UNL     1      45.061 -24.135  28.409  1.00  0.00     0.154 C 
HETATM   25  C   UNL     1      44.259 -24.535  30.693  1.00  0.00     0.154 C 
HETATM   26  C   UNL     1      41.777 -24.116  30.247  1.00  0.00     0.165 C 
HETATM   27  C   UNL     1      45.491 -24.429  29.820  1.00  0.00     0.176 C 
HETATM   28  S   UNL     1      40.806 -22.686  29.917  1.00  0.00     0.215 S 
HETATM   29  O   UNL     1      39.440 -23.104  30.066  1.00  0.00    -0.211 OA
HETATM   30  O   UNL     1      41.278 -21.657  30.819  1.00  0.00    -0.211 OA
BRANCH  25  31
HETATM   31  O   UNL     1      44.514 -23.878  31.923  1.00  0.00    -0.392 OA
ATOM     32  HO  UNL     1      45.410 -23.571  31.993  1.00  0.00     0.210 HD
ENDBRANCH  25  31
BRANCH  27  33
HETATM   33  O   UNL     1      46.458 -25.417  30.033  1.00  0.00    -0.390 OA
ATOM     34  HO  UNL     1      47.286 -25.105  30.378  1.00  0.00     0.210 HD
ENDBRANCH  27  33
BRANCH  24  35
HETATM   35  O   UNL     1      45.445 -22.777  28.172  1.00  0.00    -0.393 OA
ATOM     36  HO  UNL     1      46.360 -22.816  27.921  1.00  0.00     0.210 HD
ENDBRANCH  24  35
ENDBRANCH  18  19
ENDBRANCH   5  18
BRANCH  12  37
HETATM   37  O   UNL     1      35.448 -13.165  29.521  1.00  0.00    -0.360 OA
ATOM     38  HO  UNL     1      35.525 -12.421  28.934  1.00  0.00     0.213 HD
ENDBRANCH  12  37
BRANCH  12  39
HETATM   39  O   UNL     1      34.663 -15.197  28.808  1.00  0.00    -0.360 OA
ATOM     40  HO  UNL     1      34.954 -16.064  29.066  1.00  0.00     0.213 HD
ENDBRANCH  12  39
TORSDOF 7
ENDMDL
MODEL 6
REMARK VINA RESULT:      -8.6      3.653     10.239
REMARK  7 active torsions:
REMARK  status: ('A' for Active; 'I' for Inactive)
REMARK    1  A    between atoms: C_1  and  O_21 
REMARK    2  A    between atoms: O_8  and  C_12 
REMARK    3  A    between atoms: C_11  and  C_40 
REMARK    4  A    between atoms: O_16  and  C_30 
REMARK    5  A    between atoms: C_20  and  O_24 
REMARK    6  A    between atoms: C_30  and  O_38 
REMARK    7  A    between atoms: N_35  and  C_40 
ROOT
HETATM    1  C   UNL     1      43.550 -25.204  29.177  1.00  0.00     0.150 C 
HETATM    2  C   UNL     1      43.085 -21.573  29.537  1.00  0.00     0.202 C 
HETATM    3  O   UNL     1      40.663 -22.249  25.533  1.00  0.00    -0.287 OA
HETATM    4  F   UNL     1      42.576 -26.127  29.403  1.00  0.00    -0.203 F 
HETATM    5  C   UNL     1      40.927 -20.239  26.933  1.00  0.00     0.027 C 
HETATM    6  C   UNL     1      41.382 -20.079  28.253  1.00  0.00     0.033 C 
HETATM    7  C   UNL     1      43.006 -23.870  28.960  1.00  0.00     0.077 C 
HETATM    8  N   UNL     1      43.670 -22.809  29.606  1.00  0.00    -0.315 N 
HETATM    9  C   UNL     1      41.079 -21.627  26.546  1.00  0.00     0.194 C 
HETATM   10  C   UNL     1      42.298 -23.580  27.777  1.00  0.00     0.049 C 
HETATM   11  F   UNL     1      43.640 -20.566  30.199  1.00  0.00    -0.185 F 
HETATM   12  C   UNL     1      45.541 -24.197  30.333  1.00  0.00     0.204 C 
HETATM   13  C   UNL     1      44.585 -23.064  30.726  1.00  0.00     0.205 C 
HETATM   14  C   UNL     1      42.098 -21.270  28.592  1.00  0.00     0.035 C 
HETATM   15  C   UNL     1      44.665 -25.394  29.957  1.00  0.00     0.020 C 
HETATM   16  C   UNL     1      41.798 -22.278  27.637  1.00  0.00     0.032 C 
HETATM   17  C   UNL     1      45.171 -26.747  30.256  1.00  0.00     0.053 C 
ENDROOT
BRANCH   5  18
HETATM   18  C   UNL     1      40.449 -19.125  26.075  1.00  0.00     0.092 C 
BRANCH  18  19
HETATM   19  N   UNL     1      39.657 -17.991  26.603  1.00  0.00    -0.186 NA
HETATM   20  C   UNL     1      38.402 -18.619  27.095  1.00  0.00     0.113 C 
HETATM   21  C   UNL     1      37.816 -17.885  28.301  1.00  0.00     0.023 C 
HETATM   22  C   UNL     1      36.873 -16.739  27.917  1.00  0.00     0.026 C 
HETATM   23  C   UNL     1      37.549 -15.670  27.048  1.00  0.00     0.039 C 
HETATM   24  C   UNL     1      36.511 -15.932  29.160  1.00  0.00     0.154 C 
HETATM   25  C   UNL     1      36.646 -14.456  27.205  1.00  0.00     0.154 C 
HETATM   26  C   UNL     1      37.750 -16.121  25.611  1.00  0.00     0.165 C 
HETATM   27  C   UNL     1      36.267 -14.532  28.669  1.00  0.00     0.176 C 
HETATM   28  S   UNL     1      39.360 -16.819  25.474  1.00  0.00     0.215 S 
HETATM   29  O   UNL     1      39.401 -17.446  24.183  1.00  0.00    -0.211 OA
HETATM   30  O   UNL     1      40.293 -15.737  25.707  1.00  0.00    -0.211 OA
BRANCH  25  31
HETATM   31  O   UNL     1      37.332 -13.236  26.975  1.00  0.00    -0.392 OA
ATOM     32  HO  UNL     1      37.134 -12.863  26.124  1.00  0.00     0.210 HD
ENDBRANCH  25  31
BRANCH  27  33
HETATM   33  O   UNL     1      35.062 -13.906  29.005  1.00  0.00    -0.390 OA
ATOM     34  HO  UNL     1      34.349 -14.494  29.224  1.00  0.00     0.210 HD
ENDBRANCH  27  33
BRANCH  24  35
HETATM   35  O   UNL     1      37.649 -15.838  30.023  1.00  0.00    -0.393 OA
ATOM     36  HO  UNL     1      37.630 -14.952  30.366  1.00  0.00     0.210 HD
ENDBRANCH  24  35
ENDBRANCH  18  19
ENDBRANCH   5  18
BRANCH  12  37
HETATM   37  O   UNL     1      46.305 -24.540  31.478  1.00  0.00    -0.360 OA
ATOM     38  HO  UNL     1      47.173 -24.792  31.185  1.00  0.00     0.213 HD
ENDBRANCH  12  37
BRANCH  12  39
HETATM   39  O   UNL     1      46.403 -23.820  29.304  1.00  0.00    -0.360 OA
ATOM     40  HO  UNL     1      47.267 -24.176  29.475  1.00  0.00     0.213 HD
ENDBRANCH  12  39
TORSDOF 7
ENDMDL
MODEL 7
REMARK VINA RESULT:      -8.5      2.916      4.457
REMARK  7 active torsions:
REMARK  status: ('A' for Active; 'I' for Inactive)
REMARK    1  A    between atoms: C_1  and  O_21 
REMARK    2  A    between atoms: O_8  and  C_12 
REMARK    3  A    between atoms: C_11  and  C_40 
REMARK    4  A    between atoms: O_16  and  C_30 
REMARK    5  A    between atoms: C_20  and  O_24 
REMARK    6  A    between atoms: C_30  and  O_38 
REMARK    7  A    between atoms: N_35  and  C_40 
ROOT
HETATM    1  C   UNL     1      37.124 -16.712  28.617  1.00  0.00     0.150 C 
HETATM    2  C   UNL     1      38.709 -18.936  26.153  1.00  0.00     0.202 C 
HETATM    3  O   UNL     1      40.295 -20.958  30.121  1.00  0.00    -0.287 OA
HETATM    4  F   UNL     1      36.059 -17.060  29.389  1.00  0.00    -0.203 F 
HETATM    5  C   UNL     1      40.503 -21.655  27.767  1.00  0.00     0.027 C 
HETATM    6  C   UNL     1      39.809 -21.251  26.614  1.00  0.00     0.033 C 
HETATM    7  C   UNL     1      37.814 -17.874  28.072  1.00  0.00     0.077 C 
HETATM    8  N   UNL     1      38.198 -17.799  26.719  1.00  0.00    -0.315 N 
HETATM    9  C   UNL     1      40.068 -20.846  28.887  1.00  0.00     0.194 C 
HETATM   10  C   UNL     1      38.559 -18.715  28.923  1.00  0.00     0.049 C 
HETATM   11  F   UNL     1      39.009 -18.925  24.860  1.00  0.00    -0.185 F 
HETATM   12  C   UNL     1      37.630 -15.435  26.513  1.00  0.00     0.204 C 
HETATM   13  C   UNL     1      37.600 -16.804  25.821  1.00  0.00     0.205 C 
HETATM   14  C   UNL     1      39.178 -20.005  26.924  1.00  0.00     0.035 C 
HETATM   15  C   UNL     1      36.889 -15.603  27.841  1.00  0.00     0.020 C 
HETATM   16  C   UNL     1      39.193 -19.818  28.332  1.00  0.00     0.032 C 
HETATM   17  C   UNL     1      36.113 -14.457  28.354  1.00  0.00     0.053 C 
ENDROOT
BRANCH   5  18
HETATM   18  C   UNL     1      41.563 -22.695  27.781  1.00  0.00     0.092 C 
BRANCH  18  19
HETATM   19  N   UNL     1      42.775 -22.591  28.624  1.00  0.00    -0.186 NA
HETATM   20  C   UNL     1      43.754 -21.868  27.769  1.00  0.00     0.113 C 
HETATM   21  C   UNL     1      44.708 -20.994  28.583  1.00  0.00     0.023 C 
HETATM   22  C   UNL     1      45.958 -21.739  29.062  1.00  0.00     0.026 C 
HETATM   23  C   UNL     1      45.633 -22.956  29.939  1.00  0.00     0.039 C 
HETATM   24  C   UNL     1      46.736 -20.863  30.039  1.00  0.00     0.154 C 
HETATM   25  C   UNL     1      46.936 -23.223  30.679  1.00  0.00     0.154 C 
HETATM   26  C   UNL     1      45.114 -24.137  29.137  1.00  0.00     0.165 C 
HETATM   27  C   UNL     1      47.425 -21.821  30.971  1.00  0.00     0.176 C 
HETATM   28  S   UNL     1      43.355 -24.059  29.120  1.00  0.00     0.215 S 
HETATM   29  O   UNL     1      42.934 -25.035  28.155  1.00  0.00    -0.211 OA
HETATM   30  O   UNL     1      42.927 -24.261  30.488  1.00  0.00    -0.211 OA
BRANCH  25  31
HETATM   31  O   UNL     1      46.732 -23.900  31.908  1.00  0.00    -0.392 OA
ATOM     32  HO  UNL     1      47.547 -24.184  32.306  1.00  0.00     0.210 HD
ENDBRANCH  25  31
BRANCH  27  33
HETATM   33  O   UNL     1      48.807 -21.700  31.152  1.00  0.00    -0.390 OA
ATOM     34  HO  UNL     1      49.093 -21.644  32.057  1.00  0.00     0.210 HD
ENDBRANCH  27  33
BRANCH  24  35
HETATM   35  O   UNL     1      45.824 -20.127  30.860  1.00  0.00    -0.393 OA
ATOM     36  HO  UNL     1      45.740 -20.635  31.658  1.00  0.00     0.210 HD
ENDBRANCH  24  35
ENDBRANCH  18  19
ENDBRANCH   5  18
BRANCH  12  37
HETATM   37  O   UNL     1      36.904 -14.522  25.705  1.00  0.00    -0.360 OA
ATOM     38  HO  UNL     1      36.101 -14.949  25.430  1.00  0.00     0.213 HD
ENDBRANCH  12  37
BRANCH  12  39
HETATM   39  O   UNL     1      38.931 -14.963  26.681  1.00  0.00    -0.360 OA
ATOM     40  HO  UNL     1      39.162 -14.416  25.939  1.00  0.00     0.213 HD
ENDBRANCH  12  39
TORSDOF 7
ENDMDL
MODEL 8
REMARK VINA RESULT:      -8.4      4.234      9.659
REMARK  7 active torsions:
REMARK  status: ('A' for Active; 'I' for Inactive)
REMARK    1  A    between atoms: C_1  and  O_21 
REMARK    2  A    between atoms: O_8  and  C_12 
REMARK    3  A    between atoms: C_11  and  C_40 
REMARK    4  A    between atoms: O_16  and  C_30 
REMARK    5  A    between atoms: C_20  and  O_24 
REMARK    6  A    between atoms: C_30  and  O_38 
REMARK    7  A    between atoms: N_35  and  C_40 
ROOT
HETATM    1  C   UNL     1      36.936 -26.274  24.896  1.00  0.00     0.150 C 
HETATM    2  C   UNL     1      37.462 -22.849  23.662  1.00  0.00     0.202 C 
HETATM    3  O   UNL     1      39.636 -22.484  27.844  1.00  0.00    -0.287 OA
HETATM    4  F   UNL     1      37.911 -27.220  24.969  1.00  0.00    -0.203 F 
HETATM    5  C   UNL     1      39.477 -20.894  25.970  1.00  0.00     0.027 C 
HETATM    6  C   UNL     1      39.103 -21.073  24.628  1.00  0.00     0.033 C 
HETATM    7  C   UNL     1      37.481 -24.926  24.802  1.00  0.00     0.077 C 
HETATM    8  N   UNL     1      36.868 -24.065  23.871  1.00  0.00    -0.315 N 
HETATM    9  C   UNL     1      39.288 -22.139  26.684  1.00  0.00     0.194 C 
HETATM   10  C   UNL     1      38.122 -24.345  25.914  1.00  0.00     0.049 C 
HETATM   11  F   UNL     1      36.958 -22.044  22.736  1.00  0.00    -0.185 F 
HETATM   12  C   UNL     1      35.028 -25.599  23.407  1.00  0.00     0.204 C 
HETATM   13  C   UNL     1      36.018 -24.598  22.799  1.00  0.00     0.205 C 
HETATM   14  C   UNL     1      38.395 -22.314  24.557  1.00  0.00     0.035 C 
HETATM   15  C   UNL     1      35.866 -26.659  24.124  1.00  0.00     0.020 C 
HETATM   16  C   UNL     1      38.627 -23.047  25.752  1.00  0.00     0.032 C 
HETATM   17  C   UNL     1      35.364 -28.046  24.146  1.00  0.00     0.053 C 
ENDROOT
BRANCH   5  18
HETATM   18  C   UNL     1      39.917 -19.597  26.547  1.00  0.00     0.092 C 
BRANCH  18  19
HETATM   19  N   UNL     1      38.974 -18.501  26.864  1.00  0.00    -0.186 NA
HETATM   20  C   UNL     1      39.830 -17.286  26.919  1.00  0.00     0.113 C 
HETATM   21  C   UNL     1      39.090 -16.028  26.465  1.00  0.00     0.023 C 
HETATM   22  C   UNL     1      38.337 -15.323  27.598  1.00  0.00     0.026 C 
HETATM   23  C   UNL     1      37.290 -16.219  28.273  1.00  0.00     0.039 C 
HETATM   24  C   UNL     1      37.459 -14.217  27.021  1.00  0.00     0.154 C 
HETATM   25  C   UNL     1      36.366 -15.230  28.970  1.00  0.00     0.154 C 
HETATM   26  C   UNL     1      37.910 -17.255  29.195  1.00  0.00     0.165 C 
HETATM   27  C   UNL     1      36.289 -14.106  27.960  1.00  0.00     0.176 C 
HETATM   28  S   UNL     1      38.146 -18.737  28.276  1.00  0.00     0.215 S 
HETATM   29  O   UNL     1      38.952 -19.585  29.109  1.00  0.00    -0.211 OA
HETATM   30  O   UNL     1      36.824 -19.219  27.936  1.00  0.00    -0.211 OA
BRANCH  25  31
HETATM   31  O   UNL     1      35.064 -15.754  29.170  1.00  0.00    -0.392 OA
ATOM     32  HO  UNL     1      35.077 -16.632  29.532  1.00  0.00     0.210 HD
ENDBRANCH  25  31
BRANCH  27  33
HETATM   33  O   UNL     1      35.974 -12.850  28.491  1.00  0.00    -0.390 OA
ATOM     34  HO  UNL     1      35.562 -12.866  29.346  1.00  0.00     0.210 HD
ENDBRANCH  27  33
BRANCH  24  35
HETATM   35  O   UNL     1      36.903 -14.643  25.773  1.00  0.00    -0.393 OA
ATOM     36  HO  UNL     1      35.977 -14.436  25.828  1.00  0.00     0.210 HD
ENDBRANCH  24  35
ENDBRANCH  18  19
ENDBRANCH   5  18
BRANCH  12  37
HETATM   37  O   UNL     1      34.329 -26.223  22.342  1.00  0.00    -0.360 OA
ATOM     38  HO  UNL     1      34.295 -25.611  21.616  1.00  0.00     0.213 HD
ENDBRANCH  12  37
BRANCH  12  39
HETATM   39  O   UNL     1      34.111 -24.977  24.254  1.00  0.00    -0.360 OA
ATOM     40  HO  UNL     1      33.410 -25.586  24.455  1.00  0.00     0.213 HD
ENDBRANCH  12  39
TORSDOF 7
ENDMDL
MODEL 9
REMARK VINA RESULT:      -8.4      1.694      2.135
REMARK  7 active torsions:
REMARK  status: ('A' for Active; 'I' for Inactive)
REMARK    1  A    between atoms: C_1  and  O_21 
REMARK    2  A    between atoms: O_8  and  C_12 
REMARK    3  A    between atoms: C_11  and  C_40 
REMARK    4  A    between atoms: O_16  and  C_30 
REMARK    5  A    between atoms: C_20  and  O_24 
REMARK    6  A    between atoms: C_30  and  O_38 
REMARK    7  A    between atoms: N_35  and  C_40 
ROOT
HETATM    1  C   UNL     1      36.165 -15.523  28.850  1.00  0.00     0.150 C 
HETATM    2  C   UNL     1      38.399 -16.784  26.213  1.00  0.00     0.202 C 
HETATM    3  O   UNL     1      40.021 -19.328  29.852  1.00  0.00    -0.287 OA
HETATM    4  F   UNL     1      35.135 -16.233  29.384  1.00  0.00    -0.203 F 
HETATM    5  C   UNL     1      40.579 -19.414  27.454  1.00  0.00     0.027 C 
HETATM    6  C   UNL     1      39.920 -18.894  26.327  1.00  0.00     0.033 C 
HETATM    7  C   UNL     1      37.132 -16.378  28.173  1.00  0.00     0.077 C 
HETATM    8  N   UNL     1      37.610 -15.924  26.929  1.00  0.00    -0.315 N 
HETATM    9  C   UNL     1      39.885 -18.980  28.649  1.00  0.00     0.194 C 
HETATM   10  C   UNL     1      37.961 -17.237  28.923  1.00  0.00     0.049 C 
HETATM   11  F   UNL     1      38.802 -16.420  25.002  1.00  0.00    -0.185 F 
HETATM   12  C   UNL     1      36.573 -13.725  27.142  1.00  0.00     0.204 C 
HETATM   13  C   UNL     1      36.895 -14.879  26.184  1.00  0.00     0.205 C 
HETATM   14  C   UNL     1      39.014 -17.894  26.802  1.00  0.00     0.035 C 
HETATM   15  C   UNL     1      35.770 -14.330  28.296  1.00  0.00     0.020 C 
HETATM   16  C   UNL     1      38.864 -18.036  28.207  1.00  0.00     0.032 C 
HETATM   17  C   UNL     1      34.726 -13.499  28.927  1.00  0.00     0.053 C 
ENDROOT
BRANCH   5  18
HETATM   18  C   UNL     1      41.830 -20.212  27.393  1.00  0.00     0.092 C 
BRANCH  18  19
HETATM   19  N   UNL     1      41.843 -21.689  27.488  1.00  0.00    -0.186 NA
HETATM   20  C   UNL     1      42.817 -21.978  28.575  1.00  0.00     0.113 C 
HETATM   21  C   UNL     1      42.459 -23.239  29.360  1.00  0.00     0.023 C 
HETATM   22  C   UNL     1      43.040 -24.521  28.752  1.00  0.00     0.026 C 
HETATM   23  C   UNL     1      42.577 -24.765  27.310  1.00  0.00     0.039 C 
HETATM   24  C   UNL     1      42.458 -25.738  29.465  1.00  0.00     0.154 C 
HETATM   25  C   UNL     1      42.837 -26.249  27.095  1.00  0.00     0.154 C 
HETATM   26  C   UNL     1      43.270 -23.856  26.308  1.00  0.00     0.165 C 
HETATM   27  C   UNL     1      42.446 -26.834  28.436  1.00  0.00     0.176 C 
HETATM   28  S   UNL     1      42.262 -22.432  26.070  1.00  0.00     0.215 S 
HETATM   29  O   UNL     1      43.068 -21.508  25.324  1.00  0.00    -0.211 OA
HETATM   30  O   UNL     1      41.044 -22.897  25.441  1.00  0.00    -0.211 OA
BRANCH  25  31
HETATM   31  O   UNL     1      42.003 -26.806  26.093  1.00  0.00    -0.392 OA
ATOM     32  HO  UNL     1      42.461 -26.939  25.271  1.00  0.00     0.210 HD
ENDBRANCH  25  31
BRANCH  27  33
HETATM   33  O   UNL     1      43.051 -28.055  28.751  1.00  0.00    -0.390 OA
ATOM     34  HO  UNL     1      43.991 -28.088  28.611  1.00  0.00     0.210 HD
ENDBRANCH  27  33
BRANCH  24  35
HETATM   35  O   UNL     1      41.083 -25.501  29.782  1.00  0.00    -0.393 OA
ATOM     36  HO  UNL     1      40.792 -26.283  30.235  1.00  0.00     0.210 HD
ENDBRANCH  24  35
ENDBRANCH  18  19
ENDBRANCH   5  18
BRANCH  12  37
HETATM   37  O   UNL     1      35.744 -12.804  26.452  1.00  0.00    -0.360 OA
ATOM     38  HO  UNL     1      36.238 -12.462  25.716  1.00  0.00     0.213 HD
ENDBRANCH  12  37
BRANCH  12  39
HETATM   39  O   UNL     1      37.724 -13.069  27.576  1.00  0.00    -0.360 OA
ATOM     40  HO  UNL     1      38.168 -13.611  28.217  1.00  0.00     0.213 HD
ENDBRANCH  12  39
TORSDOF 7
ENDMDL
