REMARK  5 active torsions:
REMARK  status: ('A' for Active; 'I' for Inactive)
REMARK    1  A    between atoms: O_1  and  N_7 
REMARK    2  A    between atoms: C_8  and  N_25 
REMARK    3  A    between atoms: C_8  and  C_28 
REMARK    4  A    between atoms: C_9  and  N_25 
REMARK    5  A    between atoms: C_14  and  C_27 
ROOT
HETATM    1  C   UNL     1     -27.363  22.907 -18.724  1.00  0.00     0.050 C 
HETATM    2  C   UNL     1     -26.487  23.224 -19.776  1.00  0.00     0.060 C 
ENDROOT
BRANCH   1   3
HETATM    3  N   UNL     1     -28.671  22.520 -19.085  1.00  0.00    -0.355 N 
ATOM      4  HN  UNL     1     -29.291  23.282 -19.360  1.00  0.00     0.166 HD
BRANCH   3   5
HETATM    5  C   UNL     1     -29.242  21.240 -19.121  1.00  0.00     0.032 C 
HETATM    6  C   UNL     1     -28.990  20.272 -18.143  1.00  0.00     0.029 C 
HETATM    7  C   UNL     1     -29.664  19.047 -18.170  1.00  0.00     0.002 C 
HETATM    8  C   UNL     1     -30.479  18.732 -19.253  1.00  0.00     0.000 C 
HETATM    9  C   UNL     1     -30.775  19.701 -20.205  1.00  0.00     0.002 C 
HETATM   10  C   UNL     1     -30.160  20.950 -20.136  1.00  0.00     0.029 C 
ENDBRANCH   3   5
ENDBRANCH   1   3
BRANCH   1  11
HETATM   11  C   UNL     1     -27.235  23.376 -17.332  1.00  0.00     0.059 C 
HETATM   12  C   UNL     1     -28.279  23.282 -16.391  1.00  0.00     0.021 C 
HETATM   13  C   UNL     1     -28.354  24.236 -15.342  1.00  0.00     0.018 C 
HETATM   14  C   UNL     1     -27.399  25.231 -15.274  1.00  0.00     0.091 C 
HETATM   15  N   UNL     1     -26.275  25.208 -16.072  1.00  0.00    -0.333 N 
HETATM   16  C   UNL     1     -26.027  24.104 -16.850  1.00  0.00     0.257 C 
ATOM     17  HN  UNL     1     -25.635  26.002 -16.084  1.00  0.00     0.168 HD
HETATM   18  O   UNL     1     -24.885  23.678 -17.047  1.00  0.00    -0.267 OA
ENDBRANCH   1  11
BRANCH   2  19
HETATM   19  C   UNL     1     -25.208  22.877 -20.282  1.00  0.00     0.036 C 
HETATM   20  C   UNL     1     -24.785  22.912 -21.653  1.00  0.00    -0.017 C 
HETATM   21  C   UNL     1     -23.602  22.018 -21.688  1.00  0.00     0.293 C 
HETATM   22  C   UNL     1     -25.300  23.591 -22.888  1.00  0.00     0.040 C 
HETATM   23  N   UNL     1     -22.612  22.400 -22.736  1.00  0.00     0.102 N 
HETATM   24  C   UNL     1     -22.961  22.326 -20.333  1.00  0.00     0.221 C 
HETATM   25  C   UNL     1     -22.009  20.998 -22.587  1.00  0.00     0.290 C 
HETATM   26  C   UNL     1     -23.351  22.305 -24.063  1.00  0.00     0.273 C 
HETATM   27  C   UNL     1     -21.186  21.214 -21.272  1.00  0.00     0.153 C 
HETATM   28  N   UNL     1     -22.238  20.979 -20.191  1.00  0.00    -0.172 NA
HETATM   29  C   UNL     1     -24.466  23.373 -24.132  1.00  0.00     0.034 C 
HETATM   30  N   UNL     1     -24.145  22.462 -19.523  1.00  0.00    -0.369 N 
ATOM     31  HN  UNL     1     -24.186  22.275 -18.521  1.00  0.00     0.161 HD
BRANCH  28  32
HETATM   32  O   UNL     1     -21.541  21.148 -18.955  1.00  0.00    -0.311 OA
ATOM     33  HO  UNL     1     -22.196  21.002 -18.282  1.00  0.00     0.237 HD
ENDBRANCH  28  32
ENDBRANCH   2  19
TORSDOF 5
