MODEL 1
REMARK VINA RESULT:     -12.3      0.000      0.000
REMARK  2 active torsions:
REMARK  status: ('A' for Active; 'I' for Inactive)
REMARK    1  A    between atoms: O_12  and  C_19 
REMARK    2  A    between atoms: C_17  and  C_22 
ROOT
HETATM    1  C   UNL     1     -20.879  22.368 -21.698  1.00  0.00     0.051 C 
HETATM    2  C   UNL     1     -21.141  20.693 -18.944  1.00  0.00    -0.022 C 
HETATM    3  C   UNL     1     -22.200  21.434 -18.479  1.00  0.00     0.008 C 
HETATM    4  C   UNL     1     -23.107  21.767 -20.736  1.00  0.00    -0.014 C 
HETATM    5  C   UNL     1     -26.189  23.959 -17.297  1.00  0.00     0.013 C 
HETATM    6  C   UNL     1     -28.785  23.478 -16.050  1.00  0.00     0.001 C 
HETATM    7  C   UNL     1     -27.764  24.176 -15.420  1.00  0.00     0.000 C 
HETATM    8  C   UNL     1     -25.423  22.348 -21.516  1.00  0.00     0.031 C 
HETATM    9  C   UNL     1     -24.506  22.076 -18.747  1.00  0.00     0.026 C 
HETATM   10  C   UNL     1     -28.436  21.892 -19.502  1.00  0.00     0.029 C 
HETATM   11  C   UNL     1     -26.555  24.430 -16.074  1.00  0.00     0.001 C 
HETATM   12  C   UNL     1     -21.802  21.226 -21.335  1.00  0.00     0.085 C 
HETATM   13  C   UNL     1     -21.071  20.280 -20.387  1.00  0.00     0.069 C 
HETATM   14  C   UNL     1     -28.953  23.045 -17.346  1.00  0.00     0.014 C 
HETATM   15  C   UNL     1     -25.791  22.431 -19.134  1.00  0.00     0.003 C 
HETATM   16  N   UNL     1     -27.633  21.932 -20.594  1.00  0.00    -0.357 N 
ATOM     17  HN  UNL     1     -28.014  21.752 -21.523  1.00  0.00     0.166 HD
HETATM   18  C   UNL     1     -28.040  22.692 -18.334  1.00  0.00    -0.002 C 
HETATM   19  C   UNL     1     -26.299  22.220 -20.430  1.00  0.00     0.043 C 
HETATM   20  C   UNL     1     -24.065  22.291 -21.592  1.00  0.00     0.013 C 
HETATM   21  C   UNL     1     -23.282  21.812 -19.343  1.00  0.00    -0.026 C 
HETATM   22  C   UNL     1     -26.690  23.054 -18.227  1.00  0.00    -0.011 C 
ENDROOT
BRANCH  10  23
HETATM   23  C   UNL     1     -29.376  20.741 -19.264  1.00  0.00     0.003 C 
HETATM   24  C   UNL     1     -29.217  20.198 -17.833  1.00  0.00     0.016 C 
HETATM   25  C   UNL     1     -29.957  18.855 -17.916  1.00  0.00     0.006 C 
HETATM   26  C   UNL     1     -30.350  18.733 -19.417  1.00  0.00    -0.013 C 
HETATM   27  C   UNL     1     -29.191  19.473 -20.102  1.00  0.00     0.020 C 
HETATM   28  C   UNL     1     -31.524  19.719 -19.603  1.00  0.00     0.006 C 
HETATM   29  C   UNL     1     -30.837  21.091 -19.556  1.00  0.00     0.016 C 
ENDBRANCH  10  23
BRANCH  12  30
HETATM   30  O   UNL     1     -22.129  20.478 -22.502  1.00  0.00    -0.385 OA
ATOM     31  HO  UNL     1     -22.325  19.579 -22.265  1.00  0.00     0.211 HD
ENDBRANCH  12  30
TORSDOF 2
ENDMDL
MODEL 2
REMARK VINA RESULT:     -11.6      2.563      7.589
REMARK  2 active torsions:
REMARK  status: ('A' for Active; 'I' for Inactive)
REMARK    1  A    between atoms: O_12  and  C_19 
REMARK    2  A    between atoms: C_17  and  C_22 
ROOT
HETATM    1  C   UNL     1     -31.964  21.178 -19.879  1.00  0.00     0.051 C 
HETATM    2  C   UNL     1     -30.624  18.832 -21.657  1.00  0.00    -0.022 C 
HETATM    3  C   UNL     1     -29.679  19.660 -22.213  1.00  0.00     0.008 C 
HETATM    4  C   UNL     1     -29.487  21.008 -20.171  1.00  0.00    -0.014 C 
HETATM    5  C   UNL     1     -26.208  22.734 -23.692  1.00  0.00     0.013 C 
HETATM    6  C   UNL     1     -23.339  22.688 -24.232  1.00  0.00     0.001 C 
HETATM    7  C   UNL     1     -24.294  22.775 -25.236  1.00  0.00     0.000 C 
HETATM    8  C   UNL     1     -27.648  22.509 -19.349  1.00  0.00     0.031 C 
HETATM    9  C   UNL     1     -27.731  21.037 -21.880  1.00  0.00     0.026 C 
HETATM   10  C   UNL     1     -24.196  22.352 -20.530  1.00  0.00     0.029 C 
HETATM   11  C   UNL     1     -25.656  22.848 -24.930  1.00  0.00     0.001 C 
HETATM   12  C   UNL     1     -30.743  20.328 -19.609  1.00  0.00     0.085 C 
HETATM   13  C   UNL     1     -30.968  18.938 -20.198  1.00  0.00     0.069 C 
HETATM   14  C   UNL     1     -23.417  22.798 -22.863  1.00  0.00     0.014 C 
HETATM   15  C   UNL     1     -26.706  21.883 -21.478  1.00  0.00     0.003 C 
HETATM   16  N   UNL     1     -25.240  22.511 -19.682  1.00  0.00    -0.357 N 
ATOM     17  HN  UNL     1     -25.082  22.787 -18.712  1.00  0.00     0.166 HD
HETATM   18  C   UNL     1     -24.449  22.540 -21.966  1.00  0.00    -0.002 C 
HETATM   19  C   UNL     1     -26.516  22.296 -20.147  1.00  0.00     0.043 C 
HETATM   20  C   UNL     1     -28.930  22.063 -19.463  1.00  0.00     0.013 C 
HETATM   21  C   UNL     1     -28.973  20.627 -21.420  1.00  0.00    -0.026 C 
HETATM   22  C   UNL     1     -25.771  22.405 -22.412  1.00  0.00    -0.011 C 
ENDROOT
BRANCH  10  23
HETATM   23  C   UNL     1     -22.989  21.541 -20.142  1.00  0.00     0.003 C 
HETATM   24  C   UNL     1     -22.825  21.509 -18.613  1.00  0.00     0.016 C 
HETATM   25  C   UNL     1     -21.394  20.976 -18.454  1.00  0.00     0.006 C 
HETATM   26  C   UNL     1     -20.864  20.877 -19.916  1.00  0.00    -0.013 C 
HETATM   27  C   UNL     1     -21.612  22.036 -20.595  1.00  0.00     0.020 C 
HETATM   28  C   UNL     1     -21.568  19.639 -20.512  1.00  0.00     0.006 C 
HETATM   29  C   UNL     1     -23.010  20.123 -20.718  1.00  0.00     0.016 C 
ENDBRANCH  10  23
BRANCH  12  30
HETATM   30  O   UNL     1     -30.566  20.164 -18.206  1.00  0.00    -0.385 OA
ATOM     31  HO  UNL     1     -30.263  20.978 -17.821  1.00  0.00     0.211 HD
ENDBRANCH  12  30
TORSDOF 2
ENDMDL
MODEL 3
REMARK VINA RESULT:     -11.3      2.304      3.610
REMARK  2 active torsions:
REMARK  status: ('A' for Active; 'I' for Inactive)
REMARK    1  A    between atoms: O_12  and  C_19 
REMARK    2  A    between atoms: C_17  and  C_22 
ROOT
HETATM    1  C   UNL     1     -24.119  24.397 -24.735  1.00  0.00     0.051 C 
HETATM    2  C   UNL     1     -22.866  22.087 -22.852  1.00  0.00    -0.022 C 
HETATM    3  C   UNL     1     -23.857  22.184 -21.906  1.00  0.00     0.008 C 
HETATM    4  C   UNL     1     -25.568  22.716 -23.584  1.00  0.00    -0.014 C 
HETATM    5  C   UNL     1     -27.714  22.469 -18.951  1.00  0.00     0.013 C 
HETATM    6  C   UNL     1     -29.422  20.667 -17.414  1.00  0.00     0.001 C 
HETATM    7  C   UNL     1     -28.500  21.521 -16.822  1.00  0.00     0.000 C 
HETATM    8  C   UNL     1     -28.069  22.502 -23.518  1.00  0.00     0.031 C 
HETATM    9  C   UNL     1     -26.185  21.889 -21.360  1.00  0.00     0.026 C 
HETATM   10  C   UNL     1     -29.879  20.348 -21.187  1.00  0.00     0.029 C 
HETATM   11  C   UNL     1     -27.739  22.405 -17.592  1.00  0.00     0.001 C 
HETATM   12  C   UNL     1     -24.467  22.929 -24.631  1.00  0.00     0.085 C 
HETATM   13  C   UNL     1     -23.199  22.141 -24.316  1.00  0.00     0.069 C 
HETATM   14  C   UNL     1     -29.906  20.570 -18.698  1.00  0.00     0.014 C 
HETATM   15  C   UNL     1     -27.566  21.786 -21.271  1.00  0.00     0.003 C 
HETATM   16  N   UNL     1     -29.572  21.000 -22.335  1.00  0.00    -0.357 N 
ATOM     17  HN  UNL     1     -30.188  20.938 -23.146  1.00  0.00     0.166 HD
HETATM   18  C   UNL     1     -29.348  20.894 -19.930  1.00  0.00    -0.002 C 
HETATM   19  C   UNL     1     -28.418  21.745 -22.391  1.00  0.00     0.043 C 
HETATM   20  C   UNL     1     -26.878  23.020 -23.925  1.00  0.00     0.013 C 
HETATM   21  C   UNL     1     -25.237  22.311 -22.281  1.00  0.00    -0.026 C 
HETATM   22  C   UNL     1     -28.222  21.726 -20.012  1.00  0.00    -0.011 C 
ENDROOT
BRANCH  10  23
HETATM   23  C   UNL     1     -30.283  18.898 -21.194  1.00  0.00     0.003 C 
HETATM   24  C   UNL     1     -30.552  18.418 -22.631  1.00  0.00     0.016 C 
HETATM   25  C   UNL     1     -31.281  17.087 -22.392  1.00  0.00     0.006 C 
HETATM   26  C   UNL     1     -31.447  17.021 -20.845  1.00  0.00    -0.013 C 
HETATM   27  C   UNL     1     -31.582  18.509 -20.484  1.00  0.00     0.020 C 
HETATM   28  C   UNL     1     -30.041  16.679 -20.307  1.00  0.00     0.006 C 
HETATM   29  C   UNL     1     -29.267  17.991 -20.497  1.00  0.00     0.016 C 
ENDBRANCH  10  23
BRANCH  12  30
HETATM   30  O   UNL     1     -24.952  22.456 -25.884  1.00  0.00    -0.385 OA
ATOM     31  HO  UNL     1     -25.208  21.544 -25.808  1.00  0.00     0.211 HD
ENDBRANCH  12  30
TORSDOF 2
ENDMDL
MODEL 4
REMARK VINA RESULT:     -10.7      2.339      7.533
REMARK  2 active torsions:
REMARK  status: ('A' for Active; 'I' for Inactive)
REMARK    1  A    between atoms: O_12  and  C_19 
REMARK    2  A    between atoms: C_17  and  C_22 
ROOT
HETATM    1  C   UNL     1     -30.072  22.278 -17.092  1.00  0.00     0.051 C 
HETATM    2  C   UNL     1     -29.961  19.737 -19.089  1.00  0.00    -0.022 C 
HETATM    3  C   UNL     1     -29.241  20.401 -20.052  1.00  0.00     0.008 C 
HETATM    4  C   UNL     1     -28.009  21.719 -18.388  1.00  0.00    -0.014 C 
HETATM    5  C   UNL     1     -26.349  22.881 -23.081  1.00  0.00     0.013 C 
HETATM    6  C   UNL     1     -24.025  22.380 -24.776  1.00  0.00     0.001 C 
HETATM    7  C   UNL     1     -25.296  22.608 -25.286  1.00  0.00     0.000 C 
HETATM    8  C   UNL     1     -25.807  22.920 -18.532  1.00  0.00     0.031 C 
HETATM    9  C   UNL     1     -27.168  21.459 -20.675  1.00  0.00     0.026 C 
HETATM   10  C   UNL     1     -23.251  22.213 -21.044  1.00  0.00     0.029 C 
HETATM   11  C   UNL     1     -26.370  22.896 -24.441  1.00  0.00     0.001 C 
HETATM   12  C   UNL     1     -28.984  21.249 -17.300  1.00  0.00     0.085 C 
HETATM   13  C   UNL     1     -29.629  19.907 -17.633  1.00  0.00     0.069 C 
HETATM   14  C   UNL     1     -23.493  22.513 -23.514  1.00  0.00     0.014 C 
HETATM   15  C   UNL     1     -25.964  22.136 -20.807  1.00  0.00     0.003 C 
HETATM   16  N   UNL     1     -23.799  22.542 -19.849  1.00  0.00    -0.357 N 
ATOM     17  HN  UNL     1     -23.204  22.797 -19.060  1.00  0.00     0.166 HD
HETATM   18  C   UNL     1     -24.066  22.427 -22.249  1.00  0.00    -0.002 C 
HETATM   19  C   UNL     1     -25.167  22.526 -19.715  1.00  0.00     0.043 C 
HETATM   20  C   UNL     1     -27.062  22.680 -18.061  1.00  0.00     0.013 C 
HETATM   21  C   UNL     1     -28.138  21.252 -19.705  1.00  0.00    -0.026 C 
HETATM   22  C   UNL     1     -25.456  22.498 -22.084  1.00  0.00    -0.011 C 
ENDROOT
BRANCH  10  23
HETATM   23  C   UNL     1     -22.119  21.226 -21.142  1.00  0.00     0.003 C 
HETATM   24  C   UNL     1     -20.826  21.927 -21.593  1.00  0.00     0.016 C 
HETATM   25  C   UNL     1     -19.934  20.737 -21.976  1.00  0.00     0.006 C 
HETATM   26  C   UNL     1     -20.864  19.499 -21.811  1.00  0.00    -0.013 C 
HETATM   27  C   UNL     1     -22.236  20.094 -22.166  1.00  0.00     0.020 C 
HETATM   28  C   UNL     1     -20.983  19.290 -20.286  1.00  0.00     0.006 C 
HETATM   29  C   UNL     1     -21.893  20.445 -19.846  1.00  0.00     0.016 C 
ENDBRANCH  10  23
BRANCH  12  30
HETATM   30  O   UNL     1     -28.248  21.072 -16.094  1.00  0.00    -0.385 OA
ATOM     31  HO  UNL     1     -28.306  21.856 -15.561  1.00  0.00     0.211 HD
ENDBRANCH  12  30
TORSDOF 2
ENDMDL
MODEL 5
REMARK VINA RESULT:     -10.7      1.332      1.937
REMARK  2 active torsions:
REMARK  status: ('A' for Active; 'I' for Inactive)
REMARK    1  A    between atoms: O_12  and  C_19 
REMARK    2  A    between atoms: C_17  and  C_22 
ROOT
HETATM    1  C   UNL     1     -20.178  22.242 -21.656  1.00  0.00     0.051 C 
HETATM    2  C   UNL     1     -21.117  19.828 -19.718  1.00  0.00    -0.022 C 
HETATM    3  C   UNL     1     -22.177  20.529 -19.197  1.00  0.00     0.008 C 
HETATM    4  C   UNL     1     -22.595  21.700 -21.313  1.00  0.00    -0.014 C 
HETATM    5  C   UNL     1     -26.083  23.101 -17.848  1.00  0.00     0.013 C 
HETATM    6  C   UNL     1     -28.904  22.634 -17.258  1.00  0.00     0.001 C 
HETATM    7  C   UNL     1     -27.968  22.934 -16.278  1.00  0.00     0.000 C 
HETATM    8  C   UNL     1     -24.655  22.837 -22.193  1.00  0.00     0.031 C 
HETATM    9  C   UNL     1     -24.322  21.557 -19.579  1.00  0.00     0.026 C 
HETATM   10  C   UNL     1     -28.030  22.209 -20.947  1.00  0.00     0.029 C 
HETATM   11  C   UNL     1     -26.637  23.202 -16.611  1.00  0.00     0.001 C 
HETATM   12  C   UNL     1     -21.251  21.194 -21.853  1.00  0.00     0.085 C 
HETATM   13  C   UNL     1     -20.804  19.896 -21.186  1.00  0.00     0.069 C 
HETATM   14  C   UNL     1     -28.854  22.671 -18.633  1.00  0.00     0.014 C 
HETATM   15  C   UNL     1     -25.471  22.203 -20.014  1.00  0.00     0.003 C 
HETATM   16  N   UNL     1     -27.030  22.479 -21.821  1.00  0.00    -0.357 N 
ATOM     17  HN  UNL     1     -27.237  22.665 -22.802  1.00  0.00     0.166 HD
HETATM   18  C   UNL     1     -27.801  22.524 -19.530  1.00  0.00    -0.002 C 
HETATM   19  C   UNL     1     -25.734  22.498 -21.365  1.00  0.00     0.043 C 
HETATM   20  C   UNL     1     -23.318  22.608 -22.074  1.00  0.00     0.013 C 
HETATM   21  C   UNL     1     -23.033  21.321 -20.034  1.00  0.00    -0.026 C 
HETATM   22  C   UNL     1     -26.471  22.628 -19.099  1.00  0.00    -0.011 C 
ENDROOT
BRANCH  10  23
HETATM   23  C   UNL     1     -29.096  21.195 -21.266  1.00  0.00     0.003 C 
HETATM   24  C   UNL     1     -29.287  21.069 -22.787  1.00  0.00     0.016 C 
HETATM   25  C   UNL     1     -30.614  20.302 -22.881  1.00  0.00     0.006 C 
HETATM   26  C   UNL     1     -31.086  20.183 -21.401  1.00  0.00    -0.013 C 
HETATM   27  C   UNL     1     -30.524  21.477 -20.792  1.00  0.00     0.020 C 
HETATM   28  C   UNL     1     -30.174  19.105 -20.777  1.00  0.00     0.006 C 
HETATM   29  C   UNL     1     -28.828  19.827 -20.634  1.00  0.00     0.016 C 
ENDBRANCH  10  23
BRANCH  12  30
HETATM   30  O   UNL     1     -21.409  20.918 -23.241  1.00  0.00    -0.385 OA
ATOM     31  HO  UNL     1     -21.579  19.992 -23.369  1.00  0.00     0.211 HD
ENDBRANCH  12  30
TORSDOF 2
ENDMDL
MODEL 6
REMARK VINA RESULT:      -9.6      2.864      3.905
REMARK  2 active torsions:
REMARK  status: ('A' for Active; 'I' for Inactive)
REMARK    1  A    between atoms: O_12  and  C_19 
REMARK    2  A    between atoms: C_17  and  C_22 
ROOT
HETATM    1  C   UNL     1     -20.162  21.766 -21.746  1.00  0.00     0.051 C 
HETATM    2  C   UNL     1     -21.864  19.119 -21.002  1.00  0.00    -0.022 C 
HETATM    3  C   UNL     1     -22.961  19.826 -20.574  1.00  0.00     0.008 C 
HETATM    4  C   UNL     1     -22.609  21.603 -22.230  1.00  0.00    -0.014 C 
HETATM    5  C   UNL     1     -26.830  22.584 -19.519  1.00  0.00     0.013 C 
HETATM    6  C   UNL     1     -29.729  22.496 -19.859  1.00  0.00     0.001 C 
HETATM    7  C   UNL     1     -29.108  22.329 -18.628  1.00  0.00     0.000 C 
HETATM    8  C   UNL     1     -24.190  23.300 -23.194  1.00  0.00     0.031 C 
HETATM    9  C   UNL     1     -24.783  21.296 -21.142  1.00  0.00     0.026 C 
HETATM   10  C   UNL     1     -27.828  22.977 -23.130  1.00  0.00     0.029 C 
HETATM   11  C   UNL     1     -27.720  22.432 -18.502  1.00  0.00     0.001 C 
HETATM   12  C   UNL     1     -21.218  21.032 -22.540  1.00  0.00     0.085 C 
HETATM   13  C   UNL     1     -21.118  19.540 -22.237  1.00  0.00     0.069 C 
HETATM   14  C   UNL     1     -29.263  22.909 -21.086  1.00  0.00     0.014 C 
HETATM   15  C   UNL     1     -25.681  22.238 -21.625  1.00  0.00     0.003 C 
HETATM   16  N   UNL     1     -26.590  23.294 -23.582  1.00  0.00    -0.357 N 
ATOM     17  HN  UNL     1     -26.472  23.784 -24.469  1.00  0.00     0.166 HD
HETATM   18  C   UNL     1     -28.008  22.831 -21.679  1.00  0.00    -0.002 C 
HETATM   19  C   UNL     1     -25.495  22.945 -22.827  1.00  0.00     0.043 C 
HETATM   20  C   UNL     1     -22.979  22.805 -22.816  1.00  0.00     0.013 C 
HETATM   21  C   UNL     1     -23.446  20.965 -21.301  1.00  0.00    -0.026 C 
HETATM   22  C   UNL     1     -26.866  22.563 -20.911  1.00  0.00    -0.011 C 
ENDROOT
BRANCH  10  23
HETATM   23  C   UNL     1     -28.838  22.307 -24.022  1.00  0.00     0.003 C 
HETATM   24  C   UNL     1     -30.020  23.250 -24.306  1.00  0.00     0.016 C 
HETATM   25  C   UNL     1     -31.064  22.289 -24.893  1.00  0.00     0.006 C 
HETATM   26  C   UNL     1     -30.399  20.886 -24.765  1.00  0.00    -0.013 C 
HETATM   27  C   UNL     1     -29.552  21.060 -23.494  1.00  0.00     0.020 C 
HETATM   28  C   UNL     1     -29.323  20.853 -25.872  1.00  0.00     0.006 C 
HETATM   29  C   UNL     1     -28.232  21.784 -25.327  1.00  0.00     0.016 C 
ENDBRANCH  10  23
BRANCH  12  30
HETATM   30  O   UNL     1     -20.976  21.193 -23.934  1.00  0.00    -0.385 OA
ATOM     31  HO  UNL     1     -20.276  21.821 -24.070  1.00  0.00     0.211 HD
ENDBRANCH  12  30
TORSDOF 2
ENDMDL
MODEL 7
REMARK VINA RESULT:      -9.4      3.209      6.440
REMARK  2 active torsions:
REMARK  status: ('A' for Active; 'I' for Inactive)
REMARK    1  A    between atoms: O_12  and  C_19 
REMARK    2  A    between atoms: C_17  and  C_22 
ROOT
HETATM    1  C   UNL     1     -27.461  23.283 -14.559  1.00  0.00     0.051 C 
HETATM    2  C   UNL     1     -26.506  25.909 -16.186  1.00  0.00    -0.022 C 
HETATM    3  C   UNL     1     -25.893  25.189 -17.182  1.00  0.00     0.008 C 
HETATM    4  C   UNL     1     -27.548  23.381 -17.056  1.00  0.00    -0.014 C 
HETATM    5  C   UNL     1     -24.175  22.374 -20.761  1.00  0.00     0.013 C 
HETATM    6  C   UNL     1     -24.045  22.391 -23.679  1.00  0.00     0.001 C 
HETATM    7  C   UNL     1     -22.934  22.600 -22.873  1.00  0.00     0.000 C 
HETATM    8  C   UNL     1     -28.211  21.628 -18.728  1.00  0.00     0.031 C 
HETATM    9  C   UNL     1     -26.131  23.667 -19.034  1.00  0.00     0.026 C 
HETATM   10  C   UNL     1     -27.570  21.874 -22.315  1.00  0.00     0.029 C 
HETATM   11  C   UNL     1     -23.031  22.531 -21.480  1.00  0.00     0.001 C 
HETATM   12  C   UNL     1     -28.089  23.975 -15.747  1.00  0.00     0.085 C 
HETATM   13  C   UNL     1     -27.836  25.475 -15.638  1.00  0.00     0.069 C 
HETATM   14  C   UNL     1     -25.322  21.959 -23.405  1.00  0.00     0.014 C 
HETATM   15  C   UNL     1     -26.444  22.695 -19.974  1.00  0.00     0.003 C 
HETATM   16  N   UNL     1     -28.208  21.573 -21.158  1.00  0.00    -0.357 N 
ATOM     17  HN  UNL     1     -29.092  21.065 -21.172  1.00  0.00     0.166 HD
HETATM   18  C   UNL     1     -26.111  22.051 -22.263  1.00  0.00    -0.002 C 
HETATM   19  C   UNL     1     -27.646  21.963 -19.966  1.00  0.00     0.043 C 
HETATM   20  C   UNL     1     -28.043  22.158 -17.484  1.00  0.00     0.013 C 
HETATM   21  C   UNL     1     -26.509  24.023 -17.748  1.00  0.00    -0.026 C 
HETATM   22  C   UNL     1     -25.542  22.361 -21.020  1.00  0.00    -0.011 C 
ENDROOT
BRANCH  10  23
HETATM   23  C   UNL     1     -28.301  22.501 -23.472  1.00  0.00     0.003 C 
HETATM   24  C   UNL     1     -28.337  24.032 -23.326  1.00  0.00     0.016 C 
HETATM   25  C   UNL     1     -29.402  24.427 -24.359  1.00  0.00     0.006 C 
HETATM   26  C   UNL     1     -29.934  23.064 -24.892  1.00  0.00    -0.013 C 
HETATM   27  C   UNL     1     -29.784  22.167 -23.653  1.00  0.00     0.020 C 
HETATM   28  C   UNL     1     -28.818  22.534 -25.818  1.00  0.00     0.006 C 
HETATM   29  C   UNL     1     -27.727  22.096 -24.832  1.00  0.00     0.016 C 
ENDBRANCH  10  23
BRANCH  12  30
HETATM   30  O   UNL     1     -29.500  23.786 -15.728  1.00  0.00    -0.385 OA
ATOM     31  HO  UNL     1     -29.940  24.624 -15.813  1.00  0.00     0.211 HD
ENDBRANCH  12  30
TORSDOF 2
ENDMDL
