REMARK  15 active torsions:
REMARK  status: ('A' for Active; 'I' for Inactive)
REMARK    1  A    between atoms: C_1  and  C_33 
REMARK    2  A    between atoms: C_2  and  N_18 
REMARK    3  A    between atoms: C_2  and  C_27 
REMARK    4  A    between atoms: C_8  and  C_27 
REMARK    5  A    between atoms: C_9  and  C_21 
REMARK    6  A    between atoms: C_11  and  C_37 
REMARK    7  A    between atoms: C_11  and  C_45 
REMARK    8  A    between atoms: C_14  and  C_41 
REMARK    9  A    between atoms: C_15  and  C_41 
REMARK   10  A    between atoms: O_16  and  C_42 
REMARK   11  A    between atoms: N_18  and  C_45 
REMARK   12  A    between atoms: C_21  and  C_33 
REMARK   13  A    between atoms: C_22  and  O_38 
REMARK   14  A    between atoms: O_28  and  C_43 
REMARK   15  A    between atoms: C_32  and  C_37 
ROOT
HETATM    1  C   UNL     1      -1.317  15.347  14.512  1.00  0.00     0.042 C 
HETATM    2  C   UNL     1       1.441  13.822  15.295  1.00  0.00     0.047 C 
HETATM    3  C   UNL     1      -2.316  17.507  14.417  1.00  0.00     0.102 C 
HETATM    4  C   UNL     1       0.154  17.451  14.325  1.00  0.00     0.122 C 
HETATM    5  C   UNL     1       0.486  12.760  15.402  1.00  0.00     0.026 C 
HETATM    6  C   UNL     1       0.055  15.939  14.601  1.00  0.00    -0.007 C 
HETATM    7  C   UNL     1      -3.505  18.228  14.257  1.00  0.00     0.055 C 
HETATM    8  N   UNL     1      -2.418  16.148  14.242  1.00  0.00    -0.342 N 
ATOM      9  HN  UNL     1      -3.292  15.733  13.918  1.00  0.00     0.167 HD
HETATM   10  N   UNL     1      -1.083  18.127  14.877  1.00  0.00    -0.367 N 
ATOM     11  HN  UNL     1      -1.055  18.931  15.504  1.00  0.00     0.161 HD
HETATM   12  C   UNL     1      -1.645  14.042  14.958  1.00  0.00     0.030 C 
HETATM   13  C   UNL     1      -0.889  12.939  15.354  1.00  0.00     0.004 C 
HETATM   14  C   UNL     1       1.175  15.113  14.771  1.00  0.00     0.038 C 
HETATM   15  N   UNL     1       2.682  13.585  15.860  1.00  0.00    -0.102 NA
ENDROOT
BRANCH   4  16
HETATM   16  C   UNL     1       1.447  18.175  14.753  1.00  0.00     0.057 C 
BRANCH  16  17
HETATM   17  C   UNL     1       1.599  19.612  14.218  1.00  0.00    -0.025 C 
BRANCH  17  18
HETATM   18  C   UNL     1       2.828  20.205  13.578  1.00  0.00    -0.008 C 
HETATM   19  C   UNL     1       3.516  20.803  12.502  1.00  0.00    -0.025 C 
BRANCH  19  20
HETATM   20  C   UNL     1       3.070  21.681  11.341  1.00  0.00     0.054 C 
BRANCH  20  21
HETATM   21  C   UNL     1       3.963  21.514  10.089  1.00  0.00     0.236 C 
BRANCH  21  22
HETATM   22  N   UNL     1       3.129  21.479   8.859  1.00  0.00    -0.075 N 
ATOM     23  HN2 UNL     1       2.218  21.060   9.046  1.00  0.00     0.277 HD
ATOM     24  HN1 UNL     1       2.828  22.417   8.594  1.00  0.00     0.277 HD
BRANCH  22  25
HETATM   25  C   UNL     1       3.805  20.800   7.732  1.00  0.00     0.232 C 
BRANCH  25  26
HETATM   26  C   UNL     1       2.771  20.249   6.748  1.00  0.00     0.034 C 
BRANCH  26  27
HETATM   27  C   UNL     1       3.218  18.879   6.302  1.00  0.00     0.066 C 
BRANCH  27  28
HETATM   28  C   UNL     1       2.151  18.017   5.717  1.00  0.00     0.049 C 
HETATM   29  O   UNL     1       1.527  18.403   4.556  1.00  0.00    -0.349 OA
HETATM   30  C   UNL     1       0.331  17.665   4.397  1.00  0.00     0.239 C 
HETATM   31  C   UNL     1       0.437  16.625   5.396  1.00  0.00     0.069 C 
HETATM   32  C   UNL     1       1.569  16.890   6.246  1.00  0.00     0.066 C 
BRANCH  31  33
HETATM   33  O   UNL     1      -0.561  15.821   5.733  1.00  0.00    -0.363 OA
ATOM     34  HO  UNL     1      -0.491  15.138   6.389  1.00  0.00     0.217 HD
ENDBRANCH  31  33
ENDBRANCH  27  28
ENDBRANCH  26  27
ENDBRANCH  25  26
ENDBRANCH  22  25
ENDBRANCH  21  22
ENDBRANCH  20  21
ENDBRANCH  19  20
ENDBRANCH  17  18
ENDBRANCH  16  17
ENDBRANCH   4  16
BRANCH   7  35
HETATM   35  C   UNL     1      -3.997  19.509  14.436  1.00  0.00    -0.056 C 
HETATM   36  C   UNL     1      -3.771  20.274  15.720  1.00  0.00     0.048 C 
BRANCH  35  37
HETATM   37  C   UNL     1      -4.950  20.098  13.511  1.00  0.00    -0.071 C 
HETATM   38  C   UNL     1      -4.527  21.275  12.643  1.00  0.00     0.069 C 
HETATM   39  C   UNL     1      -5.669  22.101  12.020  1.00  0.00     0.151 C 
HETATM   40  C   UNL     1      -6.754  21.130  11.476  1.00  0.00     0.147 C 
HETATM   41  C   UNL     1      -7.350  20.406  12.701  1.00  0.00     0.039 C 
HETATM   42  C   UNL     1      -6.315  19.506  13.362  1.00  0.00     0.037 C 
BRANCH  39  43
HETATM   43  O   UNL     1      -5.080  22.749  10.898  1.00  0.00    -0.393 OA
ATOM     44  HO  UNL     1      -5.784  23.258  10.514  1.00  0.00     0.210 HD
ENDBRANCH  39  43
BRANCH  40  45
HETATM   45  O   UNL     1      -7.816  21.942  10.929  1.00  0.00    -0.393 OA
ATOM     46  HO  UNL     1      -7.449  22.388  10.175  1.00  0.00     0.210 HD
ENDBRANCH  40  45
ENDBRANCH  35  37
ENDBRANCH   7  35
TORSDOF 15
