MODEL 1
REMARK VINA RESULT:      -6.3      0.000      0.000
REMARK  3 active torsions:
REMARK  status: ('A' for Active; 'I' for Inactive)
REMARK    1  A    between atoms: C_1  and  O_22 
REMARK    2  A    between atoms: C_14  and  C_19 
REMARK    3  A    between atoms: O_20  and  C_24 
ROOT
HETATM    1  C   UNL     1      66.574  29.318   8.532  1.00  0.00     0.078 C 
HETATM    2  C   UNL     1      66.598  30.705   8.697  1.00  0.00     0.024 C 
HETATM    3  C   UNL     1      65.347  33.438   9.189  1.00  0.00     0.112 C 
HETATM    4  C   UNL     1      66.319  33.811   8.279  1.00  0.00     0.010 C 
HETATM    5  C   UNL     1      67.192  32.877   7.711  1.00  0.00     0.016 C 
HETATM    6  N   UNL     1      64.270  34.267   9.517  1.00  0.00    -0.371 N 
ATOM      7  HN  UNL     1      63.322  34.104   9.176  1.00  0.00     0.161 HD
HETATM    8  C   UNL     1      66.630  28.495   9.648  1.00  0.00     0.037 C 
HETATM    9  C   UNL     1      67.179  31.535   7.730  1.00  0.00     0.017 C 
HETATM   10  C   UNL     1      64.614  35.378  10.382  1.00  0.00     0.166 C 
HETATM   11  C   UNL     1      66.057  31.190   9.899  1.00  0.00     0.046 C 
HETATM   12  C   UNL     1      66.118  30.380  11.031  1.00  0.00     0.030 C 
HETATM   13  N   UNL     1      65.451  32.386  10.007  1.00  0.00    -0.341 N 
ATOM     14  HN  UNL     1      64.971  32.517  10.897  1.00  0.00     0.167 HD
HETATM   15  C   UNL     1      66.526  29.061  10.911  1.00  0.00     0.005 C 
HETATM   16  C   UNL     1      66.417  35.138   7.781  1.00  0.00     0.052 C 
HETATM   17  C   UNL     1      65.916  35.832  10.004  1.00  0.00     0.030 C 
HETATM   18  C   UNL     1      66.016  36.140   8.663  1.00  0.00     0.077 C 
ENDROOT
BRANCH   1  19
HETATM   19  O   UNL     1      66.387  28.780   7.312  1.00  0.00    -0.360 OA
ATOM     20  HO  UNL     1      65.776  29.175   6.701  1.00  0.00     0.217 HD
ENDBRANCH   1  19
BRANCH  18  21
HETATM   21  O   UNL     1      65.193  37.143   8.200  1.00  0.00    -0.360 OA
ATOM     22  HO  UNL     1      65.431  38.047   8.372  1.00  0.00     0.217 HD
ENDBRANCH  18  21
BRANCH  17  23
HETATM   23  C   UNL     1      67.014  35.645  10.793  1.00  0.00     0.270 C 
HETATM   24  O   UNL     1      68.091  35.251  10.862  1.00  0.00    -0.302 OA
ENDBRANCH  17  23
TORSDOF 3
ENDMDL
MODEL 2
REMARK VINA RESULT:      -4.7      9.908     11.971
REMARK  3 active torsions:
REMARK  status: ('A' for Active; 'I' for Inactive)
REMARK    1  A    between atoms: C_1  and  O_22 
REMARK    2  A    between atoms: C_14  and  C_19 
REMARK    3  A    between atoms: O_20  and  C_24 
ROOT
HETATM    1  C   UNL     1      75.731  39.232   3.782  1.00  0.00     0.078 C 
HETATM    2  C   UNL     1      75.264  39.132   5.095  1.00  0.00     0.024 C 
HETATM    3  C   UNL     1      75.562  38.710   8.096  1.00  0.00     0.112 C 
HETATM    4  C   UNL     1      74.349  38.073   7.912  1.00  0.00     0.010 C 
HETATM    5  C   UNL     1      73.753  37.974   6.650  1.00  0.00     0.016 C 
HETATM    6  N   UNL     1      76.328  38.544   9.254  1.00  0.00    -0.371 N 
ATOM      7  HN  UNL     1      77.175  37.977   9.280  1.00  0.00     0.161 HD
HETATM    8  C   UNL     1      76.208  40.449   3.316  1.00  0.00     0.037 C 
HETATM    9  C   UNL     1      74.236  38.240   5.426  1.00  0.00     0.017 C 
HETATM   10  C   UNL     1      75.816  39.247  10.413  1.00  0.00     0.166 C 
HETATM   11  C   UNL     1      75.848  40.008   6.023  1.00  0.00     0.046 C 
HETATM   12  C   UNL     1      76.319  41.239   5.571  1.00  0.00     0.030 C 
HETATM   13  N   UNL     1      76.009  39.705   7.324  1.00  0.00    -0.341 N 
ATOM     14  HN  UNL     1      76.594  40.374   7.825  1.00  0.00     0.167 HD
HETATM   15  C   UNL     1      76.379  41.495   4.211  1.00  0.00     0.005 C 
HETATM   16  C   UNL     1      73.690  37.385   8.967  1.00  0.00     0.052 C 
HETATM   17  C   UNL     1      74.388  39.190  10.356  1.00  0.00     0.030 C 
HETATM   18  C   UNL     1      73.899  37.905  10.244  1.00  0.00     0.077 C 
ENDROOT
BRANCH   1  19
HETATM   19  O   UNL     1      75.824  38.135   3.007  1.00  0.00    -0.360 OA
ATOM     20  HO  UNL     1      75.477  37.303   3.307  1.00  0.00     0.217 HD
ENDBRANCH   1  19
BRANCH  18  21
HETATM   21  O   UNL     1      74.201  37.040  11.272  1.00  0.00    -0.360 OA
ATOM     22  HO  UNL     1      74.298  36.115  11.079  1.00  0.00     0.217 HD
ENDBRANCH  18  21
BRANCH  17  23
HETATM   23  C   UNL     1      73.622  40.288  10.089  1.00  0.00     0.270 C 
HETATM   24  O   UNL     1      73.447  41.192   9.401  1.00  0.00    -0.302 OA
ENDBRANCH  17  23
TORSDOF 3
ENDMDL
MODEL 3
REMARK VINA RESULT:      -3.6     10.844     12.273
REMARK  3 active torsions:
REMARK  status: ('A' for Active; 'I' for Inactive)
REMARK    1  A    between atoms: C_1  and  O_22 
REMARK    2  A    between atoms: C_14  and  C_19 
REMARK    3  A    between atoms: O_20  and  C_24 
ROOT
HETATM    1  C   UNL     1      74.588  40.266   3.823  1.00  0.00     0.078 C 
HETATM    2  C   UNL     1      74.918  40.424   5.172  1.00  0.00     0.024 C 
HETATM    3  C   UNL     1      74.298  40.818   8.127  1.00  0.00     0.112 C 
HETATM    4  C   UNL     1      75.441  41.592   8.045  1.00  0.00     0.010 C 
HETATM    5  C   UNL     1      76.134  41.756   6.842  1.00  0.00     0.016 C 
HETATM    6  N   UNL     1      73.414  40.897   9.208  1.00  0.00    -0.371 N 
ATOM      7  HN  UNL     1      72.508  41.361   9.149  1.00  0.00     0.161 HD
HETATM    8  C   UNL     1      74.301  38.999   3.333  1.00  0.00     0.037 C 
HETATM    9  C   UNL     1      75.801  41.431   5.583  1.00  0.00     0.017 C 
HETATM   10  C   UNL     1      73.896  40.262  10.419  1.00  0.00     0.166 C 
HETATM   11  C   UNL     1      74.356  39.489   6.055  1.00  0.00     0.046 C 
HETATM   12  C   UNL     1      74.075  38.210   5.580  1.00  0.00     0.030 C 
HETATM   13  N   UNL     1      74.042  39.775   7.331  1.00  0.00    -0.341 N 
ATOM     14  HN  UNL     1      73.495  39.044   7.786  1.00  0.00     0.167 HD
HETATM   15  C   UNL     1      74.171  37.944   4.223  1.00  0.00     0.005 C 
HETATM   16  C   UNL     1      75.915  42.355   9.146  1.00  0.00     0.052 C 
HETATM   17  C   UNL     1      75.306  40.485  10.491  1.00  0.00     0.030 C 
HETATM   18  C   UNL     1      75.651  41.819  10.406  1.00  0.00     0.077 C 
ENDROOT
BRANCH   1  19
HETATM   19  O   UNL     1      74.440  41.342   3.027  1.00  0.00    -0.360 OA
ATOM     20  HO  UNL     1      74.865  41.375   2.178  1.00  0.00     0.217 HD
ENDBRANCH   1  19
BRANCH  18  21
HETATM   21  O   UNL     1      75.157  42.646  11.390  1.00  0.00    -0.360 OA
ATOM     22  HO  UNL     1      75.237  43.586  11.282  1.00  0.00     0.217 HD
ENDBRANCH  18  21
BRANCH  17  23
HETATM   23  C   UNL     1      76.216  39.484  10.310  1.00  0.00     0.270 C 
HETATM   24  O   UNL     1      76.419  38.438   9.880  1.00  0.00    -0.302 OA
ENDBRANCH  17  23
TORSDOF 3
ENDMDL
MODEL 4
REMARK VINA RESULT:      -3.5     11.147     12.845
REMARK  3 active torsions:
REMARK  status: ('A' for Active; 'I' for Inactive)
REMARK    1  A    between atoms: C_1  and  O_22 
REMARK    2  A    between atoms: C_14  and  C_19 
REMARK    3  A    between atoms: O_20  and  C_24 
ROOT
HETATM    1  C   UNL     1      74.651  38.152   7.383  1.00  0.00     0.078 C 
HETATM    2  C   UNL     1      74.967  38.843   6.210  1.00  0.00     0.024 C 
HETATM    3  C   UNL     1      74.317  40.276   3.602  1.00  0.00     0.112 C 
HETATM    4  C   UNL     1      75.481  39.641   3.211  1.00  0.00     0.010 C 
HETATM    5  C   UNL     1      76.195  38.811   4.081  1.00  0.00     0.016 C 
HETATM    6  N   UNL     1      73.422  40.833   2.685  1.00  0.00    -0.371 N 
ATOM      7  HN  UNL     1      72.529  40.399   2.449  1.00  0.00     0.161 HD
HETATM    8  C   UNL     1      74.336  38.865   8.532  1.00  0.00     0.037 C 
HETATM    9  C   UNL     1      75.871  38.309   5.282  1.00  0.00     0.017 C 
HETATM   10  C   UNL     1      73.869  42.080   2.096  1.00  0.00     0.166 C 
HETATM   11  C   UNL     1      74.368  40.103   6.058  1.00  0.00     0.046 C 
HETATM   12  C   UNL     1      74.058  40.835   7.203  1.00  0.00     0.030 C 
HETATM   13  N   UNL     1      74.044  40.628   4.863  1.00  0.00    -0.341 N 
ATOM     14  HN  UNL     1      73.471  41.469   4.932  1.00  0.00     0.167 HD
HETATM   15  C   UNL     1      74.165  40.239   8.449  1.00  0.00     0.005 C 
HETATM   16  C   UNL     1      75.961  39.703   1.875  1.00  0.00     0.052 C 
HETATM   17  C   UNL     1      75.284  41.987   1.912  1.00  0.00     0.030 C 
HETATM   18  C   UNL     1      75.666  40.878   1.185  1.00  0.00     0.077 C 
ENDROOT
BRANCH   1  19
HETATM   19  O   UNL     1      74.543  36.810   7.376  1.00  0.00    -0.360 OA
ATOM     20  HO  UNL     1      74.075  36.362   8.070  1.00  0.00     0.217 HD
ENDBRANCH   1  19
BRANCH  18  21
HETATM   21  O   UNL     1      75.181  40.790  -0.101  1.00  0.00    -0.360 OA
ATOM     22  HO  UNL     1      74.523  40.133  -0.299  1.00  0.00     0.217 HD
ENDBRANCH  18  21
BRANCH  17  23
HETATM   23  C   UNL     1      76.169  42.707   2.661  1.00  0.00     0.270 C 
HETATM   24  O   UNL     1      76.419  43.145   3.694  1.00  0.00    -0.302 OA
ENDBRANCH  17  23
TORSDOF 3
ENDMDL
MODEL 5
REMARK VINA RESULT:      -3.4     10.466     12.233
REMARK  3 active torsions:
REMARK  status: ('A' for Active; 'I' for Inactive)
REMARK    1  A    between atoms: C_1  and  O_22 
REMARK    2  A    between atoms: C_14  and  C_19 
REMARK    3  A    between atoms: O_20  and  C_24 
ROOT
HETATM    1  C   UNL     1      74.305  38.654   9.574  1.00  0.00     0.078 C 
HETATM    2  C   UNL     1      74.779  38.939   8.290  1.00  0.00     0.024 C 
HETATM    3  C   UNL     1      74.501  39.359   5.286  1.00  0.00     0.112 C 
HETATM    4  C   UNL     1      75.735  38.735   5.300  1.00  0.00     0.010 C 
HETATM    5  C   UNL     1      76.331  38.308   6.491  1.00  0.00     0.016 C 
HETATM    6  N   UNL     1      73.744  39.497   4.119  1.00  0.00    -0.371 N 
ATOM      7  HN  UNL     1      72.917  38.932   3.927  1.00  0.00     0.161 HD
HETATM    8  C   UNL     1      73.786  39.678  10.354  1.00  0.00     0.037 C 
HETATM    9  C   UNL     1      75.838  38.208   7.736  1.00  0.00     0.017 C 
HETATM   10  C   UNL     1      74.234  40.510   3.207  1.00  0.00     0.166 C 
HETATM   11  C   UNL     1      74.166  40.019   7.635  1.00  0.00     0.046 C 
HETATM   12  C   UNL     1      73.652  41.060   8.405  1.00  0.00     0.030 C 
HETATM   13  N   UNL     1      74.018  40.085   6.300  1.00  0.00    -0.341 N 
ATOM     14  HN  UNL     1      73.412  40.847   5.997  1.00  0.00     0.167 HD
HETATM   15  C   UNL     1      73.581  40.925   9.782  1.00  0.00     0.005 C 
HETATM   16  C   UNL     1      76.419  38.389   4.103  1.00  0.00     0.052 C 
HETATM   17  C   UNL     1      75.662  40.486   3.262  1.00  0.00     0.030 C 
HETATM   18  C   UNL     1      76.195  39.237   3.019  1.00  0.00     0.077 C 
ENDROOT
BRANCH   1  19
HETATM   19  O   UNL     1      74.248  37.382  10.012  1.00  0.00    -0.360 OA
ATOM     20  HO  UNL     1      74.860  37.072  10.670  1.00  0.00     0.217 HD
ENDBRANCH   1  19
BRANCH  18  21
HETATM   21  O   UNL     1      75.925  38.683   1.788  1.00  0.00    -0.360 OA
ATOM     22  HO  UNL     1      75.026  38.465   1.570  1.00  0.00     0.217 HD
ENDBRANCH  18  21
BRANCH  17  23
HETATM   23  C   UNL     1      76.390  41.490   3.833  1.00  0.00     0.270 C 
HETATM   24  O   UNL     1      76.419  42.326   4.622  1.00  0.00    -0.302 OA
ENDBRANCH  17  23
TORSDOF 3
ENDMDL
MODEL 6
REMARK VINA RESULT:      -3.3     11.110     12.615
REMARK  3 active torsions:
REMARK  status: ('A' for Active; 'I' for Inactive)
REMARK    1  A    between atoms: C_1  and  O_22 
REMARK    2  A    between atoms: C_14  and  C_19 
REMARK    3  A    between atoms: O_20  and  C_24 
ROOT
HETATM    1  C   UNL     1      75.120  39.167   3.187  1.00  0.00     0.078 C 
HETATM    2  C   UNL     1      74.793  39.638   4.461  1.00  0.00     0.024 C 
HETATM    3  C   UNL     1      75.363  41.034   7.107  1.00  0.00     0.112 C 
HETATM    4  C   UNL     1      74.536  40.028   7.572  1.00  0.00     0.010 C 
HETATM    5  C   UNL     1      73.992  39.067   6.714  1.00  0.00     0.016 C 
HETATM    6  N   UNL     1      76.170  41.795   7.958  1.00  0.00    -0.371 N 
ATOM      7  HN  UNL     1      77.180  41.664   8.026  1.00  0.00     0.161 HD
HETATM    8  C   UNL     1      75.007  40.016   2.095  1.00  0.00     0.037 C 
HETATM    9  C   UNL     1      74.264  38.778   5.432  1.00  0.00     0.017 C 
HETATM   10  C   UNL     1      75.452  42.784   8.736  1.00  0.00     0.166 C 
HETATM   11  C   UNL     1      74.980  41.013   4.675  1.00  0.00     0.046 C 
HETATM   12  C   UNL     1      74.856  41.877   3.589  1.00  0.00     0.030 C 
HETATM   13  N   UNL     1      75.307  41.537   5.870  1.00  0.00    -0.341 N 
ATOM     14  HN  UNL     1      75.566  42.522   5.822  1.00  0.00     0.167 HD
HETATM   15  C   UNL     1      74.746  41.361   2.308  1.00  0.00     0.005 C 
HETATM   16  C   UNL     1      74.280  39.842   8.958  1.00  0.00     0.052 C 
HETATM   17  C   UNL     1      74.187  42.219   9.090  1.00  0.00     0.030 C 
HETATM   18  C   UNL     1      74.295  41.002   9.731  1.00  0.00     0.077 C 
ENDROOT
BRANCH   1  19
HETATM   19  O   UNL     1      75.646  37.938   3.029  1.00  0.00    -0.360 OA
ATOM     20  HO  UNL     1      75.805  37.382   3.783  1.00  0.00     0.217 HD
ENDBRANCH   1  19
BRANCH  18  21
HETATM   21  O   UNL     1      74.981  40.995  10.925  1.00  0.00    -0.360 OA
ATOM     22  HO  UNL     1      75.930  41.038  10.909  1.00  0.00     0.217 HD
ENDBRANCH  18  21
BRANCH  17  23
HETATM   23  C   UNL     1      73.013  42.655   8.548  1.00  0.00     0.270 C 
HETATM   24  O   UNL     1      71.914  42.936   8.735  1.00  0.00    -0.302 OA
ENDBRANCH  17  23
TORSDOF 3
ENDMDL
