REMARK  2 active torsions:
REMARK  status: ('A' for Active; 'I' for Inactive)
REMARK    1  A    between atoms: C_9  and  O_20 
REMARK    2  A    between atoms: C_22  and  C_24 
ROOT
HETATM    1  C   UNL     1      47.016  38.812  -3.463  1.00  0.00     0.003 C 
HETATM    2  C   UNL     1      51.270  43.320  -2.516  1.00  0.00     0.013 C 
HETATM    3  C   UNL     1      50.165  41.336  -0.600  1.00  0.00     0.012 C 
HETATM    4  C   UNL     1      49.753  43.732  -0.705  1.00  0.00     0.012 C 
HETATM    5  C   UNL     1      49.073  40.106  -3.818  1.00  0.00     0.076 C 
HETATM    6  C   UNL     1      49.579  38.838  -1.824  1.00  0.00     0.015 C 
HETATM    7  C   UNL     1      51.141  41.955  -2.697  1.00  0.00     0.013 C 
HETATM    8  C   UNL     1      48.614  37.880  -1.862  1.00  0.00     0.001 C 
HETATM    9  C   UNL     1      47.395  37.932  -2.482  1.00  0.00     0.000 C 
HETATM   10  C   UNL     1      50.303  41.128  -1.963  1.00  0.00    -0.023 C 
HETATM   11  C   UNL     1      50.915  44.052  -1.404  1.00  0.00    -0.026 C 
HETATM   12  C   UNL     1      47.715  39.835  -4.044  1.00  0.00     0.037 C 
HETATM   13  C   UNL     1      49.666  42.507  -0.047  1.00  0.00     0.002 C 
HETATM   14  C   UNL     1      49.676  40.012  -2.554  1.00  0.00     0.007 C 
ENDROOT
BRANCH  11  15
HETATM   15  C   UNL     1      51.648  45.180  -0.994  1.00  0.00    -0.024 C 
HETATM   16  C   UNL     1      52.695  45.685  -1.754  1.00  0.00     0.042 C 
HETATM   17  C   UNL     1      54.014  45.964  -1.384  1.00  0.00     0.043 C 
HETATM   18  C   UNL     1      54.394  46.257  -0.064  1.00  0.00    -0.009 C 
HETATM   19  N   UNL     1      54.858  46.084  -2.452  1.00  0.00    -0.365 N 
HETATM   20  C   UNL     1      55.691  46.650   0.300  1.00  0.00     0.014 C 
HETATM   21  C   UNL     1      53.579  46.072   1.030  1.00  0.00     0.014 C 
HETATM   22  C   UNL     1      56.590  47.377  -0.436  1.00  0.00     0.002 C 
HETATM   23  C   UNL     1      56.604  47.627  -1.791  1.00  0.00     0.017 C 
HETATM   24  C   UNL     1      55.709  47.064  -2.685  1.00  0.00     0.088 C 
HETATM   25  C   UNL     1      52.249  45.854   1.212  1.00  0.00     0.002 C 
HETATM   26  C   UNL     1      51.279  45.799   0.210  1.00  0.00     0.012 C 
ATOM     27  HN  UNL     1      54.826  45.335  -3.143  1.00  0.00     0.165 HD
ENDBRANCH  11  15
BRANCH   5  28
HETATM   28  O   UNL     1      49.805  40.486  -4.856  1.00  0.00    -0.360 OA
ATOM     29  HO  UNL     1      50.724  40.669  -4.703  1.00  0.00     0.217 HD
ENDBRANCH   5  28
TORSDOF 2
