MODEL 1
REMARK VINA RESULT:     -10.3      0.000      0.000
REMARK  0 active torsions:
REMARK  status: ('A' for Active; 'I' for Inactive)
ROOT
HETATM    1  C   UNL     1       9.702 -15.495  -7.704  1.00  0.00     0.010 C 
HETATM    2  C   UNL     1       5.316 -11.720  -6.401  1.00  0.00     0.026 C 
HETATM    3  C   UNL     1       6.259 -11.836  -7.428  1.00  0.00     0.035 C 
HETATM    4  C   UNL     1      11.155 -15.889  -7.914  1.00  0.00     0.001 C 
HETATM    5  C   UNL     1       9.265 -11.942  -4.294  1.00  0.00     0.087 C 
HETATM    6  C   UNL     1      10.028 -10.796  -4.030  1.00  0.00     0.038 C 
HETATM    7  C   UNL     1       9.599 -15.070  -6.264  1.00  0.00     0.029 C 
HETATM    8  C   UNL     1       7.119 -12.390  -5.018  1.00  0.00     0.087 C 
HETATM    9  C   UNL     1      11.936 -15.038  -6.917  1.00  0.00     0.010 C 
HETATM   10  C   UNL     1       8.928 -13.820  -5.816  1.00  0.00    -0.027 C 
HETATM   11  C   UNL     1      12.179 -11.956  -3.553  1.00  0.00     0.001 C 
HETATM   12  C   UNL     1       9.757 -13.107  -4.903  1.00  0.00     0.012 C 
HETATM   13  C   UNL     1       7.698 -13.142  -6.075  1.00  0.00     0.007 C 
HETATM   14  C   UNL     1      11.022 -14.963  -5.706  1.00  0.00     0.028 C 
HETATM   15  C   UNL     1      11.359 -10.854  -3.608  1.00  0.00     0.003 C 
HETATM   16  C   UNL     1      11.074 -13.632  -4.996  1.00  0.00    -0.040 C 
HETATM   17  C   UNL     1       7.276 -12.790  -7.367  1.00  0.00     0.038 C 
HETATM   18  C   UNL     1       5.782 -11.996  -5.114  1.00  0.00     0.040 C 
HETATM   19 CL   UNL     1       6.405 -10.542  -8.553  1.00  0.00    -0.084 Cl
HETATM   20  C   UNL     1      12.124 -13.167  -4.231  1.00  0.00     0.008 C 
HETATM   21  O   UNL     1       7.914 -11.849  -4.044  1.00  0.00    -0.309 OA
ENDROOT
TORSDOF 0
ENDMDL
MODEL 2
REMARK VINA RESULT:      -9.3      2.695      5.269
REMARK  0 active torsions:
REMARK  status: ('A' for Active; 'I' for Inactive)
ROOT
HETATM    1  C   UNL     1       8.464 -12.300  -4.291  1.00  0.00     0.010 C 
HETATM    2  C   UNL     1       2.795 -10.555  -4.345  1.00  0.00     0.026 C 
HETATM    3  C   UNL     1       3.528 -11.542  -3.677  1.00  0.00     0.035 C 
HETATM    4  C   UNL     1       9.599 -13.280  -4.540  1.00  0.00     0.001 C 
HETATM    5  C   UNL     1       4.838 -12.851  -7.606  1.00  0.00     0.087 C 
HETATM    6  C   UNL     1       4.259 -13.990  -8.184  1.00  0.00     0.038 C 
HETATM    7  C   UNL     1       7.874 -12.008  -5.643  1.00  0.00     0.029 C 
HETATM    8  C   UNL     1       4.149 -11.161  -6.191  1.00  0.00     0.087 C 
HETATM    9  C   UNL     1       9.185 -14.044  -5.794  1.00  0.00     0.010 C 
HETATM   10  C   UNL     1       6.414 -12.032  -5.933  1.00  0.00    -0.027 C 
HETATM   11  C   UNL     1       6.322 -14.880  -9.256  1.00  0.00     0.001 C 
HETATM   12  C   UNL     1       6.150 -12.784  -7.113  1.00  0.00     0.012 C 
HETATM   13  C   UNL     1       5.220 -11.526  -5.333  1.00  0.00     0.007 C 
HETATM   14  C   UNL     1       8.479 -13.000  -6.641  1.00  0.00     0.028 C 
HETATM   15  C   UNL     1       4.970 -14.862  -9.012  1.00  0.00     0.003 C 
HETATM   16  C   UNL     1       7.307 -13.550  -7.420  1.00  0.00    -0.040 C 
HETATM   17  C   UNL     1       4.862 -11.792  -4.002  1.00  0.00     0.038 C 
HETATM   18  C   UNL     1       3.114 -10.367  -5.691  1.00  0.00     0.040 C 
HETATM   19 CL   UNL     1       2.668 -12.712  -2.753  1.00  0.00    -0.084 Cl
HETATM   20  C   UNL     1       7.388 -14.384  -8.516  1.00  0.00     0.008 C 
HETATM   21  O   UNL     1       4.003 -11.774  -7.407  1.00  0.00    -0.309 OA
ENDROOT
TORSDOF 0
ENDMDL
MODEL 3
REMARK VINA RESULT:      -9.3      1.851      4.005
REMARK  0 active torsions:
REMARK  status: ('A' for Active; 'I' for Inactive)
ROOT
HETATM    1  C   UNL     1      10.368 -11.343  -3.854  1.00  0.00     0.010 C 
HETATM    2  C   UNL     1       4.800 -10.892  -5.849  1.00  0.00     0.026 C 
HETATM    3  C   UNL     1       5.408 -11.407  -4.698  1.00  0.00     0.035 C 
HETATM    4  C   UNL     1      11.617 -12.101  -3.435  1.00  0.00     0.001 C 
HETATM    5  C   UNL     1       7.886 -13.755  -7.384  1.00  0.00     0.087 C 
HETATM    6  C   UNL     1       7.604 -15.116  -7.571  1.00  0.00     0.038 C 
HETATM    7  C   UNL     1      10.155 -11.680  -5.304  1.00  0.00     0.029 C 
HETATM    8  C   UNL     1       6.669 -11.841  -6.951  1.00  0.00     0.087 C 
HETATM    9  C   UNL     1      11.646 -13.331  -4.337  1.00  0.00     0.010 C 
HETATM   10  C   UNL     1       8.844 -12.094  -5.874  1.00  0.00    -0.027 C 
HETATM   11  C   UNL     1       9.962 -15.905  -7.716  1.00  0.00     0.001 C 
HETATM   12  C   UNL     1       8.995 -13.257  -6.682  1.00  0.00     0.012 C 
HETATM   13  C   UNL     1       7.487 -11.654  -5.805  1.00  0.00     0.007 C 
HETATM   14  C   UNL     1      11.108 -12.824  -5.663  1.00  0.00     0.028 C 
HETATM   15  C   UNL     1       8.600 -16.068  -7.803  1.00  0.00     0.003 C 
HETATM   16  C   UNL     1      10.260 -13.837  -6.395  1.00  0.00    -0.040 C 
HETATM   17  C   UNL     1       6.797 -11.487  -4.594  1.00  0.00     0.038 C 
HETATM   18  C   UNL     1       5.463 -11.142  -7.051  1.00  0.00     0.040 C 
HETATM   19 CL   UNL     1       4.442 -12.311  -3.598  1.00  0.00    -0.084 Cl
HETATM   20  C   UNL     1      10.724 -14.976  -7.020  1.00  0.00     0.008 C 
HETATM   21  O   UNL     1       6.928 -12.866  -7.821  1.00  0.00    -0.309 OA
ENDROOT
TORSDOF 0
ENDMDL
MODEL 4
REMARK VINA RESULT:      -9.2      2.356      5.961
REMARK  0 active torsions:
REMARK  status: ('A' for Active; 'I' for Inactive)
ROOT
HETATM    1  C   UNL     1       8.254 -10.993  -4.213  1.00  0.00     0.010 C 
HETATM    2  C   UNL     1      12.085 -15.042  -6.243  1.00  0.00     0.026 C 
HETATM    3  C   UNL     1      11.879 -13.673  -6.448  1.00  0.00     0.035 C 
HETATM    4  C   UNL     1       7.119  -9.992  -4.348  1.00  0.00     0.001 C 
HETATM    5  C   UNL     1       7.779 -14.710  -7.438  1.00  0.00     0.087 C 
HETATM    6  C   UNL     1       7.380 -14.741  -8.783  1.00  0.00     0.038 C 
HETATM    7  C   UNL     1       7.669 -12.325  -4.596  1.00  0.00     0.029 C 
HETATM    8  C   UNL     1       9.719 -15.139  -6.262  1.00  0.00     0.087 C 
HETATM    9  C   UNL     1       6.215 -10.572  -5.430  1.00  0.00     0.010 C 
HETATM   10  C   UNL     1       8.319 -13.274  -5.541  1.00  0.00    -0.027 C 
HETATM   11  C   UNL     1       5.093 -13.812  -8.451  1.00  0.00     0.001 C 
HETATM   12  C   UNL     1       7.383 -13.735  -6.510  1.00  0.00     0.012 C 
HETATM   13  C   UNL     1       9.624 -13.820  -5.744  1.00  0.00     0.007 C 
HETATM   14  C   UNL     1       6.285 -12.071  -5.199  1.00  0.00     0.028 C 
HETATM   15  C   UNL     1       6.092 -14.391  -9.196  1.00  0.00     0.003 C 
HETATM   16  C   UNL     1       6.249 -12.878  -6.475  1.00  0.00    -0.040 C 
HETATM   17  C   UNL     1      10.768 -13.024  -5.910  1.00  0.00     0.038 C 
HETATM   18  C   UNL     1      10.932 -15.825  -6.164  1.00  0.00     0.040 C 
HETATM   19 CL   UNL     1      12.769 -12.891  -7.696  1.00  0.00    -0.084 Cl
HETATM   20  C   UNL     1       5.149 -13.055  -7.287  1.00  0.00     0.008 C 
HETATM   21  O   UNL     1       8.723 -15.638  -7.059  1.00  0.00    -0.309 OA
ENDROOT
TORSDOF 0
ENDMDL
MODEL 5
REMARK VINA RESULT:      -8.9      2.545      4.953
REMARK  0 active torsions:
REMARK  status: ('A' for Active; 'I' for Inactive)
ROOT
HETATM    1  C   UNL     1      12.027 -14.475  -5.872  1.00  0.00     0.010 C 
HETATM    2  C   UNL     1      12.653  -9.656  -2.471  1.00  0.00     0.026 C 
HETATM    3  C   UNL     1      12.564 -11.033  -2.241  1.00  0.00     0.035 C 
HETATM    4  C   UNL     1      11.292 -15.699  -6.393  1.00  0.00     0.001 C 
HETATM    5  C   UNL     1       8.878 -10.906  -4.536  1.00  0.00     0.087 C 
HETATM    6  C   UNL     1       7.646 -10.943  -3.866  1.00  0.00     0.038 C 
HETATM    7  C   UNL     1      11.159 -13.298  -6.225  1.00  0.00     0.029 C 
HETATM    8  C   UNL     1      10.990 -10.079  -4.103  1.00  0.00     0.087 C 
HETATM    9  C   UNL     1       9.816 -15.315  -6.346  1.00  0.00     0.010 C 
HETATM   10  C   UNL     1      10.802 -12.216  -5.267  1.00  0.00    -0.027 C 
HETATM   11  C   UNL     1       6.434 -12.355  -5.521  1.00  0.00     0.001 C 
HETATM   12  C   UNL     1       9.402 -11.958  -5.303  1.00  0.00     0.012 C 
HETATM   13  C   UNL     1      11.482 -11.395  -4.316  1.00  0.00     0.007 C 
HETATM   14  C   UNL     1       9.811 -13.840  -6.709  1.00  0.00     0.028 C 
HETATM   15  C   UNL     1       6.514 -11.560  -4.402  1.00  0.00     0.003 C 
HETATM   16  C   UNL     1       8.767 -13.042  -5.966  1.00  0.00    -0.040 C 
HETATM   17  C   UNL     1      12.271 -11.918  -3.280  1.00  0.00     0.038 C 
HETATM   18  C   UNL     1      11.799  -9.146  -3.450  1.00  0.00     0.040 C 
HETATM   19 CL   UNL     1      12.410 -11.582  -0.618  1.00  0.00    -0.084 Cl
HETATM   20  C   UNL     1       7.405 -13.099  -6.180  1.00  0.00     0.008 C 
HETATM   21  O   UNL     1       9.665  -9.799  -4.307  1.00  0.00    -0.309 OA
ENDROOT
TORSDOF 0
ENDMDL
MODEL 6
REMARK VINA RESULT:      -8.7      1.583      2.860
REMARK  0 active torsions:
REMARK  status: ('A' for Active; 'I' for Inactive)
ROOT
HETATM    1  C   UNL     1       6.036 -14.413  -8.771  1.00  0.00     0.010 C 
HETATM    2  C   UNL     1       5.485 -10.475  -4.370  1.00  0.00     0.026 C 
HETATM    3  C   UNL     1       5.736 -10.405  -5.745  1.00  0.00     0.035 C 
HETATM    4  C   UNL     1       6.794 -15.157  -9.858  1.00  0.00     0.001 C 
HETATM    5  C   UNL     1       9.004 -13.172  -5.018  1.00  0.00     0.087 C 
HETATM    6  C   UNL     1      10.321 -12.691  -4.981  1.00  0.00     0.038 C 
HETATM    7  C   UNL     1       6.727 -14.761  -7.481  1.00  0.00     0.029 C 
HETATM    8  C   UNL     1       6.914 -12.361  -4.465  1.00  0.00     0.087 C 
HETATM    9  C   UNL     1       8.218 -15.281  -9.323  1.00  0.00     0.010 C 
HETATM   10  C   UNL     1       7.122 -13.756  -6.457  1.00  0.00    -0.027 C 
HETATM   11  C   UNL     1      11.395 -14.638  -6.102  1.00  0.00     0.001 C 
HETATM   12  C   UNL     1       8.470 -13.962  -6.047  1.00  0.00     0.012 C 
HETATM   13  C   UNL     1       6.520 -12.638  -5.801  1.00  0.00     0.007 C 
HETATM   14  C   UNL     1       8.030 -15.485  -7.830  1.00  0.00     0.028 C 
HETATM   15  C   UNL     1      11.412 -13.444  -5.423  1.00  0.00     0.003 C 
HETATM   16  C   UNL     1       9.096 -14.818  -6.993  1.00  0.00    -0.040 C 
HETATM   17  C   UNL     1       5.950 -11.560  -6.497  1.00  0.00     0.038 C 
HETATM   18  C   UNL     1       6.130 -11.506  -3.686  1.00  0.00     0.040 C 
HETATM   19 CL   UNL     1       6.185  -8.886  -6.416  1.00  0.00    -0.084 Cl
HETATM   20  C   UNL     1      10.409 -15.227  -6.884  1.00  0.00     0.008 C 
HETATM   21  O   UNL     1       8.160 -12.720  -4.027  1.00  0.00    -0.309 OA
ENDROOT
TORSDOF 0
ENDMDL
MODEL 7
REMARK VINA RESULT:      -8.5      1.842      4.110
REMARK  0 active torsions:
REMARK  status: ('A' for Active; 'I' for Inactive)
ROOT
HETATM    1  C   UNL     1       9.483  -9.224  -3.784  1.00  0.00     0.010 C 
HETATM    2  C   UNL     1       4.613 -11.413  -6.368  1.00  0.00     0.026 C 
HETATM    3  C   UNL     1       5.097 -11.337  -5.057  1.00  0.00     0.035 C 
HETATM    4  C   UNL     1      10.791  -9.325  -3.017  1.00  0.00     0.001 C 
HETATM    5  C   UNL     1       8.701 -13.236  -6.564  1.00  0.00     0.087 C 
HETATM    6  C   UNL     1       8.914 -14.602  -6.324  1.00  0.00     0.038 C 
HETATM    7  C   UNL     1       9.698  -9.994  -5.059  1.00  0.00     0.029 C 
HETATM    8  C   UNL     1       6.874 -11.866  -6.905  1.00  0.00     0.087 C 
HETATM    9  C   UNL     1      11.400 -10.652  -3.459  1.00  0.00     0.010 C 
HETATM   10  C   UNL     1       8.739 -10.999  -5.591  1.00  0.00    -0.027 C 
HETATM   11  C   UNL     1      11.375 -14.474  -5.964  1.00  0.00     0.001 C 
HETATM   12  C   UNL     1       9.419 -12.196  -5.955  1.00  0.00     0.012 C 
HETATM   13  C   UNL     1       7.329 -11.089  -5.807  1.00  0.00     0.007 C 
HETATM   14  C   UNL     1      11.020 -10.757  -4.926  1.00  0.00     0.028 C 
HETATM   15  C   UNL     1      10.187 -15.145  -6.131  1.00  0.00     0.003 C 
HETATM   16  C   UNL     1      10.713 -12.168  -5.369  1.00  0.00    -0.040 C 
HETATM   17  C   UNL     1       6.385 -10.868  -4.793  1.00  0.00     0.038 C 
HETATM   18  C   UNL     1       5.558 -11.716  -7.349  1.00  0.00     0.040 C 
HETATM   19 CL   UNL     1       4.262 -12.201  -3.826  1.00  0.00    -0.084 Cl
HETATM   20  C   UNL     1      11.637 -13.179  -5.536  1.00  0.00     0.008 C 
HETATM   21  O   UNL     1       7.624 -12.917  -7.361  1.00  0.00    -0.309 OA
ENDROOT
TORSDOF 0
ENDMDL
MODEL 8
REMARK VINA RESULT:      -8.3      2.845      5.442
REMARK  0 active torsions:
REMARK  status: ('A' for Active; 'I' for Inactive)
ROOT
HETATM    1  C   UNL     1       7.489 -13.675  -8.494  1.00  0.00     0.010 C 
HETATM    2  C   UNL     1      10.035  -9.809  -4.785  1.00  0.00     0.026 C 
HETATM    3  C   UNL     1       9.967 -11.204  -4.879  1.00  0.00     0.035 C 
HETATM    4  C   UNL     1       6.505 -14.771  -8.868  1.00  0.00     0.001 C 
HETATM    5  C   UNL     1       5.652 -10.717  -4.985  1.00  0.00     0.087 C 
HETATM    6  C   UNL     1       4.899 -10.983  -3.832  1.00  0.00     0.038 C 
HETATM    7  C   UNL     1       6.648 -12.496  -8.087  1.00  0.00     0.029 C 
HETATM    8  C   UNL     1       7.765  -9.909  -5.449  1.00  0.00     0.087 C 
HETATM    9  C   UNL     1       5.269 -14.491  -8.020  1.00  0.00     0.010 C 
HETATM   10  C   UNL     1       6.880 -11.702  -6.849  1.00  0.00    -0.027 C 
HETATM   11  C   UNL     1       2.938 -12.010  -4.972  1.00  0.00     0.001 C 
HETATM   12  C   UNL     1       5.661 -11.519  -6.136  1.00  0.00     0.012 C 
HETATM   13  C   UNL     1       7.993 -11.103  -6.183  1.00  0.00     0.007 C 
HETATM   14  C   UNL     1       5.198 -12.974  -7.969  1.00  0.00     0.028 C 
HETATM   15  C   UNL     1       3.606 -11.511  -3.880  1.00  0.00     0.003 C 
HETATM   16  C   UNL     1       4.706 -12.440  -6.645  1.00  0.00    -0.040 C 
HETATM   17  C   UNL     1       9.144 -11.821  -5.821  1.00  0.00     0.038 C 
HETATM   18  C   UNL     1       8.855  -9.122  -5.070  1.00  0.00     0.040 C 
HETATM   19 CL   UNL     1      10.577 -12.141  -3.572  1.00  0.00    -0.084 Cl
HETATM   20  C   UNL     1       3.411 -12.516  -6.176  1.00  0.00     0.008 C 
HETATM   21  O   UNL     1       6.531  -9.659  -4.910  1.00  0.00    -0.309 OA
ENDROOT
TORSDOF 0
ENDMDL
MODEL 9
REMARK VINA RESULT:      -8.2      4.002      6.314
REMARK  0 active torsions:
REMARK  status: ('A' for Active; 'I' for Inactive)
ROOT
HETATM    1  C   UNL     1       7.296 -12.200  -7.741  1.00  0.00     0.010 C 
HETATM    2  C   UNL     1       6.981  -7.250  -4.488  1.00  0.00     0.026 C 
HETATM    3  C   UNL     1       7.564  -8.513  -4.328  1.00  0.00     0.035 C 
HETATM    4  C   UNL     1       7.012 -13.662  -8.043  1.00  0.00     0.001 C 
HETATM    5  C   UNL     1       3.622 -10.139  -5.154  1.00  0.00     0.087 C 
HETATM    6  C   UNL     1       2.836 -10.617  -4.095  1.00  0.00     0.038 C 
HETATM    7  C   UNL     1       5.952 -11.526  -7.688  1.00  0.00     0.029 C 
HETATM    8  C   UNL     1       5.198  -8.477  -5.447  1.00  0.00     0.087 C 
HETATM    9  C   UNL     1       5.629 -13.920  -7.452  1.00  0.00     0.010 C 
HETATM   10  C   UNL     1       5.532 -10.602  -6.600  1.00  0.00    -0.027 C 
HETATM   11  C   UNL     1       1.838 -12.556  -5.297  1.00  0.00     0.001 C 
HETATM   12  C   UNL     1       4.236 -10.949  -6.121  1.00  0.00     0.012 C 
HETATM   13  C   UNL     1       6.087  -9.486  -5.902  1.00  0.00     0.007 C 
HETATM   14  C   UNL     1       4.880 -12.621  -7.696  1.00  0.00     0.028 C 
HETATM   15  C   UNL     1       1.959 -11.696  -4.232  1.00  0.00     0.003 C 
HETATM   16  C   UNL     1       3.928 -12.257  -6.583  1.00  0.00    -0.040 C 
HETATM   17  C   UNL     1       7.328  -9.535  -5.248  1.00  0.00     0.038 C 
HETATM   18  C   UNL     1       5.711  -7.235  -5.065  1.00  0.00     0.040 C 
HETATM   19 CL   UNL     1       8.228  -8.918  -2.793  1.00  0.00    -0.084 Cl
HETATM   20  C   UNL     1       2.735 -12.891  -6.303  1.00  0.00     0.008 C 
HETATM   21  O   UNL     1       3.898  -8.790  -5.150  1.00  0.00    -0.309 OA
ENDROOT
TORSDOF 0
ENDMDL
