REMARK  0 active torsions:
REMARK  status: ('A' for Active; 'I' for Inactive)
ROOT
HETATM    1  C   UNL     1      14.058   2.322  11.920  1.00  0.00    -0.053 C 
HETATM    2  C   UNL     1      11.937  -2.074  11.199  1.00  0.00    -0.008 C 
HETATM    3  C   UNL     1      12.049   3.429  12.573  1.00  0.00     0.003 C 
HETATM    4  C   UNL     1      12.340   1.051  12.886  1.00  0.00     0.044 C 
HETATM    5  C   UNL     1      13.600  -0.148  11.051  1.00  0.00     0.051 C 
HETATM    6  C   UNL     1      13.343   1.085  11.894  1.00  0.00    -0.025 C 
HETATM    7  C   UNL     1      11.641   2.237  13.185  1.00  0.00     0.030 C 
HETATM    8  C   UNL     1       8.735  -1.276  12.952  1.00  0.00     0.018 C 
HETATM    9  N   UNL     1      12.182  -0.208  13.467  1.00  0.00    -0.313 N 
HETATM   10  C   UNL     1      13.237  -1.469  11.765  1.00  0.00     0.032 C 
HETATM   11  C   UNL     1      10.123  -1.431  12.949  1.00  0.00     0.042 C 
HETATM   12  C   UNL     1      10.974  -0.666  13.920  1.00  0.00     0.259 C 
HETATM   13  C   UNL     1      15.467   2.444  12.477  1.00  0.00     0.049 C 
HETATM   14  C   UNL     1       8.539  -3.347  11.727  1.00  0.00     0.001 C 
HETATM   15  C   UNL     1      13.232  -1.239  13.282  1.00  0.00     0.141 C 
HETATM   16  O   UNL     1      10.599  -0.432  15.050  1.00  0.00    -0.267 OA
HETATM   17  C   UNL     1      10.688  -2.328  12.006  1.00  0.00    -0.024 C 
HETATM   18  C   UNL     1       7.951  -2.234  12.308  1.00  0.00     0.001 C 
HETATM   19  C   UNL     1       9.932  -3.473  11.730  1.00  0.00     0.012 C 
HETATM   20  C   UNL     1      13.241   3.451  11.829  1.00  0.00     0.007 C 
ENDROOT
TORSDOF 0
