REMARK  4 active torsions:
REMARK  status: ('A' for Active; 'I' for Inactive)
REMARK    1  A    between atoms: O_7  and  C_15 
REMARK    2  A    between atoms: O_9  and  C_24 
REMARK    3  A    between atoms: C_15  and  O_21 
REMARK    4  A    between atoms: C_26  and  O_27 
ROOT
HETATM    1  C   UNL     1      10.040 -20.405  -6.984  1.00  0.00     0.004 C 
HETATM    2  C   UNL     1      12.083 -19.683  -4.686  1.00  0.00    -0.018 C 
HETATM    3  C   UNL     1      10.824 -20.391  -4.728  1.00  0.00     0.045 C 
HETATM    4  C   UNL     1       9.893 -19.661  -5.677  1.00  0.00     0.011 C 
HETATM    5  C   UNL     1      14.892 -19.256  -6.845  1.00  0.00     0.011 C 
HETATM    6  C   UNL     1      12.844 -19.034  -5.550  1.00  0.00     0.008 C 
HETATM    7  C   UNL     1      14.960 -19.436  -4.445  1.00  0.00     0.013 C 
HETATM    8  C   UNL     1      14.786 -23.675  -4.340  1.00  0.00     0.089 C 
HETATM    9  C   UNL     1      15.626 -21.578  -5.276  1.00  0.00     0.031 C 
HETATM   10  C   UNL     1      10.628 -21.760  -6.676  1.00  0.00     0.041 C 
HETATM   11  C   UNL     1      12.517 -23.046  -3.482  1.00  0.00     0.210 C 
HETATM   12  C   UNL     1      14.251 -19.231  -5.627  1.00  0.00    -0.036 C 
HETATM   13  N   UNL     1      14.942 -22.746  -5.272  1.00  0.00    -0.366 N 
ATOM     14  HN  UNL     1      14.458 -22.948  -6.147  1.00  0.00     0.165 HD
HETATM   15  C   UNL     1      15.562 -20.675  -4.215  1.00  0.00     0.030 C 
HETATM   16  C   UNL     1      15.960 -20.073  -7.149  1.00  0.00     0.003 C 
HETATM   17  C   UNL     1      13.816 -23.772  -3.393  1.00  0.00     0.060 C 
HETATM   18  C   UNL     1      10.906 -21.833  -5.189  1.00  0.00     0.096 C 
HETATM   19  C   UNL     1      16.310 -21.193  -6.425  1.00  0.00     0.029 C 
HETATM   20  C   UNL     1      12.236 -22.513  -4.900  1.00  0.00     0.219 C 
ENDROOT
BRANCH  11  21
HETATM   21  O   UNL     1      12.550 -21.934  -2.655  1.00  0.00    -0.360 OA
ATOM     22  HO  UNL     1      13.212 -21.329  -2.969  1.00  0.00     0.213 HD
ENDBRANCH  11  21
BRANCH  11  23
HETATM   23  O   UNL     1      11.558 -23.922  -3.027  1.00  0.00    -0.360 OA
ATOM     24  HO  UNL     1      11.535 -24.684  -3.594  1.00  0.00     0.213 HD
ENDBRANCH  11  23
BRANCH  20  25
HETATM   25  O   UNL     1      12.401 -23.611  -5.780  1.00  0.00    -0.387 OA
ATOM     26  HO  UNL     1      12.228 -23.282  -6.654  1.00  0.00     0.210 HD
ENDBRANCH  20  25
BRANCH  18  27
HETATM   27  O   UNL     1       9.844 -22.550  -4.575  1.00  0.00    -0.386 OA
ATOM     28  HO  UNL     1       9.895 -23.454  -4.864  1.00  0.00     0.210 HD
ENDBRANCH  18  27
TORSDOF 4
