MODEL 1
REMARK VINA RESULT:      -6.8      0.000      0.000
REMARK  2 active torsions:
REMARK  status: ('A' for Active; 'I' for Inactive)
REMARK    1  A    between atoms: C_1  and  C_9 
REMARK    2  A    between atoms: C_14  and  P_17 
ROOT
HETATM    1  C   UNL     1     -44.457 -16.484 -20.796  1.00  0.00    -0.024 C 
HETATM    2  C   UNL     1     -43.432 -14.456 -19.319  1.00  0.00     0.021 C 
HETATM    3  C   UNL     1     -43.227 -15.921 -21.195  1.00  0.00     0.012 C 
HETATM    4  C   UNL     1     -42.637 -14.984 -20.344  1.00  0.00     0.002 C 
HETATM    5  C   UNL     1     -44.825 -14.422 -19.578  1.00  0.00     0.069 C 
HETATM    6  C   UNL     1     -45.399 -15.556 -20.229  1.00  0.00     0.034 C 
ENDROOT
BRANCH   1   7
HETATM    7  C   UNL     1     -44.499 -17.999 -20.709  1.00  0.00    -0.011 C 
HETATM    8  C   UNL     1     -45.646 -18.687 -20.322  1.00  0.00     0.015 C 
HETATM    9  C   UNL     1     -45.555 -20.053 -20.076  1.00  0.00     0.018 C 
HETATM   10  C   UNL     1     -44.400 -20.703 -20.451  1.00  0.00     0.087 C 
HETATM   11  N   UNL     1     -43.422 -20.097 -21.118  1.00  0.00    -0.374 N 
HETATM   12  C   UNL     1     -43.527 -18.784 -21.313  1.00  0.00     0.099 C 
ATOM     13  HN  UNL     1     -42.619 -20.620 -21.468  1.00  0.00     0.164 HD
ENDBRANCH   1   7
BRANCH   5  14
HETATM   14  P   UNL     1     -45.425 -12.760 -19.455  1.00  0.00     0.295 P 
HETATM   15  O   UNL     1     -45.918 -11.196 -19.662  1.00  0.00    -0.636 OA
HETATM   16  O   UNL     1     -46.397 -12.641 -18.373  1.00  0.00    -0.636 OA
HETATM   17  O   UNL     1     -46.068 -12.588 -20.788  1.00  0.00    -0.636 OA
ENDBRANCH   5  14
TORSDOF 2
ENDMDL
MODEL 2
REMARK VINA RESULT:      -6.2      3.153      5.243
REMARK  2 active torsions:
REMARK  status: ('A' for Active; 'I' for Inactive)
REMARK    1  A    between atoms: C_1  and  C_9 
REMARK    2  A    between atoms: C_14  and  P_17 
ROOT
HETATM    1  C   UNL     1     -41.699 -14.088 -20.941  1.00  0.00    -0.024 C 
HETATM    2  C   UNL     1     -44.250 -14.995 -21.051  1.00  0.00     0.021 C 
HETATM    3  C   UNL     1     -41.962 -15.398 -20.491  1.00  0.00     0.012 C 
HETATM    4  C   UNL     1     -43.248 -15.905 -20.692  1.00  0.00     0.002 C 
HETATM    5  C   UNL     1     -44.060 -13.665 -20.600  1.00  0.00     0.069 C 
HETATM    6  C   UNL     1     -42.739 -13.129 -20.676  1.00  0.00     0.034 C 
ENDROOT
BRANCH   1   7
HETATM    7  C   UNL     1     -40.539 -13.937 -21.909  1.00  0.00    -0.011 C 
HETATM    8  C   UNL     1     -39.467 -13.086 -21.653  1.00  0.00     0.015 C 
HETATM    9  C   UNL     1     -38.544 -12.851 -22.668  1.00  0.00     0.018 C 
HETATM   10  C   UNL     1     -38.601 -13.645 -23.791  1.00  0.00     0.087 C 
HETATM   11  N   UNL     1     -39.432 -14.677 -23.897  1.00  0.00    -0.374 N 
HETATM   12  C   UNL     1     -40.321 -14.859 -22.923  1.00  0.00     0.099 C 
ATOM     13  HN  UNL     1     -39.391 -15.307 -24.698  1.00  0.00     0.164 HD
ENDBRANCH   1   7
BRANCH   5  14
HETATM   14  P   UNL     1     -45.434 -13.158 -19.604  1.00  0.00     0.295 P 
HETATM   15  O   UNL     1     -46.495 -12.677 -18.431  1.00  0.00    -0.636 OA
HETATM   16  O   UNL     1     -46.433 -12.469 -20.414  1.00  0.00    -0.636 OA
HETATM   17  O   UNL     1     -44.769 -12.229 -18.649  1.00  0.00    -0.636 OA
ENDBRANCH   5  14
TORSDOF 2
ENDMDL
MODEL 3
REMARK VINA RESULT:      -6.0      5.745      6.758
REMARK  2 active torsions:
REMARK  status: ('A' for Active; 'I' for Inactive)
REMARK    1  A    between atoms: C_1  and  C_9 
REMARK    2  A    between atoms: C_14  and  P_17 
ROOT
HETATM    1  C   UNL     1     -40.278 -14.883 -20.452  1.00  0.00    -0.024 C 
HETATM    2  C   UNL     1     -38.080 -14.754 -18.872  1.00  0.00     0.021 C 
HETATM    3  C   UNL     1     -39.552 -16.069 -20.219  1.00  0.00     0.012 C 
HETATM    4  C   UNL     1     -38.513 -16.020 -19.285  1.00  0.00     0.002 C 
HETATM    5  C   UNL     1     -38.258 -13.708 -19.811  1.00  0.00     0.069 C 
HETATM    6  C   UNL     1     -39.482 -13.688 -20.546  1.00  0.00     0.034 C 
ENDROOT
BRANCH   1   7
HETATM    7  C   UNL     1     -41.779 -14.970 -20.248  1.00  0.00    -0.011 C 
HETATM    8  C   UNL     1     -42.596 -15.734 -21.077  1.00  0.00     0.015 C 
HETATM    9  C   UNL     1     -43.977 -15.610 -20.952  1.00  0.00     0.018 C 
HETATM   10  C   UNL     1     -44.469 -14.924 -19.866  1.00  0.00     0.087 C 
HETATM   11  N   UNL     1     -43.687 -14.463 -18.895  1.00  0.00    -0.374 N 
HETATM   12  C   UNL     1     -42.370 -14.572 -19.057  1.00  0.00     0.099 C 
ATOM     13  HN  UNL     1     -44.082 -14.041 -18.054  1.00  0.00     0.164 HD
ENDBRANCH   1   7
BRANCH   5  14
HETATM   14  P   UNL     1     -36.700 -12.951 -20.181  1.00  0.00     0.295 P 
HETATM   15  O   UNL     1     -35.157 -12.362 -20.232  1.00  0.00    -0.636 OA
HETATM   16  O   UNL     1     -36.484 -12.892 -21.623  1.00  0.00    -0.636 OA
HETATM   17  O   UNL     1     -35.757 -13.901 -19.526  1.00  0.00    -0.636 OA
ENDBRANCH   5  14
TORSDOF 2
ENDMDL
MODEL 4
REMARK VINA RESULT:      -5.9      5.325      6.348
REMARK  2 active torsions:
REMARK  status: ('A' for Active; 'I' for Inactive)
REMARK    1  A    between atoms: C_1  and  C_9 
REMARK    2  A    between atoms: C_14  and  P_17 
ROOT
HETATM    1  C   UNL     1     -41.622 -13.812 -21.276  1.00  0.00    -0.024 C 
HETATM    2  C   UNL     1     -39.184 -14.990 -21.380  1.00  0.00     0.021 C 
HETATM    3  C   UNL     1     -41.287 -14.555 -22.428  1.00  0.00     0.012 C 
HETATM    4  C   UNL     1     -40.093 -15.279 -22.405  1.00  0.00     0.002 C 
HETATM    5  C   UNL     1     -39.238 -13.670 -20.866  1.00  0.00     0.069 C 
HETATM    6  C   UNL     1     -40.530 -13.095 -20.672  1.00  0.00     0.034 C 
ENDROOT
BRANCH   1   7
HETATM    7  C   UNL     1     -42.971 -14.122 -20.653  1.00  0.00    -0.011 C 
HETATM    8  C   UNL     1     -43.473 -15.419 -20.581  1.00  0.00     0.015 C 
HETATM    9  C   UNL     1     -44.792 -15.604 -20.179  1.00  0.00     0.018 C 
HETATM   10  C   UNL     1     -45.463 -14.525 -19.647  1.00  0.00     0.087 C 
HETATM   11  N   UNL     1     -44.873 -13.356 -19.420  1.00  0.00    -0.374 N 
HETATM   12  C   UNL     1     -43.620 -13.202 -19.841  1.00  0.00     0.099 C 
ATOM     13  HN  UNL     1     -45.364 -12.602 -18.939  1.00  0.00     0.164 HD
ENDBRANCH   1   7
BRANCH   5  14
HETATM   14  P   UNL     1     -37.661 -12.884 -21.043  1.00  0.00     0.295 P 
HETATM   15  O   UNL     1     -36.118 -12.304 -20.926  1.00  0.00    -0.636 OA
HETATM   16  O   UNL     1     -37.360 -12.640 -22.449  1.00  0.00    -0.636 OA
HETATM   17  O   UNL     1     -36.759 -13.917 -20.462  1.00  0.00    -0.636 OA
ENDBRANCH   5  14
TORSDOF 2
ENDMDL
MODEL 5
REMARK VINA RESULT:      -5.9      6.210      7.066
REMARK  2 active torsions:
REMARK  status: ('A' for Active; 'I' for Inactive)
REMARK    1  A    between atoms: C_1  and  C_9 
REMARK    2  A    between atoms: C_14  and  P_17 
ROOT
HETATM    1  C   UNL     1     -38.789 -15.614 -18.403  1.00  0.00    -0.024 C 
HETATM    2  C   UNL     1     -39.468 -14.811 -20.901  1.00  0.00     0.021 C 
HETATM    3  C   UNL     1     -40.079 -15.080 -18.607  1.00  0.00     0.012 C 
HETATM    4  C   UNL     1     -40.468 -14.812 -19.921  1.00  0.00     0.002 C 
HETATM    5  C   UNL     1     -38.167 -14.476 -20.450  1.00  0.00     0.069 C 
HETATM    6  C   UNL     1     -37.748 -15.016 -19.196  1.00  0.00     0.034 C 
ENDROOT
BRANCH   1   7
HETATM    7  C   UNL     1     -38.724 -16.928 -17.647  1.00  0.00    -0.011 C 
HETATM    8  C   UNL     1     -39.291 -17.085 -16.384  1.00  0.00     0.015 C 
HETATM    9  C   UNL     1     -39.023 -18.250 -15.672  1.00  0.00     0.018 C 
HETATM   10  C   UNL     1     -38.410 -19.288 -16.337  1.00  0.00     0.087 C 
HETATM   11  N   UNL     1     -38.156 -19.253 -17.641  1.00  0.00    -0.374 N 
HETATM   12  C   UNL     1     -38.397 -18.115 -18.288  1.00  0.00     0.099 C 
ATOM     13  HN  UNL     1     -37.788 -20.070 -18.129  1.00  0.00     0.164 HD
ENDBRANCH   1   7
BRANCH   5  14
HETATM   14  P   UNL     1     -37.559 -13.069 -21.339  1.00  0.00     0.295 P 
HETATM   15  O   UNL     1     -37.307 -11.663 -22.169  1.00  0.00    -0.636 OA
HETATM   16  O   UNL     1     -36.170 -12.796 -20.985  1.00  0.00    -0.636 OA
HETATM   17  O   UNL     1     -38.470 -12.000 -20.843  1.00  0.00    -0.636 OA
ENDBRANCH   5  14
TORSDOF 2
ENDMDL
MODEL 6
REMARK VINA RESULT:      -5.7      5.100      6.068
REMARK  2 active torsions:
REMARK  status: ('A' for Active; 'I' for Inactive)
REMARK    1  A    between atoms: C_1  and  C_9 
REMARK    2  A    between atoms: C_14  and  P_17 
ROOT
HETATM    1  C   UNL     1     -41.292 -15.205 -21.405  1.00  0.00    -0.024 C 
HETATM    2  C   UNL     1     -38.886 -14.092 -20.845  1.00  0.00     0.021 C 
HETATM    3  C   UNL     1     -40.264 -16.042 -20.925  1.00  0.00     0.012 C 
HETATM    4  C   UNL     1     -39.081 -15.434 -20.499  1.00  0.00     0.002 C 
HETATM    5  C   UNL     1     -39.531 -13.665 -22.033  1.00  0.00     0.069 C 
HETATM    6  C   UNL     1     -40.859 -14.135 -22.264  1.00  0.00     0.034 C 
ENDROOT
BRANCH   1   7
HETATM    7  C   UNL     1     -42.636 -15.335 -20.711  1.00  0.00    -0.011 C 
HETATM    8  C   UNL     1     -43.479 -16.422 -20.927  1.00  0.00     0.015 C 
HETATM    9  C   UNL     1     -44.771 -16.378 -20.413  1.00  0.00     0.018 C 
HETATM   10  C   UNL     1     -45.078 -15.376 -19.520  1.00  0.00     0.087 C 
HETATM   11  N   UNL     1     -44.170 -14.518 -19.066  1.00  0.00    -0.374 N 
HETATM   12  C   UNL     1     -42.950 -14.569 -19.598  1.00  0.00     0.099 C 
ATOM     13  HN  UNL     1     -44.399 -13.845 -18.335  1.00  0.00     0.164 HD
ENDBRANCH   1   7
BRANCH   5  14
HETATM   14  P   UNL     1     -38.337 -13.031 -23.178  1.00  0.00     0.295 P 
HETATM   15  O   UNL     1     -37.072 -12.327 -23.976  1.00  0.00    -0.636 OA
HETATM   16  O   UNL     1     -38.298 -13.845 -24.388  1.00  0.00    -0.636 OA
HETATM   17  O   UNL     1     -37.081 -13.167 -22.388  1.00  0.00    -0.636 OA
ENDBRANCH   5  14
TORSDOF 2
ENDMDL
MODEL 7
REMARK VINA RESULT:      -5.7      3.827      4.590
REMARK  2 active torsions:
REMARK  status: ('A' for Active; 'I' for Inactive)
REMARK    1  A    between atoms: C_1  and  C_9 
REMARK    2  A    between atoms: C_14  and  P_17 
ROOT
HETATM    1  C   UNL     1     -42.054 -13.976 -19.860  1.00  0.00    -0.024 C 
HETATM    2  C   UNL     1     -43.294 -11.625 -19.329  1.00  0.00     0.021 C 
HETATM    3  C   UNL     1     -41.692 -12.843 -20.617  1.00  0.00     0.012 C 
HETATM    4  C   UNL     1     -42.226 -11.610 -20.234  1.00  0.00     0.002 C 
HETATM    5  C   UNL     1     -44.105 -12.787 -19.356  1.00  0.00     0.069 C 
HETATM    6  C   UNL     1     -43.444 -14.046 -19.490  1.00  0.00     0.034 C 
ENDROOT
BRANCH   1   7
HETATM    7  C   UNL     1     -40.908 -14.776 -19.268  1.00  0.00    -0.011 C 
HETATM    8  C   UNL     1     -39.836 -15.217 -20.041  1.00  0.00     0.015 C 
HETATM    9  C   UNL     1     -38.929 -16.108 -19.477  1.00  0.00     0.018 C 
HETATM   10  C   UNL     1     -38.996 -16.327 -18.119  1.00  0.00     0.087 C 
HETATM   11  N   UNL     1     -39.823 -15.656 -17.325  1.00  0.00    -0.374 N 
HETATM   12  C   UNL     1     -40.698 -14.832 -17.898  1.00  0.00     0.099 C 
ATOM     13  HN  UNL     1     -39.789 -15.768 -16.312  1.00  0.00     0.164 HD
ENDBRANCH   1   7
BRANCH   5  14
HETATM   14  P   UNL     1     -45.786 -12.347 -19.698  1.00  0.00     0.295 P 
HETATM   15  O   UNL     1     -47.427 -12.189 -19.818  1.00  0.00    -0.636 OA
HETATM   16  O   UNL     1     -45.896 -10.925 -20.006  1.00  0.00    -0.636 OA
HETATM   17  O   UNL     1     -46.438 -12.677 -18.399  1.00  0.00    -0.636 OA
ENDBRANCH   5  14
TORSDOF 2
ENDMDL
MODEL 8
REMARK VINA RESULT:      -5.6      3.366      5.042
REMARK  2 active torsions:
REMARK  status: ('A' for Active; 'I' for Inactive)
REMARK    1  A    between atoms: C_1  and  C_9 
REMARK    2  A    between atoms: C_14  and  P_17 
ROOT
HETATM    1  C   UNL     1     -42.111 -13.706 -19.542  1.00  0.00    -0.024 C 
HETATM    2  C   UNL     1     -44.578 -14.372 -20.444  1.00  0.00     0.021 C 
HETATM    3  C   UNL     1     -42.689 -14.908 -19.083  1.00  0.00     0.012 C 
HETATM    4  C   UNL     1     -43.890 -15.313 -19.669  1.00  0.00     0.002 C 
HETATM    5  C   UNL     1     -44.367 -13.015 -20.091  1.00  0.00     0.069 C 
HETATM    6  C   UNL     1     -43.036 -12.624 -19.754  1.00  0.00     0.034 C 
ENDROOT
BRANCH   1   7
HETATM    7  C   UNL     1     -40.686 -13.805 -20.055  1.00  0.00    -0.011 C 
HETATM    8  C   UNL     1     -39.906 -14.942 -19.859  1.00  0.00     0.015 C 
HETATM    9  C   UNL     1     -38.553 -14.888 -20.180  1.00  0.00     0.018 C 
HETATM   10  C   UNL     1     -38.100 -13.800 -20.892  1.00  0.00     0.087 C 
HETATM   11  N   UNL     1     -38.916 -12.859 -21.358  1.00  0.00    -0.374 N 
HETATM   12  C   UNL     1     -40.199 -12.924 -21.010  1.00  0.00     0.099 C 
ATOM     13  HN  UNL     1     -38.570 -12.113 -21.962  1.00  0.00     0.164 HD
ENDBRANCH   1   7
BRANCH   5  14
HETATM   14  P   UNL     1     -45.912 -12.244 -19.693  1.00  0.00     0.295 P 
HETATM   15  O   UNL     1     -47.337 -11.410 -19.630  1.00  0.00    -0.636 OA
HETATM   16  O   UNL     1     -46.624 -13.009 -18.675  1.00  0.00    -0.636 OA
HETATM   17  O   UNL     1     -46.609 -12.303 -21.008  1.00  0.00    -0.636 OA
ENDBRANCH   5  14
TORSDOF 2
ENDMDL
MODEL 9
REMARK VINA RESULT:      -5.6      5.646      7.217
REMARK  2 active torsions:
REMARK  status: ('A' for Active; 'I' for Inactive)
REMARK    1  A    between atoms: C_1  and  C_9 
REMARK    2  A    between atoms: C_14  and  P_17 
ROOT
HETATM    1  C   UNL     1     -38.901 -13.542 -21.208  1.00  0.00    -0.024 C 
HETATM    2  C   UNL     1     -38.911 -15.483 -19.317  1.00  0.00     0.021 C 
HETATM    3  C   UNL     1     -37.716 -13.770 -20.477  1.00  0.00     0.012 C 
HETATM    4  C   UNL     1     -37.689 -14.869 -19.615  1.00  0.00     0.002 C 
HETATM    5  C   UNL     1     -40.052 -14.644 -19.383  1.00  0.00     0.069 C 
HETATM    6  C   UNL     1     -40.121 -13.715 -20.464  1.00  0.00     0.034 C 
ENDROOT
BRANCH   1   7
HETATM    7  C   UNL     1     -38.749 -13.474 -22.717  1.00  0.00    -0.011 C 
HETATM    8  C   UNL     1     -37.632 -12.905 -23.324  1.00  0.00     0.015 C 
HETATM    9  C   UNL     1     -37.653 -12.699 -24.700  1.00  0.00     0.018 C 
HETATM   10  C   UNL     1     -38.669 -13.279 -25.426  1.00  0.00     0.087 C 
HETATM   11  N   UNL     1     -39.564 -14.095 -24.879  1.00  0.00    -0.374 N 
HETATM   12  C   UNL     1     -39.536 -14.249 -23.557  1.00  0.00     0.099 C 
ATOM     13  HN  UNL     1     -40.250 -14.586 -25.453  1.00  0.00     0.164 HD
ENDBRANCH   1   7
BRANCH   5  14
HETATM   14  P   UNL     1     -40.888 -14.631 -17.821  1.00  0.00     0.295 P 
HETATM   15  O   UNL     1     -41.911 -14.473 -16.533  1.00  0.00    -0.636 OA
HETATM   16  O   UNL     1     -40.435 -15.737 -16.984  1.00  0.00    -0.636 OA
HETATM   17  O   UNL     1     -42.302 -14.816 -18.252  1.00  0.00    -0.636 OA
ENDBRANCH   5  14
TORSDOF 2
ENDMDL
