MODEL 1
REMARK VINA RESULT:      -7.1      0.000      0.000
REMARK  2 active torsions:
REMARK  status: ('A' for Active; 'I' for Inactive)
REMARK    1  A    between atoms: P_6  and  N_10 
REMARK    2  A    between atoms: C_7  and  O_8 
ROOT
HETATM    1  O   UNL     1      22.657 -19.442  24.976  1.00  0.00    -0.265 OA
HETATM    2  N   UNL     1      21.064 -20.380  23.666  1.00  0.00    -0.273 N 
ATOM      3  HN  UNL     1      21.199 -21.351  23.949  1.00  0.00     0.173 HD
HETATM    4  C   UNL     1      20.812 -18.091  24.442  1.00  0.00     0.150 C 
HETATM    5  N   UNL     1      19.594 -18.905  22.576  1.00  0.00    -0.198 N 
HETATM    6  C   UNL     1      21.557 -19.376  24.427  1.00  0.00     0.284 C 
HETATM    7  C   UNL     1      20.381 -20.087  22.515  1.00  0.00     0.339 C 
HETATM    8  O   UNL     1      20.450 -20.799  21.537  1.00  0.00    -0.246 OA
HETATM    9  C   UNL     1      19.897 -17.852  23.443  1.00  0.00     0.151 C 
ENDROOT
BRANCH   5  10
HETATM   10  P   UNL     1      18.674 -18.563  21.177  1.00  0.00     0.386 P 
HETATM   11  O   UNL     1      19.625 -18.329  20.032  1.00  0.00    -0.622 OA
HETATM   12  O   UNL     1      17.775 -19.722  20.909  1.00  0.00    -0.622 OA
HETATM   13  O   UNL     1      17.886 -17.343  21.469  1.00  0.00    -0.622 OA
ENDBRANCH   5  10
BRANCH   4  14
HETATM   14  O   UNL     1      20.835 -17.373  25.607  1.00  0.00    -0.355 OA
ATOM     15  HO  UNL     1      20.082 -16.822  25.789  1.00  0.00     0.218 HD
ENDBRANCH   4  14
TORSDOF 2
ENDMDL
MODEL 2
REMARK VINA RESULT:      -6.5      1.039      2.703
REMARK  2 active torsions:
REMARK  status: ('A' for Active; 'I' for Inactive)
REMARK    1  A    between atoms: P_6  and  N_10 
REMARK    2  A    between atoms: C_7  and  O_8 
ROOT
HETATM    1  O   UNL     1      20.630 -17.602  26.080  1.00  0.00    -0.265 OA
HETATM    2  N   UNL     1      20.002 -17.284  23.926  1.00  0.00    -0.273 N 
ATOM      3  HN  UNL     1      19.851 -16.276  23.968  1.00  0.00     0.173 HD
HETATM    4  C   UNL     1      21.507 -19.103  24.501  1.00  0.00     0.150 C 
HETATM    5  N   UNL     1      20.287 -19.104  22.467  1.00  0.00    -0.198 N 
HETATM    6  C   UNL     1      20.721 -17.904  24.890  1.00  0.00     0.284 C 
HETATM    7  C   UNL     1      19.478 -18.017  22.893  1.00  0.00     0.339 C 
HETATM    8  O   UNL     1      18.411 -17.735  22.392  1.00  0.00    -0.246 OA
HETATM    9  C   UNL     1      21.200 -19.733  23.318  1.00  0.00     0.151 C 
ENDROOT
BRANCH   5  10
HETATM   10  P   UNL     1      19.688 -19.984  21.129  1.00  0.00     0.386 P 
HETATM   11  O   UNL     1      18.199 -20.138  21.293  1.00  0.00    -0.622 OA
HETATM   12  O   UNL     1      20.023 -19.234  19.884  1.00  0.00    -0.622 OA
HETATM   13  O   UNL     1      20.362 -21.303  21.146  1.00  0.00    -0.622 OA
ENDBRANCH   5  10
BRANCH   4  14
HETATM   14  O   UNL     1      22.685 -19.316  25.164  1.00  0.00    -0.355 OA
ATOM     15  HO  UNL     1      23.033 -20.200  25.153  1.00  0.00     0.218 HD
ENDBRANCH   4  14
TORSDOF 2
ENDMDL
MODEL 3
REMARK VINA RESULT:      -6.3      1.982      4.786
REMARK  2 active torsions:
REMARK  status: ('A' for Active; 'I' for Inactive)
REMARK    1  A    between atoms: P_6  and  N_10 
REMARK    2  A    between atoms: C_7  and  O_8 
ROOT
HETATM    1  O   UNL     1      18.040 -17.622  21.331  1.00  0.00    -0.265 OA
HETATM    2  N   UNL     1      18.436 -17.973  23.535  1.00  0.00    -0.273 N 
ATOM      3  HN  UNL     1      17.480 -17.861  23.871  1.00  0.00     0.173 HD
HETATM    4  C   UNL     1      19.854 -19.017  21.860  1.00  0.00     0.150 C 
HETATM    5  N   UNL     1      20.572 -18.768  24.107  1.00  0.00    -0.198 N 
HETATM    6  C   UNL     1      18.672 -18.192  22.221  1.00  0.00     0.284 C 
HETATM    7  C   UNL     1      19.488 -17.901  24.410  1.00  0.00     0.339 C 
HETATM    8  O   UNL     1      19.468 -17.157  25.367  1.00  0.00    -0.246 OA
HETATM    9  C   UNL     1      20.832 -19.210  22.807  1.00  0.00     0.151 C 
ENDROOT
BRANCH   5  10
HETATM   10  P   UNL     1      21.862 -18.751  25.229  1.00  0.00     0.386 P 
HETATM   11  O   UNL     1      21.287 -18.915  26.611  1.00  0.00    -0.622 OA
HETATM   12  O   UNL     1      22.794 -19.865  24.893  1.00  0.00    -0.622 OA
HETATM   13  O   UNL     1      22.537 -17.440  25.088  1.00  0.00    -0.622 OA
ENDBRANCH   5  10
BRANCH   4  14
HETATM   14  O   UNL     1      19.749 -19.797  20.740  1.00  0.00    -0.355 OA
ATOM     15  HO  UNL     1      19.526 -20.711  20.870  1.00  0.00     0.218 HD
ENDBRANCH   4  14
TORSDOF 2
ENDMDL
MODEL 4
REMARK VINA RESULT:      -6.3      3.154      4.386
REMARK  2 active torsions:
REMARK  status: ('A' for Active; 'I' for Inactive)
REMARK    1  A    between atoms: P_6  and  N_10 
REMARK    2  A    between atoms: C_7  and  O_8 
ROOT
HETATM    1  O   UNL     1      20.167 -20.674  22.460  1.00  0.00    -0.265 OA
HETATM    2  N   UNL     1      20.884 -19.672  20.558  1.00  0.00    -0.273 N 
ATOM      3  HN  UNL     1      21.883 -19.676  20.762  1.00  0.00     0.173 HD
HETATM    4  C   UNL     1      18.843 -20.993  20.547  1.00  0.00     0.150 C 
HETATM    5  N   UNL     1      19.293 -19.396  18.851  1.00  0.00    -0.198 N 
HETATM    6  C   UNL     1      20.046 -20.478  21.251  1.00  0.00     0.284 C 
HETATM    7  C   UNL     1      20.383 -18.852  19.582  1.00  0.00     0.339 C 
HETATM    8  O   UNL     1      20.854 -17.755  19.370  1.00  0.00    -0.246 OA
HETATM    9  C   UNL     1      18.444 -20.366  19.390  1.00  0.00     0.151 C 
ENDROOT
BRANCH   5  10
HETATM   10  P   UNL     1      18.703 -18.421  17.577  1.00  0.00     0.386 P 
HETATM   11  O   UNL     1      18.096 -17.179  18.175  1.00  0.00    -0.622 OA
HETATM   12  O   UNL     1      19.842 -18.087  16.673  1.00  0.00    -0.622 OA
HETATM   13  O   UNL     1      17.681 -19.219  16.862  1.00  0.00    -0.622 OA
ENDBRANCH   5  10
BRANCH   4  14
HETATM   14  O   UNL     1      18.402 -22.239  20.899  1.00  0.00    -0.355 OA
ATOM     15  HO  UNL     1      18.131 -22.816  20.194  1.00  0.00     0.218 HD
ENDBRANCH   4  14
TORSDOF 2
ENDMDL
MODEL 5
REMARK VINA RESULT:      -6.2      1.999      3.252
REMARK  2 active torsions:
REMARK  status: ('A' for Active; 'I' for Inactive)
REMARK    1  A    between atoms: P_6  and  N_10 
REMARK    2  A    between atoms: C_7  and  O_8 
ROOT
HETATM    1  O   UNL     1      19.095 -18.796  24.619  1.00  0.00    -0.265 OA
HETATM    2  N   UNL     1      19.094 -17.676  22.648  1.00  0.00    -0.273 N 
ATOM      3  HN  UNL     1      19.054 -16.729  23.023  1.00  0.00     0.173 HD
HETATM    4  C   UNL     1      20.177 -19.846  22.817  1.00  0.00     0.150 C 
HETATM    5  N   UNL     1      19.540 -18.942  20.719  1.00  0.00    -0.198 N 
HETATM    6  C   UNL     1      19.459 -18.707  23.446  1.00  0.00     0.284 C 
HETATM    7  C   UNL     1      18.778 -17.914  21.336  1.00  0.00     0.339 C 
HETATM    8  O   UNL     1      17.919 -17.277  20.765  1.00  0.00    -0.246 OA
HETATM    9  C   UNL     1      20.119 -19.981  21.450  1.00  0.00     0.151 C 
ENDROOT
BRANCH   5  10
HETATM   10  P   UNL     1      19.215 -19.200  19.060  1.00  0.00     0.386 P 
HETATM   11  O   UNL     1      17.786 -19.655  18.924  1.00  0.00    -0.622 OA
HETATM   12  O   UNL     1      19.450 -17.922  18.330  1.00  0.00    -0.622 OA
HETATM   13  O   UNL     1      20.152 -20.250  18.598  1.00  0.00    -0.622 OA
ENDBRANCH   5  10
BRANCH   4  14
HETATM   14  O   UNL     1      21.108 -20.493  23.583  1.00  0.00    -0.355 OA
ATOM     15  HO  UNL     1      20.795 -21.198  24.139  1.00  0.00     0.218 HD
ENDBRANCH   4  14
TORSDOF 2
ENDMDL
MODEL 6
REMARK VINA RESULT:      -6.2      1.371      2.001
REMARK  2 active torsions:
REMARK  status: ('A' for Active; 'I' for Inactive)
REMARK    1  A    between atoms: P_6  and  N_10 
REMARK    2  A    between atoms: C_7  and  O_8 
ROOT
HETATM    1  O   UNL     1      21.225 -17.598  24.893  1.00  0.00    -0.265 OA
HETATM    2  N   UNL     1      20.707 -19.597  23.959  1.00  0.00    -0.273 N 
ATOM      3  HN  UNL     1      21.195 -20.196  24.624  1.00  0.00     0.173 HD
HETATM    4  C   UNL     1      19.201 -17.706  23.706  1.00  0.00     0.150 C 
HETATM    5  N   UNL     1      19.099 -19.573  22.246  1.00  0.00    -0.198 N 
HETATM    6  C   UNL     1      20.431 -18.311  24.278  1.00  0.00     0.284 C 
HETATM    7  C   UNL     1      20.328 -20.088  22.737  1.00  0.00     0.339 C 
HETATM    8  O   UNL     1      20.999 -20.906  22.145  1.00  0.00    -0.246 OA
HETATM    9  C   UNL     1      18.610 -18.321  22.627  1.00  0.00     0.151 C 
ENDROOT
BRANCH   5  10
HETATM   10  P   UNL     1      18.569 -20.230  20.759  1.00  0.00     0.386 P 
HETATM   11  O   UNL     1      18.501 -21.728  20.903  1.00  0.00    -0.622 OA
HETATM   12  O   UNL     1      17.231 -19.655  20.440  1.00  0.00    -0.622 OA
HETATM   13  O   UNL     1      19.566 -19.840  19.737  1.00  0.00    -0.622 OA
ENDBRANCH   5  10
BRANCH   4  14
HETATM   14  O   UNL     1      18.551 -16.778  24.472  1.00  0.00    -0.355 OA
ATOM     15  HO  UNL     1      17.602 -16.774  24.432  1.00  0.00     0.218 HD
ENDBRANCH   4  14
TORSDOF 2
ENDMDL
MODEL 7
REMARK VINA RESULT:      -5.9      1.532      3.036
REMARK  2 active torsions:
REMARK  status: ('A' for Active; 'I' for Inactive)
REMARK    1  A    between atoms: P_6  and  N_10 
REMARK    2  A    between atoms: C_7  and  O_8 
ROOT
HETATM    1  O   UNL     1      18.651 -17.354  25.062  1.00  0.00    -0.265 OA
HETATM    2  N   UNL     1      18.724 -17.423  22.798  1.00  0.00    -0.273 N 
ATOM      3  HN  UNL     1      18.471 -16.452  22.617  1.00  0.00     0.173 HD
HETATM    4  C   UNL     1      20.130 -18.910  24.108  1.00  0.00     0.150 C 
HETATM    5  N   UNL     1      19.637 -19.362  21.833  1.00  0.00    -0.198 N 
HETATM    6  C   UNL     1      19.150 -17.797  24.026  1.00  0.00     0.284 C 
HETATM    7  C   UNL     1      18.633 -18.357  21.799  1.00  0.00     0.339 C 
HETATM    8  O   UNL     1      17.762 -18.303  20.957  1.00  0.00    -0.246 OA
HETATM    9  C   UNL     1      20.282 -19.731  23.015  1.00  0.00     0.151 C 
ENDROOT
BRANCH   5  10
HETATM   10  P   UNL     1      19.588 -20.491  20.550  1.00  0.00     0.386 P 
HETATM   11  O   UNL     1      18.184 -21.027  20.445  1.00  0.00    -0.622 OA
HETATM   12  O   UNL     1      19.999 -19.797  19.296  1.00  0.00    -0.622 OA
HETATM   13  O   UNL     1      20.543 -21.570  20.891  1.00  0.00    -0.622 OA
ENDBRANCH   5  10
BRANCH   4  14
HETATM   14  O   UNL     1      21.047 -18.858  25.123  1.00  0.00    -0.355 OA
ATOM     15  HO  UNL     1      21.579 -19.633  25.264  1.00  0.00     0.218 HD
ENDBRANCH   4  14
TORSDOF 2
ENDMDL
MODEL 8
REMARK VINA RESULT:      -5.9      1.413      1.890
REMARK  2 active torsions:
REMARK  status: ('A' for Active; 'I' for Inactive)
REMARK    1  A    between atoms: P_6  and  N_10 
REMARK    2  A    between atoms: C_7  and  O_8 
ROOT
HETATM    1  O   UNL     1      20.951 -18.902  24.872  1.00  0.00    -0.265 OA
HETATM    2  N   UNL     1      20.061 -20.199  23.240  1.00  0.00    -0.273 N 
ATOM      3  HN  UNL     1      20.109 -21.094  23.727  1.00  0.00     0.173 HD
HETATM    4  C   UNL     1      19.427 -17.859  23.420  1.00  0.00     0.150 C 
HETATM    5  N   UNL     1      19.102 -19.078  21.411  1.00  0.00    -0.198 N 
HETATM    6  C   UNL     1      20.165 -19.042  23.934  1.00  0.00     0.284 C 
HETATM    7  C   UNL     1      19.892 -20.161  21.881  1.00  0.00     0.339 C 
HETATM    8  O   UNL     1      20.379 -21.003  21.157  1.00  0.00    -0.246 OA
HETATM    9  C   UNL     1      18.986 -17.878  22.118  1.00  0.00     0.151 C 
ENDROOT
BRANCH   5  10
HETATM   10  P   UNL     1      18.813 -19.057  19.726  1.00  0.00     0.386 P 
HETATM   11  O   UNL     1      18.224 -17.719  19.365  1.00  0.00    -0.622 OA
HETATM   12  O   UNL     1      20.109 -19.287  19.024  1.00  0.00    -0.622 OA
HETATM   13  O   UNL     1      17.859 -20.152  19.440  1.00  0.00    -0.622 OA
ENDBRANCH   5  10
BRANCH   4  14
HETATM   14  O   UNL     1      18.948 -16.974  24.347  1.00  0.00    -0.355 OA
ATOM     15  HO  UNL     1      19.562 -16.659  25.000  1.00  0.00     0.218 HD
ENDBRANCH   4  14
TORSDOF 2
ENDMDL
MODEL 9
REMARK VINA RESULT:      -5.7      2.952      4.557
REMARK  2 active torsions:
REMARK  status: ('A' for Active; 'I' for Inactive)
REMARK    1  A    between atoms: P_6  and  N_10 
REMARK    2  A    between atoms: C_7  and  O_8 
ROOT
HETATM    1  O   UNL     1      19.868 -20.529  22.628  1.00  0.00    -0.265 OA
HETATM    2  N   UNL     1      19.926 -18.913  21.040  1.00  0.00    -0.273 N 
ATOM      3  HN  UNL     1      20.187 -18.132  21.640  1.00  0.00     0.173 HD
HETATM    4  C   UNL     1      20.400 -21.222  20.447  1.00  0.00     0.150 C 
HETATM    5  N   UNL     1      19.776 -19.628  18.806  1.00  0.00    -0.198 N 
HETATM    6  C   UNL     1      20.097 -20.186  21.467  1.00  0.00     0.284 C 
HETATM    7  C   UNL     1      19.399 -18.681  19.796  1.00  0.00     0.339 C 
HETATM    8  O   UNL     1      18.679 -17.731  19.579  1.00  0.00    -0.246 OA
HETATM    9  C   UNL     1      20.141 -20.938  19.127  1.00  0.00     0.151 C 
ENDROOT
BRANCH   5  10
HETATM   10  P   UNL     1      19.193 -19.313  17.230  1.00  0.00     0.386 P 
HETATM   11  O   UNL     1      17.689 -19.264  17.284  1.00  0.00    -0.622 OA
HETATM   12  O   UNL     1      19.763 -18.015  16.767  1.00  0.00    -0.622 OA
HETATM   13  O   UNL     1      19.657 -20.426  16.370  1.00  0.00    -0.622 OA
ENDBRANCH   5  10
BRANCH   4  14
HETATM   14  O   UNL     1      21.210 -22.256  20.833  1.00  0.00    -0.355 OA
ATOM     15  HO  UNL     1      22.047 -22.026  21.219  1.00  0.00     0.218 HD
ENDBRANCH   4  14
TORSDOF 2
ENDMDL
