MODEL 1
REMARK VINA RESULT:     -10.9      0.000      0.000
REMARK  1 active torsions:
REMARK  status: ('A' for Active; 'I' for Inactive)
REMARK    1  A    between atoms: C_9  and  C_13 
ROOT
HETATM    1  C   UNL     1      15.489  30.355 -11.028  1.00  0.00     0.002 C 
HETATM    2  O   UNL     1      16.469  28.807 -16.455  1.00  0.00    -0.272 OA
HETATM    3  C   UNL     1      16.014  27.879 -12.629  1.00  0.00    -0.030 C 
HETATM    4  C   UNL     1      17.156  25.569 -18.111  1.00  0.00     0.007 C 
HETATM    5  C   UNL     1      16.497  26.803 -20.084  1.00  0.00     0.000 C 
HETATM    6  C   UNL     1      14.664  26.753 -14.840  1.00  0.00     0.034 C 
HETATM    7  C   UNL     1      15.331  27.342 -19.640  1.00  0.00     0.001 C 
HETATM    8  C   UNL     1      14.662  27.268 -18.453  1.00  0.00     0.008 C 
HETATM    9  C   UNL     1      15.162  29.385 -10.151  1.00  0.00     0.000 C 
HETATM   10  C   UNL     1      14.083  26.472 -16.199  1.00  0.00     0.053 C 
HETATM   11  C   UNL     1      15.070  26.618 -17.319  1.00  0.00    -0.043 C 
HETATM   12  N   UNL     1      16.628  29.397 -14.363  1.00  0.00    -0.326 N 
ATOM     13  HN  UNL     1      17.122  30.258 -14.599  1.00  0.00     0.169 HD
HETATM   14  C   UNL     1      15.166  27.467 -11.644  1.00  0.00     0.009 C 
HETATM   15  C   UNL     1      16.414  28.461 -15.296  1.00  0.00     0.231 C 
HETATM   16  C   UNL     1      16.901  26.039 -15.738  1.00  0.00     0.058 C 
HETATM   17  C   UNL     1      16.356  26.087 -17.129  1.00  0.00    -0.050 C 
HETATM   18  C   UNL     1      16.169  27.030 -14.841  1.00  0.00     0.050 C 
HETATM   19  C   UNL     1      14.826  28.102 -10.475  1.00  0.00     0.001 C 
HETATM   20  C   UNL     1      15.907  30.305 -12.325  1.00  0.00     0.030 C 
HETATM   21  C   UNL     1      16.701  26.810 -13.429  1.00  0.00     0.060 C 
HETATM   22  C   UNL     1      17.294  25.924 -19.421  1.00  0.00     0.001 C 
HETATM   23  C   UNL     1      16.174  29.184 -13.086  1.00  0.00     0.041 C 
ENDROOT
BRANCH  10  24
HETATM   24  C   UNL     1      13.313  25.218 -16.378  1.00  0.00    -0.049 C 
HETATM   25  C   UNL     1      12.093  24.939 -15.745  1.00  0.00     0.009 C 
HETATM   26  C   UNL     1      12.077  23.809 -14.907  1.00  0.00     0.013 C 
HETATM   27  C   UNL     1      13.076  22.863 -15.111  1.00  0.00    -0.026 C 
HETATM   28  C   UNL     1      13.079  21.673 -14.380  1.00  0.00     0.012 C 
HETATM   29  C   UNL     1      14.086  23.073 -16.062  1.00  0.00    -0.025 C 
HETATM   30  C   UNL     1      14.159  20.801 -14.511  1.00  0.00     0.001 C 
HETATM   31  C   UNL     1      15.285  21.174 -15.238  1.00  0.00     0.001 C 
HETATM   32  C   UNL     1      15.247  22.306 -16.047  1.00  0.00     0.012 C 
HETATM   33  C   UNL     1      13.941  24.125 -16.953  1.00  0.00     0.020 C 
ENDBRANCH  10  24
TORSDOF 1
ENDMDL
MODEL 2
REMARK VINA RESULT:      -8.1      1.916      6.333
REMARK  1 active torsions:
REMARK  status: ('A' for Active; 'I' for Inactive)
REMARK    1  A    between atoms: C_9  and  C_13 
ROOT
HETATM    1  C   UNL     1      14.424  20.275 -14.741  1.00  0.00     0.002 C 
HETATM    2  O   UNL     1      16.562  24.945 -17.278  1.00  0.00    -0.272 OA
HETATM    3  C   UNL     1      13.527  22.985 -15.649  1.00  0.00    -0.030 C 
HETATM    4  C   UNL     1      15.107  28.181 -18.332  1.00  0.00     0.007 C 
HETATM    5  C   UNL     1      17.429  28.856 -18.346  1.00  0.00     0.000 C 
HETATM    6  C   UNL     1      14.439  25.579 -15.001  1.00  0.00     0.034 C 
HETATM    7  C   UNL     1      17.805  28.411 -17.118  1.00  0.00     0.001 C 
HETATM    8  C   UNL     1      17.142  27.763 -16.116  1.00  0.00     0.008 C 
HETATM    9  C   UNL     1      13.227  20.389 -14.131  1.00  0.00     0.000 C 
HETATM   10  C   UNL     1      15.243  26.842 -14.853  1.00  0.00     0.053 C 
HETATM   11  C   UNL     1      15.844  27.329 -16.139  1.00  0.00    -0.043 C 
HETATM   12  N   UNL     1      15.609  23.042 -16.811  1.00  0.00    -0.326 N 
ATOM     13  HN  UNL     1      16.274  22.520 -17.380  1.00  0.00     0.169 HD
HETATM   14  C   UNL     1      12.787  22.746 -14.528  1.00  0.00     0.009 C 
HETATM   15  C   UNL     1      15.576  24.379 -16.861  1.00  0.00     0.231 C 
HETATM   16  C   UNL     1      13.981  26.245 -17.381  1.00  0.00     0.058 C 
HETATM   17  C   UNL     1      15.037  27.299 -17.288  1.00  0.00    -0.050 C 
HETATM   18  C   UNL     1      14.295  25.087 -16.443  1.00  0.00     0.050 C 
HETATM   19  C   UNL     1      12.577  21.561 -13.868  1.00  0.00     0.001 C 
HETATM   20  C   UNL     1      15.125  21.136 -15.532  1.00  0.00     0.030 C 
HETATM   21  C   UNL     1      13.102  24.139 -16.512  1.00  0.00     0.060 C 
HETATM   22  C   UNL     1      16.176  28.831 -18.875  1.00  0.00     0.001 C 
HETATM   23  C   UNL     1      14.736  22.382 -15.982  1.00  0.00     0.041 C 
ENDROOT
BRANCH  10  24
HETATM   24  C   UNL     1      14.622  27.979 -14.134  1.00  0.00    -0.049 C 
HETATM   25  C   UNL     1      14.804  29.328 -14.475  1.00  0.00     0.009 C 
HETATM   26  C   UNL     1      15.382  30.142 -13.482  1.00  0.00     0.013 C 
HETATM   27  C   UNL     1      15.317  29.676 -12.174  1.00  0.00    -0.026 C 
HETATM   28  C   UNL     1      15.790  30.465 -11.121  1.00  0.00     0.012 C 
HETATM   29  C   UNL     1      14.762  28.422 -11.880  1.00  0.00    -0.025 C 
HETATM   30  C   UNL     1      15.829  29.925  -9.837  1.00  0.00     0.001 C 
HETATM   31  C   UNL     1      15.548  28.579  -9.626  1.00  0.00     0.001 C 
HETATM   32  C   UNL     1      14.982  27.819 -10.645  1.00  0.00     0.012 C 
HETATM   33  C   UNL     1      14.072  27.758 -12.882  1.00  0.00     0.020 C 
ENDBRANCH  10  24
TORSDOF 1
ENDMDL
