MODEL 1
REMARK VINA RESULT:      -6.0      0.000      0.000
REMARK  2 active torsions:
REMARK  status: ('A' for Active; 'I' for Inactive)
REMARK    1  A    between atoms: C_2  and  C_19 
REMARK    2  A    between atoms: N_9  and  O_13 
ROOT
HETATM    1  C   UNL     1       8.116  44.796  16.867  1.00  0.00     0.091 C 
HETATM    2  O   UNL     1       9.379  44.687  20.537  1.00  0.00    -0.266 OA
HETATM    3  C   UNL     1       8.580  44.795  19.589  1.00  0.00     0.275 C 
HETATM    4  C   UNL     1       8.467  46.013  17.506  1.00  0.00     0.275 C 
HETATM    5  C   UNL     1       7.932  43.702  19.018  1.00  0.00     0.091 C 
HETATM    6  N   UNL     1       8.590  45.996  18.897  1.00  0.00    -0.149 N 
HETATM    7  O   UNL     1       8.541  47.100  16.940  1.00  0.00    -0.266 OA
HETATM    8  C   UNL     1       7.959  43.649  17.632  1.00  0.00     0.018 C 
ENDROOT
BRANCH   8   9
HETATM    9  C   UNL     1       7.896  42.289  17.080  1.00  0.00     0.186 C 
HETATM   10  P   UNL     1       9.047  41.656  15.879  1.00  0.00     0.320 P 
HETATM   11  O   UNL     1      10.060  42.630  15.446  1.00  0.00    -0.641 OA
HETATM   12  O   UNL     1       9.571  40.415  16.533  1.00  0.00    -0.641 OA
HETATM   13  O   UNL     1       8.023  41.342  14.681  1.00  0.00    -0.198 OA
HETATM   14  P   UNL     1       6.522  41.821  15.084  1.00  0.00     0.422 P 
HETATM   15  O   UNL     1       5.560  40.803  14.661  1.00  0.00    -0.624 OA
HETATM   16  O   UNL     1       6.330  43.219  14.578  1.00  0.00    -0.624 OA
HETATM   17  O   UNL     1       6.591  41.916  16.675  1.00  0.00    -0.237 OA
ENDBRANCH   8   9
BRANCH   6  18
HETATM   18  O   UNL     1       8.573  47.175  19.616  1.00  0.00    -0.277 OA
ATOM     19  HO  UNL     1       8.936  47.958  19.217  1.00  0.00     0.245 HD
ENDBRANCH   6  18
TORSDOF 2
ENDMDL
MODEL 2
REMARK VINA RESULT:      -5.7      2.078      3.253
REMARK  2 active torsions:
REMARK  status: ('A' for Active; 'I' for Inactive)
REMARK    1  A    between atoms: C_2  and  C_19 
REMARK    2  A    between atoms: N_9  and  O_13 
ROOT
HETATM    1  C   UNL     1       9.376  43.332  21.009  1.00  0.00     0.091 C 
HETATM    2  O   UNL     1       7.826  46.873  20.642  1.00  0.00    -0.266 OA
HETATM    3  C   UNL     1       8.634  45.940  20.486  1.00  0.00     0.275 C 
HETATM    4  C   UNL     1       9.797  44.358  21.893  1.00  0.00     0.275 C 
HETATM    5  C   UNL     1       8.506  44.990  19.475  1.00  0.00     0.091 C 
HETATM    6  N   UNL     1       9.494  45.675  21.541  1.00  0.00    -0.149 N 
HETATM    7  O   UNL     1      10.518  44.181  22.872  1.00  0.00    -0.266 OA
HETATM    8  C   UNL     1       8.652  43.670  19.875  1.00  0.00     0.018 C 
ENDROOT
BRANCH   8   9
HETATM    9  C   UNL     1       7.908  42.706  19.051  1.00  0.00     0.186 C 
HETATM   10  P   UNL     1       8.624  41.222  18.380  1.00  0.00     0.320 P 
HETATM   11  O   UNL     1      10.052  41.051  18.686  1.00  0.00    -0.641 OA
HETATM   12  O   UNL     1       7.714  40.146  18.887  1.00  0.00    -0.641 OA
HETATM   13  O   UNL     1       8.419  41.521  16.815  1.00  0.00    -0.198 OA
HETATM   14  P   UNL     1       7.780  43.002  16.604  1.00  0.00     0.422 P 
HETATM   15  O   UNL     1       6.746  42.940  15.572  1.00  0.00    -0.624 OA
HETATM   16  O   UNL     1       8.909  43.970  16.410  1.00  0.00    -0.624 OA
HETATM   17  O   UNL     1       7.144  43.324  18.031  1.00  0.00    -0.237 OA
ENDBRANCH   8   9
BRANCH   6  18
HETATM   18  O   UNL     1      10.158  46.730  22.136  1.00  0.00    -0.277 OA
ATOM     19  HO  UNL     1      10.046  46.872  23.068  1.00  0.00     0.245 HD
ENDBRANCH   6  18
TORSDOF 2
ENDMDL
MODEL 3
REMARK VINA RESULT:      -5.6      1.585      3.081
REMARK  2 active torsions:
REMARK  status: ('A' for Active; 'I' for Inactive)
REMARK    1  A    between atoms: C_2  and  C_19 
REMARK    2  A    between atoms: N_9  and  O_13 
ROOT
HETATM    1  C   UNL     1       8.476  43.128  18.954  1.00  0.00     0.091 C 
HETATM    2  O   UNL     1       8.224  46.893  19.868  1.00  0.00    -0.266 OA
HETATM    3  C   UNL     1       8.723  45.834  19.448  1.00  0.00     0.275 C 
HETATM    4  C   UNL     1       8.942  43.556  20.224  1.00  0.00     0.275 C 
HETATM    5  C   UNL     1       8.584  45.401  18.131  1.00  0.00     0.091 C 
HETATM    6  N   UNL     1       9.154  44.925  20.402  1.00  0.00    -0.149 N 
HETATM    7  O   UNL     1       9.292  42.802  21.128  1.00  0.00    -0.266 OA
HETATM    8  C   UNL     1       8.212  44.074  17.974  1.00  0.00     0.018 C 
ENDROOT
BRANCH   8   9
HETATM    9  C   UNL     1       7.455  43.802  16.744  1.00  0.00     0.186 C 
HETATM   10  P   UNL     1       7.321  42.189  16.004  1.00  0.00     0.320 P 
HETATM   11  O   UNL     1       8.072  41.139  16.710  1.00  0.00    -0.641 OA
HETATM   12  O   UNL     1       5.841  41.982  15.908  1.00  0.00    -0.641 OA
HETATM   13  O   UNL     1       7.998  42.501  14.581  1.00  0.00    -0.198 OA
HETATM   14  P   UNL     1       8.542  44.034  14.540  1.00  0.00     0.422 P 
HETATM   15  O   UNL     1       8.215  44.628  13.245  1.00  0.00    -0.624 OA
HETATM   16  O   UNL     1       9.979  44.028  14.968  1.00  0.00    -0.624 OA
HETATM   17  O   UNL     1       7.719  44.736  15.714  1.00  0.00    -0.237 OA
ENDBRANCH   8   9
BRANCH   6  18
HETATM   18  O   UNL     1       9.926  45.383  21.452  1.00  0.00    -0.277 OA
ATOM     19  HO  UNL     1       9.542  45.417  22.320  1.00  0.00     0.245 HD
ENDBRANCH   6  18
TORSDOF 2
ENDMDL
MODEL 4
REMARK VINA RESULT:      -5.2      1.642      2.515
REMARK  2 active torsions:
REMARK  status: ('A' for Active; 'I' for Inactive)
REMARK    1  A    between atoms: C_2  and  C_19 
REMARK    2  A    between atoms: N_9  and  O_13 
ROOT
HETATM    1  C   UNL     1       8.154  44.161  16.243  1.00  0.00     0.091 C 
HETATM    2  O   UNL     1       9.054  45.643  19.717  1.00  0.00    -0.266 OA
HETATM    3  C   UNL     1       8.357  45.340  18.732  1.00  0.00     0.275 C 
HETATM    4  C   UNL     1       8.518  45.530  16.329  1.00  0.00     0.275 C 
HETATM    5  C   UNL     1       7.698  44.117  18.620  1.00  0.00     0.091 C 
HETATM    6  N   UNL     1       8.508  46.119  17.596  1.00  0.00    -0.149 N 
HETATM    7  O   UNL     1       8.714  46.261  15.362  1.00  0.00    -0.266 OA
HETATM    8  C   UNL     1       7.853  43.466  17.405  1.00  0.00     0.018 C 
ENDROOT
BRANCH   8   9
HETATM    9  C   UNL     1       7.757  42.001  17.490  1.00  0.00     0.186 C 
HETATM   10  P   UNL     1       8.631  41.023  18.692  1.00  0.00     0.320 P 
HETATM   11  O   UNL     1       9.503  41.804  19.584  1.00  0.00    -0.641 OA
HETATM   12  O   UNL     1       7.537  40.249  19.361  1.00  0.00    -0.641 OA
HETATM   13  O   UNL     1       9.512  40.120  17.697  1.00  0.00    -0.198 OA
HETATM   14  P   UNL     1       9.268  40.578  16.156  1.00  0.00     0.422 P 
HETATM   15  O   UNL     1       9.150  39.390  15.311  1.00  0.00    -0.624 OA
HETATM   16  O   UNL     1      10.317  41.590  15.801  1.00  0.00    -0.624 OA
HETATM   17  O   UNL     1       7.882  41.365  16.232  1.00  0.00    -0.237 OA
ENDBRANCH   8   9
BRANCH   6  18
HETATM   18  O   UNL     1       8.497  47.494  17.728  1.00  0.00    -0.277 OA
ATOM     19  HO  UNL     1       7.708  47.915  18.048  1.00  0.00     0.245 HD
ENDBRANCH   6  18
TORSDOF 2
ENDMDL
MODEL 5
REMARK VINA RESULT:      -5.1      2.229      4.077
REMARK  2 active torsions:
REMARK  status: ('A' for Active; 'I' for Inactive)
REMARK    1  A    between atoms: C_2  and  C_19 
REMARK    2  A    between atoms: N_9  and  O_13 
ROOT
HETATM    1  C   UNL     1       8.226  43.546  17.812  1.00  0.00     0.091 C 
HETATM    2  O   UNL     1       8.247  46.365  20.481  1.00  0.00    -0.266 OA
HETATM    3  C   UNL     1       8.688  45.569  19.633  1.00  0.00     0.275 C 
HETATM    4  C   UNL     1       8.500  43.207  19.162  1.00  0.00     0.275 C 
HETATM    5  C   UNL     1       8.740  45.865  18.273  1.00  0.00     0.091 C 
HETATM    6  N   UNL     1       8.832  44.249  20.031  1.00  0.00    -0.149 N 
HETATM    7  O   UNL     1       8.592  42.059  19.587  1.00  0.00    -0.266 OA
HETATM    8  C   UNL     1       8.254  44.879  17.428  1.00  0.00     0.018 C 
ENDROOT
BRANCH   8   9
HETATM    9  C   UNL     1       7.706  45.386  16.162  1.00  0.00     0.186 C 
HETATM   10  P   UNL     1       7.712  44.461  14.642  1.00  0.00     0.320 P 
HETATM   11  O   UNL     1       8.355  43.142  14.743  1.00  0.00    -0.641 OA
HETATM   12  O   UNL     1       6.269  44.456  14.241  1.00  0.00    -0.641 OA
HETATM   13  O   UNL     1       8.603  45.451  13.742  1.00  0.00    -0.198 OA
HETATM   14  P   UNL     1       9.125  46.706  14.635  1.00  0.00     0.422 P 
HETATM   15  O   UNL     1       9.002  47.938  13.856  1.00  0.00    -0.624 OA
HETATM   16  O   UNL     1      10.476  46.355  15.182  1.00  0.00    -0.624 OA
HETATM   17  O   UNL     1       8.118  46.709  15.872  1.00  0.00    -0.237 OA
ENDBRANCH   8   9
BRANCH   6  18
HETATM   18  O   UNL     1       9.449  43.984  21.238  1.00  0.00    -0.277 OA
ATOM     19  HO  UNL     1       8.913  43.926  22.021  1.00  0.00     0.245 HD
ENDBRANCH   6  18
TORSDOF 2
ENDMDL
MODEL 6
REMARK VINA RESULT:      -5.0      2.816      5.192
REMARK  2 active torsions:
REMARK  status: ('A' for Active; 'I' for Inactive)
REMARK    1  A    between atoms: C_2  and  C_19 
REMARK    2  A    between atoms: N_9  and  O_13 
ROOT
HETATM    1  C   UNL     1       7.542  43.617  15.577  1.00  0.00     0.091 C 
HETATM    2  O   UNL     1       7.026  43.276  19.410  1.00  0.00    -0.266 OA
HETATM    3  C   UNL     1       7.616  43.266  18.315  1.00  0.00     0.275 C 
HETATM    4  C   UNL     1       7.244  42.338  16.116  1.00  0.00     0.275 C 
HETATM    5  C   UNL     1       8.210  44.401  17.767  1.00  0.00     0.091 C 
HETATM    6  N   UNL     1       7.394  42.172  17.495  1.00  0.00    -0.149 N 
HETATM    7  O   UNL     1       6.991  41.342  15.446  1.00  0.00    -0.266 OA
HETATM    8  C   UNL     1       7.919  44.642  16.432  1.00  0.00     0.018 C 
ENDROOT
BRANCH   8   9
HETATM    9  C   UNL     1       7.961  46.061  16.053  1.00  0.00     0.186 C 
HETATM   10  P   UNL     1       7.468  46.672  14.456  1.00  0.00     0.320 P 
HETATM   11  O   UNL     1       7.045  45.623  13.516  1.00  0.00    -0.641 OA
HETATM   12  O   UNL     1       6.437  47.705  14.791  1.00  0.00    -0.641 OA
HETATM   13  O   UNL     1       8.862  47.317  13.985  1.00  0.00    -0.198 OA
HETATM   14  P   UNL     1      10.018  47.030  15.093  1.00  0.00     0.422 P 
HETATM   15  O   UNL     1      10.820  48.239  15.280  1.00  0.00    -0.624 OA
HETATM   16  O   UNL     1      10.730  45.769  14.704  1.00  0.00    -0.624 OA
HETATM   17  O   UNL     1       9.178  46.693  16.407  1.00  0.00    -0.237 OA
ENDBRANCH   8   9
BRANCH   6  18
HETATM   18  O   UNL     1       7.475  40.906  18.043  1.00  0.00    -0.277 OA
ATOM     19  HO  UNL     1       7.307  40.156  17.484  1.00  0.00     0.245 HD
ENDBRANCH   6  18
TORSDOF 2
ENDMDL
MODEL 7
REMARK VINA RESULT:      -4.9      1.470      3.021
REMARK  2 active torsions:
REMARK  status: ('A' for Active; 'I' for Inactive)
REMARK    1  A    between atoms: C_2  and  C_19 
REMARK    2  A    between atoms: N_9  and  O_13 
ROOT
HETATM    1  C   UNL     1       8.126  43.454  17.359  1.00  0.00     0.091 C 
HETATM    2  O   UNL     1       8.152  47.301  16.839  1.00  0.00    -0.266 OA
HETATM    3  C   UNL     1       8.596  46.153  17.017  1.00  0.00     0.275 C 
HETATM    4  C   UNL     1       8.152  44.298  18.499  1.00  0.00     0.275 C 
HETATM    5  C   UNL     1       8.885  45.283  15.968  1.00  0.00     0.091 C 
HETATM    6  N   UNL     1       8.496  45.637  18.299  1.00  0.00    -0.149 N 
HETATM    7  O   UNL     1       8.021  43.909  19.656  1.00  0.00    -0.266 OA
HETATM    8  C   UNL     1       8.394  43.994  16.109  1.00  0.00     0.018 C 
ENDROOT
BRANCH   8   9
HETATM    9  C   UNL     1       8.111  43.314  14.837  1.00  0.00     0.186 C 
HETATM   10  P   UNL     1       7.023  43.968  13.589  1.00  0.00     0.320 P 
HETATM   11  O   UNL     1       6.388  45.244  13.954  1.00  0.00    -0.641 OA
HETATM   12  O   UNL     1       7.886  43.993  12.366  1.00  0.00    -0.641 OA
HETATM   13  O   UNL     1       5.932  42.789  13.555  1.00  0.00    -0.198 OA
HETATM   14  P   UNL     1       6.274  41.672  14.688  1.00  0.00     0.422 P 
HETATM   15  O   UNL     1       6.076  40.337  14.125  1.00  0.00    -0.624 OA
HETATM   16  O   UNL     1       5.518  42.028  15.933  1.00  0.00    -0.624 OA
HETATM   17  O   UNL     1       7.816  41.939  14.998  1.00  0.00    -0.237 OA
ENDBRANCH   8   9
BRANCH   6  18
HETATM   18  O   UNL     1       8.889  46.424  19.364  1.00  0.00    -0.277 OA
ATOM     19  HO  UNL     1       9.595  47.047  19.234  1.00  0.00     0.245 HD
ENDBRANCH   6  18
TORSDOF 2
ENDMDL
MODEL 8
REMARK VINA RESULT:      -4.9      1.214      3.206
REMARK  2 active torsions:
REMARK  status: ('A' for Active; 'I' for Inactive)
REMARK    1  A    between atoms: C_2  and  C_19 
REMARK    2  A    between atoms: N_9  and  O_13 
ROOT
HETATM    1  C   UNL     1       8.118  43.454  17.476  1.00  0.00     0.091 C 
HETATM    2  O   UNL     1       8.143  47.286  16.847  1.00  0.00    -0.266 OA
HETATM    3  C   UNL     1       8.588  46.142  17.050  1.00  0.00     0.275 C 
HETATM    4  C   UNL     1       8.166  44.330  18.592  1.00  0.00     0.275 C 
HETATM    5  C   UNL     1       8.856  45.242  16.021  1.00  0.00     0.091 C 
HETATM    6  N   UNL     1       8.511  45.662  18.348  1.00  0.00    -0.149 N 
HETATM    7  O   UNL     1       8.056  43.975  19.762  1.00  0.00    -0.266 OA
HETATM    8  C   UNL     1       8.364  43.958  16.207  1.00  0.00     0.018 C 
ENDROOT
BRANCH   8   9
HETATM    9  C   UNL     1       8.056  43.244  14.960  1.00  0.00     0.186 C 
HETATM   10  P   UNL     1       6.601  42.246  14.727  1.00  0.00     0.320 P 
HETATM   11  O   UNL     1       5.736  42.159  15.913  1.00  0.00    -0.641 OA
HETATM   12  O   UNL     1       5.975  42.840  13.503  1.00  0.00    -0.641 OA
HETATM   13  O   UNL     1       7.303  40.830  14.440  1.00  0.00    -0.198 OA
HETATM   14  P   UNL     1       8.917  40.961  14.591  1.00  0.00     0.422 P 
HETATM   15  O   UNL     1       9.565  40.224  13.506  1.00  0.00    -0.624 OA
HETATM   16  O   UNL     1       9.282  40.600  16.000  1.00  0.00    -0.624 OA
HETATM   17  O   UNL     1       9.164  42.530  14.443  1.00  0.00    -0.237 OA
ENDBRANCH   8   9
BRANCH   6  18
HETATM   18  O   UNL     1       8.925  46.479  19.382  1.00  0.00    -0.277 OA
ATOM     19  HO  UNL     1       8.434  47.272  19.561  1.00  0.00     0.245 HD
ENDBRANCH   6  18
TORSDOF 2
ENDMDL
MODEL 9
REMARK VINA RESULT:      -4.7      2.899      4.295
REMARK  2 active torsions:
REMARK  status: ('A' for Active; 'I' for Inactive)
REMARK    1  A    between atoms: C_2  and  C_19 
REMARK    2  A    between atoms: N_9  and  O_13 
ROOT
HETATM    1  C   UNL     1      10.176  44.231  20.812  1.00  0.00     0.091 C 
HETATM    2  O   UNL     1       8.903  47.162  23.017  1.00  0.00    -0.266 OA
HETATM    3  C   UNL     1       9.522  46.580  22.109  1.00  0.00     0.275 C 
HETATM    4  C   UNL     1      10.968  44.654  21.911  1.00  0.00     0.275 C 
HETATM    5  C   UNL     1       8.967  46.327  20.856  1.00  0.00     0.091 C 
HETATM    6  N   UNL     1      10.672  45.898  22.475  1.00  0.00    -0.149 N 
HETATM    7  O   UNL     1      11.969  44.069  22.315  1.00  0.00    -0.266 OA
HETATM    8  C   UNL     1       9.131  45.034  20.381  1.00  0.00     0.018 C 
ENDROOT
BRANCH   8   9
HETATM    9  C   UNL     1       8.066  44.587  19.471  1.00  0.00     0.186 C 
HETATM   10  P   UNL     1       8.000  42.961  18.751  1.00  0.00     0.320 P 
HETATM   11  O   UNL     1       9.134  42.097  19.113  1.00  0.00    -0.641 OA
HETATM   12  O   UNL     1       6.646  42.466  19.156  1.00  0.00    -0.641 OA
HETATM   13  O   UNL     1       8.075  43.363  17.198  1.00  0.00    -0.198 OA
HETATM   14  P   UNL     1       8.266  44.971  17.041  1.00  0.00     0.422 P 
HETATM   15  O   UNL     1       7.409  45.457  15.961  1.00  0.00    -0.624 OA
HETATM   16  O   UNL     1       9.736  45.257  16.953  1.00  0.00    -0.624 OA
HETATM   17  O   UNL     1       7.777  45.529  18.453  1.00  0.00    -0.237 OA
ENDBRANCH   8   9
BRANCH   6  18
HETATM   18  O   UNL     1      11.590  46.534  23.287  1.00  0.00    -0.277 OA
ATOM     19  HO  UNL     1      12.485  46.624  22.981  1.00  0.00     0.245 HD
ENDBRANCH   6  18
TORSDOF 2
ENDMDL
