MODEL 1
REMARK VINA RESULT:      -7.9      0.000      0.000
REMARK  4 active torsions:
REMARK  status: ('A' for Active; 'I' for Inactive)
REMARK    1  A    between atoms: O_1  and  C_16 
REMARK    2  A    between atoms: C_4  and  C_7 
REMARK    3  A    between atoms: C_4  and  C_9 
REMARK    4  A    between atoms: C_6  and  C_10 
ROOT
HETATM    1  C   UNL     1      17.174  37.846  36.167  1.00  0.00     0.006 C 
HETATM    2  C   UNL     1      16.938  40.010  35.162  1.00  0.00     0.035 C 
HETATM    3  C   UNL     1      16.942  38.541  34.881  1.00  0.00     0.189 C 
HETATM    4  C   UNL     1      17.153  40.198  36.667  1.00  0.00     0.090 C 
HETATM    5  C   UNL     1      18.580  40.661  36.945  1.00  0.00     0.051 C 
HETATM    6  C   UNL     1      16.892  38.819  37.289  1.00  0.00     0.086 C 
HETATM    7  O   UNL     1      16.822  38.029  33.798  1.00  0.00    -0.287 OA
ENDROOT
BRANCH   2   8
HETATM    8  C   UNL     1      16.053  40.943  34.343  1.00  0.00    -0.022 C 
HETATM    9  C   UNL     1      16.519  41.144  32.915  1.00  0.00     0.051 C 
BRANCH   8  10
HETATM   10  C   UNL     1      14.570  40.801  34.455  1.00  0.00     0.038 C 
HETATM   11  C   UNL     1      13.821  39.867  33.742  1.00  0.00     0.030 C 
HETATM   12  C   UNL     1      12.542  39.530  34.196  1.00  0.00     0.004 C 
HETATM   13  C   UNL     1      12.032  40.187  35.316  1.00  0.00     0.017 C 
HETATM   14  C   UNL     1      12.772  41.220  35.887  1.00  0.00     0.088 C 
HETATM   15  N   UNL     1      13.941  41.628  35.328  1.00  0.00    -0.365 N 
ATOM     16  HN  UNL     1      14.338  42.538  35.561  1.00  0.00     0.165 HD
ENDBRANCH   8  10
ENDBRANCH   2   8
BRANCH   4  17
HETATM   17  O   UNL     1      16.219  41.129  37.218  1.00  0.00    -0.385 OA
ATOM     18  HO  UNL     1      16.517  41.469  38.054  1.00  0.00     0.211 HD
ENDBRANCH   4  17
BRANCH   1  19
HETATM   19  C   UNL     1      17.606  36.426  36.318  1.00  0.00    -0.026 C 
HETATM   20  C   UNL     1      18.800  35.995  35.735  1.00  0.00     0.012 C 
HETATM   21  C   UNL     1      19.042  34.637  35.544  1.00  0.00     0.001 C 
HETATM   22  C   UNL     1      18.105  33.697  35.970  1.00  0.00     0.000 C 
HETATM   23  C   UNL     1      16.993  34.118  36.693  1.00  0.00     0.001 C 
HETATM   24  C   UNL     1      16.800  35.478  36.961  1.00  0.00     0.012 C 
ENDBRANCH   1  19
TORSDOF 4
ENDMDL
MODEL 2
REMARK VINA RESULT:      -7.7      2.307      6.281
REMARK  4 active torsions:
REMARK  status: ('A' for Active; 'I' for Inactive)
REMARK    1  A    between atoms: O_1  and  C_16 
REMARK    2  A    between atoms: C_4  and  C_7 
REMARK    3  A    between atoms: C_4  and  C_9 
REMARK    4  A    between atoms: C_6  and  C_10 
ROOT
HETATM    1  C   UNL     1      16.094  39.335  35.965  1.00  0.00     0.006 C 
HETATM    2  C   UNL     1      17.402  38.146  37.584  1.00  0.00     0.035 C 
HETATM    3  C   UNL     1      16.052  38.228  36.946  1.00  0.00     0.189 C 
HETATM    4  C   UNL     1      18.284  39.225  36.948  1.00  0.00     0.090 C 
HETATM    5  C   UNL     1      18.461  40.400  37.907  1.00  0.00     0.051 C 
HETATM    6  C   UNL     1      17.542  39.659  35.678  1.00  0.00     0.086 C 
HETATM    7  O   UNL     1      15.100  37.544  37.219  1.00  0.00    -0.287 OA
ENDROOT
BRANCH   2   8
HETATM    8  C   UNL     1      17.957  36.798  38.030  1.00  0.00    -0.022 C 
HETATM    9  C   UNL     1      17.645  36.445  39.471  1.00  0.00     0.051 C 
BRANCH   8  10
HETATM   10  C   UNL     1      17.827  35.632  37.106  1.00  0.00     0.038 C 
HETATM   11  C   UNL     1      18.676  35.395  36.026  1.00  0.00     0.030 C 
HETATM   12  C   UNL     1      18.741  34.109  35.480  1.00  0.00     0.004 C 
HETATM   13  C   UNL     1      17.906  33.118  35.995  1.00  0.00     0.017 C 
HETATM   14  C   UNL     1      16.972  33.462  36.970  1.00  0.00     0.088 C 
HETATM   15  N   UNL     1      16.827  34.752  37.368  1.00  0.00    -0.365 N 
ATOM     16  HN  UNL     1      15.983  35.055  37.855  1.00  0.00     0.165 HD
ENDBRANCH   8  10
ENDBRANCH   2   8
BRANCH   4  17
HETATM   17  O   UNL     1      19.561  38.704  36.572  1.00  0.00    -0.385 OA
ATOM     18  HO  UNL     1      20.244  38.988  37.169  1.00  0.00     0.211 HD
ENDBRANCH   4  17
BRANCH   1  19
HETATM   19  C   UNL     1      14.903  40.004  35.363  1.00  0.00    -0.026 C 
HETATM   20  C   UNL     1      14.299  41.076  36.024  1.00  0.00     0.012 C 
HETATM   21  C   UNL     1      13.005  41.472  35.691  1.00  0.00     0.001 C 
HETATM   22  C   UNL     1      12.321  40.820  34.665  1.00  0.00     0.000 C 
HETATM   23  C   UNL     1      12.982  39.862  33.903  1.00  0.00     0.001 C 
HETATM   24  C   UNL     1      14.312  39.532  34.185  1.00  0.00     0.012 C 
ENDBRANCH   1  19
TORSDOF 4
ENDMDL
MODEL 3
REMARK VINA RESULT:      -7.2      2.653      6.776
REMARK  4 active torsions:
REMARK  status: ('A' for Active; 'I' for Inactive)
REMARK    1  A    between atoms: O_1  and  C_16 
REMARK    2  A    between atoms: C_4  and  C_7 
REMARK    3  A    between atoms: C_4  and  C_9 
REMARK    4  A    between atoms: C_6  and  C_10 
ROOT
HETATM    1  C   UNL     1      15.637  38.634  35.944  1.00  0.00     0.006 C 
HETATM    2  C   UNL     1      17.092  36.729  35.967  1.00  0.00     0.035 C 
HETATM    3  C   UNL     1      16.686  37.931  35.173  1.00  0.00     0.189 C 
HETATM    4  C   UNL     1      16.275  36.727  37.262  1.00  0.00     0.090 C 
HETATM    5  C   UNL     1      15.169  35.677  37.189  1.00  0.00     0.051 C 
HETATM    6  C   UNL     1      15.686  38.139  37.372  1.00  0.00     0.086 C 
HETATM    7  O   UNL     1      17.109  38.236  34.089  1.00  0.00    -0.287 OA
ENDROOT
BRANCH   2   8
HETATM    8  C   UNL     1      18.531  36.226  35.910  1.00  0.00    -0.022 C 
HETATM    9  C   UNL     1      19.554  37.216  36.429  1.00  0.00     0.051 C 
BRANCH   8  10
HETATM   10  C   UNL     1      18.812  34.823  36.336  1.00  0.00     0.038 C 
HETATM   11  C   UNL     1      19.549  34.486  37.471  1.00  0.00     0.030 C 
HETATM   12  C   UNL     1      19.420  33.202  38.010  1.00  0.00     0.004 C 
HETATM   13  C   UNL     1      18.603  32.278  37.359  1.00  0.00     0.017 C 
HETATM   14  C   UNL     1      18.019  32.634  36.145  1.00  0.00     0.088 C 
HETATM   15  N   UNL     1      18.289  33.833  35.568  1.00  0.00    -0.365 N 
ATOM     16  HN  UNL     1      18.102  33.988  34.577  1.00  0.00     0.165 HD
ENDBRANCH   8  10
ENDBRANCH   2   8
BRANCH   4  17
HETATM   17  O   UNL     1      17.102  36.489  38.403  1.00  0.00    -0.385 OA
ATOM     18  HO  UNL     1      17.993  36.782  38.256  1.00  0.00     0.211 HD
ENDBRANCH   4  17
BRANCH   1  19
HETATM   19  C   UNL     1      14.700  39.659  35.397  1.00  0.00    -0.026 C 
HETATM   20  C   UNL     1      14.529  40.874  36.064  1.00  0.00     0.012 C 
HETATM   21  C   UNL     1      13.423  41.676  35.796  1.00  0.00     0.001 C 
HETATM   22  C   UNL     1      12.497  41.284  34.830  1.00  0.00     0.000 C 
HETATM   23  C   UNL     1      12.752  40.157  34.055  1.00  0.00     0.001 C 
HETATM   24  C   UNL     1      13.912  39.404  34.267  1.00  0.00     0.012 C 
ENDBRANCH   1  19
TORSDOF 4
ENDMDL
MODEL 4
REMARK VINA RESULT:      -7.1      1.907      2.847
REMARK  4 active torsions:
REMARK  status: ('A' for Active; 'I' for Inactive)
REMARK    1  A    between atoms: O_1  and  C_16 
REMARK    2  A    between atoms: C_4  and  C_7 
REMARK    3  A    between atoms: C_4  and  C_9 
REMARK    4  A    between atoms: C_6  and  C_10 
ROOT
HETATM    1  C   UNL     1      18.068  36.554  36.674  1.00  0.00     0.006 C 
HETATM    2  C   UNL     1      16.376  38.209  36.293  1.00  0.00     0.035 C 
HETATM    3  C   UNL     1      16.773  37.067  37.173  1.00  0.00     0.189 C 
HETATM    4  C   UNL     1      17.480  38.398  35.248  1.00  0.00     0.090 C 
HETATM    5  C   UNL     1      17.028  37.857  33.894  1.00  0.00     0.051 C 
HETATM    6  C   UNL     1      18.683  37.608  35.781  1.00  0.00     0.086 C 
HETATM    7  O   UNL     1      16.129  36.625  38.089  1.00  0.00    -0.287 OA
ENDROOT
BRANCH   2   8
HETATM    8  C   UNL     1      15.590  39.382  36.869  1.00  0.00    -0.022 C 
HETATM    9  C   UNL     1      16.454  40.540  37.328  1.00  0.00     0.051 C 
BRANCH   8  10
HETATM   10  C   UNL     1      14.352  39.825  36.163  1.00  0.00     0.038 C 
HETATM   11  C   UNL     1      13.920  41.150  36.104  1.00  0.00     0.030 C 
HETATM   12  C   UNL     1      13.010  41.526  35.111  1.00  0.00     0.004 C 
HETATM   13  C   UNL     1      12.517  40.550  34.246  1.00  0.00     0.017 C 
HETATM   14  C   UNL     1      12.872  39.219  34.460  1.00  0.00     0.088 C 
HETATM   15  N   UNL     1      13.632  38.865  35.528  1.00  0.00    -0.365 N 
ATOM     16  HN  UNL     1      13.662  37.897  35.847  1.00  0.00     0.165 HD
ENDBRANCH   8  10
ENDBRANCH   2   8
BRANCH   4  17
HETATM   17  O   UNL     1      17.857  39.771  35.125  1.00  0.00    -0.385 OA
ATOM     18  HO  UNL     1      18.668  39.953  35.586  1.00  0.00     0.211 HD
ENDBRANCH   4  17
BRANCH   1  19
HETATM   19  C   UNL     1      18.660  35.225  37.007  1.00  0.00    -0.026 C 
HETATM   20  C   UNL     1      18.159  34.069  36.404  1.00  0.00     0.012 C 
HETATM   21  C   UNL     1      18.426  32.816  36.951  1.00  0.00     0.001 C 
HETATM   22  C   UNL     1      19.229  32.709  38.086  1.00  0.00     0.000 C 
HETATM   23  C   UNL     1      19.856  33.844  38.590  1.00  0.00     0.001 C 
HETATM   24  C   UNL     1      19.656  35.088  37.982  1.00  0.00     0.012 C 
ENDBRANCH   1  19
TORSDOF 4
ENDMDL
MODEL 5
REMARK VINA RESULT:      -6.9      2.183      2.789
REMARK  4 active torsions:
REMARK  status: ('A' for Active; 'I' for Inactive)
REMARK    1  A    between atoms: O_1  and  C_16 
REMARK    2  A    between atoms: C_4  and  C_7 
REMARK    3  A    between atoms: C_4  and  C_9 
REMARK    4  A    between atoms: C_6  and  C_10 
ROOT
HETATM    1  C   UNL     1      17.430  36.733  37.278  1.00  0.00     0.006 C 
HETATM    2  C   UNL     1      16.390  38.623  36.234  1.00  0.00     0.035 C 
HETATM    3  C   UNL     1      17.707  37.985  36.541  1.00  0.00     0.189 C 
HETATM    4  C   UNL     1      15.290  37.712  36.787  1.00  0.00     0.090 C 
HETATM    5  C   UNL     1      14.706  38.303  38.068  1.00  0.00     0.051 C 
HETATM    6  C   UNL     1      15.978  36.369  37.066  1.00  0.00     0.086 C 
HETATM    7  O   UNL     1      18.790  38.437  36.272  1.00  0.00    -0.287 OA
ENDROOT
BRANCH   2   8
HETATM    8  C   UNL     1      16.211  39.431  34.953  1.00  0.00    -0.022 C 
HETATM    9  C   UNL     1      16.654  38.708  33.697  1.00  0.00     0.051 C 
BRANCH   8  10
HETATM   10  C   UNL     1      14.942  40.197  34.764  1.00  0.00     0.038 C 
HETATM   11  C   UNL     1      14.069  40.007  33.694  1.00  0.00     0.030 C 
HETATM   12  C   UNL     1      12.748  40.452  33.806  1.00  0.00     0.004 C 
HETATM   13  C   UNL     1      12.362  41.128  34.963  1.00  0.00     0.017 C 
HETATM   14  C   UNL     1      13.326  41.419  35.927  1.00  0.00     0.088 C 
HETATM   15  N   UNL     1      14.632  41.111  35.718  1.00  0.00    -0.365 N 
ATOM     16  HN  UNL     1      15.365  41.558  36.269  1.00  0.00     0.165 HD
ENDBRANCH   8  10
ENDBRANCH   2   8
BRANCH   4  17
HETATM   17  O   UNL     1      14.252  37.501  35.828  1.00  0.00    -0.385 OA
ATOM     18  HO  UNL     1      13.490  37.093  36.222  1.00  0.00     0.211 HD
ENDBRANCH   4  17
BRANCH   1  19
HETATM   19  C   UNL     1      18.423  35.965  38.085  1.00  0.00    -0.026 C 
HETATM   20  C   UNL     1      18.672  36.327  39.411  1.00  0.00     0.012 C 
HETATM   21  C   UNL     1      19.823  35.885  40.059  1.00  0.00     0.001 C 
HETATM   22  C   UNL     1      20.717  35.046  39.394  1.00  0.00     0.000 C 
HETATM   23  C   UNL     1      20.388  34.559  38.132  1.00  0.00     0.001 C 
HETATM   24  C   UNL     1      19.186  34.934  37.523  1.00  0.00     0.012 C 
ENDBRANCH   1  19
TORSDOF 4
ENDMDL
MODEL 6
REMARK VINA RESULT:      -6.8      3.359      6.966
REMARK  4 active torsions:
REMARK  status: ('A' for Active; 'I' for Inactive)
REMARK    1  A    between atoms: O_1  and  C_16 
REMARK    2  A    between atoms: C_4  and  C_7 
REMARK    3  A    between atoms: C_4  and  C_9 
REMARK    4  A    between atoms: C_6  and  C_10 
ROOT
HETATM    1  C   UNL     1      15.642  39.031  36.399  1.00  0.00     0.006 C 
HETATM    2  C   UNL     1      17.164  38.110  38.005  1.00  0.00     0.035 C 
HETATM    3  C   UNL     1      15.722  38.189  37.613  1.00  0.00     0.189 C 
HETATM    4  C   UNL     1      17.971  38.912  36.981  1.00  0.00     0.090 C 
HETATM    5  C   UNL     1      18.406  40.249  37.577  1.00  0.00     0.051 C 
HETATM    6  C   UNL     1      17.024  39.123  35.793  1.00  0.00     0.086 C 
HETATM    7  O   UNL     1      14.801  37.693  38.207  1.00  0.00    -0.287 OA
ENDROOT
BRANCH   2   8
HETATM    8  C   UNL     1      17.708  36.847  38.664  1.00  0.00    -0.022 C 
HETATM    9  C   UNL     1      17.579  35.599  37.812  1.00  0.00     0.051 C 
BRANCH   8  10
HETATM   10  C   UNL     1      19.014  36.925  39.385  1.00  0.00     0.038 C 
HETATM   11  C   UNL     1      19.291  37.842  40.398  1.00  0.00     0.030 C 
HETATM   12  C   UNL     1      20.350  37.588  41.275  1.00  0.00     0.004 C 
HETATM   13  C   UNL     1      21.134  36.453  41.071  1.00  0.00     0.017 C 
HETATM   14  C   UNL     1      20.897  35.663  39.948  1.00  0.00     0.088 C 
HETATM   15  N   UNL     1      19.964  36.022  39.030  1.00  0.00    -0.365 N 
ATOM     16  HN  UNL     1      19.976  35.622  38.092  1.00  0.00     0.165 HD
ENDBRANCH   8  10
ENDBRANCH   2   8
BRANCH   4  17
HETATM   17  O   UNL     1      19.114  38.184  36.527  1.00  0.00    -0.385 OA
ATOM     18  HO  UNL     1      18.878  37.313  36.228  1.00  0.00     0.211 HD
ENDBRANCH   4  17
BRANCH   1  19
HETATM   19  C   UNL     1      14.401  39.671  35.869  1.00  0.00    -0.026 C 
HETATM   20  C   UNL     1      13.496  38.918  35.119  1.00  0.00     0.012 C 
HETATM   21  C   UNL     1      12.545  39.549  34.320  1.00  0.00     0.001 C 
HETATM   22  C   UNL     1      12.471  40.942  34.296  1.00  0.00     0.000 C 
HETATM   23  C   UNL     1      13.266  41.684  35.164  1.00  0.00     0.001 C 
HETATM   24  C   UNL     1      14.156  41.040  36.030  1.00  0.00     0.012 C 
ENDBRANCH   1  19
TORSDOF 4
ENDMDL
MODEL 7
REMARK VINA RESULT:      -6.7      2.322      3.097
REMARK  4 active torsions:
REMARK  status: ('A' for Active; 'I' for Inactive)
REMARK    1  A    between atoms: O_1  and  C_16 
REMARK    2  A    between atoms: C_4  and  C_7 
REMARK    3  A    between atoms: C_4  and  C_9 
REMARK    4  A    between atoms: C_6  and  C_10 
ROOT
HETATM    1  C   UNL     1      15.922  37.259  37.571  1.00  0.00     0.006 C 
HETATM    2  C   UNL     1      16.420  38.318  35.479  1.00  0.00     0.035 C 
HETATM    3  C   UNL     1      15.308  37.823  36.349  1.00  0.00     0.189 C 
HETATM    4  C   UNL     1      17.738  38.060  36.215  1.00  0.00     0.090 C 
HETATM    5  C   UNL     1      18.465  36.867  35.599  1.00  0.00     0.051 C 
HETATM    6  C   UNL     1      17.341  37.770  37.668  1.00  0.00     0.086 C 
HETATM    7  O   UNL     1      14.136  37.845  36.077  1.00  0.00    -0.287 OA
ENDROOT
BRANCH   2   8
HETATM    8  C   UNL     1      16.209  39.537  34.588  1.00  0.00    -0.022 C 
HETATM    9  C   UNL     1      16.740  39.373  33.178  1.00  0.00     0.051 C 
BRANCH   8  10
HETATM   10  C   UNL     1      14.889  40.235  34.634  1.00  0.00     0.038 C 
HETATM   11  C   UNL     1      13.883  40.061  33.686  1.00  0.00     0.030 C 
HETATM   12  C   UNL     1      12.570  40.417  34.012  1.00  0.00     0.004 C 
HETATM   13  C   UNL     1      12.320  40.992  35.258  1.00  0.00     0.017 C 
HETATM   14  C   UNL     1      13.396  41.279  36.096  1.00  0.00     0.088 C 
HETATM   15  N   UNL     1      14.672  41.065  35.686  1.00  0.00    -0.365 N 
ATOM     16  HN  UNL     1      15.453  41.519  36.159  1.00  0.00     0.165 HD
ENDBRANCH   8  10
ENDBRANCH   2   8
BRANCH   4  17
HETATM   17  O   UNL     1      18.584  39.212  36.195  1.00  0.00    -0.385 OA
ATOM     18  HO  UNL     1      19.469  38.990  35.933  1.00  0.00     0.211 HD
ENDBRANCH   4  17
BRANCH   1  19
HETATM   19  C   UNL     1      15.244  36.346  38.539  1.00  0.00    -0.026 C 
HETATM   20  C   UNL     1      15.312  34.963  38.356  1.00  0.00     0.012 C 
HETATM   21  C   UNL     1      14.411  34.121  39.003  1.00  0.00     0.001 C 
HETATM   22  C   UNL     1      13.458  34.656  39.870  1.00  0.00     0.000 C 
HETATM   23  C   UNL     1      13.496  36.014  40.173  1.00  0.00     0.001 C 
HETATM   24  C   UNL     1      14.461  36.841  39.589  1.00  0.00     0.012 C 
ENDBRANCH   1  19
TORSDOF 4
ENDMDL
MODEL 8
REMARK VINA RESULT:      -6.5      2.889      6.423
REMARK  4 active torsions:
REMARK  status: ('A' for Active; 'I' for Inactive)
REMARK    1  A    between atoms: O_1  and  C_16 
REMARK    2  A    between atoms: C_4  and  C_7 
REMARK    3  A    between atoms: C_4  and  C_9 
REMARK    4  A    between atoms: C_6  and  C_10 
ROOT
HETATM    1  C   UNL     1      16.929  37.894  36.164  1.00  0.00     0.006 C 
HETATM    2  C   UNL     1      17.198  36.655  38.199  1.00  0.00     0.035 C 
HETATM    3  C   UNL     1      16.207  37.066  37.156  1.00  0.00     0.189 C 
HETATM    4  C   UNL     1      18.558  37.239  37.805  1.00  0.00     0.090 C 
HETATM    5  C   UNL     1      18.893  38.443  38.684  1.00  0.00     0.051 C 
HETATM    6  C   UNL     1      18.411  37.656  36.336  1.00  0.00     0.086 C 
HETATM    7  O   UNL     1      15.033  36.803  37.156  1.00  0.00    -0.287 OA
ENDROOT
BRANCH   2   8
HETATM    8  C   UNL     1      17.062  35.305  38.894  1.00  0.00    -0.022 C 
HETATM    9  C   UNL     1      16.085  35.301  40.053  1.00  0.00     0.051 C 
BRANCH   8  10
HETATM   10  C   UNL     1      16.968  34.075  38.052  1.00  0.00     0.038 C 
HETATM   11  C   UNL     1      15.789  33.360  37.847  1.00  0.00     0.030 C 
HETATM   12  C   UNL     1      15.701  32.493  36.753  1.00  0.00     0.004 C 
HETATM   13  C   UNL     1      16.818  32.327  35.935  1.00  0.00     0.017 C 
HETATM   14  C   UNL     1      18.011  32.954  36.288  1.00  0.00     0.088 C 
HETATM   15  N   UNL     1      18.108  33.663  37.442  1.00  0.00    -0.365 N 
ATOM     16  HN  UNL     1      19.020  33.882  37.843  1.00  0.00     0.165 HD
ENDBRANCH   8  10
ENDBRANCH   2   8
BRANCH   4  17
HETATM   17  O   UNL     1      19.596  36.261  37.899  1.00  0.00    -0.385 OA
ATOM     18  HO  UNL     1      20.455  36.651  37.782  1.00  0.00     0.211 HD
ENDBRANCH   4  17
BRANCH   1  19
HETATM   19  C   UNL     1      16.290  38.801  35.165  1.00  0.00    -0.026 C 
HETATM   20  C   UNL     1      16.791  38.867  33.864  1.00  0.00     0.012 C 
HETATM   21  C   UNL     1      16.469  39.941  33.037  1.00  0.00     0.001 C 
HETATM   22  C   UNL     1      15.609  40.939  33.496  1.00  0.00     0.000 C 
HETATM   23  C   UNL     1      14.986  40.789  34.731  1.00  0.00     0.001 C 
HETATM   24  C   UNL     1      15.245  39.663  35.520  1.00  0.00     0.012 C 
ENDBRANCH   1  19
TORSDOF 4
ENDMDL
MODEL 9
REMARK VINA RESULT:      -6.5      3.191      7.385
REMARK  4 active torsions:
REMARK  status: ('A' for Active; 'I' for Inactive)
REMARK    1  A    between atoms: O_1  and  C_16 
REMARK    2  A    between atoms: C_4  and  C_7 
REMARK    3  A    between atoms: C_4  and  C_9 
REMARK    4  A    between atoms: C_6  and  C_10 
ROOT
HETATM    1  C   UNL     1      16.366  37.402  36.534  1.00  0.00     0.006 C 
HETATM    2  C   UNL     1      17.331  35.210  36.614  1.00  0.00     0.035 C 
HETATM    3  C   UNL     1      17.262  36.472  35.814  1.00  0.00     0.189 C 
HETATM    4  C   UNL     1      16.466  35.402  37.863  1.00  0.00     0.090 C 
HETATM    5  C   UNL     1      15.150  34.640  37.719  1.00  0.00     0.051 C 
HETATM    6  C   UNL     1      16.218  36.913  37.957  1.00  0.00     0.086 C 
HETATM    7  O   UNL     1      17.804  36.667  34.757  1.00  0.00    -0.287 OA
ENDROOT
BRANCH   2   8
HETATM    8  C   UNL     1      18.613  34.383  36.630  1.00  0.00    -0.022 C 
HETATM    9  C   UNL     1      19.789  35.076  37.291  1.00  0.00     0.051 C 
BRANCH   8  10
HETATM   10  C   UNL     1      18.522  32.934  36.979  1.00  0.00     0.038 C 
HETATM   11  C   UNL     1      18.170  31.935  36.073  1.00  0.00     0.030 C 
HETATM   12  C   UNL     1      18.500  30.607  36.360  1.00  0.00     0.004 C 
HETATM   13  C   UNL     1      19.119  30.317  37.576  1.00  0.00     0.017 C 
HETATM   14  C   UNL     1      19.302  31.342  38.501  1.00  0.00     0.088 C 
HETATM   15  N   UNL     1      18.829  32.592  38.256  1.00  0.00    -0.365 N 
ATOM     16  HN  UNL     1      18.707  33.260  39.017  1.00  0.00     0.165 HD
ENDBRANCH   8  10
ENDBRANCH   2   8
BRANCH   4  17
HETATM   17  O   UNL     1      17.149  34.979  39.045  1.00  0.00    -0.385 OA
ATOM     18  HO  UNL     1      18.092  35.015  38.935  1.00  0.00     0.211 HD
ENDBRANCH   4  17
BRANCH   1  19
HETATM   19  C   UNL     1      15.727  38.617  35.948  1.00  0.00    -0.026 C 
HETATM   20  C   UNL     1      14.337  38.681  35.821  1.00  0.00     0.012 C 
HETATM   21  C   UNL     1      13.749  39.609  34.965  1.00  0.00     0.001 C 
HETATM   22  C   UNL     1      14.548  40.507  34.258  1.00  0.00     0.000 C 
HETATM   23  C   UNL     1      15.916  40.548  34.507  1.00  0.00     0.001 C 
HETATM   24  C   UNL     1      16.490  39.673  35.435  1.00  0.00     0.012 C 
ENDBRANCH   1  19
TORSDOF 4
ENDMDL
