MODEL 1
REMARK VINA RESULT:      -4.4      0.000      0.000
REMARK  1 active torsions:
REMARK  status: ('A' for Active; 'I' for Inactive)
REMARK    1  A    between atoms: C_7  and  O_13 
ROOT
HETATM    1  C   UNL     1       9.038   1.128  28.972  1.00  0.00     0.221 C 
HETATM    2  C   UNL     1      10.204  -0.746  27.898  1.00  0.00     0.225 C 
HETATM    3  C   UNL     1      10.126   0.094  29.167  1.00  0.00     0.138 C 
HETATM    4  N   UNL     1       9.144   1.850  27.800  1.00  0.00    -0.333 N 
ATOM      5  HN  UNL     1       9.142   2.870  27.793  1.00  0.00     0.164 HD
HETATM    6  C   UNL     1      11.526   0.119  25.929  1.00  0.00     0.037 C 
HETATM    7  C   UNL     1      11.597  -0.486  27.317  1.00  0.00     0.149 C 
HETATM    8  C   UNL     1      10.629   1.354  25.951  1.00  0.00     0.057 C 
HETATM    9  O   UNL     1       8.114   1.242  29.773  1.00  0.00    -0.274 OA
HETATM   10  N   UNL     1       9.162  -0.371  26.920  1.00  0.00    -0.047 N 
ATOM     11  HN1 UNL     1       8.229  -0.610  27.256  1.00  0.00     0.280 HD
ATOM     12  HN2 UNL     1       9.189  -0.969  26.094  1.00  0.00     0.280 HD
HETATM   13  C   UNL     1       9.259   1.058  26.557  1.00  0.00     0.287 C 
ENDROOT
BRANCH   7  14
HETATM   14  O   UNL     1      12.386  -1.653  27.326  1.00  0.00    -0.393 OA
ATOM     15  HO  UNL     1      12.256  -2.167  26.539  1.00  0.00     0.210 HD
ENDBRANCH   7  14
TORSDOF 1
ENDMDL
MODEL 2
REMARK VINA RESULT:      -4.3      1.952      2.245
REMARK  1 active torsions:
REMARK  status: ('A' for Active; 'I' for Inactive)
REMARK    1  A    between atoms: C_7  and  O_13 
ROOT
HETATM    1  C   UNL     1       9.344   1.751  26.191  1.00  0.00     0.221 C 
HETATM    2  C   UNL     1      10.376  -0.461  26.443  1.00  0.00     0.225 C 
HETATM    3  C   UNL     1       9.725   0.689  27.200  1.00  0.00     0.138 C 
HETATM    4  N   UNL     1      10.366   2.118  25.339  1.00  0.00    -0.333 N 
ATOM      5  HN  UNL     1      10.640   3.093  25.212  1.00  0.00     0.164 HD
HETATM    6  C   UNL     1      12.822  -0.309  25.838  1.00  0.00     0.037 C 
HETATM    7  C   UNL     1      11.818  -0.527  26.953  1.00  0.00     0.149 C 
HETATM    8  C   UNL     1      12.492   0.981  25.093  1.00  0.00     0.057 C 
HETATM    9  O   UNL     1       8.196   2.180  26.117  1.00  0.00    -0.274 OA
HETATM   10  N   UNL     1      10.358  -0.244  24.981  1.00  0.00    -0.047 N 
ATOM     11  HN1 UNL     1       9.408  -0.276  24.609  1.00  0.00     0.280 HD
ATOM     12  HN2 UNL     1      10.750  -1.040  24.478  1.00  0.00     0.280 HD
HETATM   13  C   UNL     1      11.040   1.016  24.620  1.00  0.00     0.287 C 
ENDROOT
BRANCH   7  14
HETATM   14  O   UNL     1      12.069  -1.731  27.639  1.00  0.00    -0.393 OA
ATOM     15  HO  UNL     1      12.867  -1.681  28.151  1.00  0.00     0.210 HD
ENDBRANCH   7  14
TORSDOF 1
ENDMDL
MODEL 3
REMARK VINA RESULT:      -4.3      1.752      3.891
REMARK  1 active torsions:
REMARK  status: ('A' for Active; 'I' for Inactive)
REMARK    1  A    between atoms: C_7  and  O_13 
ROOT
HETATM    1  C   UNL     1      12.410  -0.464  26.693  1.00  0.00     0.221 C 
HETATM    2  C   UNL     1      10.242   0.412  25.949  1.00  0.00     0.225 C 
HETATM    3  C   UNL     1      11.747   0.643  25.902  1.00  0.00     0.138 C 
HETATM    4  N   UNL     1      11.888  -0.651  27.957  1.00  0.00    -0.333 N 
ATOM      5  HN  UNL     1      12.478  -0.659  28.789  1.00  0.00     0.164 HD
HETATM    6  C   UNL     1       8.937   1.209  27.957  1.00  0.00     0.037 C 
HETATM    7  C   UNL     1       9.663   1.620  26.691  1.00  0.00     0.149 C 
HETATM    8  C   UNL     1       9.851   0.340  28.816  1.00  0.00     0.057 C 
HETATM    9  O   UNL     1      13.290  -1.165  26.199  1.00  0.00    -0.274 OA
HETATM   10  N   UNL     1       9.894  -0.839  26.654  1.00  0.00    -0.047 N 
ATOM     11  HN1 UNL     1      10.203  -1.661  26.134  1.00  0.00     0.280 HD
ATOM     12  HN2 UNL     1       8.890  -1.012  26.638  1.00  0.00     0.280 HD
HETATM   13  C   UNL     1      10.424  -0.839  28.034  1.00  0.00     0.287 C 
ENDROOT
BRANCH   7  14
HETATM   14  O   UNL     1       8.835   2.392  25.853  1.00  0.00    -0.393 OA
ATOM     15  HO  UNL     1       9.329   2.793  25.149  1.00  0.00     0.210 HD
ENDBRANCH   7  14
TORSDOF 1
ENDMDL
MODEL 4
REMARK VINA RESULT:      -4.2      4.471      5.812
REMARK  1 active torsions:
REMARK  status: ('A' for Active; 'I' for Inactive)
REMARK    1  A    between atoms: C_7  and  O_13 
ROOT
HETATM    1  C   UNL     1       4.362   0.569  31.194  1.00  0.00     0.221 C 
HETATM    2  C   UNL     1       6.246   1.988  30.514  1.00  0.00     0.225 C 
HETATM    3  C   UNL     1       5.002   1.265  30.012  1.00  0.00     0.138 C 
HETATM    4  N   UNL     1       5.230  -0.208  31.934  1.00  0.00    -0.333 N 
ATOM      5  HN  UNL     1       5.032  -1.186  32.146  1.00  0.00     0.164 HD
HETATM    6  C   UNL     1       8.397   0.695  30.782  1.00  0.00     0.037 C 
HETATM    7  C   UNL     1       7.425   1.322  29.801  1.00  0.00     0.149 C 
HETATM    8  C   UNL     1       7.644  -0.236  31.727  1.00  0.00     0.057 C 
HETATM    9  O   UNL     1       3.183   0.755  31.484  1.00  0.00    -0.274 OA
HETATM   10  N   UNL     1       6.400   1.874  31.979  1.00  0.00    -0.047 N 
ATOM     11  HN1 UNL     1       5.665   2.381  32.474  1.00  0.00     0.280 HD
ATOM     12  HN2 UNL     1       7.206   2.402  32.314  1.00  0.00     0.280 HD
HETATM   13  C   UNL     1       6.463   0.459  32.401  1.00  0.00     0.287 C 
ENDROOT
BRANCH   7  14
HETATM   14  O   UNL     1       8.080   2.220  28.936  1.00  0.00    -0.393 OA
ATOM     15  HO  UNL     1       7.889   3.123  29.162  1.00  0.00     0.210 HD
ENDBRANCH   7  14
TORSDOF 1
ENDMDL
MODEL 5
REMARK VINA RESULT:      -4.2      2.182      3.213
REMARK  1 active torsions:
REMARK  status: ('A' for Active; 'I' for Inactive)
REMARK    1  A    between atoms: C_7  and  O_13 
ROOT
HETATM    1  C   UNL     1       7.630   3.573  27.702  1.00  0.00     0.221 C 
HETATM    2  C   UNL     1       7.727   1.511  29.030  1.00  0.00     0.225 C 
HETATM    3  C   UNL     1       7.787   3.032  29.107  1.00  0.00     0.138 C 
HETATM    4  N   UNL     1       8.477   3.002  26.774  1.00  0.00    -0.333 N 
ATOM      5  HN  UNL     1       9.076   3.565  26.171  1.00  0.00     0.164 HD
HETATM    6  C   UNL     1       9.810   0.226  28.413  1.00  0.00     0.037 C 
HETATM    7  C   UNL     1       9.101   1.020  29.493  1.00  0.00     0.149 C 
HETATM    8  C   UNL     1       9.850   1.036  27.121  1.00  0.00     0.057 C 
HETATM    9  O   UNL     1       6.765   4.401  27.430  1.00  0.00    -0.274 OA
HETATM   10  N   UNL     1       7.447   1.036  27.659  1.00  0.00    -0.047 N 
ATOM     11  HN1 UNL     1       6.503   1.286  27.361  1.00  0.00     0.280 HD
ATOM     12  HN2 UNL     1       7.358   0.021  27.624  1.00  0.00     0.280 HD
HETATM   13  C   UNL     1       8.465   1.525  26.706  1.00  0.00     0.287 C 
ENDROOT
BRANCH   7  14
HETATM   14  O   UNL     1       9.009   0.286  30.691  1.00  0.00    -0.393 OA
ATOM     15  HO  UNL     1       8.218   0.500  31.171  1.00  0.00     0.210 HD
ENDBRANCH   7  14
TORSDOF 1
ENDMDL
MODEL 6
REMARK VINA RESULT:      -4.1      2.605      3.325
REMARK  1 active torsions:
REMARK  status: ('A' for Active; 'I' for Inactive)
REMARK    1  A    between atoms: C_7  and  O_13 
ROOT
HETATM    1  C   UNL     1      10.528   2.056  25.074  1.00  0.00     0.221 C 
HETATM    2  C   UNL     1      10.763  -0.238  25.914  1.00  0.00     0.225 C 
HETATM    3  C   UNL     1      10.172   1.132  26.219  1.00  0.00     0.138 C 
HETATM    4  N   UNL     1      11.868   2.060  24.742  1.00  0.00    -0.333 N 
ATOM      5  HN  UNL     1      12.407   2.924  24.683  1.00  0.00     0.164 HD
HETATM    6  C   UNL     1      13.190  -0.679  26.451  1.00  0.00     0.037 C 
HETATM    7  C   UNL     1      11.794  -0.497  27.016  1.00  0.00     0.149 C 
HETATM    8  C   UNL     1      13.538   0.501  25.548  1.00  0.00     0.057 C 
HETATM    9  O   UNL     1       9.664   2.684  24.467  1.00  0.00    -0.274 OA
HETATM   10  N   UNL     1      11.409  -0.280  24.585  1.00  0.00    -0.047 N 
ATOM     11  HN1 UNL     1      10.726  -0.188  23.833  1.00  0.00     0.280 HD
ATOM     12  HN2 UNL     1      11.759  -1.212  24.367  1.00  0.00     0.280 HD
HETATM   13  C   UNL     1      12.475   0.739  24.478  1.00  0.00     0.287 C 
ENDROOT
BRANCH   7  14
HETATM   14  O   UNL     1      11.423  -1.589  27.824  1.00  0.00    -0.393 OA
ATOM     15  HO  UNL     1      11.647  -2.416  27.416  1.00  0.00     0.210 HD
ENDBRANCH   7  14
TORSDOF 1
ENDMDL
MODEL 7
REMARK VINA RESULT:      -4.0      2.642      3.918
REMARK  1 active torsions:
REMARK  status: ('A' for Active; 'I' for Inactive)
REMARK    1  A    between atoms: C_7  and  O_13 
ROOT
HETATM    1  C   UNL     1       6.957   1.910  27.241  1.00  0.00     0.221 C 
HETATM    2  C   UNL     1       9.025   1.567  28.516  1.00  0.00     0.225 C 
HETATM    3  C   UNL     1       8.253   1.129  27.278  1.00  0.00     0.138 C 
HETATM    4  N   UNL     1       6.238   1.876  28.419  1.00  0.00    -0.333 N 
ATOM      5  HN  UNL     1       5.256   1.602  28.445  1.00  0.00     0.164 HD
HETATM    6  C   UNL     1       8.461   0.533  30.749  1.00  0.00     0.037 C 
HETATM    7  C   UNL     1       9.125   0.322  29.402  1.00  0.00     0.149 C 
HETATM    8  C   UNL     1       7.033   1.032  30.547  1.00  0.00     0.057 C 
HETATM    9  O   UNL     1       6.633   2.565  26.253  1.00  0.00    -0.274 OA
HETATM   10  N   UNL     1       8.341   2.659  29.239  1.00  0.00    -0.047 N 
ATOM     11  HN1 UNL     1       8.335   3.523  28.696  1.00  0.00     0.280 HD
ATOM     12  HN2 UNL     1       8.888   2.981  30.038  1.00  0.00     0.280 HD
HETATM   13  C   UNL     1       6.976   2.260  29.641  1.00  0.00     0.287 C 
ENDROOT
BRANCH   7  14
HETATM   14  O   UNL     1      10.460  -0.101  29.550  1.00  0.00    -0.393 OA
ATOM     15  HO  UNL     1      10.544  -1.038  29.423  1.00  0.00     0.210 HD
ENDBRANCH   7  14
TORSDOF 1
ENDMDL
MODEL 8
REMARK VINA RESULT:      -3.9      2.443      3.973
REMARK  1 active torsions:
REMARK  status: ('A' for Active; 'I' for Inactive)
REMARK    1  A    between atoms: C_7  and  O_13 
ROOT
HETATM    1  C   UNL     1       9.814   0.442  27.988  1.00  0.00     0.221 C 
HETATM    2  C   UNL     1       8.372   1.694  26.447  1.00  0.00     0.225 C 
HETATM    3  C   UNL     1       9.787   1.173  26.663  1.00  0.00     0.138 C 
HETATM    4  N   UNL     1       9.289   1.160  29.044  1.00  0.00    -0.333 N 
ATOM      5  HN  UNL     1       9.807   1.303  29.911  1.00  0.00     0.164 HD
HETATM    6  C   UNL     1       7.679   3.863  27.537  1.00  0.00     0.037 C 
HETATM    7  C   UNL     1       8.493   3.221  26.431  1.00  0.00     0.149 C 
HETATM    8  C   UNL     1       8.043   3.231  28.878  1.00  0.00     0.057 C 
HETATM    9  O   UNL     1      10.212  -0.717  28.071  1.00  0.00    -0.274 OA
HETATM   10  N   UNL     1       7.452   1.263  27.520  1.00  0.00    -0.047 N 
ATOM     11  HN1 UNL     1       7.296   0.255  27.498  1.00  0.00     0.280 HD
ATOM     12  HN2 UNL     1       6.497   1.573  27.343  1.00  0.00     0.280 HD
HETATM   13  C   UNL     1       7.931   1.709  28.845  1.00  0.00     0.287 C 
ENDROOT
BRANCH   7  14
HETATM   14  O   UNL     1       8.153   3.752  25.172  1.00  0.00    -0.393 OA
ATOM     15  HO  UNL     1       8.845   4.306  24.829  1.00  0.00     0.210 HD
ENDBRANCH   7  14
TORSDOF 1
ENDMDL
MODEL 9
REMARK VINA RESULT:      -3.9      2.392      4.167
REMARK  1 active torsions:
REMARK  status: ('A' for Active; 'I' for Inactive)
REMARK    1  A    between atoms: C_7  and  O_13 
ROOT
HETATM    1  C   UNL     1       8.742   1.412  26.789  1.00  0.00     0.221 C 
HETATM    2  C   UNL     1       8.967   1.527  29.231  1.00  0.00     0.225 C 
HETATM    3  C   UNL     1       9.276   0.680  28.002  1.00  0.00     0.138 C 
HETATM    4  N   UNL     1       7.427   1.818  26.904  1.00  0.00    -0.333 N 
ATOM      5  HN  UNL     1       6.727   1.586  26.199  1.00  0.00     0.164 HD
HETATM    6  C   UNL     1       6.677   1.381  30.282  1.00  0.00     0.037 C 
HETATM    7  C   UNL     1       8.010   0.686  30.080  1.00  0.00     0.149 C 
HETATM    8  C   UNL     1       6.100   1.792  28.931  1.00  0.00     0.057 C 
HETATM    9  O   UNL     1       9.463   1.669  25.829  1.00  0.00    -0.274 OA
HETATM   10  N   UNL     1       8.340   2.816  28.873  1.00  0.00    -0.047 N 
ATOM     11  HN1 UNL     1       8.990   3.424  28.374  1.00  0.00     0.280 HD
ATOM     12  HN2 UNL     1       8.182   3.398  29.695  1.00  0.00     0.280 HD
HETATM   13  C   UNL     1       7.093   2.609  28.107  1.00  0.00     0.287 C 
ENDROOT
BRANCH   7  14
HETATM   14  O   UNL     1       8.592   0.327  31.311  1.00  0.00    -0.393 OA
ATOM     15  HO  UNL     1       8.542  -0.609  31.460  1.00  0.00     0.210 HD
ENDBRANCH   7  14
TORSDOF 1
ENDMDL
