REMARK  3 active torsions:
REMARK  status: ('A' for Active; 'I' for Inactive)
REMARK    1  A    between atoms: C_2  and  C_12 
REMARK    2  A    between atoms: O_9  and  C_22 
REMARK    3  A    between atoms: O_18  and  C_22 
ROOT
HETATM    1  C   UNL     1      57.686  38.988   9.631  1.00  0.00     0.231 C 
HETATM    2  C   UNL     1      57.985  41.121  12.743  1.00  0.00     0.024 C 
HETATM    3  C   UNL     1      58.272  39.897   8.559  1.00  0.00     0.117 C 
HETATM    4  C   UNL     1      57.643  39.656   6.119  1.00  0.00    -0.017 C 
HETATM    5  C   UNL     1      59.499  39.817   4.382  1.00  0.00     0.048 C 
HETATM    6  C   UNL     1      58.109  41.755  10.336  1.00  0.00     0.158 C 
HETATM    7  O   UNL     1      56.978  38.050   9.359  1.00  0.00    -0.286 OA
HETATM    8  C   UNL     1      58.986  39.457   5.776  1.00  0.00    -0.066 C 
HETATM    9  C   UNL     1      57.264  40.034   7.437  1.00  0.00     0.071 C 
HETATM   10  N   UNL     1      58.569  41.251   9.051  1.00  0.00    -0.399 N 
ATOM     11  HN  UNL     1      59.126  41.869   8.461  1.00  0.00     0.155 HD
HETATM   12  C   UNL     1      59.931  39.195   6.801  1.00  0.00     0.005 C 
HETATM   13  C   UNL     1      57.866  39.349  11.085  1.00  0.00     0.228 C 
HETATM   14  C   UNL     1      58.016  40.742  11.450  1.00  0.00     0.014 C 
HETATM   15  C   UNL     1      59.572  39.287   8.131  1.00  0.00     0.013 C 
HETATM   16  O   UNL     1      58.052  38.450  11.912  1.00  0.00    -0.284 OA
ENDROOT
BRANCH   2  17
HETATM   17  C   UNL     1      58.663  42.350  13.268  1.00  0.00    -0.036 C 
HETATM   18  C   UNL     1      58.005  43.053  14.300  1.00  0.00     0.013 C 
HETATM   19  C   UNL     1      58.522  44.231  14.813  1.00  0.00     0.046 C 
HETATM   20  C   UNL     1      59.835  44.754  14.406  1.00  0.00     0.199 C 
HETATM   21  C   UNL     1      60.415  44.085  13.203  1.00  0.00     0.046 C 
HETATM   22  C   UNL     1      59.852  42.891  12.711  1.00  0.00     0.013 C 
BRANCH  20  23
HETATM   23  O   UNL     1      59.719  46.140  14.223  1.00  0.00    -0.359 OA
ATOM     24  HO  UNL     1      59.350  46.565  14.988  1.00  0.00     0.213 HD
ENDBRANCH  20  23
BRANCH  20  25
HETATM   25  O   UNL     1      60.741  44.557  15.482  1.00  0.00    -0.359 OA
ATOM     26  HO  UNL     1      60.372  44.982  16.247  1.00  0.00     0.213 HD
ENDBRANCH  20  25
ENDBRANCH   2  17
TORSDOF 3
