MODEL 1
REMARK VINA RESULT:     -10.7      0.000      0.000
REMARK  2 active torsions:
REMARK  status: ('A' for Active; 'I' for Inactive)
REMARK    1  A    between atoms: C_5  and  C_15 
REMARK    2  A    between atoms: C_11  and  O_25 
ROOT
HETATM    1  N   UNL     1      57.036  41.508  12.672  1.00  0.00    -0.339 N 
ATOM      2  HN  UNL     1      56.138  41.855  13.005  1.00  0.00     0.167 HD
HETATM    3  C   UNL     1      56.534  38.021  11.579  1.00  0.00     0.003 C 
HETATM    4  C   UNL     1      58.104  39.096  10.091  1.00  0.00     0.003 C 
HETATM    5  N   UNL     1      58.966  41.275  10.760  1.00  0.00    -0.351 N 
ATOM      6  HN  UNL     1      59.476  41.394   9.885  1.00  0.00     0.166 HD
HETATM    7  N   UNL     1      59.982  44.487  13.597  1.00  0.00    -0.319 N 
ATOM      8  HN  UNL     1      60.127  45.489  13.717  1.00  0.00     0.170 HD
HETATM    9  C   UNL     1      56.546  39.129  12.410  1.00  0.00     0.032 C 
HETATM   10  N   UNL     1      58.392  42.850  14.024  1.00  0.00    -0.293 N 
ATOM     11  HN  UNL     1      57.833  42.442  14.773  1.00  0.00     0.172 HD
HETATM   12  C   UNL     1      59.156  42.118  11.791  1.00  0.00     0.078 C 
HETATM   13  C   UNL     1      57.176  40.312  12.010  1.00  0.00     0.061 C 
HETATM   14  C   UNL     1      58.071  40.255  10.920  1.00  0.00     0.071 C 
HETATM   15  O   UNL     1      58.944  44.408  15.590  1.00  0.00    -0.247 OA
HETATM   16  C   UNL     1      58.205  42.188  12.843  1.00  0.00     0.137 C 
HETATM   17  C   UNL     1      57.315  38.001  10.433  1.00  0.00     0.014 C 
HETATM   18  C   UNL     1      60.675  43.906  12.586  1.00  0.00     0.095 C 
HETATM   19  C   UNL     1      60.397  42.848  11.836  1.00  0.00     0.050 C 
HETATM   20  C   UNL     1      59.122  43.908  14.470  1.00  0.00     0.325 C 
ENDROOT
BRANCH   4  21
HETATM   21  C   UNL     1      58.889  39.049   8.826  1.00  0.00    -0.021 C 
HETATM   22  C   UNL     1      58.392  38.401   7.692  1.00  0.00     0.049 C 
HETATM   23  C   UNL     1      58.996  38.592   6.449  1.00  0.00     0.066 C 
HETATM   24  C   UNL     1      60.042  39.516   6.328  1.00  0.00     0.036 C 
HETATM   25  C   UNL     1      60.659  39.986   7.473  1.00  0.00     0.004 C 
HETATM   26  C   UNL     1      60.117  39.699   8.720  1.00  0.00     0.012 C 
BRANCH  23  27
HETATM   27  O   UNL     1      58.872  37.658   5.475  1.00  0.00    -0.361 OA
ATOM     28  HO  UNL     1      58.117  37.081   5.455  1.00  0.00     0.217 HD
ENDBRANCH  23  27
ENDBRANCH   4  21
TORSDOF 2
ENDMDL
MODEL 2
REMARK VINA RESULT:      -9.1      4.544      6.045
REMARK  2 active torsions:
REMARK  status: ('A' for Active; 'I' for Inactive)
REMARK    1  A    between atoms: C_5  and  C_15 
REMARK    2  A    between atoms: C_11  and  O_25 
ROOT
HETATM    1  N   UNL     1      54.304  38.176   9.675  1.00  0.00    -0.339 N 
ATOM      2  HN  UNL     1      53.772  37.443  10.143  1.00  0.00     0.167 HD
HETATM    3  C   UNL     1      57.439  38.640  11.560  1.00  0.00     0.003 C 
HETATM    4  C   UNL     1      57.891  38.897   9.201  1.00  0.00     0.003 C 
HETATM    5  N   UNL     1      55.973  39.051   7.705  1.00  0.00    -0.351 N 
ATOM      6  HN  UNL     1      56.563  39.058   6.873  1.00  0.00     0.166 HD
HETATM    7  N   UNL     1      51.775  39.846   6.637  1.00  0.00    -0.319 N 
ATOM      8  HN  UNL     1      51.016  39.631   5.991  1.00  0.00     0.170 HD
HETATM    9  C   UNL     1      56.080  38.574  11.303  1.00  0.00     0.032 C 
HETATM   10  N   UNL     1      52.480  39.344   8.791  1.00  0.00    -0.293 N 
ATOM     11  HN  UNL     1      52.176  39.354   9.765  1.00  0.00     0.172 HD
HETATM   12  C   UNL     1      54.657  39.316   7.621  1.00  0.00     0.078 C 
HETATM   13  C   UNL     1      55.607  38.471   9.991  1.00  0.00     0.061 C 
HETATM   14  C   UNL     1      56.496  38.773   8.936  1.00  0.00     0.071 C 
HETATM   15  O   UNL     1      50.308  39.857   8.341  1.00  0.00    -0.247 OA
HETATM   16  C   UNL     1      53.784  38.948   8.680  1.00  0.00     0.137 C 
HETATM   17  C   UNL     1      58.337  38.811  10.516  1.00  0.00     0.014 C 
HETATM   18  C   UNL     1      52.949  40.214   6.068  1.00  0.00     0.095 C 
HETATM   19  C   UNL     1      54.201  40.076   6.486  1.00  0.00     0.050 C 
HETATM   20  C   UNL     1      51.478  39.726   7.954  1.00  0.00     0.325 C 
ENDROOT
BRANCH   4  21
HETATM   21  C   UNL     1      58.895  39.030   8.108  1.00  0.00    -0.021 C 
HETATM   22  C   UNL     1      58.631  38.552   6.822  1.00  0.00     0.049 C 
HETATM   23  C   UNL     1      59.447  38.918   5.752  1.00  0.00     0.066 C 
HETATM   24  C   UNL     1      60.475  39.848   5.958  1.00  0.00     0.036 C 
HETATM   25  C   UNL     1      60.861  40.146   7.253  1.00  0.00     0.004 C 
HETATM   26  C   UNL     1      60.106  39.685   8.324  1.00  0.00     0.012 C 
BRANCH  23  27
HETATM   27  O   UNL     1      59.527  38.134   4.649  1.00  0.00    -0.361 OA
ATOM     28  HO  UNL     1      59.109  37.281   4.634  1.00  0.00     0.217 HD
ENDBRANCH  23  27
ENDBRANCH   4  21
TORSDOF 2
ENDMDL
MODEL 3
REMARK VINA RESULT:      -8.4      1.942      6.422
REMARK  2 active torsions:
REMARK  status: ('A' for Active; 'I' for Inactive)
REMARK    1  A    between atoms: C_5  and  C_15 
REMARK    2  A    between atoms: C_11  and  O_25 
ROOT
HETATM    1  N   UNL     1      57.870  37.914  10.020  1.00  0.00    -0.339 N 
ATOM      2  HN  UNL     1      57.841  36.896  10.057  1.00  0.00     0.167 HD
HETATM    3  C   UNL     1      55.689  39.178  12.713  1.00  0.00     0.003 C 
HETATM    4  C   UNL     1      57.616  40.622  12.514  1.00  0.00     0.003 C 
HETATM    5  N   UNL     1      59.052  40.308  10.570  1.00  0.00    -0.351 N 
ATOM      6  HN  UNL     1      59.728  40.997  10.901  1.00  0.00     0.166 HD
HETATM    7  N   UNL     1      60.036  39.003   6.481  1.00  0.00    -0.319 N 
ATOM      8  HN  UNL     1      60.779  38.706   5.848  1.00  0.00     0.170 HD
HETATM    9  C   UNL     1      56.077  38.486  11.577  1.00  0.00     0.032 C 
HETATM   10  N   UNL     1      58.293  38.114   7.728  1.00  0.00    -0.293 N 
ATOM     11  HN  UNL     1      57.456  37.536   7.652  1.00  0.00     0.172 HD
HETATM   12  C   UNL     1      59.131  39.803   9.326  1.00  0.00     0.078 C 
HETATM   13  C   UNL     1      57.330  38.713  10.999  1.00  0.00     0.061 C 
HETATM   14  C   UNL     1      58.040  39.873  11.378  1.00  0.00     0.071 C 
HETATM   15  O   UNL     1      58.665  37.468   5.578  1.00  0.00    -0.247 OA
HETATM   16  C   UNL     1      58.447  38.603   8.996  1.00  0.00     0.137 C 
HETATM   17  C   UNL     1      56.448  40.245  13.171  1.00  0.00     0.014 C 
HETATM   18  C   UNL     1      60.259  40.162   7.150  1.00  0.00     0.095 C 
HETATM   19  C   UNL     1      59.832  40.578   8.335  1.00  0.00     0.050 C 
HETATM   20  C   UNL     1      58.955  38.189   6.543  1.00  0.00     0.325 C 
ENDROOT
BRANCH   4  21
HETATM   21  C   UNL     1      58.425  41.742  13.071  1.00  0.00    -0.021 C 
HETATM   22  C   UNL     1      59.497  42.284  12.357  1.00  0.00     0.049 C 
HETATM   23  C   UNL     1      60.069  43.492  12.753  1.00  0.00     0.066 C 
HETATM   24  C   UNL     1      59.497  44.210  13.812  1.00  0.00     0.036 C 
HETATM   25  C   UNL     1      58.586  43.576  14.637  1.00  0.00     0.004 C 
HETATM   26  C   UNL     1      58.100  42.319  14.297  1.00  0.00     0.012 C 
BRANCH  23  27
HETATM   27  O   UNL     1      61.348  43.789  12.416  1.00  0.00    -0.361 OA
ATOM     28  HO  UNL     1      62.026  43.127  12.473  1.00  0.00     0.217 HD
ENDBRANCH  23  27
ENDBRANCH   4  21
TORSDOF 2
ENDMDL
MODEL 4
REMARK VINA RESULT:      -8.3      2.309      6.559
REMARK  2 active torsions:
REMARK  status: ('A' for Active; 'I' for Inactive)
REMARK    1  A    between atoms: C_5  and  C_15 
REMARK    2  A    between atoms: C_11  and  O_25 
ROOT
HETATM    1  N   UNL     1      58.196  37.795   8.511  1.00  0.00    -0.339 N 
ATOM      2  HN  UNL     1      58.138  36.784   8.393  1.00  0.00     0.167 HD
HETATM    3  C   UNL     1      55.746  38.748  11.098  1.00  0.00     0.003 C 
HETATM    4  C   UNL     1      57.718  40.124  11.333  1.00  0.00     0.003 C 
HETATM    5  N   UNL     1      59.364  40.034   9.538  1.00  0.00    -0.351 N 
ATOM      6  HN  UNL     1      60.013  40.639  10.041  1.00  0.00     0.166 HD
HETATM    7  N   UNL     1      60.789  39.292   5.438  1.00  0.00    -0.319 N 
ATOM      8  HN  UNL     1      61.593  39.058   4.856  1.00  0.00     0.170 HD
HETATM    9  C   UNL     1      56.247  38.211   9.924  1.00  0.00     0.032 C 
HETATM   10  N   UNL     1      58.890  38.305   6.336  1.00  0.00    -0.293 N 
ATOM     11  HN  UNL     1      58.053  37.780   6.081  1.00  0.00     0.172 HD
HETATM   12  C   UNL     1      59.576  39.711   8.250  1.00  0.00     0.078 C 
HETATM   13  C   UNL     1      57.564  38.466   9.530  1.00  0.00     0.061 C 
HETATM   14  C   UNL     1      58.254  39.529  10.154  1.00  0.00     0.071 C 
HETATM   15  O   UNL     1      59.495  37.961   4.169  1.00  0.00    -0.247 OA
HETATM   16  C   UNL     1      58.906  38.600   7.671  1.00  0.00     0.137 C 
HETATM   17  C   UNL     1      56.472  39.704  11.792  1.00  0.00     0.014 C 
HETATM   18  C   UNL     1      60.960  40.332   6.292  1.00  0.00     0.095 C 
HETATM   19  C   UNL     1      60.407  40.591   7.470  1.00  0.00     0.050 C 
HETATM   20  C   UNL     1      59.688  38.523   5.257  1.00  0.00     0.325 C 
ENDROOT
BRANCH   4  21
HETATM   21  C   UNL     1      58.483  41.117  12.137  1.00  0.00    -0.021 C 
HETATM   22  C   UNL     1      59.402  41.980  11.535  1.00  0.00     0.049 C 
HETATM   23  C   UNL     1      59.905  43.076  12.236  1.00  0.00     0.066 C 
HETATM   24  C   UNL     1      59.407  43.362  13.514  1.00  0.00     0.036 C 
HETATM   25  C   UNL     1      58.669  42.399  14.178  1.00  0.00     0.004 C 
HETATM   26  C   UNL     1      58.263  41.252  13.507  1.00  0.00     0.012 C 
BRANCH  23  27
HETATM   27  O   UNL     1      61.098  43.620  11.895  1.00  0.00    -0.361 OA
ATOM     28  HO  UNL     1      61.867  43.071  11.796  1.00  0.00     0.217 HD
ENDBRANCH  23  27
ENDBRANCH   4  21
TORSDOF 2
ENDMDL
