REMARK  3 active torsions:
REMARK  status: ('A' for Active; 'I' for Inactive)
REMARK    1  A    between atoms: C_11  and  C_14 
REMARK    2  A    between atoms: C_11  and  C_17 
REMARK    3  A    between atoms: C_16  and  O_20 
ROOT
HETATM    1  C   UNL     1      -3.061 102.770  23.579  1.00  0.00    -0.025 C 
HETATM    2  C   UNL     1      -1.610 101.734  26.777  1.00  0.00     0.000 C 
HETATM    3  C   UNL     1      -3.258 101.089  21.839  1.00  0.00     0.037 C 
HETATM    4  C   UNL     1      -2.096 102.676  27.641  1.00  0.00     0.085 C 
HETATM    5  C   UNL     1      -2.656 102.858  24.933  1.00  0.00    -0.025 C 
HETATM    6  C   UNL     1      -1.179 100.610  27.515  1.00  0.00     0.039 C 
HETATM    7  C   UNL     1      -3.261 103.735  25.836  1.00  0.00     0.015 C 
HETATM    8  O   UNL     1      -2.020 102.190  28.930  1.00  0.00    -0.322 OA
HETATM    9  C   UNL     1      -3.030 103.612  27.208  1.00  0.00     0.039 C 
HETATM   10  C   UNL     1      -2.538 101.692  22.862  1.00  0.00     0.015 C 
HETATM   11  C   UNL     1      -5.051 103.570  22.237  1.00  0.00    -0.036 C 
HETATM   12  C   UNL     1      -3.899 103.735  23.009  1.00  0.00     0.023 C 
HETATM   13  C   UNL     1      -3.911 101.907  20.916  1.00  0.00     0.066 C 
HETATM   14  C   UNL     1      -1.645 100.818  28.809  1.00  0.00     0.143 C 
HETATM   15  C   UNL     1      -5.088 102.618  21.213  1.00  0.00     0.047 C 
HETATM   16  C   UNL     1      -1.671 101.971  25.398  1.00  0.00     0.026 C 
ENDROOT
BRANCH  11  17
HETATM   17  C   UNL     1      -6.121 104.637  22.263  1.00  0.00    -0.006 C 
BRANCH  17  18
HETATM   18  C   UNL     1      -7.541 105.116  22.466  1.00  0.00    -0.021 C 
HETATM   19  C   UNL     1      -8.252 105.420  21.131  1.00  0.00     0.014 C 
HETATM   20  C   UNL     1      -9.280 106.478  21.550  1.00  0.00     0.005 C 
HETATM   21  C   UNL     1      -9.143 106.522  23.074  1.00  0.00    -0.013 C 
HETATM   22  C   UNL     1      -7.618 106.463  23.180  1.00  0.00     0.018 C 
HETATM   23  C   UNL     1      -9.595 105.176  23.669  1.00  0.00     0.005 C 
HETATM   24  C   UNL     1      -8.483 104.205  23.253  1.00  0.00     0.014 C 
ENDBRANCH  17  18
ENDBRANCH  11  17
BRANCH  13  25
HETATM   25  O   UNL     1      -3.252 102.168  19.760  1.00  0.00    -0.361 OA
ATOM     26  HO  UNL     1      -3.697 102.725  19.132  1.00  0.00     0.217 HD
ENDBRANCH  13  25
TORSDOF 3
