REMARK  8 active torsions:
REMARK  status: ('A' for Active; 'I' for Inactive)
REMARK    1  A    between atoms: C_2  and  C_10 
REMARK    2  A    between atoms: C_2  and  C_11 
REMARK    3  A    between atoms: C_2  and  O_14 
REMARK    4  A    between atoms: C_3  and  O_9 
REMARK    5  A    between atoms: C_3  and  C_11 
REMARK    6  A    between atoms: O_6  and  C_16 
REMARK    7  A    between atoms: O_9  and  P_12 
REMARK    8  A    between atoms: C_11  and  C_16 
ROOT
HETATM    1  C   UNL     1      13.342 -43.438  51.371  1.00  0.00     0.073 C 
ENDROOT
BRANCH   1   2
HETATM    2  C   UNL     1      12.201 -42.412  51.469  1.00  0.00     0.227 C 
BRANCH   2   3
HETATM    3  C   UNL     1      12.761 -40.999  51.550  1.00  0.00     0.203 C 
HETATM    4  O   UNL     1      14.016 -40.898  51.644  1.00  0.00    -0.646 OA
HETATM    5  O   UNL     1      12.049 -39.992  51.584  1.00  0.00    -0.646 OA
ENDBRANCH   2   3
BRANCH   2   6
HETATM    6  O   UNL     1      11.278 -42.657  52.500  1.00  0.00    -0.384 OA
ATOM      7  HO  UNL     1      10.928 -43.539  52.449  1.00  0.00     0.210 HD
ENDBRANCH   2   6
ENDBRANCH   1   2
BRANCH   1   8
HETATM    8  C   UNL     1      12.775 -44.710  50.723  1.00  0.00     0.192 C 
BRANCH   8   9
HETATM    9  O   UNL     1      13.091 -45.898  51.431  1.00  0.00    -0.282 OA
BRANCH   9  10
HETATM   10  P   UNL     1      12.943 -47.412  50.911  1.00  0.00     0.422 P 
HETATM   11  O   UNL     1      14.034 -47.643  49.895  1.00  0.00    -0.617 OA
HETATM   12  O   UNL     1      11.580 -47.501  50.334  1.00  0.00    -0.617 OA
HETATM   13  O   UNL     1      13.084 -48.304  52.109  1.00  0.00    -0.617 OA
ENDBRANCH   9  10
ENDBRANCH   8   9
ENDBRANCH   1   8
BRANCH   1  14
HETATM   14  C   UNL     1      14.014 -43.680  52.736  1.00  0.00     0.174 C 
BRANCH  14  15
HETATM   15  O   UNL     1      13.247 -44.431  53.645  1.00  0.00    -0.400 OA
ATOM     16  HO  UNL     1      13.661 -44.580  54.487  1.00  0.00     0.209 HD
ENDBRANCH  14  15
ENDBRANCH   1  14
TORSDOF 8
