REMARK  2 active torsions:
REMARK  status: ('A' for Active; 'I' for Inactive)
REMARK    1  A    between atoms: C_10  and  C_13 
REMARK    2  A    between atoms: O_14  and  C_23 
ROOT
HETATM    1  C   UNL     1     -39.880 -37.562 -18.867  1.00  0.00     0.092 C 
HETATM    2  C   UNL     1     -40.605 -36.347 -19.331  1.00  0.00     0.288 C 
HETATM    3  C   UNL     1     -40.463 -36.127 -15.600  1.00  0.00     0.098 C 
HETATM    4  C   UNL     1     -40.094 -37.681 -13.874  1.00  0.00     0.127 C 
HETATM    5  C   UNL     1     -39.857 -37.436 -17.503  1.00  0.00    -0.019 C 
HETATM    6  C   UNL     1     -41.280 -41.134 -13.246  1.00  0.00     0.014 C 
HETATM    7  C   UNL     1     -41.844 -36.701 -15.228  1.00  0.00     0.141 C 
HETATM    8  N   UNL     1     -41.523 -37.646 -14.170  1.00  0.00    -0.339 N 
HETATM    9  O   UNL     1     -40.735 -35.961 -20.477  1.00  0.00    -0.260 OA
HETATM   10  O   UNL     1     -40.865 -35.524 -18.260  1.00  0.00    -0.279 OA
HETATM   11  O   UNL     1     -43.315 -39.031 -13.761  1.00  0.00    -0.268 OA
HETATM   12  C   UNL     1     -39.775 -39.041 -13.281  1.00  0.00     0.073 C 
HETATM   13  C   UNL     1     -39.425 -38.245 -16.333  1.00  0.00     0.082 C 
HETATM   14  C   UNL     1     -41.068 -39.766 -13.353  1.00  0.00     0.012 C 
HETATM   15  C   UNL     1     -39.462 -37.233 -15.176  1.00  0.00     0.093 C 
HETATM   16  C   UNL     1     -42.123 -38.844 -13.798  1.00  0.00     0.250 C 
HETATM   17  C   UNL     1     -40.296 -36.094 -17.098  1.00  0.00     0.072 C 
ENDROOT
BRANCH   6  18
HETATM   18  C   UNL     1     -40.472 -42.143 -12.761  1.00  0.00     0.018 C 
HETATM   19  C   UNL     1     -39.772 -42.120 -11.517  1.00  0.00     0.032 C 
HETATM   20  C   UNL     1     -38.364 -42.014 -11.458  1.00  0.00     0.022 C 
HETATM   21  C   UNL     1     -40.499 -42.275 -10.266  1.00  0.00     0.258 C 
HETATM   22  C   UNL     1     -37.692 -42.468 -10.321  1.00  0.00     0.075 C 
HETATM   23  C   UNL     1     -38.417 -42.684  -9.112  1.00  0.00     0.248 C 
HETATM   24  O   UNL     1     -38.030 -43.383  -8.175  1.00  0.00    -0.268 OA
HETATM   25  N   UNL     1     -39.736 -42.231  -9.114  1.00  0.00    -0.290 N 
ATOM     26  HN  UNL     1     -40.143 -41.862  -8.254  1.00  0.00     0.172 HD
HETATM   27  O   UNL     1     -41.706 -42.393 -10.182  1.00  0.00    -0.267 OA
ENDBRANCH   6  18
BRANCH  15  28
HETATM   28  O   UNL     1     -38.182 -36.639 -14.969  1.00  0.00    -0.387 OA
ATOM     29  HO  UNL     1     -37.569 -37.317 -14.709  1.00  0.00     0.210 HD
ENDBRANCH  15  28
TORSDOF 2
