REMARK  6 active torsions:
REMARK  status: ('A' for Active; 'I' for Inactive)
REMARK    1  A    between atoms: C_3  and  C_22 
REMARK    2  A    between atoms: O_4  and  C_31 
REMARK    3  A    between atoms: C_6  and  C_8 
REMARK    4  A    between atoms: O_10  and  C_27 
REMARK    5  A    between atoms: C_15  and  O_28 
REMARK    6  A    between atoms: C_17  and  O_18 
ROOT
HETATM    1  C   UNL     1     -19.561  -1.978  -4.043  1.00  0.00     0.263 C 
HETATM    2  C   UNL     1     -19.667  -1.543  -2.731  1.00  0.00     0.043 C 
HETATM    3  C   UNL     1     -21.528  -1.232  -6.809  1.00  0.00    -0.002 C 
HETATM    4  C   UNL     1     -22.283  -0.777  -5.775  1.00  0.00     0.044 C 
HETATM    5  O   UNL     1     -18.598  -2.706  -4.382  1.00  0.00    -0.267 OA
HETATM    6  N   UNL     1     -20.456  -1.612  -4.969  1.00  0.00    -0.288 N 
HETATM    7  C   UNL     1     -21.732  -0.501  -3.369  1.00  0.00     0.031 C 
HETATM    8  C   UNL     1     -20.876  -0.948  -2.363  1.00  0.00     0.020 C 
HETATM    9  C   UNL     1     -20.447  -1.816  -6.287  1.00  0.00     0.113 C 
HETATM   10  C   UNL     1     -21.554  -0.925  -4.651  1.00  0.00     0.043 C 
ENDROOT
BRANCH   3  11
HETATM   11  C   UNL     1     -21.757  -0.905  -8.126  1.00  0.00     0.045 C 
HETATM   12  C   UNL     1     -21.865   0.429  -8.462  1.00  0.00     0.079 C 
HETATM   13  C   UNL     1     -21.282   1.016  -9.551  1.00  0.00     0.040 C 
HETATM   14  C   UNL     1     -21.153   0.506 -10.809  1.00  0.00     0.042 C 
HETATM   15  C   UNL     1     -21.577  -0.734 -11.216  1.00  0.00     0.101 C 
HETATM   16  C   UNL     1     -21.536  -1.856 -10.397  1.00  0.00     0.133 C 
HETATM   17  C   UNL     1     -21.967  -1.880  -9.089  1.00  0.00     0.115 C 
BRANCH  12  18
HETATM   18  O   UNL     1     -22.696   1.188  -7.723  1.00  0.00    -0.360 OA
ATOM     19  HO  UNL     1     -22.770   2.106  -7.954  1.00  0.00     0.217 HD
ENDBRANCH  12  18
BRANCH  15  20
HETATM   20  O   UNL     1     -22.073  -0.858 -12.466  1.00  0.00    -0.358 OA
ATOM     21  HO  UNL     1     -22.367  -1.716 -12.748  1.00  0.00     0.217 HD
ENDBRANCH  15  20
BRANCH  16  22
HETATM   22  O   UNL     1     -21.229  -3.039 -11.004  1.00  0.00    -0.356 OA
ATOM     23  HO  UNL     1     -21.201  -3.806 -10.444  1.00  0.00     0.218 HD
ENDBRANCH  16  22
BRANCH  17  24
HETATM   24  O   UNL     1     -22.700  -2.928  -8.758  1.00  0.00    -0.357 OA
ATOM     25  HO  UNL     1     -22.844  -3.596  -9.418  1.00  0.00     0.217 HD
ENDBRANCH  17  24
ENDBRANCH   3  11
BRANCH   2  26
HETATM   26  C   UNL     1     -18.651  -1.708  -1.797  1.00  0.00    -0.021 C 
HETATM   27  C   UNL     1     -17.749  -0.690  -1.504  1.00  0.00     0.012 C 
HETATM   28  C   UNL     1     -16.537  -1.026  -0.893  1.00  0.00     0.001 C 
HETATM   29  C   UNL     1     -16.301  -2.312  -0.432  1.00  0.00     0.000 C 
HETATM   30  C   UNL     1     -17.304  -3.257  -0.524  1.00  0.00     0.001 C 
HETATM   31  C   UNL     1     -18.514  -2.929  -1.133  1.00  0.00     0.012 C 
ENDBRANCH   2  26
TORSDOF 6
