MODEL 1
REMARK VINA RESULT:      -7.6      0.000      0.000
REMARK  1 active torsions:
REMARK  status: ('A' for Active; 'I' for Inactive)
REMARK    1  A    between atoms: C_10  and  O_24 
ROOT
HETATM    1  C   UNL     1     -23.100   0.810  -4.695  1.00  0.00    -0.025 A 
HETATM    2  C   UNL     1     -21.099   1.122  -6.602  1.00  0.00    -0.025 C 
HETATM    3  C   UNL     1     -24.257   1.961  -2.894  1.00  0.00     0.001 A 
HETATM    4  C   UNL     1     -21.888   2.358  -3.240  1.00  0.00     0.012 A 
HETATM    5  N   UNL     1     -21.541  -1.587 -11.379  1.00  0.00    -0.342 N 
ATOM      6  HN  UNL     1     -21.710  -2.146 -12.215  1.00  0.00     0.163 HD
HETATM    7  O   UNL     1     -23.371   2.195 -12.935  1.00  0.00    -0.257 OA
HETATM    8  C   UNL     1     -23.156  -0.010  -5.845  1.00  0.00     0.024 C 
HETATM    9  C   UNL     1     -21.899   1.523  -4.370  1.00  0.00    -0.025 A 
HETATM   10  C   UNL     1     -21.681   0.595 -12.480  1.00  0.00     0.146 C 
HETATM   11  C   UNL     1     -20.537   1.893  -7.691  1.00  0.00     0.015 C 
HETATM   12  C   UNL     1     -21.801  -0.897  -9.195  1.00  0.00     0.044 C 
HETATM   13  C   UNL     1     -21.559  -2.036 -10.091  1.00  0.00     0.253 C 
HETATM   14  C   UNL     1     -22.087   0.040  -6.752  1.00  0.00    -0.024 C 
HETATM   15  C   UNL     1     -22.514   1.774 -12.177  1.00  0.00     0.320 C 
HETATM   16  C   UNL     1     -21.167   2.418  -8.790  1.00  0.00     0.039 C 
HETATM   17  C   UNL     1     -21.251  -0.231 -11.343  1.00  0.00     0.185 C 
HETATM   18  C   UNL     1     -21.779   1.665  -9.838  1.00  0.00     0.089 C 
HETATM   19  C   UNL     1     -21.945  -1.108  -7.726  1.00  0.00     0.030 C 
HETATM   20  O   UNL     1     -22.453   2.329 -10.868  1.00  0.00    -0.273 OA
HETATM   21  C   UNL     1     -23.072   2.604  -2.539  1.00  0.00     0.001 A 
HETATM   22  C   UNL     1     -24.266   1.026  -3.935  1.00  0.00     0.012 A 
HETATM   23  O   UNL     1     -21.902  -3.190  -9.757  1.00  0.00    -0.268 OA
HETATM   24  C   UNL     1     -20.815   1.478  -5.275  1.00  0.00     0.024 C 
HETATM   25  C   UNL     1     -21.579   0.236 -10.033  1.00  0.00     0.021 C 
ENDROOT
BRANCH  10  26
HETATM   26  O   UNL     1     -20.819   0.671 -13.569  1.00  0.00    -0.357 OA
ATOM     27  HO  UNL     1     -21.076   1.217 -14.303  1.00  0.00     0.217 HD
ENDBRANCH  10  26
TORSDOF 1
ENDMDL
MODEL 2
REMARK VINA RESULT:      -7.6      2.301      3.936
REMARK  1 active torsions:
REMARK  status: ('A' for Active; 'I' for Inactive)
REMARK    1  A    between atoms: C_10  and  O_24 
ROOT
HETATM    1  C   UNL     1     -20.082  -0.726  -4.706  1.00  0.00    -0.025 A 
HETATM    2  C   UNL     1     -22.113  -1.018  -6.583  1.00  0.00    -0.025 C 
HETATM    3  C   UNL     1     -18.898  -1.895  -2.935  1.00  0.00     0.001 A 
HETATM    4  C   UNL     1     -21.272  -2.287  -3.247  1.00  0.00     0.012 A 
HETATM    5  N   UNL     1     -21.745   1.737 -11.340  1.00  0.00    -0.342 N 
ATOM      6  HN  UNL     1     -21.589   2.304 -12.174  1.00  0.00     0.163 HD
HETATM    7  O   UNL     1     -19.943  -2.030 -12.963  1.00  0.00    -0.257 OA
HETATM    8  C   UNL     1     -20.044   0.105  -5.849  1.00  0.00     0.024 C 
HETATM    9  C   UNL     1     -21.278  -1.442  -4.369  1.00  0.00    -0.025 A 
HETATM   10  C   UNL     1     -21.624  -0.434 -12.465  1.00  0.00     0.146 C 
HETATM   11  C   UNL     1     -22.693  -1.778  -7.671  1.00  0.00     0.015 C 
HETATM   12  C   UNL     1     -21.451   1.026  -9.168  1.00  0.00     0.044 C 
HETATM   13  C   UNL     1     -21.706   2.173 -10.049  1.00  0.00     0.253 C 
HETATM   14  C   UNL     1     -21.127   0.065  -6.739  1.00  0.00    -0.024 C 
HETATM   15  C   UNL     1     -20.788  -1.616 -12.187  1.00  0.00     0.320 C 
HETATM   16  C   UNL     1     -22.081  -2.293  -8.785  1.00  0.00     0.039 C 
HETATM   17  C   UNL     1     -22.035   0.381 -11.313  1.00  0.00     0.185 C 
HETATM   18  C   UNL     1     -21.486  -1.530  -9.835  1.00  0.00     0.089 C 
HETATM   19  C   UNL     1     -21.283   1.222  -7.699  1.00  0.00     0.030 C 
HETATM   20  O   UNL     1     -20.828  -2.184 -10.882  1.00  0.00    -0.273 OA
HETATM   21  C   UNL     1     -20.078  -2.541  -2.568  1.00  0.00     0.001 A 
HETATM   22  C   UNL     1     -18.904  -0.950  -3.966  1.00  0.00     0.012 A 
HETATM   23  O   UNL     1     -21.357   3.324  -9.709  1.00  0.00    -0.268 OA
HETATM   24  C   UNL     1     -22.377  -1.387  -5.256  1.00  0.00     0.024 C 
HETATM   25  C   UNL     1     -21.687  -0.099 -10.013  1.00  0.00     0.021 C 
ENDROOT
BRANCH  10  26
HETATM   26  O   UNL     1     -22.504  -0.498 -13.541  1.00  0.00    -0.357 OA
ATOM     27  HO  UNL     1     -23.292   0.031 -13.502  1.00  0.00     0.217 HD
ENDBRANCH  10  26
TORSDOF 1
ENDMDL
MODEL 3
REMARK VINA RESULT:      -5.3      4.784      8.201
REMARK  1 active torsions:
REMARK  status: ('A' for Active; 'I' for Inactive)
REMARK    1  A    between atoms: C_10  and  O_24 
ROOT
HETATM    1  C   UNL     1     -22.341  -0.865  -7.882  1.00  0.00    -0.025 A 
HETATM    2  C   UNL     1     -21.078   0.709  -5.969  1.00  0.00    -0.025 C 
HETATM    3  C   UNL     1     -21.916  -2.413  -9.707  1.00  0.00     0.001 A 
HETATM    4  C   UNL     1     -20.414  -0.540  -9.353  1.00  0.00     0.012 A 
HETATM    5  N   UNL     1     -23.612   1.580  -1.155  1.00  0.00    -0.342 N 
ATOM      6  HN  UNL     1     -24.174   1.694  -0.312  1.00  0.00     0.163 HD
HETATM    7  O   UNL     1     -21.180  -1.874   0.335  1.00  0.00    -0.257 OA
HETATM    8  C   UNL     1     -23.074  -0.529  -6.721  1.00  0.00     0.024 C 
HETATM    9  C   UNL     1     -21.138  -0.158  -8.211  1.00  0.00    -0.025 A 
HETATM   10  C   UNL     1     -21.761   0.385  -0.087  1.00  0.00     0.146 C 
HETATM   11  C   UNL     1     -20.119   0.812  -4.888  1.00  0.00     0.015 C 
HETATM   12  C   UNL     1     -23.157   1.044  -3.350  1.00  0.00     0.044 C 
HETATM   13  C   UNL     1     -24.026   1.799  -2.436  1.00  0.00     0.253 C 
HETATM   14  C   UNL     1     -22.502   0.369  -5.809  1.00  0.00    -0.024 C 
HETATM   15  C   UNL     1     -21.139  -0.912  -0.412  1.00  0.00     0.320 C 
HETATM   16  C   UNL     1     -19.955  -0.006  -3.801  1.00  0.00     0.039 C 
HETATM   17  C   UNL     1     -22.286   1.176  -1.209  1.00  0.00     0.185 C 
HETATM   18  C   UNL     1     -20.900  -0.188  -2.745  1.00  0.00     0.089 C 
HETATM   19  C   UNL     1     -23.426   1.039  -4.817  1.00  0.00     0.030 C 
HETATM   20  O   UNL     1     -20.637  -1.113  -1.729  1.00  0.00    -0.273 OA
HETATM   21  C   UNL     1     -20.782  -1.686 -10.064  1.00  0.00     0.001 A 
HETATM   22  C   UNL     1     -22.727  -1.980  -8.653  1.00  0.00     0.012 A 
HETATM   23  O   UNL     1     -25.204   2.063  -2.755  1.00  0.00    -0.268 OA
HETATM   24  C   UNL     1     -20.641   0.801  -7.299  1.00  0.00     0.024 C 
HETATM   25  C   UNL     1     -22.050   0.679  -2.528  1.00  0.00     0.021 C 
ENDROOT
BRANCH  10  26
HETATM   26  O   UNL     1     -21.266   1.089   1.006  1.00  0.00    -0.357 OA
ATOM     27  HO  UNL     1     -20.581   1.729   0.848  1.00  0.00     0.217 HD
ENDBRANCH  10  26
TORSDOF 1
ENDMDL
MODEL 4
REMARK VINA RESULT:      -5.3      4.866      7.865
REMARK  1 active torsions:
REMARK  status: ('A' for Active; 'I' for Inactive)
REMARK    1  A    between atoms: C_10  and  O_24 
ROOT
HETATM    1  C   UNL     1     -21.010   1.049  -8.045  1.00  0.00    -0.025 A 
HETATM    2  C   UNL     1     -22.171  -0.598  -6.128  1.00  0.00    -0.025 C 
HETATM    3  C   UNL     1     -21.534   2.623  -9.821  1.00  0.00     0.001 A 
HETATM    4  C   UNL     1     -22.975   0.704  -9.461  1.00  0.00     0.012 A 
HETATM    5  N   UNL     1     -19.461  -1.502  -1.417  1.00  0.00    -0.342 N 
ATOM      6  HN  UNL     1     -18.869  -1.618  -0.594  1.00  0.00     0.163 HD
HETATM    7  O   UNL     1     -21.931   1.855   0.225  1.00  0.00    -0.257 OA
HETATM    8  C   UNL     1     -20.232   0.709  -6.915  1.00  0.00     0.024 C 
HETATM    9  C   UNL     1     -22.205   0.318  -8.351  1.00  0.00    -0.025 A 
HETATM   10  C   UNL     1     -21.305  -0.378  -0.264  1.00  0.00     0.146 C 
HETATM   11  C   UNL     1     -23.090  -0.748  -5.019  1.00  0.00     0.015 C 
HETATM   12  C   UNL     1     -20.000  -0.932  -3.584  1.00  0.00     0.044 C 
HETATM   13  C   UNL     1     -19.083  -1.682  -2.715  1.00  0.00     0.253 C 
HETATM   14  C   UNL     1     -20.751  -0.223  -6.006  1.00  0.00    -0.024 C 
HETATM   15  C   UNL     1     -21.971   0.908  -0.541  1.00  0.00     0.320 C 
HETATM   16  C   UNL     1     -23.240   0.043  -3.909  1.00  0.00     0.039 C 
HETATM   17  C   UNL     1     -20.797  -1.131  -1.420  1.00  0.00     0.185 C 
HETATM   18  C   UNL     1     -22.267   0.227  -2.881  1.00  0.00     0.089 C 
HETATM   19  C   UNL     1     -19.778  -0.889  -5.058  1.00  0.00     0.030 C 
HETATM   20  O   UNL     1     -22.520   1.123  -1.837  1.00  0.00    -0.273 OA
HETATM   21  C   UNL     1     -22.661   1.874 -10.158  1.00  0.00     0.001 A 
HETATM   22  C   UNL     1     -20.679   2.190  -8.803  1.00  0.00     0.012 A 
HETATM   23  O   UNL     1     -17.909  -1.909  -3.077  1.00  0.00    -0.268 OA
HETATM   24  C   UNL     1     -22.647  -0.673  -7.445  1.00  0.00     0.024 C 
HETATM   25  C   UNL     1     -21.088  -0.613  -2.720  1.00  0.00     0.021 C 
ENDROOT
BRANCH  10  26
HETATM   26  O   UNL     1     -21.747  -1.118   0.828  1.00  0.00    -0.357 OA
ATOM     27  HO  UNL     1     -21.147  -1.239   1.554  1.00  0.00     0.217 HD
ENDBRANCH  10  26
TORSDOF 1
ENDMDL
MODEL 5
REMARK VINA RESULT:      -5.1      2.077      3.192
REMARK  1 active torsions:
REMARK  status: ('A' for Active; 'I' for Inactive)
REMARK    1  A    between atoms: C_10  and  O_24 
ROOT
HETATM    1  C   UNL     1     -24.236   1.327  -2.300  1.00  0.00    -0.025 A 
HETATM    2  C   UNL     1     -21.852   0.468  -3.446  1.00  0.00    -0.025 C 
HETATM    3  C   UNL     1     -25.169   2.963  -0.765  1.00  0.00     0.001 A 
HETATM    4  C   UNL     1     -22.979   2.019  -0.320  1.00  0.00     0.012 A 
HETATM    5  N   UNL     1     -21.974  -1.701  -8.510  1.00  0.00    -0.342 N 
ATOM      6  HN  UNL     1     -22.111  -2.103  -9.437  1.00  0.00     0.163 HD
HETATM    7  O   UNL     1     -20.955   2.431  -9.909  1.00  0.00    -0.257 OA
HETATM    8  C   UNL     1     -24.312   0.635  -3.531  1.00  0.00     0.024 C 
HETATM    9  C   UNL     1     -23.033   1.292  -1.521  1.00  0.00    -0.025 A 
HETATM   10  C   UNL     1     -20.594   0.187  -9.235  1.00  0.00     0.146 C 
HETATM   11  C   UNL     1     -20.645   0.790  -4.179  1.00  0.00     0.015 C 
HETATM   12  C   UNL     1     -22.564  -0.924  -6.422  1.00  0.00     0.044 C 
HETATM   13  C   UNL     1     -22.653  -2.038  -7.376  1.00  0.00     0.253 C 
HETATM   14  C   UNL     1     -23.136   0.082  -4.057  1.00  0.00    -0.024 C 
HETATM   15  C   UNL     1     -20.750   1.635  -9.009  1.00  0.00     0.320 C 
HETATM   16  C   UNL     1     -20.502   1.542  -5.316  1.00  0.00     0.039 C 
HETATM   17  C   UNL     1     -21.062  -0.712  -8.171  1.00  0.00     0.185 C 
HETATM   18  C   UNL     1     -21.016   1.209  -6.606  1.00  0.00     0.089 C 
HETATM   19  C   UNL     1     -23.282  -0.988  -5.116  1.00  0.00     0.030 C 
HETATM   20  O   UNL     1     -20.861   2.105  -7.669  1.00  0.00    -0.273 OA
HETATM   21  C   UNL     1     -24.024   2.879   0.026  1.00  0.00     0.001 A 
HETATM   22  C   UNL     1     -25.304   2.154  -1.897  1.00  0.00     0.012 A 
HETATM   23  O   UNL     1     -23.628  -2.818  -7.350  1.00  0.00    -0.268 OA
HETATM   24  C   UNL     1     -21.894   0.650  -2.056  1.00  0.00     0.024 C 
HETATM   25  C   UNL     1     -21.525  -0.109  -6.960  1.00  0.00     0.021 C 
ENDROOT
BRANCH  10  26
HETATM   26  O   UNL     1     -19.506  -0.240  -9.991  1.00  0.00    -0.357 OA
ATOM     27  HO  UNL     1     -18.651  -0.240  -9.577  1.00  0.00     0.217 HD
ENDBRANCH  10  26
TORSDOF 1
ENDMDL
MODEL 6
REMARK VINA RESULT:      -5.1      3.418      5.071
REMARK  1 active torsions:
REMARK  status: ('A' for Active; 'I' for Inactive)
REMARK    1  A    between atoms: C_10  and  O_24 
ROOT
HETATM    1  C   UNL     1     -18.926  -1.277  -2.350  1.00  0.00    -0.025 A 
HETATM    2  C   UNL     1     -21.330  -0.413  -3.451  1.00  0.00    -0.025 C 
HETATM    3  C   UNL     1     -17.964  -2.933  -0.853  1.00  0.00     0.001 A 
HETATM    4  C   UNL     1     -20.154  -2.007  -0.364  1.00  0.00     0.012 A 
HETATM    5  N   UNL     1     -21.287   1.835  -8.481  1.00  0.00    -0.342 N 
ATOM      6  HN  UNL     1     -21.165   2.253  -9.403  1.00  0.00     0.163 HD
HETATM    7  O   UNL     1     -22.304  -2.280  -9.931  1.00  0.00    -0.257 OA
HETATM    8  C   UNL     1     -18.871  -0.566  -3.571  1.00  0.00     0.024 C 
HETATM    9  C   UNL     1     -20.119  -1.261  -1.555  1.00  0.00    -0.025 A 
HETATM   10  C   UNL     1     -22.667  -0.049  -9.218  1.00  0.00     0.146 C 
HETATM   11  C   UNL     1     -22.545  -0.730  -4.173  1.00  0.00     0.015 C 
HETATM   12  C   UNL     1     -20.665   1.029  -6.413  1.00  0.00     0.044 C 
HETATM   13  C   UNL     1     -20.595   2.158  -7.351  1.00  0.00     0.253 C 
HETATM   14  C   UNL     1     -20.056  -0.011  -4.072  1.00  0.00    -0.024 C 
HETATM   15  C   UNL     1     -22.500  -1.499  -9.016  1.00  0.00     0.320 C 
HETATM   16  C   UNL     1     -22.700  -1.466  -5.319  1.00  0.00     0.039 C 
HETATM   17  C   UNL     1     -22.189   0.836  -8.145  1.00  0.00     0.185 C 
HETATM   18  C   UNL     1     -22.204  -1.109  -6.611  1.00  0.00     0.089 C 
HETATM   19  C   UNL     1     -19.930   1.076  -5.117  1.00  0.00     0.030 C 
HETATM   20  O   UNL     1     -22.370  -1.989  -7.685  1.00  0.00    -0.273 OA
HETATM   21  C   UNL     1     -19.099  -2.867  -0.046  1.00  0.00     0.001 A 
HETATM   22  C   UNL     1     -17.849  -2.105  -1.975  1.00  0.00     0.012 A 
HETATM   23  O   UNL     1     -19.624   2.943  -7.326  1.00  0.00    -0.268 OA
HETATM   24  C   UNL     1     -21.269  -0.617  -2.065  1.00  0.00     0.024 C 
HETATM   25  C   UNL     1     -21.707   0.217  -6.951  1.00  0.00     0.021 C 
ENDROOT
BRANCH  10  26
HETATM   26  O   UNL     1     -23.767   0.384  -9.952  1.00  0.00    -0.357 OA
ATOM     27  HO  UNL     1     -23.631   0.610 -10.864  1.00  0.00     0.217 HD
ENDBRANCH  10  26
TORSDOF 1
ENDMDL
