REMARK  3 active torsions:
REMARK  status: ('A' for Active; 'I' for Inactive)
REMARK    1  A    between atoms: C_10  and  C_17 
REMARK    2  A    between atoms: C_12  and  O_13 
REMARK    3  A    between atoms: C_12  and  O_21 
ROOT
HETATM    1  C   UNL     1     -39.447 -19.944 -14.304  1.00  0.00     0.074 C 
HETATM    2  C   UNL     1     -37.574 -19.457 -12.883  1.00  0.00     0.020 C 
HETATM    3  C   UNL     1     -35.983 -17.814 -12.508  1.00  0.00    -0.022 C 
HETATM    4  C   UNL     1     -36.853 -17.278 -13.613  1.00  0.00     0.050 C 
HETATM    5  O   UNL     1     -36.182 -19.494 -10.775  1.00  0.00    -0.321 OA
HETATM    6  C   UNL     1     -34.717 -17.602 -10.499  1.00  0.00     0.013 C 
HETATM    7  C   UNL     1     -36.452 -19.066 -12.025  1.00  0.00     0.089 C 
HETATM    8  C   UNL     1     -38.468 -20.598 -13.330  1.00  0.00     0.188 C 
HETATM    9  C   UNL     1     -35.291 -18.781 -10.034  1.00  0.00     0.156 C 
HETATM   10  C   UNL     1     -37.466 -18.575 -14.114  1.00  0.00     0.027 C 
HETATM   11  C   UNL     1     -38.869 -18.583 -14.666  1.00  0.00     0.015 C 
HETATM   12  C   UNL     1     -34.969 -17.183 -11.827  1.00  0.00     0.025 C 
ENDROOT
BRANCH   6  13
HETATM   13  C   UNL     1     -33.824 -16.778  -9.636  1.00  0.00     0.044 C 
HETATM   14  C   UNL     1     -33.579 -15.448  -9.982  1.00  0.00     0.030 C 
HETATM   15  C   UNL     1     -33.248 -14.524  -9.007  1.00  0.00     0.004 C 
HETATM   16  C   UNL     1     -33.235 -14.935  -7.686  1.00  0.00     0.017 C 
HETATM   17  C   UNL     1     -33.320 -16.291  -7.446  1.00  0.00     0.088 C 
HETATM   18  N   UNL     1     -33.535 -17.216  -8.398  1.00  0.00    -0.365 N 
ATOM     19  HN  UNL     1     -33.481 -18.213  -8.189  1.00  0.00     0.165 HD
ENDBRANCH   6  13
BRANCH   8  20
HETATM   20  O   UNL     1     -39.232 -21.129 -12.297  1.00  0.00    -0.362 OA
ATOM     21  HO  UNL     1     -38.623 -21.536 -11.691  1.00  0.00     0.213 HD
ENDBRANCH   8  20
BRANCH   8  22
HETATM   22  O   UNL     1     -37.704 -21.605 -13.942  1.00  0.00    -0.362 OA
ATOM     23  HO  UNL     1     -37.095 -22.012 -13.336  1.00  0.00     0.213 HD
ENDBRANCH   8  22
TORSDOF 3
