REMARK  2 active torsions:
REMARK  status: ('A' for Active; 'I' for Inactive)
REMARK    1  A    between atoms: C_5  and  C_6 
REMARK    2  A    between atoms: C_5  and  C_13 
ROOT
HETATM    1  C   UNL     1     -36.152 -19.885 -11.717  1.00  0.00    -0.010 C 
HETATM    2  C   UNL     1     -34.983 -17.669 -11.612  1.00  0.00     0.010 C 
HETATM    3  C   UNL     1     -34.656 -19.498  -9.887  1.00  0.00     0.005 C 
HETATM    4  C   UNL     1     -37.481 -20.407 -12.290  1.00  0.00     0.010 C 
HETATM    5  C   UNL     1     -38.800 -19.292 -14.312  1.00  0.00     0.005 C 
HETATM    6  C   UNL     1     -38.365 -18.082 -15.151  1.00  0.00     0.001 C 
HETATM    7  C   UNL     1     -36.080 -19.979 -10.197  1.00  0.00     0.005 C 
HETATM    8  C   UNL     1     -34.633 -17.984 -10.137  1.00  0.00    -0.010 C 
HETATM    9  C   UNL     1     -36.291 -18.369 -12.007  1.00  0.00    -0.006 C 
HETATM   10  C   UNL     1     -37.507 -19.687 -13.636  1.00  0.00    -0.010 C 
HETATM   11  C   UNL     1     -36.642 -18.431 -13.500  1.00  0.00    -0.006 C 
HETATM   12  C   UNL     1     -37.466 -17.328 -14.162  1.00  0.00     0.005 C 
ENDROOT
BRANCH   8  13
HETATM   13  C   UNL     1     -33.182 -17.557  -9.817  1.00  0.00     0.043 C 
BRANCH  13  14
HETATM   14  C   UNL     1     -33.195 -16.081  -9.453  1.00  0.00    -0.058 C 
HETATM   15  C   UNL     1     -33.089 -15.168 -10.553  1.00  0.00     0.007 C 
HETATM   16  C   UNL     1     -33.468 -13.848 -10.673  1.00  0.00     0.001 C 
HETATM   17  C   UNL     1     -33.824 -12.949  -9.624  1.00  0.00     0.000 C 
HETATM   18  C   UNL     1     -33.997 -13.262  -8.253  1.00  0.00     0.000 C 
HETATM   19  C   UNL     1     -33.721 -14.461  -7.547  1.00  0.00     0.001 C 
HETATM   20  C   UNL     1     -33.372 -15.710  -8.085  1.00  0.00     0.007 C 
ENDBRANCH  13  14
ENDBRANCH   8  13
TORSDOF 2
