REMARK  9 active torsions:
REMARK  status: ('A' for Active; 'I' for Inactive)
REMARK    1  A    between atoms: N_2  and  C_10 
REMARK    2  A    between atoms: N_2  and  C_17 
REMARK    3  A    between atoms: C_7  and  C_37 
REMARK    4  A    between atoms: C_7  and  C_40 
REMARK    5  A    between atoms: C_20  and  N_23 
REMARK    6  A    between atoms: C_20  and  C_37 
REMARK    7  A    between atoms: C_27  and  C_39 
REMARK    8  A    between atoms: C_30  and  N_35 
REMARK    9  A    between atoms: C_30  and  C_39 
ROOT
HETATM    1  C   UNL     1      -1.607   0.059  10.418  1.00  0.00     0.009 C 
HETATM    2  C   UNL     1      -3.823   0.659  11.195  1.00  0.00     0.007 C 
HETATM    3  C   UNL     1      -1.279   2.557  10.488  1.00  0.00     0.049 C 
HETATM    4  C   UNL     1      -3.581   2.004  11.337  1.00  0.00     0.003 C 
HETATM    5  C   UNL     1      -2.957  -0.245  10.566  1.00  0.00    -0.057 C 
HETATM    6  C   UNL     1      -2.529   2.823  11.084  1.00  0.00     0.030 C 
HETATM    7  C   UNL     1      -0.893   1.226  10.287  1.00  0.00     0.030 C 
ENDROOT
BRANCH   3   8
HETATM    8  N   UNL     1      -0.411   3.613  10.303  1.00  0.00    -0.190 N 
ATOM      9  HN  UNL     1      -0.003   3.837  11.211  1.00  0.00     0.184 HD
BRANCH   8  10
HETATM   10  C   UNL     1       0.118   4.474   9.395  1.00  0.00     0.706 C 
HETATM   11  N   UNL     1       1.437   4.378   9.085  1.00  0.00    -0.134 N 
HETATM   12  N   UNL     1       2.141   5.498   9.029  1.00  0.00    -0.297 N 
ATOM     13  HN  UNL     1       1.871   3.473   8.901  1.00  0.00     0.205 HD
HETATM   14  C   UNL     1       1.471   6.796   9.096  1.00  0.00     0.141 C 
ATOM     15  HN  UNL     1       3.156   5.455   8.939  1.00  0.00     0.183 HD
HETATM   16  C   UNL     1       0.073   6.681   8.510  1.00  0.00     0.144 C 
HETATM   17  C   UNL     1       2.259   7.811   8.327  1.00  0.00     0.018 C 
HETATM   18  C   UNL     1       1.408   7.145  10.566  1.00  0.00     0.018 C 
HETATM   19  N   UNL     1      -0.344   7.487   7.527  1.00  0.00    -0.338 N 
HETATM   20  N   UNL     1      -0.616   5.520   8.830  1.00  0.00    -0.128 N 
HETATM   21  C   UNL     1      -1.576   7.246   7.079  1.00  0.00     0.182 C 
ATOM     22  HN  UNL     1       0.239   8.233   7.147  1.00  0.00     0.168 HD
HETATM   23  N   UNL     1      -2.445   6.350   7.577  1.00  0.00    -0.347 N 
HETATM   24  C   UNL     1      -1.904   5.461   8.405  1.00  0.00     0.209 C 
ATOM     25  HN  UNL     1      -3.437   6.352   7.340  1.00  0.00     0.167 HD
HETATM   26  C   UNL     1       2.829   8.955   8.937  1.00  0.00    -0.001 C 
HETATM   27  C   UNL     1       2.939   9.038  10.322  1.00  0.00    -0.000 C 
HETATM   28  C   UNL     1       2.319   8.082  11.118  1.00  0.00    -0.001 C 
ENDBRANCH   8  10
ENDBRANCH   3   8
BRANCH   5  29
HETATM   29  C   UNL     1      -3.516  -1.546  10.042  1.00  0.00     0.058 C 
BRANCH  29  30
HETATM   30  C   UNL     1      -3.070  -1.868   8.621  1.00  0.00     0.133 C 
BRANCH  30  31
HETATM   31  N   UNL     1      -4.096  -1.586   7.604  1.00  0.00    -0.360 N 
HETATM   32  C   UNL     1      -4.952  -2.589   7.319  1.00  0.00     0.091 C 
HETATM   33  C   UNL     1      -5.988  -2.653   6.442  1.00  0.00     0.017 C 
HETATM   34  C   UNL     1      -6.691  -1.658   5.797  1.00  0.00     0.001 C 
HETATM   35  C   UNL     1      -6.399  -0.310   5.837  1.00  0.00     0.002 C 
HETATM   36  C   UNL     1      -5.380   0.234   6.612  1.00  0.00     0.025 C 
HETATM   37  C   UNL     1      -4.191  -0.381   6.949  1.00  0.00     0.011 C 
BRANCH  37  38
HETATM   38  C   UNL     1      -2.934   0.335   6.519  1.00  0.00     0.059 C 
BRANCH  38  39
HETATM   39  C   UNL     1      -1.780  -0.645   6.436  1.00  0.00     0.033 C 
BRANCH  39  40
HETATM   40  C   UNL     1      -1.240  -0.777   5.014  1.00  0.00     0.230 C 
BRANCH  40  41
HETATM   41  N   UNL     1      -0.125  -1.755   5.103  1.00  0.00    -0.079 N 
ATOM     42  HN3 UNL     1       0.586  -1.505   5.790  1.00  0.00     0.274 HD
ATOM     43  HN2 UNL     1      -0.392  -2.645   5.525  1.00  0.00     0.274 HD
ATOM     44  HN1 UNL     1       0.236  -1.843   4.153  1.00  0.00     0.274 HD
ENDBRANCH  40  41
ENDBRANCH  39  40
ENDBRANCH  38  39
ENDBRANCH  37  38
ENDBRANCH  30  31
ENDBRANCH  29  30
ENDBRANCH   5  29
TORSDOF 9
