MODEL 1
REMARK VINA RESULT:      -8.6      0.000      0.000
REMARK  4 active torsions:
REMARK  status: ('A' for Active; 'I' for Inactive)
REMARK    1  A    between atoms: N_3  and  C_23 
REMARK    2  A    between atoms: C_14  and  C_16 
REMARK    3  A    between atoms: C_16  and  C_30 
REMARK    4  A    between atoms: C_18  and  O_22 
ROOT
HETATM    1  C   UNL     1      51.141  34.493  19.578  1.00  0.00     0.159 C 
HETATM    2  O   UNL     1      51.176  36.010  16.894  1.00  0.00    -0.267 OA
HETATM    3  N   UNL     1      50.999  35.889  19.176  1.00  0.00    -0.328 N 
HETATM    4  N   UNL     1      47.821  38.385  19.110  1.00  0.00    -0.341 N 
ATOM      5  HN  UNL     1      47.729  39.213  19.699  1.00  0.00     0.167 HD
HETATM    6  C   UNL     1      49.207  36.785  17.959  1.00  0.00     0.060 C 
HETATM    7  C   UNL     1      46.755  37.857  18.480  1.00  0.00     0.113 C 
HETATM    8  C   UNL     1      48.085  36.208  17.363  1.00  0.00     0.039 C 
HETATM    9  C   UNL     1      50.073  37.985  19.874  1.00  0.00     0.048 C 
HETATM   10  C   UNL     1      50.527  36.174  17.898  1.00  0.00     0.259 C 
HETATM   11  C   UNL     1      50.941  36.946  20.076  1.00  0.00     0.096 C 
HETATM   12  C   UNL     1      49.030  37.775  18.936  1.00  0.00     0.050 C 
HETATM   13  C   UNL     1      46.855  36.603  17.820  1.00  0.00     0.061 C 
ENDROOT
BRANCH  13  14
HETATM   14  C   UNL     1      45.682  35.718  17.712  1.00  0.00     0.212 C 
HETATM   15  O   UNL     1      45.173  35.217  18.711  1.00  0.00    -0.285 OA
BRANCH  14  16
HETATM   16  C   UNL     1      45.188  35.443  16.339  1.00  0.00     0.084 C 
HETATM   17  N   UNL     1      44.547  34.286  16.135  1.00  0.00    -0.352 N 
HETATM   18  C   UNL     1      43.351  34.440  15.504  1.00  0.00     0.045 C 
ATOM     19  HN  UNL     1      44.917  33.380  16.423  1.00  0.00     0.166 HD
HETATM   20  C   UNL     1      43.221  35.485  14.592  1.00  0.00    -0.009 C 
HETATM   21  C   UNL     1      42.223  33.753  15.940  1.00  0.00     0.067 C 
HETATM   22  C   UNL     1      41.930  35.931  14.256  1.00  0.00     0.016 C 
HETATM   23  C   UNL     1      44.359  36.272  14.299  1.00  0.00     0.016 C 
HETATM   24  C   UNL     1      40.826  35.386  14.885  1.00  0.00     0.038 C 
HETATM   25  C   UNL     1      40.974  34.315  15.765  1.00  0.00     0.070 C 
HETATM   26  C   UNL     1      45.349  36.319  15.267  1.00  0.00     0.034 C 
BRANCH  25  27
HETATM   27  O   UNL     1      39.933  33.938  16.560  1.00  0.00    -0.356 OA
HETATM   28  C   UNL     1      38.708  33.760  15.853  1.00  0.00     0.210 C 
ENDBRANCH  25  27
ENDBRANCH  14  16
ENDBRANCH  13  14
BRANCH   7  29
HETATM   29  N   UNL     1      45.595  38.550  18.470  1.00  0.00    -0.385 N 
ATOM     30  HN2 UNL     1      45.025  38.595  17.625  1.00  0.00     0.157 HD
ATOM     31  HN1 UNL     1      45.306  39.039  19.317  1.00  0.00     0.157 HD
ENDBRANCH   7  29
TORSDOF 4
ENDMDL
MODEL 2
REMARK VINA RESULT:      -8.5      2.216      7.899
REMARK  4 active torsions:
REMARK  status: ('A' for Active; 'I' for Inactive)
REMARK    1  A    between atoms: N_3  and  C_23 
REMARK    2  A    between atoms: C_14  and  C_16 
REMARK    3  A    between atoms: C_16  and  C_30 
REMARK    4  A    between atoms: C_18  and  O_22 
ROOT
HETATM    1  C   UNL     1      41.625  34.040  12.579  1.00  0.00     0.159 C 
HETATM    2  O   UNL     1      40.160  32.820  15.002  1.00  0.00    -0.267 OA
HETATM    3  N   UNL     1      40.954  34.575  13.760  1.00  0.00    -0.328 N 
HETATM    4  N   UNL     1      42.355  36.369  17.099  1.00  0.00    -0.341 N 
ATOM      5  HN  UNL     1      42.177  37.343  17.346  1.00  0.00     0.167 HD
HETATM    6  C   UNL     1      41.692  34.346  15.973  1.00  0.00     0.060 C 
HETATM    7  C   UNL     1      43.339  35.670  17.694  1.00  0.00     0.113 C 
HETATM    8  C   UNL     1      42.755  33.649  16.548  1.00  0.00     0.039 C 
HETATM    9  C   UNL     1      40.874  36.488  15.199  1.00  0.00     0.048 C 
HETATM   10  C   UNL     1      40.877  33.786  14.903  1.00  0.00     0.259 C 
HETATM   11  C   UNL     1      40.715  35.929  13.960  1.00  0.00     0.096 C 
HETATM   12  C   UNL     1      41.604  35.732  16.153  1.00  0.00     0.050 C 
HETATM   13  C   UNL     1      43.702  34.383  17.214  1.00  0.00     0.061 C 
ENDROOT
BRANCH  13  14
HETATM   14  C   UNL     1      45.085  33.895  17.353  1.00  0.00     0.212 C 
HETATM   15  O   UNL     1      45.364  33.002  18.148  1.00  0.00    -0.285 OA
BRANCH  14  16
HETATM   16  C   UNL     1      46.109  34.566  16.512  1.00  0.00     0.084 C 
HETATM   17  N   UNL     1      46.354  35.859  16.754  1.00  0.00    -0.352 N 
HETATM   18  C   UNL     1      47.679  36.134  16.904  1.00  0.00     0.045 C 
ATOM     19  HN  UNL     1      45.623  36.567  16.820  1.00  0.00     0.166 HD
HETATM   20  C   UNL     1      48.592  35.369  16.182  1.00  0.00    -0.009 C 
HETATM   21  C   UNL     1      48.121  36.963  17.930  1.00  0.00     0.067 C 
HETATM   22  C   UNL     1      49.930  35.329  16.616  1.00  0.00     0.016 C 
HETATM   23  C   UNL     1      48.098  34.414  15.264  1.00  0.00     0.016 C 
HETATM   24  C   UNL     1      50.298  35.976  17.781  1.00  0.00     0.038 C 
HETATM   25  C   UNL     1      49.378  36.768  18.467  1.00  0.00     0.070 C 
HETATM   26  C   UNL     1      46.823  33.926  15.500  1.00  0.00     0.034 C 
BRANCH  25  27
HETATM   27  O   UNL     1      49.663  37.206  19.726  1.00  0.00    -0.356 OA
HETATM   28  C   UNL     1      49.484  38.610  19.898  1.00  0.00     0.210 C 
ENDBRANCH  25  27
ENDBRANCH  14  16
ENDBRANCH  13  14
BRANCH   7  29
HETATM   29  N   UNL     1      43.962  36.204  18.768  1.00  0.00    -0.385 N 
ATOM     30  HN2 UNL     1      43.767  37.163  19.056  1.00  0.00     0.157 HD
ATOM     31  HN1 UNL     1      44.641  35.638  19.276  1.00  0.00     0.157 HD
ENDBRANCH   7  29
TORSDOF 4
ENDMDL
MODEL 3
REMARK VINA RESULT:      -8.5      2.356      8.058
REMARK  4 active torsions:
REMARK  status: ('A' for Active; 'I' for Inactive)
REMARK    1  A    between atoms: N_3  and  C_23 
REMARK    2  A    between atoms: C_14  and  C_16 
REMARK    3  A    between atoms: C_16  and  C_30 
REMARK    4  A    between atoms: C_18  and  O_22 
ROOT
HETATM    1  C   UNL     1      43.262  31.693  12.338  1.00  0.00     0.159 C 
HETATM    2  O   UNL     1      41.269  30.862  14.539  1.00  0.00    -0.267 OA
HETATM    3  N   UNL     1      42.055  32.275  12.915  1.00  0.00    -0.328 N 
HETATM    4  N   UNL     1      41.467  35.460  15.333  1.00  0.00    -0.341 N 
ATOM      5  HN  UNL     1      40.972  36.308  15.057  1.00  0.00     0.167 HD
HETATM    6  C   UNL     1      41.842  33.091  15.102  1.00  0.00     0.060 C 
HETATM    7  C   UNL     1      42.254  35.439  16.425  1.00  0.00     0.113 C 
HETATM    8  C   UNL     1      42.706  33.098  16.198  1.00  0.00     0.039 C 
HETATM    9  C   UNL     1      40.926  34.360  13.257  1.00  0.00     0.048 C 
HETATM   10  C   UNL     1      41.706  31.941  14.219  1.00  0.00     0.259 C 
HETATM   11  C   UNL     1      41.434  33.412  12.411  1.00  0.00     0.096 C 
HETATM   12  C   UNL     1      41.354  34.309  14.608  1.00  0.00     0.050 C 
HETATM   13  C   UNL     1      43.083  34.318  16.696  1.00  0.00     0.061 C 
ENDROOT
BRANCH  13  14
HETATM   14  C   UNL     1      44.358  34.484  17.416  1.00  0.00     0.212 C 
HETATM   15  O   UNL     1      44.461  34.177  18.600  1.00  0.00    -0.285 OA
BRANCH  14  16
HETATM   16  C   UNL     1      45.479  35.075  16.642  1.00  0.00     0.084 C 
HETATM   17  N   UNL     1      45.749  36.371  16.841  1.00  0.00    -0.352 N 
HETATM   18  C   UNL     1      47.064  36.611  17.101  1.00  0.00     0.045 C 
ATOM     19  HN  UNL     1      45.043  37.105  16.802  1.00  0.00     0.166 HD
HETATM   20  C   UNL     1      48.011  35.778  16.508  1.00  0.00    -0.009 C 
HETATM   21  C   UNL     1      47.440  37.479  18.120  1.00  0.00     0.067 C 
HETATM   22  C   UNL     1      49.300  35.718  17.068  1.00  0.00     0.016 C 
HETATM   23  C   UNL     1      47.568  34.792  15.597  1.00  0.00     0.016 C 
HETATM   24  C   UNL     1      49.583  36.414  18.228  1.00  0.00     0.038 C 
HETATM   25  C   UNL     1      48.634  37.272  18.783  1.00  0.00     0.070 C 
HETATM   26  C   UNL     1      46.259  34.359  15.737  1.00  0.00     0.034 C 
BRANCH  25  27
HETATM   27  O   UNL     1      48.817  37.768  20.040  1.00  0.00    -0.356 OA
HETATM   28  C   UNL     1      49.533  39.000  20.070  1.00  0.00     0.210 C 
ENDBRANCH  25  27
ENDBRANCH  14  16
ENDBRANCH  13  14
BRANCH   7  29
HETATM   29  N   UNL     1      42.226  36.493  17.270  1.00  0.00    -0.385 N 
ATOM     30  HN2 UNL     1      41.763  37.361  17.001  1.00  0.00     0.157 HD
ATOM     31  HN1 UNL     1      42.689  36.412  18.175  1.00  0.00     0.157 HD
ENDBRANCH   7  29
TORSDOF 4
ENDMDL
MODEL 4
REMARK VINA RESULT:      -8.4      3.166      7.541
REMARK  4 active torsions:
REMARK  status: ('A' for Active; 'I' for Inactive)
REMARK    1  A    between atoms: N_3  and  C_23 
REMARK    2  A    between atoms: C_14  and  C_16 
REMARK    3  A    between atoms: C_16  and  C_30 
REMARK    4  A    between atoms: C_18  and  O_22 
ROOT
HETATM    1  C   UNL     1      44.959  31.080  14.425  1.00  0.00     0.159 C 
HETATM    2  O   UNL     1      42.209  30.479  15.684  1.00  0.00    -0.267 OA
HETATM    3  N   UNL     1      43.576  31.125  13.961  1.00  0.00    -0.328 N 
HETATM    4  N   UNL     1      41.106  34.203  13.091  1.00  0.00    -0.341 N 
ATOM      5  HN  UNL     1      40.752  34.409  12.157  1.00  0.00     0.167 HD
HETATM    6  C   UNL     1      41.932  32.621  14.708  1.00  0.00     0.060 C 
HETATM    7  C   UNL     1      41.046  35.119  14.075  1.00  0.00     0.113 C 
HETATM    8  C   UNL     1      41.925  33.599  15.703  1.00  0.00     0.039 C 
HETATM    9  C   UNL     1      42.146  32.161  12.342  1.00  0.00     0.048 C 
HETATM   10  C   UNL     1      42.562  31.320  14.893  1.00  0.00     0.259 C 
HETATM   11  C   UNL     1      43.216  31.361  12.639  1.00  0.00     0.096 C 
HETATM   12  C   UNL     1      41.656  32.989  13.385  1.00  0.00     0.050 C 
HETATM   13  C   UNL     1      41.707  34.894  15.312  1.00  0.00     0.061 C 
ENDROOT
BRANCH  13  14
HETATM   14  C   UNL     1      42.220  36.025  16.104  1.00  0.00     0.212 C 
HETATM   15  O   UNL     1      41.478  36.674  16.836  1.00  0.00    -0.285 OA
BRANCH  14  16
HETATM   16  C   UNL     1      43.660  36.349  15.934  1.00  0.00     0.084 C 
HETATM   17  N   UNL     1      44.298  36.888  16.981  1.00  0.00    -0.352 N 
HETATM   18  C   UNL     1      45.460  36.249  17.285  1.00  0.00     0.045 C 
ATOM     19  HN  UNL     1      43.949  37.695  17.497  1.00  0.00     0.166 HD
HETATM   20  C   UNL     1      46.183  35.670  16.244  1.00  0.00    -0.009 C 
HETATM   21  C   UNL     1      45.785  35.954  18.606  1.00  0.00     0.067 C 
HETATM   22  C   UNL     1      47.123  34.669  16.550  1.00  0.00     0.016 C 
HETATM   23  C   UNL     1      45.724  35.855  14.919  1.00  0.00     0.016 C 
HETATM   24  C   UNL     1      47.259  34.225  17.852  1.00  0.00     0.038 C 
HETATM   25  C   UNL     1      46.556  34.844  18.884  1.00  0.00     0.070 C 
HETATM   26  C   UNL     1      44.373  36.119  14.760  1.00  0.00     0.034 C 
BRANCH  25  27
HETATM   27  O   UNL     1      46.504  34.262  20.116  1.00  0.00    -0.356 OA
HETATM   28  C   UNL     1      46.746  32.857  20.097  1.00  0.00     0.210 C 
ENDBRANCH  25  27
ENDBRANCH  14  16
ENDBRANCH  13  14
BRANCH   7  29
HETATM   29  N   UNL     1      40.330  36.248  13.873  1.00  0.00    -0.385 N 
ATOM     30  HN2 UNL     1      40.677  37.148  14.201  1.00  0.00     0.157 HD
ATOM     31  HN1 UNL     1      39.428  36.181  13.401  1.00  0.00     0.157 HD
ENDBRANCH   7  29
TORSDOF 4
ENDMDL
MODEL 5
REMARK VINA RESULT:      -8.2      2.012      2.915
REMARK  4 active torsions:
REMARK  status: ('A' for Active; 'I' for Inactive)
REMARK    1  A    between atoms: N_3  and  C_23 
REMARK    2  A    between atoms: C_14  and  C_16 
REMARK    3  A    between atoms: C_16  and  C_30 
REMARK    4  A    between atoms: C_18  and  O_22 
ROOT
HETATM    1  C   UNL     1      49.524  34.637  18.756  1.00  0.00     0.159 C 
HETATM    2  O   UNL     1      49.102  35.333  15.782  1.00  0.00    -0.267 OA
HETATM    3  N   UNL     1      48.963  35.770  18.027  1.00  0.00    -0.328 N 
HETATM    4  N   UNL     1      45.175  37.106  17.583  1.00  0.00    -0.341 N 
ATOM      5  HN  UNL     1      44.832  37.994  17.949  1.00  0.00     0.167 HD
HETATM    6  C   UNL     1      46.986  35.744  16.767  1.00  0.00     0.060 C 
HETATM    7  C   UNL     1      44.323  36.140  17.191  1.00  0.00     0.113 C 
HETATM    8  C   UNL     1      46.097  34.725  16.425  1.00  0.00     0.039 C 
HETATM    9  C   UNL     1      47.439  37.605  18.246  1.00  0.00     0.048 C 
HETATM   10  C   UNL     1      48.431  35.557  16.760  1.00  0.00     0.259 C 
HETATM   11  C   UNL     1      48.582  36.961  18.635  1.00  0.00     0.096 C 
HETATM   12  C   UNL     1      46.512  36.857  17.474  1.00  0.00     0.050 C 
HETATM   13  C   UNL     1      44.803  34.844  16.862  1.00  0.00     0.061 C 
ENDROOT
BRANCH  13  14
HETATM   14  C   UNL     1      43.958  33.656  17.071  1.00  0.00     0.212 C 
HETATM   15  O   UNL     1      43.881  33.120  18.173  1.00  0.00    -0.285 OA
BRANCH  14  16
HETATM   16  C   UNL     1      43.247  33.134  15.876  1.00  0.00     0.084 C 
HETATM   17  N   UNL     1      41.908  33.139  15.904  1.00  0.00    -0.352 N 
HETATM   18  C   UNL     1      41.352  33.711  14.802  1.00  0.00     0.045 C 
ATOM     19  HN  UNL     1      41.361  32.753  16.674  1.00  0.00     0.166 HD
HETATM   20  C   UNL     1      42.028  33.594  13.590  1.00  0.00    -0.009 C 
HETATM   21  C   UNL     1      40.289  34.601  14.923  1.00  0.00     0.067 C 
HETATM   22  C   UNL     1      41.725  34.500  12.557  1.00  0.00     0.016 C 
HETATM   23  C   UNL     1      43.204  32.810  13.546  1.00  0.00     0.016 C 
HETATM   24  C   UNL     1      40.829  35.528  12.782  1.00  0.00     0.038 C 
HETATM   25  C   UNL     1      40.134  35.605  13.989  1.00  0.00     0.070 C 
HETATM   26  C   UNL     1      43.892  32.652  14.739  1.00  0.00     0.034 C 
BRANCH  25  27
HETATM   27  O   UNL     1      39.440  36.736  14.304  1.00  0.00    -0.356 OA
HETATM   28  C   UNL     1      38.594  37.200  13.254  1.00  0.00     0.210 C 
ENDBRANCH  25  27
ENDBRANCH  14  16
ENDBRANCH  13  14
BRANCH   7  29
HETATM   29  N   UNL     1      43.006  36.430  17.096  1.00  0.00    -0.385 N 
ATOM     30  HN2 UNL     1      42.682  37.176  16.482  1.00  0.00     0.157 HD
ATOM     31  HN1 UNL     1      42.344  35.899  17.662  1.00  0.00     0.157 HD
ENDBRANCH   7  29
TORSDOF 4
ENDMDL
MODEL 6
REMARK VINA RESULT:      -8.0      2.461      3.278
REMARK  4 active torsions:
REMARK  status: ('A' for Active; 'I' for Inactive)
REMARK    1  A    between atoms: N_3  and  C_23 
REMARK    2  A    between atoms: C_14  and  C_16 
REMARK    3  A    between atoms: C_16  and  C_30 
REMARK    4  A    between atoms: C_18  and  O_22 
ROOT
HETATM    1  C   UNL     1      47.758  31.757  15.305  1.00  0.00     0.159 C 
HETATM    2  O   UNL     1      49.533  34.196  14.669  1.00  0.00    -0.267 OA
HETATM    3  N   UNL     1      48.696  32.580  16.061  1.00  0.00    -0.328 N 
HETATM    4  N   UNL     1      48.158  35.313  18.990  1.00  0.00    -0.341 N 
ATOM      5  HN  UNL     1      48.479  35.196  19.951  1.00  0.00     0.167 HD
HETATM    6  C   UNL     1      48.382  34.830  16.640  1.00  0.00     0.060 C 
HETATM    7  C   UNL     1      47.242  36.247  18.671  1.00  0.00     0.113 C 
HETATM    8  C   UNL     1      47.385  35.756  16.331  1.00  0.00     0.039 C 
HETATM    9  C   UNL     1      49.248  33.280  18.285  1.00  0.00     0.048 C 
HETATM   10  C   UNL     1      48.913  33.894  15.658  1.00  0.00     0.259 C 
HETATM   11  C   UNL     1      49.106  32.285  17.357  1.00  0.00     0.096 C 
HETATM   12  C   UNL     1      48.643  34.528  17.983  1.00  0.00     0.050 C 
HETATM   13  C   UNL     1      46.664  36.277  17.374  1.00  0.00     0.061 C 
ENDROOT
BRANCH  13  14
HETATM   14  C   UNL     1      45.292  36.776  17.177  1.00  0.00     0.212 C 
HETATM   15  O   UNL     1      45.074  37.967  16.973  1.00  0.00    -0.285 OA
BRANCH  14  16
HETATM   16  C   UNL     1      44.204  35.770  17.278  1.00  0.00     0.084 C 
HETATM   17  N   UNL     1      42.944  36.216  17.208  1.00  0.00    -0.352 N 
HETATM   18  C   UNL     1      42.185  35.539  16.303  1.00  0.00     0.045 C 
ATOM     19  HN  UNL     1      42.587  36.984  17.776  1.00  0.00     0.166 HD
HETATM   20  C   UNL     1      42.466  34.191  16.090  1.00  0.00    -0.009 C 
HETATM   21  C   UNL     1      41.340  36.220  15.433  1.00  0.00     0.067 C 
HETATM   22  C   UNL     1      42.016  33.588  14.901  1.00  0.00     0.016 C 
HETATM   23  C   UNL     1      43.457  33.573  16.887  1.00  0.00     0.016 C 
HETATM   24  C   UNL     1      41.379  34.349  13.939  1.00  0.00     0.038 C 
HETATM   25  C   UNL     1      41.072  35.686  14.189  1.00  0.00     0.070 C 
HETATM   26  C   UNL     1      44.424  34.402  17.432  1.00  0.00     0.034 C 
BRANCH  25  27
HETATM   27  O   UNL     1      40.666  36.493  13.167  1.00  0.00    -0.356 OA
HETATM   28  C   UNL     1      39.276  36.806  13.203  1.00  0.00     0.210 C 
ENDBRANCH  25  27
ENDBRANCH  14  16
ENDBRANCH  13  14
BRANCH   7  29
HETATM   29  N   UNL     1      46.897  37.165  19.600  1.00  0.00    -0.385 N 
ATOM     30  HN2 UNL     1      47.064  36.990  20.591  1.00  0.00     0.157 HD
ATOM     31  HN1 UNL     1      46.452  38.031  19.295  1.00  0.00     0.157 HD
ENDBRANCH   7  29
TORSDOF 4
ENDMDL
MODEL 7
REMARK VINA RESULT:      -8.0      3.567      5.453
REMARK  4 active torsions:
REMARK  status: ('A' for Active; 'I' for Inactive)
REMARK    1  A    between atoms: N_3  and  C_23 
REMARK    2  A    between atoms: C_14  and  C_16 
REMARK    3  A    between atoms: C_16  and  C_30 
REMARK    4  A    between atoms: C_18  and  O_22 
ROOT
HETATM    1  C   UNL     1      46.366  32.374  16.135  1.00  0.00     0.159 C 
HETATM    2  O   UNL     1      47.196  35.271  15.486  1.00  0.00    -0.267 OA
HETATM    3  N   UNL     1      46.277  33.657  16.827  1.00  0.00    -0.328 N 
HETATM    4  N   UNL     1      43.150  36.072  17.675  1.00  0.00    -0.341 N 
ATOM      5  HN  UNL     1      42.814  36.267  18.618  1.00  0.00     0.167 HD
HETATM    6  C   UNL     1      44.939  35.470  16.179  1.00  0.00     0.060 C 
HETATM    7  C   UNL     1      42.391  36.343  16.596  1.00  0.00     0.113 C 
HETATM    8  C   UNL     1      44.120  35.693  15.072  1.00  0.00     0.039 C 
HETATM    9  C   UNL     1      45.039  34.828  18.510  1.00  0.00     0.048 C 
HETATM   10  C   UNL     1      46.241  34.825  16.072  1.00  0.00     0.259 C 
HETATM   11  C   UNL     1      45.854  33.791  18.144  1.00  0.00     0.096 C 
HETATM   12  C   UNL     1      44.384  35.528  17.464  1.00  0.00     0.050 C 
HETATM   13  C   UNL     1      42.785  35.897  15.306  1.00  0.00     0.061 C 
ENDROOT
BRANCH  13  14
HETATM   14  C   UNL     1      41.775  35.579  14.282  1.00  0.00     0.212 C 
HETATM   15  O   UNL     1      41.346  36.446  13.527  1.00  0.00    -0.285 OA
BRANCH  14  16
HETATM   16  C   UNL     1      41.289  34.177  14.249  1.00  0.00     0.084 C 
HETATM   17  N   UNL     1      41.554  33.459  13.150  1.00  0.00    -0.352 N 
HETATM   18  C   UNL     1      42.115  32.249  13.423  1.00  0.00     0.045 C 
ATOM     19  HN  UNL     1      41.355  33.784  12.204  1.00  0.00     0.166 HD
HETATM   20  C   UNL     1      41.755  31.612  14.609  1.00  0.00    -0.009 C 
HETATM   21  C   UNL     1      43.200  31.786  12.686  1.00  0.00     0.067 C 
HETATM   22  C   UNL     1      42.600  30.611  15.120  1.00  0.00     0.016 C 
HETATM   23  C   UNL     1      40.759  32.205  15.419  1.00  0.00     0.016 C 
HETATM   24  C   UNL     1      43.799  30.331  14.491  1.00  0.00     0.038 C 
HETATM   25  C   UNL     1      44.122  30.951  13.285  1.00  0.00     0.070 C 
HETATM   26  C   UNL     1      40.586  33.574  15.290  1.00  0.00     0.034 C 
BRANCH  25  27
HETATM   27  O   UNL     1      45.390  30.861  12.791  1.00  0.00    -0.356 OA
HETATM   28  C   UNL     1      45.602  29.721  11.963  1.00  0.00     0.210 C 
ENDBRANCH  25  27
ENDBRANCH  14  16
ENDBRANCH  13  14
BRANCH   7  29
HETATM   29  N   UNL     1      41.259  37.062  16.759  1.00  0.00    -0.385 N 
ATOM     30  HN2 UNL     1      41.067  37.534  17.642  1.00  0.00     0.157 HD
ATOM     31  HN1 UNL     1      40.593  37.113  15.988  1.00  0.00     0.157 HD
ENDBRANCH   7  29
TORSDOF 4
ENDMDL
MODEL 8
REMARK VINA RESULT:      -7.9      2.190      3.113
REMARK  4 active torsions:
REMARK  status: ('A' for Active; 'I' for Inactive)
REMARK    1  A    between atoms: N_3  and  C_23 
REMARK    2  A    between atoms: C_14  and  C_16 
REMARK    3  A    between atoms: C_16  and  C_30 
REMARK    4  A    between atoms: C_18  and  O_22 
ROOT
HETATM    1  C   UNL     1      48.392  31.952  16.829  1.00  0.00     0.159 C 
HETATM    2  O   UNL     1      49.792  34.109  15.127  1.00  0.00    -0.267 OA
HETATM    3  N   UNL     1      49.424  32.955  17.073  1.00  0.00    -0.328 N 
HETATM    4  N   UNL     1      49.411  36.408  19.174  1.00  0.00    -0.341 N 
ATOM      5  HN  UNL     1      49.959  36.568  20.019  1.00  0.00     0.167 HD
HETATM    6  C   UNL     1      49.102  35.277  17.069  1.00  0.00     0.060 C 
HETATM    7  C   UNL     1      48.383  37.213  18.849  1.00  0.00     0.113 C 
HETATM    8  C   UNL     1      47.998  36.079  16.775  1.00  0.00     0.039 C 
HETATM    9  C   UNL     1      50.439  34.257  18.809  1.00  0.00     0.048 C 
HETATM   10  C   UNL     1      49.447  34.101  16.283  1.00  0.00     0.259 C 
HETATM   11  C   UNL     1      50.150  33.039  18.256  1.00  0.00     0.096 C 
HETATM   12  C   UNL     1      49.695  35.369  18.335  1.00  0.00     0.050 C 
HETATM   13  C   UNL     1      47.512  36.876  17.779  1.00  0.00     0.061 C 
ENDROOT
BRANCH  13  14
HETATM   14  C   UNL     1      46.102  37.300  17.798  1.00  0.00     0.212 C 
HETATM   15  O   UNL     1      45.795  38.484  17.698  1.00  0.00    -0.285 OA
BRANCH  14  16
HETATM   16  C   UNL     1      45.093  36.225  17.984  1.00  0.00     0.084 C 
HETATM   17  N   UNL     1      43.873  36.430  17.473  1.00  0.00    -0.352 N 
HETATM   18  C   UNL     1      43.432  35.395  16.708  1.00  0.00     0.045 C 
ATOM     19  HN  UNL     1      43.328  37.276  17.641  1.00  0.00     0.166 HD
HETATM   20  C   UNL     1      43.845  34.108  17.045  1.00  0.00    -0.009 C 
HETATM   21  C   UNL     1      42.811  35.630  15.485  1.00  0.00     0.067 C 
HETATM   22  C   UNL     1      43.772  33.099  16.068  1.00  0.00     0.016 C 
HETATM   23  C   UNL     1      44.620  33.932  18.214  1.00  0.00     0.016 C 
HETATM   24  C   UNL     1      43.371  33.410  14.782  1.00  0.00     0.038 C 
HETATM   25  C   UNL     1      42.924  34.695  14.476  1.00  0.00     0.070 C 
HETATM   26  C   UNL     1      45.349  35.027  18.648  1.00  0.00     0.034 C 
BRANCH  25  27
HETATM   27  O   UNL     1      42.759  35.065  13.174  1.00  0.00    -0.356 OA
HETATM   28  C   UNL     1      41.508  35.697  12.912  1.00  0.00     0.210 C 
ENDBRANCH  25  27
ENDBRANCH  14  16
ENDBRANCH  13  14
BRANCH   7  29
HETATM   29  N   UNL     1      48.207  38.359  19.544  1.00  0.00    -0.385 N 
ATOM     30  HN2 UNL     1      47.654  39.122  19.155  1.00  0.00     0.157 HD
ATOM     31  HN1 UNL     1      48.648  38.452  20.459  1.00  0.00     0.157 HD
ENDBRANCH   7  29
TORSDOF 4
ENDMDL
MODEL 9
REMARK VINA RESULT:      -7.8      2.253      2.864
REMARK  4 active torsions:
REMARK  status: ('A' for Active; 'I' for Inactive)
REMARK    1  A    between atoms: N_3  and  C_23 
REMARK    2  A    between atoms: C_14  and  C_16 
REMARK    3  A    between atoms: C_16  and  C_30 
REMARK    4  A    between atoms: C_18  and  O_22 
ROOT
HETATM    1  C   UNL     1      49.514  32.074  16.751  1.00  0.00     0.159 C 
HETATM    2  O   UNL     1      49.541  34.541  14.902  1.00  0.00    -0.267 OA
HETATM    3  N   UNL     1      49.711  33.508  16.940  1.00  0.00    -0.328 N 
HETATM    4  N   UNL     1      47.407  36.363  18.634  1.00  0.00    -0.341 N 
ATOM      5  HN  UNL     1      47.651  36.867  19.487  1.00  0.00     0.167 HD
HETATM    6  C   UNL     1      48.074  35.162  16.656  1.00  0.00     0.060 C 
HETATM    7  C   UNL     1      46.147  36.367  18.160  1.00  0.00     0.113 C 
HETATM    8  C   UNL     1      46.753  35.118  16.208  1.00  0.00     0.039 C 
HETATM    9  C   UNL     1      49.546  35.250  18.575  1.00  0.00     0.048 C 
HETATM   10  C   UNL     1      49.139  34.390  16.029  1.00  0.00     0.259 C 
HETATM   11  C   UNL     1      50.103  34.076  18.146  1.00  0.00     0.096 C 
HETATM   12  C   UNL     1      48.347  35.661  17.936  1.00  0.00     0.050 C 
HETATM   13  C   UNL     1      45.778  35.515  17.086  1.00  0.00     0.061 C 
ENDROOT
BRANCH  13  14
HETATM   14  C   UNL     1      44.401  35.003  16.974  1.00  0.00     0.212 C 
HETATM   15  O   UNL     1      44.103  33.890  17.397  1.00  0.00    -0.285 OA
BRANCH  14  16
HETATM   16  C   UNL     1      43.422  35.889  16.295  1.00  0.00     0.084 C 
HETATM   17  N   UNL     1      43.539  36.036  14.969  1.00  0.00    -0.352 N 
HETATM   18  C   UNL     1      42.371  35.830  14.302  1.00  0.00     0.045 C 
ATOM     19  HN  UNL     1      44.415  36.277  14.506  1.00  0.00     0.166 HD
HETATM   20  C   UNL     1      41.181  36.168  14.944  1.00  0.00    -0.009 C 
HETATM   21  C   UNL     1      42.342  35.070  13.137  1.00  0.00     0.067 C 
HETATM   22  C   UNL     1      39.981  35.594  14.487  1.00  0.00     0.016 C 
HETATM   23  C   UNL     1      41.251  36.793  16.210  1.00  0.00     0.016 C 
HETATM   24  C   UNL     1      40.007  34.655  13.473  1.00  0.00     0.038 C 
HETATM   25  C   UNL     1      41.202  34.359  12.818  1.00  0.00     0.070 C 
HETATM   26  C   UNL     1      42.396  36.563  16.956  1.00  0.00     0.034 C 
BRANCH  25  27
HETATM   27  O   UNL     1      41.276  33.275  11.994  1.00  0.00    -0.356 OA
HETATM   28  C   UNL     1      42.211  32.291  12.426  1.00  0.00     0.210 C 
ENDBRANCH  25  27
ENDBRANCH  14  16
ENDBRANCH  13  14
BRANCH   7  29
HETATM   29  N   UNL     1      45.246  37.210  18.710  1.00  0.00    -0.385 N 
ATOM     30  HN2 UNL     1      45.516  37.834  19.471  1.00  0.00     0.157 HD
ATOM     31  HN1 UNL     1      44.287  37.202  18.362  1.00  0.00     0.157 HD
ENDBRANCH   7  29
TORSDOF 4
ENDMDL
