MODEL 1
REMARK VINA RESULT:      -7.5      0.000      0.000
REMARK  5 active torsions:
REMARK  status: ('A' for Active; 'I' for Inactive)
REMARK    1  A    between atoms: C_5  and  C_11 
REMARK    2  A    between atoms: N_6  and  C_10 
REMARK    3  A    between atoms: C_7  and  O_18 
REMARK    4  A    between atoms: C_11  and  O_14 
REMARK    5  A    between atoms: C_11  and  C_22 
ROOT
HETATM    1  C   UNL     1      11.918  11.518   9.030  1.00  0.00     0.012 C 
HETATM    2  N   UNL     1       8.433  10.268  10.740  1.00  0.00    -0.262 N 
HETATM    3  C   UNL     1      10.383   9.691   9.252  1.00  0.00     0.043 C 
HETATM    4  C   UNL     1      10.958  12.405   9.494  1.00  0.00     0.032 C 
HETATM    5  C   UNL     1       9.512  10.535   9.919  1.00  0.00     0.071 C 
HETATM    6  O   UNL     1       6.763  11.639  11.478  1.00  0.00    -0.246 OA
HETATM    7  C   UNL     1       7.910  11.472  11.115  1.00  0.00     0.332 C 
HETATM    8  N   UNL     1       8.900  12.391  10.973  1.00  0.00    -0.306 N 
ATOM      9  HN  UNL     1       8.954  13.299  11.436  1.00  0.00     0.171 HD
HETATM   10  C   UNL     1      11.688  10.145   9.134  1.00  0.00    -0.017 C 
HETATM   11  C   UNL     1       9.824  11.868  10.082  1.00  0.00     0.063 C 
ENDROOT
BRANCH   2  12
HETATM   12  C   UNL     1       7.974   8.999  11.154  1.00  0.00     0.044 C 
HETATM   13  C   UNL     1       7.149   8.246  10.350  1.00  0.00     0.033 C 
HETATM   14  C   UNL     1       6.916   6.915  10.627  1.00  0.00     0.039 C 
HETATM   15  C   UNL     1       7.365   6.385  11.822  1.00  0.00     0.065 C 
HETATM   16  C   UNL     1       8.025   7.189  12.717  1.00  0.00     0.039 C 
HETATM   17  C   UNL     1       8.395   8.470  12.358  1.00  0.00     0.033 C 
BRANCH  15  18
HETATM   18  O   UNL     1       7.339   5.046  12.049  1.00  0.00    -0.361 OA
ATOM     19  HO  UNL     1       7.214   4.429  11.338  1.00  0.00     0.217 HD
ENDBRANCH  15  18
ENDBRANCH   2  12
BRANCH  10  20
HETATM   20  C   UNL     1      12.805   9.162   9.387  1.00  0.00     0.252 C 
BRANCH  20  21
HETATM   21  C   UNL     1      14.026   9.462   8.516  1.00  0.00     0.207 C 
HETATM   22  O   UNL     1      13.851   9.621   7.274  1.00  0.00    -0.646 OA
HETATM   23  O   UNL     1      15.143   9.526   9.078  1.00  0.00    -0.646 OA
ENDBRANCH  20  21
BRANCH  20  24
HETATM   24  O   UNL     1      13.147   9.236  10.756  1.00  0.00    -0.380 OA
ATOM     25  HO  UNL     1      12.882   8.443  11.206  1.00  0.00     0.211 HD
ENDBRANCH  20  24
ENDBRANCH  10  20
TORSDOF 5
ENDMDL
MODEL 2
REMARK VINA RESULT:      -7.4      1.585      6.060
REMARK  5 active torsions:
REMARK  status: ('A' for Active; 'I' for Inactive)
REMARK    1  A    between atoms: C_5  and  C_11 
REMARK    2  A    between atoms: N_6  and  C_10 
REMARK    3  A    between atoms: C_7  and  O_18 
REMARK    4  A    between atoms: C_11  and  O_14 
REMARK    5  A    between atoms: C_11  and  C_22 
ROOT
HETATM    1  C   UNL     1       6.551   8.702  11.871  1.00  0.00     0.012 C 
HETATM    2  N   UNL     1       9.672  10.688  10.155  1.00  0.00    -0.262 N 
HETATM    3  C   UNL     1       8.865   8.573  11.262  1.00  0.00     0.043 C 
HETATM    4  C   UNL     1       6.578  10.083  11.753  1.00  0.00     0.032 C 
HETATM    5  C   UNL     1       8.829   9.916  10.932  1.00  0.00     0.071 C 
HETATM    6  O   UNL     1       9.846  12.956   9.968  1.00  0.00    -0.246 OA
HETATM    7  C   UNL     1       9.182  11.961  10.178  1.00  0.00     0.332 C 
HETATM    8  N   UNL     1       7.865  11.868  10.497  1.00  0.00    -0.306 N 
ATOM      9  HN  UNL     1       7.146  12.568  10.307  1.00  0.00     0.171 HD
HETATM   10  C   UNL     1       7.632   7.954  11.401  1.00  0.00    -0.017 C 
HETATM   11  C   UNL     1       7.677  10.649  11.128  1.00  0.00     0.063 C 
ENDROOT
BRANCH   2  12
HETATM   12  C   UNL     1      10.806  10.248   9.436  1.00  0.00     0.044 C 
HETATM   13  C   UNL     1      10.783  10.155   8.064  1.00  0.00     0.033 C 
HETATM   14  C   UNL     1      11.950   9.984   7.348  1.00  0.00     0.039 C 
HETATM   15  C   UNL     1      13.125   9.720   8.025  1.00  0.00     0.065 C 
HETATM   16  C   UNL     1      13.114   9.622   9.394  1.00  0.00     0.039 C 
HETATM   17  C   UNL     1      11.978   9.956  10.105  1.00  0.00     0.033 C 
BRANCH  15  18
HETATM   18  O   UNL     1      14.324   9.746   7.387  1.00  0.00    -0.361 OA
ATOM     19  HO  UNL     1      15.139   9.670   7.870  1.00  0.00     0.217 HD
ENDBRANCH  15  18
ENDBRANCH   2  12
BRANCH  10  20
HETATM   20  C   UNL     1       7.456   6.583  10.794  1.00  0.00     0.252 C 
BRANCH  20  21
HETATM   21  C   UNL     1       6.540   5.704  11.648  1.00  0.00     0.207 C 
HETATM   22  O   UNL     1       6.954   5.338  12.785  1.00  0.00    -0.646 OA
HETATM   23  O   UNL     1       5.428   5.382  11.172  1.00  0.00    -0.646 OA
ENDBRANCH  20  21
BRANCH  20  24
HETATM   24  O   UNL     1       6.912   6.748   9.501  1.00  0.00    -0.380 OA
ATOM     25  HO  UNL     1       5.976   6.586   9.513  1.00  0.00     0.211 HD
ENDBRANCH  20  24
ENDBRANCH  10  20
TORSDOF 5
ENDMDL
MODEL 3
REMARK VINA RESULT:      -7.3      3.462      6.501
REMARK  5 active torsions:
REMARK  status: ('A' for Active; 'I' for Inactive)
REMARK    1  A    between atoms: C_5  and  C_11 
REMARK    2  A    between atoms: N_6  and  C_10 
REMARK    3  A    between atoms: C_7  and  O_18 
REMARK    4  A    between atoms: C_11  and  O_14 
REMARK    5  A    between atoms: C_11  and  C_22 
ROOT
HETATM    1  C   UNL     1      12.619  10.031   8.495  1.00  0.00     0.012 C 
HETATM    2  N   UNL     1      11.802  14.015   8.802  1.00  0.00    -0.262 N 
HETATM    3  C   UNL     1      11.110  11.664   9.390  1.00  0.00     0.043 C 
HETATM    4  C   UNL     1      13.135  10.966   7.610  1.00  0.00     0.032 C 
HETATM    5  C   UNL     1      11.776  12.640   8.668  1.00  0.00     0.071 C 
HETATM    6  O   UNL     1      12.546  15.625   7.364  1.00  0.00    -0.246 OA
HETATM    7  C   UNL     1      12.606  14.497   7.810  1.00  0.00     0.332 C 
HETATM    8  N   UNL     1      13.423  13.477   7.437  1.00  0.00    -0.306 N 
ATOM      9  HN  UNL     1      14.320  13.565   6.958  1.00  0.00     0.171 HD
HETATM   10  C   UNL     1      11.777  10.456   9.525  1.00  0.00    -0.017 C 
HETATM   11  C   UNL     1      12.813  12.296   7.826  1.00  0.00     0.063 C 
ENDROOT
BRANCH   2  12
HETATM   12  C   UNL     1      11.158  14.785   9.796  1.00  0.00     0.044 C 
HETATM   13  C   UNL     1      11.882  15.442  10.764  1.00  0.00     0.033 C 
HETATM   14  C   UNL     1      11.288  16.396  11.564  1.00  0.00     0.039 C 
HETATM   15  C   UNL     1       9.918  16.559  11.517  1.00  0.00     0.065 C 
HETATM   16  C   UNL     1       9.167  15.766  10.685  1.00  0.00     0.039 C 
HETATM   17  C   UNL     1       9.786  14.933   9.774  1.00  0.00     0.033 C 
BRANCH  15  18
HETATM   18  O   UNL     1       9.314  17.611  12.128  1.00  0.00    -0.361 OA
ATOM     19  HO  UNL     1       9.783  18.152  12.752  1.00  0.00     0.217 HD
ENDBRANCH  15  18
ENDBRANCH   2  12
BRANCH  10  20
HETATM   20  C   UNL     1      11.767   9.790  10.880  1.00  0.00     0.252 C 
BRANCH  20  21
HETATM   21  C   UNL     1      10.588   8.827  11.024  1.00  0.00     0.207 C 
HETATM   22  O   UNL     1      10.652   7.711  10.433  1.00  0.00    -0.646 OA
HETATM   23  O   UNL     1       9.611   9.197  11.713  1.00  0.00    -0.646 OA
ENDBRANCH  20  21
BRANCH  20  24
HETATM   24  O   UNL     1      12.989   9.098  11.032  1.00  0.00    -0.380 OA
ATOM     25  HO  UNL     1      13.104   8.472  10.326  1.00  0.00     0.211 HD
ENDBRANCH  20  24
ENDBRANCH  10  20
TORSDOF 5
ENDMDL
MODEL 4
REMARK VINA RESULT:      -7.3      3.078      5.280
REMARK  5 active torsions:
REMARK  status: ('A' for Active; 'I' for Inactive)
REMARK    1  A    between atoms: C_5  and  C_11 
REMARK    2  A    between atoms: N_6  and  C_10 
REMARK    3  A    between atoms: C_7  and  O_18 
REMARK    4  A    between atoms: C_11  and  O_14 
REMARK    5  A    between atoms: C_11  and  C_22 
ROOT
HETATM    1  C   UNL     1      11.459  11.415   8.066  1.00  0.00     0.012 C 
HETATM    2  N   UNL     1       8.386  12.008  10.680  1.00  0.00    -0.262 N 
HETATM    3  C   UNL     1      10.720  12.652   9.980  1.00  0.00     0.043 C 
HETATM    4  C   UNL     1      10.463  10.472   8.267  1.00  0.00     0.032 C 
HETATM    5  C   UNL     1       9.601  11.840  10.043  1.00  0.00     0.071 C 
HETATM    6  O   UNL     1       6.733  10.500  11.131  1.00  0.00    -0.246 OA
HETATM    7  C   UNL     1       7.648  10.887  10.433  1.00  0.00     0.332 C 
HETATM    8  N   UNL     1       8.157  10.322   9.307  1.00  0.00    -0.306 N 
ATOM      9  HN  UNL     1       7.675   9.672   8.686  1.00  0.00     0.171 HD
HETATM   10  C   UNL     1      11.428  12.609   8.789  1.00  0.00    -0.017 C 
HETATM   11  C   UNL     1       9.452  10.792   9.159  1.00  0.00     0.063 C 
ENDROOT
BRANCH   2  12
HETATM   12  C   UNL     1       7.960  13.137  11.414  1.00  0.00     0.044 C 
HETATM   13  C   UNL     1       8.053  13.167  12.786  1.00  0.00     0.033 C 
HETATM   14  C   UNL     1       7.891  14.348  13.480  1.00  0.00     0.039 C 
HETATM   15  C   UNL     1       7.450  15.471  12.807  1.00  0.00     0.065 C 
HETATM   16  C   UNL     1       7.172  15.394  11.465  1.00  0.00     0.039 C 
HETATM   17  C   UNL     1       7.494  14.255  10.753  1.00  0.00     0.033 C 
BRANCH  15  18
HETATM   18  O   UNL     1       7.469  16.695  13.395  1.00  0.00    -0.361 OA
ATOM     19  HO  UNL     1       7.447  16.786  14.340  1.00  0.00     0.217 HD
ENDBRANCH  15  18
ENDBRANCH   2  12
BRANCH  10  20
HETATM   20  C   UNL     1      11.907  13.915   8.203  1.00  0.00     0.252 C 
BRANCH  20  21
HETATM   21  C   UNL     1      13.407  13.879   7.902  1.00  0.00     0.207 C 
HETATM   22  O   UNL     1      14.209  14.212   8.821  1.00  0.00    -0.646 OA
HETATM   23  O   UNL     1      13.765  13.531   6.754  1.00  0.00    -0.646 OA
ENDBRANCH  20  21
BRANCH  20  24
HETATM   24  O   UNL     1      11.174  14.154   7.019  1.00  0.00    -0.380 OA
ATOM     25  HO  UNL     1      10.241  14.101   7.192  1.00  0.00     0.211 HD
ENDBRANCH  20  24
ENDBRANCH  10  20
TORSDOF 5
ENDMDL
MODEL 5
REMARK VINA RESULT:      -7.2      2.160      5.560
REMARK  5 active torsions:
REMARK  status: ('A' for Active; 'I' for Inactive)
REMARK    1  A    between atoms: C_5  and  C_11 
REMARK    2  A    between atoms: N_6  and  C_10 
REMARK    3  A    between atoms: C_7  and  O_18 
REMARK    4  A    between atoms: C_11  and  O_14 
REMARK    5  A    between atoms: C_11  and  C_22 
ROOT
HETATM    1  C   UNL     1       6.699  12.105  12.157  1.00  0.00     0.012 C 
HETATM    2  N   UNL     1       9.299   9.177  11.017  1.00  0.00    -0.262 N 
HETATM    3  C   UNL     1       8.354  11.465  10.546  1.00  0.00     0.043 C 
HETATM    4  C   UNL     1       6.558  10.787  12.563  1.00  0.00     0.032 C 
HETATM    5  C   UNL     1       8.372  10.198  11.102  1.00  0.00     0.071 C 
HETATM    6  O   UNL     1       9.123   6.970  11.575  1.00  0.00    -0.246 OA
HETATM    7  C   UNL     1       8.809   8.131  11.745  1.00  0.00     0.332 C 
HETATM    8  N   UNL     1       7.922   8.652  12.632  1.00  0.00    -0.306 N 
ATOM      9  HN  UNL     1       7.612   8.219  13.502  1.00  0.00     0.171 HD
HETATM   10  C   UNL     1       7.758  12.452  11.316  1.00  0.00    -0.017 C 
HETATM   11  C   UNL     1       7.516   9.881  12.137  1.00  0.00     0.063 C 
ENDROOT
BRANCH   2  12
HETATM   12  C   UNL     1      10.540   9.210  10.343  1.00  0.00     0.044 C 
HETATM   13  C   UNL     1      10.600   9.258   8.970  1.00  0.00     0.033 C 
HETATM   14  C   UNL     1      11.783   9.555   8.325  1.00  0.00     0.039 C 
HETATM   15  C   UNL     1      12.953   9.622   9.056  1.00  0.00     0.065 C 
HETATM   16  C   UNL     1      12.924   9.384  10.408  1.00  0.00     0.039 C 
HETATM   17  C   UNL     1      11.717   9.251  11.064  1.00  0.00     0.033 C 
BRANCH  15  18
HETATM   18  O   UNL     1      14.098  10.106   8.508  1.00  0.00    -0.361 OA
ATOM     19  HO  UNL     1      14.319   9.933   7.601  1.00  0.00     0.217 HD
ENDBRANCH  15  18
ENDBRANCH   2  12
BRANCH  10  20
HETATM   20  C   UNL     1       8.448  13.791  11.406  1.00  0.00     0.252 C 
BRANCH  20  21
HETATM   21  C   UNL     1       9.614  13.757  12.397  1.00  0.00     0.207 C 
HETATM   22  O   UNL     1       9.406  14.152  13.579  1.00  0.00    -0.646 OA
HETATM   23  O   UNL     1      10.722  13.348  11.982  1.00  0.00    -0.646 OA
ENDBRANCH  20  21
BRANCH  20  24
HETATM   24  O   UNL     1       8.911  14.129  10.115  1.00  0.00    -0.380 OA
ATOM     25  HO  UNL     1       9.259  15.013  10.110  1.00  0.00     0.211 HD
ENDBRANCH  20  24
ENDBRANCH  10  20
TORSDOF 5
ENDMDL
MODEL 6
REMARK VINA RESULT:      -7.2      3.618      6.164
REMARK  5 active torsions:
REMARK  status: ('A' for Active; 'I' for Inactive)
REMARK    1  A    between atoms: C_5  and  C_11 
REMARK    2  A    between atoms: N_6  and  C_10 
REMARK    3  A    between atoms: C_7  and  O_18 
REMARK    4  A    between atoms: C_11  and  O_14 
REMARK    5  A    between atoms: C_11  and  C_22 
ROOT
HETATM    1  C   UNL     1      10.872  11.733   8.898  1.00  0.00     0.012 C 
HETATM    2  N   UNL     1       7.764  13.433  10.918  1.00  0.00    -0.262 N 
HETATM    3  C   UNL     1      10.186  13.594  10.242  1.00  0.00     0.043 C 
HETATM    4  C   UNL     1       9.766  11.004   9.310  1.00  0.00     0.032 C 
HETATM    5  C   UNL     1       8.981  12.954  10.473  1.00  0.00     0.071 C 
HETATM    6  O   UNL     1       5.931  12.316  11.696  1.00  0.00    -0.246 OA
HETATM    7  C   UNL     1       6.916  12.366  10.987  1.00  0.00     0.332 C 
HETATM    8  N   UNL     1       7.411  11.417  10.150  1.00  0.00    -0.306 N 
ATOM      9  HN  UNL     1       6.889  10.645   9.735  1.00  0.00     0.171 HD
HETATM   10  C   UNL     1      10.941  13.096   9.192  1.00  0.00    -0.017 C 
HETATM   11  C   UNL     1       8.757  11.691   9.966  1.00  0.00     0.063 C 
ENDROOT
BRANCH   2  12
HETATM   12  C   UNL     1       7.434  14.775  11.211  1.00  0.00     0.044 C 
HETATM   13  C   UNL     1       7.272  15.199  12.510  1.00  0.00     0.033 C 
HETATM   14  C   UNL     1       7.214  16.544  12.812  1.00  0.00     0.039 C 
HETATM   15  C   UNL     1       7.132  17.464  11.785  1.00  0.00     0.065 C 
HETATM   16  C   UNL     1       7.100  17.029  10.484  1.00  0.00     0.039 C 
HETATM   17  C   UNL     1       7.324  15.698  10.190  1.00  0.00     0.033 C 
BRANCH  15  18
HETATM   18  O   UNL     1       7.277  18.794  12.020  1.00  0.00    -0.361 OA
ATOM     19  HO  UNL     1       8.131  19.173  12.188  1.00  0.00     0.217 HD
ENDBRANCH  15  18
ENDBRANCH   2  12
BRANCH  10  20
HETATM   20  C   UNL     1      11.592  14.086   8.257  1.00  0.00     0.252 C 
BRANCH  20  21
HETATM   21  C   UNL     1      13.065  13.748   8.017  1.00  0.00     0.207 C 
HETATM   22  O   UNL     1      13.363  13.066   6.995  1.00  0.00    -0.646 OA
HETATM   23  O   UNL     1      13.902  14.156   8.853  1.00  0.00    -0.646 OA
ENDBRANCH  20  21
BRANCH  20  24
HETATM   24  O   UNL     1      10.879  14.065   7.037  1.00  0.00    -0.380 OA
ATOM     25  HO  UNL     1       9.944  14.120   7.200  1.00  0.00     0.211 HD
ENDBRANCH  20  24
ENDBRANCH  10  20
TORSDOF 5
ENDMDL
MODEL 7
REMARK VINA RESULT:      -7.1      3.304      5.742
REMARK  5 active torsions:
REMARK  status: ('A' for Active; 'I' for Inactive)
REMARK    1  A    between atoms: C_5  and  C_11 
REMARK    2  A    between atoms: N_6  and  C_10 
REMARK    3  A    between atoms: C_7  and  O_18 
REMARK    4  A    between atoms: C_11  and  O_14 
REMARK    5  A    between atoms: C_11  and  C_22 
ROOT
HETATM    1  C   UNL     1      12.336   9.858   7.546  1.00  0.00     0.012 C 
HETATM    2  N   UNL     1      11.395  13.557   8.982  1.00  0.00    -0.262 N 
HETATM    3  C   UNL     1      10.615  11.204   8.531  1.00  0.00     0.043 C 
HETATM    4  C   UNL     1      13.050  10.993   7.198  1.00  0.00     0.032 C 
HETATM    5  C   UNL     1      11.430  12.312   8.382  1.00  0.00     0.071 C 
HETATM    6  O   UNL     1      12.464  15.496   8.424  1.00  0.00    -0.246 OA
HETATM    7  C   UNL     1      12.424  14.282   8.454  1.00  0.00     0.332 C 
HETATM    8  N   UNL     1      13.328  13.389   7.976  1.00  0.00    -0.306 N 
ATOM      9  HN  UNL     1      14.319  13.565   7.802  1.00  0.00     0.171 HD
HETATM   10  C   UNL     1      11.244   9.974   8.409  1.00  0.00    -0.017 C 
HETATM   11  C   UNL     1      12.659  12.194   7.767  1.00  0.00     0.063 C 
ENDROOT
BRANCH   2  12
HETATM   12  C   UNL     1      10.497  13.995   9.980  1.00  0.00     0.044 C 
HETATM   13  C   UNL     1      10.701  13.681  11.304  1.00  0.00     0.033 C 
HETATM   14  C   UNL     1       9.988  14.318  12.299  1.00  0.00     0.039 C 
HETATM   15  C   UNL     1       8.934  15.141  11.953  1.00  0.00     0.065 C 
HETATM   16  C   UNL     1       8.606  15.306  10.630  1.00  0.00     0.039 C 
HETATM   17  C   UNL     1       9.426  14.797   9.643  1.00  0.00     0.033 C 
BRANCH  15  18
HETATM   18  O   UNL     1       8.337  15.942  12.873  1.00  0.00    -0.361 OA
ATOM     19  HO  UNL     1       7.817  16.692  12.609  1.00  0.00     0.217 HD
ENDBRANCH  15  18
ENDBRANCH   2  12
BRANCH  10  20
HETATM   20  C   UNL     1      10.887   8.895   9.402  1.00  0.00     0.252 C 
BRANCH  20  21
HETATM   21  C   UNL     1      11.338   9.264  10.817  1.00  0.00     0.207 C 
HETATM   22  O   UNL     1      12.568   9.482  11.015  1.00  0.00    -0.646 OA
HETATM   23  O   UNL     1      10.465   9.321  11.713  1.00  0.00    -0.646 OA
ENDBRANCH  20  21
BRANCH  20  24
HETATM   24  O   UNL     1       9.487   8.716   9.364  1.00  0.00    -0.380 OA
ATOM     25  HO  UNL     1       9.202   8.185  10.099  1.00  0.00     0.211 HD
ENDBRANCH  20  24
ENDBRANCH  10  20
TORSDOF 5
ENDMDL
MODEL 8
REMARK VINA RESULT:      -7.0      1.677      2.081
REMARK  5 active torsions:
REMARK  status: ('A' for Active; 'I' for Inactive)
REMARK    1  A    between atoms: C_5  and  C_11 
REMARK    2  A    between atoms: N_6  and  C_10 
REMARK    3  A    between atoms: C_7  and  O_18 
REMARK    4  A    between atoms: C_11  and  O_14 
REMARK    5  A    between atoms: C_11  and  C_22 
ROOT
HETATM    1  C   UNL     1      10.909  13.573   9.023  1.00  0.00     0.012 C 
HETATM    2  N   UNL     1       8.302  10.987  10.798  1.00  0.00    -0.262 N 
HETATM    3  C   UNL     1       9.968  11.370   8.946  1.00  0.00     0.043 C 
HETATM    4  C   UNL     1       9.880  14.003   9.847  1.00  0.00     0.032 C 
HETATM    5  C   UNL     1       9.077  11.742   9.937  1.00  0.00     0.071 C 
HETATM    6  O   UNL     1       6.540  11.593  12.116  1.00  0.00    -0.246 OA
HETATM    7  C   UNL     1       7.587  11.862  11.562  1.00  0.00     0.332 C 
HETATM    8  N   UNL     1       8.259  13.043  11.541  1.00  0.00    -0.306 N 
ATOM      9  HN  UNL     1       8.181  13.796  12.225  1.00  0.00     0.171 HD
HETATM   10  C   UNL     1      11.060  12.207   8.774  1.00  0.00    -0.017 C 
HETATM   11  C   UNL     1       9.071  13.035  10.418  1.00  0.00     0.063 C 
ENDROOT
BRANCH   2  12
HETATM   12  C   UNL     1       8.277   9.579  10.905  1.00  0.00     0.044 C 
HETATM   13  C   UNL     1       9.237   8.904  11.623  1.00  0.00     0.033 C 
HETATM   14  C   UNL     1       9.070   7.574  11.949  1.00  0.00     0.039 C 
HETATM   15  C   UNL     1       8.021   6.869  11.392  1.00  0.00     0.065 C 
HETATM   16  C   UNL     1       7.168   7.495  10.519  1.00  0.00     0.039 C 
HETATM   17  C   UNL     1       7.247   8.861  10.330  1.00  0.00     0.033 C 
BRANCH  15  18
HETATM   18  O   UNL     1       7.698   5.625  11.834  1.00  0.00    -0.361 OA
ATOM     19  HO  UNL     1       6.827   5.269  11.705  1.00  0.00     0.217 HD
ENDBRANCH  15  18
ENDBRANCH   2  12
BRANCH  10  20
HETATM   20  C   UNL     1      12.416  11.571   8.583  1.00  0.00     0.252 C 
BRANCH  20  21
HETATM   21  C   UNL     1      12.564  10.975   7.182  1.00  0.00     0.207 C 
HETATM   22  O   UNL     1      11.758  10.067   6.830  1.00  0.00    -0.646 OA
HETATM   23  O   UNL     1      13.487  11.410   6.456  1.00  0.00    -0.646 OA
ENDBRANCH  20  21
BRANCH  20  24
HETATM   24  O   UNL     1      13.396  12.565   8.801  1.00  0.00    -0.380 OA
ATOM     25  HO  UNL     1      14.264  12.178   8.803  1.00  0.00     0.211 HD
ENDBRANCH  20  24
ENDBRANCH  10  20
TORSDOF 5
ENDMDL
MODEL 9
REMARK VINA RESULT:      -7.0      2.531      5.284
REMARK  5 active torsions:
REMARK  status: ('A' for Active; 'I' for Inactive)
REMARK    1  A    between atoms: C_5  and  C_11 
REMARK    2  A    between atoms: N_6  and  C_10 
REMARK    3  A    between atoms: C_7  and  O_18 
REMARK    4  A    between atoms: C_11  and  O_14 
REMARK    5  A    between atoms: C_11  and  C_22 
ROOT
HETATM    1  C   UNL     1      10.400   8.455   9.590  1.00  0.00     0.012 C 
HETATM    2  N   UNL     1       9.184  12.262  10.399  1.00  0.00    -0.262 N 
HETATM    3  C   UNL     1      11.029  10.554  10.560  1.00  0.00     0.043 C 
HETATM    4  C   UNL     1       9.062   8.813   9.639  1.00  0.00     0.032 C 
HETATM    5  C   UNL     1       9.726  10.991  10.401  1.00  0.00     0.071 C 
HETATM    6  O   UNL     1       7.010  12.942  10.565  1.00  0.00    -0.246 OA
HETATM    7  C   UNL     1       7.838  12.122  10.222  1.00  0.00     0.332 C 
HETATM    8  N   UNL     1       7.644  10.913   9.634  1.00  0.00    -0.306 N 
ATOM      9  HN  UNL     1       6.824  10.626   9.098  1.00  0.00     0.171 HD
HETATM   10  C   UNL     1      11.376   9.422   9.839  1.00  0.00    -0.017 C 
HETATM   11  C   UNL     1       8.764  10.141   9.896  1.00  0.00     0.063 C 
ENDROOT
BRANCH   2  12
HETATM   12  C   UNL     1       9.882  13.485  10.516  1.00  0.00     0.044 C 
HETATM   13  C   UNL     1      10.029  14.104  11.735  1.00  0.00     0.033 C 
HETATM   14  C   UNL     1      10.923  15.143  11.896  1.00  0.00     0.039 C 
HETATM   15  C   UNL     1      11.537  15.684  10.784  1.00  0.00     0.065 C 
HETATM   16  C   UNL     1      11.244  15.190   9.538  1.00  0.00     0.039 C 
HETATM   17  C   UNL     1      10.478  14.048   9.406  1.00  0.00     0.033 C 
BRANCH  15  18
HETATM   18  O   UNL     1      12.566  16.562  10.907  1.00  0.00    -0.361 OA
ATOM     19  HO  UNL     1      12.633  17.323  10.344  1.00  0.00     0.217 HD
ENDBRANCH  15  18
ENDBRANCH   2  12
BRANCH  10  20
HETATM   20  C   UNL     1      12.712   9.413   9.136  1.00  0.00     0.252 C 
BRANCH  20  21
HETATM   21  C   UNL     1      12.853  10.599   8.180  1.00  0.00     0.207 C 
HETATM   22  O   UNL     1      12.288  10.528   7.052  1.00  0.00    -0.646 OA
HETATM   23  O   UNL     1      13.532  11.580   8.561  1.00  0.00    -0.646 OA
ENDBRANCH  20  21
BRANCH  20  24
HETATM   24  O   UNL     1      13.722   9.455  10.124  1.00  0.00    -0.380 OA
ATOM     25  HO  UNL     1      14.177  10.289  10.095  1.00  0.00     0.211 HD
ENDBRANCH  20  24
ENDBRANCH  10  20
TORSDOF 5
ENDMDL
