REMARK  5 active torsions:
REMARK  status: ('A' for Active; 'I' for Inactive)
REMARK    1  A    between atoms: O_3  and  C_23 
REMARK    2  A    between atoms: C_7  and  C_9 
REMARK    3  A    between atoms: C_9  and  C_23 
REMARK    4  A    between atoms: C_17  and  C_20 
REMARK    5  A    between atoms: O_21  and  C_23 
ROOT
HETATM    1  C   UNL     1       7.575  12.775  19.182  1.00  0.00     0.042 C 
HETATM    2  C   UNL     1       8.576  13.569  20.000  1.00  0.00     0.000 C 
HETATM    3  C   UNL     1       6.393  12.434  20.107  1.00  0.00     0.151 C 
HETATM    4  C   UNL     1       5.119   9.912  21.940  1.00  0.00     0.031 C 
HETATM    5  C   UNL     1       6.923  12.598  21.522  1.00  0.00    -0.044 C 
HETATM    6  O   UNL     1       6.144  11.028  19.959  1.00  0.00    -0.381 OA
HETATM    7  C   UNL     1       8.096  13.571  21.459  1.00  0.00     0.042 C 
HETATM    8  C   UNL     1       4.936  10.604  20.595  1.00  0.00     0.169 C 
HETATM    9  C   UNL     1       6.425  11.970  22.654  1.00  0.00    -0.043 C 
HETATM   10  C   UNL     1       6.272  10.457  22.771  1.00  0.00     0.042 C 
ENDROOT
BRANCH   2  11
HETATM   11  C   UNL     1       9.152  14.864  19.457  1.00  0.00     0.112 C 
BRANCH  11  12
HETATM   12  C   UNL     1       8.813  15.241  17.998  1.00  0.00     0.315 C 
HETATM   13  F   UNL     1       9.207  14.214  17.198  1.00  0.00    -0.181 F 
BRANCH  12  14
HETATM   14  O   UNL     1       9.491  16.334  17.574  1.00  0.00    -0.340 OA
ATOM     15  HO  UNL     1       9.216  17.051  18.133  1.00  0.00     0.215 HD
ENDBRANCH  12  14
BRANCH  12  16
HETATM   16  O   UNL     1       7.509  15.431  17.804  1.00  0.00    -0.340 OA
ATOM     17  HO  UNL     1       7.234  16.148  18.363  1.00  0.00     0.215 HD
ENDBRANCH  12  16
ENDBRANCH  11  12
ENDBRANCH   2  11
BRANCH   9  18
HETATM   18  C   UNL     1       6.357  12.619  23.993  1.00  0.00    -0.030 C 
HETATM   19  C   UNL     1       5.964  11.816  25.084  1.00  0.00     0.012 C 
HETATM   20  C   UNL     1       6.729  11.846  26.265  1.00  0.00     0.001 C 
HETATM   21  C   UNL     1       7.510  12.902  26.676  1.00  0.00     0.000 C 
HETATM   22  C   UNL     1       7.723  14.198  26.219  1.00  0.00     0.000 C 
HETATM   23  C   UNL     1       7.092  14.771  25.109  1.00  0.00     0.001 C 
HETATM   24  C   UNL     1       6.562  13.995  24.083  1.00  0.00     0.012 C 
ENDBRANCH   9  18
TORSDOF 5
