REMARK  1 active torsions:
REMARK  status: ('A' for Active; 'I' for Inactive)
REMARK    1  A    between atoms: C_2  and  O_11 
ROOT
HETATM    1  C   UNL     1      31.387  66.404   8.609  1.00  0.00    -0.010 C 
HETATM    2  C   UNL     1      28.516  66.595   8.954  1.00  0.00     0.122 C 
HETATM    3  C   UNL     1      30.599  66.388   7.479  1.00  0.00    -0.067 C 
HETATM    4  C   UNL     1      31.236  66.114   6.146  1.00  0.00     0.039 C 
HETATM    5  C   UNL     1      31.905  68.469   5.958  1.00  0.00     0.010 C 
HETATM    6  C   UNL     1      29.346  65.734   9.909  1.00  0.00     0.037 C 
HETATM    7  C   UNL     1      33.397  66.882   7.158  1.00  0.00     0.088 C 
HETATM    8  O   UNL     1      33.504  66.606   9.519  1.00  0.00    -0.293 OA
HETATM    9  C   UNL     1      30.776  66.253   9.949  1.00  0.00     0.045 C 
HETATM   10  C   UNL     1      32.436  67.040   5.985  1.00  0.00    -0.007 C 
HETATM   11  C   UNL     1      29.115  66.538   7.547  1.00  0.00     0.066 C 
HETATM   12  C   UNL     1      32.780  66.625   8.498  1.00  0.00     0.156 C 
ENDROOT
BRANCH   2  13
HETATM   13  O   UNL     1      27.230  65.970   8.853  1.00  0.00    -0.395 OA
ATOM     14  HO  UNL     1      26.715  66.504   8.260  1.00  0.00     0.210 HD
ENDBRANCH   2  13
TORSDOF 1
