REMARK  2 active torsions:
REMARK  status: ('A' for Active; 'I' for Inactive)
REMARK    1  A    between atoms: C_2  and  C_6 
REMARK    2  A    between atoms: C_2  and  C_13 
ROOT
HETATM    1  C   UNL     1      16.787   5.270   9.736  1.00  0.00     0.077 C 
ENDROOT
BRANCH   1   2
HETATM    2  C   UNL     1      16.128   5.369  11.091  1.00  0.00    -0.054 C 
HETATM    3  C   UNL     1      14.834   5.850  11.190  1.00  0.00     0.007 C 
HETATM    4  C   UNL     1      14.339   6.304  12.394  1.00  0.00     0.001 C 
HETATM    5  C   UNL     1      15.108   6.172  13.538  1.00  0.00     0.000 C 
HETATM    6  C   UNL     1      16.313   5.502  13.468  1.00  0.00     0.001 C 
HETATM    7  C   UNL     1      16.768   5.008  12.257  1.00  0.00     0.007 C 
ENDBRANCH   1   2
BRANCH   1   8
HETATM    8  C   UNL     1      17.829   4.181   9.593  1.00  0.00    -0.054 C 
HETATM    9  C   UNL     1      19.115   4.324  10.076  1.00  0.00     0.007 C 
HETATM   10  C   UNL     1      19.956   3.230  10.142  1.00  0.00     0.001 C 
HETATM   11  C   UNL     1      19.569   2.030   9.571  1.00  0.00     0.000 C 
HETATM   12  C   UNL     1      18.343   1.928   8.940  1.00  0.00     0.001 C 
HETATM   13  C   UNL     1      17.504   3.024   8.906  1.00  0.00     0.007 C 
ENDBRANCH   1   8
TORSDOF 2
