MODEL 1
REMARK VINA RESULT:      -9.6      0.000      0.000
REMARK  3 active torsions:
REMARK  status: ('A' for Active; 'I' for Inactive)
REMARK    1  A    between atoms: O_3  and  C_5 
REMARK    2  A    between atoms: C_5  and  O_6 
REMARK    3  A    between atoms: C_8  and  C_23 
ROOT
HETATM    1  C   UNL     1       9.664  10.582   9.085  1.00  0.00     0.012 C 
HETATM    2  C   UNL     1       7.601   8.962  12.997  1.00  0.00     0.160 C 
HETATM    3  C   UNL     1      10.409   7.556  11.261  1.00  0.00     0.062 C 
HETATM    4  C   UNL     1       7.986   7.671  10.683  1.00  0.00     0.014 C 
HETATM    5  C   UNL     1       8.094   9.186  10.506  1.00  0.00     0.026 C 
HETATM    6  C   UNL     1      10.910  10.750   8.510  1.00  0.00     0.034 C 
HETATM    7  C   UNL     1       7.856   9.927  11.825  1.00  0.00     0.077 C 
HETATM    8  N   UNL     1      11.696   8.765   9.596  1.00  0.00    -0.356 N 
ATOM      9  HN  UNL     1      12.398   8.031   9.684  1.00  0.00     0.166 HD
HETATM   10  C   UNL     1       9.004   7.263  11.753  1.00  0.00    -0.003 C 
HETATM   11  C   UNL     1       9.462   9.495   9.940  1.00  0.00    -0.031 C 
HETATM   12  C   UNL     1      11.929   9.835   8.799  1.00  0.00     0.084 C 
HETATM   13  C   UNL     1      10.533   8.673  10.273  1.00  0.00     0.016 C 
HETATM   14  C   UNL     1       8.761   7.978  13.078  1.00  0.00     0.073 C 
ENDROOT
BRANCH  12  15
HETATM   15  C   UNL     1      13.295   9.993   8.317  1.00  0.00     0.174 C 
HETATM   16  N   UNL     1      13.487  10.761   7.249  1.00  0.00    -0.345 N 
HETATM   17  C   UNL     1      13.984  10.310   6.088  1.00  0.00     0.090 C 
ATOM     18  HN  UNL     1      13.242  11.749   7.317  1.00  0.00     0.167 HD
HETATM   19  C   UNL     1      14.917   9.313   6.013  1.00  0.00     0.019 C 
HETATM   20  C   UNL     1      15.633   8.777   7.048  1.00  0.00     0.026 C 
HETATM   21  C   UNL     1      15.418   8.901   8.374  1.00  0.00     0.144 C 
HETATM   22  O   UNL     1      14.221   9.217   8.903  1.00  0.00    -0.304 OA
ENDBRANCH  12  15
BRANCH   2  23
HETATM   23  O   UNL     1       7.425   9.665  14.207  1.00  0.00    -0.365 OA
ATOM     24  HO  UNL     1       7.943  10.450  14.077  1.00  0.00     0.213 HD
ENDBRANCH   2  23
BRANCH   2  25
HETATM   25  O   UNL     1       6.383   8.245  12.862  1.00  0.00    -0.365 OA
ATOM     26  HO  UNL     1       6.306   7.794  13.694  1.00  0.00     0.213 HD
ENDBRANCH   2  25
TORSDOF 3
ENDMDL
MODEL 2
REMARK VINA RESULT:      -8.8      2.810      4.916
REMARK  3 active torsions:
REMARK  status: ('A' for Active; 'I' for Inactive)
REMARK    1  A    between atoms: O_3  and  C_5 
REMARK    2  A    between atoms: C_5  and  O_6 
REMARK    3  A    between atoms: C_8  and  C_23 
ROOT
HETATM    1  C   UNL     1      14.893   9.093   7.878  1.00  0.00     0.012 C 
HETATM    2  C   UNL     1      10.766   9.102  10.149  1.00  0.00     0.160 C 
HETATM    3  C   UNL     1      11.593  10.813   7.105  1.00  0.00     0.062 C 
HETATM    4  C   UNL     1      12.277  11.207   9.471  1.00  0.00     0.014 C 
HETATM    5  C   UNL     1      13.085   9.908   9.459  1.00  0.00     0.026 C 
HETATM    6  C   UNL     1      15.424   9.057   6.603  1.00  0.00     0.034 C 
HETATM    7  C   UNL     1      12.226   8.706   9.864  1.00  0.00     0.077 C 
HETATM    8  N   UNL     1      13.554  10.299   5.771  1.00  0.00    -0.356 N 
ATOM      9  HN  UNL     1      13.125  10.850   5.026  1.00  0.00     0.166 HD
HETATM   10  C   UNL     1      11.089  11.014   8.522  1.00  0.00    -0.003 C 
HETATM   11  C   UNL     1      13.664   9.728   8.073  1.00  0.00    -0.031 C 
HETATM   12  C   UNL     1      14.722   9.651   5.548  1.00  0.00     0.084 C 
HETATM   13  C   UNL     1      12.959  10.215   6.978  1.00  0.00     0.016 C 
HETATM   14  C   UNL     1      10.215   9.833   8.931  1.00  0.00     0.073 C 
ENDROOT
BRANCH  12  15
HETATM   15  C   UNL     1      15.160   9.572   4.161  1.00  0.00     0.174 C 
HETATM   16  N   UNL     1      14.486  10.280   3.260  1.00  0.00    -0.345 N 
HETATM   17  C   UNL     1      13.812   9.733   2.238  1.00  0.00     0.090 C 
ATOM     18  HN  UNL     1      14.480  11.295   3.352  1.00  0.00     0.167 HD
HETATM   19  C   UNL     1      14.218   8.593   1.600  1.00  0.00     0.019 C 
HETATM   20  C   UNL     1      15.425   7.963   1.732  1.00  0.00     0.026 C 
HETATM   21  C   UNL     1      16.370   8.143   2.679  1.00  0.00     0.144 C 
HETATM   22  O   UNL     1      16.112   8.662   3.894  1.00  0.00    -0.304 OA
ENDBRANCH  12  15
BRANCH   2  23
HETATM   23  O   UNL     1       9.987   7.975  10.480  1.00  0.00    -0.365 OA
ATOM     24  HO  UNL     1      10.455   7.598  11.216  1.00  0.00     0.213 HD
ENDBRANCH   2  23
BRANCH   2  25
HETATM   25  O   UNL     1      10.636   9.931  11.295  1.00  0.00    -0.365 OA
ATOM     26  HO  UNL     1       9.742   9.775  11.573  1.00  0.00     0.213 HD
ENDBRANCH   2  25
TORSDOF 3
ENDMDL
MODEL 3
REMARK VINA RESULT:      -7.8      2.515      7.246
REMARK  3 active torsions:
REMARK  status: ('A' for Active; 'I' for Inactive)
REMARK    1  A    between atoms: O_3  and  C_5 
REMARK    2  A    between atoms: C_5  and  O_6 
REMARK    3  A    between atoms: C_8  and  C_23 
ROOT
HETATM    1  C   UNL     1       8.100   9.699  10.061  1.00  0.00     0.012 C 
HETATM    2  C   UNL     1      12.178  10.727   7.941  1.00  0.00     0.160 C 
HETATM    3  C   UNL     1      11.693   8.836  10.952  1.00  0.00     0.062 C 
HETATM    4  C   UNL     1      11.449  11.269  10.460  1.00  0.00     0.014 C 
HETATM    5  C   UNL     1      10.237  10.974   9.575  1.00  0.00     0.026 C 
HETATM    6  C   UNL     1       7.457   8.673  10.728  1.00  0.00     0.034 C 
HETATM    7  C   UNL     1      10.651  10.682   8.130  1.00  0.00     0.077 C 
HETATM    8  N   UNL     1       9.547   7.930  11.632  1.00  0.00    -0.356 N 
ATOM      9  HN  UNL     1      10.061   7.362  12.305  1.00  0.00     0.166 HD
HETATM   10  C   UNL     1      12.384  10.057  10.372  1.00  0.00    -0.003 C 
HETATM   11  C   UNL     1       9.488   9.808  10.180  1.00  0.00    -0.031 C 
HETATM   12  C   UNL     1       8.208   7.776  11.497  1.00  0.00     0.084 C 
HETATM   13  C   UNL     1      10.198   8.835  10.874  1.00  0.00     0.016 C 
HETATM   14  C   UNL     1      12.820   9.772   8.939  1.00  0.00     0.073 C 
ENDROOT
BRANCH  12  15
HETATM   15  C   UNL     1       7.625   6.611  12.149  1.00  0.00     0.174 C 
HETATM   16  N   UNL     1       7.238   5.601  11.376  1.00  0.00    -0.345 N 
HETATM   17  C   UNL     1       5.968   5.182  11.280  1.00  0.00     0.090 C 
ATOM     18  HN  UNL     1       7.947   5.119  10.824  1.00  0.00     0.167 HD
HETATM   19  C   UNL     1       5.089   5.218  12.327  1.00  0.00     0.019 C 
HETATM   20  C   UNL     1       5.384   5.466  13.640  1.00  0.00     0.026 C 
HETATM   21  C   UNL     1       6.515   5.979  14.167  1.00  0.00     0.144 C 
HETATM   22  O   UNL     1       7.384   6.730  13.465  1.00  0.00    -0.304 OA
ENDBRANCH  12  15
BRANCH   2  23
HETATM   23  O   UNL     1      12.537  10.415   6.613  1.00  0.00    -0.365 OA
ATOM     24  HO  UNL     1      13.404  10.038   6.708  1.00  0.00     0.213 HD
ENDBRANCH   2  23
BRANCH   2  25
HETATM   25  O   UNL     1      12.715  12.029   8.122  1.00  0.00    -0.365 OA
ATOM     26  HO  UNL     1      12.884  12.064   9.056  1.00  0.00     0.213 HD
ENDBRANCH   2  25
TORSDOF 3
ENDMDL
MODEL 4
REMARK VINA RESULT:      -7.7      3.451      4.752
REMARK  3 active torsions:
REMARK  status: ('A' for Active; 'I' for Inactive)
REMARK    1  A    between atoms: O_3  and  C_5 
REMARK    2  A    between atoms: C_5  and  O_6 
REMARK    3  A    between atoms: C_8  and  C_23 
ROOT
HETATM    1  C   UNL     1      10.452   9.447   9.563  1.00  0.00     0.012 C 
HETATM    2  C   UNL     1       7.228   6.199  10.674  1.00  0.00     0.160 C 
HETATM    3  C   UNL     1       7.525   9.526  11.986  1.00  0.00     0.062 C 
HETATM    4  C   UNL     1       8.910   7.478  12.319  1.00  0.00     0.014 C 
HETATM    5  C   UNL     1       9.379   7.554  10.865  1.00  0.00     0.026 C 
HETATM    6  C   UNL     1      10.586  10.805   9.339  1.00  0.00     0.034 C 
HETATM    7  C   UNL     1       8.428   6.807   9.926  1.00  0.00     0.077 C 
HETATM    8  N   UNL     1       8.875  11.257  10.952  1.00  0.00    -0.356 N 
ATOM      9  HN  UNL     1       8.386  11.921  11.552  1.00  0.00     0.166 HD
HETATM   10  C   UNL     1       7.492   8.057  12.371  1.00  0.00    -0.003 C 
HETATM   11  C   UNL     1       9.495   9.012  10.484  1.00  0.00    -0.031 C 
HETATM   12  C   UNL     1       9.765  11.701  10.032  1.00  0.00     0.084 C 
HETATM   13  C   UNL     1       8.637   9.935  11.072  1.00  0.00     0.016 C 
HETATM   14  C   UNL     1       6.532   7.305  11.456  1.00  0.00     0.073 C 
ENDROOT
BRANCH  12  15
HETATM   15  C   UNL     1       9.770  13.136   9.783  1.00  0.00     0.174 C 
HETATM   16  N   UNL     1      10.416  13.572   8.706  1.00  0.00    -0.345 N 
HETATM   17  C   UNL     1      11.478  14.389   8.756  1.00  0.00     0.090 C 
ATOM     18  HN  UNL     1      10.086  13.267   7.791  1.00  0.00     0.167 HD
HETATM   19  C   UNL     1      11.630  15.358   9.710  1.00  0.00     0.019 C 
HETATM   20  C   UNL     1      10.686  15.791  10.599  1.00  0.00     0.026 C 
HETATM   21  C   UNL     1       9.510  15.216  10.926  1.00  0.00     0.144 C 
HETATM   22  O   UNL     1       9.254  13.906  10.755  1.00  0.00    -0.304 OA
ENDBRANCH  12  15
BRANCH   2  23
HETATM   23  O   UNL     1       6.345   5.552   9.785  1.00  0.00    -0.365 OA
ATOM     24  HO  UNL     1       5.730   5.122  10.367  1.00  0.00     0.213 HD
ENDBRANCH   2  23
BRANCH   2  25
HETATM   25  O   UNL     1       7.606   5.159  11.565  1.00  0.00    -0.365 OA
ATOM     26  HO  UNL     1       6.785   4.717  11.740  1.00  0.00     0.213 HD
ENDBRANCH   2  25
TORSDOF 3
ENDMDL
MODEL 5
REMARK VINA RESULT:      -7.6      2.711      7.348
REMARK  3 active torsions:
REMARK  status: ('A' for Active; 'I' for Inactive)
REMARK    1  A    between atoms: O_3  and  C_5 
REMARK    2  A    between atoms: C_5  and  O_6 
REMARK    3  A    between atoms: C_8  and  C_23 
ROOT
HETATM    1  C   UNL     1      11.068   8.124  11.249  1.00  0.00     0.012 C 
HETATM    2  C   UNL     1      12.287  11.842   8.627  1.00  0.00     0.160 C 
HETATM    3  C   UNL     1       8.974  10.697   9.393  1.00  0.00     0.062 C 
HETATM    4  C   UNL     1      10.757   9.761   7.921  1.00  0.00     0.014 C 
HETATM    5  C   UNL     1      11.610   9.441   9.150  1.00  0.00     0.026 C 
HETATM    6  C   UNL     1      10.138   7.724  12.190  1.00  0.00     0.034 C 
HETATM    7  C   UNL     1      12.499  10.624   9.543  1.00  0.00     0.077 C 
HETATM    8  N   UNL     1       8.481   9.120  11.170  1.00  0.00    -0.356 N 
ATOM      9  HN  UNL     1       7.502   9.388  11.062  1.00  0.00     0.166 HD
HETATM   10  C   UNL     1       9.928  11.007   8.254  1.00  0.00    -0.003 C 
HETATM   11  C   UNL     1      10.680   9.052  10.277  1.00  0.00    -0.031 C 
HETATM   12  C   UNL     1       8.844   8.255  12.147  1.00  0.00     0.084 C 
HETATM   13  C   UNL     1       9.415   9.624  10.338  1.00  0.00     0.016 C 
HETATM   14  C   UNL     1      10.806  12.197   8.624  1.00  0.00     0.073 C 
ENDROOT
BRANCH  12  15
HETATM   15  C   UNL     1       7.835   7.965  13.158  1.00  0.00     0.174 C 
HETATM   16  N   UNL     1       7.597   8.896  14.076  1.00  0.00    -0.345 N 
HETATM   17  C   UNL     1       7.806   8.716  15.388  1.00  0.00     0.090 C 
ATOM     18  HN  UNL     1       7.235   9.798  13.765  1.00  0.00     0.167 HD
HETATM   19  C   UNL     1       7.636   7.512  16.013  1.00  0.00     0.019 C 
HETATM   20  C   UNL     1       7.046   6.393  15.494  1.00  0.00     0.026 C 
HETATM   21  C   UNL     1       6.742   6.120  14.208  1.00  0.00     0.144 C 
HETATM   22  O   UNL     1       7.348   6.714  13.162  1.00  0.00    -0.304 OA
ENDBRANCH  12  15
BRANCH   2  23
HETATM   23  O   UNL     1      13.086  12.931   9.033  1.00  0.00    -0.365 OA
ATOM     24  HO  UNL     1      12.574  13.685   8.766  1.00  0.00     0.213 HD
ENDBRANCH   2  23
BRANCH   2  25
HETATM   25  O   UNL     1      12.718  11.607   7.294  1.00  0.00    -0.365 OA
ATOM     26  HO  UNL     1      13.385  10.940   7.398  1.00  0.00     0.213 HD
ENDBRANCH   2  25
TORSDOF 3
ENDMDL
MODEL 6
REMARK VINA RESULT:      -7.6      3.197      4.220
REMARK  3 active torsions:
REMARK  status: ('A' for Active; 'I' for Inactive)
REMARK    1  A    between atoms: O_3  and  C_5 
REMARK    2  A    between atoms: C_5  and  O_6 
REMARK    3  A    between atoms: C_8  and  C_23 
ROOT
HETATM    1  C   UNL     1      11.210  13.949   9.731  1.00  0.00     0.012 C 
HETATM    2  C   UNL     1       8.225  14.277  13.360  1.00  0.00     0.160 C 
HETATM    3  C   UNL     1       8.257  11.793  10.771  1.00  0.00     0.062 C 
HETATM    4  C   UNL     1       7.640  14.209  10.748  1.00  0.00     0.014 C 
HETATM    5  C   UNL     1       9.102  14.590  10.987  1.00  0.00     0.026 C 
HETATM    6  C   UNL     1      11.910  13.016   8.989  1.00  0.00     0.034 C 
HETATM    7  C   UNL     1       9.433  14.648  12.481  1.00  0.00     0.077 C 
HETATM    8  N   UNL     1      10.145  11.426   9.292  1.00  0.00    -0.356 N 
ATOM      9  HN  UNL     1       9.697  10.548   9.027  1.00  0.00     0.166 HD
HETATM   10  C   UNL     1       7.403  12.859  11.433  1.00  0.00    -0.003 C 
HETATM   11  C   UNL     1       9.972  13.584  10.268  1.00  0.00    -0.031 C 
HETATM   12  C   UNL     1      11.367  11.741   8.798  1.00  0.00     0.084 C 
HETATM   13  C   UNL     1       9.522  12.275  10.134  1.00  0.00     0.016 C 
HETATM   14  C   UNL     1       7.708  12.912  12.926  1.00  0.00     0.073 C 
ENDROOT
BRANCH  12  15
HETATM   15  C   UNL     1      12.081  10.669   8.117  1.00  0.00     0.174 C 
HETATM   16  N   UNL     1      12.392   9.588   8.825  1.00  0.00    -0.345 N 
HETATM   17  C   UNL     1      13.651   9.190   9.059  1.00  0.00     0.090 C 
ATOM     18  HN  UNL     1      11.631   9.031   9.212  1.00  0.00     0.167 HD
HETATM   19  C   UNL     1      14.668   9.363   8.161  1.00  0.00     0.019 C 
HETATM   20  C   UNL     1      14.554   9.749   6.854  1.00  0.00     0.026 C 
HETATM   21  C   UNL     1      13.490  10.292   6.226  1.00  0.00     0.144 C 
HETATM   22  O   UNL     1      12.501  10.940   6.870  1.00  0.00    -0.304 OA
ENDBRANCH  12  15
BRANCH   2  23
HETATM   23  O   UNL     1       8.565  14.298  14.729  1.00  0.00    -0.365 OA
ATOM     24  HO  UNL     1       9.112  15.070  14.803  1.00  0.00     0.213 HD
ENDBRANCH   2  23
BRANCH   2  25
HETATM   25  O   UNL     1       7.174  15.228  13.276  1.00  0.00    -0.365 OA
ATOM     26  HO  UNL     1       7.385  15.845  13.967  1.00  0.00     0.213 HD
ENDBRANCH   2  25
TORSDOF 3
ENDMDL
MODEL 7
REMARK VINA RESULT:      -7.4      4.087      5.757
REMARK  3 active torsions:
REMARK  status: ('A' for Active; 'I' for Inactive)
REMARK    1  A    between atoms: O_3  and  C_5 
REMARK    2  A    between atoms: C_5  and  O_6 
REMARK    3  A    between atoms: C_8  and  C_23 
ROOT
HETATM    1  C   UNL     1       9.699   9.784  10.102  1.00  0.00     0.012 C 
HETATM    2  C   UNL     1       7.036   5.972  10.853  1.00  0.00     0.160 C 
HETATM    3  C   UNL     1       6.676   9.221  12.336  1.00  0.00     0.062 C 
HETATM    4  C   UNL     1       8.378   7.426  12.659  1.00  0.00     0.014 C 
HETATM    5  C   UNL     1       8.904   7.663  11.243  1.00  0.00     0.026 C 
HETATM    6  C   UNL     1       9.606  11.155   9.950  1.00  0.00     0.034 C 
HETATM    7  C   UNL     1       8.150   6.818  10.212  1.00  0.00     0.077 C 
HETATM    8  N   UNL     1       7.757  11.214  11.471  1.00  0.00    -0.356 N 
ATOM      9  HN  UNL     1       7.128  11.749  12.070  1.00  0.00     0.166 HD
HETATM   10  C   UNL     1       6.880   7.749  12.648  1.00  0.00    -0.003 C 
HETATM   11  C   UNL     1       8.784   9.139  10.939  1.00  0.00    -0.031 C 
HETATM   12  C   UNL     1       8.604  11.855  10.631  1.00  0.00     0.084 C 
HETATM   13  C   UNL     1       7.748   9.866  11.514  1.00  0.00     0.016 C 
HETATM   14  C   UNL     1       6.116   6.897  11.641  1.00  0.00     0.073 C 
ENDROOT
BRANCH  12  15
HETATM   15  C   UNL     1       8.373  13.282  10.450  1.00  0.00     0.174 C 
HETATM   16  N   UNL     1       9.298  13.979   9.797  1.00  0.00    -0.345 N 
HETATM   17  C   UNL     1      10.000  14.980  10.347  1.00  0.00     0.090 C 
ATOM     18  HN  UNL     1       9.484  13.738   8.824  1.00  0.00     0.167 HD
HETATM   19  C   UNL     1       9.483  15.824  11.291  1.00  0.00     0.019 C 
HETATM   20  C   UNL     1       8.172  15.936  11.664  1.00  0.00     0.026 C 
HETATM   21  C   UNL     1       7.148  15.096  11.404  1.00  0.00     0.144 C 
HETATM   22  O   UNL     1       7.316  13.796  11.100  1.00  0.00    -0.304 OA
ENDBRANCH  12  15
BRANCH   2  23
HETATM   23  O   UNL     1       6.330   5.235   9.881  1.00  0.00    -0.365 OA
ATOM     24  HO  UNL     1       6.659   5.587   9.063  1.00  0.00     0.213 HD
ENDBRANCH   2  23
BRANCH   2  25
HETATM   25  O   UNL     1       7.542   4.964  11.717  1.00  0.00    -0.365 OA
ATOM     26  HO  UNL     1       8.164   5.436  12.257  1.00  0.00     0.213 HD
ENDBRANCH   2  25
TORSDOF 3
ENDMDL
MODEL 8
REMARK VINA RESULT:      -7.4      1.760      3.009
REMARK  3 active torsions:
REMARK  status: ('A' for Active; 'I' for Inactive)
REMARK    1  A    between atoms: O_3  and  C_5 
REMARK    2  A    between atoms: C_5  and  O_6 
REMARK    3  A    between atoms: C_8  and  C_23 
ROOT
HETATM    1  C   UNL     1      10.516   7.678  12.499  1.00  0.00     0.012 C 
HETATM    2  C   UNL     1       5.835   7.159  12.418  1.00  0.00     0.160 C 
HETATM    3  C   UNL     1       7.734  10.041  11.436  1.00  0.00     0.062 C 
HETATM    4  C   UNL     1       7.261   9.046  13.674  1.00  0.00     0.014 C 
HETATM    5  C   UNL     1       8.122   7.832  13.322  1.00  0.00     0.026 C 
HETATM    6  C   UNL     1      11.555   8.222  11.768  1.00  0.00     0.034 C 
HETATM    7  C   UNL     1       7.303   6.744  12.620  1.00  0.00     0.077 C 
HETATM    8  N   UNL     1      10.124   9.989  11.017  1.00  0.00    -0.356 N 
ATOM      9  HN  UNL     1      10.012  10.904  10.579  1.00  0.00     0.166 HD
HETATM   10  C   UNL     1       6.639   9.558  12.370  1.00  0.00    -0.003 C 
HETATM   11  C   UNL     1       9.267   8.305  12.455  1.00  0.00    -0.031 C 
HETATM   12  C   UNL     1      11.332   9.376  11.008  1.00  0.00     0.084 C 
HETATM   13  C   UNL     1       9.070   9.389  11.608  1.00  0.00     0.016 C 
HETATM   14  C   UNL     1       5.803   8.488  11.675  1.00  0.00     0.073 C 
ENDROOT
BRANCH  12  15
HETATM   15  C   UNL     1      12.342   9.956  10.133  1.00  0.00     0.174 C 
HETATM   16  N   UNL     1      12.032  11.080   9.494  1.00  0.00    -0.345 N 
HETATM   17  C   UNL     1      11.970  11.183   8.159  1.00  0.00     0.090 C 
ATOM     18  HN  UNL     1      11.830  11.910  10.052  1.00  0.00     0.167 HD
HETATM   19  C   UNL     1      12.785  10.479   7.317  1.00  0.00     0.019 C 
HETATM   20  C   UNL     1      13.892   9.753   7.661  1.00  0.00     0.026 C 
HETATM   21  C   UNL     1      14.284   9.345   8.886  1.00  0.00     0.144 C 
HETATM   22  O   UNL     1      13.441   9.213   9.927  1.00  0.00    -0.304 OA
ENDBRANCH  12  15
BRANCH   2  23
HETATM   23  O   UNL     1       5.111   6.160  11.735  1.00  0.00    -0.365 OA
ATOM     24  HO  UNL     1       5.374   6.284  10.831  1.00  0.00     0.213 HD
ENDBRANCH   2  23
BRANCH   2  25
HETATM   25  O   UNL     1       5.128   7.287  13.643  1.00  0.00    -0.365 OA
ATOM     26  HO  UNL     1       4.315   6.826  13.472  1.00  0.00     0.213 HD
ENDBRANCH   2  25
TORSDOF 3
ENDMDL
MODEL 9
REMARK VINA RESULT:      -7.2      3.880      4.956
REMARK  3 active torsions:
REMARK  status: ('A' for Active; 'I' for Inactive)
REMARK    1  A    between atoms: O_3  and  C_5 
REMARK    2  A    between atoms: C_5  and  O_6 
REMARK    3  A    between atoms: C_8  and  C_23 
ROOT
HETATM    1  C   UNL     1       8.535  11.931  10.345  1.00  0.00     0.012 C 
HETATM    2  C   UNL     1       8.927   7.532  11.981  1.00  0.00     0.160 C 
HETATM    3  C   UNL     1      11.574   9.736  10.976  1.00  0.00     0.062 C 
HETATM    4  C   UNL     1       9.840   8.514   9.663  1.00  0.00     0.014 C 
HETATM    5  C   UNL     1       8.751   9.406  10.261  1.00  0.00     0.026 C 
HETATM    6  C   UNL     1       9.142  13.171  10.422  1.00  0.00     0.034 C 
HETATM    7  C   UNL     1       8.215   8.836  11.577  1.00  0.00     0.077 C 
HETATM    8  N   UNL     1      11.282  12.126  10.672  1.00  0.00    -0.356 N 
ATOM      9  HN  UNL     1      12.300  12.195  10.664  1.00  0.00     0.166 HD
HETATM   10  C   UNL     1      10.947   8.378  10.715  1.00  0.00    -0.003 C 
HETATM   11  C   UNL     1       9.332  10.788  10.456  1.00  0.00    -0.031 C 
HETATM   12  C   UNL     1      10.526  13.249  10.611  1.00  0.00     0.084 C 
HETATM   13  C   UNL     1      10.686  10.919  10.742  1.00  0.00     0.016 C 
HETATM   14  C   UNL     1      10.427   7.790  12.022  1.00  0.00     0.073 C 
ENDROOT
BRANCH  12  15
HETATM   15  C   UNL     1      11.230  14.510  10.803  1.00  0.00     0.174 C 
HETATM   16  N   UNL     1      10.674  15.409  11.609  1.00  0.00    -0.345 N 
HETATM   17  C   UNL     1      10.270  16.621  11.204  1.00  0.00     0.090 C 
ATOM     18  HN  UNL     1      10.548  15.162  12.591  1.00  0.00     0.167 HD
HETATM   19  C   UNL     1      10.905  17.331  10.222  1.00  0.00     0.019 C 
HETATM   20  C   UNL     1      12.121  17.051   9.662  1.00  0.00     0.026 C 
HETATM   21  C   UNL     1      12.842  15.913   9.739  1.00  0.00     0.144 C 
HETATM   22  O   UNL     1      12.302  14.712  10.020  1.00  0.00    -0.304 OA
ENDBRANCH  12  15
BRANCH   2  23
HETATM   23  O   UNL     1       8.445   7.048  13.215  1.00  0.00    -0.365 OA
ATOM     24  HO  UNL     1       8.397   7.831  13.749  1.00  0.00     0.213 HD
ENDBRANCH   2  23
BRANCH   2  25
HETATM   25  O   UNL     1       8.657   6.461  11.088  1.00  0.00    -0.365 OA
ATOM     26  HO  UNL     1       8.838   5.691  11.614  1.00  0.00     0.213 HD
ENDBRANCH   2  25
TORSDOF 3
ENDMDL
