MODEL 1
REMARK VINA RESULT:      -8.1      0.000      0.000
REMARK  2 active torsions:
REMARK  status: ('A' for Active; 'I' for Inactive)
REMARK    1  A    between atoms: O_1  and  C_13 
REMARK    2  A    between atoms: C_6  and  O_21 
ROOT
HETATM    1  C   UNL     1       7.361   3.545  15.056  1.00  0.00     0.017 C 
HETATM    2  C   UNL     1       5.165   5.416  13.668  1.00  0.00     0.078 C 
HETATM    3  C   UNL     1       3.641   3.895  12.403  1.00  0.00     0.011 C 
HETATM    4  C   UNL     1       7.967   9.103  18.168  1.00  0.00     0.066 C 
HETATM    5  C   UNL     1       5.617   2.886  13.357  1.00  0.00    -0.027 C 
HETATM    6  C   UNL     1       5.679   6.501  17.284  1.00  0.00     0.013 C 
HETATM    7  C   UNL     1       3.490   2.780  11.569  1.00  0.00     0.037 C 
HETATM    8  C   UNL     1       6.454   2.641  14.484  1.00  0.00     0.013 C 
HETATM    9  C   UNL     1       5.570   1.870  12.385  1.00  0.00     0.048 C 
HETATM   10  C   UNL     1       5.083   5.981  16.135  1.00  0.00     0.009 C 
HETATM   11  C   UNL     1       4.625   1.983  11.361  1.00  0.00     0.066 C 
HETATM   12  C   UNL     1       4.799   4.029  13.177  1.00  0.00    -0.043 C 
HETATM   13  C   UNL     1       7.317   7.903  18.462  1.00  0.00     0.049 C 
HETATM   14  C   UNL     1       6.936   7.114  17.365  1.00  0.00    -0.019 C 
HETATM   15  C   UNL     1       5.779   5.435  15.047  1.00  0.00    -0.040 C 
HETATM   16  C   UNL     1       8.124   5.850  15.578  1.00  0.00     0.193 C 
HETATM   17  C   UNL     1       8.389   9.382  16.848  1.00  0.00     0.037 C 
HETATM   18  C   UNL     1       7.828   7.105  16.265  1.00  0.00     0.025 C 
HETATM   19  C   UNL     1       7.088   4.919  15.232  1.00  0.00     0.021 C 
HETATM   20  O   UNL     1       9.276   5.640  15.226  1.00  0.00    -0.287 OA
HETATM   21  C   UNL     1       8.384   8.348  15.894  1.00  0.00     0.019 C 
ENDROOT
BRANCH   4  22
HETATM   22  O   UNL     1       8.110  10.059  19.108  1.00  0.00    -0.361 OA
ATOM     23  HO  UNL     1       8.299  10.958  18.864  1.00  0.00     0.217 HD
ENDBRANCH   4  22
BRANCH  11  24
HETATM   24  O   UNL     1       4.819   1.429  10.141  1.00  0.00    -0.361 OA
ATOM     25  HO  UNL     1       4.103   0.959   9.732  1.00  0.00     0.217 HD
ENDBRANCH  11  24
TORSDOF 2
ENDMDL
MODEL 2
REMARK VINA RESULT:      -7.4      4.103      7.007
REMARK  2 active torsions:
REMARK  status: ('A' for Active; 'I' for Inactive)
REMARK    1  A    between atoms: O_1  and  C_13 
REMARK    2  A    between atoms: C_6  and  O_21 
ROOT
HETATM    1  C   UNL     1       3.685   9.457  18.891  1.00  0.00     0.017 C 
HETATM    2  C   UNL     1       2.988   6.341  18.652  1.00  0.00     0.078 C 
HETATM    3  C   UNL     1       0.520   6.144  18.984  1.00  0.00     0.011 C 
HETATM    4  C   UNL     1       8.914   6.971  16.167  1.00  0.00     0.066 C 
HETATM    5  C   UNL     1       1.488   8.320  19.384  1.00  0.00    -0.027 C 
HETATM    6  C   UNL     1       5.372   7.344  15.854  1.00  0.00     0.013 C 
HETATM    7  C   UNL     1      -0.624   6.538  19.687  1.00  0.00     0.037 C 
HETATM    8  C   UNL     1       2.285   9.415  18.940  1.00  0.00     0.013 C 
HETATM    9  C   UNL     1       0.425   8.635  20.250  1.00  0.00     0.048 C 
HETATM   10  C   UNL     1       4.216   6.932  16.518  1.00  0.00     0.009 C 
HETATM   11  C   UNL     1      -0.491   7.627  20.561  1.00  0.00     0.066 C 
HETATM   12  C   UNL     1       1.648   6.973  18.977  1.00  0.00    -0.043 C 
HETATM   13  C   UNL     1       7.801   7.652  15.668  1.00  0.00     0.049 C 
HETATM   14  C   UNL     1       6.627   7.573  16.432  1.00  0.00    -0.019 C 
HETATM   15  C   UNL     1       3.907   7.233  17.852  1.00  0.00    -0.040 C 
HETATM   16  C   UNL     1       5.905   8.362  18.681  1.00  0.00     0.193 C 
HETATM   17  C   UNL     1       8.889   6.419  17.468  1.00  0.00     0.037 C 
HETATM   18  C   UNL     1       6.797   7.570  17.838  1.00  0.00     0.025 C 
HETATM   19  C   UNL     1       4.485   8.371  18.473  1.00  0.00     0.021 C 
HETATM   20  O   UNL     1       6.386   8.962  19.631  1.00  0.00    -0.287 OA
HETATM   21  C   UNL     1       7.849   6.776  18.344  1.00  0.00     0.019 C 
ENDROOT
BRANCH   4  22
HETATM   22  O   UNL     1       9.987   6.736  15.385  1.00  0.00    -0.361 OA
ATOM     23  HO  UNL     1       9.890   6.322  14.536  1.00  0.00     0.217 HD
ENDBRANCH   4  22
BRANCH  11  24
HETATM   24  O   UNL     1      -1.181   7.617  21.726  1.00  0.00    -0.361 OA
ATOM     25  HO  UNL     1      -1.326   6.788  22.165  1.00  0.00     0.217 HD
ENDBRANCH  11  24
TORSDOF 2
ENDMDL
MODEL 3
REMARK VINA RESULT:      -7.2      2.403      7.163
REMARK  2 active torsions:
REMARK  status: ('A' for Active; 'I' for Inactive)
REMARK    1  A    between atoms: O_1  and  C_13 
REMARK    2  A    between atoms: C_6  and  O_21 
ROOT
HETATM    1  C   UNL     1       5.154   6.730  16.573  1.00  0.00     0.017 C 
HETATM    2  C   UNL     1       7.379   5.460  14.653  1.00  0.00     0.078 C 
HETATM    3  C   UNL     1       9.569   6.412  15.385  1.00  0.00     0.011 C 
HETATM    4  C   UNL     1       2.128   1.784  13.866  1.00  0.00     0.066 C 
HETATM    5  C   UNL     1       7.592   7.354  16.404  1.00  0.00    -0.027 C 
HETATM    6  C   UNL     1       4.974   2.741  15.809  1.00  0.00     0.013 C 
HETATM    7  C   UNL     1      10.304   7.525  15.810  1.00  0.00     0.037 C 
HETATM    8  C   UNL     1       6.368   7.179  17.112  1.00  0.00     0.013 C 
HETATM    9  C   UNL     1       8.290   8.550  16.653  1.00  0.00     0.048 C 
HETATM   10  C   UNL     1       6.138   3.494  15.655  1.00  0.00     0.009 C 
HETATM   11  C   UNL     1       9.578   8.683  16.129  1.00  0.00     0.066 C 
HETATM   12  C   UNL     1       8.177   6.404  15.531  1.00  0.00    -0.043 C 
HETATM   13  C   UNL     1       2.751   1.970  15.102  1.00  0.00     0.049 C 
HETATM   14  C   UNL     1       3.753   2.952  15.155  1.00  0.00    -0.019 C 
HETATM   15  C   UNL     1       6.175   4.858  15.336  1.00  0.00    -0.040 C 
HETATM   16  C   UNL     1       3.840   5.429  14.915  1.00  0.00     0.193 C 
HETATM   17  C   UNL     1       2.368   2.686  12.803  1.00  0.00     0.037 C 
HETATM   18  C   UNL     1       3.535   4.109  14.368  1.00  0.00     0.025 C 
HETATM   19  C   UNL     1       5.058   5.683  15.630  1.00  0.00     0.021 C 
HETATM   20  O   UNL     1       3.068   6.347  14.680  1.00  0.00    -0.287 OA
HETATM   21  C   UNL     1       3.022   3.902  13.069  1.00  0.00     0.019 C 
ENDROOT
BRANCH   4  22
HETATM   22  O   UNL     1       1.377   0.690  13.629  1.00  0.00    -0.361 OA
ATOM     23  HO  UNL     1       1.691  -0.176  13.861  1.00  0.00     0.217 HD
ENDBRANCH   4  22
BRANCH  11  24
HETATM   24  O   UNL     1      10.109   9.890  15.824  1.00  0.00    -0.361 OA
ATOM     25  HO  UNL     1      10.200  10.538  16.514  1.00  0.00     0.217 HD
ENDBRANCH  11  24
TORSDOF 2
ENDMDL
MODEL 4
REMARK VINA RESULT:      -7.1      1.786      2.898
REMARK  2 active torsions:
REMARK  status: ('A' for Active; 'I' for Inactive)
REMARK    1  A    between atoms: O_1  and  C_13 
REMARK    2  A    between atoms: C_6  and  O_21 
ROOT
HETATM    1  C   UNL     1       4.644   5.041  13.629  1.00  0.00     0.017 C 
HETATM    2  C   UNL     1       6.078   3.017  15.653  1.00  0.00     0.078 C 
HETATM    3  C   UNL     1       6.230   0.823  14.468  1.00  0.00     0.011 C 
HETATM    4  C   UNL     1       7.213   8.913  18.028  1.00  0.00     0.066 C 
HETATM    5  C   UNL     1       4.938   2.548  13.376  1.00  0.00    -0.027 C 
HETATM    6  C   UNL     1       7.927   6.348  15.641  1.00  0.00     0.013 C 
HETATM    7  C   UNL     1       5.622  -0.134  13.646  1.00  0.00     0.037 C 
HETATM    8  C   UNL     1       4.835   3.877  12.871  1.00  0.00     0.013 C 
HETATM    9  C   UNL     1       4.196   1.565  12.698  1.00  0.00     0.048 C 
HETATM   10  C   UNL     1       7.642   4.996  15.444  1.00  0.00     0.009 C 
HETATM   11  C   UNL     1       4.410   0.226  13.039  1.00  0.00     0.066 C 
HETATM   12  C   UNL     1       5.765   2.144  14.453  1.00  0.00    -0.043 C 
HETATM   13  C   UNL     1       7.607   8.517  16.748  1.00  0.00     0.049 C 
HETATM   14  C   UNL     1       7.115   7.282  16.297  1.00  0.00    -0.019 C 
HETATM   15  C   UNL     1       6.355   4.459  15.306  1.00  0.00    -0.040 C 
HETATM   16  C   UNL     1       4.877   6.355  15.724  1.00  0.00     0.193 C 
HETATM   17  C   UNL     1       6.213   8.193  18.721  1.00  0.00     0.037 C 
HETATM   18  C   UNL     1       5.793   6.958  16.688  1.00  0.00     0.025 C 
HETATM   19  C   UNL     1       5.289   5.284  14.862  1.00  0.00     0.021 C 
HETATM   20  O   UNL     1       3.712   6.728  15.719  1.00  0.00    -0.287 OA
HETATM   21  C   UNL     1       5.442   7.246  18.024  1.00  0.00     0.019 C 
ENDROOT
BRANCH   4  22
HETATM   22  O   UNL     1       7.848   9.917  18.666  1.00  0.00    -0.361 OA
ATOM     23  HO  UNL     1       8.779  10.059  18.545  1.00  0.00     0.217 HD
ENDBRANCH   4  22
BRANCH  11  24
HETATM   24  O   UNL     1       3.448  -0.715  12.893  1.00  0.00    -0.361 OA
ATOM     25  HO  UNL     1       2.540  -0.439  12.857  1.00  0.00     0.217 HD
ENDBRANCH  11  24
TORSDOF 2
ENDMDL
MODEL 5
REMARK VINA RESULT:      -7.1      1.717      7.409
REMARK  2 active torsions:
REMARK  status: ('A' for Active; 'I' for Inactive)
REMARK    1  A    between atoms: O_1  and  C_13 
REMARK    2  A    between atoms: C_6  and  O_21 
ROOT
HETATM    1  C   UNL     1       4.577   5.097  16.209  1.00  0.00     0.017 C 
HETATM    2  C   UNL     1       7.613   5.701  15.392  1.00  0.00     0.078 C 
HETATM    3  C   UNL     1       8.572   7.100  17.226  1.00  0.00     0.011 C 
HETATM    4  C   UNL     1       5.750   0.821  11.595  1.00  0.00     0.066 C 
HETATM    5  C   UNL     1       6.196   6.675  17.327  1.00  0.00    -0.027 C 
HETATM    6  C   UNL     1       6.826   2.023  14.787  1.00  0.00     0.013 C 
HETATM    7  C   UNL     1       8.409   8.155  18.131  1.00  0.00     0.037 C 
HETATM    8  C   UNL     1       5.108   5.755  17.327  1.00  0.00     0.013 C 
HETATM    9  C   UNL     1       6.017   7.852  18.076  1.00  0.00     0.048 C 
HETATM   10  C   UNL     1       7.379   3.180  15.335  1.00  0.00     0.009 C 
HETATM   11  C   UNL     1       7.119   8.692  18.258  1.00  0.00     0.066 C 
HETATM   12  C   UNL     1       7.444   6.467  16.690  1.00  0.00    -0.043 C 
HETATM   13  C   UNL     1       5.736   0.751  12.990  1.00  0.00     0.049 C 
HETATM   14  C   UNL     1       5.973   1.951  13.678  1.00  0.00    -0.019 C 
HETATM   15  C   UNL     1       6.778   4.447  15.308  1.00  0.00    -0.040 C 
HETATM   16  C   UNL     1       4.788   4.126  13.932  1.00  0.00     0.193 C 
HETATM   17  C   UNL     1       5.796   2.075  10.944  1.00  0.00     0.037 C 
HETATM   18  C   UNL     1       5.435   3.123  13.091  1.00  0.00     0.025 C 
HETATM   19  C   UNL     1       5.369   4.557  15.171  1.00  0.00     0.021 C 
HETATM   20  O   UNL     1       3.769   4.660  13.518  1.00  0.00    -0.287 OA
HETATM   21  C   UNL     1       5.567   3.244  11.691  1.00  0.00     0.019 C 
ENDROOT
BRANCH   4  22
HETATM   22  O   UNL     1       5.828  -0.299  10.848  1.00  0.00    -0.361 OA
ATOM     23  HO  UNL     1       6.666  -0.717  10.684  1.00  0.00     0.217 HD
ENDBRANCH   4  22
BRANCH  11  24
HETATM   24  O   UNL     1       6.983  10.025  18.452  1.00  0.00    -0.361 OA
ATOM     25  HO  UNL     1       7.351  10.413  19.236  1.00  0.00     0.217 HD
ENDBRANCH  11  24
TORSDOF 2
ENDMDL
MODEL 6
REMARK VINA RESULT:      -7.0      2.037      7.359
REMARK  2 active torsions:
REMARK  status: ('A' for Active; 'I' for Inactive)
REMARK    1  A    between atoms: O_1  and  C_13 
REMARK    2  A    between atoms: C_6  and  O_21 
ROOT
HETATM    1  C   UNL     1       3.920   4.865  17.129  1.00  0.00     0.017 C 
HETATM    2  C   UNL     1       6.328   6.686  16.063  1.00  0.00     0.078 C 
HETATM    3  C   UNL     1       6.926   8.230  17.933  1.00  0.00     0.011 C 
HETATM    4  C   UNL     1       5.971   1.726  11.944  1.00  0.00     0.066 C 
HETATM    5  C   UNL     1       4.944   6.884  18.242  1.00  0.00    -0.027 C 
HETATM    6  C   UNL     1       6.951   3.048  15.119  1.00  0.00     0.013 C 
HETATM    7  C   UNL     1       6.500   9.071  18.969  1.00  0.00     0.037 C 
HETATM    8  C   UNL     1       4.311   5.607  18.253  1.00  0.00     0.013 C 
HETATM    9  C   UNL     1       4.434   7.839  19.140  1.00  0.00     0.048 C 
HETATM   10  C   UNL     1       7.085   4.292  15.736  1.00  0.00     0.009 C 
HETATM   11  C   UNL     1       5.138   9.036  19.298  1.00  0.00     0.066 C 
HETATM   12  C   UNL     1       6.067   7.234  17.452  1.00  0.00    -0.043 C 
HETATM   13  C   UNL     1       6.190   1.566  13.314  1.00  0.00     0.049 C 
HETATM   14  C   UNL     1       6.040   2.713  14.109  1.00  0.00    -0.019 C 
HETATM   15  C   UNL     1       6.042   5.210  15.924  1.00  0.00    -0.040 C 
HETATM   16  C   UNL     1       4.155   4.210  14.745  1.00  0.00     0.193 C 
HETATM   17  C   UNL     1       5.430   2.932  11.444  1.00  0.00     0.037 C 
HETATM   18  C   UNL     1       5.010   3.606  13.726  1.00  0.00     0.025 C 
HETATM   19  C   UNL     1       4.698   4.757  15.955  1.00  0.00     0.021 C 
HETATM   20  O   UNL     1       2.960   4.316  14.510  1.00  0.00    -0.287 OA
HETATM   21  C   UNL     1       4.877   3.861  12.344  1.00  0.00     0.019 C 
ENDROOT
BRANCH   4  22
HETATM   22  O   UNL     1       6.367   0.782  11.067  1.00  0.00    -0.361 OA
ATOM     23  HO  UNL     1       5.764   0.112  10.767  1.00  0.00     0.217 HD
ENDBRANCH   4  22
BRANCH  11  24
HETATM   24  O   UNL     1       4.524  10.187  19.661  1.00  0.00    -0.361 OA
ATOM     25  HO  UNL     1       3.601  10.295  19.467  1.00  0.00     0.217 HD
ENDBRANCH  11  24
TORSDOF 2
ENDMDL
MODEL 7
REMARK VINA RESULT:      -7.0      4.115      6.760
REMARK  2 active torsions:
REMARK  status: ('A' for Active; 'I' for Inactive)
REMARK    1  A    between atoms: O_1  and  C_13 
REMARK    2  A    between atoms: C_6  and  O_21 
ROOT
HETATM    1  C   UNL     1       6.458   8.144  19.403  1.00  0.00     0.017 C 
HETATM    2  C   UNL     1       5.649   7.330  16.414  1.00  0.00     0.078 C 
HETATM    3  C   UNL     1       7.726   6.457  15.334  1.00  0.00     0.011 C 
HETATM    4  C   UNL     1       0.065   7.957  19.594  1.00  0.00     0.066 C 
HETATM    5  C   UNL     1       7.987   7.453  17.519  1.00  0.00    -0.027 C 
HETATM    6  C   UNL     1       3.007   6.066  18.849  1.00  0.00     0.013 C 
HETATM    7  C   UNL     1       9.105   6.578  15.128  1.00  0.00     0.037 C 
HETATM    8  C   UNL     1       7.611   7.530  18.892  1.00  0.00     0.013 C 
HETATM    9  C   UNL     1       9.330   7.749  17.225  1.00  0.00     0.048 C 
HETATM   10  C   UNL     1       4.047   6.076  17.920  1.00  0.00     0.009 C 
HETATM   11  C   UNL     1       9.789   7.506  15.927  1.00  0.00     0.066 C 
HETATM   12  C   UNL     1       7.139   7.049  16.459  1.00  0.00    -0.043 C 
HETATM   13  C   UNL     1       1.064   7.060  19.977  1.00  0.00     0.049 C 
HETATM   14  C   UNL     1       2.297   7.180  19.316  1.00  0.00    -0.019 C 
HETATM   15  C   UNL     1       4.949   7.133  17.736  1.00  0.00    -0.040 C 
HETATM   16  C   UNL     1       4.099   8.894  19.196  1.00  0.00     0.193 C 
HETATM   17  C   UNL     1       0.368   9.041  18.739  1.00  0.00     0.037 C 
HETATM   18  C   UNL     1       2.708   8.497  18.996  1.00  0.00     0.025 C 
HETATM   19  C   UNL     1       5.188   8.050  18.792  1.00  0.00     0.021 C 
HETATM   20  O   UNL     1       4.325  10.008  19.646  1.00  0.00    -0.287 OA
HETATM   21  C   UNL     1       1.714   9.361  18.488  1.00  0.00     0.019 C 
ENDROOT
BRANCH   4  22
HETATM   22  O   UNL     1      -1.221   7.747  19.941  1.00  0.00    -0.361 OA
ATOM     23  HO  UNL     1      -1.717   7.031  19.562  1.00  0.00     0.217 HD
ENDBRANCH   4  22
BRANCH  11  24
HETATM   24  O   UNL     1      10.809   8.211  15.382  1.00  0.00    -0.361 OA
ATOM     25  HO  UNL     1      11.657   8.192  15.809  1.00  0.00     0.217 HD
ENDBRANCH  11  24
TORSDOF 2
ENDMDL
MODEL 8
REMARK VINA RESULT:      -7.0      1.688      7.292
REMARK  2 active torsions:
REMARK  status: ('A' for Active; 'I' for Inactive)
REMARK    1  A    between atoms: O_1  and  C_13 
REMARK    2  A    between atoms: C_6  and  O_21 
ROOT
HETATM    1  C   UNL     1       7.313   5.831  14.851  1.00  0.00     0.017 C 
HETATM    2  C   UNL     1       5.268   5.528  17.295  1.00  0.00     0.078 C 
HETATM    3  C   UNL     1       5.139   7.770  18.389  1.00  0.00     0.011 C 
HETATM    4  C   UNL     1       4.291   0.335  13.584  1.00  0.00     0.066 C 
HETATM    5  C   UNL     1       6.814   7.508  16.668  1.00  0.00    -0.027 C 
HETATM    6  C   UNL     1       3.836   3.827  14.202  1.00  0.00     0.013 C 
HETATM    7  C   UNL     1       5.802   8.917  18.841  1.00  0.00     0.037 C 
HETATM    8  C   UNL     1       7.166   7.138  15.337  1.00  0.00     0.013 C 
HETATM    9  C   UNL     1       7.574   8.538  17.249  1.00  0.00     0.048 C 
HETATM   10  C   UNL     1       4.008   4.734  15.248  1.00  0.00     0.009 C 
HETATM   11  C   UNL     1       7.148   9.061  18.473  1.00  0.00     0.066 C 
HETATM   12  C   UNL     1       5.735   6.966  17.410  1.00  0.00    -0.043 C 
HETATM   13  C   UNL     1       4.141   1.643  13.120  1.00  0.00     0.049 C 
HETATM   14  C   UNL     1       4.583   2.664  13.976  1.00  0.00    -0.019 C 
HETATM   15  C   UNL     1       5.230   5.008  15.879  1.00  0.00    -0.040 C 
HETATM   16  C   UNL     1       6.779   3.406  14.886  1.00  0.00     0.193 C 
HETATM   17  C   UNL     1       5.035   0.075  14.758  1.00  0.00     0.037 C 
HETATM   18  C   UNL     1       5.747   2.383  14.733  1.00  0.00     0.025 C 
HETATM   19  C   UNL     1       6.449   4.768  15.193  1.00  0.00     0.021 C 
HETATM   20  O   UNL     1       7.950   3.060  14.828  1.00  0.00    -0.287 OA
HETATM   21  C   UNL     1       5.831   1.096  15.306  1.00  0.00     0.019 C 
ENDROOT
BRANCH   4  22
HETATM   22  O   UNL     1       3.646  -0.688  12.987  1.00  0.00    -0.361 OA
ATOM     23  HO  UNL     1       3.524  -0.702  12.045  1.00  0.00     0.217 HD
ENDBRANCH   4  22
BRANCH  11  24
HETATM   24  O   UNL     1       8.012   9.611  19.359  1.00  0.00    -0.361 OA
ATOM     25  HO  UNL     1       8.226   9.130  20.150  1.00  0.00     0.217 HD
ENDBRANCH  11  24
TORSDOF 2
ENDMDL
MODEL 9
REMARK VINA RESULT:      -6.9      7.611     10.340
REMARK  2 active torsions:
REMARK  status: ('A' for Active; 'I' for Inactive)
REMARK    1  A    between atoms: O_1  and  C_13 
REMARK    2  A    between atoms: C_6  and  O_21 
ROOT
HETATM    1  C   UNL     1      -0.486   9.127  20.899  1.00  0.00     0.017 C 
HETATM    2  C   UNL     1      -0.891   5.967  21.213  1.00  0.00     0.078 C 
HETATM    3  C   UNL     1      -3.068   5.649  22.396  1.00  0.00     0.011 C 
HETATM    4  C   UNL     1       3.753   6.672  16.782  1.00  0.00     0.066 C 
HETATM    5  C   UNL     1      -2.257   7.918  22.228  1.00  0.00    -0.027 C 
HETATM    6  C   UNL     1       0.293   6.767  17.681  1.00  0.00     0.013 C 
HETATM    7  C   UNL     1      -3.944   6.052  23.411  1.00  0.00     0.037 C 
HETATM    8  C   UNL     1      -1.776   8.999  21.433  1.00  0.00     0.013 C 
HETATM    9  C   UNL     1      -2.993   8.268  23.374  1.00  0.00     0.048 C 
HETATM   10  C   UNL     1      -0.522   6.366  18.740  1.00  0.00     0.009 C 
HETATM   11  C   UNL     1      -3.640   7.248  24.077  1.00  0.00     0.066 C 
HETATM   12  C   UNL     1      -2.102   6.544  21.920  1.00  0.00    -0.043 C 
HETATM   13  C   UNL     1       2.472   7.209  16.637  1.00  0.00     0.049 C 
HETATM   14  C   UNL     1       1.638   7.149  17.764  1.00  0.00    -0.019 C 
HETATM   15  C   UNL     1      -0.394   6.810  20.064  1.00  0.00    -0.040 C 
HETATM   16  C   UNL     1       1.636   8.164  20.038  1.00  0.00     0.193 C 
HETATM   17  C   UNL     1       4.225   6.286  18.058  1.00  0.00     0.037 C 
HETATM   18  C   UNL     1       2.271   7.333  19.018  1.00  0.00     0.025 C 
HETATM   19  C   UNL     1       0.236   8.052  20.335  1.00  0.00     0.021 C 
HETATM   20  O   UNL     1       2.342   8.909  20.701  1.00  0.00    -0.287 OA
HETATM   21  C   UNL     1       3.509   6.681  19.202  1.00  0.00     0.019 C 
ENDROOT
BRANCH   4  22
HETATM   22  O   UNL     1       4.519   6.412  15.703  1.00  0.00    -0.361 OA
ATOM     23  HO  UNL     1       4.302   5.701  15.112  1.00  0.00     0.217 HD
ENDBRANCH   4  22
BRANCH  11  24
HETATM   24  O   UNL     1      -3.892   7.339  25.404  1.00  0.00    -0.361 OA
ATOM     25  HO  UNL     1      -4.770   7.158  25.717  1.00  0.00     0.217 HD
ENDBRANCH  11  24
TORSDOF 2
ENDMDL
