REMARK  3 active torsions:
REMARK  status: ('A' for Active; 'I' for Inactive)
REMARK    1  A    between atoms: O_2  and  C_11 
REMARK    2  A    between atoms: C_4  and  O_18 
REMARK    3  A    between atoms: O_6  and  C_11 
ROOT
HETATM    1  C   UNL     1     -20.874 -18.054  40.768  1.00  0.00     0.096 C 
HETATM    2  C   UNL     1     -20.469 -18.165  47.489  1.00  0.00     0.087 C 
HETATM    3  O   UNL     1     -22.357 -17.317  46.237  1.00  0.00    -0.318 OA
HETATM    4  C   UNL     1     -21.529 -18.134  38.376  1.00  0.00     0.003 C 
HETATM    5  C   UNL     1     -21.680 -17.475  45.071  1.00  0.00     0.128 C 
HETATM    6  C   UNL     1     -20.786 -20.526  38.626  1.00  0.00     0.017 C 
HETATM    7  C   UNL     1     -21.839 -16.439  43.991  1.00  0.00     0.244 C 
HETATM    8  C   UNL     1     -21.582 -19.517  38.162  1.00  0.00     0.001 C 
HETATM    9  C   UNL     1     -19.923 -19.079  41.256  1.00  0.00     0.066 C 
HETATM   10  C   UNL     1     -20.909 -17.515  39.494  1.00  0.00     0.039 C 
HETATM   11  N   UNL     1     -19.317 -20.106  40.541  1.00  0.00    -0.364 N 
ATOM     12  HN  UNL     1     -18.329 -20.278  40.729  1.00  0.00     0.165 HD
HETATM   13  C   UNL     1     -21.785 -17.706  47.435  1.00  0.00     0.178 C 
HETATM   14  C   UNL     1     -20.744 -18.419  44.684  1.00  0.00     0.009 C 
HETATM   15  C   UNL     1     -20.249 -19.452  45.478  1.00  0.00     0.017 C 
HETATM   16  C   UNL     1     -19.504 -18.937  42.590  1.00  0.00     0.043 C 
HETATM   17  C   UNL     1     -19.928 -20.921  39.594  1.00  0.00     0.088 C 
HETATM   18  C   UNL     1     -20.091 -19.345  46.854  1.00  0.00     0.039 C 
HETATM   19  C   UNL     1     -20.211 -18.092  43.400  1.00  0.00    -0.008 C 
HETATM   20  O   UNL     1     -21.725 -17.460  41.729  1.00  0.00    -0.333 OA
HETATM   21  C   UNL     1     -20.950 -16.918  42.820  1.00  0.00     0.232 C 
ENDROOT
BRANCH   7  22
HETATM   22  O   UNL     1     -21.430 -15.173  44.478  1.00  0.00    -0.358 OA
ATOM     23  HO  UNL     1     -20.515 -15.225  44.727  1.00  0.00     0.213 HD
ENDBRANCH   7  22
BRANCH   7  24
HETATM   24  O   UNL     1     -23.187 -16.363  43.624  1.00  0.00    -0.358 OA
ATOM     25  HO  UNL     1     -23.461 -17.212  43.297  1.00  0.00     0.213 HD
ENDBRANCH   7  24
BRANCH   2  26
HETATM   26  O   UNL     1     -19.531 -17.385  48.085  1.00  0.00    -0.359 OA
ATOM     27  HO  UNL     1     -18.635 -17.698  48.122  1.00  0.00     0.217 HD
ENDBRANCH   2  26
TORSDOF 3
