REMARK  2 active torsions:
REMARK  status: ('A' for Active; 'I' for Inactive)
REMARK    1  A    between atoms: C_8  and  C_18 
REMARK    2  A    between atoms: C_8  and  O_19 
ROOT
HETATM    1  C   UNL     1     -33.885 -17.538  -9.545  1.00  0.00     0.009 C 
HETATM    2  C   UNL     1     -36.687 -20.751 -12.204  1.00  0.00     0.019 C 
HETATM    3  C   UNL     1     -34.960 -17.576 -11.872  1.00  0.00    -0.003 C 
HETATM    4  N   UNL     1     -33.798 -15.448 -11.956  1.00  0.00    -0.375 N 
ATOM      5  HN  UNL     1     -33.537 -14.665 -12.555  1.00  0.00     0.164 HD
HETATM    6  C   UNL     1     -33.402 -16.215  -9.620  1.00  0.00     0.018 C 
HETATM    7  C   UNL     1     -33.387 -15.386 -10.680  1.00  0.00     0.087 C 
HETATM    8  C   UNL     1     -34.977 -19.549 -10.603  1.00  0.00     0.076 C 
HETATM    9  C   UNL     1     -35.625 -18.631 -12.657  1.00  0.00     0.195 C 
HETATM   10  N   UNL     1     -37.547 -19.305 -15.341  1.00  0.00    -0.380 N 
ATOM     11  HN1 UNL     1     -37.269 -18.580 -16.002  1.00  0.00     0.158 HD
ATOM     12  HN2 UNL     1     -37.922 -20.125 -15.817  1.00  0.00     0.158 HD
HETATM   13  C   UNL     1     -35.823 -19.735 -11.753  1.00  0.00    -0.041 C 
HETATM   14  C   UNL     1     -34.526 -18.194 -10.648  1.00  0.00    -0.044 C 
HETATM   15  C   UNL     1     -37.253 -19.329 -14.042  1.00  0.00     0.145 C 
HETATM   16  C   UNL     1     -34.519 -16.433 -12.535  1.00  0.00     0.098 C 
HETATM   17  C   UNL     1     -37.648 -20.358 -13.103  1.00  0.00     0.016 C 
HETATM   18  O   UNL     1     -36.742 -18.211 -13.393  1.00  0.00    -0.321 OA
ENDROOT
BRANCH  17  19
HETATM   19  C   UNL     1     -39.102 -20.747 -12.953  1.00  0.00     0.207 C 
BRANCH  19  20
HETATM   20  O   UNL     1     -39.987 -19.923 -13.668  1.00  0.00    -0.396 OA
ATOM     21  HO  UNL     1     -40.900 -20.167 -13.574  1.00  0.00     0.209 HD
ENDBRANCH  19  20
ENDBRANCH  17  19
TORSDOF 2
