REMARK  2 active torsions:
REMARK  status: ('A' for Active; 'I' for Inactive)
REMARK    1  A    between atoms: C_11  and  O_13 
REMARK    2  A    between atoms: O_19  and  C_21 
ROOT
HETATM    1  C   UNL     1      78.924  50.959  43.566  1.00  0.00    -0.018 C 
HETATM    2  C   UNL     1      81.067  49.954  43.800  1.00  0.00     0.041 C 
HETATM    3  C   UNL     1      77.481  53.065  47.165  1.00  0.00     0.016 C 
HETATM    4  C   UNL     1      75.748  52.726  41.670  1.00  0.00     0.015 C 
HETATM    5  O   UNL     1      77.981  50.282  46.826  1.00  0.00    -0.287 OA
HETATM    6  C   UNL     1      74.871  55.427  42.535  1.00  0.00     0.004 C 
HETATM    7  C   UNL     1      77.712  52.395  45.962  1.00  0.00     0.026 C 
HETATM    8  C   UNL     1      78.664  54.940  46.171  1.00  0.00     0.001 C 
HETATM    9  C   UNL     1      80.591  50.443  45.159  1.00  0.00     0.046 C 
HETATM   10  C   UNL     1      74.671  53.037  40.897  1.00  0.00     0.037 C 
HETATM   11  C   UNL     1      80.160  50.610  42.788  1.00  0.00     0.152 C 
HETATM   12  C   UNL     1      78.435  54.417  44.891  1.00  0.00     0.013 C 
HETATM   13  C   UNL     1      78.266  51.118  45.915  1.00  0.00     0.190 C 
HETATM   14  C   UNL     1      76.202  53.335  42.831  1.00  0.00    -0.025 C 
HETATM   15  C   UNL     1      75.677  54.549  43.214  1.00  0.00     0.012 C 
HETATM   16  C   UNL     1      79.147  50.795  44.909  1.00  0.00     0.002 C 
HETATM   17  C   UNL     1      73.687  53.986  40.976  1.00  0.00     0.065 C 
HETATM   18  C   UNL     1      77.822  51.567  43.014  1.00  0.00     0.023 C 
HETATM   19  C   UNL     1      77.745  53.197  44.798  1.00  0.00    -0.011 C 
HETATM   20  C   UNL     1      73.892  55.207  41.604  1.00  0.00     0.036 C 
HETATM   21  C   UNL     1      78.082  54.325  47.296  1.00  0.00     0.001 C 
HETATM   22  C   UNL     1      77.258  52.715  43.569  1.00  0.00    -0.014 C 
ENDROOT
BRANCH  11  23
HETATM   23  O   UNL     1      79.897  49.891  41.601  1.00  0.00    -0.391 OA
ATOM     24  HO  UNL     1      80.679  49.670  41.109  1.00  0.00     0.210 HD
ENDBRANCH  11  23
BRANCH  17  25
HETATM   25  O   UNL     1      72.485  53.699  40.404  1.00  0.00    -0.361 OA
ATOM     26  HO  UNL     1      71.802  54.357  40.459  1.00  0.00     0.217 HD
ENDBRANCH  17  25
TORSDOF 2
