MODEL 1
REMARK VINA RESULT:      -7.0      0.000      0.000
REMARK  3 active torsions:
REMARK  status: ('A' for Active; 'I' for Inactive)
REMARK    1  A    between atoms: C_2  and  C_11 
REMARK    2  A    between atoms: O_5  and  C_16 
REMARK    3  A    between atoms: C_7  and  C_11 
ROOT
HETATM    1  C   UNL     1      18.504   2.280  21.086  1.00  0.00     0.277 C 
HETATM    2  C   UNL     1      21.251  -0.678  16.557  1.00  0.00    -0.055 C 
HETATM    3  N   UNL     1      16.998   1.700  19.325  1.00  0.00    -0.149 NA
HETATM    4  C   UNL     1      22.078   0.265  17.225  1.00  0.00     0.024 C 
HETATM    5  N   UNL     1      18.129   1.977  18.378  1.00  0.00    -0.153 NA
HETATM    6  O   UNL     1      19.603   2.292  20.119  1.00  0.00    -0.279 OA
HETATM    7  C   UNL     1      19.142   1.197  19.246  1.00  0.00     0.337 C 
HETATM    8  O   UNL     1      18.709   2.586  22.240  1.00  0.00    -0.264 OA
HETATM    9  C   UNL     1      19.972  -0.248  16.150  1.00  0.00     0.036 C 
HETATM   10  C   UNL     1      19.415   0.674  17.014  1.00  0.00     0.060 C 
HETATM   11  C   UNL     1      17.945   0.854  17.355  1.00  0.00     0.264 C 
HETATM   12  N   UNL     1      20.085   0.935  18.189  1.00  0.00    -0.316 N 
HETATM   13  C   UNL     1      17.275   2.773  20.319  1.00  0.00     0.240 C 
HETATM   14  C   UNL     1      21.443   1.043  18.197  1.00  0.00     0.096 C 
ENDROOT
BRANCH   2  15
HETATM   15  C   UNL     1      21.721  -2.087  16.362  1.00  0.00     0.038 C 
BRANCH  15  16
HETATM   16  C   UNL     1      20.606  -2.956  15.826  1.00  0.00     0.000 C 
HETATM   17  C   UNL     1      19.981  -3.741  16.978  1.00  0.00     0.005 C 
ENDBRANCH  15  16
ENDBRANCH   2  15
BRANCH  11  18
HETATM   18  O   UNL     1      17.185   1.349  16.338  1.00  0.00    -0.374 OA
ATOM     19  HO  UNL     1      16.347   0.901  16.364  1.00  0.00     0.212 HD
ENDBRANCH  11  18
TORSDOF 3
ENDMDL
MODEL 2
REMARK VINA RESULT:      -6.8      3.409      6.234
REMARK  3 active torsions:
REMARK  status: ('A' for Active; 'I' for Inactive)
REMARK    1  A    between atoms: C_2  and  C_11 
REMARK    2  A    between atoms: O_5  and  C_16 
REMARK    3  A    between atoms: C_7  and  C_11 
ROOT
HETATM    1  C   UNL     1      16.667  -4.428  15.621  1.00  0.00     0.277 C 
HETATM    2  C   UNL     1      19.030   0.748  17.726  1.00  0.00    -0.055 C 
HETATM    3  N   UNL     1      18.939  -4.675  16.318  1.00  0.00    -0.149 NA
HETATM    4  C   UNL     1      18.055   0.923  16.708  1.00  0.00     0.024 C 
HETATM    5  N   UNL     1      19.167  -3.292  15.783  1.00  0.00    -0.153 NA
HETATM    6  O   UNL     1      16.923  -3.012  15.351  1.00  0.00    -0.279 OA
HETATM    7  C   UNL     1      17.879  -2.748  16.441  1.00  0.00     0.337 C 
HETATM    8  O   UNL     1      15.584  -4.907  15.371  1.00  0.00    -0.264 OA
HETATM    9  C   UNL     1      20.054  -0.192  17.492  1.00  0.00     0.036 C 
HETATM   10  C   UNL     1      19.629  -1.272  16.744  1.00  0.00     0.060 C 
HETATM   11  C   UNL     1      20.107  -2.712  16.843  1.00  0.00     0.264 C 
HETATM   12  N   UNL     1      18.284  -1.365  16.460  1.00  0.00    -0.316 N 
HETATM   13  C   UNL     1      17.975  -5.153  15.290  1.00  0.00     0.240 C 
HETATM   14  C   UNL     1      17.575  -0.252  16.123  1.00  0.00     0.096 C 
ENDROOT
BRANCH   2  15
HETATM   15  C   UNL     1      18.915   1.500  19.016  1.00  0.00     0.038 C 
BRANCH  15  16
HETATM   16  C   UNL     1      17.489   1.940  19.258  1.00  0.00     0.000 C 
HETATM   17  C   UNL     1      17.305   2.259  20.741  1.00  0.00     0.005 C 
ENDBRANCH  15  16
ENDBRANCH   2  15
BRANCH  11  18
HETATM   18  O   UNL     1      21.384  -2.916  16.411  1.00  0.00    -0.374 OA
ATOM     19  HO  UNL     1      21.925  -3.055  17.179  1.00  0.00     0.212 HD
ENDBRANCH  11  18
TORSDOF 3
ENDMDL
MODEL 3
REMARK VINA RESULT:      -6.8      2.618      6.013
REMARK  3 active torsions:
REMARK  status: ('A' for Active; 'I' for Inactive)
REMARK    1  A    between atoms: C_2  and  C_11 
REMARK    2  A    between atoms: O_5  and  C_16 
REMARK    3  A    between atoms: C_7  and  C_11 
ROOT
HETATM    1  C   UNL     1      19.696  -3.179  15.558  1.00  0.00     0.277 C 
HETATM    2  C   UNL     1      18.946   1.643  19.162  1.00  0.00    -0.055 C 
HETATM    3  N   UNL     1      21.772  -2.270  16.315  1.00  0.00    -0.149 NA
HETATM    4  C   UNL     1      17.943   1.496  18.167  1.00  0.00     0.024 C 
HETATM    5  N   UNL     1      21.128  -0.919  16.198  1.00  0.00    -0.153 NA
HETATM    6  O   UNL     1      19.084  -1.857  15.706  1.00  0.00    -0.279 OA
HETATM    7  C   UNL     1      19.832  -1.398  16.889  1.00  0.00     0.337 C 
HETATM    8  O   UNL     1      19.050  -4.100  15.111  1.00  0.00    -0.264 OA
HETATM    9  C   UNL     1      20.291   1.551  18.750  1.00  0.00     0.036 C 
HETATM   10  C   UNL     1      20.472   0.665  17.707  1.00  0.00     0.060 C 
HETATM   11  C   UNL     1      21.682  -0.214  17.438  1.00  0.00     0.264 C 
HETATM   12  N   UNL     1      19.390  -0.094  17.316  1.00  0.00    -0.316 N 
HETATM   13  C   UNL     1      21.143  -2.916  15.131  1.00  0.00     0.240 C 
HETATM   14  C   UNL     1      18.149   0.462  17.250  1.00  0.00     0.096 C 
ENDROOT
BRANCH   2  15
HETATM   15  C   UNL     1      18.561   1.824  20.599  1.00  0.00     0.038 C 
BRANCH  15  16
HETATM   16  C   UNL     1      19.601   2.636  21.336  1.00  0.00     0.000 C 
HETATM   17  C   UNL     1      19.056   4.041  21.588  1.00  0.00     0.005 C 
ENDBRANCH  15  16
ENDBRANCH   2  15
BRANCH  11  18
HETATM   18  O   UNL     1      22.802   0.464  17.057  1.00  0.00    -0.374 OA
ATOM     19  HO  UNL     1      22.887   1.218  17.628  1.00  0.00     0.212 HD
ENDBRANCH  11  18
TORSDOF 3
ENDMDL
MODEL 4
REMARK VINA RESULT:      -6.7      4.605      5.989
REMARK  3 active torsions:
REMARK  status: ('A' for Active; 'I' for Inactive)
REMARK    1  A    between atoms: C_2  and  C_11 
REMARK    2  A    between atoms: O_5  and  C_16 
REMARK    3  A    between atoms: C_7  and  C_11 
ROOT
HETATM    1  C   UNL     1      15.323  -2.759  15.175  1.00  0.00     0.277 C 
HETATM    2  C   UNL     1      21.345  -2.478  15.851  1.00  0.00    -0.055 C 
HETATM    3  N   UNL     1      16.091  -3.995  17.070  1.00  0.00    -0.149 NA
HETATM    4  C   UNL     1      20.906  -2.419  14.501  1.00  0.00     0.024 C 
HETATM    5  N   UNL     1      17.292  -4.355  16.245  1.00  0.00    -0.153 NA
HETATM    6  O   UNL     1      16.627  -2.959  14.539  1.00  0.00    -0.279 OA
HETATM    7  C   UNL     1      17.472  -2.904  15.745  1.00  0.00     0.337 C 
HETATM    8  O   UNL     1      14.439  -2.186  14.579  1.00  0.00    -0.264 OA
HETATM    9  C   UNL     1      20.814  -3.500  16.664  1.00  0.00     0.036 C 
HETATM   10  C   UNL     1      19.508  -3.814  16.345  1.00  0.00     0.060 C 
HETATM   11  C   UNL     1      18.408  -4.271  17.288  1.00  0.00     0.264 C 
HETATM   12  N   UNL     1      18.869  -3.025  15.413  1.00  0.00    -0.316 N 
HETATM   13  C   UNL     1      15.065  -4.028  15.992  1.00  0.00     0.240 C 
HETATM   14  C   UNL     1      19.534  -2.595  14.304  1.00  0.00     0.096 C 
ENDROOT
BRANCH   2  15
HETATM   15  C   UNL     1      22.291  -1.444  16.382  1.00  0.00     0.038 C 
BRANCH  15  16
HETATM   16  C   UNL     1      21.539  -0.344  17.096  1.00  0.00     0.000 C 
HETATM   17  C   UNL     1      22.538   0.579  17.792  1.00  0.00     0.005 C 
ENDBRANCH  15  16
ENDBRANCH   2  15
BRANCH  11  18
HETATM   18  O   UNL     1      18.584  -5.523  17.799  1.00  0.00    -0.374 OA
ATOM     19  HO  UNL     1      17.784  -6.010  17.642  1.00  0.00     0.212 HD
ENDBRANCH  11  18
TORSDOF 3
ENDMDL
MODEL 5
REMARK VINA RESULT:      -6.5      4.549      6.318
REMARK  3 active torsions:
REMARK  status: ('A' for Active; 'I' for Inactive)
REMARK    1  A    between atoms: C_2  and  C_11 
REMARK    2  A    between atoms: O_5  and  C_16 
REMARK    3  A    between atoms: C_7  and  C_11 
ROOT
HETATM    1  C   UNL     1      14.388  -5.363  15.552  1.00  0.00     0.277 C 
HETATM    2  C   UNL     1      19.678  -2.692  16.847  1.00  0.00    -0.055 C 
HETATM    3  N   UNL     1      14.542  -3.154  14.656  1.00  0.00    -0.149 NA
HETATM    4  C   UNL     1      19.225  -3.601  17.841  1.00  0.00     0.024 C 
HETATM    5  N   UNL     1      15.296  -2.790  15.902  1.00  0.00    -0.153 NA
HETATM    6  O   UNL     1      15.329  -4.982  16.607  1.00  0.00    -0.279 OA
HETATM    7  C   UNL     1      16.173  -4.060  15.827  1.00  0.00     0.337 C 
HETATM    8  O   UNL     1      13.894  -6.469  15.551  1.00  0.00    -0.264 OA
HETATM    9  C   UNL     1      18.758  -1.737  16.370  1.00  0.00     0.036 C 
HETATM   10  C   UNL     1      17.462  -2.212  16.336  1.00  0.00     0.060 C 
HETATM   11  C   UNL     1      16.371  -1.857  15.340  1.00  0.00     0.264 C 
HETATM   12  N   UNL     1      17.261  -3.545  16.620  1.00  0.00    -0.316 N 
HETATM   13  C   UNL     1      13.567  -4.104  15.259  1.00  0.00     0.240 C 
HETATM   14  C   UNL     1      17.956  -4.146  17.626  1.00  0.00     0.096 C 
ENDROOT
BRANCH   2  15
HETATM   15  C   UNL     1      21.068  -2.805  16.300  1.00  0.00     0.038 C 
BRANCH  15  16
HETATM   16  C   UNL     1      21.627  -1.442  15.962  1.00  0.00     0.000 C 
HETATM   17  C   UNL     1      23.020  -1.303  16.575  1.00  0.00     0.005 C 
ENDBRANCH  15  16
ENDBRANCH   2  15
BRANCH  11  18
HETATM   18  O   UNL     1      15.900  -0.582  15.445  1.00  0.00    -0.374 OA
ATOM     19  HO  UNL     1      16.640  -0.021  15.648  1.00  0.00     0.212 HD
ENDBRANCH  11  18
TORSDOF 3
ENDMDL
MODEL 6
REMARK VINA RESULT:      -6.3      4.174      6.154
REMARK  3 active torsions:
REMARK  status: ('A' for Active; 'I' for Inactive)
REMARK    1  A    between atoms: C_2  and  C_11 
REMARK    2  A    between atoms: O_5  and  C_16 
REMARK    3  A    between atoms: C_7  and  C_11 
ROOT
HETATM    1  C   UNL     1      15.195  -4.545  14.137  1.00  0.00     0.277 C 
HETATM    2  C   UNL     1      20.064  -2.053  16.761  1.00  0.00    -0.055 C 
HETATM    3  N   UNL     1      15.109  -2.158  14.146  1.00  0.00    -0.149 NA
HETATM    4  C   UNL     1      19.689  -3.312  17.303  1.00  0.00     0.024 C 
HETATM    5  N   UNL     1      15.766  -2.221  15.494  1.00  0.00    -0.153 NA
HETATM    6  O   UNL     1      16.042  -4.502  15.331  1.00  0.00    -0.279 OA
HETATM    7  C   UNL     1      16.795  -3.273  15.023  1.00  0.00     0.337 C 
HETATM    8  O   UNL     1      14.842  -5.611  13.684  1.00  0.00    -0.264 OA
HETATM    9  C   UNL     1      19.051  -1.086  16.601  1.00  0.00     0.036 C 
HETATM   10  C   UNL     1      17.826  -1.639  16.288  1.00  0.00     0.060 C 
HETATM   11  C   UNL     1      16.738  -1.043  15.410  1.00  0.00     0.264 C 
HETATM   12  N   UNL     1      17.780  -2.993  16.036  1.00  0.00    -0.316 N 
HETATM   13  C   UNL     1      14.237  -3.358  14.269  1.00  0.00     0.240 C 
HETATM   14  C   UNL     1      18.506  -3.858  16.798  1.00  0.00     0.096 C 
ENDROOT
BRANCH   2  15
HETATM   15  C   UNL     1      21.477  -1.811  16.326  1.00  0.00     0.038 C 
BRANCH  15  16
HETATM   16  C   UNL     1      22.044  -0.582  17.000  1.00  0.00     0.000 C 
HETATM   17  C   UNL     1      23.569  -0.679  17.021  1.00  0.00     0.005 C 
ENDBRANCH  15  16
ENDBRANCH   2  15
BRANCH  11  18
HETATM   18  O   UNL     1      16.111   0.043  15.945  1.00  0.00    -0.374 OA
ATOM     19  HO  UNL     1      16.022   0.690  15.255  1.00  0.00     0.212 HD
ENDBRANCH  11  18
TORSDOF 3
ENDMDL
MODEL 7
REMARK VINA RESULT:      -6.3      2.158      3.423
REMARK  3 active torsions:
REMARK  status: ('A' for Active; 'I' for Inactive)
REMARK    1  A    between atoms: C_2  and  C_11 
REMARK    2  A    between atoms: O_5  and  C_16 
REMARK    3  A    between atoms: C_7  and  C_11 
ROOT
HETATM    1  C   UNL     1      17.421   2.233  20.278  1.00  0.00     0.277 C 
HETATM    2  C   UNL     1      22.304   0.825  16.964  1.00  0.00    -0.055 C 
HETATM    3  N   UNL     1      19.429   3.183  21.157  1.00  0.00    -0.149 NA
HETATM    4  C   UNL     1      21.296  -0.177  16.973  1.00  0.00     0.024 C 
HETATM    5  N   UNL     1      20.118   1.922  20.723  1.00  0.00    -0.153 NA
HETATM    6  O   UNL     1      18.214   1.156  19.680  1.00  0.00    -0.279 OA
HETATM    7  C   UNL     1      19.421   1.931  19.344  1.00  0.00     0.337 C 
HETATM    8  O   UNL     1      16.214   2.221  20.185  1.00  0.00    -0.264 OA
HETATM    9  C   UNL     1      22.700   1.360  18.207  1.00  0.00     0.036 C 
HETATM   10  C   UNL     1      21.664   1.427  19.117  1.00  0.00     0.060 C 
HETATM   11  C   UNL     1      21.447   2.471  20.199  1.00  0.00     0.264 C 
HETATM   12  N   UNL     1      20.398   1.114  18.670  1.00  0.00    -0.316 N 
HETATM   13  C   UNL     1      18.134   2.590  21.586  1.00  0.00     0.240 C 
HETATM   14  C   UNL     1      20.209   0.068  17.818  1.00  0.00     0.096 C 
ENDROOT
BRANCH   2  15
HETATM   15  C   UNL     1      22.864   1.319  15.666  1.00  0.00     0.038 C 
BRANCH  15  16
HETATM   16  C   UNL     1      22.158   0.673  14.495  1.00  0.00     0.000 C 
HETATM   17  C   UNL     1      23.170  -0.128  13.677  1.00  0.00     0.005 C 
ENDBRANCH  15  16
ENDBRANCH   2  15
BRANCH  11  18
HETATM   18  O   UNL     1      22.344   2.418  21.225  1.00  0.00    -0.374 OA
ATOM     19  HO  UNL     1      22.240   3.212  21.735  1.00  0.00     0.212 HD
ENDBRANCH  11  18
TORSDOF 3
ENDMDL
MODEL 8
REMARK VINA RESULT:      -6.2      3.109      5.046
REMARK  3 active torsions:
REMARK  status: ('A' for Active; 'I' for Inactive)
REMARK    1  A    between atoms: C_2  and  C_11 
REMARK    2  A    between atoms: O_5  and  C_16 
REMARK    3  A    between atoms: C_7  and  C_11 
ROOT
HETATM    1  C   UNL     1      24.985   0.498  16.659  1.00  0.00     0.277 C 
HETATM    2  C   UNL     1      19.865  -2.755  16.737  1.00  0.00    -0.055 C 
HETATM    3  N   UNL     1      23.329   1.431  18.106  1.00  0.00    -0.149 NA
HETATM    4  C   UNL     1      20.556  -2.784  15.496  1.00  0.00     0.024 C 
HETATM    5  N   UNL     1      22.313   0.985  17.096  1.00  0.00    -0.153 NA
HETATM    6  O   UNL     1      23.919  -0.107  15.858  1.00  0.00    -0.279 OA
HETATM    7  C   UNL     1      22.969  -0.406  16.945  1.00  0.00     0.337 C 
HETATM    8  O   UNL     1      26.141   0.382  16.316  1.00  0.00    -0.264 OA
HETATM    9  C   UNL     1      19.648  -1.495  17.331  1.00  0.00     0.036 C 
HETATM   10  C   UNL     1      20.672  -0.603  17.087  1.00  0.00     0.060 C 
HETATM   11  C   UNL     1      21.182   0.496  18.004  1.00  0.00     0.264 C 
HETATM   12  N   UNL     1      21.796  -1.079  16.446  1.00  0.00    -0.316 N 
HETATM   13  C   UNL     1      24.415   1.825  17.168  1.00  0.00     0.240 C 
HETATM   14  C   UNL     1      21.678  -1.955  15.410  1.00  0.00     0.096 C 
ENDROOT
BRANCH   2  15
HETATM   15  C   UNL     1      19.448  -4.033  17.399  1.00  0.00     0.038 C 
BRANCH  15  16
HETATM   16  C   UNL     1      18.178  -3.838  18.195  1.00  0.00     0.000 C 
HETATM   17  C   UNL     1      16.973  -4.091  17.290  1.00  0.00     0.005 C 
ENDBRANCH  15  16
ENDBRANCH   2  15
BRANCH  11  18
HETATM   18  O   UNL     1      20.318   1.537  18.176  1.00  0.00    -0.374 OA
ATOM     19  HO  UNL     1      19.720   1.298  18.874  1.00  0.00     0.212 HD
ENDBRANCH  11  18
TORSDOF 3
ENDMDL
MODEL 9
REMARK VINA RESULT:      -6.1      3.926      4.992
REMARK  3 active torsions:
REMARK  status: ('A' for Active; 'I' for Inactive)
REMARK    1  A    between atoms: C_2  and  C_11 
REMARK    2  A    between atoms: O_5  and  C_16 
REMARK    3  A    between atoms: C_7  and  C_11 
ROOT
HETATM    1  C   UNL     1      17.021  -0.006  15.097  1.00  0.00     0.277 C 
HETATM    2  C   UNL     1      22.884  -1.207  16.087  1.00  0.00    -0.055 C 
HETATM    3  N   UNL     1      17.350  -2.071  16.252  1.00  0.00    -0.149 NA
HETATM    4  C   UNL     1      22.631  -0.477  14.895  1.00  0.00     0.024 C 
HETATM    5  N   UNL     1      18.577  -2.254  15.407  1.00  0.00    -0.153 NA
HETATM    6  O   UNL     1      18.348  -0.151  14.497  1.00  0.00    -0.279 OA
HETATM    7  C   UNL     1      19.035  -0.795  15.631  1.00  0.00     0.337 C 
HETATM    8  O   UNL     1      16.315   0.928  14.789  1.00  0.00    -0.264 OA
HETATM    9  C   UNL     1      22.107  -2.360  16.322  1.00  0.00     0.036 C 
HETATM   10  C   UNL     1      20.819  -2.246  15.838  1.00  0.00     0.060 C 
HETATM   11  C   UNL     1      19.554  -2.852  16.421  1.00  0.00     0.264 C 
HETATM   12  N   UNL     1      20.428  -1.021  15.341  1.00  0.00    -0.316 N 
HETATM   13  C   UNL     1      16.474  -1.430  15.233  1.00  0.00     0.240 C 
HETATM   14  C   UNL     1      21.283  -0.284  14.580  1.00  0.00     0.096 C 
ENDROOT
BRANCH   2  15
HETATM   15  C   UNL     1      23.900  -0.714  17.072  1.00  0.00     0.038 C 
BRANCH  15  16
HETATM   16  C   UNL     1      23.382   0.493  17.820  1.00  0.00     0.000 C 
HETATM   17  C   UNL     1      24.555   1.407  18.174  1.00  0.00     0.005 C 
ENDBRANCH  15  16
ENDBRANCH   2  15
BRANCH  11  18
HETATM   18  O   UNL     1      19.474  -4.209  16.313  1.00  0.00    -0.374 OA
ATOM     19  HO  UNL     1      19.954  -4.461  15.533  1.00  0.00     0.212 HD
ENDBRANCH  11  18
TORSDOF 3
ENDMDL
