REMARK  0 active torsions:
REMARK  status: ('A' for Active; 'I' for Inactive)
ROOT
HETATM    1  C   UNL     1      -5.423  21.056  25.885  1.00  0.00     0.011 C 
HETATM    2  C   UNL     1      -4.401  18.773  23.117  1.00  0.00     0.001 C 
HETATM    3  C   UNL     1      -6.010  21.061  27.310  1.00  0.00     0.010 C 
HETATM    4  C   UNL     1      -3.998  18.614  27.727  1.00  0.00     0.011 C 
HETATM    5  C   UNL     1      -2.271  18.871  25.566  1.00  0.00     0.011 C 
HETATM    6  C   UNL     1      -4.686  19.768  25.500  1.00  0.00    -0.033 C 
HETATM    7  C   UNL     1      -2.865  20.620  23.913  1.00  0.00     0.005 C 
HETATM    8  C   UNL     1      -3.337  19.776  22.760  1.00  0.00     0.000 C 
HETATM    9  C   UNL     1      -8.458  20.073  31.024  1.00  0.00     0.001 C 
HETATM   10  C   UNL     1      -7.710  20.368  29.886  1.00  0.00     0.008 C 
HETATM   11  C   UNL     1      -6.746  17.442  27.749  1.00  0.00     0.045 C 
HETATM   12  C   UNL     1      -7.656  17.316  30.104  1.00  0.00     0.007 C 
HETATM   13  C   UNL     1      -6.400  18.637  26.872  1.00  0.00     0.003 C 
HETATM   14  C   UNL     1      -3.185  20.060  25.297  1.00  0.00    -0.010 C 
HETATM   15  C   UNL     1      -8.529  17.582  31.141  1.00  0.00     0.001 C 
HETATM   16  C   UNL     1      -5.329  19.204  24.237  1.00  0.00     0.010 C 
HETATM   17  C   UNL     1      -8.787  18.881  31.645  1.00  0.00     0.000 C 
HETATM   18  C   UNL     1      -7.337  18.083  28.984  1.00  0.00    -0.051 C 
HETATM   19  C   UNL     1      -7.357  19.498  28.858  1.00  0.00    -0.047 C 
HETATM   20  C   UNL     1      -6.994  19.904  27.452  1.00  0.00     0.024 C 
HETATM   21  C   UNL     1      -4.921  18.669  26.542  1.00  0.00    -0.005 C 
ENDROOT
TORSDOF 0
