MODEL 1
REMARK VINA RESULT:      -9.8      0.000      0.000
REMARK  6 active torsions:
REMARK  status: ('A' for Active; 'I' for Inactive)
REMARK    1  A    between atoms: O_1  and  C_38 
REMARK    2  A    between atoms: O_6  and  C_8 
REMARK    3  A    between atoms: C_10  and  C_20 
REMARK    4  A    between atoms: N_13  and  C_38 
REMARK    5  A    between atoms: C_17  and  C_35 
REMARK    6  A    between atoms: C_20  and  C_32 
ROOT
HETATM    1  C   UNL     1      19.370  65.659  21.746  1.00  0.00     0.015 C 
HETATM    2  C   UNL     1      21.652  60.393  22.977  1.00  0.00     0.031 C 
HETATM    3  C   UNL     1      21.785  66.254  20.498  1.00  0.00     0.057 C 
HETATM    4  C   UNL     1      22.142  62.725  20.907  1.00  0.00     0.019 C 
HETATM    5  C   UNL     1      19.415  61.264  24.421  1.00  0.00     0.014 C 
HETATM    6  C   UNL     1      21.555  64.979  21.021  1.00  0.00    -0.021 C 
HETATM    7  C   UNL     1      20.274  64.624  21.473  1.00  0.00     0.001 C 
HETATM    8  C   UNL     1      18.970  62.666  22.345  1.00  0.00     0.044 C 
HETATM    9  C   UNL     1      20.823  61.387  22.479  1.00  0.00     0.050 C 
HETATM   10  C   UNL     1      22.577  64.033  21.091  1.00  0.00     0.037 C 
HETATM   11  C   UNL     1      19.606  61.658  23.099  1.00  0.00    -0.007 C 
HETATM   12  C   UNL     1      19.978  63.256  21.600  1.00  0.00     0.051 C 
HETATM   13  N   UNL     1      21.035  62.397  21.602  1.00  0.00    -0.314 N 
HETATM   14  C   UNL     1      19.795  66.977  21.776  1.00  0.00     0.046 C 
HETATM   15  C   UNL     1      20.296  60.343  24.972  1.00  0.00     0.001 C 
HETATM   16  C   UNL     1      21.113  67.375  21.207  1.00  0.00     0.261 C 
HETATM   17  C   UNL     1      21.408  59.920  24.259  1.00  0.00     0.002 C 
ENDROOT
BRANCH   4  18
HETATM   18  C   UNL     1      22.928  61.850  19.991  1.00  0.00     0.067 C 
BRANCH  18  19
HETATM   19  C   UNL     1      24.320  62.049  20.504  1.00  0.00     0.036 C 
HETATM   20  C   UNL     1      25.467  61.896  19.565  1.00  0.00     0.034 C 
HETATM   21  C   UNL     1      26.378  60.896  20.161  1.00  0.00    -0.016 C 
HETATM   22  C   UNL     1      25.865  60.476  21.392  1.00  0.00    -0.044 C 
HETATM   23  C   UNL     1      27.612  60.580  19.582  1.00  0.00     0.013 C 
HETATM   24  C   UNL     1      26.321  59.460  22.211  1.00  0.00     0.044 C 
HETATM   25  C   UNL     1      24.615  61.230  21.746  1.00  0.00     0.049 C 
HETATM   26  C   UNL     1      27.196  58.445  21.853  1.00  0.00     0.066 C 
HETATM   27  C   UNL     1      27.998  58.425  20.731  1.00  0.00     0.036 C 
HETATM   28  C   UNL     1      28.278  59.385  19.786  1.00  0.00     0.004 C 
BRANCH  20  29
HETATM   29  C   UNL     1      25.381  61.871  18.066  1.00  0.00     0.206 C 
HETATM   30  O   UNL     1      24.838  60.892  17.505  1.00  0.00    -0.644 OA
HETATM   31  O   UNL     1      25.938  62.868  17.492  1.00  0.00    -0.644 OA
ENDBRANCH  20  29
BRANCH  26  32
HETATM   32  O   UNL     1      27.314  57.350  22.661  1.00  0.00    -0.361 OA
ATOM     33  HO  UNL     1      27.593  57.539  23.550  1.00  0.00     0.217 HD
ENDBRANCH  26  32
ENDBRANCH  18  19
ENDBRANCH   4  18
BRANCH  16  34
HETATM   34  O   UNL     1      20.935  68.415  20.270  1.00  0.00    -0.359 OA
ATOM     35  HO  UNL     1      20.024  68.397  19.999  1.00  0.00     0.213 HD
ENDBRANCH  16  34
BRANCH  16  36
HETATM   36  N   UNL     1      21.990  67.836  22.276  1.00  0.00    -0.040 N 
ATOM     37  HN3 UNL     1      21.528  67.827  23.186  1.00  0.00     0.278 HD
ATOM     38  HN2 UNL     1      22.732  67.168  22.484  1.00  0.00     0.278 HD
ATOM     39  HN1 UNL     1      22.356  68.758  22.038  1.00  0.00     0.278 HD
ENDBRANCH  16  36
TORSDOF 6
ENDMDL
MODEL 2
REMARK VINA RESULT:      -9.7      1.834      2.708
REMARK  6 active torsions:
REMARK  status: ('A' for Active; 'I' for Inactive)
REMARK    1  A    between atoms: O_1  and  C_38 
REMARK    2  A    between atoms: O_6  and  C_8 
REMARK    3  A    between atoms: C_10  and  C_20 
REMARK    4  A    between atoms: N_13  and  C_38 
REMARK    5  A    between atoms: C_17  and  C_35 
REMARK    6  A    between atoms: C_20  and  C_32 
ROOT
HETATM    1  C   UNL     1      22.097  67.938  19.721  1.00  0.00     0.015 C 
HETATM    2  C   UNL     1      19.805  62.862  21.574  1.00  0.00     0.031 C 
HETATM    3  C   UNL     1      24.599  66.820  20.206  1.00  0.00     0.057 C 
HETATM    4  C   UNL     1      22.553  63.901  20.420  1.00  0.00     0.019 C 
HETATM    5  C   UNL     1      18.163  65.131  21.486  1.00  0.00     0.014 C 
HETATM    6  C   UNL     1      23.439  66.057  20.371  1.00  0.00    -0.021 C 
HETATM    7  C   UNL     1      22.200  66.558  19.943  1.00  0.00     0.001 C 
HETATM    8  C   UNL     1      19.793  65.896  19.690  1.00  0.00     0.044 C 
HETATM    9  C   UNL     1      20.129  63.949  20.776  1.00  0.00     0.050 C 
HETATM   10  C   UNL     1      23.487  64.787  20.946  1.00  0.00     0.037 C 
HETATM   11  C   UNL     1      19.206  64.972  20.577  1.00  0.00    -0.007 C 
HETATM   12  C   UNL     1      21.154  65.641  19.743  1.00  0.00     0.051 C 
HETATM   13  N   UNL     1      21.309  64.404  20.292  1.00  0.00    -0.314 N 
HETATM   14  C   UNL     1      23.111  68.794  20.118  1.00  0.00     0.046 C 
HETATM   15  C   UNL     1      17.886  64.092  22.365  1.00  0.00     0.001 C 
HETATM   16  C   UNL     1      24.461  68.275  20.479  1.00  0.00     0.261 C 
HETATM   17  C   UNL     1      18.704  62.973  22.413  1.00  0.00     0.002 C 
ENDROOT
BRANCH   4  18
HETATM   18  C   UNL     1      23.013  62.526  20.071  1.00  0.00     0.067 C 
BRANCH  18  19
HETATM   19  C   UNL     1      24.443  62.565  20.513  1.00  0.00     0.036 C 
HETATM   20  C   UNL     1      25.514  62.235  19.531  1.00  0.00     0.034 C 
HETATM   21  C   UNL     1      26.321  61.148  20.128  1.00  0.00    -0.016 C 
HETATM   22  C   UNL     1      25.821  60.842  21.397  1.00  0.00    -0.044 C 
HETATM   23  C   UNL     1      27.475  60.657  19.509  1.00  0.00     0.013 C 
HETATM   24  C   UNL     1      26.186  59.806  22.237  1.00  0.00     0.044 C 
HETATM   25  C   UNL     1      24.694  61.761  21.774  1.00  0.00     0.049 C 
HETATM   26  C   UNL     1      26.908  58.677  21.884  1.00  0.00     0.066 C 
HETATM   27  C   UNL     1      27.645  58.514  20.729  1.00  0.00     0.036 C 
HETATM   28  C   UNL     1      27.996  59.396  19.733  1.00  0.00     0.004 C 
BRANCH  20  29
HETATM   29  C   UNL     1      25.352  62.166  18.040  1.00  0.00     0.206 C 
HETATM   30  O   UNL     1      24.695  61.223  17.543  1.00  0.00    -0.644 OA
HETATM   31  O   UNL     1      25.967  63.088  17.403  1.00  0.00    -0.644 OA
ENDBRANCH  20  29
BRANCH  26  32
HETATM   32  O   UNL     1      26.927  57.605  22.731  1.00  0.00    -0.361 OA
ATOM     33  HO  UNL     1      27.786  57.385  23.074  1.00  0.00     0.217 HD
ENDBRANCH  26  32
ENDBRANCH  18  19
ENDBRANCH   4  18
BRANCH  16  34
HETATM   34  O   UNL     1      25.447  68.938  19.719  1.00  0.00    -0.359 OA
ATOM     35  HO  UNL     1      25.215  69.859  19.699  1.00  0.00     0.213 HD
ENDBRANCH  16  34
BRANCH  16  36
HETATM   36  N   UNL     1      24.712  68.504  21.896  1.00  0.00    -0.040 N 
ATOM     37  HN3 UNL     1      24.045  68.012  22.491  1.00  0.00     0.278 HD
ATOM     38  HN2 UNL     1      25.561  68.040  22.219  1.00  0.00     0.278 HD
ATOM     39  HN1 UNL     1      24.726  69.507  22.078  1.00  0.00     0.278 HD
ENDBRANCH  16  36
TORSDOF 6
ENDMDL
MODEL 3
REMARK VINA RESULT:      -9.6      2.487      7.370
REMARK  6 active torsions:
REMARK  status: ('A' for Active; 'I' for Inactive)
REMARK    1  A    between atoms: O_1  and  C_38 
REMARK    2  A    between atoms: O_6  and  C_8 
REMARK    3  A    between atoms: C_10  and  C_20 
REMARK    4  A    between atoms: N_13  and  C_38 
REMARK    5  A    between atoms: C_17  and  C_35 
REMARK    6  A    between atoms: C_20  and  C_32 
ROOT
HETATM    1  C   UNL     1      24.861  60.404  21.359  1.00  0.00     0.015 C 
HETATM    2  C   UNL     1      19.580  62.770  22.342  1.00  0.00     0.031 C 
HETATM    3  C   UNL     1      25.279  62.454  19.524  1.00  0.00     0.057 C 
HETATM    4  C   UNL     1      22.373  63.688  21.194  1.00  0.00     0.019 C 
HETATM    5  C   UNL     1      20.038  60.122  23.131  1.00  0.00     0.014 C 
HETATM    6  C   UNL     1      24.114  62.422  20.296  1.00  0.00    -0.021 C 
HETATM    7  C   UNL     1      23.993  61.504  21.350  1.00  0.00     0.001 C 
HETATM    8  C   UNL     1      22.467  60.870  23.239  1.00  0.00     0.044 C 
HETATM    9  C   UNL     1      20.868  62.295  22.535  1.00  0.00     0.050 C 
HETATM   10  C   UNL     1      23.060  63.302  20.048  1.00  0.00     0.037 C 
HETATM   11  C   UNL     1      21.074  61.053  23.129  1.00  0.00    -0.007 C 
HETATM   12  C   UNL     1      23.026  61.761  22.338  1.00  0.00     0.051 C 
HETATM   13  N   UNL     1      22.066  62.679  22.032  1.00  0.00    -0.314 N 
HETATM   14  C   UNL     1      25.653  60.122  20.259  1.00  0.00     0.046 C 
HETATM   15  C   UNL     1      18.753  60.560  22.840  1.00  0.00     0.001 C 
HETATM   16  C   UNL     1      25.865  61.131  19.183  1.00  0.00     0.261 C 
HETATM   17  C   UNL     1      18.529  61.869  22.441  1.00  0.00     0.002 C 
ENDROOT
BRANCH   4  18
HETATM   18  C   UNL     1      22.054  65.134  21.364  1.00  0.00     0.067 C 
BRANCH  18  19
HETATM   19  C   UNL     1      22.443  65.688  20.029  1.00  0.00     0.036 C 
HETATM   20  C   UNL     1      23.607  66.614  19.941  1.00  0.00     0.034 C 
HETATM   21  C   UNL     1      23.124  67.847  19.281  1.00  0.00    -0.016 C 
HETATM   22  C   UNL     1      21.774  67.698  18.950  1.00  0.00    -0.044 C 
HETATM   23  C   UNL     1      23.987  68.897  18.952  1.00  0.00     0.013 C 
HETATM   24  C   UNL     1      20.902  68.648  18.451  1.00  0.00     0.044 C 
HETATM   25  C   UNL     1      21.280  66.321  19.290  1.00  0.00     0.049 C 
HETATM   26  C   UNL     1      21.093  70.021  18.454  1.00  0.00     0.066 C 
HETATM   27  C   UNL     1      22.290  70.673  18.671  1.00  0.00     0.036 C 
HETATM   28  C   UNL     1      23.580  70.208  18.782  1.00  0.00     0.004 C 
BRANCH  20  29
HETATM   29  C   UNL     1      24.651  66.823  21.000  1.00  0.00     0.206 C 
HETATM   30  O   UNL     1      24.442  67.667  21.901  1.00  0.00    -0.644 OA
HETATM   31  O   UNL     1      25.708  66.122  20.839  1.00  0.00    -0.644 OA
ENDBRANCH  20  29
BRANCH  26  32
HETATM   32  O   UNL     1      20.029  70.843  18.215  1.00  0.00    -0.361 OA
ATOM     33  HO  UNL     1      19.179  70.457  18.394  1.00  0.00     0.217 HD
ENDBRANCH  26  32
ENDBRANCH  18  19
ENDBRANCH   4  18
BRANCH  16  34
HETATM   34  O   UNL     1      27.247  61.327  18.977  1.00  0.00    -0.359 OA
ATOM     35  HO  UNL     1      27.552  61.917  19.657  1.00  0.00     0.213 HD
ENDBRANCH  16  34
BRANCH  16  36
HETATM   36  N   UNL     1      25.257  60.663  17.944  1.00  0.00    -0.040 N 
ATOM     37  HN3 UNL     1      24.650  61.366  17.522  1.00  0.00     0.278 HD
ATOM     38  HN2 UNL     1      25.934  60.583  17.186  1.00  0.00     0.278 HD
ATOM     39  HN1 UNL     1      24.768  59.785  18.120  1.00  0.00     0.278 HD
ENDBRANCH  16  36
TORSDOF 6
ENDMDL
MODEL 4
REMARK VINA RESULT:      -9.1      2.392      7.807
REMARK  6 active torsions:
REMARK  status: ('A' for Active; 'I' for Inactive)
REMARK    1  A    between atoms: O_1  and  C_38 
REMARK    2  A    between atoms: O_6  and  C_8 
REMARK    3  A    between atoms: C_10  and  C_20 
REMARK    4  A    between atoms: N_13  and  C_38 
REMARK    5  A    between atoms: C_17  and  C_35 
REMARK    6  A    between atoms: C_20  and  C_32 
ROOT
HETATM    1  C   UNL     1      25.431  61.278  20.908  1.00  0.00     0.015 C 
HETATM    2  C   UNL     1      20.062  61.706  23.243  1.00  0.00     0.031 C 
HETATM    3  C   UNL     1      24.630  63.214  19.075  1.00  0.00     0.057 C 
HETATM    4  C   UNL     1      21.976  63.463  21.451  1.00  0.00     0.019 C 
HETATM    5  C   UNL     1      21.612  59.447  23.830  1.00  0.00     0.014 C 
HETATM    6  C   UNL     1      23.779  62.829  20.114  1.00  0.00    -0.021 C 
HETATM    7  C   UNL     1      24.253  62.001  21.143  1.00  0.00     0.001 C 
HETATM    8  C   UNL     1      23.563  61.004  23.340  1.00  0.00     0.044 C 
HETATM    9  C   UNL     1      21.441  61.727  23.095  1.00  0.00     0.050 C 
HETATM   10  C   UNL     1      22.454  63.265  20.160  1.00  0.00     0.037 C 
HETATM   11  C   UNL     1      22.214  60.679  23.588  1.00  0.00    -0.007 C 
HETATM   12  C   UNL     1      23.530  61.971  22.348  1.00  0.00     0.051 C 
HETATM   13  N   UNL     1      22.262  62.470  22.316  1.00  0.00    -0.314 N 
HETATM   14  C   UNL     1      25.978  61.217  19.637  1.00  0.00     0.046 C 
HETATM   15  C   UNL     1      20.226  59.386  23.882  1.00  0.00     0.001 C 
HETATM   16  C   UNL     1      25.548  62.160  18.566  1.00  0.00     0.261 C 
HETATM   17  C   UNL     1      19.460  60.502  23.583  1.00  0.00     0.002 C 
ENDROOT
BRANCH   4  18
HETATM   18  C   UNL     1      21.214  64.714  21.729  1.00  0.00     0.067 C 
BRANCH  18  19
HETATM   19  C   UNL     1      19.953  64.477  20.958  1.00  0.00     0.036 C 
HETATM   20  C   UNL     1      19.523  65.483  19.947  1.00  0.00     0.034 C 
HETATM   21  C   UNL     1      18.142  65.880  20.300  1.00  0.00    -0.016 C 
HETATM   22  C   UNL     1      17.724  65.159  21.421  1.00  0.00    -0.044 C 
HETATM   23  C   UNL     1      17.394  66.748  19.497  1.00  0.00     0.013 C 
HETATM   24  C   UNL     1      16.566  65.317  22.161  1.00  0.00     0.044 C 
HETATM   25  C   UNL     1      18.766  64.166  21.849  1.00  0.00     0.049 C 
HETATM   26  C   UNL     1      15.717  66.412  22.135  1.00  0.00     0.066 C 
HETATM   27  C   UNL     1      15.695  67.398  21.171  1.00  0.00     0.036 C 
HETATM   28  C   UNL     1      16.338  67.512  19.959  1.00  0.00     0.004 C 
BRANCH  20  29
HETATM   29  C   UNL     1      20.377  66.577  19.373  1.00  0.00     0.206 C 
HETATM   30  O   UNL     1      20.635  67.579  20.078  1.00  0.00    -0.644 OA
HETATM   31  O   UNL     1      20.725  66.386  18.158  1.00  0.00    -0.644 OA
ENDBRANCH  20  29
BRANCH  26  32
HETATM   32  O   UNL     1      14.794  66.564  23.131  1.00  0.00    -0.361 OA
ATOM     33  HO  UNL     1      14.461  65.751  23.493  1.00  0.00     0.217 HD
ENDBRANCH  26  32
ENDBRANCH  18  19
ENDBRANCH   4  18
BRANCH  16  34
HETATM   34  O   UNL     1      26.675  62.813  18.024  1.00  0.00    -0.359 OA
ATOM     35  HO  UNL     1      27.259  63.013  18.746  1.00  0.00     0.213 HD
ENDBRANCH  16  34
BRANCH  16  36
HETATM   36  N   UNL     1      24.864  61.425  17.510  1.00  0.00    -0.040 N 
ATOM     37  HN3 UNL     1      23.933  61.795  17.322  1.00  0.00     0.278 HD
ATOM     38  HN2 UNL     1      25.275  61.594  16.592  1.00  0.00     0.278 HD
ATOM     39  HN1 UNL     1      24.846  60.433  17.748  1.00  0.00     0.278 HD
ENDBRANCH  16  36
TORSDOF 6
ENDMDL
MODEL 5
REMARK VINA RESULT:      -9.0      3.314      6.062
REMARK  6 active torsions:
REMARK  status: ('A' for Active; 'I' for Inactive)
REMARK    1  A    between atoms: O_1  and  C_38 
REMARK    2  A    between atoms: O_6  and  C_8 
REMARK    3  A    between atoms: C_10  and  C_20 
REMARK    4  A    between atoms: N_13  and  C_38 
REMARK    5  A    between atoms: C_17  and  C_35 
REMARK    6  A    between atoms: C_20  and  C_32 
ROOT
HETATM    1  C   UNL     1      24.910  68.463  18.230  1.00  0.00     0.015 C 
HETATM    2  C   UNL     1      20.221  65.270  19.737  1.00  0.00     0.031 C 
HETATM    3  C   UNL     1      26.384  66.846  19.950  1.00  0.00     0.057 C 
HETATM    4  C   UNL     1      23.362  64.956  19.747  1.00  0.00     0.019 C 
HETATM    5  C   UNL     1      19.821  67.773  18.544  1.00  0.00     0.014 C 
HETATM    6  C   UNL     1      25.031  66.584  19.719  1.00  0.00    -0.021 C 
HETATM    7  C   UNL     1      24.342  67.275  18.710  1.00  0.00     0.001 C 
HETATM    8  C   UNL     1      22.122  67.352  17.544  1.00  0.00     0.044 C 
HETATM    9  C   UNL     1      21.220  65.872  18.988  1.00  0.00     0.050 C 
HETATM   10  C   UNL     1      24.344  65.628  20.467  1.00  0.00     0.037 C 
HETATM   11  C   UNL     1      20.939  67.005  18.229  1.00  0.00    -0.007 C 
HETATM   12  C   UNL     1      23.143  66.718  18.234  1.00  0.00     0.051 C 
HETATM   13  N   UNL     1      22.569  65.749  19.001  1.00  0.00    -0.314 N 
HETATM   14  C   UNL     1      25.990  69.040  18.877  1.00  0.00     0.046 C 
HETATM   15  C   UNL     1      18.855  67.225  19.377  1.00  0.00     0.001 C 
HETATM   16  C   UNL     1      26.788  68.276  19.878  1.00  0.00     0.261 C 
HETATM   17  C   UNL     1      19.057  65.990  19.974  1.00  0.00     0.002 C 
ENDROOT
BRANCH   4  18
HETATM   18  C   UNL     1      23.289  63.473  19.881  1.00  0.00     0.067 C 
BRANCH  18  19
HETATM   19  C   UNL     1      23.162  63.309  21.363  1.00  0.00     0.036 C 
HETATM   20  C   UNL     1      23.649  62.052  21.997  1.00  0.00     0.034 C 
HETATM   21  C   UNL     1      22.516  61.493  22.766  1.00  0.00    -0.016 C 
HETATM   22  C   UNL     1      21.413  62.345  22.653  1.00  0.00    -0.044 C 
HETATM   23  C   UNL     1      22.654  60.355  23.568  1.00  0.00     0.013 C 
HETATM   24  C   UNL     1      20.119  62.138  23.094  1.00  0.00     0.044 C 
HETATM   25  C   UNL     1      21.758  63.579  21.869  1.00  0.00     0.049 C 
HETATM   26  C   UNL     1      19.564  60.926  23.473  1.00  0.00     0.066 C 
HETATM   27  C   UNL     1      20.260  59.772  23.768  1.00  0.00     0.036 C 
HETATM   28  C   UNL     1      21.605  59.526  23.921  1.00  0.00     0.004 C 
BRANCH  20  29
HETATM   29  C   UNL     1      24.553  61.036  21.361  1.00  0.00     0.206 C 
HETATM   30  O   UNL     1      24.098  60.299  20.457  1.00  0.00    -0.644 OA
HETATM   31  O   UNL     1      25.729  60.995  21.861  1.00  0.00    -0.644 OA
ENDBRANCH  20  29
BRANCH  26  32
HETATM   32  O   UNL     1      18.207  60.820  23.588  1.00  0.00    -0.361 OA
ATOM     33  HO  UNL     1      17.905  60.052  24.059  1.00  0.00     0.217 HD
ENDBRANCH  26  32
ENDBRANCH  18  19
ENDBRANCH   4  18
BRANCH  16  34
HETATM   34  O   UNL     1      28.153  68.308  19.526  1.00  0.00    -0.359 OA
ATOM     35  HO  UNL     1      28.580  67.596  19.988  1.00  0.00     0.213 HD
ENDBRANCH  16  34
BRANCH  16  36
HETATM   36  N   UNL     1      26.617  68.871  21.197  1.00  0.00    -0.040 N 
ATOM     37  HN3 UNL     1      25.797  68.506  21.683  1.00  0.00     0.278 HD
ATOM     38  HN2 UNL     1      27.327  68.556  21.859  1.00  0.00     0.278 HD
ATOM     39  HN1 UNL     1      26.595  69.886  21.109  1.00  0.00     0.278 HD
ENDBRANCH  16  36
TORSDOF 6
ENDMDL
MODEL 6
REMARK VINA RESULT:      -8.9      2.522      7.648
REMARK  6 active torsions:
REMARK  status: ('A' for Active; 'I' for Inactive)
REMARK    1  A    between atoms: O_1  and  C_38 
REMARK    2  A    between atoms: O_6  and  C_8 
REMARK    3  A    between atoms: C_10  and  C_20 
REMARK    4  A    between atoms: N_13  and  C_38 
REMARK    5  A    between atoms: C_17  and  C_35 
REMARK    6  A    between atoms: C_20  and  C_32 
ROOT
HETATM    1  C   UNL     1      24.954  60.546  21.811  1.00  0.00     0.015 C 
HETATM    2  C   UNL     1      19.501  62.653  22.339  1.00  0.00     0.031 C 
HETATM    3  C   UNL     1      25.272  62.303  19.676  1.00  0.00     0.057 C 
HETATM    4  C   UNL     1      22.251  63.575  21.092  1.00  0.00     0.019 C 
HETATM    5  C   UNL     1      20.123  60.205  23.549  1.00  0.00     0.014 C 
HETATM    6  C   UNL     1      24.095  62.310  20.429  1.00  0.00    -0.021 C 
HETATM    7  C   UNL     1      24.013  61.566  21.616  1.00  0.00     0.001 C 
HETATM    8  C   UNL     1      22.492  61.132  23.564  1.00  0.00     0.044 C 
HETATM    9  C   UNL     1      20.815  62.309  22.621  1.00  0.00     0.050 C 
HETATM   10  C   UNL     1      22.989  63.062  20.031  1.00  0.00     0.037 C 
HETATM   11  C   UNL     1      21.092  61.195  23.409  1.00  0.00    -0.007 C 
HETATM   12  C   UNL     1      23.008  61.907  22.538  1.00  0.00     0.051 C 
HETATM   13  N   UNL     1      21.994  62.692  22.077  1.00  0.00    -0.314 N 
HETATM   14  C   UNL     1      25.789  60.150  20.779  1.00  0.00     0.046 C 
HETATM   15  C   UNL     1      18.818  60.497  23.176  1.00  0.00     0.001 C 
HETATM   16  C   UNL     1      25.956  60.988  19.558  1.00  0.00     0.261 C 
HETATM   17  C   UNL     1      18.513  61.706  22.570  1.00  0.00     0.002 C 
ENDROOT
BRANCH   4  18
HETATM   18  C   UNL     1      21.829  65.003  21.024  1.00  0.00     0.067 C 
BRANCH  18  19
HETATM   19  C   UNL     1      21.295  65.094  19.628  1.00  0.00     0.036 C 
HETATM   20  C   UNL     1      21.532  66.337  18.842  1.00  0.00     0.034 C 
HETATM   21  C   UNL     1      20.208  66.819  18.394  1.00  0.00    -0.016 C 
HETATM   22  C   UNL     1      19.219  65.934  18.833  1.00  0.00    -0.044 C 
HETATM   23  C   UNL     1      20.069  67.923  17.546  1.00  0.00     0.013 C 
HETATM   24  C   UNL     1      17.845  66.074  18.757  1.00  0.00     0.044 C 
HETATM   25  C   UNL     1      19.821  64.751  19.535  1.00  0.00     0.049 C 
HETATM   26  C   UNL     1      17.151  67.247  18.502  1.00  0.00     0.066 C 
HETATM   27  C   UNL     1      17.686  68.410  17.989  1.00  0.00     0.036 C 
HETATM   28  C   UNL     1      18.926  68.697  17.465  1.00  0.00     0.004 C 
BRANCH  20  29
HETATM   29  C   UNL     1      22.527  67.413  19.172  1.00  0.00     0.206 C 
HETATM   30  O   UNL     1      22.254  68.236  20.075  1.00  0.00    -0.644 OA
HETATM   31  O   UNL     1      23.570  67.406  18.433  1.00  0.00    -0.644 OA
ENDBRANCH  20  29
BRANCH  26  32
HETATM   32  O   UNL     1      15.811  67.299  18.760  1.00  0.00    -0.361 OA
ATOM     33  HO  UNL     1      15.256  67.293  17.988  1.00  0.00     0.217 HD
ENDBRANCH  26  32
ENDBRANCH  18  19
ENDBRANCH   4  18
BRANCH  16  34
HETATM   34  O   UNL     1      27.326  61.247  19.340  1.00  0.00    -0.359 OA
ATOM     35  HO  UNL     1      27.412  61.577  18.453  1.00  0.00     0.213 HD
ENDBRANCH  16  34
BRANCH  16  36
HETATM   36  N   UNL     1      25.410  60.286  18.403  1.00  0.00    -0.040 N 
ATOM     37  HN3 UNL     1      25.059  59.359  18.645  1.00  0.00     0.278 HD
ATOM     38  HN2 UNL     1      24.531  60.693  18.083  1.00  0.00     0.278 HD
ATOM     39  HN1 UNL     1      26.113  60.253  17.665  1.00  0.00     0.278 HD
ENDBRANCH  16  36
TORSDOF 6
ENDMDL
MODEL 7
REMARK VINA RESULT:      -8.8      2.271      7.328
REMARK  6 active torsions:
REMARK  status: ('A' for Active; 'I' for Inactive)
REMARK    1  A    between atoms: O_1  and  C_38 
REMARK    2  A    between atoms: O_6  and  C_8 
REMARK    3  A    between atoms: C_10  and  C_20 
REMARK    4  A    between atoms: N_13  and  C_38 
REMARK    5  A    between atoms: C_17  and  C_35 
REMARK    6  A    between atoms: C_20  and  C_32 
ROOT
HETATM    1  C   UNL     1      25.077  60.969  21.897  1.00  0.00     0.015 C 
HETATM    2  C   UNL     1      19.427  62.561  21.864  1.00  0.00     0.031 C 
HETATM    3  C   UNL     1      25.294  62.217  19.419  1.00  0.00     0.057 C 
HETATM    4  C   UNL     1      22.115  63.456  20.470  1.00  0.00     0.019 C 
HETATM    5  C   UNL     1      20.245  60.530  23.611  1.00  0.00     0.014 C 
HETATM    6  C   UNL     1      24.096  62.273  20.136  1.00  0.00    -0.021 C 
HETATM    7  C   UNL     1      24.047  61.813  21.461  1.00  0.00     0.001 C 
HETATM    8  C   UNL     1      22.509  61.678  23.439  1.00  0.00     0.044 C 
HETATM    9  C   UNL     1      20.757  62.428  22.233  1.00  0.00     0.050 C 
HETATM   10  C   UNL     1      22.936  62.795  19.564  1.00  0.00     0.037 C 
HETATM   11  C   UNL     1      21.116  61.558  23.258  1.00  0.00    -0.007 C 
HETATM   12  C   UNL     1      22.982  62.249  22.269  1.00  0.00     0.051 C 
HETATM   13  N   UNL     1      21.912  62.799  21.629  1.00  0.00    -0.314 N 
HETATM   14  C   UNL     1      25.982  60.437  20.993  1.00  0.00     0.046 C 
HETATM   15  C   UNL     1      18.931  60.592  23.166  1.00  0.00     0.001 C 
HETATM   16  C   UNL     1      26.109  60.988  19.614  1.00  0.00     0.261 C 
HETATM   17  C   UNL     1      18.530  61.594  22.294  1.00  0.00     0.002 C 
ENDROOT
BRANCH   4  18
HETATM   18  C   UNL     1      21.556  64.779  20.070  1.00  0.00     0.067 C 
BRANCH  18  19
HETATM   19  C   UNL     1      22.132  65.679  21.118  1.00  0.00     0.036 C 
HETATM   20  C   UNL     1      21.363  66.882  21.543  1.00  0.00     0.034 C 
HETATM   21  C   UNL     1      22.256  68.047  21.363  1.00  0.00    -0.016 C 
HETATM   22  C   UNL     1      23.499  67.612  20.895  1.00  0.00    -0.044 C 
HETATM   23  C   UNL     1      21.881  69.336  21.758  1.00  0.00     0.013 C 
HETATM   24  C   UNL     1      24.570  68.373  20.465  1.00  0.00     0.044 C 
HETATM   25  C   UNL     1      23.552  66.113  20.809  1.00  0.00     0.049 C 
HETATM   26  C   UNL     1      24.540  69.716  20.122  1.00  0.00     0.066 C 
HETATM   27  C   UNL     1      23.530  70.607  20.425  1.00  0.00     0.036 C 
HETATM   28  C   UNL     1      22.417  70.495  21.225  1.00  0.00     0.004 C 
BRANCH  20  29
HETATM   29  C   UNL     1      19.909  67.142  21.267  1.00  0.00     0.206 C 
HETATM   30  O   UNL     1      19.597  67.922  20.339  1.00  0.00    -0.644 OA
HETATM   31  O   UNL     1      19.110  66.553  22.072  1.00  0.00    -0.644 OA
ENDBRANCH  20  29
BRANCH  26  32
HETATM   32  O   UNL     1      25.587  70.252  19.430  1.00  0.00    -0.361 OA
ATOM     33  HO  UNL     1      25.870  71.107  19.733  1.00  0.00     0.217 HD
ENDBRANCH  26  32
ENDBRANCH  18  19
ENDBRANCH   4  18
BRANCH  16  34
HETATM   34  O   UNL     1      27.453  61.332  19.358  1.00  0.00    -0.359 OA
ATOM     35  HO  UNL     1      27.451  62.189  18.947  1.00  0.00     0.213 HD
ENDBRANCH  16  34
BRANCH  16  36
HETATM   36  N   UNL     1      25.675  59.989  18.646  1.00  0.00    -0.040 N 
ATOM     37  HN3 UNL     1      24.661  59.887  18.623  1.00  0.00     0.278 HD
ATOM     38  HN2 UNL     1      25.811  60.299  17.683  1.00  0.00     0.278 HD
ATOM     39  HN1 UNL     1      26.148  59.106  18.838  1.00  0.00     0.278 HD
ENDBRANCH  16  36
TORSDOF 6
ENDMDL
MODEL 8
REMARK VINA RESULT:      -8.8      3.021      6.090
REMARK  6 active torsions:
REMARK  status: ('A' for Active; 'I' for Inactive)
REMARK    1  A    between atoms: O_1  and  C_38 
REMARK    2  A    between atoms: O_6  and  C_8 
REMARK    3  A    between atoms: C_10  and  C_20 
REMARK    4  A    between atoms: N_13  and  C_38 
REMARK    5  A    between atoms: C_17  and  C_35 
REMARK    6  A    between atoms: C_20  and  C_32 
ROOT
HETATM    1  C   UNL     1      17.672  68.022  22.365  1.00  0.00     0.015 C 
HETATM    2  C   UNL     1      21.975  67.588  18.396  1.00  0.00     0.031 C 
HETATM    3  C   UNL     1      16.863  65.486  21.553  1.00  0.00     0.057 C 
HETATM    4  C   UNL     1      20.077  65.646  20.005  1.00  0.00     0.019 C 
HETATM    5  C   UNL     1      21.305  70.121  19.386  1.00  0.00     0.014 C 
HETATM    6  C   UNL     1      18.020  66.062  21.023  1.00  0.00    -0.021 C 
HETATM    7  C   UNL     1      18.531  67.249  21.571  1.00  0.00     0.001 C 
HETATM    8  C   UNL     1      20.490  68.807  21.407  1.00  0.00     0.044 C 
HETATM    9  C   UNL     1      21.301  67.729  19.599  1.00  0.00     0.050 C 
HETATM   10  C   UNL     1      18.698  65.470  19.957  1.00  0.00     0.037 C 
HETATM   11  C   UNL     1      21.164  68.986  20.181  1.00  0.00    -0.007 C 
HETATM   12  C   UNL     1      19.873  67.571  21.308  1.00  0.00     0.051 C 
HETATM   13  N   UNL     1      20.475  66.903  20.284  1.00  0.00    -0.314 N 
HETATM   14  C   UNL     1      16.318  67.736  22.422  1.00  0.00     0.046 C 
HETATM   15  C   UNL     1      21.887  69.984  18.133  1.00  0.00     0.001 C 
HETATM   16  C   UNL     1      15.783  66.434  21.932  1.00  0.00     0.261 C 
HETATM   17  C   UNL     1      22.210  68.729  17.641  1.00  0.00     0.002 C 
ENDROOT
BRANCH   4  18
HETATM   18  C   UNL     1      20.942  64.460  19.743  1.00  0.00     0.067 C 
BRANCH  18  19
HETATM   19  C   UNL     1      21.551  64.227  21.090  1.00  0.00     0.036 C 
HETATM   20  C   UNL     1      22.797  63.416  21.191  1.00  0.00     0.034 C 
HETATM   21  C   UNL     1      22.521  62.323  22.148  1.00  0.00    -0.016 C 
HETATM   22  C   UNL     1      21.217  62.453  22.637  1.00  0.00    -0.044 C 
HETATM   23  C   UNL     1      23.512  61.423  22.551  1.00  0.00     0.013 C 
HETATM   24  C   UNL     1      20.509  61.576  23.438  1.00  0.00     0.044 C 
HETATM   25  C   UNL     1      20.558  63.692  22.104  1.00  0.00     0.049 C 
HETATM   26  C   UNL     1      20.824  60.249  23.683  1.00  0.00     0.066 C 
HETATM   27  C   UNL     1      22.038  59.643  23.428  1.00  0.00     0.036 C 
HETATM   28  C   UNL     1      23.254  60.154  23.037  1.00  0.00     0.004 C 
BRANCH  20  29
HETATM   29  C   UNL     1      23.709  63.055  20.053  1.00  0.00     0.206 C 
HETATM   30  O   UNL     1      23.538  61.965  19.460  1.00  0.00    -0.644 OA
HETATM   31  O   UNL     1      24.632  63.910  19.830  1.00  0.00    -0.644 OA
ENDBRANCH  20  29
BRANCH  26  32
HETATM   32  O   UNL     1      19.881  59.430  24.236  1.00  0.00    -0.361 OA
ATOM     33  HO  UNL     1      19.623  58.695  23.691  1.00  0.00     0.217 HD
ENDBRANCH  26  32
ENDBRANCH  18  19
ENDBRANCH   4  18
BRANCH  16  34
HETATM   34  O   UNL     1      15.021  65.818  22.947  1.00  0.00    -0.359 OA
ATOM     35  HO  UNL     1      14.680  66.509  23.502  1.00  0.00     0.213 HD
ENDBRANCH  16  34
BRANCH  16  36
HETATM   36  N   UNL     1      14.937  66.660  20.767  1.00  0.00    -0.040 N 
ATOM     37  HN3 UNL     1      15.470  66.983  19.959  1.00  0.00     0.278 HD
ATOM     38  HN2 UNL     1      14.586  65.788  20.369  1.00  0.00     0.278 HD
ATOM     39  HN1 UNL     1      14.185  67.302  21.015  1.00  0.00     0.278 HD
ENDBRANCH  16  36
TORSDOF 6
ENDMDL
MODEL 9
REMARK VINA RESULT:      -8.7      3.167      5.973
REMARK  6 active torsions:
REMARK  status: ('A' for Active; 'I' for Inactive)
REMARK    1  A    between atoms: O_1  and  C_38 
REMARK    2  A    between atoms: O_6  and  C_8 
REMARK    3  A    between atoms: C_10  and  C_20 
REMARK    4  A    between atoms: N_13  and  C_38 
REMARK    5  A    between atoms: C_17  and  C_35 
REMARK    6  A    between atoms: C_20  and  C_32 
ROOT
HETATM    1  C   UNL     1      22.967  68.864  18.636  1.00  0.00     0.015 C 
HETATM    2  C   UNL     1      17.778  66.127  18.432  1.00  0.00     0.031 C 
HETATM    3  C   UNL     1      23.448  67.469  20.995  1.00  0.00     0.057 C 
HETATM    4  C   UNL     1      20.597  65.693  19.785  1.00  0.00     0.019 C 
HETATM    5  C   UNL     1      18.146  68.435  16.888  1.00  0.00     0.014 C 
HETATM    6  C   UNL     1      22.286  67.229  20.256  1.00  0.00    -0.021 C 
HETATM    7  C   UNL     1      22.138  67.787  18.977  1.00  0.00     0.001 C 
HETATM    8  C   UNL     1      20.601  67.776  16.993  1.00  0.00     0.044 C 
HETATM    9  C   UNL     1      19.050  66.569  18.099  1.00  0.00     0.050 C 
HETATM   10  C   UNL     1      21.264  66.426  20.760  1.00  0.00     0.037 C 
HETATM   11  C   UNL     1      19.214  67.584  17.161  1.00  0.00    -0.007 C 
HETATM   12  C   UNL     1      21.186  67.213  18.116  1.00  0.00     0.051 C 
HETATM   13  N   UNL     1      20.258  66.395  18.686  1.00  0.00    -0.314 N 
HETATM   14  C   UNL     1      23.742  69.489  19.598  1.00  0.00     0.046 C 
HETATM   15  C   UNL     1      16.876  68.058  17.303  1.00  0.00     0.001 C 
HETATM   16  C   UNL     1      23.985  68.854  20.924  1.00  0.00     0.261 C 
HETATM   17  C   UNL     1      16.696  66.920  18.075  1.00  0.00     0.002 C 
ENDROOT
BRANCH   4  18
HETATM   18  C   UNL     1      20.330  64.251  20.055  1.00  0.00     0.067 C 
BRANCH  18  19
HETATM   19  C   UNL     1      21.012  64.059  21.373  1.00  0.00     0.036 C 
HETATM   20  C   UNL     1      22.332  63.369  21.412  1.00  0.00     0.034 C 
HETATM   21  C   UNL     1      22.197  62.242  22.361  1.00  0.00    -0.016 C 
HETATM   22  C   UNL     1      20.909  62.242  22.902  1.00  0.00    -0.044 C 
HETATM   23  C   UNL     1      23.285  61.434  22.711  1.00  0.00     0.013 C 
HETATM   24  C   UNL     1      20.318  61.293  23.716  1.00  0.00     0.044 C 
HETATM   25  C   UNL     1      20.115  63.421  22.416  1.00  0.00     0.049 C 
HETATM   26  C   UNL     1      20.766  59.998  23.927  1.00  0.00     0.066 C 
HETATM   27  C   UNL     1      22.020  59.513  23.615  1.00  0.00     0.036 C 
HETATM   28  C   UNL     1      23.166  60.141  23.186  1.00  0.00     0.004 C 
BRANCH  20  29
HETATM   29  C   UNL     1      23.227  63.109  20.234  1.00  0.00     0.206 C 
HETATM   30  O   UNL     1      23.278  61.954  19.753  1.00  0.00    -0.644 OA
HETATM   31  O   UNL     1      23.907  64.125  19.860  1.00  0.00    -0.644 OA
ENDBRANCH  20  29
BRANCH  26  32
HETATM   32  O   UNL     1      19.927  59.087  24.503  1.00  0.00    -0.361 OA
ATOM     33  HO  UNL     1      20.006  58.202  24.163  1.00  0.00     0.217 HD
ENDBRANCH  26  32
ENDBRANCH  18  19
ENDBRANCH   4  18
BRANCH  16  34
HETATM   34  O   UNL     1      25.372  68.777  21.171  1.00  0.00    -0.359 OA
ATOM     35  HO  UNL     1      25.691  67.991  20.744  1.00  0.00     0.213 HD
ENDBRANCH  16  34
BRANCH  16  36
HETATM   36  N   UNL     1      23.354  69.648  21.971  1.00  0.00    -0.040 N 
ATOM     37  HN3 UNL     1      24.019  70.257  22.448  1.00  0.00     0.278 HD
ATOM     38  HN2 UNL     1      22.742  70.371  21.592  1.00  0.00     0.278 HD
ATOM     39  HN1 UNL     1      22.865  69.027  22.616  1.00  0.00     0.278 HD
ENDBRANCH  16  36
TORSDOF 6
ENDMDL
