MODEL 1
REMARK VINA RESULT:     -10.2      0.000      0.000
REMARK  4 active torsions:
REMARK  status: ('A' for Active; 'I' for Inactive)
REMARK    1  A    between atoms: C_5  and  N_18 
REMARK    2  A    between atoms: C_6  and  C_15 
REMARK    3  A    between atoms: C_13  and  C_14 
REMARK    4  A    between atoms: C_16  and  O_25 
ROOT
HETATM    1  C   UNL     1      70.471  53.990  37.002  1.00  0.00     0.046 C 
HETATM    2  N   UNL     1      69.645  54.480  36.030  1.00  0.00    -0.341 N 
ATOM      3  HN  UNL     1      68.667  54.705  36.211  1.00  0.00     0.167 HD
HETATM    4  C   UNL     1      70.212  54.649  34.808  1.00  0.00     0.116 C 
HETATM    5  C   UNL     1      70.034  54.083  38.320  1.00  0.00     0.049 C 
HETATM    6  C   UNL     1      71.847  53.317  39.747  1.00  0.00     0.055 C 
HETATM    7  C   UNL     1      71.682  53.412  36.603  1.00  0.00     0.009 C 
HETATM    8  N   UNL     1      71.081  53.730  34.333  1.00  0.00    -0.351 N 
ATOM      9  HN  UNL     1      71.071  53.400  33.368  1.00  0.00     0.166 HD
HETATM   10  C   UNL     1      70.505  53.564  39.504  1.00  0.00     0.045 C 
HETATM   11  C   UNL     1      72.636  52.643  38.817  1.00  0.00     0.067 C 
HETATM   12  C   UNL     1      71.955  53.293  35.245  1.00  0.00     0.103 C 
HETATM   13  C   UNL     1      72.655  52.953  37.473  1.00  0.00     0.051 C 
ENDROOT
BRANCH   4  14
HETATM   14  C   UNL     1      70.008  55.814  34.068  1.00  0.00     0.010 C 
HETATM   15  C   UNL     1      70.558  55.962  32.788  1.00  0.00     0.015 C 
HETATM   16  C   UNL     1      70.369  57.167  32.119  1.00  0.00     0.003 C 
HETATM   17  C   UNL     1      69.425  58.083  32.588  1.00  0.00     0.029 C 
HETATM   18  C   UNL     1      68.632  57.741  33.689  1.00  0.00     0.026 C 
HETATM   19  C   UNL     1      69.128  56.776  34.567  1.00  0.00     0.044 C 
BRANCH  18  20
HETATM   20  N   UNL     1      67.291  57.987  33.571  1.00  0.00    -0.399 N 
ATOM     21  HN2 UNL     1      66.743  57.282  33.077  1.00  0.00     0.156 HD
ATOM     22  HN1 UNL     1      66.798  58.596  34.225  1.00  0.00     0.156 HD
ENDBRANCH  18  20
ENDBRANCH   4  14
BRANCH  10  23
HETATM   23  C   UNL     1      69.561  53.392  40.662  1.00  0.00     0.209 C 
HETATM   24  O   UNL     1      69.896  52.576  41.569  1.00  0.00    -0.644 OA
HETATM   25  O   UNL     1      68.490  54.044  40.676  1.00  0.00    -0.644 OA
ENDBRANCH  10  23
BRANCH  11  26
HETATM   26  O   UNL     1      73.343  51.562  39.254  1.00  0.00    -0.361 OA
ATOM     27  HO  UNL     1      73.591  51.539  40.171  1.00  0.00     0.217 HD
ENDBRANCH  11  26
TORSDOF 4
ENDMDL
MODEL 2
REMARK VINA RESULT:      -9.7      1.004      1.421
REMARK  4 active torsions:
REMARK  status: ('A' for Active; 'I' for Inactive)
REMARK    1  A    between atoms: C_5  and  N_18 
REMARK    2  A    between atoms: C_6  and  C_15 
REMARK    3  A    between atoms: C_13  and  C_14 
REMARK    4  A    between atoms: C_16  and  O_25 
ROOT
HETATM    1  C   UNL     1      70.389  54.008  36.990  1.00  0.00     0.046 C 
HETATM    2  N   UNL     1      69.519  54.462  36.039  1.00  0.00    -0.341 N 
ATOM      3  HN  UNL     1      68.536  54.643  36.245  1.00  0.00     0.167 HD
HETATM    4  C   UNL     1      70.047  54.657  34.804  1.00  0.00     0.116 C 
HETATM    5  C   UNL     1      69.981  54.080  38.318  1.00  0.00     0.049 C 
HETATM    6  C   UNL     1      71.861  53.396  39.698  1.00  0.00     0.055 C 
HETATM    7  C   UNL     1      71.615  53.486  36.560  1.00  0.00     0.009 C 
HETATM    8  N   UNL     1      70.944  53.779  34.306  1.00  0.00    -0.351 N 
ATOM      9  HN  UNL     1      70.925  53.449  33.341  1.00  0.00     0.166 HD
HETATM   10  C   UNL     1      70.504  53.583  39.489  1.00  0.00     0.045 C 
HETATM   11  C   UNL     1      72.657  52.758  38.748  1.00  0.00     0.067 C 
HETATM   12  C   UNL     1      71.860  53.381  35.195  1.00  0.00     0.103 C 
HETATM   13  C   UNL     1      72.629  53.071  37.404  1.00  0.00     0.051 C 
ENDROOT
BRANCH   4  14
HETATM   14  C   UNL     1      69.773  55.813  34.071  1.00  0.00     0.010 C 
HETATM   15  C   UNL     1      69.315  56.976  34.702  1.00  0.00     0.015 C 
HETATM   16  C   UNL     1      69.004  58.081  33.915  1.00  0.00     0.003 C 
HETATM   17  C   UNL     1      69.409  58.119  32.579  1.00  0.00     0.029 C 
HETATM   18  C   UNL     1      70.183  57.070  32.071  1.00  0.00     0.026 C 
HETATM   19  C   UNL     1      70.098  55.834  32.713  1.00  0.00     0.044 C 
BRANCH  18  20
HETATM   20  N   UNL     1      71.284  57.427  31.340  1.00  0.00    -0.399 N 
ATOM     21  HN2 UNL     1      71.334  58.401  31.042  1.00  0.00     0.156 HD
ATOM     22  HN1 UNL     1      72.159  56.905  31.399  1.00  0.00     0.156 HD
ENDBRANCH  18  20
ENDBRANCH   4  14
BRANCH  10  23
HETATM   23  C   UNL     1      69.598  53.367  40.670  1.00  0.00     0.209 C 
HETATM   24  O   UNL     1      69.969  52.531  41.543  1.00  0.00    -0.644 OA
HETATM   25  O   UNL     1      68.521  54.005  40.734  1.00  0.00    -0.644 OA
ENDBRANCH  10  23
BRANCH  11  26
HETATM   26  O   UNL     1      73.422  51.710  39.165  1.00  0.00    -0.361 OA
ATOM     27  HO  UNL     1      74.290  51.904  39.499  1.00  0.00     0.217 HD
ENDBRANCH  11  26
TORSDOF 4
ENDMDL
MODEL 3
REMARK VINA RESULT:      -8.6      4.077      7.490
REMARK  4 active torsions:
REMARK  status: ('A' for Active; 'I' for Inactive)
REMARK    1  A    between atoms: C_5  and  N_18 
REMARK    2  A    between atoms: C_6  and  C_15 
REMARK    3  A    between atoms: C_13  and  C_14 
REMARK    4  A    between atoms: C_16  and  O_25 
ROOT
HETATM    1  C   UNL     1      70.956  54.238  33.743  1.00  0.00     0.046 C 
HETATM    2  N   UNL     1      70.724  53.445  34.832  1.00  0.00    -0.341 N 
ATOM      3  HN  UNL     1      70.880  52.438  34.812  1.00  0.00     0.167 HD
HETATM    4  C   UNL     1      70.272  54.086  35.939  1.00  0.00     0.116 C 
HETATM    5  C   UNL     1      71.693  53.691  32.698  1.00  0.00     0.049 C 
HETATM    6  C   UNL     1      72.075  55.456  31.071  1.00  0.00     0.055 C 
HETATM    7  C   UNL     1      70.419  55.531  33.749  1.00  0.00     0.009 C 
HETATM    8  N   UNL     1      69.367  55.082  35.824  1.00  0.00    -0.351 N 
ATOM      9  HN  UNL     1      68.566  55.183  36.448  1.00  0.00     0.166 HD
HETATM   10  C   UNL     1      71.971  54.119  31.421  1.00  0.00     0.045 C 
HETATM   11  C   UNL     1      71.114  56.383  31.469  1.00  0.00     0.067 C 
HETATM   12  C   UNL     1      69.617  55.922  34.815  1.00  0.00     0.103 C 
HETATM   13  C   UNL     1      70.641  56.476  32.762  1.00  0.00     0.051 C 
ENDROOT
BRANCH   4  14
HETATM   14  C   UNL     1      70.807  53.820  37.201  1.00  0.00     0.010 C 
HETATM   15  C   UNL     1      70.027  53.947  38.357  1.00  0.00     0.015 C 
HETATM   16  C   UNL     1      70.628  53.724  39.592  1.00  0.00     0.003 C 
HETATM   17  C   UNL     1      71.884  53.115  39.655  1.00  0.00     0.029 C 
HETATM   18  C   UNL     1      72.488  52.676  38.472  1.00  0.00     0.026 C 
HETATM   19  C   UNL     1      72.095  53.287  37.280  1.00  0.00     0.044 C 
BRANCH  18  20
HETATM   20  N   UNL     1      73.019  51.415  38.493  1.00  0.00    -0.399 N 
ATOM     21  HN2 UNL     1      72.697  50.800  39.240  1.00  0.00     0.156 HD
ATOM     22  HN1 UNL     1      73.398  50.978  37.652  1.00  0.00     0.156 HD
ENDBRANCH  18  20
ENDBRANCH   4  14
BRANCH  10  23
HETATM   23  C   UNL     1      72.335  53.110  30.366  1.00  0.00     0.209 C 
HETATM   24  O   UNL     1      72.359  51.893  30.709  1.00  0.00    -0.644 OA
HETATM   25  O   UNL     1      72.611  53.511  29.211  1.00  0.00    -0.644 OA
ENDBRANCH  10  23
BRANCH  11  26
HETATM   26  O   UNL     1      70.550  57.163  30.504  1.00  0.00    -0.361 OA
ATOM     27  HO  UNL     1      71.023  57.263  29.686  1.00  0.00     0.217 HD
ENDBRANCH  11  26
TORSDOF 4
ENDMDL
MODEL 4
REMARK VINA RESULT:      -7.4      5.050      8.100
REMARK  4 active torsions:
REMARK  status: ('A' for Active; 'I' for Inactive)
REMARK    1  A    between atoms: C_5  and  N_18 
REMARK    2  A    between atoms: C_6  and  C_15 
REMARK    3  A    between atoms: C_13  and  C_14 
REMARK    4  A    between atoms: C_16  and  O_25 
ROOT
HETATM    1  C   UNL     1      71.723  53.648  31.649  1.00  0.00     0.046 C 
HETATM    2  N   UNL     1      71.045  53.276  32.776  1.00  0.00    -0.341 N 
ATOM      3  HN  UNL     1      70.793  52.306  32.963  1.00  0.00     0.167 HD
HETATM    4  C   UNL     1      70.728  54.283  33.629  1.00  0.00     0.116 C 
HETATM    5  C   UNL     1      72.327  52.640  30.903  1.00  0.00     0.049 C 
HETATM    6  C   UNL     1      73.599  53.706  29.129  1.00  0.00     0.055 C 
HETATM    7  C   UNL     1      71.742  55.007  31.315  1.00  0.00     0.009 C 
HETATM    8  N   UNL     1      70.314  55.474  33.147  1.00  0.00    -0.351 N 
ATOM      9  HN  UNL     1      69.538  55.999  33.549  1.00  0.00     0.166 HD
HETATM   10  C   UNL     1      72.929  52.620  29.667  1.00  0.00     0.045 C 
HETATM   11  C   UNL     1      73.034  54.980  29.138  1.00  0.00     0.067 C 
HETATM   12  C   UNL     1      71.015  55.902  32.092  1.00  0.00     0.103 C 
HETATM   13  C   UNL     1      72.457  55.544  30.258  1.00  0.00     0.051 C 
ENDROOT
BRANCH   4  14
HETATM   14  C   UNL     1      70.929  54.159  35.005  1.00  0.00     0.010 C 
HETATM   15  C   UNL     1      69.878  54.353  35.909  1.00  0.00     0.015 C 
HETATM   16  C   UNL     1      70.149  54.272  37.272  1.00  0.00     0.003 C 
HETATM   17  C   UNL     1      71.360  53.733  37.709  1.00  0.00     0.029 C 
HETATM   18  C   UNL     1      72.256  53.217  36.767  1.00  0.00     0.026 C 
HETATM   19  C   UNL     1      72.167  53.697  35.459  1.00  0.00     0.044 C 
BRANCH  18  20
HETATM   20  N   UNL     1      72.794  51.990  37.047  1.00  0.00    -0.399 N 
ATOM     21  HN2 UNL     1      73.433  51.946  37.840  1.00  0.00     0.156 HD
ATOM     22  HN1 UNL     1      72.333  51.125  36.763  1.00  0.00     0.156 HD
ENDBRANCH  18  20
ENDBRANCH   4  14
BRANCH  10  23
HETATM   23  C   UNL     1      73.014  51.324  28.908  1.00  0.00     0.209 C 
HETATM   24  O   UNL     1      73.418  51.376  27.711  1.00  0.00    -0.644 OA
HETATM   25  O   UNL     1      72.672  50.261  29.479  1.00  0.00    -0.644 OA
ENDBRANCH  10  23
BRANCH  11  26
HETATM   26  O   UNL     1      72.966  55.650  27.954  1.00  0.00    -0.361 OA
ATOM     27  HO  UNL     1      73.543  56.396  27.835  1.00  0.00     0.217 HD
ENDBRANCH  11  26
TORSDOF 4
ENDMDL
