REMARK  12 active torsions:
REMARK  status: ('A' for Active; 'I' for Inactive)
REMARK    1  A    between atoms: O_1  and  N_18 
REMARK    2  A    between atoms: C_3  and  C_9 
REMARK    3  A    between atoms: C_3  and  C_11 
REMARK    4  A    between atoms: C_5  and  N_22 
REMARK    5  A    between atoms: C_5  and  C_23 
REMARK    6  A    between atoms: C_7  and  O_8 
REMARK    7  A    between atoms: O_8  and  N_15 
REMARK    8  A    between atoms: C_9  and  N_22 
REMARK       I    between atoms: C_11  and  N_19 
REMARK    9  A    between atoms: O_12  and  N_22 
REMARK   10  A    between atoms: O_14  and  O_16 
REMARK   11  A    between atoms: N_15  and  C_21 
REMARK   12  A    between atoms: N_19  and  C_21 
ROOT
HETATM    1  C   UNL     1      13.141   6.010  15.845  1.00  0.00     0.130 C 
ENDROOT
BRANCH   1   2
HETATM    2  C   UNL     1      13.127   6.425  17.289  1.00  0.00     0.119 C 
BRANCH   2   3
HETATM    3  C   UNL     1      13.114   7.894  17.593  1.00  0.00     0.219 C 
HETATM    4  O   UNL     1      14.116   8.393  18.063  1.00  0.00    -0.274 OA
HETATM    5  N   UNL     1      11.934   8.690  17.394  1.00  0.00    -0.346 N 
ATOM      6  HN  UNL     1      10.994   8.295  17.379  1.00  0.00     0.163 HD
BRANCH   5   7
HETATM    7  C   UNL     1      12.204  10.128  17.213  1.00  0.00     0.267 C 
BRANCH   7   8
HETATM    8  N   UNL     1      11.792  10.833  15.976  1.00  0.00    -0.069 NA
BRANCH   8   9
HETATM    9  O   UNL     1      13.140  11.251  15.284  1.00  0.00    -0.179 OA
BRANCH   9  10
HETATM   10  C   UNL     1      13.508  12.537  14.923  1.00  0.00     0.352 C 
HETATM   11  O   UNL     1      14.666  12.867  15.288  1.00  0.00    -0.623 OA
HETATM   12  O   UNL     1      12.728  13.134  14.142  1.00  0.00    -0.623 OA
ENDBRANCH   9  10
ENDBRANCH   8   9
ENDBRANCH   7   8
ENDBRANCH   5   7
ENDBRANCH   2   3
ENDBRANCH   1   2
BRANCH   1  13
HETATM   13  N   UNL     1      12.366   6.962  15.046  1.00  0.00    -0.197 NA
BRANCH  13  14
HETATM   14  C   UNL     1      13.310   7.591  14.069  1.00  0.00     0.152 C 
BRANCH  14  15
HETATM   15  C   UNL     1      12.847   9.042  13.777  1.00  0.00     0.179 A 
HETATM   16  N   UNL     1      12.553  10.040  12.839  1.00  0.00    -0.171 N 
HETATM   17  O   UNL     1      13.565   9.462  12.529  1.00  0.00     0.000 OA
BRANCH  16  18
HETATM   18  O   UNL     1      11.800  10.836  12.417  1.00  0.00    -0.270 OA
ATOM     19  HO  UNL     1      11.003  11.291  12.661  1.00  0.00     0.246 HD
ENDBRANCH  16  18
BRANCH  17  20
HETATM   20  O   UNL     1      14.152   8.875  11.775  1.00  0.00    -0.253 OA
ATOM     21  HO  UNL     1      14.949   8.420  11.531  1.00  0.00     0.253 HD
ENDBRANCH  17  20
ENDBRANCH  14  15
ENDBRANCH  13  14
BRANCH  13  22
HETATM   22  O   UNL     1      11.154   6.461  14.493  1.00  0.00    -0.313 OA
ATOM     23  HO  UNL     1      10.555   6.062  15.113  1.00  0.00     0.237 HD
ENDBRANCH  13  22
ENDBRANCH   1  13
TORSDOF 12
