REMARK  5 active torsions:
REMARK  status: ('A' for Active; 'I' for Inactive)
REMARK    1  A    between atoms: C_1  and  C_10 
REMARK    2  A    between atoms: C_9  and  C_10 
REMARK    3  A    between atoms: C_9  and  C_29 
REMARK    4  A    between atoms: O_14  and  C_28 
REMARK    5  A    between atoms: C_18  and  C_36 
ROOT
HETATM    1  C   UNL     1     -11.688 -25.958   0.230  1.00  0.00     0.152 C 
HETATM    2  C   UNL     1      -9.125 -20.304   1.603  1.00  0.00     0.013 C 
HETATM    3  C   UNL     1     -11.373 -23.168   2.027  1.00  0.00     0.044 C 
HETATM    4  C   UNL     1      -9.818 -19.436   2.441  1.00  0.00     0.009 C 
HETATM    5  C   UNL     1     -10.604 -22.057   2.305  1.00  0.00    -0.023 C 
HETATM    6  C   UNL     1      -9.199 -23.618   0.051  1.00  0.00     0.040 C 
HETATM    7  C   UNL     1     -11.403 -24.048   0.981  1.00  0.00     0.069 C 
HETATM    8  C   UNL     1     -10.968 -21.301   3.408  1.00  0.00     0.020 C 
HETATM    9  C   UNL     1      -8.792 -22.530   0.747  1.00  0.00     0.015 C 
HETATM   10  N   UNL     1     -12.382 -24.924   0.693  1.00  0.00    -0.334 N 
ATOM     11  HN  UNL     1     -13.391 -24.822   0.801  1.00  0.00     0.168 HD
HETATM   12  C   UNL     1     -10.380 -24.298   0.113  1.00  0.00     0.104 C 
HETATM   13  C   UNL     1     -10.632 -19.960   3.440  1.00  0.00    -0.049 C 
HETATM   14  O   UNL     1     -10.651 -25.472  -0.505  1.00  0.00    -0.291 OA
HETATM   15  C   UNL     1      -9.468 -21.661   1.588  1.00  0.00    -0.026 C 
ENDROOT
BRANCH  13  16
HETATM   16  C   UNL     1     -11.096 -19.193   4.645  1.00  0.00     0.052 C 
HETATM   17  C   UNL     1     -10.454 -17.835   4.768  1.00  0.00    -0.043 C 
HETATM   18  C   UNL     1     -11.427 -16.871   4.891  1.00  0.00    -0.051 C 
HETATM   19  C   UNL     1      -9.088 -17.662   4.851  1.00  0.00     0.011 C 
HETATM   20  C   UNL     1     -11.196 -15.512   4.871  1.00  0.00     0.010 C 
HETATM   21  C   UNL     1     -12.803 -17.493   4.975  1.00  0.00     0.040 C 
HETATM   22  C   UNL     1     -10.074 -14.784   5.141  1.00  0.00     0.037 C 
HETATM   23  C   UNL     1      -8.769 -15.220   5.294  1.00  0.00     0.065 C 
HETATM   24  C   UNL     1      -8.354 -16.537   5.108  1.00  0.00     0.037 C 
HETATM   25  C   UNL     1     -12.599 -18.974   4.689  1.00  0.00     0.019 C 
BRANCH  23  26
HETATM   26  O   UNL     1      -7.827 -14.333   5.731  1.00  0.00    -0.361 OA
ATOM     27  HO  UNL     1      -8.110 -13.435   5.858  1.00  0.00     0.217 HD
ENDBRANCH  23  26
ENDBRANCH  13  16
BRANCH   1  28
HETATM   28  C   UNL     1     -11.591 -27.134   0.978  1.00  0.00     0.113 C 
BRANCH  28  29
HETATM   29  C   UNL     1     -10.587 -28.121   0.807  1.00  0.00     0.202 C 
HETATM   30  O   UNL     1      -9.661 -27.996   0.002  1.00  0.00    -0.286 OA
BRANCH  29  31
HETATM   31  C   UNL     1     -10.751 -29.372   1.588  1.00  0.00     0.085 C 
HETATM   32  C   UNL     1     -12.041 -29.767   1.962  1.00  0.00     0.034 C 
HETATM   33  C   UNL     1     -12.420 -31.042   1.495  1.00  0.00     0.008 C 
HETATM   34  C   UNL     1     -11.413 -31.998   1.327  1.00  0.00     0.074 C 
HETATM   35  C   UNL     1     -10.046 -31.640   1.589  1.00  0.00     0.245 C 
HETATM   36  O   UNL     1      -9.196 -32.491   1.881  1.00  0.00    -0.268 OA
HETATM   37  N   UNL     1      -9.743 -30.294   1.695  1.00  0.00    -0.320 N 
ATOM     38  HN  UNL     1      -8.781 -29.992   1.851  1.00  0.00     0.169 HD
ENDBRANCH  29  31
ENDBRANCH  28  29
ENDBRANCH   1  28
TORSDOF 5
