REMARK  5 active torsions:
REMARK  status: ('A' for Active; 'I' for Inactive)
REMARK    1  A    between atoms: C_3  and  O_13 
REMARK    2  A    between atoms: O_8  and  C_30 
REMARK    3  A    between atoms: C_15  and  C_39 
REMARK    4  A    between atoms: C_16  and  C_19 
REMARK    5  A    between atoms: C_27  and  C_39 
ROOT
HETATM    1  C   UNL     1     -11.168 -18.924   4.820  1.00  0.00     0.043 C 
HETATM    2  C   UNL     1     -11.275 -15.547   6.004  1.00  0.00     0.009 C 
HETATM    3  C   UNL     1     -10.588 -16.865   6.352  1.00  0.00     0.015 C 
HETATM    4  C   UNL     1      -8.578 -16.103   4.423  1.00  0.00     0.039 C 
HETATM    5  C   UNL     1     -10.449 -17.644   5.070  1.00  0.00    -0.073 C 
HETATM    6  C   UNL     1      -9.766 -16.932   4.009  1.00  0.00    -0.076 C 
HETATM    7  C   UNL     1      -8.848 -15.397   5.732  1.00  0.00    -0.010 C 
HETATM    8  C   UNL     1      -9.612 -17.608   2.668  1.00  0.00     0.039 C 
HETATM    9  C   UNL     1     -10.452 -23.599   2.104  1.00  0.00     0.036 C 
HETATM   10  C   UNL     1     -11.853 -21.861   3.387  1.00  0.00     0.039 C 
HETATM   11  C   UNL     1      -9.433 -19.080   2.983  1.00  0.00    -0.003 C 
HETATM   12  C   UNL     1      -9.460 -21.390   2.549  1.00  0.00     0.021 C 
HETATM   13  C   UNL     1     -11.810 -23.185   2.637  1.00  0.00     0.013 C 
HETATM   14  C   UNL     1     -10.135 -14.600   5.636  1.00  0.00     0.005 C 
HETATM   15  C   UNL     1     -10.553 -21.104   3.579  1.00  0.00     0.066 C 
HETATM   16  C   UNL     1      -9.089 -20.064   1.897  1.00  0.00     0.013 C 
HETATM   17  C   UNL     1      -9.810 -22.382   1.447  1.00  0.00     0.018 C 
HETATM   18  C   UNL     1     -10.759 -19.597   3.517  1.00  0.00     0.029 C 
HETATM   19  C   UNL     1      -9.176 -16.461   6.773  1.00  0.00     0.014 C 
ENDROOT
BRANCH   9  20
HETATM   20  C   UNL     1     -10.572 -24.729   1.118  1.00  0.00     0.013 C 
HETATM   21  N   UNL     1      -9.459 -25.141   0.488  1.00  0.00    -0.368 N 
HETATM   22  C   UNL     1      -9.441 -26.393  -0.005  1.00  0.00     0.095 C 
ATOM     23  HN  UNL     1      -8.653 -24.524   0.387  1.00  0.00     0.165 HD
HETATM   24  C   UNL     1     -10.549 -27.239   0.108  1.00  0.00    -0.035 C 
HETATM   25  C   UNL     1     -11.772 -26.612   0.243  1.00  0.00     0.011 C 
HETATM   26  C   UNL     1     -11.785 -25.318   0.768  1.00  0.00     0.026 C 
BRANCH  24  27
HETATM   27  C   UNL     1     -10.444 -28.740  -0.012  1.00  0.00     0.124 C 
BRANCH  27  28
HETATM   28  C   UNL     1     -11.000 -29.416   1.216  1.00  0.00     0.132 C 
HETATM   29  N   UNL     1     -12.286 -29.771   1.319  1.00  0.00    -0.347 N 
HETATM   30  C   UNL     1     -12.517 -31.079   1.666  1.00  0.00     0.132 C 
ATOM     31  HN  UNL     1     -13.046 -29.112   1.150  1.00  0.00     0.167 HD
HETATM   32  C   UNL     1     -11.407 -31.839   1.971  1.00  0.00     0.157 C 
HETATM   33  C   UNL     1     -10.115 -31.166   2.339  1.00  0.00     0.324 C 
HETATM   34  O   UNL     1     -10.141 -29.783   2.251  1.00  0.00    -0.260 OA
HETATM   35  O   UNL     1      -9.147 -31.783   2.749  1.00  0.00    -0.257 OA
BRANCH  32  36
HETATM   36  O   UNL     1     -11.344 -33.136   1.597  1.00  0.00    -0.354 OA
ATOM     37  HO  UNL     1     -12.161 -33.562   1.364  1.00  0.00     0.218 HD
ENDBRANCH  32  36
ENDBRANCH  27  28
ENDBRANCH  24  27
ENDBRANCH   9  20
BRANCH  15  38
HETATM   38  O   UNL     1     -10.041 -21.468   4.865  1.00  0.00    -0.389 OA
ATOM     39  HO  UNL     1      -9.227 -20.994   4.985  1.00  0.00     0.210 HD
ENDBRANCH  15  38
TORSDOF 5
