MODEL 1
REMARK VINA RESULT:     -10.5      0.000      0.000
REMARK  3 active torsions:
REMARK  status: ('A' for Active; 'I' for Inactive)
REMARK    1  A    between atoms: C_2  and  O_11 
REMARK    2  A    between atoms: C_21  and  C_22 
REMARK    3  A    between atoms: C_24  and  O_25 
ROOT
HETATM    1  C   UNL     1       8.401  35.849  28.956  1.00  0.00     0.016 C 
HETATM    2  C   UNL     1       5.865  36.897  27.932  1.00  0.00     0.127 C 
HETATM    3  N   UNL     1       7.622  35.890  26.667  1.00  0.00    -0.352 N 
ATOM      4  HN  UNL     1       7.983  35.757  25.723  1.00  0.00     0.166 HD
HETATM    5  C   UNL     1       7.265  39.001  30.530  1.00  0.00     0.180 C 
HETATM    6  C   UNL     1       9.710  34.201  28.712  1.00  0.00     0.019 C 
HETATM    7  C   UNL     1      10.015  32.980  29.134  1.00  0.00     0.046 C 
HETATM    8  C   UNL     1       6.622  37.485  28.924  1.00  0.00     0.111 C 
HETATM    9  O   UNL     1       6.262  38.665  29.553  1.00  0.00    -0.347 OA
HETATM   10  C   UNL     1       8.410  38.009  30.349  1.00  0.00     0.069 C 
HETATM   11  C   UNL     1       9.102  34.910  29.655  1.00  0.00     0.047 C 
HETATM   12  C   UNL     1      10.484  32.091  28.230  1.00  0.00     0.030 C 
HETATM   13  C   UNL     1       9.402  34.218  30.793  1.00  0.00     0.201 C 
HETATM   14  F   UNL     1       9.236  34.625  32.033  1.00  0.00    -0.185 F 
HETATM   15  C   UNL     1       8.433  35.502  27.620  1.00  0.00     0.056 C 
HETATM   16  C   UNL     1       9.362  34.511  27.478  1.00  0.00     0.005 C 
HETATM   17  C   UNL     1       6.401  36.430  26.723  1.00  0.00     0.083 C 
HETATM   18  C   UNL     1      10.354  32.446  26.849  1.00  0.00     0.003 C 
HETATM   19  C   UNL     1       7.834  37.021  29.363  1.00  0.00    -0.006 C 
HETATM   20  N   UNL     1       9.957  33.025  30.468  1.00  0.00    -0.331 N 
ATOM     21  HN  UNL     1      10.270  32.303  31.116  1.00  0.00     0.168 HD
HETATM   22  C   UNL     1       9.937  33.749  26.490  1.00  0.00     0.015 C 
ENDROOT
BRANCH  17  23
HETATM   23  C   UNL     1       5.781  36.626  25.521  1.00  0.00     0.047 C 
HETATM   24  C   UNL     1       5.106  35.654  24.874  1.00  0.00     0.048 C 
HETATM   25  C   UNL     1       4.279  36.278  24.023  1.00  0.00     0.045 C 
HETATM   26  C   UNL     1       4.620  37.581  23.920  1.00  0.00     0.041 C 
HETATM   27  N   UNL     1       2.976  36.008  23.797  1.00  0.00    -0.360 N 
HETATM   28  C   UNL     1       4.074  38.306  22.888  1.00  0.00     0.018 C 
HETATM   29  C   UNL     1       5.575  37.761  24.838  1.00  0.00     0.197 C 
HETATM   30  C   UNL     1       2.952  37.827  22.219  1.00  0.00     0.027 C 
HETATM   31  C   UNL     1       2.560  36.382  22.420  1.00  0.00     0.242 C 
HETATM   32  O   UNL     1       6.214  38.865  24.986  1.00  0.00    -0.286 OA
ATOM     33  HN  UNL     1       2.351  35.597  24.490  1.00  0.00     0.162 HD
BRANCH  31  34
HETATM   34  O   UNL     1       1.162  36.268  22.426  1.00  0.00    -0.373 OA
ATOM     35  HO  UNL     1       0.779  37.035  22.835  1.00  0.00     0.212 HD
ENDBRANCH  31  34
ENDBRANCH  17  23
BRANCH   2  36
HETATM   36  O   UNL     1       4.557  36.845  28.155  1.00  0.00    -0.356 OA
ATOM     37  HO  UNL     1       4.167  37.630  28.524  1.00  0.00     0.218 HD
ENDBRANCH   2  36
TORSDOF 3
ENDMDL
MODEL 2
REMARK VINA RESULT:     -10.4      3.501      7.821
REMARK  3 active torsions:
REMARK  status: ('A' for Active; 'I' for Inactive)
REMARK    1  A    between atoms: C_2  and  O_11 
REMARK    2  A    between atoms: C_21  and  C_22 
REMARK    3  A    between atoms: C_24  and  O_25 
ROOT
HETATM    1  C   UNL     1       5.874  38.233  24.335  1.00  0.00     0.016 C 
HETATM    2  C   UNL     1       8.667  37.591  24.937  1.00  0.00     0.127 C 
HETATM    3  N   UNL     1       6.728  36.798  26.083  1.00  0.00    -0.352 N 
ATOM      4  HN  UNL     1       6.407  36.339  26.935  1.00  0.00     0.166 HD
HETATM    5  C   UNL     1       8.229  41.074  24.034  1.00  0.00     0.180 C 
HETATM    6  C   UNL     1       3.972  37.309  24.202  1.00  0.00     0.019 C 
HETATM    7  C   UNL     1       3.114  36.692  23.399  1.00  0.00     0.046 C 
HETATM    8  C   UNL     1       8.204  38.835  24.562  1.00  0.00     0.111 C 
HETATM    9  O   UNL     1       9.025  39.943  24.434  1.00  0.00    -0.347 OA
HETATM   10  C   UNL     1       6.771  40.629  24.086  1.00  0.00     0.069 C 
HETATM   11  C   UNL     1       4.777  38.123  23.531  1.00  0.00     0.047 C 
HETATM   12  C   UNL     1       2.347  35.708  23.919  1.00  0.00     0.030 C 
HETATM   13  C   UNL     1       4.120  38.285  22.345  1.00  0.00     0.201 C 
HETATM   14  F   UNL     1       4.376  39.180  21.415  1.00  0.00    -0.185 F 
HETATM   15  C   UNL     1       5.771  37.286  25.334  1.00  0.00     0.056 C 
HETATM   16  C   UNL     1       4.501  36.784  25.291  1.00  0.00     0.005 C 
HETATM   17  C   UNL     1       8.055  36.800  25.920  1.00  0.00     0.083 C 
HETATM   18  C   UNL     1       2.714  35.222  25.215  1.00  0.00     0.003 C 
HETATM   19  C   UNL     1       6.888  39.145  24.334  1.00  0.00    -0.006 C 
HETATM   20  N   UNL     1       3.101  37.395  22.263  1.00  0.00    -0.331 N 
ATOM     21  HN  UNL     1       2.450  37.285  21.485  1.00  0.00     0.168 HD
HETATM   22  C   UNL     1       3.704  35.894  25.968  1.00  0.00     0.015 C 
ENDROOT
BRANCH  17  23
HETATM   23  C   UNL     1       8.771  36.105  26.854  1.00  0.00     0.047 C 
HETATM   24  C   UNL     1       8.953  36.542  28.117  1.00  0.00     0.048 C 
HETATM   25  C   UNL     1       9.272  35.462  28.843  1.00  0.00     0.045 C 
HETATM   26  C   UNL     1       9.569  34.429  28.025  1.00  0.00     0.041 C 
HETATM   27  N   UNL     1       8.787  35.112  30.053  1.00  0.00    -0.360 N 
HETATM   28  C   UNL     1      10.190  33.334  28.577  1.00  0.00     0.018 C 
HETATM   29  C   UNL     1       9.279  34.866  26.796  1.00  0.00     0.197 C 
HETATM   30  C   UNL     1      10.174  33.146  29.955  1.00  0.00     0.027 C 
HETATM   31  C   UNL     1       9.762  34.305  30.832  1.00  0.00     0.242 C 
HETATM   32  O   UNL     1       9.510  34.188  25.731  1.00  0.00    -0.286 OA
ATOM     33  HN  UNL     1       7.861  35.372  30.392  1.00  0.00     0.162 HD
BRANCH  31  34
HETATM   34  O   UNL     1       9.034  33.831  31.933  1.00  0.00    -0.373 OA
ATOM     35  HO  UNL     1       9.628  33.627  32.646  1.00  0.00     0.212 HD
ENDBRANCH  31  34
ENDBRANCH  17  23
BRANCH   2  36
HETATM   36  O   UNL     1       9.788  37.189  24.349  1.00  0.00    -0.356 OA
ATOM     37  HO  UNL     1       9.746  37.082  23.406  1.00  0.00     0.218 HD
ENDBRANCH   2  36
TORSDOF 3
ENDMDL
MODEL 3
REMARK VINA RESULT:      -9.8      3.858      7.841
REMARK  3 active torsions:
REMARK  status: ('A' for Active; 'I' for Inactive)
REMARK    1  A    between atoms: C_2  and  O_11 
REMARK    2  A    between atoms: C_21  and  C_22 
REMARK    3  A    between atoms: C_24  and  O_25 
ROOT
HETATM    1  C   UNL     1       6.691  38.239  23.757  1.00  0.00     0.016 C 
HETATM    2  C   UNL     1       6.557  37.263  26.515  1.00  0.00     0.127 C 
HETATM    3  N   UNL     1       8.386  37.039  24.996  1.00  0.00    -0.352 N 
ATOM      4  HN  UNL     1       9.262  36.544  24.831  1.00  0.00     0.166 HD
HETATM    5  C   UNL     1       3.424  36.809  24.750  1.00  0.00     0.180 C 
HETATM    6  C   UNL     1       8.031  39.190  22.418  1.00  0.00     0.019 C 
HETATM    7  C   UNL     1       8.459  40.356  21.951  1.00  0.00     0.046 C 
HETATM    8  C   UNL     1       5.518  37.223  25.610  1.00  0.00     0.111 C 
HETATM    9  O   UNL     1       4.271  36.699  25.910  1.00  0.00    -0.347 OA
HETATM   10  C   UNL     1       4.304  37.298  23.604  1.00  0.00     0.069 C 
HETATM   11  C   UNL     1       6.783  39.266  22.864  1.00  0.00     0.047 C 
HETATM   12  C   UNL     1       9.765  40.470  21.621  1.00  0.00     0.030 C 
HETATM   13  C   UNL     1       6.327  40.416  22.287  1.00  0.00     0.201 C 
HETATM   14  F   UNL     1       5.079  40.826  22.219  1.00  0.00    -0.185 F 
HETATM   15  C   UNL     1       7.963  37.749  23.980  1.00  0.00     0.056 C 
HETATM   16  C   UNL     1       8.783  38.299  23.036  1.00  0.00     0.005 C 
HETATM   17  C   UNL     1       7.864  36.854  26.213  1.00  0.00     0.083 C 
HETATM   18  C   UNL     1      10.635  39.421  22.060  1.00  0.00     0.003 C 
HETATM   19  C   UNL     1       5.600  37.631  24.304  1.00  0.00    -0.006 C 
HETATM   20  N   UNL     1       7.364  41.090  21.732  1.00  0.00    -0.331 N 
ATOM     21  HN  UNL     1       7.318  41.984  21.243  1.00  0.00     0.168 HD
HETATM   22  C   UNL     1      10.094  38.245  22.629  1.00  0.00     0.015 C 
ENDROOT
BRANCH  17  23
HETATM   23  C   UNL     1       8.623  36.121  27.081  1.00  0.00     0.047 C 
HETATM   24  C   UNL     1       8.893  36.521  28.341  1.00  0.00     0.048 C 
HETATM   25  C   UNL     1       9.236  35.416  29.017  1.00  0.00     0.045 C 
HETATM   26  C   UNL     1       9.461  34.400  28.156  1.00  0.00     0.041 C 
HETATM   27  N   UNL     1       8.822  35.044  30.247  1.00  0.00    -0.360 N 
HETATM   28  C   UNL     1      10.093  33.280  28.640  1.00  0.00     0.018 C 
HETATM   29  C   UNL     1       9.102  34.875  26.960  1.00  0.00     0.197 C 
HETATM   30  C   UNL     1      10.160  33.056  30.011  1.00  0.00     0.027 C 
HETATM   31  C   UNL     1       9.829  34.199  30.941  1.00  0.00     0.242 C 
HETATM   32  O   UNL     1       9.251  34.221  25.865  1.00  0.00    -0.286 OA
ATOM     33  HN  UNL     1       7.925  35.311  30.651  1.00  0.00     0.162 HD
BRANCH  31  34
HETATM   34  O   UNL     1       9.163  33.709  32.074  1.00  0.00    -0.373 OA
ATOM     35  HO  UNL     1       8.518  34.343  32.366  1.00  0.00     0.212 HD
ENDBRANCH  31  34
ENDBRANCH  17  23
BRANCH   2  36
HETATM   36  O   UNL     1       6.243  37.664  27.742  1.00  0.00    -0.356 OA
ATOM     37  HO  UNL     1       5.438  38.163  27.822  1.00  0.00     0.218 HD
ENDBRANCH   2  36
TORSDOF 3
ENDMDL
MODEL 4
REMARK VINA RESULT:      -9.8      3.570      8.235
REMARK  3 active torsions:
REMARK  status: ('A' for Active; 'I' for Inactive)
REMARK    1  A    between atoms: C_2  and  O_11 
REMARK    2  A    between atoms: C_21  and  C_22 
REMARK    3  A    between atoms: C_24  and  O_25 
ROOT
HETATM    1  C   UNL     1       5.747  38.947  23.077  1.00  0.00     0.016 C 
HETATM    2  C   UNL     1       8.175  37.910  24.345  1.00  0.00     0.127 C 
HETATM    3  N   UNL     1       5.916  37.371  24.903  1.00  0.00    -0.352 N 
ATOM      4  HN  UNL     1       5.325  36.944  25.615  1.00  0.00     0.166 HD
HETATM    5  C   UNL     1       8.444  41.438  23.558  1.00  0.00     0.180 C 
HETATM    6  C   UNL     1       3.845  38.299  22.404  1.00  0.00     0.019 C 
HETATM    7  C   UNL     1       3.158  37.824  21.372  1.00  0.00     0.046 C 
HETATM    8  C   UNL     1       7.991  39.213  23.934  1.00  0.00     0.111 C 
HETATM    9  O   UNL     1       8.953  40.198  24.087  1.00  0.00    -0.347 OA
HETATM   10  C   UNL     1       6.978  41.199  23.206  1.00  0.00     0.069 C 
HETATM   11  C   UNL     1       4.897  39.007  22.011  1.00  0.00     0.047 C 
HETATM   12  C   UNL     1       2.161  36.946  21.620  1.00  0.00     0.030 C 
HETATM   13  C   UNL     1       4.604  39.283  20.707  1.00  0.00     0.201 C 
HETATM   14  F   UNL     1       5.209  40.153  19.928  1.00  0.00    -0.185 F 
HETATM   15  C   UNL     1       5.262  38.003  23.960  1.00  0.00     0.056 C 
HETATM   16  C   UNL     1       3.996  37.683  23.561  1.00  0.00     0.005 C 
HETATM   17  C   UNL     1       7.228  37.192  25.090  1.00  0.00     0.083 C 
HETATM   18  C   UNL     1       2.106  36.387  22.937  1.00  0.00     0.003 C 
HETATM   19  C   UNL     1       6.834  39.708  23.391  1.00  0.00    -0.006 C 
HETATM   20  N   UNL     1       3.537  38.546  20.314  1.00  0.00    -0.331 N 
ATOM     21  HN  UNL     1       3.106  38.543  19.389  1.00  0.00     0.168 HD
HETATM   22  C   UNL     1       2.940  36.898  23.957  1.00  0.00     0.015 C 
ENDROOT
BRANCH  17  23
HETATM   23  C   UNL     1       7.575  36.385  26.136  1.00  0.00     0.047 C 
HETATM   24  C   UNL     1       7.921  35.089  25.983  1.00  0.00     0.048 C 
HETATM   25  C   UNL     1       8.616  34.757  27.080  1.00  0.00     0.045 C 
HETATM   26  C   UNL     1       8.468  35.711  28.026  1.00  0.00     0.041 C 
HETATM   27  N   UNL     1       9.772  34.065  27.143  1.00  0.00    -0.360 N 
HETATM   28  C   UNL     1       8.867  35.411  29.306  1.00  0.00     0.018 C 
HETATM   29  C   UNL     1       7.793  36.694  27.422  1.00  0.00     0.197 C 
HETATM   30  C   UNL     1       9.714  34.331  29.535  1.00  0.00     0.027 C 
HETATM   31  C   UNL     1       9.911  33.326  28.425  1.00  0.00     0.242 C 
HETATM   32  O   UNL     1       7.386  37.749  28.030  1.00  0.00    -0.286 OA
ATOM     33  HN  UNL     1      10.469  34.050  26.397  1.00  0.00     0.162 HD
BRANCH  31  34
HETATM   34  O   UNL     1      11.237  32.868  28.431  1.00  0.00    -0.373 OA
ATOM     35  HO  UNL     1      11.248  31.920  28.496  1.00  0.00     0.212 HD
ENDBRANCH  31  34
ENDBRANCH  17  23
BRANCH   2  36
HETATM   36  O   UNL     1       9.350  37.368  24.046  1.00  0.00    -0.356 OA
ATOM     37  HO  UNL     1       9.422  36.431  24.187  1.00  0.00     0.218 HD
ENDBRANCH   2  36
TORSDOF 3
ENDMDL
MODEL 5
REMARK VINA RESULT:      -9.7      3.254      7.420
REMARK  3 active torsions:
REMARK  status: ('A' for Active; 'I' for Inactive)
REMARK    1  A    between atoms: C_2  and  O_11 
REMARK    2  A    between atoms: C_21  and  C_22 
REMARK    3  A    between atoms: C_24  and  O_25 
ROOT
HETATM    1  C   UNL     1       3.127  37.428  26.994  1.00  0.00     0.016 C 
HETATM    2  C   UNL     1       5.775  37.942  28.136  1.00  0.00     0.127 C 
HETATM    3  N   UNL     1       5.128  36.087  26.779  1.00  0.00    -0.352 N 
ATOM      4  HN  UNL     1       5.407  35.155  26.473  1.00  0.00     0.166 HD
HETATM    5  C   UNL     1       3.106  38.774  30.443  1.00  0.00     0.180 C 
HETATM    6  C   UNL     1       2.218  36.754  25.203  1.00  0.00     0.019 C 
HETATM    7  C   UNL     1       1.713  37.123  24.032  1.00  0.00     0.046 C 
HETATM    8  C   UNL     1       4.577  38.166  28.782  1.00  0.00     0.111 C 
HETATM    9  O   UNL     1       4.493  38.663  30.072  1.00  0.00    -0.347 OA
HETATM   10  C   UNL     1       2.295  38.129  29.323  1.00  0.00     0.069 C 
HETATM   11  C   UNL     1       2.141  37.728  26.101  1.00  0.00     0.047 C 
HETATM   12  C   UNL     1       1.878  36.294  22.977  1.00  0.00     0.030 C 
HETATM   13  C   UNL     1       1.211  38.567  25.556  1.00  0.00     0.201 C 
HETATM   14  F   UNL     1       0.600  39.566  26.155  1.00  0.00    -0.185 F 
HETATM   15  C   UNL     1       3.904  36.422  26.454  1.00  0.00     0.056 C 
HETATM   16  C   UNL     1       3.242  35.937  25.362  1.00  0.00     0.005 C 
HETATM   17  C   UNL     1       6.072  36.759  27.445  1.00  0.00     0.083 C 
HETATM   18  C   UNL     1       2.816  35.224  23.138  1.00  0.00     0.003 C 
HETATM   19  C   UNL     1       3.342  37.874  28.265  1.00  0.00    -0.006 C 
HETATM   20  N   UNL     1       0.956  38.195  24.278  1.00  0.00    -0.331 N 
ATOM     21  HN  UNL     1       0.311  38.648  23.630  1.00  0.00     0.168 HD
HETATM   22  C   UNL     1       3.373  34.957  24.409  1.00  0.00     0.015 C 
ENDROOT
BRANCH  17  23
HETATM   23  C   UNL     1       7.292  36.149  27.525  1.00  0.00     0.047 C 
HETATM   24  C   UNL     1       7.959  35.986  28.687  1.00  0.00     0.048 C 
HETATM   25  C   UNL     1       8.834  34.993  28.479  1.00  0.00     0.045 C 
HETATM   26  C   UNL     1       8.928  34.731  27.157  1.00  0.00     0.041 C 
HETATM   27  N   UNL     1       9.098  33.947  29.289  1.00  0.00    -0.360 N 
HETATM   28  C   UNL     1       9.976  33.950  26.732  1.00  0.00     0.018 C 
HETATM   29  C   UNL     1       7.982  35.484  26.587  1.00  0.00     0.197 C 
HETATM   30  C   UNL     1      10.678  33.170  27.646  1.00  0.00     0.027 C 
HETATM   31  C   UNL     1      10.488  33.447  29.119  1.00  0.00     0.242 C 
HETATM   32  O   UNL     1       7.816  35.571  25.317  1.00  0.00    -0.286 OA
ATOM     33  HN  UNL     1       8.424  33.547  29.942  1.00  0.00     0.162 HD
BRANCH  31  34
HETATM   34  O   UNL     1      10.523  32.241  29.834  1.00  0.00    -0.373 OA
ATOM     35  HO  UNL     1       9.638  31.963  30.039  1.00  0.00     0.212 HD
ENDBRANCH  31  34
ENDBRANCH  17  23
BRANCH   2  36
HETATM   36  O   UNL     1       6.685  38.903  28.252  1.00  0.00    -0.356 OA
ATOM     37  HO  UNL     1       6.377  39.724  28.619  1.00  0.00     0.218 HD
ENDBRANCH   2  36
TORSDOF 3
ENDMDL
MODEL 6
REMARK VINA RESULT:      -9.6      1.628      2.002
REMARK  3 active torsions:
REMARK  status: ('A' for Active; 'I' for Inactive)
REMARK    1  A    between atoms: C_2  and  O_11 
REMARK    2  A    between atoms: C_21  and  C_22 
REMARK    3  A    between atoms: C_24  and  O_25 
ROOT
HETATM    1  C   UNL     1       7.423  36.683  28.708  1.00  0.00     0.016 C 
HETATM    2  C   UNL     1       4.609  37.264  28.137  1.00  0.00     0.127 C 
HETATM    3  N   UNL     1       6.329  36.778  26.554  1.00  0.00    -0.352 N 
ATOM      4  HN  UNL     1       6.569  36.816  25.563  1.00  0.00     0.166 HD
HETATM    5  C   UNL     1       5.928  39.357  30.787  1.00  0.00     0.180 C 
HETATM    6  C   UNL     1       8.982  35.381  28.105  1.00  0.00     0.019 C 
HETATM    7  C   UNL     1       9.578  34.217  28.332  1.00  0.00     0.046 C 
HETATM    8  C   UNL     1       5.371  37.900  29.095  1.00  0.00     0.111 C 
HETATM    9  O   UNL     1       4.880  38.911  29.904  1.00  0.00    -0.347 OA
HETATM   10  C   UNL     1       7.207  38.652  30.346  1.00  0.00     0.069 C 
HETATM   11  C   UNL     1       8.388  35.851  29.195  1.00  0.00     0.047 C 
HETATM   12  C   UNL     1      10.078  33.539  27.274  1.00  0.00     0.030 C 
HETATM   13  C   UNL     1       8.980  35.132  30.193  1.00  0.00     0.201 C 
HETATM   14  F   UNL     1       8.917  35.373  31.485  1.00  0.00    -0.185 F 
HETATM   15  C   UNL     1       7.329  36.481  27.345  1.00  0.00     0.056 C 
HETATM   16  C   UNL     1       8.405  35.727  26.969  1.00  0.00     0.005 C 
HETATM   17  C   UNL     1       5.046  37.040  26.824  1.00  0.00     0.083 C 
HETATM   18  C   UNL     1       9.682  33.990  25.974  1.00  0.00     0.003 C 
HETATM   19  C   UNL     1       6.702  37.664  29.322  1.00  0.00    -0.006 C 
HETATM   20  N   UNL     1       9.706  34.121  29.658  1.00  0.00    -0.331 N 
ATOM     21  HN  UNL     1      10.245  33.422  30.169  1.00  0.00     0.168 HD
HETATM   22  C   UNL     1       8.970  35.203  25.833  1.00  0.00     0.015 C 
ENDROOT
BRANCH  17  23
HETATM   23  C   UNL     1       4.233  37.215  25.740  1.00  0.00     0.047 C 
HETATM   24  C   UNL     1       4.326  38.277  24.913  1.00  0.00     0.048 C 
HETATM   25  C   UNL     1       3.739  37.910  23.766  1.00  0.00     0.045 C 
HETATM   26  C   UNL     1       3.040  36.769  23.951  1.00  0.00     0.041 C 
HETATM   27  N   UNL     1       4.193  38.106  22.511  1.00  0.00    -0.360 N 
HETATM   28  C   UNL     1       2.148  36.399  22.973  1.00  0.00     0.018 C 
HETATM   29  C   UNL     1       3.341  36.377  25.193  1.00  0.00     0.197 C 
HETATM   30  C   UNL     1       2.232  36.964  21.705  1.00  0.00     0.027 C 
HETATM   31  C   UNL     1       3.084  38.198  21.525  1.00  0.00     0.242 C 
HETATM   32  O   UNL     1       2.799  35.364  25.766  1.00  0.00    -0.286 OA
ATOM     33  HN  UNL     1       5.181  38.182  22.267  1.00  0.00     0.162 HD
BRANCH  31  34
HETATM   34  O   UNL     1       3.716  38.159  20.273  1.00  0.00    -0.373 OA
ATOM     35  HO  UNL     1       3.600  38.991  19.829  1.00  0.00     0.212 HD
ENDBRANCH  31  34
ENDBRANCH  17  23
BRANCH   2  36
HETATM   36  O   UNL     1       3.383  36.915  28.509  1.00  0.00    -0.356 OA
ATOM     37  HO  UNL     1       2.709  37.573  28.384  1.00  0.00     0.218 HD
ENDBRANCH   2  36
TORSDOF 3
ENDMDL
MODEL 7
REMARK VINA RESULT:      -8.9      3.734      7.344
REMARK  3 active torsions:
REMARK  status: ('A' for Active; 'I' for Inactive)
REMARK    1  A    between atoms: C_2  and  O_11 
REMARK    2  A    between atoms: C_21  and  C_22 
REMARK    3  A    between atoms: C_24  and  O_25 
ROOT
HETATM    1  C   UNL     1       3.988  38.695  27.444  1.00  0.00     0.016 C 
HETATM    2  C   UNL     1       6.757  38.545  26.501  1.00  0.00     0.127 C 
HETATM    3  N   UNL     1       5.604  36.942  27.845  1.00  0.00    -0.352 N 
ATOM      4  HN  UNL     1       5.733  36.130  28.448  1.00  0.00     0.166 HD
HETATM    5  C   UNL     1       5.841  41.899  27.523  1.00  0.00     0.180 C 
HETATM    6  C   UNL     1       2.274  37.474  27.696  1.00  0.00     0.019 C 
HETATM    7  C   UNL     1       1.159  37.031  27.127  1.00  0.00     0.046 C 
HETATM    8  C   UNL     1       6.134  39.691  26.950  1.00  0.00     0.111 C 
HETATM    9  O   UNL     1       6.766  40.922  27.012  1.00  0.00    -0.347 OA
HETATM   10  C   UNL     1       4.590  41.140  27.958  1.00  0.00     0.069 C 
HETATM   11  C   UNL     1       2.647  38.648  27.200  1.00  0.00     0.047 C 
HETATM   12  C   UNL     1       0.756  35.772  27.411  1.00  0.00     0.030 C 
HETATM   13  C   UNL     1       1.507  39.094  26.595  1.00  0.00     0.201 C 
HETATM   14  F   UNL     1       1.271  40.310  26.152  1.00  0.00    -0.185 F 
HETATM   15  C   UNL     1       4.394  37.441  27.857  1.00  0.00     0.056 C 
HETATM   16  C   UNL     1       3.267  36.711  28.112  1.00  0.00     0.005 C 
HETATM   17  C   UNL     1       6.700  37.318  27.178  1.00  0.00     0.083 C 
HETATM   18  C   UNL     1       1.701  34.927  28.076  1.00  0.00     0.003 C 
HETATM   19  C   UNL     1       4.856  39.747  27.441  1.00  0.00    -0.006 C 
HETATM   20  N   UNL     1       0.596  38.092  26.544  1.00  0.00    -0.331 N 
ATOM     21  HN  UNL     1      -0.340  38.140  26.139  1.00  0.00     0.168 HD
HETATM   22  C   UNL     1       2.907  35.469  28.575  1.00  0.00     0.015 C 
ENDROOT
BRANCH  17  23
HETATM   23  C   UNL     1       7.790  36.506  27.319  1.00  0.00     0.047 C 
HETATM   24  C   UNL     1       8.442  36.345  28.489  1.00  0.00     0.048 C 
HETATM   25  C   UNL     1       9.117  35.192  28.384  1.00  0.00     0.045 C 
HETATM   26  C   UNL     1       9.133  34.782  27.097  1.00  0.00     0.041 C 
HETATM   27  N   UNL     1       9.205  34.205  29.300  1.00  0.00    -0.360 N 
HETATM   28  C   UNL     1      10.011  33.783  26.754  1.00  0.00     0.018 C 
HETATM   29  C   UNL     1       8.327  35.633  26.454  1.00  0.00     0.197 C 
HETATM   30  C   UNL     1      10.580  32.987  27.743  1.00  0.00     0.027 C 
HETATM   31  C   UNL     1      10.476  33.444  29.179  1.00  0.00     0.242 C 
HETATM   32  O   UNL     1       8.151  35.617  25.182  1.00  0.00    -0.286 OA
ATOM     33  HN  UNL     1       8.484  34.005  29.993  1.00  0.00     0.162 HD
BRANCH  31  34
HETATM   34  O   UNL     1      10.308  32.332  30.018  1.00  0.00    -0.373 OA
ATOM     35  HO  UNL     1       9.677  31.734  29.635  1.00  0.00     0.212 HD
ENDBRANCH  31  34
ENDBRANCH  17  23
BRANCH   2  36
HETATM   36  O   UNL     1       7.485  38.674  25.398  1.00  0.00    -0.356 OA
ATOM     37  HO  UNL     1       7.991  39.475  25.326  1.00  0.00     0.218 HD
ENDBRANCH   2  36
TORSDOF 3
ENDMDL
MODEL 8
REMARK VINA RESULT:      -8.6      4.381      8.046
REMARK  3 active torsions:
REMARK  status: ('A' for Active; 'I' for Inactive)
REMARK    1  A    between atoms: C_2  and  O_11 
REMARK    2  A    between atoms: C_21  and  C_22 
REMARK    3  A    between atoms: C_24  and  O_25 
ROOT
HETATM    1  C   UNL     1       6.686  39.251  22.691  1.00  0.00     0.016 C 
HETATM    2  C   UNL     1       5.779  38.050  25.204  1.00  0.00     0.127 C 
HETATM    3  N   UNL     1       7.876  37.703  24.116  1.00  0.00    -0.352 N 
ATOM      4  HN  UNL     1       8.699  37.101  24.090  1.00  0.00     0.166 HD
HETATM    5  C   UNL     1       3.127  38.232  22.739  1.00  0.00     0.180 C 
HETATM    6  C   UNL     1       8.412  40.115  21.817  1.00  0.00     0.019 C 
HETATM    7  C   UNL     1       9.079  41.245  21.608  1.00  0.00     0.046 C 
HETATM    8  C   UNL     1       4.989  38.250  24.091  1.00  0.00     0.111 C 
HETATM    9  O   UNL     1       3.653  37.890  24.036  1.00  0.00    -0.347 OA
HETATM   10  C   UNL     1       4.309  38.692  21.890  1.00  0.00     0.069 C 
HETATM   11  C   UNL     1       7.113  40.333  21.978  1.00  0.00     0.047 C 
HETATM   12  C   UNL     1      10.429  41.195  21.596  1.00  0.00     0.030 C 
HETATM   13  C   UNL     1       6.952  41.587  21.463  1.00  0.00     0.201 C 
HETATM   14  F   UNL     1       5.816  42.182  21.170  1.00  0.00    -0.185 F 
HETATM   15  C   UNL     1       7.799  38.560  23.129  1.00  0.00     0.056 C 
HETATM   16  C   UNL     1       8.881  39.069  22.470  1.00  0.00     0.005 C 
HETATM   17  C   UNL     1       7.060  37.482  25.152  1.00  0.00     0.083 C 
HETATM   18  C   UNL     1      11.035  39.992  22.082  1.00  0.00     0.003 C 
HETATM   19  C   UNL     1       5.430  38.762  22.898  1.00  0.00    -0.006 C 
HETATM   20  N   UNL     1       8.166  42.149  21.245  1.00  0.00    -0.331 N 
ATOM     21  HN  UNL     1       8.347  43.082  20.874  1.00  0.00     0.168 HD
HETATM   22  C   UNL     1      10.235  38.861  22.363  1.00  0.00     0.015 C 
ENDROOT
BRANCH  17  23
HETATM   23  C   UNL     1       7.495  36.567  26.068  1.00  0.00     0.047 C 
HETATM   24  C   UNL     1       7.835  35.303  25.742  1.00  0.00     0.048 C 
HETATM   25  C   UNL     1       8.617  34.859  26.736  1.00  0.00     0.045 C 
HETATM   26  C   UNL     1       8.540  35.697  27.792  1.00  0.00     0.041 C 
HETATM   27  N   UNL     1       9.779  34.181  26.627  1.00  0.00    -0.360 N 
HETATM   28  C   UNL     1       9.042  35.259  28.994  1.00  0.00     0.018 C 
HETATM   29  C   UNL     1       7.813  36.732  27.360  1.00  0.00     0.197 C 
HETATM   30  C   UNL     1       9.911  34.173  29.031  1.00  0.00     0.027 C 
HETATM   31  C   UNL     1      10.024  33.304  27.801  1.00  0.00     0.242 C 
HETATM   32  O   UNL     1       7.450  37.705  28.114  1.00  0.00    -0.286 OA
ATOM     33  HN  UNL     1      10.413  34.261  25.832  1.00  0.00     0.162 HD
BRANCH  31  34
HETATM   34  O   UNL     1      11.349  32.867  27.650  1.00  0.00    -0.373 OA
ATOM     35  HO  UNL     1      11.359  32.016  27.229  1.00  0.00     0.212 HD
ENDBRANCH  31  34
ENDBRANCH  17  23
BRANCH   2  36
HETATM   36  O   UNL     1       5.232  38.375  26.369  1.00  0.00    -0.356 OA
ATOM     37  HO  UNL     1       4.562  37.784  26.692  1.00  0.00     0.218 HD
ENDBRANCH   2  36
TORSDOF 3
ENDMDL
MODEL 9
REMARK VINA RESULT:      -8.5      3.852      7.400
REMARK  3 active torsions:
REMARK  status: ('A' for Active; 'I' for Inactive)
REMARK    1  A    between atoms: C_2  and  O_11 
REMARK    2  A    between atoms: C_21  and  C_22 
REMARK    3  A    between atoms: C_24  and  O_25 
ROOT
HETATM    1  C   UNL     1       3.181  38.166  29.740  1.00  0.00     0.016 C 
HETATM    2  C   UNL     1       6.083  38.551  29.651  1.00  0.00     0.127 C 
HETATM    3  N   UNL     1       4.849  36.698  28.787  1.00  0.00    -0.352 N 
ATOM      4  HN  UNL     1       4.935  35.742  28.442  1.00  0.00     0.166 HD
HETATM    5  C   UNL     1       4.659  39.617  32.809  1.00  0.00     0.180 C 
HETATM    6  C   UNL     1       1.579  37.494  28.526  1.00  0.00     0.019 C 
HETATM    7  C   UNL     1       0.648  37.857  27.652  1.00  0.00     0.046 C 
HETATM    8  C   UNL     1       5.275  38.868  30.722  1.00  0.00     0.111 C 
HETATM    9  O   UNL     1       5.758  39.409  31.902  1.00  0.00    -0.347 OA
HETATM   10  C   UNL     1       3.428  38.989  32.162  1.00  0.00     0.069 C 
HETATM   11  C   UNL     1       1.926  38.499  29.322  1.00  0.00     0.047 C 
HETATM   12  C   UNL     1       0.322  36.987  26.671  1.00  0.00     0.030 C 
HETATM   13  C   UNL     1       0.891  39.375  29.168  1.00  0.00     0.201 C 
HETATM   14  F   UNL     1       0.629  40.428  29.911  1.00  0.00    -0.185 F 
HETATM   15  C   UNL     1       3.617  37.098  28.981  1.00  0.00     0.056 C 
HETATM   16  C   UNL     1       2.540  36.621  28.290  1.00  0.00     0.005 C 
HETATM   17  C   UNL     1       6.014  37.331  28.963  1.00  0.00     0.083 C 
HETATM   18  C   UNL     1       1.194  35.867  26.485  1.00  0.00     0.003 C 
HETATM   19  C   UNL     1       3.925  38.637  30.781  1.00  0.00    -0.006 C 
HETATM   20  N   UNL     1       0.110  38.981  28.132  1.00  0.00    -0.331 N 
ATOM     21  HN  UNL     1      -0.727  39.452  27.787  1.00  0.00     0.168 HD
HETATM   22  C   UNL     1       2.218  35.605  27.423  1.00  0.00     0.015 C 
ENDROOT
BRANCH  17  23
HETATM   23  C   UNL     1       7.128  36.649  28.563  1.00  0.00     0.047 C 
HETATM   24  C   UNL     1       8.156  36.367  29.390  1.00  0.00     0.048 C 
HETATM   25  C   UNL     1       8.816  35.344  28.830  1.00  0.00     0.045 C 
HETATM   26  C   UNL     1       8.404  35.173  27.555  1.00  0.00     0.041 C 
HETATM   27  N   UNL     1       9.273  34.230  29.439  1.00  0.00    -0.360 N 
HETATM   28  C   UNL     1       9.162  34.367  26.741  1.00  0.00     0.018 C 
HETATM   29  C   UNL     1       7.377  36.016  27.408  1.00  0.00     0.197 C 
HETATM   30  C   UNL     1      10.084  33.486  27.297  1.00  0.00     0.027 C 
HETATM   31  C   UNL     1      10.463  33.667  28.748  1.00  0.00     0.242 C 
HETATM   32  O   UNL     1       6.770  36.202  26.292  1.00  0.00    -0.286 OA
ATOM     33  HN  UNL     1       8.852  33.823  30.274  1.00  0.00     0.162 HD
BRANCH  31  34
HETATM   34  O   UNL     1      10.661  32.413  29.345  1.00  0.00    -0.373 OA
ATOM     35  HO  UNL     1      11.462  32.024  29.014  1.00  0.00     0.212 HD
ENDBRANCH  31  34
ENDBRANCH  17  23
BRANCH   2  36
HETATM   36  O   UNL     1       6.999  39.457  29.327  1.00  0.00    -0.356 OA
ATOM     37  HO  UNL     1       7.348  39.397  28.445  1.00  0.00     0.218 HD
ENDBRANCH   2  36
TORSDOF 3
ENDMDL
