MODEL 1
REMARK VINA RESULT:      -6.1      0.000      0.000
REMARK  0 active torsions:
REMARK  status: ('A' for Active; 'I' for Inactive)
ROOT
HETATM    1  O   UNL     1     121.846   7.171  40.070  1.00  0.00    -0.170 OA
HETATM    2  N   UNL     1     119.577   7.485  40.338  1.00  0.00    -0.257 N 
ATOM      3  HN  UNL     1     118.633   7.606  39.971  1.00  0.00     0.175 HD
HETATM    4  O   UNL     1     119.484   8.577  42.410  1.00  0.00    -0.252 OA
HETATM    5  O   UNL     1     122.251   7.112  42.543  1.00  0.00    -0.188 OA
HETATM    6  S   UNL     1     121.795   7.909  41.431  1.00  0.00     0.362 S 
HETATM    7  C   UNL     1     120.032   8.010  41.494  1.00  0.00     0.372 C 
HETATM    8  C   UNL     1     120.568   6.769  39.732  1.00  0.00     0.383 C 
HETATM    9  O   UNL     1     120.417   5.828  38.956  1.00  0.00    -0.237 OA
HETATM   10  O   UNL     1     122.250   9.265  41.486  1.00  0.00    -0.188 OA
ENDROOT
TORSDOF 0
ENDMDL
MODEL 2
REMARK VINA RESULT:      -5.6      0.938      2.808
REMARK  0 active torsions:
REMARK  status: ('A' for Active; 'I' for Inactive)
ROOT
HETATM    1  O   UNL     1     120.397   8.398  42.671  1.00  0.00    -0.170 OA
HETATM    2  N   UNL     1     119.758   7.635  40.589  1.00  0.00    -0.257 N 
ATOM      3  HN  UNL     1     119.080   7.223  39.948  1.00  0.00     0.175 HD
HETATM    4  O   UNL     1     121.816   7.029  39.646  1.00  0.00    -0.252 OA
HETATM    5  O   UNL     1     122.665   9.084  41.854  1.00  0.00    -0.188 OA
HETATM    6  S   UNL     1     121.760   7.982  42.062  1.00  0.00     0.362 S 
HETATM    7  C   UNL     1     121.096   7.494  40.498  1.00  0.00     0.372 C 
HETATM    8  C   UNL     1     119.446   8.411  41.668  1.00  0.00     0.383 C 
HETATM    9  O   UNL     1     118.437   9.101  41.802  1.00  0.00    -0.237 OA
HETATM   10  O   UNL     1     122.405   6.813  42.576  1.00  0.00    -0.188 OA
ENDROOT
TORSDOF 0
ENDMDL
MODEL 3
REMARK VINA RESULT:      -5.5      1.554      2.170
REMARK  0 active torsions:
REMARK  status: ('A' for Active; 'I' for Inactive)
ROOT
HETATM    1  O   UNL     1     120.817   7.030  40.322  1.00  0.00    -0.170 OA
HETATM    2  N   UNL     1     121.744   8.950  39.442  1.00  0.00    -0.257 N 
ATOM      3  HN  UNL     1     122.202   9.470  38.695  1.00  0.00     0.175 HD
HETATM    4  O   UNL     1     122.441  10.077  41.376  1.00  0.00    -0.252 OA
HETATM    5  O   UNL     1     120.216   8.164  42.476  1.00  0.00    -0.188 OA
HETATM    6  S   UNL     1     121.291   7.759  41.605  1.00  0.00     0.362 S 
HETATM    7  C   UNL     1     121.901   9.187  40.761  1.00  0.00     0.372 C 
HETATM    8  C   UNL     1     120.879   7.910  39.259  1.00  0.00     0.383 C 
HETATM    9  O   UNL     1     120.173   7.714  38.272  1.00  0.00    -0.237 OA
HETATM   10  O   UNL     1     122.418   7.230  42.309  1.00  0.00    -0.188 OA
ENDROOT
TORSDOF 0
ENDMDL
MODEL 4
REMARK VINA RESULT:      -5.5      2.401      3.626
REMARK  0 active torsions:
REMARK  status: ('A' for Active; 'I' for Inactive)
ROOT
HETATM    1  O   UNL     1     120.810   6.794  39.672  1.00  0.00    -0.170 OA
HETATM    2  N   UNL     1     121.499   8.941  40.160  1.00  0.00    -0.257 N 
ATOM      3  HN  UNL     1     121.602   9.733  40.794  1.00  0.00     0.175 HD
HETATM    4  O   UNL     1     121.451   9.954  38.048  1.00  0.00    -0.252 OA
HETATM    5  O   UNL     1     121.700   6.913  37.331  1.00  0.00    -0.188 OA
HETATM    6  S   UNL     1     120.757   7.461  38.274  1.00  0.00     0.362 S 
HETATM    7  C   UNL     1     121.354   9.031  38.823  1.00  0.00     0.372 C 
HETATM    8  C   UNL     1     121.488   7.630  40.540  1.00  0.00     0.383 C 
HETATM    9  O   UNL     1     122.021   7.156  41.541  1.00  0.00    -0.237 OA
HETATM   10  O   UNL     1     119.475   7.728  37.697  1.00  0.00    -0.188 OA
ENDROOT
TORSDOF 0
ENDMDL
MODEL 5
REMARK VINA RESULT:      -5.3      2.057      2.398
REMARK  0 active torsions:
REMARK  status: ('A' for Active; 'I' for Inactive)
ROOT
HETATM    1  O   UNL     1     121.007   7.536  37.948  1.00  0.00    -0.170 OA
HETATM    2  N   UNL     1     119.898   6.774  39.823  1.00  0.00    -0.257 N 
ATOM      3  HN  UNL     1     119.263   6.133  40.297  1.00  0.00     0.175 HD
HETATM    4  O   UNL     1     119.747   8.722  41.117  1.00  0.00    -0.252 OA
HETATM    5  O   UNL     1     122.165   9.355  39.226  1.00  0.00    -0.188 OA
HETATM    6  S   UNL     1     120.894   8.833  38.789  1.00  0.00     0.362 S 
HETATM    7  C   UNL     1     120.096   8.063  40.166  1.00  0.00     0.372 C 
HETATM    8  C   UNL     1     120.674   6.457  38.745  1.00  0.00     0.383 C 
HETATM    9  O   UNL     1     121.092   5.339  38.452  1.00  0.00    -0.237 OA
HETATM   10  O   UNL     1     119.988   9.850  38.351  1.00  0.00    -0.188 OA
ENDROOT
TORSDOF 0
ENDMDL
MODEL 6
REMARK VINA RESULT:      -5.3      2.148      3.547
REMARK  0 active torsions:
REMARK  status: ('A' for Active; 'I' for Inactive)
ROOT
HETATM    1  O   UNL     1     122.133   9.449  39.615  1.00  0.00    -0.170 OA
HETATM    2  N   UNL     1     121.671   7.713  41.061  1.00  0.00    -0.257 N 
ATOM      3  HN  UNL     1     121.919   7.085  41.826  1.00  0.00     0.175 HD
HETATM    4  O   UNL     1     120.122   6.459  39.828  1.00  0.00    -0.252 OA
HETATM    5  O   UNL     1     119.881   9.299  38.525  1.00  0.00    -0.188 OA
HETATM    6  S   UNL     1     121.124   8.616  38.785  1.00  0.00     0.362 S 
HETATM    7  C   UNL     1     120.849   7.401  40.039  1.00  0.00     0.372 C 
HETATM    8  C   UNL     1     122.123   8.993  40.919  1.00  0.00     0.383 C 
HETATM    9  O   UNL     1     122.490   9.741  41.823  1.00  0.00    -0.237 OA
HETATM   10  O   UNL     1     121.612   7.886  37.656  1.00  0.00    -0.188 OA
ENDROOT
TORSDOF 0
ENDMDL
MODEL 7
REMARK VINA RESULT:      -5.2      1.686      2.499
REMARK  0 active torsions:
REMARK  status: ('A' for Active; 'I' for Inactive)
ROOT
HETATM    1  O   UNL     1     121.513   9.188  40.162  1.00  0.00    -0.170 OA
HETATM    2  N   UNL     1     120.447   7.893  38.578  1.00  0.00    -0.257 N 
ATOM      3  HN  UNL     1     119.939   7.775  37.702  1.00  0.00     0.175 HD
HETATM    4  O   UNL     1     119.723   6.068  39.858  1.00  0.00    -0.252 OA
HETATM    5  O   UNL     1     122.089   7.199  41.574  1.00  0.00    -0.188 OA
HETATM    6  S   UNL     1     121.022   7.994  41.019  1.00  0.00     0.362 S 
HETATM    7  C   UNL     1     120.304   7.110  39.667  1.00  0.00     0.372 C 
HETATM    8  C   UNL     1     121.371   8.866  38.825  1.00  0.00     0.383 C 
HETATM    9  O   UNL     1     122.065   9.441  37.989  1.00  0.00    -0.237 OA
HETATM   10  O   UNL     1     119.947   8.214  41.937  1.00  0.00    -0.188 OA
ENDROOT
TORSDOF 0
ENDMDL
MODEL 8
REMARK VINA RESULT:      -5.1      2.119      3.508
REMARK  0 active torsions:
REMARK  status: ('A' for Active; 'I' for Inactive)
ROOT
HETATM    1  O   UNL     1     120.275   8.986  40.727  1.00  0.00    -0.170 OA
HETATM    2  N   UNL     1     120.583   9.385  38.476  1.00  0.00    -0.257 N 
ATOM      3  HN  UNL     1     120.370   9.879  37.610  1.00  0.00     0.175 HD
HETATM    4  O   UNL     1     121.364   7.308  37.723  1.00  0.00    -0.252 OA
HETATM    5  O   UNL     1     122.050   7.218  40.779  1.00  0.00    -0.188 OA
HETATM    6  S   UNL     1     120.773   7.604  40.234  1.00  0.00     0.362 S 
HETATM    7  C   UNL     1     121.003   8.106  38.555  1.00  0.00     0.372 C 
HETATM    8  C   UNL     1     120.484   9.919  39.729  1.00  0.00     0.383 C 
HETATM    9  O   UNL     1     120.576  11.108  40.024  1.00  0.00    -0.237 OA
HETATM   10  O   UNL     1     119.835   6.525  40.178  1.00  0.00    -0.188 OA
ENDROOT
TORSDOF 0
ENDMDL
MODEL 9
REMARK VINA RESULT:      -5.1      2.873      3.628
REMARK  0 active torsions:
REMARK  status: ('A' for Active; 'I' for Inactive)
ROOT
HETATM    1  O   UNL     1     121.965   8.971  38.014  1.00  0.00    -0.170 OA
HETATM    2  N   UNL     1     121.052  10.471  39.509  1.00  0.00    -0.257 N 
ATOM      3  HN  UNL     1     121.091  11.318  40.075  1.00  0.00     0.175 HD
HETATM    4  O   UNL     1     119.542   9.119  40.686  1.00  0.00    -0.252 OA
HETATM    5  O   UNL     1     119.902   7.548  37.998  1.00  0.00    -0.188 OA
HETATM    6  S   UNL     1     120.983   8.065  38.799  1.00  0.00     0.362 S 
HETATM    7  C   UNL     1     120.356   9.360  39.825  1.00  0.00     0.372 C 
HETATM    8  C   UNL     1     121.696  10.292  38.319  1.00  0.00     0.383 C 
HETATM    9  O   UNL     1     122.027  11.173  37.529  1.00  0.00    -0.237 OA
HETATM   10  O   UNL     1     121.526   7.099  39.704  1.00  0.00    -0.188 OA
ENDROOT
TORSDOF 0
ENDMDL
