MODEL 1
REMARK VINA RESULT:      -4.9      0.000      0.000
REMARK  2 active torsions:
REMARK  status: ('A' for Active; 'I' for Inactive)
REMARK    1  A    between atoms: C_2  and  O_10 
REMARK    2  A    between atoms: O_5  and  C_8 
ROOT
HETATM    1  C   UNL     1     121.658   8.559  40.896  1.00  0.00     0.036 C 
HETATM    2  C   UNL     1     120.901   7.473  38.297  1.00  0.00     0.065 C 
HETATM    3  C   UNL     1     121.592   9.275  39.746  1.00  0.00     0.005 C 
HETATM    4  C   UNL     1     121.070   8.815  38.580  1.00  0.00     0.036 C 
HETATM    5  C   UNL     1     119.942   6.900  40.445  1.00  0.00     0.039 C 
HETATM    6  C   UNL     1     120.717   7.645  41.306  1.00  0.00     0.065 C 
HETATM    7  C   UNL     1     120.111   6.677  39.116  1.00  0.00     0.039 C 
ENDROOT
BRANCH   2   8
HETATM    8  O   UNL     1     121.569   6.926  37.235  1.00  0.00    -0.361 OA
ATOM      9  HO  UNL     1     122.226   6.258  37.395  1.00  0.00     0.217 HD
ENDBRANCH   2   8
BRANCH   6  10
HETATM   10  O   UNL     1     120.534   7.531  42.661  1.00  0.00    -0.361 OA
ATOM     11  HO  UNL     1     119.838   6.949  42.943  1.00  0.00     0.217 HD
ENDBRANCH   6  10
TORSDOF 2
ENDMDL
MODEL 2
REMARK VINA RESULT:      -4.8      1.424      3.759
REMARK  2 active torsions:
REMARK  status: ('A' for Active; 'I' for Inactive)
REMARK    1  A    between atoms: C_2  and  O_10 
REMARK    2  A    between atoms: O_5  and  C_8 
ROOT
HETATM    1  C   UNL     1     120.608   7.853  39.268  1.00  0.00     0.036 C 
HETATM    2  C   UNL     1     121.782   7.807  41.938  1.00  0.00     0.065 C 
HETATM    3  C   UNL     1     120.010   7.336  40.369  1.00  0.00     0.005 C 
HETATM    4  C   UNL     1     120.474   7.474  41.636  1.00  0.00     0.036 C 
HETATM    5  C   UNL     1     121.950   9.590  40.308  1.00  0.00     0.039 C 
HETATM    6  C   UNL     1     121.284   9.049  39.231  1.00  0.00     0.065 C 
HETATM    7  C   UNL     1     122.330   8.993  41.467  1.00  0.00     0.039 C 
ENDROOT
BRANCH   2   8
HETATM    8  O   UNL     1     122.547   6.925  42.653  1.00  0.00    -0.361 OA
ATOM      9  HO  UNL     1     123.158   7.261  43.299  1.00  0.00     0.217 HD
ENDBRANCH   2   8
BRANCH   6  10
HETATM   10  O   UNL     1     121.227   9.740  38.047  1.00  0.00    -0.361 OA
ATOM     11  HO  UNL     1     120.358   9.936  37.717  1.00  0.00     0.217 HD
ENDBRANCH   6  10
TORSDOF 2
ENDMDL
MODEL 3
REMARK VINA RESULT:      -4.7      1.562      1.971
REMARK  2 active torsions:
REMARK  status: ('A' for Active; 'I' for Inactive)
REMARK    1  A    between atoms: C_2  and  O_10 
REMARK    2  A    between atoms: O_5  and  C_8 
ROOT
HETATM    1  C   UNL     1     122.053  10.343  39.896  1.00  0.00     0.036 C 
HETATM    2  C   UNL     1     120.684   8.002  38.823  1.00  0.00     0.065 C 
HETATM    3  C   UNL     1     120.934  10.382  39.131  1.00  0.00     0.005 C 
HETATM    4  C   UNL     1     120.199   9.296  38.783  1.00  0.00     0.036 C 
HETATM    5  C   UNL     1     121.718   8.207  41.003  1.00  0.00     0.039 C 
HETATM    6  C   UNL     1     122.261   9.471  40.939  1.00  0.00     0.065 C 
HETATM    7  C   UNL     1     121.155   7.465  40.014  1.00  0.00     0.039 C 
ENDROOT
BRANCH   2   8
HETATM    8  O   UNL     1     120.751   7.278  37.663  1.00  0.00    -0.361 OA
ATOM      9  HO  UNL     1     120.027   6.708  37.431  1.00  0.00     0.217 HD
ENDBRANCH   2   8
BRANCH   6  10
HETATM   10  O   UNL     1     123.019   9.942  41.980  1.00  0.00    -0.361 OA
ATOM     11  HO  UNL     1     122.867  10.845  42.235  1.00  0.00     0.217 HD
ENDBRANCH   6  10
TORSDOF 2
ENDMDL
MODEL 4
REMARK VINA RESULT:      -4.5      0.711      3.719
REMARK  2 active torsions:
REMARK  status: ('A' for Active; 'I' for Inactive)
REMARK    1  A    between atoms: C_2  and  O_10 
REMARK    2  A    between atoms: O_5  and  C_8 
ROOT
HETATM    1  C   UNL     1     120.469   6.395  39.129  1.00  0.00     0.036 C 
HETATM    2  C   UNL     1     121.053   8.414  41.151  1.00  0.00     0.065 C 
HETATM    3  C   UNL     1     119.703   6.644  40.219  1.00  0.00     0.005 C 
HETATM    4  C   UNL     1     119.876   7.695  41.059  1.00  0.00     0.036 C 
HETATM    5  C   UNL     1     121.392   8.611  38.761  1.00  0.00     0.039 C 
HETATM    6  C   UNL     1     121.021   7.360  38.321  1.00  0.00     0.065 C 
HETATM    7  C   UNL     1     121.574   9.052  40.033  1.00  0.00     0.039 C 
ENDROOT
BRANCH   2   8
HETATM    8  O   UNL     1     121.730   8.438  42.340  1.00  0.00    -0.361 OA
ATOM      9  HO  UNL     1     121.356   8.907  43.077  1.00  0.00     0.217 HD
ENDBRANCH   2   8
BRANCH   6  10
HETATM   10  O   UNL     1     121.151   7.038  36.994  1.00  0.00    -0.361 OA
ATOM     11  HO  UNL     1     120.349   7.030  36.484  1.00  0.00     0.217 HD
ENDBRANCH   6  10
TORSDOF 2
ENDMDL
MODEL 5
REMARK VINA RESULT:      -4.5      1.412      3.304
REMARK  2 active torsions:
REMARK  status: ('A' for Active; 'I' for Inactive)
REMARK    1  A    between atoms: C_2  and  O_10 
REMARK    2  A    between atoms: O_5  and  C_8 
ROOT
HETATM    1  C   UNL     1     120.311   9.700  39.023  1.00  0.00     0.036 C 
HETATM    2  C   UNL     1     121.934   8.723  41.240  1.00  0.00     0.065 C 
HETATM    3  C   UNL     1     121.393  10.338  39.531  1.00  0.00     0.005 C 
HETATM    4  C   UNL     1     122.250   9.803  40.437  1.00  0.00     0.036 C 
HETATM    5  C   UNL     1     120.944   7.398  39.472  1.00  0.00     0.039 C 
HETATM    6  C   UNL     1     120.245   8.351  38.765  1.00  0.00     0.065 C 
HETATM    7  C   UNL     1     121.568   7.509  40.673  1.00  0.00     0.039 C 
ENDROOT
BRANCH   2   8
HETATM    8  O   UNL     1     121.927   8.882  42.600  1.00  0.00    -0.361 OA
ATOM      9  HO  UNL     1     122.369   8.241  43.144  1.00  0.00     0.217 HD
ENDBRANCH   2   8
BRANCH   6  10
HETATM   10  O   UNL     1     119.463   7.975  37.702  1.00  0.00    -0.361 OA
ATOM     11  HO  UNL     1     118.580   7.691  37.910  1.00  0.00     0.217 HD
ENDBRANCH   6  10
TORSDOF 2
ENDMDL
MODEL 6
REMARK VINA RESULT:      -4.4      1.247      2.298
REMARK  2 active torsions:
REMARK  status: ('A' for Active; 'I' for Inactive)
REMARK    1  A    between atoms: C_2  and  O_10 
REMARK    2  A    between atoms: O_5  and  C_8 
ROOT
HETATM    1  C   UNL     1     120.118   7.055  41.145  1.00  0.00     0.036 C 
HETATM    2  C   UNL     1     120.689   8.810  38.886  1.00  0.00     0.065 C 
HETATM    3  C   UNL     1     120.015   6.699  39.841  1.00  0.00     0.005 C 
HETATM    4  C   UNL     1     120.449   7.452  38.799  1.00  0.00     0.036 C 
HETATM    5  C   UNL     1     121.899   8.699  40.981  1.00  0.00     0.039 C 
HETATM    6  C   UNL     1     121.161   7.771  41.682  1.00  0.00     0.065 C 
HETATM    7  C   UNL     1     121.614   9.303  39.798  1.00  0.00     0.039 C 
ENDROOT
BRANCH   2   8
HETATM    8  O   UNL     1     119.960   9.669  38.108  1.00  0.00    -0.361 OA
ATOM      9  HO  UNL     1     119.700   9.396  37.236  1.00  0.00     0.217 HD
ENDBRANCH   2   8
BRANCH   6  10
HETATM   10  O   UNL     1     121.487   7.482  42.983  1.00  0.00    -0.361 OA
ATOM     11  HO  UNL     1     121.823   8.204  43.502  1.00  0.00     0.217 HD
ENDBRANCH   6  10
TORSDOF 2
ENDMDL
MODEL 7
REMARK VINA RESULT:      -4.4      1.907      3.041
REMARK  2 active torsions:
REMARK  status: ('A' for Active; 'I' for Inactive)
REMARK    1  A    between atoms: C_2  and  O_10 
REMARK    2  A    between atoms: O_5  and  C_8 
ROOT
HETATM    1  C   UNL     1     120.138   9.251  39.807  1.00  0.00     0.036 C 
HETATM    2  C   UNL     1     119.661   6.374  39.753  1.00  0.00     0.065 C 
HETATM    3  C   UNL     1     119.962   8.474  40.903  1.00  0.00     0.005 C 
HETATM    4  C   UNL     1     119.919   7.117  40.889  1.00  0.00     0.036 C 
HETATM    5  C   UNL     1     121.150   7.627  38.311  1.00  0.00     0.039 C 
HETATM    6  C   UNL     1     120.922   8.920  38.728  1.00  0.00     0.065 C 
HETATM    7  C   UNL     1     120.479   6.491  38.636  1.00  0.00     0.039 C 
ENDROOT
BRANCH   2   8
HETATM    8  O   UNL     1     118.555   5.568  39.719  1.00  0.00    -0.361 OA
ATOM      9  HO  UNL     1     117.692   5.965  39.745  1.00  0.00     0.217 HD
ENDBRANCH   2   8
BRANCH   6  10
HETATM   10  O   UNL     1     121.537   9.962  38.082  1.00  0.00    -0.361 OA
ATOM     11  HO  UNL     1     121.013  10.745  37.957  1.00  0.00     0.217 HD
ENDBRANCH   6  10
TORSDOF 2
ENDMDL
MODEL 8
REMARK VINA RESULT:      -4.3      1.625      2.013
REMARK  2 active torsions:
REMARK  status: ('A' for Active; 'I' for Inactive)
REMARK    1  A    between atoms: C_2  and  O_10 
REMARK    2  A    between atoms: O_5  and  C_8 
ROOT
HETATM    1  C   UNL     1     122.062   8.573  41.466  1.00  0.00     0.036 C 
HETATM    2  C   UNL     1     121.787   9.831  38.848  1.00  0.00     0.065 C 
HETATM    3  C   UNL     1     122.639   9.745  41.104  1.00  0.00     0.005 C 
HETATM    4  C   UNL     1     122.369  10.417  39.956  1.00  0.00     0.036 C 
HETATM    5  C   UNL     1     120.066   8.656  40.083  1.00  0.00     0.039 C 
HETATM    6  C   UNL     1     120.762   8.221  41.189  1.00  0.00     0.065 C 
HETATM    7  C   UNL     1     120.538   9.231  38.947  1.00  0.00     0.039 C 
ENDROOT
BRANCH   2   8
HETATM    8  O   UNL     1     122.482   9.794  37.670  1.00  0.00    -0.361 OA
ATOM      9  HO  UNL     1     122.593   8.963  37.223  1.00  0.00     0.217 HD
ENDBRANCH   2   8
BRANCH   6  10
HETATM   10  O   UNL     1     120.139   7.427  42.118  1.00  0.00    -0.361 OA
ATOM     11  HO  UNL     1     119.218   7.249  41.968  1.00  0.00     0.217 HD
ENDBRANCH   6  10
TORSDOF 2
ENDMDL
MODEL 9
REMARK VINA RESULT:      -4.2      1.583      3.536
REMARK  2 active torsions:
REMARK  status: ('A' for Active; 'I' for Inactive)
REMARK    1  A    between atoms: C_2  and  O_10 
REMARK    2  A    between atoms: O_5  and  C_8 
ROOT
HETATM    1  C   UNL     1     122.329  10.398  39.995  1.00  0.00     0.036 C 
HETATM    2  C   UNL     1     120.818   8.195  41.167  1.00  0.00     0.065 C 
HETATM    3  C   UNL     1     122.693   9.713  41.108  1.00  0.00     0.005 C 
HETATM    4  C   UNL     1     122.089   8.580  41.548  1.00  0.00     0.036 C 
HETATM    5  C   UNL     1     121.134   8.647  38.809  1.00  0.00     0.039 C 
HETATM    6  C   UNL     1     121.850   9.823  38.842  1.00  0.00     0.065 C 
HETATM    7  C   UNL     1     120.519   7.990  39.826  1.00  0.00     0.039 C 
ENDROOT
BRANCH   2   8
HETATM    8  O   UNL     1     119.842   8.079  42.120  1.00  0.00    -0.361 OA
ATOM      9  HO  UNL     1     119.000   7.710  41.878  1.00  0.00     0.217 HD
ENDBRANCH   2   8
BRANCH   6  10
HETATM   10  O   UNL     1     122.165  10.463  37.671  1.00  0.00    -0.361 OA
ATOM     11  HO  UNL     1     122.371   9.905  36.930  1.00  0.00     0.217 HD
ENDBRANCH   6  10
TORSDOF 2
ENDMDL
