MODEL 1
REMARK VINA RESULT:      -7.0      0.000      0.000
REMARK  8 active torsions:
REMARK  status: ('A' for Active; 'I' for Inactive)
REMARK    1  A    between atoms: C_1  and  C_2 
REMARK    2  A    between atoms: C_3  and  C_14 
REMARK    3  A    between atoms: C_5  and  C_19 
REMARK    4  A    between atoms: C_5  and  C_22 
REMARK    5  A    between atoms: C_9  and  C_14 
REMARK    6  A    between atoms: C_9  and  C_22 
REMARK    7  A    between atoms: C_13  and  C_17 
REMARK    8  A    between atoms: C_16  and  O_23 
ROOT
HETATM    1  C   UNL     1      -0.474  14.764  -1.573  1.00  0.00     0.015 C 
HETATM    2  C   UNL     1      -2.857  14.702  -0.652  1.00  0.00    -0.056 C 
HETATM    3  C   UNL     1      -1.167  16.444   0.218  1.00  0.00     0.039 C 
HETATM    4  C   UNL     1      -1.450  15.288  -0.736  1.00  0.00    -0.052 C 
HETATM    5  C   UNL     1      -3.388  14.431   0.754  1.00  0.00     0.039 C 
HETATM    6  C   UNL     1      -2.018  16.551   1.475  1.00  0.00     0.005 C 
HETATM    7  C   UNL     1      -2.818  15.302   1.868  1.00  0.00     0.005 C 
ENDROOT
BRANCH   1   8
HETATM    8  C   UNL     1       0.536  14.850  -2.600  1.00  0.00    -0.047 C 
HETATM    9  C   UNL     1       0.552  13.852  -3.725  1.00  0.00    -0.036 C 
HETATM   10  C   UNL     1       1.895  13.432  -4.178  1.00  0.00     0.080 C 
HETATM   11  C   UNL     1      -0.711  13.456  -4.450  1.00  0.00     0.050 C 
HETATM   12  C   UNL     1       2.991  14.395  -4.052  1.00  0.00     0.079 C 
HETATM   13  C   UNL     1       2.779  15.667  -3.413  1.00  0.00     0.015 C 
HETATM   14  C   UNL     1       1.612  15.850  -2.572  1.00  0.00     0.069 C 
BRANCH  10  15
HETATM   15  C   UNL     1       2.164  12.138  -4.944  1.00  0.00     0.212 C 
HETATM   16  O   UNL     1       1.945  12.105  -6.181  1.00  0.00    -0.644 OA
HETATM   17  O   UNL     1       2.638  11.163  -4.319  1.00  0.00    -0.644 OA
ENDBRANCH  10  15
BRANCH  12  18
HETATM   18  O   UNL     1       4.271  13.997  -4.356  1.00  0.00    -0.360 OA
ATOM     19  HO  UNL     1       4.981  14.212  -3.762  1.00  0.00     0.217 HD
ENDBRANCH  12  18
ENDBRANCH   1   8
BRANCH   2  20
HETATM   20  C   UNL     1      -3.742  14.673  -1.888  1.00  0.00    -0.019 C 
BRANCH  20  21
HETATM   21  C   UNL     1      -3.575  15.651  -3.072  1.00  0.00     0.028 C 
BRANCH  21  22
HETATM   22  C   UNL     1      -4.563  16.831  -2.953  1.00  0.00     0.014 C 
BRANCH  22  23
HETATM   23  C   UNL     1      -3.873  18.097  -2.419  1.00  0.00     0.113 C 
BRANCH  23  24
HETATM   24  C   UNL     1      -4.115  18.412  -0.941  1.00  0.00     0.172 C 
HETATM   25  O   UNL     1      -3.471  19.376  -0.461  1.00  0.00    -0.648 OA
HETATM   26  O   UNL     1      -4.811  17.684  -0.234  1.00  0.00    -0.648 OA
ENDBRANCH  23  24
ENDBRANCH  22  23
ENDBRANCH  21  22
ENDBRANCH  20  21
ENDBRANCH   2  20
TORSDOF 8
ENDMDL
MODEL 2
REMARK VINA RESULT:      -6.9      2.584      7.129
REMARK  8 active torsions:
REMARK  status: ('A' for Active; 'I' for Inactive)
REMARK    1  A    between atoms: C_1  and  C_2 
REMARK    2  A    between atoms: C_3  and  C_14 
REMARK    3  A    between atoms: C_5  and  C_19 
REMARK    4  A    between atoms: C_5  and  C_22 
REMARK    5  A    between atoms: C_9  and  C_14 
REMARK    6  A    between atoms: C_9  and  C_22 
REMARK    7  A    between atoms: C_13  and  C_17 
REMARK    8  A    between atoms: C_16  and  O_23 
ROOT
HETATM    1  C   UNL     1      -3.718  17.097  -1.274  1.00  0.00     0.015 C 
HETATM    2  C   UNL     1      -3.575  16.817  -3.810  1.00  0.00    -0.056 C 
HETATM    3  C   UNL     1      -5.310  18.415  -2.770  1.00  0.00     0.039 C 
HETATM    4  C   UNL     1      -4.157  17.441  -2.545  1.00  0.00    -0.052 C 
HETATM    5  C   UNL     1      -4.586  16.287  -4.824  1.00  0.00     0.039 C 
HETATM    6  C   UNL     1      -6.115  18.277  -4.054  1.00  0.00     0.005 C 
HETATM    7  C   UNL     1      -5.954  16.959  -4.823  1.00  0.00     0.005 C 
ENDROOT
BRANCH   1   8
HETATM    8  C   UNL     1      -3.213  17.388   0.046  1.00  0.00    -0.047 C 
HETATM    9  C   UNL     1      -2.080  16.578   0.614  1.00  0.00    -0.036 C 
HETATM   10  C   UNL     1      -2.169  16.296   2.063  1.00  0.00     0.080 C 
HETATM   11  C   UNL     1      -0.859  16.242  -0.206  1.00  0.00     0.050 C 
HETATM   12  C   UNL     1      -2.849  17.278   2.910  1.00  0.00     0.079 C 
HETATM   13  C   UNL     1      -3.496  18.424   2.328  1.00  0.00     0.015 C 
HETATM   14  C   UNL     1      -3.801  18.420   0.910  1.00  0.00     0.069 C 
BRANCH  10  15
HETATM   15  C   UNL     1      -1.427  15.150   2.749  1.00  0.00     0.212 C 
HETATM   16  O   UNL     1      -1.710  13.966   2.435  1.00  0.00    -0.644 OA
HETATM   17  O   UNL     1      -0.527  15.431   3.572  1.00  0.00    -0.644 OA
ENDBRANCH  10  15
BRANCH  12  18
HETATM   18  O   UNL     1      -3.050  16.991   4.239  1.00  0.00    -0.360 OA
ATOM     19  HO  UNL     1      -2.778  16.148   4.582  1.00  0.00     0.217 HD
ENDBRANCH  12  18
ENDBRANCH   1   8
BRANCH   2  20
HETATM   20  C   UNL     1      -2.098  16.987  -4.129  1.00  0.00    -0.019 C 
BRANCH  20  21
HETATM   21  C   UNL     1      -1.124  15.799  -4.290  1.00  0.00     0.028 C 
BRANCH  21  22
HETATM   22  C   UNL     1       0.342  16.273  -4.185  1.00  0.00     0.014 C 
BRANCH  22  23
HETATM   23  C   UNL     1       1.309  15.091  -4.014  1.00  0.00     0.113 C 
BRANCH  23  24
HETATM   24  C   UNL     1       2.518  15.348  -3.111  1.00  0.00     0.172 C 
HETATM   25  O   UNL     1       2.735  14.501  -2.210  1.00  0.00    -0.648 OA
HETATM   26  O   UNL     1       3.170  16.389  -3.190  1.00  0.00    -0.648 OA
ENDBRANCH  23  24
ENDBRANCH  22  23
ENDBRANCH  21  22
ENDBRANCH  20  21
ENDBRANCH   2  20
TORSDOF 8
ENDMDL
MODEL 3
REMARK VINA RESULT:      -6.9      4.233      7.462
REMARK  8 active torsions:
REMARK  status: ('A' for Active; 'I' for Inactive)
REMARK    1  A    between atoms: C_1  and  C_2 
REMARK    2  A    between atoms: C_3  and  C_14 
REMARK    3  A    between atoms: C_5  and  C_19 
REMARK    4  A    between atoms: C_5  and  C_22 
REMARK    5  A    between atoms: C_9  and  C_14 
REMARK    6  A    between atoms: C_9  and  C_22 
REMARK    7  A    between atoms: C_13  and  C_17 
REMARK    8  A    between atoms: C_16  and  O_23 
ROOT
HETATM    1  C   UNL     1      -3.815  16.462  -4.061  1.00  0.00     0.015 C 
HETATM    2  C   UNL     1      -2.293  14.857  -2.783  1.00  0.00    -0.056 C 
HETATM    3  C   UNL     1      -1.287  16.640  -4.350  1.00  0.00     0.039 C 
HETATM    4  C   UNL     1      -2.540  16.028  -3.731  1.00  0.00    -0.052 C 
HETATM    5  C   UNL     1      -1.313  13.793  -3.271  1.00  0.00     0.039 C 
HETATM    6  C   UNL     1      -0.041  15.770  -4.439  1.00  0.00     0.005 C 
HETATM    7  C   UNL     1      -0.247  14.261  -4.255  1.00  0.00     0.005 C 
ENDROOT
BRANCH   1   8
HETATM    8  C   UNL     1      -4.849  17.459  -4.205  1.00  0.00    -0.047 C 
HETATM    9  C   UNL     1      -4.523  18.914  -4.015  1.00  0.00    -0.036 C 
HETATM   10  C   UNL     1      -5.572  19.715  -3.348  1.00  0.00     0.080 C 
HETATM   11  C   UNL     1      -3.292  19.537  -4.626  1.00  0.00     0.050 C 
HETATM   12  C   UNL     1      -6.966  19.306  -3.535  1.00  0.00     0.079 C 
HETATM   13  C   UNL     1      -7.286  18.105  -4.259  1.00  0.00     0.015 C 
HETATM   14  C   UNL     1      -6.251  17.114  -4.477  1.00  0.00     0.069 C 
BRANCH  10  15
HETATM   15  C   UNL     1      -5.304  21.045  -2.646  1.00  0.00     0.212 C 
HETATM   16  O   UNL     1      -5.845  22.090  -3.091  1.00  0.00    -0.644 OA
HETATM   17  O   UNL     1      -4.588  21.044  -1.619  1.00  0.00    -0.644 OA
ENDBRANCH  10  15
BRANCH  12  18
HETATM   18  O   UNL     1      -7.955  19.958  -2.836  1.00  0.00    -0.360 OA
ATOM     19  HO  UNL     1      -8.675  19.458  -2.468  1.00  0.00     0.217 HD
ENDBRANCH  12  18
ENDBRANCH   1   8
BRANCH   2  20
HETATM   20  C   UNL     1      -2.786  14.928  -1.346  1.00  0.00    -0.019 C 
BRANCH  20  21
HETATM   21  C   UNL     1      -2.636  16.184  -0.460  1.00  0.00     0.028 C 
BRANCH  21  22
HETATM   22  C   UNL     1      -4.012  16.662   0.051  1.00  0.00     0.014 C 
BRANCH  22  23
HETATM   23  C   UNL     1      -4.145  18.191  -0.023  1.00  0.00     0.113 C 
BRANCH  23  24
HETATM   24  C   UNL     1      -3.261  18.983   0.944  1.00  0.00     0.172 C 
HETATM   25  O   UNL     1      -3.451  18.784   2.169  1.00  0.00    -0.648 OA
HETATM   26  O   UNL     1      -2.489  19.854   0.544  1.00  0.00    -0.648 OA
ENDBRANCH  23  24
ENDBRANCH  22  23
ENDBRANCH  21  22
ENDBRANCH  20  21
ENDBRANCH   2  20
TORSDOF 8
ENDMDL
MODEL 4
REMARK VINA RESULT:      -6.9      2.874      7.265
REMARK  8 active torsions:
REMARK  status: ('A' for Active; 'I' for Inactive)
REMARK    1  A    between atoms: C_1  and  C_2 
REMARK    2  A    between atoms: C_3  and  C_14 
REMARK    3  A    between atoms: C_5  and  C_19 
REMARK    4  A    between atoms: C_5  and  C_22 
REMARK    5  A    between atoms: C_9  and  C_14 
REMARK    6  A    between atoms: C_9  and  C_22 
REMARK    7  A    between atoms: C_13  and  C_17 
REMARK    8  A    between atoms: C_16  and  O_23 
ROOT
HETATM    1  C   UNL     1      -3.002  15.883  -4.664  1.00  0.00     0.015 C 
HETATM    2  C   UNL     1      -1.416  14.178  -3.612  1.00  0.00    -0.056 C 
HETATM    3  C   UNL     1      -0.579  16.542  -4.209  1.00  0.00     0.039 C 
HETATM    4  C   UNL     1      -1.747  15.561  -4.168  1.00  0.00    -0.052 C 
HETATM    5  C   UNL     1      -0.138  13.530  -4.139  1.00  0.00     0.039 C 
HETATM    6  C   UNL     1       0.830  15.968  -4.241  1.00  0.00     0.005 C 
HETATM    7  C   UNL     1       0.955  14.484  -4.608  1.00  0.00     0.005 C 
ENDROOT
BRANCH   1   8
HETATM    8  C   UNL     1      -4.194  16.691  -4.749  1.00  0.00    -0.047 C 
HETATM    9  C   UNL     1      -4.189  18.099  -4.219  1.00  0.00    -0.036 C 
HETATM   10  C   UNL     1      -5.441  18.531  -3.561  1.00  0.00     0.080 C 
HETATM   11  C   UNL     1      -3.052  19.049  -4.505  1.00  0.00     0.050 C 
HETATM   12  C   UNL     1      -6.697  17.940  -4.027  1.00  0.00     0.079 C 
HETATM   13  C   UNL     1      -6.692  16.900  -5.020  1.00  0.00     0.015 C 
HETATM   14  C   UNL     1      -5.462  16.180  -5.285  1.00  0.00     0.069 C 
BRANCH  10  15
HETATM   15  C   UNL     1      -5.519  19.691  -2.569  1.00  0.00     0.212 C 
HETATM   16  O   UNL     1      -6.110  20.747  -2.912  1.00  0.00    -0.644 OA
HETATM   17  O   UNL     1      -5.030  19.535  -1.429  1.00  0.00    -0.644 OA
ENDBRANCH  10  15
BRANCH  12  18
HETATM   18  O   UNL     1      -7.863  18.233  -3.360  1.00  0.00    -0.360 OA
ATOM     19  HO  UNL     1      -7.976  17.937  -2.463  1.00  0.00     0.217 HD
ENDBRANCH  12  18
ENDBRANCH   1   8
BRANCH   2  20
HETATM   20  C   UNL     1      -2.177  13.642  -2.410  1.00  0.00    -0.019 C 
BRANCH  20  21
HETATM   21  C   UNL     1      -1.784  13.955  -0.950  1.00  0.00     0.028 C 
BRANCH  21  22
HETATM   22  C   UNL     1      -2.600  15.146  -0.404  1.00  0.00     0.014 C 
BRANCH  22  23
HETATM   23  C   UNL     1      -1.833  16.470  -0.539  1.00  0.00     0.113 C 
BRANCH  23  24
HETATM   24  C   UNL     1      -0.434  16.494   0.084  1.00  0.00     0.172 C 
HETATM   25  O   UNL     1       0.528  16.654  -0.706  1.00  0.00    -0.648 OA
HETATM   26  O   UNL     1      -0.257  16.248   1.276  1.00  0.00    -0.648 OA
ENDBRANCH  23  24
ENDBRANCH  22  23
ENDBRANCH  21  22
ENDBRANCH  20  21
ENDBRANCH   2  20
TORSDOF 8
ENDMDL
MODEL 5
REMARK VINA RESULT:      -6.8      2.049      4.168
REMARK  8 active torsions:
REMARK  status: ('A' for Active; 'I' for Inactive)
REMARK    1  A    between atoms: C_1  and  C_2 
REMARK    2  A    between atoms: C_3  and  C_14 
REMARK    3  A    between atoms: C_5  and  C_19 
REMARK    4  A    between atoms: C_5  and  C_22 
REMARK    5  A    between atoms: C_9  and  C_14 
REMARK    6  A    between atoms: C_9  and  C_22 
REMARK    7  A    between atoms: C_13  and  C_17 
REMARK    8  A    between atoms: C_16  and  O_23 
ROOT
HETATM    1  C   UNL     1      -1.506  15.985  -3.315  1.00  0.00     0.015 C 
HETATM    2  C   UNL     1      -3.388  17.263  -2.152  1.00  0.00    -0.056 C 
HETATM    3  C   UNL     1      -3.830  16.018  -4.366  1.00  0.00     0.039 C 
HETATM    4  C   UNL     1      -2.835  16.378  -3.267  1.00  0.00    -0.052 C 
HETATM    5  C   UNL     1      -4.214  18.467  -2.598  1.00  0.00     0.039 C 
HETATM    6  C   UNL     1      -5.022  16.941  -4.576  1.00  0.00     0.005 C 
HETATM    7  C   UNL     1      -4.928  18.334  -3.939  1.00  0.00     0.005 C 
ENDROOT
BRANCH   1   8
HETATM    8  C   UNL     1      -0.444  15.012  -3.416  1.00  0.00    -0.047 C 
HETATM    9  C   UNL     1       0.950  15.372  -2.978  1.00  0.00    -0.036 C 
HETATM   10  C   UNL     1       2.037  14.808  -3.806  1.00  0.00     0.080 C 
HETATM   11  C   UNL     1       1.209  16.104  -1.684  1.00  0.00     0.050 C 
HETATM   12  C   UNL     1       1.797  13.523  -4.466  1.00  0.00     0.079 C 
HETATM   13  C   UNL     1       0.508  12.890  -4.389  1.00  0.00     0.015 C 
HETATM   14  C   UNL     1      -0.644  13.676  -3.991  1.00  0.00     0.069 C 
BRANCH  10  15
HETATM   15  C   UNL     1       3.452  15.384  -3.852  1.00  0.00     0.212 C 
HETATM   16  O   UNL     1       4.429  14.595  -3.914  1.00  0.00    -0.644 OA
HETATM   17  O   UNL     1       3.589  16.627  -3.872  1.00  0.00    -0.644 OA
ENDBRANCH  10  15
BRANCH  12  18
HETATM   18  O   UNL     1       2.742  13.029  -5.333  1.00  0.00    -0.360 OA
ATOM     19  HO  UNL     1       3.407  13.611  -5.682  1.00  0.00     0.217 HD
ENDBRANCH  12  18
ENDBRANCH   1   8
BRANCH   2  20
HETATM   20  C   UNL     1      -3.337  16.786  -0.710  1.00  0.00    -0.019 C 
BRANCH  20  21
HETATM   21  C   UNL     1      -2.407  17.407   0.355  1.00  0.00     0.028 C 
BRANCH  21  22
HETATM   22  C   UNL     1      -3.224  18.156   1.430  1.00  0.00     0.014 C 
BRANCH  22  23
HETATM   23  C   UNL     1      -3.978  17.184   2.351  1.00  0.00     0.113 C 
BRANCH  23  24
HETATM   24  C   UNL     1      -3.767  17.393   3.852  1.00  0.00     0.172 C 
HETATM   25  O   UNL     1      -2.844  18.175   4.185  1.00  0.00    -0.648 OA
HETATM   26  O   UNL     1      -4.391  16.737   4.686  1.00  0.00    -0.648 OA
ENDBRANCH  23  24
ENDBRANCH  22  23
ENDBRANCH  21  22
ENDBRANCH  20  21
ENDBRANCH   2  20
TORSDOF 8
ENDMDL
MODEL 6
REMARK VINA RESULT:      -6.8      2.548      7.086
REMARK  8 active torsions:
REMARK  status: ('A' for Active; 'I' for Inactive)
REMARK    1  A    between atoms: C_1  and  C_2 
REMARK    2  A    between atoms: C_3  and  C_14 
REMARK    3  A    between atoms: C_5  and  C_19 
REMARK    4  A    between atoms: C_5  and  C_22 
REMARK    5  A    between atoms: C_9  and  C_14 
REMARK    6  A    between atoms: C_9  and  C_22 
REMARK    7  A    between atoms: C_13  and  C_17 
REMARK    8  A    between atoms: C_16  and  O_23 
ROOT
HETATM    1  C   UNL     1      -3.060  15.327  -1.435  1.00  0.00     0.015 C 
HETATM    2  C   UNL     1      -2.160  16.050  -3.715  1.00  0.00    -0.056 C 
HETATM    3  C   UNL     1      -4.229  17.208  -2.702  1.00  0.00     0.039 C 
HETATM    4  C   UNL     1      -3.129  16.162  -2.541  1.00  0.00    -0.052 C 
HETATM    5  C   UNL     1      -2.790  16.014  -5.105  1.00  0.00     0.039 C 
HETATM    6  C   UNL     1      -4.611  17.625  -4.115  1.00  0.00     0.005 C 
HETATM    7  C   UNL     1      -4.141  16.706  -5.250  1.00  0.00     0.005 C 
ENDROOT
BRANCH   1   8
HETATM    8  C   UNL     1      -2.987  15.052  -0.021  1.00  0.00    -0.047 C 
HETATM    9  C   UNL     1      -2.348  16.048   0.908  1.00  0.00    -0.036 C 
HETATM   10  C   UNL     1      -1.562  15.465   2.016  1.00  0.00     0.080 C 
HETATM   11  C   UNL     1      -2.645  17.524   0.811  1.00  0.00     0.050 C 
HETATM   12  C   UNL     1      -1.974  14.158   2.533  1.00  0.00     0.079 C 
HETATM   13  C   UNL     1      -3.045  13.429   1.908  1.00  0.00     0.015 C 
HETATM   14  C   UNL     1      -3.462  13.793   0.568  1.00  0.00     0.069 C 
BRANCH  10  15
HETATM   15  C   UNL     1      -0.478  16.226   2.778  1.00  0.00     0.212 C 
HETATM   16  O   UNL     1       0.581  16.542   2.179  1.00  0.00    -0.644 OA
HETATM   17  O   UNL     1      -0.701  16.552   3.965  1.00  0.00    -0.644 OA
ENDBRANCH  10  15
BRANCH  12  18
HETATM   18  O   UNL     1      -1.198  13.537   3.482  1.00  0.00    -0.360 OA
ATOM     19  HO  UNL     1      -1.310  12.607   3.644  1.00  0.00     0.217 HD
ENDBRANCH  12  18
ENDBRANCH   1   8
BRANCH   2  20
HETATM   20  C   UNL     1      -0.670  16.251  -3.489  1.00  0.00    -0.019 C 
BRANCH  20  21
HETATM   21  C   UNL     1       0.397  15.960  -4.568  1.00  0.00     0.028 C 
BRANCH  21  22
HETATM   22  C   UNL     1       1.158  14.655  -4.250  1.00  0.00     0.014 C 
BRANCH  22  23
HETATM   23  C   UNL     1       2.186  14.856  -3.126  1.00  0.00     0.113 C 
BRANCH  23  24
HETATM   24  C   UNL     1       3.573  15.326  -3.572  1.00  0.00     0.172 C 
HETATM   25  O   UNL     1       3.811  16.553  -3.462  1.00  0.00    -0.648 OA
HETATM   26  O   UNL     1       4.366  14.560  -4.118  1.00  0.00    -0.648 OA
ENDBRANCH  23  24
ENDBRANCH  22  23
ENDBRANCH  21  22
ENDBRANCH  20  21
ENDBRANCH   2  20
TORSDOF 8
ENDMDL
MODEL 7
REMARK VINA RESULT:      -6.7      4.151      6.562
REMARK  8 active torsions:
REMARK  status: ('A' for Active; 'I' for Inactive)
REMARK    1  A    between atoms: C_1  and  C_2 
REMARK    2  A    between atoms: C_3  and  C_14 
REMARK    3  A    between atoms: C_5  and  C_19 
REMARK    4  A    between atoms: C_5  and  C_22 
REMARK    5  A    between atoms: C_9  and  C_14 
REMARK    6  A    between atoms: C_9  and  C_22 
REMARK    7  A    between atoms: C_13  and  C_17 
REMARK    8  A    between atoms: C_16  and  O_23 
ROOT
HETATM    1  C   UNL     1      -0.930  15.947  -0.593  1.00  0.00     0.015 C 
HETATM    2  C   UNL     1      -1.396  16.112  -3.100  1.00  0.00    -0.056 C 
HETATM    3  C   UNL     1      -0.037  14.137  -2.153  1.00  0.00     0.039 C 
HETATM    4  C   UNL     1      -0.816  15.418  -1.870  1.00  0.00    -0.052 C 
HETATM    5  C   UNL     1      -0.454  16.263  -4.292  1.00  0.00     0.039 C 
HETATM    6  C   UNL     1       0.557  13.959  -3.542  1.00  0.00     0.005 C 
HETATM    7  C   UNL     1       0.651  15.219  -4.412  1.00  0.00     0.005 C 
ENDROOT
BRANCH   1   8
HETATM    8  C   UNL     1      -1.276  15.893   0.807  1.00  0.00    -0.047 C 
HETATM    9  C   UNL     1      -2.655  15.464   1.226  1.00  0.00    -0.036 C 
HETATM   10  C   UNL     1      -3.214  16.183   2.392  1.00  0.00     0.080 C 
HETATM   11  C   UNL     1      -3.333  14.266   0.609  1.00  0.00     0.050 C 
HETATM   12  C   UNL     1      -2.276  16.683   3.400  1.00  0.00     0.079 C 
HETATM   13  C   UNL     1      -0.857  16.564   3.202  1.00  0.00     0.015 C 
HETATM   14  C   UNL     1      -0.347  16.301   1.870  1.00  0.00     0.069 C 
BRANCH  10  15
HETATM   15  C   UNL     1      -4.708  16.260   2.702  1.00  0.00     0.212 C 
HETATM   16  O   UNL     1      -5.490  16.708   1.826  1.00  0.00    -0.644 OA
HETATM   17  O   UNL     1      -5.110  15.830   3.807  1.00  0.00    -0.644 OA
ENDBRANCH  10  15
BRANCH  12  18
HETATM   18  O   UNL     1      -2.753  17.453   4.434  1.00  0.00    -0.360 OA
ATOM     19  HO  UNL     1      -2.273  18.230   4.697  1.00  0.00     0.217 HD
ENDBRANCH  12  18
ENDBRANCH   1   8
BRANCH   2  20
HETATM   20  C   UNL     1      -2.892  16.365  -3.193  1.00  0.00    -0.019 C 
BRANCH  20  21
HETATM   21  C   UNL     1      -3.553  17.699  -2.782  1.00  0.00     0.028 C 
BRANCH  21  22
HETATM   22  C   UNL     1      -4.225  17.576  -1.398  1.00  0.00     0.014 C 
BRANCH  22  23
HETATM   23  C   UNL     1      -3.842  18.742  -0.474  1.00  0.00     0.113 C 
BRANCH  23  24
HETATM   24  C   UNL     1      -4.061  20.144  -1.048  1.00  0.00     0.172 C 
HETATM   25  O   UNL     1      -5.208  20.397  -1.489  1.00  0.00    -0.648 OA
HETATM   26  O   UNL     1      -3.129  20.937  -1.180  1.00  0.00    -0.648 OA
ENDBRANCH  23  24
ENDBRANCH  22  23
ENDBRANCH  21  22
ENDBRANCH  20  21
ENDBRANCH   2  20
TORSDOF 8
ENDMDL
MODEL 8
REMARK VINA RESULT:      -6.7      2.790      8.558
REMARK  8 active torsions:
REMARK  status: ('A' for Active; 'I' for Inactive)
REMARK    1  A    between atoms: C_1  and  C_2 
REMARK    2  A    between atoms: C_3  and  C_14 
REMARK    3  A    between atoms: C_5  and  C_19 
REMARK    4  A    between atoms: C_5  and  C_22 
REMARK    5  A    between atoms: C_9  and  C_14 
REMARK    6  A    between atoms: C_9  and  C_22 
REMARK    7  A    between atoms: C_13  and  C_17 
REMARK    8  A    between atoms: C_16  and  O_23 
ROOT
HETATM    1  C   UNL     1      -3.953  17.593  -2.876  1.00  0.00     0.015 C 
HETATM    2  C   UNL     1      -1.811  16.202  -2.808  1.00  0.00    -0.056 C 
HETATM    3  C   UNL     1      -4.105  15.082  -2.454  1.00  0.00     0.039 C 
HETATM    4  C   UNL     1      -3.327  16.361  -2.746  1.00  0.00    -0.052 C 
HETATM    5  C   UNL     1      -1.174  15.385  -1.687  1.00  0.00     0.039 C 
HETATM    6  C   UNL     1      -3.376  13.955  -1.737  1.00  0.00     0.005 C 
HETATM    7  C   UNL     1      -2.061  14.328  -1.038  1.00  0.00     0.005 C 
ENDROOT
BRANCH   1   8
HETATM    8  C   UNL     1      -4.908  18.508  -3.454  1.00  0.00    -0.047 C 
HETATM    9  C   UNL     1      -4.516  19.935  -3.722  1.00  0.00    -0.036 C 
HETATM   10  C   UNL     1      -5.575  20.937  -3.476  1.00  0.00     0.080 C 
HETATM   11  C   UNL     1      -3.198  20.286  -4.367  1.00  0.00     0.050 C 
HETATM   12  C   UNL     1      -6.967  20.523  -3.667  1.00  0.00     0.079 C 
HETATM   13  C   UNL     1      -7.286  19.157  -3.983  1.00  0.00     0.015 C 
HETATM   14  C   UNL     1      -6.295  18.125  -3.747  1.00  0.00     0.069 C 
BRANCH  10  15
HETATM   15  C   UNL     1      -5.296  22.420  -3.230  1.00  0.00     0.212 C 
HETATM   16  O   UNL     1      -5.010  23.157  -4.207  1.00  0.00    -0.644 OA
HETATM   17  O   UNL     1      -5.408  22.861  -2.064  1.00  0.00    -0.644 OA
ENDBRANCH  10  15
BRANCH  12  18
HETATM   18  O   UNL     1      -7.976  21.395  -3.336  1.00  0.00    -0.360 OA
ATOM     19  HO  UNL     1      -7.867  21.976  -2.591  1.00  0.00     0.217 HD
ENDBRANCH  12  18
ENDBRANCH   1   8
BRANCH   2  20
HETATM   20  C   UNL     1      -1.057  16.602  -4.067  1.00  0.00    -0.019 C 
BRANCH  20  21
HETATM   21  C   UNL     1       0.201  15.862  -4.572  1.00  0.00     0.028 C 
BRANCH  21  22
HETATM   22  C   UNL     1       1.473  16.421  -3.899  1.00  0.00     0.014 C 
BRANCH  22  23
HETATM   23  C   UNL     1       2.220  15.337  -3.106  1.00  0.00     0.113 C 
BRANCH  23  24
HETATM   24  C   UNL     1       3.262  14.538  -3.892  1.00  0.00     0.172 C 
HETATM   25  O   UNL     1       3.075  13.300  -3.973  1.00  0.00    -0.648 OA
HETATM   26  O   UNL     1       4.289  15.066  -4.318  1.00  0.00    -0.648 OA
ENDBRANCH  23  24
ENDBRANCH  22  23
ENDBRANCH  21  22
ENDBRANCH  20  21
ENDBRANCH   2  20
TORSDOF 8
ENDMDL
MODEL 9
REMARK VINA RESULT:      -6.6      3.956      6.606
REMARK  8 active torsions:
REMARK  status: ('A' for Active; 'I' for Inactive)
REMARK    1  A    between atoms: C_1  and  C_2 
REMARK    2  A    between atoms: C_3  and  C_14 
REMARK    3  A    between atoms: C_5  and  C_19 
REMARK    4  A    between atoms: C_5  and  C_22 
REMARK    5  A    between atoms: C_9  and  C_14 
REMARK    6  A    between atoms: C_9  and  C_22 
REMARK    7  A    between atoms: C_13  and  C_17 
REMARK    8  A    between atoms: C_16  and  O_23 
ROOT
HETATM    1  C   UNL     1      -1.021  15.385  -1.310  1.00  0.00     0.015 C 
HETATM    2  C   UNL     1      -0.499  15.614  -3.801  1.00  0.00    -0.056 C 
HETATM    3  C   UNL     1      -0.711  13.282  -2.721  1.00  0.00     0.039 C 
HETATM    4  C   UNL     1      -0.782  14.796  -2.544  1.00  0.00    -0.052 C 
HETATM    5  C   UNL     1       0.718  15.187  -4.620  1.00  0.00     0.039 C 
HETATM    6  C   UNL     1       0.126  12.741  -3.872  1.00  0.00     0.005 C 
HETATM    7  C   UNL     1       1.117  13.720  -4.515  1.00  0.00     0.005 C 
ENDROOT
BRANCH   1   8
HETATM    8  C   UNL     1      -1.779  15.601  -0.101  1.00  0.00    -0.047 C 
HETATM    9  C   UNL     1      -2.797  16.706  -0.039  1.00  0.00    -0.036 C 
HETATM   10  C   UNL     1      -2.884  17.412   1.258  1.00  0.00     0.080 C 
HETATM   11  C   UNL     1      -3.775  16.947  -1.162  1.00  0.00     0.050 C 
HETATM   12  C   UNL     1      -2.565  16.655   2.471  1.00  0.00     0.079 C 
HETATM   13  C   UNL     1      -2.084  15.302   2.384  1.00  0.00     0.015 C 
HETATM   14  C   UNL     1      -1.562  14.816   1.121  1.00  0.00     0.069 C 
BRANCH  10  15
HETATM   15  C   UNL     1      -3.474  18.812   1.422  1.00  0.00     0.212 C 
HETATM   16  O   UNL     1      -2.957  19.768   0.791  1.00  0.00    -0.644 OA
HETATM   17  O   UNL     1      -4.483  18.952   2.148  1.00  0.00    -0.644 OA
ENDBRANCH  10  15
BRANCH  12  18
HETATM   18  O   UNL     1      -2.524  17.311   3.678  1.00  0.00    -0.360 OA
ATOM     19  HO  UNL     1      -2.076  18.146   3.742  1.00  0.00     0.217 HD
ENDBRANCH  12  18
ENDBRANCH   1   8
BRANCH   2  20
HETATM   20  C   UNL     1      -1.540  16.592  -4.320  1.00  0.00    -0.019 C 
BRANCH  20  21
HETATM   21  C   UNL     1      -2.974  16.174  -4.714  1.00  0.00     0.028 C 
BRANCH  21  22
HETATM   22  C   UNL     1      -3.820  17.407  -5.096  1.00  0.00     0.014 C 
BRANCH  22  23
HETATM   23  C   UNL     1      -3.123  18.719  -4.704  1.00  0.00     0.113 C 
BRANCH  23  24
HETATM   24  C   UNL     1      -3.858  19.580  -3.674  1.00  0.00     0.172 C 
HETATM   25  O   UNL     1      -5.107  19.465  -3.637  1.00  0.00    -0.648 OA
HETATM   26  O   UNL     1      -3.267  20.426  -3.004  1.00  0.00    -0.648 OA
ENDBRANCH  23  24
ENDBRANCH  22  23
ENDBRANCH  21  22
ENDBRANCH  20  21
ENDBRANCH   2  20
TORSDOF 8
ENDMDL
