MODEL 1
REMARK VINA RESULT:     -13.0      0.000      0.000
REMARK  0 active torsions:
REMARK  status: ('A' for Active; 'I' for Inactive)
ROOT
HETATM    1  C   UNL     1      15.975  28.031 -14.683  1.00  0.00     0.038 C 
HETATM    2  C   UNL     1      14.807  27.680 -11.412  1.00  0.00     0.001 C 
HETATM    3  C   UNL     1      14.371  23.305 -14.842  1.00  0.00    -0.051 A 
HETATM    4  C   UNL     1      15.960  29.119 -15.770  1.00  0.00     0.175 C 
HETATM    5  C   UNL     1      14.925  25.713 -15.418  1.00  0.00    -0.020 C 
HETATM    6  C   UNL     1      18.600  26.302 -18.108  1.00  0.00     0.001 C 
HETATM    7  C   UNL     1      17.687  26.254 -19.148  1.00  0.00     0.001 C 
HETATM    8  C   UNL     1      15.440  24.347 -14.966  1.00  0.00     0.050 C 
HETATM    9  C   UNL     1      14.763  28.313 -13.799  1.00  0.00    -0.029 C 
HETATM   10  C   UNL     1      14.610  25.691 -16.924  1.00  0.00     0.050 C 
HETATM   11  C   UNL     1      15.252  28.736 -12.411  1.00  0.00     0.010 C 
HETATM   12  C   UNL     1      16.335  26.079 -18.870  1.00  0.00     0.007 C 
HETATM   13  C   UNL     1      13.789  20.989 -14.667  1.00  0.00     0.001 A 
HETATM   14  C   UNL     1      14.085  26.578 -12.161  1.00  0.00     0.006 C 
HETATM   15  C   UNL     1      15.919  26.100 -17.544  1.00  0.00    -0.051 C 
HETATM   16  F   UNL     1      17.261  29.662 -15.758  1.00  0.00    -0.249 F 
HETATM   17  C   UNL     1      13.818  27.147 -13.549  1.00  0.00    -0.000 C 
HETATM   18  C   UNL     1      12.455  21.337 -14.504  1.00  0.00     0.001 A 
HETATM   19  C   UNL     1      14.985  30.187 -15.312  1.00  0.00     0.038 C 
HETATM   20  C   UNL     1      13.698  26.115 -14.624  1.00  0.00     0.004 C 
HETATM   21  C   UNL     1      14.758  21.973 -14.834  1.00  0.00     0.007 A 
HETATM   22  C   UNL     1      16.133  26.633 -15.238  1.00  0.00     0.036 C 
HETATM   23  C   UNL     1      13.036  23.662 -14.644  1.00  0.00    -0.051 A 
HETATM   24  C   UNL     1      12.072  22.669 -14.530  1.00  0.00     0.007 A 
HETATM   25  C   UNL     1      12.590  25.090 -14.480  1.00  0.00     0.045 C 
HETATM   26  C   UNL     1      16.810  26.477 -16.564  1.00  0.00    -0.046 C 
HETATM   27  C   UNL     1      13.970  29.439 -14.466  1.00  0.00     0.013 C 
HETATM   28  C   UNL     1      18.174  26.483 -16.799  1.00  0.00     0.008 C 
ENDROOT
TORSDOF 0
ENDMDL
MODEL 2
REMARK VINA RESULT:     -10.3      1.525      5.257
REMARK  0 active torsions:
REMARK  status: ('A' for Active; 'I' for Inactive)
ROOT
HETATM    1  C   UNL     1      14.022  27.082 -13.540  1.00  0.00     0.038 C 
HETATM    2  C   UNL     1      15.030  30.279 -14.514  1.00  0.00     0.001 C 
HETATM    3  C   UNL     1      15.922  26.054 -18.041  1.00  0.00    -0.051 A 
HETATM    4  C   UNL     1      14.029  26.248 -12.248  1.00  0.00     0.175 C 
HETATM    5  C   UNL     1      15.252  25.953 -15.596  1.00  0.00    -0.020 C 
HETATM    6  C   UNL     1      11.699  23.207 -14.636  1.00  0.00     0.001 C 
HETATM    7  C   UNL     1      12.668  22.243 -14.418  1.00  0.00     0.001 C 
HETATM    8  C   UNL     1      14.799  26.077 -17.050  1.00  0.00     0.050 C 
HETATM    9  C   UNL     1      15.164  28.083 -13.391  1.00  0.00    -0.029 C 
HETATM   10  C   UNL     1      15.649  24.500 -15.285  1.00  0.00     0.050 C 
HETATM   11  C   UNL     1      14.576  29.494 -13.294  1.00  0.00     0.010 C 
HETATM   12  C   UNL     1      14.012  22.567 -14.581  1.00  0.00     0.007 C 
HETATM   13  C   UNL     1      16.636  25.782 -20.311  1.00  0.00     0.001 A 
HETATM   14  C   UNL     1      15.859  29.368 -15.396  1.00  0.00     0.006 C 
HETATM   15  C   UNL     1      14.353  23.893 -14.820  1.00  0.00    -0.051 C 
HETATM   16  F   UNL     1      12.698  26.285 -11.784  1.00  0.00    -0.249 F 
HETATM   17  C   UNL     1      16.165  28.148 -14.535  1.00  0.00    -0.000 C 
HETATM   18  C   UNL     1      17.935  26.102 -19.940  1.00  0.00     0.001 A 
HETATM   19  C   UNL     1      14.909  26.980 -11.254  1.00  0.00     0.038 C 
HETATM   20  C   UNL     1      16.407  26.893 -15.311  1.00  0.00     0.004 C 
HETATM   21  C   UNL     1      15.618  25.760 -19.362  1.00  0.00     0.007 A 
HETATM   22  C   UNL     1      13.981  26.241 -14.796  1.00  0.00     0.036 C 
HETATM   23  C   UNL     1      17.220  26.409 -17.669  1.00  0.00    -0.051 A 
HETATM   24  C   UNL     1      18.236  26.378 -18.615  1.00  0.00     0.007 A 
HETATM   25  C   UNL     1      17.566  26.894 -16.287  1.00  0.00     0.045 C 
HETATM   26  C   UNL     1      13.388  24.869 -14.702  1.00  0.00    -0.046 C 
HETATM   27  C   UNL     1      15.921  27.717 -12.112  1.00  0.00     0.013 C 
HETATM   28  C   UNL     1      12.041  24.551 -14.713  1.00  0.00     0.008 C 
ENDROOT
TORSDOF 0
ENDMDL
