REMARK  7 active torsions:
REMARK  status: ('A' for Active; 'I' for Inactive)
REMARK    1  A    between atoms: C_3  and  C_5 
REMARK    2  A    between atoms: C_5  and  O_17 
REMARK    3  A    between atoms: C_5  and  C_29 
REMARK    4  A    between atoms: C_5  and  C_30 
REMARK    5  A    between atoms: C_7  and  O_11 
REMARK    6  A    between atoms: C_7  and  O_15 
REMARK    7  A    between atoms: O_13  and  C_19 
ROOT
HETATM    1  C   UNL     1      15.177  24.943 -14.782  1.00  0.00     0.117 C 
ENDROOT
BRANCH   1   2
HETATM    2  C   UNL     1      14.156  25.946 -14.206  1.00  0.00     0.063 C 
HETATM    3  C   UNL     1      14.193  25.964 -12.670  1.00  0.00     0.018 C 
HETATM    4  C   UNL     1      14.694  27.330 -12.230  1.00  0.00     0.040 C 
HETATM    5  C   UNL     1      14.892  28.091 -13.501  1.00  0.00    -0.051 C 
HETATM    6  C   UNL     1      14.406  27.378 -14.572  1.00  0.00    -0.042 C 
HETATM    7  C   UNL     1      15.375  29.377 -13.672  1.00  0.00     0.010 C 
HETATM    8  C   UNL     1      14.153  28.017 -15.769  1.00  0.00     0.044 C 
HETATM    9  C   UNL     1      14.554  29.329 -15.935  1.00  0.00     0.066 C 
HETATM   10  C   UNL     1      15.158  30.013 -14.887  1.00  0.00     0.037 C 
BRANCH   9  11
HETATM   11  O   UNL     1      14.331  29.931 -17.134  1.00  0.00    -0.361 OA
ATOM     12  HO  UNL     1      13.918  29.463 -17.850  1.00  0.00     0.217 HD
ENDBRANCH   9  11
ENDBRANCH   1   2
BRANCH   1  13
HETATM   13  O   UNL     1      16.204  24.653 -13.831  1.00  0.00    -0.380 OA
ATOM     14  HO  UNL     1      16.833  24.035 -14.186  1.00  0.00     0.211 HD
ENDBRANCH   1  13
BRANCH   1  15
HETATM   15  C   UNL     1      15.992  25.432 -15.951  1.00  0.00    -0.034 A 
HETATM   16  C   UNL     1      17.390  25.957 -15.701  1.00  0.00     0.042 A 
HETATM   17  C   UNL     1      17.958  26.236 -17.089  1.00  0.00     0.039 A 
HETATM   18  C   UNL     1      16.845  25.986 -17.965  1.00  0.00    -0.073 A 
HETATM   19  C   UNL     1      16.630  26.052 -19.437  1.00  0.00     0.035 A 
HETATM   20  C   UNL     1      15.734  25.562 -17.276  1.00  0.00    -0.050 A 
HETATM   21  C   UNL     1      15.156  25.724 -19.587  1.00  0.00     0.009 A 
HETATM   22  C   UNL     1      14.576  25.435 -18.207  1.00  0.00     0.039 A 
ENDBRANCH   1  15
BRANCH   1  23
HETATM   23  C   UNL     1      14.457  23.644 -14.970  1.00  0.00    -0.019 C 
HETATM   24  C   UNL     1      15.018  22.529 -15.590  1.00  0.00     0.012 C 
HETATM   25  C   UNL     1      14.466  21.277 -15.388  1.00  0.00     0.045 C 
HETATM   26  C   UNL     1      13.436  21.086 -14.342  1.00  0.00     0.199 C 
HETATM   27  C   UNL     1      12.817  22.302 -13.895  1.00  0.00     0.045 C 
HETATM   28  C   UNL     1      13.191  23.527 -14.404  1.00  0.00     0.012 C 
BRANCH  26  29
HETATM   29  O   UNL     1      12.445  20.226 -14.859  1.00  0.00    -0.359 OA
ATOM     30  HO  UNL     1      12.061  20.650 -15.618  1.00  0.00     0.213 HD
ENDBRANCH  26  29
BRANCH  26  31
HETATM   31  O   UNL     1      14.005  20.458 -13.218  1.00  0.00    -0.359 OA
ATOM     32  HO  UNL     1      14.673  21.037 -12.870  1.00  0.00     0.213 HD
ENDBRANCH  26  31
ENDBRANCH   1  23
TORSDOF 7
