REMARK  2 active torsions:
REMARK  status: ('A' for Active; 'I' for Inactive)
REMARK    1  A    between atoms: C_9  and  C_14 
REMARK    2  A    between atoms: C_23  and  O_29 
ROOT
HETATM    1  C   UNL     1     -23.819  23.303 -21.287  1.00  0.00    -0.016 C 
HETATM    2  C   UNL     1     -24.747  23.927 -23.387  1.00  0.00     0.090 C 
HETATM    3  C   UNL     1     -18.602  19.531 -22.383  1.00  0.00     0.000 C 
HETATM    4  C   UNL     1     -22.747  23.514 -22.136  1.00  0.00     0.086 C 
HETATM    5  C   UNL     1     -22.194  21.320 -18.763  1.00  0.00     0.015 C 
HETATM    6  C   UNL     1     -20.419  21.500 -20.847  1.00  0.00     0.002 C 
HETATM    7  C   UNL     1     -19.179  21.746 -21.444  1.00  0.00     0.014 C 
HETATM    8  C   UNL     1     -24.350  23.349 -18.872  1.00  0.00     0.022 C 
HETATM    9  C   UNL     1     -22.345  22.330 -19.722  1.00  0.00     0.002 C 
HETATM   10  C   UNL     1     -19.668  18.781 -21.980  1.00  0.00     0.001 C 
HETATM   11  C   UNL     1     -23.576  22.970 -19.955  1.00  0.00    -0.014 C 
HETATM   12  C   UNL     1     -21.327  22.555 -20.668  1.00  0.00     0.055 C 
HETATM   13  C   UNL     1     -18.409  20.889 -22.206  1.00  0.00     0.001 C 
HETATM   14  N   UNL     1     -21.486  23.433 -21.689  1.00  0.00    -0.351 N 
ATOM     15  HN  UNL     1     -20.719  23.980 -22.080  1.00  0.00     0.166 HD
HETATM   16  C   UNL     1     -20.824  20.243 -20.382  1.00  0.00    -0.024 C 
HETATM   17  C   UNL     1     -23.250  23.645 -23.487  1.00  0.00     0.176 C 
HETATM   18  C   UNL     1     -21.486  20.186 -19.147  1.00  0.00     0.013 C 
HETATM   19  O   UNL     1     -22.624  23.523 -24.524  1.00  0.00    -0.291 OA
HETATM   20  C   UNL     1     -25.136  23.428 -22.007  1.00  0.00     0.049 C 
HETATM   21  C   UNL     1     -20.735  19.104 -21.177  1.00  0.00     0.012 C 
ENDROOT
BRANCH   8  22
HETATM   22  C   UNL     1     -25.662  23.361 -18.513  1.00  0.00    -0.021 C 
HETATM   23  C   UNL     1     -26.149  24.226 -17.481  1.00  0.00    -0.019 C 
HETATM   24  C   UNL     1     -25.686  25.519 -17.211  1.00  0.00     0.012 C 
HETATM   25  C   UNL     1     -27.232  23.759 -16.777  1.00  0.00    -0.008 C 
HETATM   26  C   UNL     1     -26.151  26.187 -16.074  1.00  0.00     0.001 C 
HETATM   27  C   UNL     1     -27.210  25.655 -15.333  1.00  0.00     0.008 C 
HETATM   28  C   UNL     1     -27.651  24.365 -15.623  1.00  0.00    -0.046 C 
HETATM   29  C   UNL     1     -28.823  23.575 -15.129  1.00  0.00     0.073 C 
HETATM   30  C   UNL     1     -29.197  22.682 -16.333  1.00  0.00     0.157 C 
HETATM   31  C   UNL     1     -27.841  22.432 -17.018  1.00  0.00     0.249 C 
HETATM   32  N   UNL     1     -27.959  22.316 -18.503  1.00  0.00    -0.060 N 
HETATM   33  C   UNL     1     -26.626  22.362 -19.120  1.00  0.00     0.272 C 
ATOM     34  HN2 UNL     1     -28.480  21.484 -18.781  1.00  0.00     0.278 HD
ATOM     35  HN1 UNL     1     -28.585  23.021 -18.893  1.00  0.00     0.278 HD
BRANCH  30  36
HETATM   36  O   UNL     1     -29.678  21.419 -15.870  1.00  0.00    -0.393 OA
ATOM     37  HO  UNL     1     -30.515  21.573 -15.447  1.00  0.00     0.210 HD
ENDBRANCH  30  36
ENDBRANCH   8  22
TORSDOF 2
