REMARK  7 active torsions:
REMARK  status: ('A' for Active; 'I' for Inactive)
REMARK    1  A    between atoms: C_2  and  O_12 
REMARK    2  A    between atoms: O_9  and  P_18 
REMARK    3  A    between atoms: O_15  and  P_18 
REMARK    4  A    between atoms: P_18  and  O_30 
REMARK    5  A    between atoms: P_18  and  N_35 
REMARK    6  A    between atoms: P_18  and  O_38 
REMARK       I    between atoms: N_20  and  C_25 
REMARK    7  A    between atoms: C_24  and  C_29 
REMARK       I    between atoms: C_25  and  N_35 
ROOT
HETATM    1  C   UNL     1     -23.268  21.241 -18.803  1.00  0.00     0.104 C 
HETATM    2  C   UNL     1     -23.544  23.882 -23.918  1.00  0.00     0.123 C 
HETATM    3  C   UNL     1     -21.343  21.698 -21.556  1.00  0.00     0.092 C 
HETATM    4  C   UNL     1     -23.824  22.529 -19.398  1.00  0.00     0.091 C 
HETATM    5  C   UNL     1     -21.777  21.354 -19.178  1.00  0.00     0.116 C 
HETATM    6  N   UNL     1     -21.203  20.156 -19.812  1.00  0.00    -0.384 N 
ATOM      7  HN  UNL     1     -21.213  19.216 -19.417  1.00  0.00     0.160 HD
HETATM    8  C   UNL     1     -25.320  24.791 -22.529  1.00  0.00     0.280 C 
HETATM    9  N   UNL     1     -23.035  22.988 -20.345  1.00  0.00    -0.328 N 
HETATM   10  C   UNL     1     -23.458  23.806 -21.474  1.00  0.00     0.330 C 
HETATM   11  N   UNL     1     -24.935  23.289 -19.126  1.00  0.00    -0.261 N 
HETATM   12  C   UNL     1     -20.664  20.498 -20.995  1.00  0.00     0.035 C 
HETATM   13  C   UNL     1     -25.614  23.164 -17.904  1.00  0.00     0.334 C 
HETATM   14  C   UNL     1     -23.176  22.956 -22.753  1.00  0.00     0.089 C 
HETATM   15  C   UNL     1     -25.056  24.067 -23.869  1.00  0.00     0.062 C 
HETATM   16  N   UNL     1     -24.972  23.744 -21.515  1.00  0.00     0.129 N 
HETATM   17  C   UNL     1     -20.623  23.450 -19.939  1.00  0.00     0.041 C 
HETATM   18  N   UNL     1     -26.858  22.626 -17.998  1.00  0.00    -0.244 N 
ATOM     19  HN  UNL     1     -27.128  22.292 -18.923  1.00  0.00     0.176 HD
HETATM   20  O   UNL     1     -25.129  23.548 -16.857  1.00  0.00    -0.246 OA
HETATM   21  C   UNL     1     -21.697  22.425 -20.274  1.00  0.00     0.058 C 
HETATM   22  C   UNL     1     -25.450  24.166 -20.183  1.00  0.00     0.410 C 
ENDROOT
BRANCH  18  23
HETATM   23  P   UNL     1     -28.013  22.438 -16.785  1.00  0.00     0.364 P 
BRANCH  23  24
HETATM   24  O   UNL     1     -29.296  22.669 -17.534  1.00  0.00    -0.307 OA
ATOM     25  HO  UNL     1     -29.486  21.988 -18.168  1.00  0.00     0.222 HD
ENDBRANCH  23  24
BRANCH  23  26
HETATM   26  O   UNL     1     -27.709  23.528 -15.770  1.00  0.00    -0.307 OA
ATOM     27  HO  UNL     1     -26.898  23.382 -15.297  1.00  0.00     0.222 HD
ENDBRANCH  23  26
BRANCH  23  28
HETATM   28  O   UNL     1     -27.704  21.061 -16.309  1.00  0.00    -0.307 OA
ATOM     29  HO  UNL     1     -26.893  20.915 -15.836  1.00  0.00     0.222 HD
ENDBRANCH  23  28
BRANCH  23  30
HETATM   30  O   UNL     1     -29.225  22.145 -15.627  1.00  0.00    -0.307 OA
ATOM     31  HO  UNL     1     -28.414  21.999 -15.154  1.00  0.00     0.222 HD
ENDBRANCH  23  30
ENDBRANCH  18  23
BRANCH  12  32
HETATM   32  C   UNL     1     -19.428  20.124 -21.672  1.00  0.00     0.054 C 
HETATM   33  N   UNL     1     -19.269  18.843 -22.063  1.00  0.00    -0.363 N 
HETATM   34  C   UNL     1     -18.673  18.607 -23.247  1.00  0.00     0.114 C 
ATOM     35  HN  UNL     1     -19.592  18.073 -21.477  1.00  0.00     0.165 HD
HETATM   36  C   UNL     1     -18.007  19.626 -23.939  1.00  0.00     0.061 C 
HETATM   37  C   UNL     1     -17.850  20.857 -23.306  1.00  0.00     0.030 C 
HETATM   38  N   UNL     1     -17.592  19.470 -25.246  1.00  0.00    -0.101 NA
HETATM   39  C   UNL     1     -18.541  21.106 -22.127  1.00  0.00     0.033 C 
ENDBRANCH  12  32
BRANCH   2  40
HETATM   40  O   UNL     1     -23.186  23.221 -25.128  1.00  0.00    -0.395 OA
ATOM     41  HO  UNL     1     -23.414  23.795 -25.850  1.00  0.00     0.210 HD
ENDBRANCH   2  40
TORSDOF 7
