MODEL 1
REMARK VINA RESULT:     -10.7      0.000      0.000
REMARK  4 active torsions:
REMARK  status: ('A' for Active; 'I' for Inactive)
REMARK       I    between atoms: N_5  and  C_17 
REMARK    1  A    between atoms: N_5  and  C_30 
REMARK    2  A    between atoms: C_8  and  C_16 
REMARK       I    between atoms: C_8  and  N_23 
REMARK    3  A    between atoms: C_11  and  N_20 
REMARK       I    between atoms: C_17  and  N_23 
REMARK    4  A    between atoms: O_18  and  C_22 
ROOT
HETATM    1  N   UNL     1      83.677  13.442  18.665  1.00  0.00    -0.309 N 
ATOM      2  HN  UNL     1      83.877  14.401  18.384  1.00  0.00     0.170 HD
HETATM    3  C   UNL     1      80.996  11.338  19.823  1.00  0.00     0.251 C 
HETATM    4  O   UNL     1      81.545  13.380  17.895  1.00  0.00    -0.247 OA
HETATM    5  C   UNL     1      82.387  13.001  18.703  1.00  0.00     0.327 C 
HETATM    6  N   UNL     1      82.094  12.119  19.715  1.00  0.00    -0.277 N 
ATOM      7  HN  UNL     1      82.780  12.045  20.466  1.00  0.00     0.173 HD
HETATM    8  O   UNL     1      80.299  11.038  18.868  1.00  0.00    -0.271 OA
ENDROOT
BRANCH   3   9
HETATM    9  C   UNL     1      80.620  10.927  21.238  1.00  0.00     0.206 C 
HETATM   10  N   UNL     1      81.575   9.998  21.835  1.00  0.00    -0.365 N 
HETATM   11  C   UNL     1      82.584  10.719  22.627  1.00  0.00     0.127 C 
HETATM   12  C   UNL     1      81.880  12.001  23.033  1.00  0.00     0.054 C 
HETATM   13  C   UNL     1      80.678  12.165  22.132  1.00  0.00     0.151 C 
BRANCH  10  14
HETATM   14  C   UNL     1      81.226   8.747  22.285  1.00  0.00     0.030 C 
HETATM   15  C   UNL     1      80.555   7.835  21.470  1.00  0.00     0.029 C 
HETATM   16  C   UNL     1      80.499   6.467  21.646  1.00  0.00     0.002 C 
HETATM   17  C   UNL     1      81.223   5.639  22.461  1.00  0.00     0.000 C 
HETATM   18  C   UNL     1      82.027   5.990  23.517  1.00  0.00     0.000 C 
HETATM   19  C   UNL     1      82.119   7.257  24.074  1.00  0.00     0.002 C 
HETATM   20  C   UNL     1      81.530   8.414  23.611  1.00  0.00     0.029 C 
ENDBRANCH  10  14
BRANCH  13  21
HETATM   21  O   UNL     1      79.458  12.356  22.838  1.00  0.00    -0.393 OA
ATOM     22  HO  UNL     1      79.572  12.736  23.701  1.00  0.00     0.210 HD
ENDBRANCH  13  21
ENDBRANCH   3   9
BRANCH   1  23
HETATM   23  C   UNL     1      84.720  12.590  19.010  1.00  0.00     0.037 C 
HETATM   24  C   UNL     1      85.061  12.463  20.363  1.00  0.00     0.031 C 
HETATM   25  C   UNL     1      85.862  11.569  21.019  1.00  0.00     0.019 C 
HETATM   26  C   UNL     1      86.731  10.643  20.460  1.00  0.00     0.087 C 
HETATM   27  N   UNL     1      87.030  10.512  19.156  1.00  0.00    -0.375 N 
HETATM   28  C   UNL     1      86.480  11.100  18.085  1.00  0.00     0.090 C 
ATOM     29  HN  UNL     1      87.791   9.866  18.950  1.00  0.00     0.164 HD
HETATM   30  C   UNL     1      85.364  11.884  17.963  1.00  0.00     0.046 C 
ENDBRANCH   1  23
TORSDOF 4
ENDMDL
MODEL 2
REMARK VINA RESULT:     -10.6      0.642      1.318
REMARK  4 active torsions:
REMARK  status: ('A' for Active; 'I' for Inactive)
REMARK       I    between atoms: N_5  and  C_17 
REMARK    1  A    between atoms: N_5  and  C_30 
REMARK    2  A    between atoms: C_8  and  C_16 
REMARK       I    between atoms: C_8  and  N_23 
REMARK    3  A    between atoms: C_11  and  N_20 
REMARK       I    between atoms: C_17  and  N_23 
REMARK    4  A    between atoms: O_18  and  C_22 
ROOT
HETATM    1  N   UNL     1      83.980  13.516  18.714  1.00  0.00    -0.309 N 
ATOM      2  HN  UNL     1      84.223  14.499  18.587  1.00  0.00     0.170 HD
HETATM    3  C   UNL     1      81.171  11.360  19.355  1.00  0.00     0.251 C 
HETATM    4  O   UNL     1      81.915  13.634  17.784  1.00  0.00    -0.247 OA
HETATM    5  C   UNL     1      82.682  13.117  18.591  1.00  0.00     0.327 C 
HETATM    6  N   UNL     1      82.290  12.112  19.442  1.00  0.00    -0.277 N 
ATOM      7  HN  UNL     1      82.913  11.911  20.225  1.00  0.00     0.173 HD
HETATM    8  O   UNL     1      80.545  11.220  18.318  1.00  0.00    -0.271 OA
ENDROOT
BRANCH   3   9
HETATM    9  C   UNL     1      80.675  10.768  20.665  1.00  0.00     0.206 C 
HETATM   10  N   UNL     1      81.756  10.276  21.515  1.00  0.00    -0.365 N 
HETATM   11  C   UNL     1      82.176  11.306  22.478  1.00  0.00     0.127 C 
HETATM   12  C   UNL     1      80.942  12.175  22.643  1.00  0.00     0.054 C 
HETATM   13  C   UNL     1      80.020  11.882  21.481  1.00  0.00     0.151 C 
BRANCH  10  14
HETATM   14  C   UNL     1      81.846   8.972  21.938  1.00  0.00     0.030 C 
HETATM   15  C   UNL     1      82.419   8.637  23.165  1.00  0.00     0.029 C 
HETATM   16  C   UNL     1      82.225   7.463  23.865  1.00  0.00     0.002 C 
HETATM   17  C   UNL     1      81.303   6.466  23.701  1.00  0.00     0.000 C 
HETATM   18  C   UNL     1      80.483   6.246  22.622  1.00  0.00     0.000 C 
HETATM   19  C   UNL     1      80.561   6.903  21.403  1.00  0.00     0.002 C 
HETATM   20  C   UNL     1      81.377   7.968  21.083  1.00  0.00     0.029 C 
ENDBRANCH  10  14
BRANCH  13  21
HETATM   21  O   UNL     1      78.699  11.531  21.876  1.00  0.00    -0.393 OA
ATOM     22  HO  UNL     1      78.470  11.831  22.748  1.00  0.00     0.210 HD
ENDBRANCH  13  21
ENDBRANCH   3   9
BRANCH   1  23
HETATM   23  C   UNL     1      84.974  12.590  19.011  1.00  0.00     0.037 C 
HETATM   24  C   UNL     1      85.252  12.316  20.357  1.00  0.00     0.031 C 
HETATM   25  C   UNL     1      85.989  11.328  20.950  1.00  0.00     0.019 C 
HETATM   26  C   UNL     1      86.844  10.426  20.334  1.00  0.00     0.087 C 
HETATM   27  N   UNL     1      87.192  10.411  19.036  1.00  0.00    -0.375 N 
HETATM   28  C   UNL     1      86.712  11.125  18.009  1.00  0.00     0.090 C 
ATOM     29  HN  UNL     1      87.936   9.757  18.796  1.00  0.00     0.164 HD
HETATM   30  C   UNL     1      85.634  11.964  17.923  1.00  0.00     0.046 C 
ENDBRANCH   1  23
TORSDOF 4
ENDMDL
MODEL 3
REMARK VINA RESULT:      -9.4      1.288      1.931
REMARK  4 active torsions:
REMARK  status: ('A' for Active; 'I' for Inactive)
REMARK       I    between atoms: N_5  and  C_17 
REMARK    1  A    between atoms: N_5  and  C_30 
REMARK    2  A    between atoms: C_8  and  C_16 
REMARK       I    between atoms: C_8  and  N_23 
REMARK    3  A    between atoms: C_11  and  N_20 
REMARK       I    between atoms: C_17  and  N_23 
REMARK    4  A    between atoms: O_18  and  C_22 
ROOT
HETATM    1  N   UNL     1      83.246  13.228  19.616  1.00  0.00    -0.309 N 
ATOM      2  HN  UNL     1      83.292  14.245  19.559  1.00  0.00     0.170 HD
HETATM    3  C   UNL     1      81.211  10.558  20.913  1.00  0.00     0.251 C 
HETATM    4  O   UNL     1      80.986  13.062  19.545  1.00  0.00    -0.247 OA
HETATM    5  C   UNL     1      82.066  12.618  19.922  1.00  0.00     0.327 C 
HETATM    6  N   UNL     1      82.169  11.486  20.693  1.00  0.00    -0.277 N 
ATOM      7  HN  UNL     1      83.068  11.328  21.150  1.00  0.00     0.173 HD
HETATM    8  O   UNL     1      80.254  10.405  20.172  1.00  0.00    -0.271 OA
ENDROOT
BRANCH   3   9
HETATM    9  C   UNL     1      81.344   9.770  22.206  1.00  0.00     0.206 C 
HETATM   10  N   UNL     1      82.058   8.507  22.033  1.00  0.00    -0.365 N 
HETATM   11  C   UNL     1      83.490   8.669  22.328  1.00  0.00     0.127 C 
HETATM   12  C   UNL     1      83.535   9.847  23.283  1.00  0.00     0.054 C 
HETATM   13  C   UNL     1      82.214  10.572  23.174  1.00  0.00     0.151 C 
BRANCH  10  14
HETATM   14  C   UNL     1      81.507   7.285  22.336  1.00  0.00     0.030 C 
HETATM   15  C   UNL     1      81.074   6.409  21.341  1.00  0.00     0.029 C 
HETATM   16  C   UNL     1      80.880   5.048  21.475  1.00  0.00     0.002 C 
HETATM   17  C   UNL     1      81.256   4.186  22.469  1.00  0.00     0.000 C 
HETATM   18  C   UNL     1      81.704   4.496  23.729  1.00  0.00     0.000 C 
HETATM   19  C   UNL     1      81.692   5.760  24.300  1.00  0.00     0.002 C 
HETATM   20  C   UNL     1      81.354   6.947  23.686  1.00  0.00     0.029 C 
ENDBRANCH  10  14
BRANCH  13  21
HETATM   21  O   UNL     1      81.562  10.763  24.424  1.00  0.00    -0.393 OA
ATOM     22  HO  UNL     1      80.615  10.803  24.358  1.00  0.00     0.210 HD
ENDBRANCH  13  21
ENDBRANCH   3   9
BRANCH   1  23
HETATM   23  C   UNL     1      84.388  12.469  19.379  1.00  0.00     0.037 C 
HETATM   24  C   UNL     1      84.674  12.084  18.063  1.00  0.00     0.031 C 
HETATM   25  C   UNL     1      85.797  11.545  17.497  1.00  0.00     0.019 C 
HETATM   26  C   UNL     1      86.914  11.043  18.148  1.00  0.00     0.087 C 
HETATM   27  N   UNL     1      87.068  10.895  19.475  1.00  0.00    -0.375 N 
HETATM   28  C   UNL     1      86.293  11.318  20.482  1.00  0.00     0.090 C 
ATOM     29  HN  UNL     1      87.903  10.383  19.758  1.00  0.00     0.164 HD
HETATM   30  C   UNL     1      85.205  12.150  20.493  1.00  0.00     0.046 C 
ENDBRANCH   1  23
TORSDOF 4
ENDMDL
MODEL 4
REMARK VINA RESULT:      -9.2      1.700      2.515
REMARK  4 active torsions:
REMARK  status: ('A' for Active; 'I' for Inactive)
REMARK       I    between atoms: N_5  and  C_17 
REMARK    1  A    between atoms: N_5  and  C_30 
REMARK    2  A    between atoms: C_8  and  C_16 
REMARK       I    between atoms: C_8  and  N_23 
REMARK    3  A    between atoms: C_11  and  N_20 
REMARK       I    between atoms: C_17  and  N_23 
REMARK    4  A    between atoms: O_18  and  C_22 
ROOT
HETATM    1  N   UNL     1      85.216  13.252  19.429  1.00  0.00    -0.309 N 
ATOM      2  HN  UNL     1      85.508  14.163  19.783  1.00  0.00     0.170 HD
HETATM    3  C   UNL     1      82.379  11.546  18.019  1.00  0.00     0.251 C 
HETATM    4  O   UNL     1      83.792  14.029  17.846  1.00  0.00    -0.247 OA
HETATM    5  C   UNL     1      84.105  13.153  18.646  1.00  0.00     0.327 C 
HETATM    6  N   UNL     1      83.354  12.017  18.827  1.00  0.00    -0.277 N 
ATOM      7  HN  UNL     1      83.555  11.468  19.664  1.00  0.00     0.173 HD
HETATM    8  O   UNL     1      82.284  11.859  16.844  1.00  0.00    -0.271 OA
ENDROOT
BRANCH   3   9
HETATM    9  C   UNL     1      81.337  10.666  18.690  1.00  0.00     0.206 C 
HETATM   10  N   UNL     1      81.554  10.520  20.128  1.00  0.00    -0.365 N 
HETATM   11  C   UNL     1      80.774  11.515  20.880  1.00  0.00     0.127 C 
HETATM   12  C   UNL     1      79.610  11.836  19.960  1.00  0.00     0.054 C 
HETATM   13  C   UNL     1      79.977  11.355  18.576  1.00  0.00     0.151 C 
BRANCH  10  14
HETATM   14  C   UNL     1      81.744   9.304  20.739  1.00  0.00     0.030 C 
HETATM   15  C   UNL     1      82.515   9.177  21.894  1.00  0.00     0.029 C 
HETATM   16  C   UNL     1      82.467   8.137  22.801  1.00  0.00     0.002 C 
HETATM   17  C   UNL     1      81.556   7.127  22.955  1.00  0.00     0.000 C 
HETATM   18  C   UNL     1      80.579   6.732  22.076  1.00  0.00     0.000 C 
HETATM   19  C   UNL     1      80.443   7.177  20.769  1.00  0.00     0.002 C 
HETATM   20  C   UNL     1      81.169   8.172  20.149  1.00  0.00     0.029 C 
ENDBRANCH  10  14
BRANCH  13  21
HETATM   21  O   UNL     1      79.005  10.495  17.994  1.00  0.00    -0.393 OA
ATOM     22  HO  UNL     1      78.729  10.764  17.125  1.00  0.00     0.210 HD
ENDBRANCH  13  21
ENDBRANCH   3   9
BRANCH   1  23
HETATM   23  C   UNL     1      85.954  12.117  19.749  1.00  0.00     0.037 C 
HETATM   24  C   UNL     1      85.988  11.695  21.084  1.00  0.00     0.031 C 
HETATM   25  C   UNL     1      86.424  10.533  21.660  1.00  0.00     0.019 C 
HETATM   26  C   UNL     1      87.152   9.515  21.063  1.00  0.00     0.087 C 
HETATM   27  N   UNL     1      87.661   9.519  19.819  1.00  0.00    -0.375 N 
HETATM   28  C   UNL     1      87.477  10.389  18.817  1.00  0.00     0.090 C 
ATOM     29  HN  UNL     1      88.283   8.739  19.604  1.00  0.00     0.164 HD
HETATM   30  C   UNL     1      86.612  11.443  18.689  1.00  0.00     0.046 C 
ENDBRANCH   1  23
TORSDOF 4
ENDMDL
MODEL 5
REMARK VINA RESULT:      -8.9      2.577      6.290
REMARK  4 active torsions:
REMARK  status: ('A' for Active; 'I' for Inactive)
REMARK       I    between atoms: N_5  and  C_17 
REMARK    1  A    between atoms: N_5  and  C_30 
REMARK    2  A    between atoms: C_8  and  C_16 
REMARK       I    between atoms: C_8  and  N_23 
REMARK    3  A    between atoms: C_11  and  N_20 
REMARK       I    between atoms: C_17  and  N_23 
REMARK    4  A    between atoms: O_18  and  C_22 
ROOT
HETATM    1  N   UNL     1      81.357  10.382  23.439  1.00  0.00    -0.309 N 
ATOM      2  HN  UNL     1      80.575  10.864  23.881  1.00  0.00     0.170 HD
HETATM    3  C   UNL     1      84.379  11.006  21.587  1.00  0.00     0.251 C 
HETATM    4  O   UNL     1      82.915  11.978  23.846  1.00  0.00    -0.247 OA
HETATM    5  C   UNL     1      82.495  11.070  23.136  1.00  0.00     0.327 C 
HETATM    6  N   UNL     1      83.125  10.687  21.977  1.00  0.00    -0.277 N 
ATOM      7  HN  UNL     1      82.588  10.098  21.341  1.00  0.00     0.173 HD
HETATM    8  O   UNL     1      85.245  11.366  22.368  1.00  0.00    -0.271 OA
ENDROOT
BRANCH   3   9
HETATM    9  C   UNL     1      84.627  10.983  20.088  1.00  0.00     0.206 C 
HETATM   10  N   UNL     1      83.733  11.871  19.348  1.00  0.00    -0.365 N 
HETATM   11  C   UNL     1      84.358  13.185  19.135  1.00  0.00     0.127 C 
HETATM   12  C   UNL     1      85.847  12.892  19.177  1.00  0.00     0.054 C 
HETATM   13  C   UNL     1      86.026  11.537  19.820  1.00  0.00     0.151 C 
BRANCH  10  14
HETATM   14  C   UNL     1      82.885  11.431  18.360  1.00  0.00     0.030 C 
HETATM   15  C   UNL     1      83.351  10.709  17.261  1.00  0.00     0.029 C 
HETATM   16  C   UNL     1      82.599   9.896  16.437  1.00  0.00     0.002 C 
HETATM   17  C   UNL     1      81.330   9.404  16.582  1.00  0.00     0.000 C 
HETATM   18  C   UNL     1      80.368   9.805  17.477  1.00  0.00     0.000 C 
HETATM   19  C   UNL     1      80.445  10.921  18.296  1.00  0.00     0.002 C 
HETATM   20  C   UNL     1      81.528  11.758  18.462  1.00  0.00     0.029 C 
ENDBRANCH  10  14
BRANCH  13  21
HETATM   21  O   UNL     1      86.804  10.634  19.043  1.00  0.00    -0.393 OA
ATOM     22  HO  UNL     1      86.726   9.728  19.319  1.00  0.00     0.210 HD
ENDBRANCH  13  21
ENDBRANCH   3   9
BRANCH   1  23
HETATM   23  C   UNL     1      81.259   9.025  23.147  1.00  0.00     0.037 C 
HETATM   24  C   UNL     1      80.580   8.639  21.984  1.00  0.00     0.031 C 
HETATM   25  C   UNL     1      80.508   7.440  21.329  1.00  0.00     0.019 C 
HETATM   26  C   UNL     1      80.949   6.204  21.778  1.00  0.00     0.087 C 
HETATM   27  N   UNL     1      81.446   5.925  22.996  1.00  0.00    -0.375 N 
HETATM   28  C   UNL     1      81.783   6.750  23.996  1.00  0.00     0.090 C 
ATOM     29  HN  UNL     1      81.589   4.933  23.187  1.00  0.00     0.164 HD
HETATM   30  C   UNL     1      81.873   8.115  24.044  1.00  0.00     0.046 C 
ENDBRANCH   1  23
TORSDOF 4
ENDMDL
MODEL 6
REMARK VINA RESULT:      -8.7      3.038      6.354
REMARK  4 active torsions:
REMARK  status: ('A' for Active; 'I' for Inactive)
REMARK       I    between atoms: N_5  and  C_17 
REMARK    1  A    between atoms: N_5  and  C_30 
REMARK    2  A    between atoms: C_8  and  C_16 
REMARK       I    between atoms: C_8  and  N_23 
REMARK    3  A    between atoms: C_11  and  N_20 
REMARK       I    between atoms: C_17  and  N_23 
REMARK    4  A    between atoms: O_18  and  C_22 
ROOT
HETATM    1  N   UNL     1      83.649   8.579  23.706  1.00  0.00    -0.309 N 
ATOM      2  HN  UNL     1      83.493   8.757  24.698  1.00  0.00     0.170 HD
HETATM    3  C   UNL     1      85.657   9.661  20.922  1.00  0.00     0.251 C 
HETATM    4  O   UNL     1      85.872   9.024  23.704  1.00  0.00    -0.247 OA
HETATM    5  C   UNL     1      84.798   9.010  23.111  1.00  0.00     0.327 C 
HETATM    6  N   UNL     1      84.665   9.441  21.814  1.00  0.00    -0.277 N 
ATOM      7  HN  UNL     1      83.714   9.615  21.487  1.00  0.00     0.173 HD
HETATM    8  O   UNL     1      86.765   9.161  21.026  1.00  0.00    -0.271 OA
ENDROOT
BRANCH   3   9
HETATM    9  C   UNL     1      85.339  10.657  19.819  1.00  0.00     0.206 C 
HETATM   10  N   UNL     1      83.988  11.204  19.915  1.00  0.00    -0.365 N 
HETATM   11  C   UNL     1      83.987  12.473  20.660  1.00  0.00     0.127 C 
HETATM   12  C   UNL     1      85.391  13.013  20.460  1.00  0.00     0.054 C 
HETATM   13  C   UNL     1      86.256  11.869  19.983  1.00  0.00     0.151 C 
BRANCH  10  14
HETATM   14  C   UNL     1      83.055  11.083  18.913  1.00  0.00     0.030 C 
HETATM   15  C   UNL     1      83.379  10.540  17.671  1.00  0.00     0.029 C 
HETATM   16  C   UNL     1      82.495  10.012  16.751  1.00  0.00     0.002 C 
HETATM   17  C   UNL     1      81.175   9.670  16.875  1.00  0.00     0.000 C 
HETATM   18  C   UNL     1      80.309  10.006  17.885  1.00  0.00     0.000 C 
HETATM   19  C   UNL     1      80.567  10.918  18.898  1.00  0.00     0.002 C 
HETATM   20  C   UNL     1      81.760  11.558  19.157  1.00  0.00     0.029 C 
ENDBRANCH  10  14
BRANCH  13  21
HETATM   21  O   UNL     1      86.966  12.152  18.783  1.00  0.00    -0.393 OA
ATOM     22  HO  UNL     1      87.906  12.036  18.861  1.00  0.00     0.210 HD
ENDBRANCH  13  21
ENDBRANCH   3   9
BRANCH   1  23
HETATM   23  C   UNL     1      82.688   7.899  22.966  1.00  0.00     0.037 C 
HETATM   24  C   UNL     1      81.977   8.603  21.985  1.00  0.00     0.031 C 
HETATM   25  C   UNL     1      81.156   8.178  20.976  1.00  0.00     0.019 C 
HETATM   26  C   UNL     1      80.645   6.904  20.782  1.00  0.00     0.087 C 
HETATM   27  N   UNL     1      80.776   5.854  21.611  1.00  0.00    -0.375 N 
HETATM   28  C   UNL     1      81.530   5.716  22.710  1.00  0.00     0.090 C 
ATOM     29  HN  UNL     1      80.216   5.038  21.367  1.00  0.00     0.164 HD
HETATM   30  C   UNL     1      82.502   6.520  23.241  1.00  0.00     0.046 C 
ENDBRANCH   1  23
TORSDOF 4
ENDMDL
MODEL 7
REMARK VINA RESULT:      -8.6      3.248      6.860
REMARK  4 active torsions:
REMARK  status: ('A' for Active; 'I' for Inactive)
REMARK       I    between atoms: N_5  and  C_17 
REMARK    1  A    between atoms: N_5  and  C_30 
REMARK    2  A    between atoms: C_8  and  C_16 
REMARK       I    between atoms: C_8  and  N_23 
REMARK    3  A    between atoms: C_11  and  N_20 
REMARK       I    between atoms: C_17  and  N_23 
REMARK    4  A    between atoms: O_18  and  C_22 
ROOT
HETATM    1  N   UNL     1      81.538   7.353  24.297  1.00  0.00    -0.309 N 
ATOM      2  HN  UNL     1      80.736   7.599  24.876  1.00  0.00     0.170 HD
HETATM    3  C   UNL     1      84.526   8.758  22.864  1.00  0.00     0.251 C 
HETATM    4  O   UNL     1      83.023   8.743  25.299  1.00  0.00    -0.247 OA
HETATM    5  C   UNL     1      82.643   8.152  24.293  1.00  0.00     0.327 C 
HETATM    6  N   UNL     1      83.288   8.263  23.085  1.00  0.00    -0.277 N 
ATOM      7  HN  UNL     1      82.777   7.934  22.265  1.00  0.00     0.173 HD
HETATM    8  O   UNL     1      85.375   8.834  23.736  1.00  0.00    -0.271 OA
ENDROOT
BRANCH   3   9
HETATM    9  C   UNL     1      84.771   9.313  21.470  1.00  0.00     0.206 C 
HETATM   10  N   UNL     1      83.859  10.398  21.119  1.00  0.00    -0.365 N 
HETATM   11  C   UNL     1      84.457  11.707  21.427  1.00  0.00     0.127 C 
HETATM   12  C   UNL     1      85.951  11.448  21.363  1.00  0.00     0.054 C 
HETATM   13  C   UNL     1      86.158   9.954  21.442  1.00  0.00     0.151 C 
BRANCH  10  14
HETATM   14  C   UNL     1      83.018  10.352  20.032  1.00  0.00     0.030 C 
HETATM   15  C   UNL     1      83.266  11.099  18.881  1.00  0.00     0.029 C 
HETATM   16  C   UNL     1      82.752  10.858  17.622  1.00  0.00     0.002 C 
HETATM   17  C   UNL     1      82.099   9.766  17.117  1.00  0.00     0.000 C 
HETATM   18  C   UNL     1      81.549   8.717  17.812  1.00  0.00     0.000 C 
HETATM   19  C   UNL     1      81.398   8.654  19.189  1.00  0.00     0.002 C 
HETATM   20  C   UNL     1      81.871   9.555  20.120  1.00  0.00     0.029 C 
ENDBRANCH  10  14
BRANCH  13  21
HETATM   21  O   UNL     1      86.953   9.431  20.384  1.00  0.00    -0.393 OA
ATOM     22  HO  UNL     1      86.766   9.821  19.538  1.00  0.00     0.210 HD
ENDBRANCH  13  21
ENDBRANCH   3   9
BRANCH   1  23
HETATM   23  C   UNL     1      81.501   6.204  23.514  1.00  0.00     0.037 C 
HETATM   24  C   UNL     1      81.978   5.006  24.061  1.00  0.00     0.031 C 
HETATM   25  C   UNL     1      81.874   3.708  23.640  1.00  0.00     0.019 C 
HETATM   26  C   UNL     1      81.418   3.252  22.413  1.00  0.00     0.087 C 
HETATM   27  N   UNL     1      81.081   4.007  21.353  1.00  0.00    -0.375 N 
HETATM   28  C   UNL     1      80.948   5.336  21.252  1.00  0.00     0.090 C 
ATOM     29  HN  UNL     1      80.899   3.489  20.494  1.00  0.00     0.164 HD
HETATM   30  C   UNL     1      80.959   6.316  22.208  1.00  0.00     0.046 C 
ENDBRANCH   1  23
TORSDOF 4
ENDMDL
MODEL 8
REMARK VINA RESULT:      -8.3      2.255      6.882
REMARK  4 active torsions:
REMARK  status: ('A' for Active; 'I' for Inactive)
REMARK       I    between atoms: N_5  and  C_17 
REMARK    1  A    between atoms: N_5  and  C_30 
REMARK    2  A    between atoms: C_8  and  C_16 
REMARK       I    between atoms: C_8  and  N_23 
REMARK    3  A    between atoms: C_11  and  N_20 
REMARK       I    between atoms: C_17  and  N_23 
REMARK    4  A    between atoms: O_18  and  C_22 
ROOT
HETATM    1  N   UNL     1      80.756   7.372  24.774  1.00  0.00    -0.309 N 
ATOM      2  HN  UNL     1      80.075   7.170  25.505  1.00  0.00     0.170 HD
HETATM    3  C   UNL     1      82.457  10.110  23.174  1.00  0.00     0.251 C 
HETATM    4  O   UNL     1      81.681   9.187  25.770  1.00  0.00    -0.247 OA
HETATM    5  C   UNL     1      81.380   8.583  24.744  1.00  0.00     0.327 C 
HETATM    6  N   UNL     1      81.633   9.087  23.491  1.00  0.00    -0.277 N 
ATOM      7  HN  UNL     1      81.146   8.638  22.715  1.00  0.00     0.173 HD
HETATM    8  O   UNL     1      83.360  10.484  23.903  1.00  0.00    -0.271 OA
ENDROOT
BRANCH   3   9
HETATM    9  C   UNL     1      82.128  10.842  21.883  1.00  0.00     0.206 C 
HETATM   10  N   UNL     1      82.922  10.379  20.747  1.00  0.00    -0.365 N 
HETATM   11  C   UNL     1      82.205   9.337  19.996  1.00  0.00     0.127 C 
HETATM   12  C   UNL     1      80.743   9.620  20.286  1.00  0.00     0.054 C 
HETATM   13  C   UNL     1      80.685  10.519  21.498  1.00  0.00     0.151 C 
BRANCH  10  14
HETATM   14  C   UNL     1      83.740  11.205  20.015  1.00  0.00     0.030 C 
HETATM   15  C   UNL     1      84.766  11.938  20.612  1.00  0.00     0.029 C 
HETATM   16  C   UNL     1      85.868  12.474  19.976  1.00  0.00     0.002 C 
HETATM   17  C   UNL     1      86.368  12.256  18.720  1.00  0.00     0.000 C 
HETATM   18  C   UNL     1      85.751  11.636  17.663  1.00  0.00     0.000 C 
HETATM   19  C   UNL     1      84.416  11.263  17.615  1.00  0.00     0.002 C 
HETATM   20  C   UNL     1      83.497  11.326  18.642  1.00  0.00     0.029 C 
ENDBRANCH  10  14
BRANCH  13  21
HETATM   21  O   UNL     1      79.923  11.704  21.294  1.00  0.00    -0.393 OA
ATOM     22  HO  UNL     1      79.716  12.167  22.098  1.00  0.00     0.210 HD
ENDBRANCH  13  21
ENDBRANCH   3   9
BRANCH   1  23
HETATM   23  C   UNL     1      81.044   6.409  23.812  1.00  0.00     0.037 C 
HETATM   24  C   UNL     1      81.816   5.301  24.184  1.00  0.00     0.031 C 
HETATM   25  C   UNL     1      82.072   4.117  23.549  1.00  0.00     0.019 C 
HETATM   26  C   UNL     1      81.779   3.781  22.236  1.00  0.00     0.087 C 
HETATM   27  N   UNL     1      81.272   4.597  21.295  1.00  0.00    -0.375 N 
HETATM   28  C   UNL     1      80.789   5.841  21.407  1.00  0.00     0.090 C 
ATOM     29  HN  UNL     1      81.253   4.209  20.352  1.00  0.00     0.164 HD
HETATM   30  C   UNL     1      80.518   6.605  22.510  1.00  0.00     0.046 C 
ENDBRANCH   1  23
TORSDOF 4
ENDMDL
MODEL 9
REMARK VINA RESULT:      -8.3      1.650      5.799
REMARK  4 active torsions:
REMARK  status: ('A' for Active; 'I' for Inactive)
REMARK       I    between atoms: N_5  and  C_17 
REMARK    1  A    between atoms: N_5  and  C_30 
REMARK    2  A    between atoms: C_8  and  C_16 
REMARK       I    between atoms: C_8  and  N_23 
REMARK    3  A    between atoms: C_11  and  N_20 
REMARK       I    between atoms: C_17  and  N_23 
REMARK    4  A    between atoms: O_18  and  C_22 
ROOT
HETATM    1  N   UNL     1      79.610   9.863  21.448  1.00  0.00    -0.309 N 
ATOM      2  HN  UNL     1      78.752   9.346  21.253  1.00  0.00     0.170 HD
HETATM    3  C   UNL     1      81.526  12.690  20.313  1.00  0.00     0.251 C 
HETATM    4  O   UNL     1      78.827  11.907  20.856  1.00  0.00    -0.247 OA
HETATM    5  C   UNL     1      79.768  11.125  20.958  1.00  0.00     0.327 C 
HETATM    6  N   UNL     1      81.045  11.454  20.573  1.00  0.00    -0.277 N 
ATOM      7  HN  UNL     1      81.703  10.681  20.473  1.00  0.00     0.173 HD
HETATM    8  O   UNL     1      81.002  13.708  20.735  1.00  0.00    -0.271 OA
ENDROOT
BRANCH   3   9
HETATM    9  C   UNL     1      82.718  12.746  19.371  1.00  0.00     0.206 C 
HETATM   10  N   UNL     1      83.416  11.468  19.258  1.00  0.00    -0.365 N 
HETATM   11  C   UNL     1      82.916  10.697  18.108  1.00  0.00     0.127 C 
HETATM   12  C   UNL     1      82.382  11.757  17.163  1.00  0.00     0.054 C 
HETATM   13  C   UNL     1      82.205  13.030  17.959  1.00  0.00     0.151 C 
BRANCH  10  14
HETATM   14  C   UNL     1      84.745  11.307  19.569  1.00  0.00     0.030 C 
HETATM   15  C   UNL     1      85.154  10.848  20.821  1.00  0.00     0.029 C 
HETATM   16  C   UNL     1      86.376  10.283  21.127  1.00  0.00     0.002 C 
HETATM   17  C   UNL     1      87.375   9.819  20.315  1.00  0.00     0.000 C 
HETATM   18  C   UNL     1      87.533  10.032  18.968  1.00  0.00     0.000 C 
HETATM   19  C   UNL     1      86.792  10.919  18.200  1.00  0.00     0.002 C 
HETATM   20  C   UNL     1      85.695  11.652  18.601  1.00  0.00     0.029 C 
ENDBRANCH  10  14
BRANCH  13  21
HETATM   21  O   UNL     1      82.857  14.157  17.385  1.00  0.00    -0.393 OA
ATOM     22  HO  UNL     1      82.785  14.946  17.910  1.00  0.00     0.210 HD
ENDBRANCH  13  21
ENDBRANCH   3   9
BRANCH   1  23
HETATM   23  C   UNL     1      80.613   9.275  22.211  1.00  0.00     0.037 C 
HETATM   24  C   UNL     1      81.340  10.083  23.096  1.00  0.00     0.031 C 
HETATM   25  C   UNL     1      82.206   9.772  24.109  1.00  0.00     0.019 C 
HETATM   26  C   UNL     1      82.756   8.532  24.399  1.00  0.00     0.087 C 
HETATM   27  N   UNL     1      82.623   7.407  23.676  1.00  0.00    -0.375 N 
HETATM   28  C   UNL     1      81.834   7.151  22.623  1.00  0.00     0.090 C 
ATOM     29  HN  UNL     1      83.211   6.630  23.973  1.00  0.00     0.164 HD
HETATM   30  C   UNL     1      80.824   7.882  22.057  1.00  0.00     0.046 C 
ENDBRANCH   1  23
TORSDOF 4
ENDMDL
