MODEL 1
REMARK VINA RESULT:     -14.8      0.000      0.000
REMARK  2 active torsions:
REMARK  status: ('A' for Active; 'I' for Inactive)
REMARK    1  A    between atoms: C_19  and  N_28 
REMARK    2  A    between atoms: N_28  and  C_31 
ROOT
HETATM    1  C   UNL     1     140.975 -29.316  71.310  1.00  0.00     0.026 C 
HETATM    2  C   UNL     1     141.920 -31.118  74.398  1.00  0.00     0.012 C 
HETATM    3  C   UNL     1     144.490 -25.511  71.022  1.00  0.00     0.016 C 
HETATM    4  C   UNL     1     142.202 -26.152  70.552  1.00  0.00    -0.021 C 
HETATM    5  C   UNL     1     141.072 -26.922  70.855  1.00  0.00     0.026 C 
HETATM    6  C   UNL     1     144.671 -25.189  69.679  1.00  0.00     0.001 C 
HETATM    7  C   UNL     1     142.185 -32.576  72.489  1.00  0.00     0.001 C 
HETATM    8  C   UNL     1     143.594 -25.235  68.797  1.00  0.00     0.001 C 
HETATM    9  C   UNL     1     141.485 -27.774  73.104  1.00  0.00     0.044 C 
HETATM   10  C   UNL     1     141.251 -30.375  72.186  1.00  0.00    -0.025 C 
HETATM   11  C   UNL     1     143.227 -25.887  71.496  1.00  0.00     0.018 C 
HETATM   12  C   UNL     1     143.030 -25.952  72.954  1.00  0.00     0.118 C 
HETATM   13  C   UNL     1     142.351 -25.687  69.238  1.00  0.00     0.012 C 
HETATM   14  C   UNL     1     141.564 -31.642  71.673  1.00  0.00     0.012 C 
HETATM   15  C   UNL     1     142.340 -32.330  73.852  1.00  0.00     0.001 C 
HETATM   16  C   UNL     1     141.441 -30.107  73.563  1.00  0.00    -0.024 C 
HETATM   17  C   UNL     1     141.248 -28.808  74.028  1.00  0.00     0.042 C 
HETATM   18  N   UNL     1     142.030 -26.603  73.518  1.00  0.00    -0.341 N 
ATOM     19  HN  UNL     1     141.625 -26.182  74.354  1.00  0.00     0.167 HD
HETATM   20  C   UNL     1     141.144 -27.994  71.755  1.00  0.00    -0.008 C 
ENDROOT
BRANCH  12  21
HETATM   21  N   UNL     1     143.874 -25.256  73.791  1.00  0.00    -0.328 N 
ATOM     22  HN  UNL     1     144.280 -24.378  73.467  1.00  0.00     0.169 HD
BRANCH  21  23
HETATM   23  C   UNL     1     144.191 -25.719  75.069  1.00  0.00     0.107 C 
HETATM   24  N   UNL     1     144.721 -26.961  75.174  1.00  0.00    -0.351 N 
HETATM   25  C   UNL     1     145.390 -27.317  76.281  1.00  0.00     0.102 C 
ATOM     26  HN  UNL     1     144.610 -27.628  74.409  1.00  0.00     0.166 HD
HETATM   27  C   UNL     1     145.530 -26.445  77.364  1.00  0.00    -0.010 C 
HETATM   28  C   UNL     1     146.370 -26.705  78.457  1.00  0.00     0.013 C 
HETATM   29  C   UNL     1     144.832 -25.211  77.327  1.00  0.00    -0.021 C 
HETATM   30  C   UNL     1     146.231 -25.970  79.635  1.00  0.00     0.001 C 
HETATM   31  C   UNL     1     145.539 -24.752  79.592  1.00  0.00     0.001 C 
HETATM   32  C   UNL     1     144.628 -24.534  78.547  1.00  0.00     0.012 C 
HETATM   33  C   UNL     1     144.031 -24.935  76.205  1.00  0.00     0.060 C 
ENDBRANCH  21  23
ENDBRANCH  12  21
TORSDOF 2
ENDMDL
MODEL 2
REMARK VINA RESULT:     -14.1      2.430      6.709
REMARK  2 active torsions:
REMARK  status: ('A' for Active; 'I' for Inactive)
REMARK    1  A    between atoms: C_19  and  N_28 
REMARK    2  A    between atoms: N_28  and  C_31 
ROOT
HETATM    1  C   UNL     1     143.886 -23.446  73.817  1.00  0.00     0.026 C 
HETATM    2  C   UNL     1     141.318 -23.231  76.471  1.00  0.00     0.012 C 
HETATM    3  C   UNL     1     141.502 -26.116  70.061  1.00  0.00     0.016 C 
HETATM    4  C   UNL     1     143.619 -25.655  71.145  1.00  0.00    -0.021 C 
HETATM    5  C   UNL     1     144.341 -25.290  72.287  1.00  0.00     0.026 C 
HETATM    6  C   UNL     1     142.047 -25.727  68.840  1.00  0.00     0.001 C 
HETATM    7  C   UNL     1     141.834 -21.017  75.652  1.00  0.00     0.001 C 
HETATM    8  C   UNL     1     143.402 -25.416  68.746  1.00  0.00     0.001 C 
HETATM    9  C   UNL     1     142.770 -25.571  74.133  1.00  0.00     0.044 C 
HETATM   10  C   UNL     1     143.077 -22.909  74.830  1.00  0.00    -0.025 C 
HETATM   11  C   UNL     1     142.308 -26.193  71.204  1.00  0.00     0.018 C 
HETATM   12  C   UNL     1     141.754 -26.863  72.394  1.00  0.00     0.118 C 
HETATM   13  C   UNL     1     144.196 -25.408  69.891  1.00  0.00     0.012 C 
HETATM   14  C   UNL     1     142.893 -21.522  74.913  1.00  0.00     0.012 C 
HETATM   15  C   UNL     1     141.064 -21.861  76.452  1.00  0.00     0.001 C 
HETATM   16  C   UNL     1     142.274 -23.775  75.610  1.00  0.00    -0.024 C 
HETATM   17  C   UNL     1     142.384 -25.151  75.419  1.00  0.00     0.042 C 
HETATM   18  N   UNL     1     142.252 -26.708  73.605  1.00  0.00    -0.341 N 
ATOM     19  HN  UNL     1     142.247 -27.530  74.209  1.00  0.00     0.167 HD
HETATM   20  C   UNL     1     143.697 -24.782  73.424  1.00  0.00    -0.008 C 
ENDROOT
BRANCH  12  21
HETATM   21  N   UNL     1     140.708 -27.749  72.255  1.00  0.00    -0.328 N 
ATOM     22  HN  UNL     1     139.783 -27.390  72.022  1.00  0.00     0.169 HD
BRANCH  21  23
HETATM   23  C   UNL     1     140.880 -29.123  72.427  1.00  0.00     0.107 C 
HETATM   24  N   UNL     1     140.673 -29.921  71.352  1.00  0.00    -0.351 N 
HETATM   25  C   UNL     1     141.177 -31.164  71.329  1.00  0.00     0.102 C 
ATOM     26  HN  UNL     1     140.132 -29.576  70.559  1.00  0.00     0.166 HD
HETATM   27  C   UNL     1     141.891 -31.686  72.411  1.00  0.00    -0.010 C 
HETATM   28  C   UNL     1     142.587 -32.902  72.359  1.00  0.00     0.013 C 
HETATM   29  C   UNL     1     141.961 -30.918  73.601  1.00  0.00    -0.021 C 
HETATM   30  C   UNL     1     143.006 -33.518  73.539  1.00  0.00     0.001 C 
HETATM   31  C   UNL     1     143.072 -32.754  74.712  1.00  0.00     0.001 C 
HETATM   32  C   UNL     1     142.299 -31.586  74.796  1.00  0.00     0.012 C 
HETATM   33  C   UNL     1     141.303 -29.676  73.630  1.00  0.00     0.060 C 
ENDBRANCH  21  23
ENDBRANCH  12  21
TORSDOF 2
ENDMDL
MODEL 3
REMARK VINA RESULT:     -14.0      2.282      3.257
REMARK  2 active torsions:
REMARK  status: ('A' for Active; 'I' for Inactive)
REMARK    1  A    between atoms: C_19  and  N_28 
REMARK    2  A    between atoms: N_28  and  C_31 
ROOT
HETATM    1  C   UNL     1     141.142 -30.080  71.923  1.00  0.00     0.026 C 
HETATM    2  C   UNL     1     142.425 -31.878  74.890  1.00  0.00     0.012 C 
HETATM    3  C   UNL     1     144.191 -25.891  71.653  1.00  0.00     0.016 C 
HETATM    4  C   UNL     1     141.970 -26.770  71.252  1.00  0.00    -0.021 C 
HETATM    5  C   UNL     1     140.950 -27.675  71.567  1.00  0.00     0.026 C 
HETATM    6  C   UNL     1     144.273 -25.500  70.319  1.00  0.00     0.001 C 
HETATM    7  C   UNL     1     142.763 -33.223  72.910  1.00  0.00     0.001 C 
HETATM    8  C   UNL     1     143.169 -25.634  69.481  1.00  0.00     0.001 C 
HETATM    9  C   UNL     1     141.558 -28.558  73.759  1.00  0.00     0.044 C 
HETATM   10  C   UNL     1     141.576 -31.133  72.741  1.00  0.00    -0.025 C 
HETATM   11  C   UNL     1     143.001 -26.426  72.162  1.00  0.00     0.018 C 
HETATM   12  C   UNL     1     142.880 -26.568  73.624  1.00  0.00     0.118 C 
HETATM   13  C   UNL     1     142.006 -26.242  69.953  1.00  0.00     0.012 C 
HETATM   14  C   UNL     1     142.005 -32.336  72.162  1.00  0.00     0.012 C 
HETATM   15  C   UNL     1     142.952 -33.013  74.276  1.00  0.00     0.001 C 
HETATM   16  C   UNL     1     141.797 -30.897  74.119  1.00  0.00    -0.024 C 
HETATM   17  C   UNL     1     141.482 -29.647  74.647  1.00  0.00     0.042 C 
HETATM   18  N   UNL     1     141.987 -27.350  74.200  1.00  0.00    -0.341 N 
ATOM     19  HN  UNL     1     141.576 -27.010  75.069  1.00  0.00     0.167 HD
HETATM   20  C   UNL     1     141.182 -28.765  72.417  1.00  0.00    -0.008 C 
ENDROOT
BRANCH  12  21
HETATM   21  N   UNL     1     143.679 -25.813  74.453  1.00  0.00    -0.328 N 
ATOM     22  HN  UNL     1     144.572 -26.195  74.764  1.00  0.00     0.169 HD
BRANCH  21  23
HETATM   23  C   UNL     1     143.300 -24.539  74.881  1.00  0.00     0.107 C 
HETATM   24  N   UNL     1     143.102 -24.354  76.207  1.00  0.00    -0.351 N 
HETATM   25  C   UNL     1     143.118 -23.117  76.725  1.00  0.00     0.102 C 
ATOM     26  HN  UNL     1     142.940 -25.158  76.815  1.00  0.00     0.166 HD
HETATM   27  C   UNL     1     143.300 -21.988  75.921  1.00  0.00    -0.010 C 
HETATM   28  C   UNL     1     143.506 -20.701  76.437  1.00  0.00     0.013 C 
HETATM   29  C   UNL     1     143.334 -22.166  74.515  1.00  0.00    -0.021 C 
HETATM   30  C   UNL     1     143.363 -19.586  75.610  1.00  0.00     0.001 C 
HETATM   31  C   UNL     1     143.397 -19.768  74.221  1.00  0.00     0.001 C 
HETATM   32  C   UNL     1     143.097 -21.036  73.703  1.00  0.00     0.012 C 
HETATM   33  C   UNL     1     143.177 -23.466  74.005  1.00  0.00     0.060 C 
ENDBRANCH  21  23
ENDBRANCH  12  21
TORSDOF 2
ENDMDL
MODEL 4
REMARK VINA RESULT:     -13.0      3.153      8.319
REMARK  2 active torsions:
REMARK  status: ('A' for Active; 'I' for Inactive)
REMARK    1  A    between atoms: C_19  and  N_28 
REMARK    2  A    between atoms: N_28  and  C_31 
ROOT
HETATM    1  C   UNL     1     143.348 -21.223  76.534  1.00  0.00     0.026 C 
HETATM    2  C   UNL     1     143.241 -19.360  73.340  1.00  0.00     0.012 C 
HETATM    3  C   UNL     1     145.088 -25.904  75.129  1.00  0.00     0.016 C 
HETATM    4  C   UNL     1     143.661 -24.684  76.658  1.00  0.00    -0.021 C 
HETATM    5  C   UNL     1     142.852 -23.577  76.939  1.00  0.00     0.026 C 
HETATM    6  C   UNL     1     145.770 -26.456  76.211  1.00  0.00     0.001 C 
HETATM    7  C   UNL     1     144.850 -18.339  74.828  1.00  0.00     0.001 C 
HETATM    8  C   UNL     1     145.328 -26.219  77.510  1.00  0.00     0.001 C 
HETATM    9  C   UNL     1     142.397 -22.572  74.762  1.00  0.00     0.044 C 
HETATM   10  C   UNL     1     143.506 -20.180  75.610  1.00  0.00    -0.025 C 
HETATM   11  C   UNL     1     143.958 -25.104  75.337  1.00  0.00     0.018 C 
HETATM   12  C   UNL     1     143.124 -24.774  74.169  1.00  0.00     0.118 C 
HETATM   13  C   UNL     1     144.256 -25.357  77.735  1.00  0.00     0.012 C 
HETATM   14  C   UNL     1     144.424 -19.153  75.868  1.00  0.00     0.012 C 
HETATM   15  C   UNL     1     144.244 -18.420  73.575  1.00  0.00     0.001 C 
HETATM   16  C   UNL     1     142.915 -20.291  74.328  1.00  0.00    -0.024 C 
HETATM   17  C   UNL     1     142.106 -21.392  74.053  1.00  0.00     0.042 C 
HETATM   18  N   UNL     1     142.257 -23.779  74.161  1.00  0.00    -0.341 N 
ATOM     19  HN  UNL     1     141.389 -23.935  73.649  1.00  0.00     0.167 HD
HETATM   20  C   UNL     1     142.835 -22.457  76.096  1.00  0.00    -0.008 C 
ENDROOT
BRANCH  12  21
HETATM   21  N   UNL     1     143.183 -25.561  73.041  1.00  0.00    -0.328 N 
ATOM     22  HN  UNL     1     143.848 -25.325  72.305  1.00  0.00     0.169 HD
BRANCH  21  23
HETATM   23  C   UNL     1     142.357 -26.675  72.876  1.00  0.00     0.107 C 
HETATM   24  N   UNL     1     141.509 -26.678  71.821  1.00  0.00    -0.351 N 
HETATM   25  C   UNL     1     140.982 -27.831  71.383  1.00  0.00     0.102 C 
ATOM     26  HN  UNL     1     141.270 -25.801  71.357  1.00  0.00     0.166 HD
HETATM   27  C   UNL     1     141.256 -29.048  72.014  1.00  0.00    -0.010 C 
HETATM   28  C   UNL     1     140.879 -30.291  71.486  1.00  0.00     0.013 C 
HETATM   29  C   UNL     1     142.002 -29.025  73.220  1.00  0.00    -0.021 C 
HETATM   30  C   UNL     1     140.892 -31.427  72.296  1.00  0.00     0.001 C 
HETATM   31  C   UNL     1     141.631 -31.398  73.487  1.00  0.00     0.001 C 
HETATM   32  C   UNL     1     141.925 -30.154  74.063  1.00  0.00     0.012 C 
HETATM   33  C   UNL     1     142.421 -27.779  73.718  1.00  0.00     0.060 C 
ENDBRANCH  21  23
ENDBRANCH  12  21
TORSDOF 2
ENDMDL
MODEL 5
REMARK VINA RESULT:     -13.0      2.366      3.375
REMARK  2 active torsions:
REMARK  status: ('A' for Active; 'I' for Inactive)
REMARK    1  A    between atoms: C_19  and  N_28 
REMARK    2  A    between atoms: N_28  and  C_31 
ROOT
HETATM    1  C   UNL     1     141.186 -29.349  71.478  1.00  0.00     0.026 C 
HETATM    2  C   UNL     1     141.881 -30.925  74.751  1.00  0.00     0.012 C 
HETATM    3  C   UNL     1     144.610 -25.456  71.274  1.00  0.00     0.016 C 
HETATM    4  C   UNL     1     142.394 -26.199  70.636  1.00  0.00    -0.021 C 
HETATM    5  C   UNL     1     141.262 -26.986  70.881  1.00  0.00     0.026 C 
HETATM    6  C   UNL     1     144.909 -25.212  69.936  1.00  0.00     0.001 C 
HETATM    7  C   UNL     1     142.365 -32.489  72.973  1.00  0.00     0.001 C 
HETATM    8  C   UNL     1     143.922 -25.347  68.963  1.00  0.00     0.001 C 
HETATM    9  C   UNL     1     141.482 -27.683  73.209  1.00  0.00     0.044 C 
HETATM   10  C   UNL     1     141.406 -30.343  72.443  1.00  0.00    -0.025 C 
HETATM   11  C   UNL     1     143.318 -25.843  71.651  1.00  0.00     0.018 C 
HETATM   12  C   UNL     1     142.984 -25.824  73.087  1.00  0.00     0.118 C 
HETATM   13  C   UNL     1     142.656 -25.812  69.314  1.00  0.00     0.012 C 
HETATM   14  C   UNL     1     141.800 -31.628  72.044  1.00  0.00     0.012 C 
HETATM   15  C   UNL     1     142.383 -32.154  74.326  1.00  0.00     0.001 C 
HETATM   16  C   UNL     1     141.457 -29.983  73.811  1.00  0.00    -0.024 C 
HETATM   17  C   UNL     1     141.186 -28.665  74.172  1.00  0.00     0.042 C 
HETATM   18  N   UNL     1     141.954 -26.472  73.595  1.00  0.00    -0.341 N 
ATOM     19  HN  UNL     1     141.460 -26.013  74.361  1.00  0.00     0.167 HD
HETATM   20  C   UNL     1     141.276 -27.997  71.851  1.00  0.00    -0.008 C 
ENDROOT
BRANCH  12  21
HETATM   21  N   UNL     1     143.727 -25.051  73.951  1.00  0.00    -0.328 N 
ATOM     22  HN  UNL     1     144.728 -25.225  74.038  1.00  0.00     0.169 HD
BRANCH  21  23
HETATM   23  C   UNL     1     143.147 -24.035  74.713  1.00  0.00     0.107 C 
HETATM   24  N   UNL     1     143.479 -22.757  74.413  1.00  0.00    -0.351 N 
HETATM   25  C   UNL     1     142.699 -21.745  74.821  1.00  0.00     0.102 C 
ATOM     26  HN  UNL     1     144.325 -22.564  73.876  1.00  0.00     0.166 HD
HETATM   27  C   UNL     1     141.553 -21.966  75.590  1.00  0.00    -0.010 C 
HETATM   28  C   UNL     1     140.616 -20.965  75.881  1.00  0.00     0.013 C 
HETATM   29  C   UNL     1     141.299 -23.284  76.050  1.00  0.00    -0.021 C 
HETATM   30  C   UNL     1     139.680 -21.158  76.898  1.00  0.00     0.001 C 
HETATM   31  C   UNL     1     139.433 -22.462  77.348  1.00  0.00     0.001 C 
HETATM   32  C   UNL     1     140.416 -23.441  77.139  1.00  0.00     0.012 C 
HETATM   33  C   UNL     1     142.216 -24.294  75.713  1.00  0.00     0.060 C 
ENDBRANCH  21  23
ENDBRANCH  12  21
TORSDOF 2
ENDMDL
MODEL 6
REMARK VINA RESULT:     -12.9      3.206      8.641
REMARK  2 active torsions:
REMARK  status: ('A' for Active; 'I' for Inactive)
REMARK    1  A    between atoms: C_19  and  N_28 
REMARK    2  A    between atoms: N_28  and  C_31 
ROOT
HETATM    1  C   UNL     1     143.421 -21.480  76.890  1.00  0.00     0.026 C 
HETATM    2  C   UNL     1     142.988 -19.888  73.579  1.00  0.00     0.012 C 
HETATM    3  C   UNL     1     145.338 -26.158  75.725  1.00  0.00     0.016 C 
HETATM    4  C   UNL     1     143.947 -24.898  77.256  1.00  0.00    -0.021 C 
HETATM    5  C   UNL     1     143.094 -23.817  77.509  1.00  0.00     0.026 C 
HETATM    6  C   UNL     1     146.122 -26.584  76.794  1.00  0.00     0.001 C 
HETATM    7  C   UNL     1     144.630 -18.666  74.865  1.00  0.00     0.001 C 
HETATM    8  C   UNL     1     145.756 -26.267  78.101  1.00  0.00     0.001 C 
HETATM    9  C   UNL     1     142.435 -23.016  75.300  1.00  0.00     0.044 C 
HETATM   10  C   UNL     1     143.454 -20.508  75.880  1.00  0.00    -0.025 C 
HETATM   11  C   UNL     1     144.179 -25.406  75.953  1.00  0.00     0.018 C 
HETATM   12  C   UNL     1     143.249 -25.216  74.826  1.00  0.00     0.118 C 
HETATM   13  C   UNL     1     144.652 -25.449  78.336  1.00  0.00     0.012 C 
HETATM   14  C   UNL     1     144.324 -19.415  75.992  1.00  0.00     0.012 C 
HETATM   15  C   UNL     1     143.947 -18.880  73.668  1.00  0.00     0.001 C 
HETATM   16  C   UNL     1     142.785 -20.754  74.657  1.00  0.00    -0.024 C 
HETATM   17  C   UNL     1     142.026 -21.915  74.525  1.00  0.00     0.042 C 
HETATM   18  N   UNL     1     142.326 -24.273  74.805  1.00  0.00    -0.341 N 
ATOM     19  HN  UNL     1     141.436 -24.517  74.369  1.00  0.00     0.167 HD
HETATM   20  C   UNL     1     142.954 -22.770  76.586  1.00  0.00    -0.008 C 
ENDROOT
BRANCH  12  21
HETATM   21  N   UNL     1     143.278 -26.088  73.760  1.00  0.00    -0.328 N 
ATOM     22  HN  UNL     1     143.231 -27.091  73.938  1.00  0.00     0.169 HD
BRANCH  21  23
HETATM   23  C   UNL     1     143.370 -25.636  72.443  1.00  0.00     0.107 C 
HETATM   24  N   UNL     1     144.574 -25.730  71.829  1.00  0.00    -0.351 N 
HETATM   25  C   UNL     1     144.654 -25.684  70.491  1.00  0.00     0.102 C 
ATOM     26  HN  UNL     1     145.422 -25.835  72.386  1.00  0.00     0.166 HD
HETATM   27  C   UNL     1     143.519 -25.505  69.694  1.00  0.00    -0.010 C 
HETATM   28  C   UNL     1     143.530 -25.634  68.298  1.00  0.00     0.013 C 
HETATM   29  C   UNL     1     142.284 -25.235  70.338  1.00  0.00    -0.021 C 
HETATM   30  C   UNL     1     142.466 -25.139  67.543  1.00  0.00     0.001 C 
HETATM   31  C   UNL     1     141.249 -24.873  68.185  1.00  0.00     0.001 C 
HETATM   32  C   UNL     1     141.256 -24.651  69.569  1.00  0.00     0.012 C 
HETATM   33  C   UNL     1     142.270 -25.156  71.742  1.00  0.00     0.060 C 
ENDBRANCH  21  23
ENDBRANCH  12  21
TORSDOF 2
ENDMDL
MODEL 7
REMARK VINA RESULT:     -12.7      1.899      7.186
REMARK  2 active torsions:
REMARK  status: ('A' for Active; 'I' for Inactive)
REMARK    1  A    between atoms: C_19  and  N_28 
REMARK    2  A    between atoms: N_28  and  C_31 
ROOT
HETATM    1  C   UNL     1     143.675 -24.670  73.785  1.00  0.00     0.026 C 
HETATM    2  C   UNL     1     144.256 -24.860  77.433  1.00  0.00     0.012 C 
HETATM    3  C   UNL     1     140.161 -28.393  72.940  1.00  0.00     0.016 C 
HETATM    4  C   UNL     1     142.058 -27.197  72.026  1.00  0.00    -0.021 C 
HETATM    5  C   UNL     1     143.251 -26.489  72.216  1.00  0.00     0.026 C 
HETATM    6  C   UNL     1     139.402 -28.028  71.831  1.00  0.00     0.001 C 
HETATM    7  C   UNL     1     143.282 -22.720  76.871  1.00  0.00     0.001 C 
HETATM    8  C   UNL     1     139.996 -27.352  70.768  1.00  0.00     0.001 C 
HETATM    9  C   UNL     1     143.896 -26.966  74.521  1.00  0.00     0.044 C 
HETATM   10  C   UNL     1     143.864 -24.262  75.113  1.00  0.00    -0.025 C 
HETATM   11  C   UNL     1     141.524 -28.080  72.998  1.00  0.00     0.018 C 
HETATM   12  C   UNL     1     142.333 -28.717  74.053  1.00  0.00     0.118 C 
HETATM   13  C   UNL     1     141.331 -26.962  70.850  1.00  0.00     0.012 C 
HETATM   14  C   UNL     1     143.437 -22.990  75.519  1.00  0.00     0.012 C 
HETATM   15  C   UNL     1     143.714 -23.637  77.828  1.00  0.00     0.001 C 
HETATM   16  C   UNL     1     144.269 -25.211  76.081  1.00  0.00    -0.024 C 
HETATM   17  C   UNL     1     144.567 -26.509  75.669  1.00  0.00     0.042 C 
HETATM   18  N   UNL     1     143.514 -28.264  74.428  1.00  0.00    -0.341 N 
ATOM     19  HN  UNL     1     144.213 -28.964  74.675  1.00  0.00     0.167 HD
HETATM   20  C   UNL     1     143.637 -26.044  73.488  1.00  0.00    -0.008 C 
ENDROOT
BRANCH  12  21
HETATM   21  N   UNL     1     141.891 -29.878  74.646  1.00  0.00    -0.328 N 
ATOM     22  HN  UNL     1     141.469 -29.832  75.573  1.00  0.00     0.169 HD
BRANCH  21  23
HETATM   23  C   UNL     1     142.004 -31.118  74.014  1.00  0.00     0.107 C 
HETATM   24  N   UNL     1     141.395 -31.270  72.814  1.00  0.00    -0.351 N 
HETATM   25  C   UNL     1     141.767 -32.261  71.990  1.00  0.00     0.102 C 
ATOM     26  HN  UNL     1     140.652 -30.628  72.536  1.00  0.00     0.166 HD
HETATM   27  C   UNL     1     142.755 -33.181  72.350  1.00  0.00    -0.010 C 
HETATM   28  C   UNL     1     143.301 -34.113  71.456  1.00  0.00     0.013 C 
HETATM   29  C   UNL     1     143.271 -33.129  73.670  1.00  0.00    -0.021 C 
HETATM   30  C   UNL     1     144.036 -35.197  71.939  1.00  0.00     0.001 C 
HETATM   31  C   UNL     1     144.542 -35.140  73.245  1.00  0.00     0.001 C 
HETATM   32  C   UNL     1     143.932 -34.274  74.164  1.00  0.00     0.012 C 
HETATM   33  C   UNL     1     142.755 -32.159  74.547  1.00  0.00     0.060 C 
ENDBRANCH  21  23
ENDBRANCH  12  21
TORSDOF 2
ENDMDL
