MODEL 1
REMARK VINA RESULT:     -11.8      0.000      0.000
REMARK  2 active torsions:
REMARK  status: ('A' for Active; 'I' for Inactive)
REMARK    1  A    between atoms: C_6  and  O_22 
REMARK    2  A    between atoms: P_9  and  C_17 
ROOT
HETATM    1  C   UNL     1      10.990  85.025  27.375  1.00  0.00     0.375 C 
HETATM    2  O   UNL     1      12.184  84.913  27.568  1.00  0.00    -0.238 OA
HETATM    3  P   UNL     1       8.821  85.267  25.851  1.00  0.00     0.419 P 
HETATM    4  C   UNL     1       6.998  83.777  34.223  1.00  0.00     0.067 C 
HETATM    5  C   UNL     1       7.690  85.968  28.877  1.00  0.00     0.117 C 
HETATM    6  C   UNL     1       7.955  83.824  35.239  1.00  0.00     0.087 C 
HETATM    7  C   UNL     1       9.013  86.300  28.195  1.00  0.00     0.247 C 
HETATM    8  C   UNL     1       8.563  85.158  33.061  1.00  0.00    -0.012 C 
HETATM    9  O   UNL     1       8.730  86.532  26.829  1.00  0.00    -0.263 OA
HETATM   10  O   UNL     1      10.368  84.856  26.153  1.00  0.00    -0.195 OA
HETATM   11  C   UNL     1       7.862  85.141  30.121  1.00  0.00     0.082 C 
HETATM   12  N   UNL     1       9.160  84.821  30.598  1.00  0.00    -0.359 N 
HETATM   13  O   UNL     1       5.759  84.084  29.907  1.00  0.00    -0.266 OA
HETATM   14  C   UNL     1       8.704  85.021  35.406  1.00  0.00     0.101 C 
HETATM   15  C   UNL     1       9.589  84.957  31.987  1.00  0.00     0.165 C 
HETATM   16  C   UNL     1       6.642  84.501  30.658  1.00  0.00     0.268 C 
HETATM   17  C   UNL     1       7.314  84.483  33.070  1.00  0.00     0.045 C 
HETATM   18  O   UNL     1       7.907  84.177  26.288  1.00  0.00    -0.624 OA
HETATM   19  N   UNL     1      10.114  85.362  28.415  1.00  0.00    -0.284 N 
HETATM   20  N   UNL     1       6.421  84.527  32.002  1.00  0.00    -0.321 N 
ATOM     21  HN  UNL     1       5.440  84.590  32.270  1.00  0.00     0.169 HD
HETATM   22  C   UNL     1       8.940  85.777  34.263  1.00  0.00     0.035 C 
HETATM   23  O   UNL     1       8.563  85.697  24.464  1.00  0.00    -0.624 OA
HETATM   24  C   UNL     1      10.238  84.582  29.641  1.00  0.00     0.257 C 
ENDROOT
BRANCH  14  25
HETATM   25  P   UNL     1       9.729  85.180  36.825  1.00  0.00     0.298 P 
HETATM   26  O   UNL     1      10.955  85.909  36.479  1.00  0.00    -0.636 OA
HETATM   27  O   UNL     1       8.890  86.024  37.651  1.00  0.00    -0.636 OA
HETATM   28  O   UNL     1      10.016  83.833  37.353  1.00  0.00    -0.636 OA
ENDBRANCH  14  25
BRANCH   6  29
HETATM   29  O   UNL     1       8.322  82.708  35.888  1.00  0.00    -0.359 OA
ATOM     30  HO  UNL     1       9.111  82.240  35.641  1.00  0.00     0.217 HD
ENDBRANCH   6  29
TORSDOF 2
ENDMDL
