REMARK  10 active torsions:
REMARK  status: ('A' for Active; 'I' for Inactive)
REMARK    1  A    between atoms: O_1  and  C_26 
REMARK    2  A    between atoms: O_5  and  C_31 
REMARK    3  A    between atoms: O_7  and  C_33 
REMARK    4  A    between atoms: C_11  and  P_19 
REMARK    5  A    between atoms: C_12  and  N_30 
REMARK    6  A    between atoms: C_14  and  O_23 
REMARK    7  A    between atoms: C_16  and  C_25 
REMARK    8  A    between atoms: C_21  and  C_25 
REMARK    9  A    between atoms: C_21  and  N_30 
REMARK   10  A    between atoms: C_25  and  O_28 
REMARK       I    between atoms: N_30  and  C_32 
ROOT
HETATM    1  C   UNL     1       7.884  84.580  31.596  1.00  0.00     0.168 C 
ENDROOT
BRANCH   1   2
HETATM    2  C   UNL     1       8.568  84.628  30.251  1.00  0.00     0.194 C 
HETATM    3  O   UNL     1       9.658  85.545  30.296  1.00  0.00    -0.306 OA
HETATM    4  C   UNL     1      10.528  85.288  29.226  1.00  0.00     0.302 C 
HETATM    5  C   UNL     1       9.823  85.411  27.918  1.00  0.00     0.151 C 
HETATM    6  O   UNL     1      11.588  84.702  29.404  1.00  0.00    -0.259 OA
HETATM    7  C   UNL     1       8.409  84.900  27.785  1.00  0.00     0.198 C 
HETATM    8  C   UNL     1       7.619  84.942  29.101  1.00  0.00     0.184 C 
BRANCH   5   9
HETATM    9  P   UNL     1      10.897  85.177  26.535  1.00  0.00     0.300 P 
HETATM   10  O   UNL     1      11.669  83.923  26.738  1.00  0.00    -0.636 OA
HETATM   11  O   UNL     1      10.023  85.140  25.336  1.00  0.00    -0.636 OA
HETATM   12  O   UNL     1      11.809  86.348  26.583  1.00  0.00    -0.636 OA
ENDBRANCH   5   9
BRANCH   7  13
HETATM   13  O   UNL     1       7.694  85.606  26.800  1.00  0.00    -0.388 OA
ATOM     14  HO  UNL     1       6.804  85.284  26.716  1.00  0.00     0.210 HD
ENDBRANCH   7  13
BRANCH   8  15
HETATM   15  O   UNL     1       6.601  83.938  29.050  1.00  0.00    -0.390 OA
ATOM     16  HO  UNL     1       6.112  83.964  29.864  1.00  0.00     0.210 HD
ENDBRANCH   8  15
ENDBRANCH   1   2
BRANCH   1  17
HETATM   17  C   UNL     1       8.963  84.510  32.657  1.00  0.00     0.170 C 
BRANCH  17  18
HETATM   18  N   UNL     1       8.616  85.358  33.801  1.00  0.00    -0.284 N 
HETATM   19  C   UNL     1       7.759  86.389  33.496  1.00  0.00     0.290 C 
HETATM   20  O   UNL     1       6.591  86.367  33.939  1.00  0.00    -0.629 OA
HETATM   21  O   UNL     1       8.125  87.285  32.697  1.00  0.00    -0.629 OA
BRANCH  18  22
HETATM   22  C   UNL     1       8.996  84.877  35.089  1.00  0.00     0.106 C 
HETATM   23  C   UNL     1       8.991  83.473  35.256  1.00  0.00     0.095 C 
HETATM   24  C   UNL     1       8.210  82.983  36.311  1.00  0.00     0.039 C 
HETATM   25  C   UNL     1       8.193  83.784  37.462  1.00  0.00     0.006 C 
HETATM   26  C   UNL     1       9.056  84.890  37.499  1.00  0.00     0.039 C 
HETATM   27  C   UNL     1       9.559  85.394  36.292  1.00  0.00     0.095 C 
BRANCH  23  28
HETATM   28  O   UNL     1       9.887  82.724  34.588  1.00  0.00    -0.358 OA
ATOM     29  HO  UNL     1       9.884  81.781  34.700  1.00  0.00     0.217 HD
ENDBRANCH  23  28
BRANCH  27  30
HETATM   30  O   UNL     1      10.811  85.960  36.327  1.00  0.00    -0.358 OA
ATOM     31  HO  UNL     1      11.152  86.302  35.509  1.00  0.00     0.217 HD
ENDBRANCH  27  30
ENDBRANCH  18  22
ENDBRANCH  17  18
ENDBRANCH   1  17
BRANCH   1  32
HETATM   32  O   UNL     1       6.960  83.513  31.698  1.00  0.00    -0.391 OA
ATOM     33  HO  UNL     1       6.530  83.483  32.544  1.00  0.00     0.210 HD
ENDBRANCH   1  32
TORSDOF 10
