REMARK  3 active torsions:
REMARK  status: ('A' for Active; 'I' for Inactive)
REMARK    1  A    between atoms: C_2  and  O_10 
REMARK    2  A    between atoms: C_6  and  O_7 
REMARK    3  A    between atoms: C_18  and  N_19 
ROOT
HETATM    1  C   UNL     1      91.480  34.532  48.470  1.00  0.00     0.351 C 
HETATM    2  S   UNL     1      90.097  30.413  48.284  1.00  0.00     0.321 S 
HETATM    3  C   UNL     1      90.781  33.960  49.707  1.00  0.00     0.193 C 
HETATM    4  O   UNL     1      90.849  29.412  48.982  1.00  0.00    -0.182 OA
HETATM    5  C   UNL     1      91.303  32.482  47.320  1.00  0.00     0.318 C 
HETATM    6  C   UNL     1      90.807  31.639  46.133  1.00  0.00     0.193 C 
HETATM    7  O   UNL     1      88.658  30.519  48.490  1.00  0.00    -0.182 OA
HETATM    8  C   UNL     1      91.121  32.476  49.797  1.00  0.00     0.175 C 
HETATM    9  N   UNL     1      90.706  31.888  48.527  1.00  0.00    -0.260 N 
HETATM   10  N   UNL     1      90.359  30.337  46.652  1.00  0.00    -0.281 N 
HETATM   11  N   UNL     1      90.779  33.869  47.348  1.00  0.00    -0.023 N 
ATOM     12  HN1 UNL     1      90.871  34.360  46.459  1.00  0.00     0.282 HD
ATOM     13  HN2 UNL     1      89.762  33.923  47.410  1.00  0.00     0.282 HD
ENDROOT
BRANCH  10  14
HETATM   14  C   UNL     1      89.902  29.187  45.831  1.00  0.00     0.045 C 
HETATM   15  C   UNL     1      88.936  29.661  44.731  1.00  0.00     0.032 C 
HETATM   16  C   UNL     1      88.980  28.536  43.683  1.00  0.00     0.007 C 
HETATM   17  C   UNL     1      89.945  27.528  44.306  1.00  0.00    -0.012 C 
HETATM   18  C   UNL     1      89.126  26.920  45.433  1.00  0.00     0.007 C 
HETATM   19  C   UNL     1      90.951  28.466  44.992  1.00  0.00     0.036 C 
HETATM   20  C   UNL     1      89.225  27.996  46.520  1.00  0.00     0.032 C 
ENDBRANCH  10  14
BRANCH   3  21
HETATM   21  O   UNL     1      91.130  34.633  50.901  1.00  0.00    -0.390 OA
ATOM     22  HO  UNL     1      90.696  34.278  51.668  1.00  0.00     0.210 HD
ENDBRANCH   3  21
BRANCH   1  23
HETATM   23  O   UNL     1      91.206  35.926  48.391  1.00  0.00    -0.368 OA
ATOM     24  HO  UNL     1      91.640  36.281  47.624  1.00  0.00     0.212 HD
ENDBRANCH   1  23
TORSDOF 3
