MODEL 1
REMARK VINA RESULT:      -8.4      0.000      0.000
REMARK  8 active torsions:
REMARK  status: ('A' for Active; 'I' for Inactive)
REMARK    1  A    between atoms: C_1  and  O_18 
REMARK    2  A    between atoms: O_2  and  C_20 
REMARK    3  A    between atoms: P_6  and  O_7 
REMARK    4  A    between atoms: P_6  and  O_16 
REMARK    5  A    between atoms: P_6  and  O_26 
REMARK    6  A    between atoms: O_7  and  C_15 
REMARK    7  A    between atoms: C_13  and  N_22 
REMARK    8  A    between atoms: C_15  and  C_32 
ROOT
HETATM    1  C   UNL     1      14.432   3.273 114.497  1.00  0.00     0.300 C 
HETATM    2  P   UNL     1      15.888   4.926 115.979  1.00  0.00     0.414 P 
HETATM    3  C   UNL     1      16.772   2.638 114.822  1.00  0.00     0.172 C 
HETATM    4  C   UNL     1      16.514   0.267 114.470  1.00  0.00     0.233 C 
HETATM    5  C   UNL     1      15.538   2.328 114.028  1.00  0.00     0.209 C 
HETATM    6  O   UNL     1      15.284   0.929 114.149  1.00  0.00    -0.353 OA
HETATM    7  O   UNL     1      16.524   3.372 116.016  1.00  0.00    -0.283 OA
HETATM    8  O   UNL     1      14.922   4.591 114.694  1.00  0.00    -0.257 OA
HETATM    9  C   UNL     1      17.419   1.296 115.128  1.00  0.00     0.089 C 
ENDROOT
BRANCH   2  10
HETATM   10  O   UNL     1      15.212   6.388 115.453  1.00  0.00    -0.210 OA
BRANCH  10  11
HETATM   11  C   UNL     1      15.916   7.579 115.341  1.00  0.00     0.303 C 
HETATM   12  O   UNL     1      15.997   8.333 116.291  1.00  0.00    -0.259 OA
BRANCH  11  13
HETATM   13  C   UNL     1      16.382   7.898 114.025  1.00  0.00     0.050 C 
HETATM   14  C   UNL     1      15.694   7.797 112.787  1.00  0.00    -0.004 C 
HETATM   15  C   UNL     1      16.723   7.474 111.773  1.00  0.00     0.063 C 
HETATM   16  C   UNL     1      17.982   7.492 112.454  1.00  0.00    -0.061 C 
HETATM   17  C   UNL     1      19.346   6.991 112.320  1.00  0.00     0.043 C 
HETATM   18  C   UNL     1      17.755   7.920 113.771  1.00  0.00     0.028 C 
HETATM   19  C   UNL     1      20.022   7.290 113.651  1.00  0.00     0.088 C 
HETATM   20  C   UNL     1      18.961   7.933 114.511  1.00  0.00     0.161 C 
HETATM   21  O   UNL     1      19.175   8.271 115.689  1.00  0.00    -0.292 OA
ENDBRANCH  11  13
ENDBRANCH  10  11
ENDBRANCH   2  10
BRANCH   2  22
HETATM   22  O   UNL     1      14.857   4.787 117.125  1.00  0.00    -0.301 OA
ATOM     23  HO  UNL     1      14.996   5.682 117.412  1.00  0.00     0.223 HD
ENDBRANCH   2  22
BRANCH   2  24
HETATM   24  O   UNL     1      17.025   5.656 116.710  1.00  0.00    -0.301 OA
ATOM     25  HO  UNL     1      17.303   4.857 117.141  1.00  0.00     0.223 HD
ENDBRANCH   2  24
BRANCH   1  26
HETATM   26  O   UNL     1      13.825   2.776 115.676  1.00  0.00    -0.368 OA
ATOM     27  HO  UNL     1      12.912   2.566 115.516  1.00  0.00     0.212 HD
ENDBRANCH   1  26
BRANCH   4  28
HETATM   28  N   UNL     1      16.167  -0.847 115.351  1.00  0.00    -0.295 N 
HETATM   29  C   UNL     1      16.693  -2.121 115.294  1.00  0.00     0.100 C 
HETATM   30  C   UNL     1      16.262  -2.821 116.396  1.00  0.00     0.059 C 
HETATM   31  C   UNL     1      15.254  -2.047 117.004  1.00  0.00     0.135 C 
HETATM   32  C   UNL     1      15.361  -0.729 116.455  1.00  0.00     0.282 C 
HETATM   33  O   UNL     1      14.969   0.335 116.931  1.00  0.00    -0.265 OA
BRANCH  31  34
HETATM   34  O   UNL     1      14.477  -2.393 118.042  1.00  0.00    -0.356 OA
ATOM     35  HO  UNL     1      14.754  -2.588 118.930  1.00  0.00     0.218 HD
ENDBRANCH  31  34
ENDBRANCH   4  28
TORSDOF 8
ENDMDL
MODEL 2
REMARK VINA RESULT:      -8.2      1.808      3.020
REMARK  8 active torsions:
REMARK  status: ('A' for Active; 'I' for Inactive)
REMARK    1  A    between atoms: C_1  and  O_18 
REMARK    2  A    between atoms: O_2  and  C_20 
REMARK    3  A    between atoms: P_6  and  O_7 
REMARK    4  A    between atoms: P_6  and  O_16 
REMARK    5  A    between atoms: P_6  and  O_26 
REMARK    6  A    between atoms: O_7  and  C_15 
REMARK    7  A    between atoms: C_13  and  N_22 
REMARK    8  A    between atoms: C_15  and  C_32 
ROOT
HETATM    1  C   UNL     1      17.482   1.566 113.735  1.00  0.00     0.300 C 
HETATM    2  P   UNL     1      15.610   3.449 113.706  1.00  0.00     0.414 P 
HETATM    3  C   UNL     1      15.996   1.627 115.677  1.00  0.00     0.172 C 
HETATM    4  C   UNL     1      16.241  -0.677 116.341  1.00  0.00     0.233 C 
HETATM    5  C   UNL     1      17.268   1.032 115.150  1.00  0.00     0.209 C 
HETATM    6  O   UNL     1      17.178  -0.385 115.297  1.00  0.00    -0.353 OA
HETATM    7  O   UNL     1      15.142   2.155 114.668  1.00  0.00    -0.283 OA
HETATM    8  O   UNL     1      17.174   2.950 113.648  1.00  0.00    -0.257 OA
HETATM    9  C   UNL     1      15.306   0.516 116.453  1.00  0.00     0.089 C 
ENDROOT
BRANCH   2  10
HETATM   10  O   UNL     1      16.514   4.684 112.980  1.00  0.00    -0.210 OA
BRANCH  10  11
HETATM   11  C   UNL     1      15.965   5.741 112.268  1.00  0.00     0.303 C 
HETATM   12  O   UNL     1      15.032   5.550 111.511  1.00  0.00    -0.259 OA
BRANCH  11  13
HETATM   13  C   UNL     1      16.660   6.988 112.381  1.00  0.00     0.050 C 
HETATM   14  C   UNL     1      17.682   7.517 111.549  1.00  0.00    -0.004 C 
HETATM   15  C   UNL     1      18.552   8.324 112.435  1.00  0.00     0.063 C 
HETATM   16  C   UNL     1      17.943   8.303 113.730  1.00  0.00    -0.061 C 
HETATM   17  C   UNL     1      18.271   8.515 115.136  1.00  0.00     0.043 C 
HETATM   18  C   UNL     1      16.715   7.632 113.620  1.00  0.00     0.028 C 
HETATM   19  C   UNL     1      17.047   8.051 115.914  1.00  0.00     0.088 C 
HETATM   20  C   UNL     1      16.071   7.549 114.877  1.00  0.00     0.161 C 
HETATM   21  O   UNL     1      14.970   7.059 115.182  1.00  0.00    -0.292 OA
ENDBRANCH  11  13
ENDBRANCH  10  11
ENDBRANCH   2  10
BRANCH   2  22
HETATM   22  O   UNL     1      15.115   2.919 112.340  1.00  0.00    -0.301 OA
ATOM     23  HO  UNL     1      14.988   2.042 112.681  1.00  0.00     0.223 HD
ENDBRANCH   2  22
BRANCH   2  24
HETATM   24  O   UNL     1      14.474   4.421 114.060  1.00  0.00    -0.301 OA
ATOM     25  HO  UNL     1      14.988   4.816 114.756  1.00  0.00     0.223 HD
ENDBRANCH   2  24
BRANCH   1  26
HETATM   26  O   UNL     1      16.720   0.818 112.804  1.00  0.00    -0.368 OA
ATOM     27  HO  UNL     1      15.910   1.270 112.599  1.00  0.00     0.212 HD
ENDBRANCH   1  26
BRANCH   4  28
HETATM   28  N   UNL     1      15.560  -1.912 115.954  1.00  0.00    -0.295 N 
HETATM   29  C   UNL     1      15.790  -2.640 114.805  1.00  0.00     0.100 C 
HETATM   30  C   UNL     1      15.097  -3.825 114.892  1.00  0.00     0.059 C 
HETATM   31  C   UNL     1      14.230  -3.711 115.996  1.00  0.00     0.135 C 
HETATM   32  C   UNL     1      14.687  -2.592 116.764  1.00  0.00     0.282 C 
HETATM   33  O   UNL     1      14.494  -2.349 117.954  1.00  0.00    -0.265 OA
BRANCH  31  34
HETATM   34  O   UNL     1      13.288  -4.584 116.384  1.00  0.00    -0.356 OA
ATOM     35  HO  UNL     1      12.356  -4.423 116.476  1.00  0.00     0.218 HD
ENDBRANCH  31  34
ENDBRANCH   4  28
TORSDOF 8
ENDMDL
MODEL 3
REMARK VINA RESULT:      -8.1      2.568      3.883
REMARK  8 active torsions:
REMARK  status: ('A' for Active; 'I' for Inactive)
REMARK    1  A    between atoms: C_1  and  O_18 
REMARK    2  A    between atoms: O_2  and  C_20 
REMARK    3  A    between atoms: P_6  and  O_7 
REMARK    4  A    between atoms: P_6  and  O_16 
REMARK    5  A    between atoms: P_6  and  O_26 
REMARK    6  A    between atoms: O_7  and  C_15 
REMARK    7  A    between atoms: C_13  and  N_22 
REMARK    8  A    between atoms: C_15  and  C_32 
ROOT
HETATM    1  C   UNL     1      17.567   1.397 114.448  1.00  0.00     0.300 C 
HETATM    2  P   UNL     1      15.110   2.262 114.962  1.00  0.00     0.414 P 
HETATM    3  C   UNL     1      16.071  -0.210 115.527  1.00  0.00     0.172 C 
HETATM    4  C   UNL     1      17.166  -2.222 114.776  1.00  0.00     0.233 C 
HETATM    5  C   UNL     1      17.502   0.045 115.155  1.00  0.00     0.209 C 
HETATM    6  O   UNL     1      17.969  -1.089 114.424  1.00  0.00    -0.353 OA
HETATM    7  O   UNL     1      15.136   0.589 114.812  1.00  0.00    -0.283 OA
HETATM    8  O   UNL     1      16.745   2.361 115.089  1.00  0.00    -0.257 OA
HETATM    9  C   UNL     1      15.832  -1.691 115.274  1.00  0.00     0.089 C 
ENDROOT
BRANCH   2  10
HETATM   10  O   UNL     1      15.495   3.856 115.386  1.00  0.00    -0.210 OA
BRANCH  10  11
HETATM   11  C   UNL     1      14.982   4.979 114.752  1.00  0.00     0.303 C 
HETATM   12  O   UNL     1      13.880   4.944 114.239  1.00  0.00    -0.259 OA
BRANCH  11  13
HETATM   13  C   UNL     1      15.888   6.082 114.624  1.00  0.00     0.050 C 
HETATM   14  C   UNL     1      15.834   7.356 115.249  1.00  0.00    -0.004 C 
HETATM   15  C   UNL     1      16.427   8.309 114.285  1.00  0.00     0.063 C 
HETATM   16  C   UNL     1      16.885   7.530 113.175  1.00  0.00    -0.061 C 
HETATM   17  C   UNL     1      17.237   7.670 111.765  1.00  0.00     0.043 C 
HETATM   18  C   UNL     1      16.698   6.176 113.490  1.00  0.00     0.028 C 
HETATM   19  C   UNL     1      17.412   6.249 111.247  1.00  0.00     0.088 C 
HETATM   20  C   UNL     1      17.105   5.347 112.418  1.00  0.00     0.161 C 
HETATM   21  O   UNL     1      17.119   4.107 112.324  1.00  0.00    -0.292 OA
ENDBRANCH  11  13
ENDBRANCH  10  11
ENDBRANCH   2  10
BRANCH   2  22
HETATM   22  O   UNL     1      14.941   2.631 113.469  1.00  0.00    -0.301 OA
ATOM     23  HO  UNL     1      15.866   2.509 113.293  1.00  0.00     0.223 HD
ENDBRANCH   2  22
BRANCH   2  24
HETATM   24  O   UNL     1      13.665   2.425 115.459  1.00  0.00    -0.301 OA
ATOM     25  HO  UNL     1      13.842   1.906 116.235  1.00  0.00     0.223 HD
ENDBRANCH   2  24
BRANCH   1  26
HETATM   26  O   UNL     1      17.215   1.258 113.083  1.00  0.00    -0.368 OA
ATOM     27  HO  UNL     1      16.295   1.032 112.999  1.00  0.00     0.212 HD
ENDBRANCH   1  26
BRANCH   4  28
HETATM   28  N   UNL     1      17.050  -3.039 113.568  1.00  0.00    -0.295 N 
HETATM   29  C   UNL     1      17.528  -2.711 112.317  1.00  0.00     0.100 C 
HETATM   30  C   UNL     1      17.393  -3.806 111.497  1.00  0.00     0.059 C 
HETATM   31  C   UNL     1      16.588  -4.735 112.184  1.00  0.00     0.135 C 
HETATM   32  C   UNL     1      16.562  -4.321 113.554  1.00  0.00     0.282 C 
HETATM   33  O   UNL     1      16.319  -4.994 114.555  1.00  0.00    -0.265 OA
BRANCH  31  34
HETATM   34  O   UNL     1      16.106  -5.896 111.717  1.00  0.00    -0.356 OA
ATOM     35  HO  UNL     1      15.209  -6.091 111.471  1.00  0.00     0.218 HD
ENDBRANCH  31  34
ENDBRANCH   4  28
TORSDOF 8
ENDMDL
MODEL 4
REMARK VINA RESULT:      -8.1      2.526      8.692
REMARK  8 active torsions:
REMARK  status: ('A' for Active; 'I' for Inactive)
REMARK    1  A    between atoms: C_1  and  O_18 
REMARK    2  A    between atoms: O_2  and  C_20 
REMARK    3  A    between atoms: P_6  and  O_7 
REMARK    4  A    between atoms: P_6  and  O_16 
REMARK    5  A    between atoms: P_6  and  O_26 
REMARK    6  A    between atoms: O_7  and  C_15 
REMARK    7  A    between atoms: C_13  and  N_22 
REMARK    8  A    between atoms: C_15  and  C_32 
ROOT
HETATM    1  C   UNL     1      16.528   2.498 112.935  1.00  0.00     0.300 C 
HETATM    2  P   UNL     1      14.843   2.237 114.970  1.00  0.00     0.414 P 
HETATM    3  C   UNL     1      14.805   4.224 113.125  1.00  0.00     0.172 C 
HETATM    4  C   UNL     1      15.972   5.975 111.950  1.00  0.00     0.233 C 
HETATM    5  C   UNL     1      15.862   3.670 112.216  1.00  0.00     0.209 C 
HETATM    6  O   UNL     1      16.708   4.752 111.825  1.00  0.00    -0.353 OA
HETATM    7  O   UNL     1      14.954   3.842 114.488  1.00  0.00    -0.283 OA
HETATM    8  O   UNL     1      15.574   1.688 113.606  1.00  0.00    -0.257 OA
HETATM    9  C   UNL     1      14.871   5.735 112.969  1.00  0.00     0.089 C 
ENDROOT
BRANCH   2  10
HETATM   10  O   UNL     1      14.707   0.548 114.961  1.00  0.00    -0.210 OA
BRANCH  10  11
HETATM   11  C   UNL     1      15.202  -0.282 115.957  1.00  0.00     0.303 C 
HETATM   12  O   UNL     1      14.961  -0.048 117.125  1.00  0.00    -0.259 OA
BRANCH  11  13
HETATM   13  C   UNL     1      16.109  -1.299 115.516  1.00  0.00     0.050 C 
HETATM   14  C   UNL     1      17.253  -1.173 114.685  1.00  0.00    -0.004 C 
HETATM   15  C   UNL     1      17.350  -2.442 113.928  1.00  0.00     0.063 C 
HETATM   16  C   UNL     1      16.307  -3.289 114.423  1.00  0.00    -0.061 C 
HETATM   17  C   UNL     1      15.526  -4.461 114.040  1.00  0.00     0.043 C 
HETATM   18  C   UNL     1      15.689  -2.631 115.498  1.00  0.00     0.028 C 
HETATM   19  C   UNL     1      14.425  -4.576 115.086  1.00  0.00     0.088 C 
HETATM   20  C   UNL     1      14.624  -3.404 116.017  1.00  0.00     0.161 C 
HETATM   21  O   UNL     1      13.862  -3.178 116.973  1.00  0.00    -0.292 OA
ENDBRANCH  11  13
ENDBRANCH  10  11
ENDBRANCH   2  10
BRANCH   2  22
HETATM   22  O   UNL     1      16.045   2.199 115.944  1.00  0.00    -0.301 OA
ATOM     23  HO  UNL     1      15.519   2.517 116.669  1.00  0.00     0.223 HD
ENDBRANCH   2  22
BRANCH   2  24
HETATM   24  O   UNL     1      13.679   2.376 115.963  1.00  0.00    -0.301 OA
ATOM     25  HO  UNL     1      13.052   2.493 115.259  1.00  0.00     0.223 HD
ENDBRANCH   2  24
BRANCH   1  26
HETATM   26  O   UNL     1      17.517   2.968 113.835  1.00  0.00    -0.368 OA
ATOM     27  HO  UNL     1      17.163   3.026 114.715  1.00  0.00     0.212 HD
ENDBRANCH   1  26
BRANCH   4  28
HETATM   28  N   UNL     1      16.934   6.996 112.365  1.00  0.00    -0.295 N 
HETATM   29  C   UNL     1      16.965   7.633 113.588  1.00  0.00     0.100 C 
HETATM   30  C   UNL     1      18.118   8.378 113.663  1.00  0.00     0.059 C 
HETATM   31  C   UNL     1      18.676   8.399 112.371  1.00  0.00     0.135 C 
HETATM   32  C   UNL     1      18.032   7.358 111.628  1.00  0.00     0.282 C 
HETATM   33  O   UNL     1      18.434   6.770 110.625  1.00  0.00    -0.265 OA
BRANCH  31  34
HETATM   34  O   UNL     1      19.742   9.101 111.956  1.00  0.00    -0.356 OA
ATOM     35  HO  UNL     1      19.877  10.039 112.025  1.00  0.00     0.218 HD
ENDBRANCH  31  34
ENDBRANCH   4  28
TORSDOF 8
ENDMDL
MODEL 5
REMARK VINA RESULT:      -7.7      2.561      8.168
REMARK  8 active torsions:
REMARK  status: ('A' for Active; 'I' for Inactive)
REMARK    1  A    between atoms: C_1  and  O_18 
REMARK    2  A    between atoms: O_2  and  C_20 
REMARK    3  A    between atoms: P_6  and  O_7 
REMARK    4  A    between atoms: P_6  and  O_16 
REMARK    5  A    between atoms: P_6  and  O_26 
REMARK    6  A    between atoms: O_7  and  C_15 
REMARK    7  A    between atoms: C_13  and  N_22 
REMARK    8  A    between atoms: C_15  and  C_32 
ROOT
HETATM    1  C   UNL     1      16.545   2.413 112.981  1.00  0.00     0.300 C 
HETATM    2  P   UNL     1      14.805   2.059 114.955  1.00  0.00     0.414 P 
HETATM    3  C   UNL     1      14.776   4.094 113.161  1.00  0.00     0.172 C 
HETATM    4  C   UNL     1      15.939   5.901 112.069  1.00  0.00     0.233 C 
HETATM    5  C   UNL     1      15.874   3.588 112.272  1.00  0.00     0.209 C 
HETATM    6  O   UNL     1      16.706   4.699 111.936  1.00  0.00    -0.353 OA
HETATM    7  O   UNL     1      14.893   3.679 114.518  1.00  0.00    -0.283 OA
HETATM    8  O   UNL     1      15.590   1.564 113.600  1.00  0.00    -0.257 OA
HETATM    9  C   UNL     1      14.812   5.609 113.047  1.00  0.00     0.089 C 
ENDROOT
BRANCH   2  10
HETATM   10  O   UNL     1      14.708   0.369 114.897  1.00  0.00    -0.210 OA
BRANCH  10  11
HETATM   11  C   UNL     1      15.177  -0.475 115.893  1.00  0.00     0.303 C 
HETATM   12  O   UNL     1      15.028  -0.183 117.065  1.00  0.00    -0.259 OA
BRANCH  11  13
HETATM   13  C   UNL     1      15.953  -1.591 115.441  1.00  0.00     0.050 C 
HETATM   14  C   UNL     1      15.572  -2.954 115.327  1.00  0.00    -0.004 C 
HETATM   15  C   UNL     1      16.796  -3.744 115.592  1.00  0.00     0.063 C 
HETATM   16  C   UNL     1      17.859  -2.799 115.758  1.00  0.00    -0.061 C 
HETATM   17  C   UNL     1      19.193  -2.692 116.340  1.00  0.00     0.043 C 
HETATM   18  C   UNL     1      17.347  -1.520 115.491  1.00  0.00     0.028 C 
HETATM   19  C   UNL     1      19.549  -1.213 116.270  1.00  0.00     0.088 C 
HETATM   20  C   UNL     1      18.344  -0.532 115.667  1.00  0.00     0.161 C 
HETATM   21  O   UNL     1      18.289   0.700 115.503  1.00  0.00    -0.292 OA
ENDBRANCH  11  13
ENDBRANCH  10  11
ENDBRANCH   2  10
BRANCH   2  22
HETATM   22  O   UNL     1      15.976   2.023 115.964  1.00  0.00    -0.301 OA
ATOM     23  HO  UNL     1      16.045   2.970 115.980  1.00  0.00     0.223 HD
ENDBRANCH   2  22
BRANCH   2  24
HETATM   24  O   UNL     1      13.607   2.146 115.914  1.00  0.00    -0.301 OA
ATOM     25  HO  UNL     1      13.103   1.537 115.387  1.00  0.00     0.223 HD
ENDBRANCH   2  24
BRANCH   1  26
HETATM   26  O   UNL     1      17.494   2.880 113.923  1.00  0.00    -0.368 OA
ATOM     27  HO  UNL     1      17.098   3.523 114.500  1.00  0.00     0.212 HD
ENDBRANCH   1  26
BRANCH   4  28
HETATM   28  N   UNL     1      16.863   6.932 112.541  1.00  0.00    -0.295 N 
HETATM   29  C   UNL     1      16.964   7.402 113.834  1.00  0.00     0.100 C 
HETATM   30  C   UNL     1      18.066   8.221 113.916  1.00  0.00     0.059 C 
HETATM   31  C   UNL     1      18.499   8.458 112.597  1.00  0.00     0.135 C 
HETATM   32  C   UNL     1      17.861   7.475 111.772  1.00  0.00     0.282 C 
HETATM   33  O   UNL     1      18.206   7.059 110.668  1.00  0.00    -0.265 OA
BRANCH  31  34
HETATM   34  O   UNL     1      19.471   9.291 112.196  1.00  0.00    -0.356 OA
ATOM     35  HO  UNL     1      20.359   9.063 111.947  1.00  0.00     0.218 HD
ENDBRANCH  31  34
ENDBRANCH   4  28
TORSDOF 8
ENDMDL
MODEL 6
REMARK VINA RESULT:      -7.7      1.337      2.025
REMARK  8 active torsions:
REMARK  status: ('A' for Active; 'I' for Inactive)
REMARK    1  A    between atoms: C_1  and  O_18 
REMARK    2  A    between atoms: O_2  and  C_20 
REMARK    3  A    between atoms: P_6  and  O_7 
REMARK    4  A    between atoms: P_6  and  O_16 
REMARK    5  A    between atoms: P_6  and  O_26 
REMARK    6  A    between atoms: O_7  and  C_15 
REMARK    7  A    between atoms: C_13  and  N_22 
REMARK    8  A    between atoms: C_15  and  C_32 
ROOT
HETATM    1  C   UNL     1      14.313   3.124 114.725  1.00  0.00     0.300 C 
HETATM    2  P   UNL     1      15.831   4.779 116.143  1.00  0.00     0.414 P 
HETATM    3  C   UNL     1      16.635   2.428 115.055  1.00  0.00     0.172 C 
HETATM    4  C   UNL     1      16.302   0.057 114.783  1.00  0.00     0.233 C 
HETATM    5  C   UNL     1      15.386   2.132 114.280  1.00  0.00     0.209 C 
HETATM    6  O   UNL     1      15.090   0.745 114.449  1.00  0.00    -0.353 OA
HETATM    7  O   UNL     1      16.419   3.208 116.226  1.00  0.00    -0.283 OA
HETATM    8  O   UNL     1      14.845   4.433 114.875  1.00  0.00    -0.257 OA
HETATM    9  C   UNL     1      17.243   1.078 115.401  1.00  0.00     0.089 C 
ENDROOT
BRANCH   2  10
HETATM   10  O   UNL     1      15.196   6.243 115.573  1.00  0.00    -0.210 OA
BRANCH  10  11
HETATM   11  C   UNL     1      15.574   6.849 114.383  1.00  0.00     0.303 C 
HETATM   12  O   UNL     1      14.833   6.822 113.420  1.00  0.00    -0.259 OA
BRANCH  11  13
HETATM   13  C   UNL     1      16.916   7.349 114.345  1.00  0.00     0.050 C 
HETATM   14  C   UNL     1      17.473   8.458 115.035  1.00  0.00    -0.004 C 
HETATM   15  C   UNL     1      18.517   9.011 114.143  1.00  0.00     0.063 C 
HETATM   16  C   UNL     1      18.584   8.140 113.009  1.00  0.00    -0.061 C 
HETATM   17  C   UNL     1      19.037   8.125 111.622  1.00  0.00     0.043 C 
HETATM   18  C   UNL     1      17.726   7.055 113.246  1.00  0.00     0.028 C 
HETATM   19  C   UNL     1      18.504   6.824 111.035  1.00  0.00     0.088 C 
HETATM   20  C   UNL     1      17.721   6.166 112.145  1.00  0.00     0.161 C 
HETATM   21  O   UNL     1      17.117   5.091 111.986  1.00  0.00    -0.292 OA
ENDBRANCH  11  13
ENDBRANCH  10  11
ENDBRANCH   2  10
BRANCH   2  22
HETATM   22  O   UNL     1      14.805   4.709 117.299  1.00  0.00    -0.301 OA
ATOM     23  HO  UNL     1      15.327   4.076 117.777  1.00  0.00     0.223 HD
ENDBRANCH   2  22
BRANCH   2  24
HETATM   24  O   UNL     1      16.995   5.498 116.841  1.00  0.00    -0.301 OA
ATOM     25  HO  UNL     1      16.656   6.351 116.596  1.00  0.00     0.223 HD
ENDBRANCH   2  24
BRANCH   1  26
HETATM   26  O   UNL     1      13.700   2.685 115.924  1.00  0.00    -0.368 OA
ATOM     27  HO  UNL     1      12.807   3.005 115.976  1.00  0.00     0.212 HD
ENDBRANCH   1  26
BRANCH   4  28
HETATM   28  N   UNL     1      15.928  -1.017 115.702  1.00  0.00    -0.295 N 
HETATM   29  C   UNL     1      15.367  -0.858 116.952  1.00  0.00     0.100 C 
HETATM   30  C   UNL     1      14.989  -2.094 117.422  1.00  0.00     0.059 C 
HETATM   31  C   UNL     1      15.556  -3.051 116.558  1.00  0.00     0.135 C 
HETATM   32  C   UNL     1      15.960  -2.349 115.377  1.00  0.00     0.282 C 
HETATM   33  O   UNL     1      16.145  -2.795 114.245  1.00  0.00    -0.265 OA
BRANCH  31  34
HETATM   34  O   UNL     1      15.542  -4.385 116.700  1.00  0.00    -0.356 OA
ATOM     35  HO  UNL     1      15.271  -4.881 117.463  1.00  0.00     0.218 HD
ENDBRANCH  31  34
ENDBRANCH   4  28
TORSDOF 8
ENDMDL
MODEL 7
REMARK VINA RESULT:      -7.7      2.221      3.379
REMARK  8 active torsions:
REMARK  status: ('A' for Active; 'I' for Inactive)
REMARK    1  A    between atoms: C_1  and  O_18 
REMARK    2  A    between atoms: O_2  and  C_20 
REMARK    3  A    between atoms: P_6  and  O_7 
REMARK    4  A    between atoms: P_6  and  O_16 
REMARK    5  A    between atoms: P_6  and  O_26 
REMARK    6  A    between atoms: O_7  and  C_15 
REMARK    7  A    between atoms: C_13  and  N_22 
REMARK    8  A    between atoms: C_15  and  C_32 
ROOT
HETATM    1  C   UNL     1      17.223   4.106 115.213  1.00  0.00     0.300 C 
HETATM    2  P   UNL     1      15.398   5.114 113.568  1.00  0.00     0.414 P 
HETATM    3  C   UNL     1      15.198   2.767 114.912  1.00  0.00     0.172 C 
HETATM    4  C   UNL     1      16.143   0.623 115.478  1.00  0.00     0.233 C 
HETATM    5  C   UNL     1      16.435   2.912 115.748  1.00  0.00     0.209 C 
HETATM    6  O   UNL     1      17.103   1.650 115.756  1.00  0.00    -0.353 OA
HETATM    7  O   UNL     1      15.262   3.442 113.661  1.00  0.00    -0.283 OA
HETATM    8  O   UNL     1      16.367   5.193 114.892  1.00  0.00    -0.257 OA
HETATM    9  C   UNL     1      14.998   1.272 114.718  1.00  0.00     0.089 C 
ENDROOT
BRANCH   2  10
HETATM   10  O   UNL     1      15.581   6.749 113.971  1.00  0.00    -0.210 OA
BRANCH  10  11
HETATM   11  C   UNL     1      16.191   7.692 113.155  1.00  0.00     0.303 C 
HETATM   12  O   UNL     1      15.668   8.026 112.109  1.00  0.00    -0.259 OA
BRANCH  11  13
HETATM   13  C   UNL     1      17.503   8.100 113.560  1.00  0.00     0.050 C 
HETATM   14  C   UNL     1      17.881   8.938 114.641  1.00  0.00    -0.004 C 
HETATM   15  C   UNL     1      19.100   9.652 114.198  1.00  0.00     0.063 C 
HETATM   16  C   UNL     1      19.430   9.126 112.908  1.00  0.00    -0.061 C 
HETATM   17  C   UNL     1      20.191   9.467 111.710  1.00  0.00     0.043 C 
HETATM   18  C   UNL     1      18.545   8.073 112.631  1.00  0.00     0.028 C 
HETATM   19  C   UNL     1      19.814   8.415 110.676  1.00  0.00     0.088 C 
HETATM   20  C   UNL     1      18.799   7.525 111.352  1.00  0.00     0.161 C 
HETATM   21  O   UNL     1      18.253   6.575 110.764  1.00  0.00    -0.292 OA
ENDBRANCH  11  13
ENDBRANCH  10  11
ENDBRANCH   2  10
BRANCH   2  22
HETATM   22  O   UNL     1      16.469   5.202 112.454  1.00  0.00    -0.301 OA
ATOM     23  HO  UNL     1      15.984   5.872 111.987  1.00  0.00     0.223 HD
ENDBRANCH   2  22
BRANCH   2  24
HETATM   24  O   UNL     1      14.125   5.403 112.759  1.00  0.00    -0.301 OA
ATOM     25  HO  UNL     1      14.630   5.700 112.011  1.00  0.00     0.223 HD
ENDBRANCH   2  24
BRANCH   1  26
HETATM   26  O   UNL     1      17.999   3.723 114.091  1.00  0.00    -0.368 OA
ATOM     27  HO  UNL     1      18.765   3.234 114.369  1.00  0.00     0.212 HD
ENDBRANCH   1  26
BRANCH   4  28
HETATM   28  N   UNL     1      16.845  -0.401 114.706  1.00  0.00    -0.295 N 
HETATM   29  C   UNL     1      16.795  -1.762 114.927  1.00  0.00     0.100 C 
HETATM   30  C   UNL     1      17.429  -2.397 113.885  1.00  0.00     0.059 C 
HETATM   31  C   UNL     1      18.098  -1.403 113.146  1.00  0.00     0.135 C 
HETATM   32  C   UNL     1      17.547  -0.146 113.555  1.00  0.00     0.282 C 
HETATM   33  O   UNL     1      17.540   0.923 112.948  1.00  0.00    -0.265 OA
BRANCH  31  34
HETATM   34  O   UNL     1      18.935  -1.582 112.113  1.00  0.00    -0.356 OA
ATOM     35  HO  UNL     1      18.714  -1.602 111.189  1.00  0.00     0.218 HD
ENDBRANCH  31  34
ENDBRANCH   4  28
TORSDOF 8
ENDMDL
MODEL 8
REMARK VINA RESULT:      -7.6      3.684      8.453
REMARK  8 active torsions:
REMARK  status: ('A' for Active; 'I' for Inactive)
REMARK    1  A    between atoms: C_1  and  O_18 
REMARK    2  A    between atoms: O_2  and  C_20 
REMARK    3  A    between atoms: P_6  and  O_7 
REMARK    4  A    between atoms: P_6  and  O_16 
REMARK    5  A    between atoms: P_6  and  O_26 
REMARK    6  A    between atoms: O_7  and  C_15 
REMARK    7  A    between atoms: C_13  and  N_22 
REMARK    8  A    between atoms: C_15  and  C_32 
ROOT
HETATM    1  C   UNL     1      16.380   6.067 111.779  1.00  0.00     0.300 C 
HETATM    2  P   UNL     1      17.021   4.676 113.948  1.00  0.00     0.414 P 
HETATM    3  C   UNL     1      18.206   6.975 113.131  1.00  0.00     0.172 C 
HETATM    4  C   UNL     1      19.304   8.227 111.389  1.00  0.00     0.233 C 
HETATM    5  C   UNL     1      17.269   7.289 112.002  1.00  0.00     0.209 C 
HETATM    6  O   UNL     1      18.058   7.724 110.893  1.00  0.00    -0.353 OA
HETATM    7  O   UNL     1      18.328   5.585 113.413  1.00  0.00    -0.283 OA
HETATM    8  O   UNL     1      15.954   5.501 113.010  1.00  0.00    -0.257 OA
HETATM    9  C   UNL     1      19.547   7.575 112.740  1.00  0.00     0.089 C 
ENDROOT
BRANCH   2  10
HETATM   10  O   UNL     1      15.461   4.190 114.398  1.00  0.00    -0.210 OA
BRANCH  10  11
HETATM   11  C   UNL     1      14.884   2.982 114.033  1.00  0.00     0.303 C 
HETATM   12  O   UNL     1      14.424   2.836 112.916  1.00  0.00    -0.259 OA
BRANCH  11  13
HETATM   13  C   UNL     1      14.743   2.023 115.087  1.00  0.00     0.050 C 
HETATM   14  C   UNL     1      14.051   2.149 116.320  1.00  0.00    -0.004 C 
HETATM   15  C   UNL     1      14.803   1.327 117.296  1.00  0.00     0.063 C 
HETATM   16  C   UNL     1      15.849   0.683 116.562  1.00  0.00    -0.061 C 
HETATM   17  C   UNL     1      17.143   0.040 116.768  1.00  0.00     0.043 C 
HETATM   18  C   UNL     1      15.677   0.991 115.203  1.00  0.00     0.028 C 
HETATM   19  C   UNL     1      17.716  -0.177 115.374  1.00  0.00     0.088 C 
HETATM   20  C   UNL     1      16.701   0.407 114.421  1.00  0.00     0.161 C 
HETATM   21  O   UNL     1      16.880   0.428 113.190  1.00  0.00    -0.292 OA
ENDBRANCH  11  13
ENDBRANCH  10  11
ENDBRANCH   2  10
BRANCH   2  22
HETATM   22  O   UNL     1      17.229   3.422 113.068  1.00  0.00    -0.301 OA
ATOM     23  HO  UNL     1      17.997   3.793 112.650  1.00  0.00     0.223 HD
ENDBRANCH   2  22
BRANCH   2  24
HETATM   24  O   UNL     1      17.611   4.188 115.280  1.00  0.00    -0.301 OA
ATOM     25  HO  UNL     1      17.369   3.288 115.093  1.00  0.00     0.223 HD
ENDBRANCH   2  24
BRANCH   1  26
HETATM   26  O   UNL     1      17.052   5.105 110.984  1.00  0.00    -0.368 OA
ATOM     27  HO  UNL     1      16.451   4.421 110.714  1.00  0.00     0.212 HD
ENDBRANCH   1  26
BRANCH   4  28
HETATM   28  N   UNL     1      20.316   7.883 110.390  1.00  0.00    -0.295 N 
HETATM   29  C   UNL     1      21.370   7.012 110.568  1.00  0.00     0.100 C 
HETATM   30  C   UNL     1      21.980   6.810 109.352  1.00  0.00     0.059 C 
HETATM   31  C   UNL     1      21.451   7.767 108.465  1.00  0.00     0.135 C 
HETATM   32  C   UNL     1      20.265   8.286 109.079  1.00  0.00     0.282 C 
HETATM   33  O   UNL     1      19.303   8.836 108.547  1.00  0.00    -0.265 OA
BRANCH  31  34
HETATM   34  O   UNL     1      21.839   8.011 107.204  1.00  0.00    -0.356 OA
ATOM     35  HO  UNL     1      21.444   7.683 106.405  1.00  0.00     0.218 HD
ENDBRANCH  31  34
ENDBRANCH   4  28
TORSDOF 8
ENDMDL
MODEL 9
REMARK VINA RESULT:      -7.6      2.646      4.208
REMARK  8 active torsions:
REMARK  status: ('A' for Active; 'I' for Inactive)
REMARK    1  A    between atoms: C_1  and  O_18 
REMARK    2  A    between atoms: O_2  and  C_20 
REMARK    3  A    between atoms: P_6  and  O_7 
REMARK    4  A    between atoms: P_6  and  O_16 
REMARK    5  A    between atoms: P_6  and  O_26 
REMARK    6  A    between atoms: O_7  and  C_15 
REMARK    7  A    between atoms: C_13  and  N_22 
REMARK    8  A    between atoms: C_15  and  C_32 
ROOT
HETATM    1  C   UNL     1      18.061   0.437 114.681  1.00  0.00     0.300 C 
HETATM    2  P   UNL     1      15.705   1.638 114.444  1.00  0.00     0.414 P 
HETATM    3  C   UNL     1      16.143  -0.780 115.593  1.00  0.00     0.172 C 
HETATM    4  C   UNL     1      17.071  -3.000 115.444  1.00  0.00     0.233 C 
HETATM    5  C   UNL     1      17.643  -0.750 115.548  1.00  0.00     0.209 C 
HETATM    6  O   UNL     1      18.089  -2.041 115.131  1.00  0.00    -0.353 OA
HETATM    7  O   UNL     1      15.518  -0.027 114.559  1.00  0.00    -0.283 OA
HETATM    8  O   UNL     1      17.266   1.583 114.950  1.00  0.00    -0.257 OA
HETATM    9  C   UNL     1      15.752  -2.247 115.516  1.00  0.00     0.089 C 
ENDROOT
BRANCH   2  10
HETATM   10  O   UNL     1      16.214   3.232 114.704  1.00  0.00    -0.210 OA
BRANCH  10  11
HETATM   11  C   UNL     1      15.438   4.213 115.304  1.00  0.00     0.303 C 
HETATM   12  O   UNL     1      15.016   4.054 116.434  1.00  0.00    -0.259 OA
BRANCH  11  13
HETATM   13  C   UNL     1      15.065   5.308 114.459  1.00  0.00     0.050 C 
HETATM   14  C   UNL     1      14.716   5.291 113.083  1.00  0.00    -0.004 C 
HETATM   15  C   UNL     1      15.177   6.585 112.529  1.00  0.00     0.063 C 
HETATM   16  C   UNL     1      15.692   7.337 113.633  1.00  0.00    -0.061 C 
HETATM   17  C   UNL     1      16.583   8.457 113.919  1.00  0.00     0.043 C 
HETATM   18  C   UNL     1      15.451   6.604 114.805  1.00  0.00     0.028 C 
HETATM   19  C   UNL     1      16.760   8.460 115.431  1.00  0.00     0.088 C 
HETATM   20  C   UNL     1      15.965   7.281 115.937  1.00  0.00     0.161 C 
HETATM   21  O   UNL     1      15.928   6.972 117.141  1.00  0.00    -0.292 OA
ENDBRANCH  11  13
ENDBRANCH  10  11
ENDBRANCH   2  10
BRANCH   2  22
HETATM   22  O   UNL     1      15.927   1.746 112.917  1.00  0.00    -0.301 OA
ATOM     23  HO  UNL     1      16.012   2.692 112.956  1.00  0.00     0.223 HD
ENDBRANCH   2  22
BRANCH   2  24
HETATM   24  O   UNL     1      14.225   2.041 114.544  1.00  0.00    -0.301 OA
ATOM     25  HO  UNL     1      14.223   2.369 113.651  1.00  0.00     0.223 HD
ENDBRANCH   2  24
BRANCH   1  26
HETATM   26  O   UNL     1      18.004   0.091 113.309  1.00  0.00    -0.368 OA
ATOM     27  HO  UNL     1      17.407   0.668 112.846  1.00  0.00     0.212 HD
ENDBRANCH   1  26
BRANCH   4  28
HETATM   28  N   UNL     1      17.108  -4.004 114.382  1.00  0.00    -0.295 N 
HETATM   29  C   UNL     1      16.942  -5.363 114.544  1.00  0.00     0.100 C 
HETATM   30  C   UNL     1      16.854  -5.944 113.300  1.00  0.00     0.059 C 
HETATM   31  C   UNL     1      17.226  -4.961 112.363  1.00  0.00     0.135 C 
HETATM   32  C   UNL     1      17.177  -3.703 113.045  1.00  0.00     0.282 C 
HETATM   33  O   UNL     1      17.052  -2.576 112.569  1.00  0.00    -0.265 OA
BRANCH  31  34
HETATM   34  O   UNL     1      17.393  -5.119 111.041  1.00  0.00    -0.356 OA
ATOM     35  HO  UNL     1      17.120  -4.527 110.351  1.00  0.00     0.218 HD
ENDBRANCH  31  34
ENDBRANCH   4  28
TORSDOF 8
ENDMDL
