MODEL 1
REMARK VINA RESULT:      -7.6      0.000      0.000
REMARK  12 active torsions:
REMARK  status: ('A' for Active; 'I' for Inactive)
REMARK    1  A    between atoms: P_1  and  O_10 
REMARK    2  A    between atoms: P_1  and  O_31 
REMARK    3  A    between atoms: C_2  and  C_30 
REMARK    4  A    between atoms: P_3  and  O_31 
REMARK    5  A    between atoms: C_4  and  O_15 
REMARK    6  A    between atoms: O_5  and  C_28 
REMARK    7  A    between atoms: C_7  and  O_24 
REMARK    8  A    between atoms: O_9  and  C_20 
REMARK    9  A    between atoms: O_9  and  P_33 
REMARK   10  A    between atoms: O_10  and  C_13 
REMARK   11  A    between atoms: C_14  and  O_35 
REMARK   12  A    between atoms: O_21  and  C_27 
ROOT
HETATM    1  P   UNL     1      15.791  -0.180 116.456  1.00  0.00     0.416 P 
HETATM    2  O   UNL     1      16.664   0.836 117.122  1.00  0.00    -0.624 OA
HETATM    3  O   UNL     1      14.678  -0.726 117.265  1.00  0.00    -0.624 OA
ENDROOT
BRANCH   1   4
HETATM    4  O   UNL     1      16.697  -1.357 115.926  1.00  0.00    -0.279 OA
BRANCH   4   5
HETATM    5  C   UNL     1      17.865  -0.942 115.274  1.00  0.00     0.197 C 
HETATM    6  C   UNL     1      17.658  -0.834 113.774  1.00  0.00     0.182 C 
HETATM    7  C   UNL     1      18.780  -1.667 113.225  1.00  0.00     0.198 C 
HETATM    8  C   UNL     1      19.845  -1.646 114.270  1.00  0.00     0.181 C 
HETATM    9  C   UNL     1      19.077  -1.779 115.571  1.00  0.00     0.181 C 
BRANCH   6  10
HETATM   10  O   UNL     1      17.866   0.522 113.390  1.00  0.00    -0.390 OA
ATOM     11  HO  UNL     1      18.358   0.956 114.078  1.00  0.00     0.210 HD
ENDBRANCH   6  10
BRANCH   7  12
HETATM   12  O   UNL     1      18.621  -2.541 112.195  1.00  0.00    -0.272 OA
BRANCH  12  13
HETATM   13  P   UNL     1      17.655  -3.778 112.085  1.00  0.00     0.422 P 
HETATM   14  O   UNL     1      18.302  -4.848 111.276  1.00  0.00    -0.617 OA
HETATM   15  O   UNL     1      16.452  -3.180 111.420  1.00  0.00    -0.617 OA
HETATM   16  O   UNL     1      17.324  -4.217 113.486  1.00  0.00    -0.617 OA
ENDBRANCH  12  13
ENDBRANCH   7  12
BRANCH   8  17
HETATM   17  O   UNL     1      20.309  -0.280 114.302  1.00  0.00    -0.390 OA
ATOM     18  HO  UNL     1      19.575   0.188 114.682  1.00  0.00     0.210 HD
ENDBRANCH   8  17
BRANCH   9  19
HETATM   19  O   UNL     1      18.802  -3.143 115.837  1.00  0.00    -0.390 OA
ATOM     20  HO  UNL     1      19.002  -3.734 115.121  1.00  0.00     0.210 HD
ENDBRANCH   9  19
ENDBRANCH   4   5
ENDBRANCH   1   4
BRANCH   1  21
HETATM   21  O   UNL     1      15.181   0.411 115.158  1.00  0.00    -0.203 OA
BRANCH  21  22
HETATM   22  P   UNL     1      14.534   1.752 115.098  1.00  0.00     0.372 P 
HETATM   23  C   UNL     1      15.379   2.981 114.296  1.00  0.00     0.286 A 
HETATM   24  O   UNL     1      14.279   2.294 113.709  1.00  0.00    -0.289 OA
HETATM   25  O   UNL     1      13.526   2.022 116.076  1.00  0.00    -0.255 OA
BRANCH  23  26
HETATM   26  C   UNL     1      15.141   4.466 114.361  1.00  0.00     0.019 C 
HETATM   27  C   UNL     1      14.860   5.079 113.118  1.00  0.00     0.108 C 
HETATM   28  C   UNL     1      15.279   6.387 112.814  1.00  0.00     0.099 C 
HETATM   29  C   UNL     1      15.950   7.234 113.661  1.00  0.00     0.039 C 
HETATM   30  C   UNL     1      16.107   7.289 115.009  1.00  0.00     0.003 C 
HETATM   31  C   UNL     1      15.805   6.289 115.923  1.00  0.00     0.001 C 
HETATM   32  C   UNL     1      15.269   5.079 115.569  1.00  0.00     0.013 C 
BRANCH  27  33
HETATM   33  O   UNL     1      14.354   4.380 112.055  1.00  0.00    -0.357 OA
ATOM     34  HO  UNL     1      13.405   4.372 112.001  1.00  0.00     0.217 HD
ENDBRANCH  27  33
BRANCH  28  35
HETATM   35  O   UNL     1      15.001   6.815 111.553  1.00  0.00    -0.358 OA
ATOM     36  HO  UNL     1      14.660   7.699 111.486  1.00  0.00     0.217 HD
ENDBRANCH  28  35
ENDBRANCH  23  26
ENDBRANCH  21  22
ENDBRANCH   1  21
TORSDOF 12
ENDMDL
MODEL 2
REMARK VINA RESULT:      -7.6      2.484      8.237
REMARK  12 active torsions:
REMARK  status: ('A' for Active; 'I' for Inactive)
REMARK    1  A    between atoms: P_1  and  O_10 
REMARK    2  A    between atoms: P_1  and  O_31 
REMARK    3  A    between atoms: C_2  and  C_30 
REMARK    4  A    between atoms: P_3  and  O_31 
REMARK    5  A    between atoms: C_4  and  O_15 
REMARK    6  A    between atoms: O_5  and  C_28 
REMARK    7  A    between atoms: C_7  and  O_24 
REMARK    8  A    between atoms: O_9  and  C_20 
REMARK    9  A    between atoms: O_9  and  P_33 
REMARK   10  A    between atoms: O_10  and  C_13 
REMARK   11  A    between atoms: C_14  and  O_35 
REMARK   12  A    between atoms: O_21  and  C_27 
ROOT
HETATM    1  P   UNL     1      14.703   2.152 115.249  1.00  0.00     0.416 P 
HETATM    2  O   UNL     1      14.120   1.765 113.927  1.00  0.00    -0.624 OA
HETATM    3  O   UNL     1      13.926   1.772 116.450  1.00  0.00    -0.624 OA
ENDROOT
BRANCH   1   4
HETATM    4  O   UNL     1      14.966   3.707 115.250  1.00  0.00    -0.279 OA
BRANCH   4   5
HETATM    5  C   UNL     1      14.973   4.296 113.979  1.00  0.00     0.197 C 
HETATM    6  C   UNL     1      16.369   4.312 113.380  1.00  0.00     0.182 C 
HETATM    7  C   UNL     1      16.552   5.755 113.009  1.00  0.00     0.198 C 
HETATM    8  C   UNL     1      15.175   6.295 112.801  1.00  0.00     0.181 C 
HETATM    9  C   UNL     1      14.370   5.670 113.923  1.00  0.00     0.181 C 
BRANCH   6  10
HETATM   10  O   UNL     1      16.353   3.533 112.188  1.00  0.00    -0.390 OA
ATOM     11  HO  UNL     1      16.426   4.121 111.445  1.00  0.00     0.210 HD
ENDBRANCH   6  10
BRANCH   7  12
HETATM   12  O   UNL     1      17.704   6.440 113.236  1.00  0.00    -0.272 OA
BRANCH  12  13
HETATM   13  P   UNL     1      18.467   7.439 112.290  1.00  0.00     0.422 P 
HETATM   14  O   UNL     1      17.928   7.329 110.905  1.00  0.00    -0.617 OA
HETATM   15  O   UNL     1      19.885   6.966 112.411  1.00  0.00    -0.617 OA
HETATM   16  O   UNL     1      18.315   8.818 112.874  1.00  0.00    -0.617 OA
ENDBRANCH  12  13
ENDBRANCH   7  12
BRANCH   8  17
HETATM   17  O   UNL     1      14.682   5.615 111.627  1.00  0.00    -0.390 OA
ATOM     18  HO  UNL     1      15.284   5.895 110.947  1.00  0.00     0.210 HD
ENDBRANCH   8  17
BRANCH   9  19
HETATM   19  O   UNL     1      14.519   6.430 115.110  1.00  0.00    -0.390 OA
ATOM     20  HO  UNL     1      15.059   7.205 115.019  1.00  0.00     0.210 HD
ENDBRANCH   9  19
ENDBRANCH   4   5
ENDBRANCH   1   4
BRANCH   1  21
HETATM   21  O   UNL     1      16.124   1.551 115.400  1.00  0.00    -0.203 OA
BRANCH  21  22
HETATM   22  P   UNL     1      16.623   0.419 114.569  1.00  0.00     0.372 P 
HETATM   23  C   UNL     1      17.344  -0.878 115.385  1.00  0.00     0.286 A 
HETATM   24  O   UNL     1      16.017  -0.933 114.875  1.00  0.00    -0.289 OA
HETATM   25  O   UNL     1      16.878   0.699 113.190  1.00  0.00    -0.255 OA
BRANCH  23  26
HETATM   26  C   UNL     1      18.210  -1.969 114.814  1.00  0.00     0.019 C 
HETATM   27  C   UNL     1      19.280  -1.520 114.007  1.00  0.00     0.108 C 
HETATM   28  C   UNL     1      19.735  -2.246 112.891  1.00  0.00     0.099 C 
HETATM   29  C   UNL     1      19.257  -3.464 112.475  1.00  0.00     0.039 C 
HETATM   30  C   UNL     1      18.554  -4.457 113.079  1.00  0.00     0.003 C 
HETATM   31  C   UNL     1      17.883  -4.382 114.292  1.00  0.00     0.001 C 
HETATM   32  C   UNL     1      17.863  -3.258 115.075  1.00  0.00     0.013 C 
BRANCH  27  33
HETATM   33  O   UNL     1      19.803  -0.260 114.120  1.00  0.00    -0.357 OA
ATOM     34  HO  UNL     1      20.493  -0.060 113.497  1.00  0.00     0.217 HD
ENDBRANCH  27  33
BRANCH  28  35
HETATM   35  O   UNL     1      20.721  -1.653 112.166  1.00  0.00    -0.358 OA
ATOM     36  HO  UNL     1      21.606  -1.800 112.481  1.00  0.00     0.217 HD
ENDBRANCH  28  35
ENDBRANCH  23  26
ENDBRANCH  21  22
ENDBRANCH   1  21
TORSDOF 12
ENDMDL
MODEL 3
REMARK VINA RESULT:      -7.4      4.091      9.224
REMARK  12 active torsions:
REMARK  status: ('A' for Active; 'I' for Inactive)
REMARK    1  A    between atoms: P_1  and  O_10 
REMARK    2  A    between atoms: P_1  and  O_31 
REMARK    3  A    between atoms: C_2  and  C_30 
REMARK    4  A    between atoms: P_3  and  O_31 
REMARK    5  A    between atoms: C_4  and  O_15 
REMARK    6  A    between atoms: O_5  and  C_28 
REMARK    7  A    between atoms: C_7  and  O_24 
REMARK    8  A    between atoms: O_9  and  C_20 
REMARK    9  A    between atoms: O_9  and  P_33 
REMARK   10  A    between atoms: O_10  and  C_13 
REMARK   11  A    between atoms: C_14  and  O_35 
REMARK   12  A    between atoms: O_21  and  C_27 
ROOT
HETATM    1  P   UNL     1      16.709   5.755 112.403  1.00  0.00     0.416 P 
HETATM    2  O   UNL     1      17.842   5.092 113.118  1.00  0.00    -0.624 OA
HETATM    3  O   UNL     1      16.934   6.097 110.981  1.00  0.00    -0.624 OA
ENDROOT
BRANCH   1   4
HETATM    4  O   UNL     1      16.292   7.047 113.205  1.00  0.00    -0.279 OA
BRANCH   4   5
HETATM    5  C   UNL     1      16.767   7.092 114.522  1.00  0.00     0.197 C 
HETATM    6  C   UNL     1      15.651   7.392 115.508  1.00  0.00     0.182 C 
HETATM    7  C   UNL     1      16.196   8.561 116.276  1.00  0.00     0.198 C 
HETATM    8  C   UNL     1      17.681   8.450 116.178  1.00  0.00     0.181 C 
HETATM    9  C   UNL     1      17.918   8.033 114.740  1.00  0.00     0.181 C 
BRANCH   6  10
HETATM   10  O   UNL     1      15.525   6.283 116.393  1.00  0.00    -0.390 OA
ATOM     11  HO  UNL     1      15.086   6.579 117.182  1.00  0.00     0.210 HD
ENDBRANCH   6  10
BRANCH   7  12
HETATM   12  O   UNL     1      15.448   9.649 116.603  1.00  0.00    -0.272 OA
BRANCH  12  13
HETATM   13  P   UNL     1      15.879  11.159 116.692  1.00  0.00     0.422 P 
HETATM   14  O   UNL     1      16.755  11.361 117.880  1.00  0.00    -0.617 OA
HETATM   15  O   UNL     1      14.558  11.858 116.805  1.00  0.00    -0.617 OA
HETATM   16  O   UNL     1      16.557  11.510 115.394  1.00  0.00    -0.617 OA
ENDBRANCH  12  13
ENDBRANCH   7  12
BRANCH   8  17
HETATM   17  O   UNL     1      18.016   7.261 116.924  1.00  0.00    -0.390 OA
ATOM     18  HO  UNL     1      18.396   7.608 117.722  1.00  0.00     0.210 HD
ENDBRANCH   8  17
BRANCH   9  19
HETATM   19  O   UNL     1      17.918   9.171 113.896  1.00  0.00    -0.390 OA
ATOM     20  HO  UNL     1      18.634   9.202 113.273  1.00  0.00     0.210 HD
ENDBRANCH   9  19
ENDBRANCH   4   5
ENDBRANCH   1   4
BRANCH   1  21
HETATM   21  O   UNL     1      15.440   4.867 112.476  1.00  0.00    -0.203 OA
BRANCH  21  22
HETATM   22  P   UNL     1      15.431   3.508 113.089  1.00  0.00     0.372 P 
HETATM   23  C   UNL     1      15.126   3.414 114.752  1.00  0.00     0.286 A 
HETATM   24  O   UNL     1      14.141   3.107 113.770  1.00  0.00    -0.289 OA
HETATM   25  O   UNL     1      16.113   2.476 112.371  1.00  0.00    -0.255 OA
BRANCH  23  26
HETATM   26  C   UNL     1      15.374   2.253 115.677  1.00  0.00     0.019 C 
HETATM   27  C   UNL     1      14.263   1.867 116.461  1.00  0.00     0.108 C 
HETATM   28  C   UNL     1      14.403   1.370 117.770  1.00  0.00     0.099 C 
HETATM   29  C   UNL     1      15.590   1.153 118.424  1.00  0.00     0.039 C 
HETATM   30  C   UNL     1      16.876   0.991 118.016  1.00  0.00     0.003 C 
HETATM   31  C   UNL     1      17.389   1.263 116.756  1.00  0.00     0.001 C 
HETATM   32  C   UNL     1      16.628   1.727 115.716  1.00  0.00     0.013 C 
BRANCH  27  33
HETATM   33  O   UNL     1      12.975   2.146 116.092  1.00  0.00    -0.357 OA
ATOM     34  HO  UNL     1      12.311   1.800 116.677  1.00  0.00     0.217 HD
ENDBRANCH  27  33
BRANCH  28  35
HETATM   35  O   UNL     1      13.241   1.111 118.428  1.00  0.00    -0.358 OA
ATOM     36  HO  UNL     1      12.782   1.872 118.764  1.00  0.00     0.217 HD
ENDBRANCH  28  35
ENDBRANCH  23  26
ENDBRANCH  21  22
ENDBRANCH   1  21
TORSDOF 12
ENDMDL
MODEL 4
REMARK VINA RESULT:      -7.3      5.536      8.519
REMARK  12 active torsions:
REMARK  status: ('A' for Active; 'I' for Inactive)
REMARK    1  A    between atoms: P_1  and  O_10 
REMARK    2  A    between atoms: P_1  and  O_31 
REMARK    3  A    between atoms: C_2  and  C_30 
REMARK    4  A    between atoms: P_3  and  O_31 
REMARK    5  A    between atoms: C_4  and  O_15 
REMARK    6  A    between atoms: O_5  and  C_28 
REMARK    7  A    between atoms: C_7  and  O_24 
REMARK    8  A    between atoms: O_9  and  C_20 
REMARK    9  A    between atoms: O_9  and  P_33 
REMARK   10  A    between atoms: O_10  and  C_13 
REMARK   11  A    between atoms: C_14  and  O_35 
REMARK   12  A    between atoms: O_21  and  C_27 
ROOT
HETATM    1  P   UNL     1      18.018   8.203 113.968  1.00  0.00     0.416 P 
HETATM    2  O   UNL     1      19.128   8.089 114.964  1.00  0.00    -0.624 OA
HETATM    3  O   UNL     1      16.849   9.016 114.372  1.00  0.00    -0.624 OA
ENDROOT
BRANCH   1   4
HETATM    4  O   UNL     1      17.550   6.752 113.564  1.00  0.00    -0.279 OA
BRANCH   4   5
HETATM    5  C   UNL     1      16.203   6.481 113.834  1.00  0.00     0.197 C 
HETATM    6  C   UNL     1      16.052   5.473 114.959  1.00  0.00     0.182 C 
HETATM    7  C   UNL     1      15.158   4.430 114.351  1.00  0.00     0.198 C 
HETATM    8  C   UNL     1      14.380   5.137 113.291  1.00  0.00     0.181 C 
HETATM    9  C   UNL     1      15.401   6.047 112.639  1.00  0.00     0.181 C 
BRANCH   6  10
HETATM   10  O   UNL     1      15.356   6.100 116.032  1.00  0.00    -0.390 OA
ATOM     11  HO  UNL     1      15.294   7.029 115.845  1.00  0.00     0.210 HD
ENDBRANCH   6  10
BRANCH   7  12
HETATM   12  O   UNL     1      15.366   3.095 114.500  1.00  0.00    -0.272 OA
BRANCH  12  13
HETATM   13  P   UNL     1      16.524   2.201 113.922  1.00  0.00     0.422 P 
HETATM   14  O   UNL     1      15.983   0.869 113.532  1.00  0.00    -0.617 OA
HETATM   15  O   UNL     1      17.479   2.136 115.076  1.00  0.00    -0.617 OA
HETATM   16  O   UNL     1      17.137   2.949 112.767  1.00  0.00    -0.617 OA
ENDBRANCH  12  13
ENDBRANCH   7  12
BRANCH   8  17
HETATM   17  O   UNL     1      13.529   6.058 114.006  1.00  0.00    -0.390 OA
ATOM     18  HO  UNL     1      13.416   6.771 113.388  1.00  0.00     0.210 HD
ENDBRANCH   8  17
BRANCH   9  19
HETATM   19  O   UNL     1      16.137   5.332 111.662  1.00  0.00    -0.390 OA
ATOM     20  HO  UNL     1      15.825   5.444 110.772  1.00  0.00     0.210 HD
ENDBRANCH   9  19
ENDBRANCH   4   5
ENDBRANCH   1   4
BRANCH   1  21
HETATM   21  O   UNL     1      18.557   8.786 112.635  1.00  0.00    -0.203 OA
BRANCH  21  22
HETATM   22  P   UNL     1      19.053   7.936 111.516  1.00  0.00     0.372 P 
HETATM   23  C   UNL     1      20.658   8.163 111.029  1.00  0.00     0.286 A 
HETATM   24  O   UNL     1      20.247   7.065 111.836  1.00  0.00    -0.289 OA
HETATM   25  O   UNL     1      18.062   7.360 110.660  1.00  0.00    -0.255 OA
BRANCH  23  26
HETATM   26  C   UNL     1      21.316   7.705 109.754  1.00  0.00     0.019 C 
HETATM   27  C   UNL     1      22.453   6.884 109.932  1.00  0.00     0.108 C 
HETATM   28  C   UNL     1      23.552   6.923 109.053  1.00  0.00     0.099 C 
HETATM   29  C   UNL     1      23.650   7.695 107.922  1.00  0.00     0.039 C 
HETATM   30  C   UNL     1      22.744   8.322 107.128  1.00  0.00     0.003 C 
HETATM   31  C   UNL     1      21.407   8.558 107.416  1.00  0.00     0.001 C 
HETATM   32  C   UNL     1      20.803   8.154 108.577  1.00  0.00     0.013 C 
BRANCH  27  33
HETATM   33  O   UNL     1      22.661   6.158 111.073  1.00  0.00    -0.357 OA
ATOM     34  HO  UNL     1      22.207   5.323 111.100  1.00  0.00     0.217 HD
ENDBRANCH  27  33
BRANCH  28  35
HETATM   35  O   UNL     1      24.604   6.132 109.394  1.00  0.00    -0.358 OA
ATOM     36  HO  UNL     1      25.170   6.473 110.077  1.00  0.00     0.217 HD
ENDBRANCH  28  35
ENDBRANCH  23  26
ENDBRANCH  21  22
ENDBRANCH   1  21
TORSDOF 12
ENDMDL
MODEL 5
REMARK VINA RESULT:      -7.2      4.107      8.390
REMARK  12 active torsions:
REMARK  status: ('A' for Active; 'I' for Inactive)
REMARK    1  A    between atoms: P_1  and  O_10 
REMARK    2  A    between atoms: P_1  and  O_31 
REMARK    3  A    between atoms: C_2  and  C_30 
REMARK    4  A    between atoms: P_3  and  O_31 
REMARK    5  A    between atoms: C_4  and  O_15 
REMARK    6  A    between atoms: O_5  and  C_28 
REMARK    7  A    between atoms: C_7  and  O_24 
REMARK    8  A    between atoms: O_9  and  C_20 
REMARK    9  A    between atoms: O_9  and  P_33 
REMARK   10  A    between atoms: O_10  and  C_13 
REMARK   11  A    between atoms: C_14  and  O_35 
REMARK   12  A    between atoms: O_21  and  C_27 
ROOT
HETATM    1  P   UNL     1      15.975   5.909 112.181  1.00  0.00     0.416 P 
HETATM    2  O   UNL     1      17.058   5.695 111.173  1.00  0.00    -0.624 OA
HETATM    3  O   UNL     1      15.077   7.063 111.952  1.00  0.00    -0.624 OA
ENDROOT
BRANCH   1   4
HETATM    4  O   UNL     1      16.630   6.014 113.612  1.00  0.00    -0.279 OA
BRANCH   4   5
HETATM    5  C   UNL     1      16.848   7.325 114.056  1.00  0.00     0.197 C 
HETATM    6  C   UNL     1      18.268   7.515 114.558  1.00  0.00     0.182 C 
HETATM    7  C   UNL     1      18.059   8.095 115.928  1.00  0.00     0.198 C 
HETATM    8  C   UNL     1      16.728   8.768 115.880  1.00  0.00     0.181 C 
HETATM    9  C   UNL     1      15.865   7.807 115.086  1.00  0.00     0.181 C 
BRANCH   6  10
HETATM   10  O   UNL     1      18.905   8.492 113.741  1.00  0.00    -0.390 OA
ATOM     11  HO  UNL     1      18.560   8.416 112.859  1.00  0.00     0.210 HD
ENDBRANCH   6  10
BRANCH   7  12
HETATM   12  O   UNL     1      18.771   7.701 117.017  1.00  0.00    -0.272 OA
BRANCH  12  13
HETATM   13  P   UNL     1      18.266   6.993 118.328  1.00  0.00     0.422 P 
HETATM   14  O   UNL     1      17.103   6.118 118.010  1.00  0.00    -0.617 OA
HETATM   15  O   UNL     1      17.907   8.160 119.199  1.00  0.00    -0.617 OA
HETATM   16  O   UNL     1      19.432   6.237 118.908  1.00  0.00    -0.617 OA
ENDBRANCH  12  13
ENDBRANCH   7  12
BRANCH   8  17
HETATM   17  O   UNL     1      16.903   9.877 114.973  1.00  0.00    -0.390 OA
ATOM     18  HO  UNL     1      17.722   9.673 114.539  1.00  0.00     0.210 HD
ENDBRANCH   8  17
BRANCH   9  19
HETATM   19  O   UNL     1      15.355   6.794 115.936  1.00  0.00    -0.390 OA
ATOM     20  HO  UNL     1      15.949   6.069 116.088  1.00  0.00     0.210 HD
ENDBRANCH   9  19
ENDBRANCH   4   5
ENDBRANCH   1   4
BRANCH   1  21
HETATM   21  O   UNL     1      15.089   4.640 112.289  1.00  0.00    -0.203 OA
BRANCH  21  22
HETATM   22  P   UNL     1      15.456   3.460 113.122  1.00  0.00     0.372 P 
HETATM   23  C   UNL     1      14.646   3.276 114.598  1.00  0.00     0.286 A 
HETATM   24  O   UNL     1      14.323   2.509 113.443  1.00  0.00    -0.289 OA
HETATM   25  O   UNL     1      16.728   2.861 112.861  1.00  0.00    -0.255 OA
BRANCH  23  26
HETATM   26  C   UNL     1      15.025   2.401 115.762  1.00  0.00     0.019 C 
HETATM   27  C   UNL     1      15.380   3.097 116.940  1.00  0.00     0.108 C 
HETATM   28  C   UNL     1      16.362   2.620 117.828  1.00  0.00     0.099 C 
HETATM   29  C   UNL     1      17.050   1.438 117.706  1.00  0.00     0.039 C 
HETATM   30  C   UNL     1      16.829   0.285 117.023  1.00  0.00     0.003 C 
HETATM   31  C   UNL     1      15.903   0.083 116.009  1.00  0.00     0.001 C 
HETATM   32  C   UNL     1      15.045   1.054 115.567  1.00  0.00     0.013 C 
BRANCH  27  33
HETATM   33  O   UNL     1      14.956   4.374 117.192  1.00  0.00    -0.357 OA
ATOM     34  HO  UNL     1      14.263   4.442 117.838  1.00  0.00     0.217 HD
ENDBRANCH  27  33
BRANCH  28  35
HETATM   35  O   UNL     1      16.649   3.434 118.879  1.00  0.00    -0.358 OA
ATOM     36  HO  UNL     1      16.041   4.149 119.022  1.00  0.00     0.217 HD
ENDBRANCH  28  35
ENDBRANCH  23  26
ENDBRANCH  21  22
ENDBRANCH   1  21
TORSDOF 12
ENDMDL
MODEL 6
REMARK VINA RESULT:      -7.2      2.006      2.718
REMARK  12 active torsions:
REMARK  status: ('A' for Active; 'I' for Inactive)
REMARK    1  A    between atoms: P_1  and  O_10 
REMARK    2  A    between atoms: P_1  and  O_31 
REMARK    3  A    between atoms: C_2  and  C_30 
REMARK    4  A    between atoms: P_3  and  O_31 
REMARK    5  A    between atoms: C_4  and  O_15 
REMARK    6  A    between atoms: O_5  and  C_28 
REMARK    7  A    between atoms: C_7  and  O_24 
REMARK    8  A    between atoms: O_9  and  C_20 
REMARK    9  A    between atoms: O_9  and  P_33 
REMARK   10  A    between atoms: O_10  and  C_13 
REMARK   11  A    between atoms: C_14  and  O_35 
REMARK   12  A    between atoms: O_21  and  C_27 
ROOT
HETATM    1  P   UNL     1      14.879   1.730 115.216  1.00  0.00     0.416 P 
HETATM    2  O   UNL     1      14.046   1.936 116.441  1.00  0.00    -0.624 OA
HETATM    3  O   UNL     1      14.166   1.756 113.920  1.00  0.00    -0.624 OA
ENDROOT
BRANCH   1   4
HETATM    4  O   UNL     1      15.672   0.374 115.366  1.00  0.00    -0.279 OA
BRANCH   4   5
HETATM    5  C   UNL     1      17.017   0.443 114.983  1.00  0.00     0.197 C 
HETATM    6  C   UNL     1      17.179   0.280 113.482  1.00  0.00     0.182 C 
HETATM    7  C   UNL     1      18.188  -0.826 113.376  1.00  0.00     0.198 C 
HETATM    8  C   UNL     1      18.972  -0.778 114.646  1.00  0.00     0.181 C 
HETATM    9  C   UNL     1      17.923  -0.512 115.708  1.00  0.00     0.181 C 
BRANCH   6  10
HETATM   10  O   UNL     1      17.755   1.475 112.961  1.00  0.00    -0.390 OA
ATOM     11  HO  UNL     1      17.636   1.478 112.019  1.00  0.00     0.210 HD
ENDBRANCH   6  10
BRANCH   7  12
HETATM   12  O   UNL     1      18.079  -1.849 112.488  1.00  0.00    -0.272 OA
BRANCH  12  13
HETATM   13  P   UNL     1      17.485  -3.290 112.703  1.00  0.00     0.422 P 
HETATM   14  O   UNL     1      16.330  -3.222 113.641  1.00  0.00    -0.617 OA
HETATM   15  O   UNL     1      18.659  -4.035 113.263  1.00  0.00    -0.617 OA
HETATM   16  O   UNL     1      17.112  -3.830 111.347  1.00  0.00    -0.617 OA
ENDBRANCH  12  13
ENDBRANCH   7  12
BRANCH   8  17
HETATM   17  O   UNL     1      19.701   0.467 114.587  1.00  0.00    -0.390 OA
ATOM     18  HO  UNL     1      20.606   0.184 114.529  1.00  0.00     0.210 HD
ENDBRANCH   8  17
BRANCH   9  19
HETATM   19  O   UNL     1      17.309  -1.727 116.100  1.00  0.00    -0.390 OA
ATOM     20  HO  UNL     1      16.493  -1.623 116.576  1.00  0.00     0.210 HD
ENDBRANCH   9  19
ENDBRANCH   4   5
ENDBRANCH   1   4
BRANCH   1  21
HETATM   21  O   UNL     1      16.006   2.794 115.153  1.00  0.00    -0.203 OA
BRANCH  21  22
HETATM   22  P   UNL     1      15.828   4.131 114.519  1.00  0.00     0.372 P 
HETATM   23  C   UNL     1      17.173   4.796 113.734  1.00  0.00     0.286 A 
HETATM   24  O   UNL     1      16.094   4.189 113.031  1.00  0.00    -0.289 OA
HETATM   25  O   UNL     1      14.743   4.929 114.998  1.00  0.00    -0.255 OA
BRANCH  23  26
HETATM   26  C   UNL     1      17.387   6.224 113.306  1.00  0.00     0.019 C 
HETATM   27  C   UNL     1      17.656   6.400 111.930  1.00  0.00     0.108 C 
HETATM   28  C   UNL     1      18.518   7.407 111.456  1.00  0.00     0.099 C 
HETATM   29  C   UNL     1      19.152   8.350 112.226  1.00  0.00     0.039 C 
HETATM   30  C   UNL     1      18.941   8.846 113.473  1.00  0.00     0.003 C 
HETATM   31  C   UNL     1      18.112   8.314 114.451  1.00  0.00     0.001 C 
HETATM   32  C   UNL     1      17.355   7.187 114.266  1.00  0.00     0.013 C 
BRANCH  27  33
HETATM   33  O   UNL     1      17.276   5.483 110.986  1.00  0.00    -0.357 OA
ATOM     34  HO  UNL     1      17.923   4.811 110.804  1.00  0.00     0.217 HD
ENDBRANCH  27  33
BRANCH  28  35
HETATM   35  O   UNL     1      18.740   7.406 110.114  1.00  0.00    -0.358 OA
ATOM     36  HO  UNL     1      19.164   6.629 109.769  1.00  0.00     0.217 HD
ENDBRANCH  28  35
ENDBRANCH  23  26
ENDBRANCH  21  22
ENDBRANCH   1  21
TORSDOF 12
ENDMDL
MODEL 7
REMARK VINA RESULT:      -7.2      5.127      8.141
REMARK  12 active torsions:
REMARK  status: ('A' for Active; 'I' for Inactive)
REMARK    1  A    between atoms: P_1  and  O_10 
REMARK    2  A    between atoms: P_1  and  O_31 
REMARK    3  A    between atoms: C_2  and  C_30 
REMARK    4  A    between atoms: P_3  and  O_31 
REMARK    5  A    between atoms: C_4  and  O_15 
REMARK    6  A    between atoms: O_5  and  C_28 
REMARK    7  A    between atoms: C_7  and  O_24 
REMARK    8  A    between atoms: O_9  and  C_20 
REMARK    9  A    between atoms: O_9  and  P_33 
REMARK   10  A    between atoms: O_10  and  C_13 
REMARK   11  A    between atoms: C_14  and  O_35 
REMARK   12  A    between atoms: O_21  and  C_27 
ROOT
HETATM    1  P   UNL     1      16.723   7.920 113.255  1.00  0.00     0.416 P 
HETATM    2  O   UNL     1      16.464   8.695 114.507  1.00  0.00    -0.624 OA
HETATM    3  O   UNL     1      15.754   8.104 112.152  1.00  0.00    -0.624 OA
ENDROOT
BRANCH   1   4
HETATM    4  O   UNL     1      16.836   6.390 113.622  1.00  0.00    -0.279 OA
BRANCH   4   5
HETATM    5  C   UNL     1      15.758   5.608 113.187  1.00  0.00     0.197 C 
HETATM    6  C   UNL     1      14.780   5.330 114.316  1.00  0.00     0.182 C 
HETATM    7  C   UNL     1      14.652   3.834 114.281  1.00  0.00     0.198 C 
HETATM    8  C   UNL     1      14.975   3.436 112.878  1.00  0.00     0.181 C 
HETATM    9  C   UNL     1      16.149   4.324 112.513  1.00  0.00     0.181 C 
BRANCH   6  10
HETATM   10  O   UNL     1      13.523   5.904 113.971  1.00  0.00    -0.390 OA
ATOM     11  HO  UNL     1      13.393   5.799 113.035  1.00  0.00     0.210 HD
ENDBRANCH   6  10
BRANCH   7  12
HETATM   12  O   UNL     1      14.647   3.063 115.400  1.00  0.00    -0.272 OA
BRANCH  12  13
HETATM   13  P   UNL     1      15.035   1.547 115.561  1.00  0.00     0.422 P 
HETATM   14  O   UNL     1      14.648   0.796 114.334  1.00  0.00    -0.617 OA
HETATM   15  O   UNL     1      14.249   1.147 116.773  1.00  0.00    -0.617 OA
HETATM   16  O   UNL     1      16.513   1.489 115.845  1.00  0.00    -0.617 OA
ENDBRANCH  12  13
ENDBRANCH   7  12
BRANCH   8  17
HETATM   17  O   UNL     1      13.898   3.972 112.081  1.00  0.00    -0.390 OA
ATOM     18  HO  UNL     1      13.152   3.921 112.666  1.00  0.00     0.210 HD
ENDBRANCH   8  17
BRANCH   9  19
HETATM   19  O   UNL     1      17.357   3.753 112.984  1.00  0.00    -0.390 OA
ATOM     20  HO  UNL     1      17.809   3.206 112.353  1.00  0.00     0.210 HD
ENDBRANCH   9  19
ENDBRANCH   4   5
ENDBRANCH   1   4
BRANCH   1  21
HETATM   21  O   UNL     1      18.133   8.256 112.702  1.00  0.00    -0.203 OA
BRANCH  21  22
HETATM   22  P   UNL     1      18.875   7.366 111.765  1.00  0.00     0.372 P 
HETATM   23  C   UNL     1      20.513   7.708 111.510  1.00  0.00     0.286 A 
HETATM   24  O   UNL     1      20.071   6.650 112.353  1.00  0.00    -0.289 OA
HETATM   25  O   UNL     1      18.088   6.620 110.832  1.00  0.00    -0.255 OA
BRANCH  23  26
HETATM   26  C   UNL     1      21.405   7.209 110.405  1.00  0.00     0.019 C 
HETATM   27  C   UNL     1      22.578   6.550 110.838  1.00  0.00     0.108 C 
HETATM   28  C   UNL     1      23.791   6.632 110.129  1.00  0.00     0.099 C 
HETATM   29  C   UNL     1      23.986   7.295 108.944  1.00  0.00     0.039 C 
HETATM   30  C   UNL     1      23.156   7.730 107.959  1.00  0.00     0.003 C 
HETATM   31  C   UNL     1      21.773   7.834 108.022  1.00  0.00     0.001 C 
HETATM   32  C   UNL     1      21.039   7.476 109.122  1.00  0.00     0.013 C 
BRANCH  27  33
HETATM   33  O   UNL     1      22.677   5.969 112.074  1.00  0.00    -0.357 OA
ATOM     34  HO  UNL     1      23.296   5.250 112.125  1.00  0.00     0.217 HD
ENDBRANCH  27  33
BRANCH  28  35
HETATM   35  O   UNL     1      24.852   6.008 110.707  1.00  0.00    -0.358 OA
ATOM     36  HO  UNL     1      25.592   6.566 110.918  1.00  0.00     0.217 HD
ENDBRANCH  28  35
ENDBRANCH  23  26
ENDBRANCH  21  22
ENDBRANCH   1  21
TORSDOF 12
ENDMDL
MODEL 8
REMARK VINA RESULT:      -7.1      2.299      7.252
REMARK  12 active torsions:
REMARK  status: ('A' for Active; 'I' for Inactive)
REMARK    1  A    between atoms: P_1  and  O_10 
REMARK    2  A    between atoms: P_1  and  O_31 
REMARK    3  A    between atoms: C_2  and  C_30 
REMARK    4  A    between atoms: P_3  and  O_31 
REMARK    5  A    between atoms: C_4  and  O_15 
REMARK    6  A    between atoms: O_5  and  C_28 
REMARK    7  A    between atoms: C_7  and  O_24 
REMARK    8  A    between atoms: O_9  and  C_20 
REMARK    9  A    between atoms: O_9  and  P_33 
REMARK   10  A    between atoms: O_10  and  C_13 
REMARK   11  A    between atoms: C_14  and  O_35 
REMARK   12  A    between atoms: O_21  and  C_27 
ROOT
HETATM    1  P   UNL     1      14.561   0.872 117.709  1.00  0.00     0.416 P 
HETATM    2  O   UNL     1      13.170   1.257 118.102  1.00  0.00    -0.624 OA
HETATM    3  O   UNL     1      15.624   1.128 118.706  1.00  0.00    -0.624 OA
ENDROOT
BRANCH   1   4
HETATM    4  O   UNL     1      14.918   1.586 116.348  1.00  0.00    -0.279 OA
BRANCH   4   5
HETATM    5  C   UNL     1      15.762   2.696 116.479  1.00  0.00     0.197 C 
HETATM    6  C   UNL     1      15.040   3.988 116.141  1.00  0.00     0.182 C 
HETATM    7  C   UNL     1      15.943   4.613 115.118  1.00  0.00     0.198 C 
HETATM    8  C   UNL     1      17.303   4.062 115.392  1.00  0.00     0.181 C 
HETATM    9  C   UNL     1      17.045   2.601 115.703  1.00  0.00     0.181 C 
BRANCH   6  10
HETATM   10  O   UNL     1      15.028   4.812 117.303  1.00  0.00    -0.390 OA
ATOM     11  HO  UNL     1      15.926   4.952 117.580  1.00  0.00     0.210 HD
ENDBRANCH   6  10
BRANCH   7  12
HETATM   12  O   UNL     1      15.484   5.207 113.984  1.00  0.00    -0.272 OA
BRANCH  12  13
HETATM   13  P   UNL     1      15.398   4.626 112.525  1.00  0.00     0.422 P 
HETATM   14  O   UNL     1      16.712   4.038 112.141  1.00  0.00    -0.617 OA
HETATM   15  O   UNL     1      15.037   5.840 111.723  1.00  0.00    -0.617 OA
HETATM   16  O   UNL     1      14.275   3.623 112.505  1.00  0.00    -0.617 OA
ENDBRANCH  12  13
ENDBRANCH   7  12
BRANCH   8  17
HETATM   17  O   UNL     1      17.675   4.609 116.675  1.00  0.00    -0.390 OA
ATOM     18  HO  UNL     1      16.965   4.331 117.242  1.00  0.00     0.210 HD
ENDBRANCH   8  17
BRANCH   9  19
HETATM   19  O   UNL     1      16.954   1.856 114.501  1.00  0.00    -0.390 OA
ATOM     20  HO  UNL     1      17.242   0.954 114.571  1.00  0.00     0.210 HD
ENDBRANCH   9  19
ENDBRANCH   4   5
ENDBRANCH   1   4
BRANCH   1  21
HETATM   21  O   UNL     1      14.613  -0.634 117.343  1.00  0.00    -0.203 OA
BRANCH  21  22
HETATM   22  P   UNL     1      15.883  -1.357 117.044  1.00  0.00     0.372 P 
HETATM   23  C   UNL     1      16.331  -1.486 115.417  1.00  0.00     0.286 A 
HETATM   24  O   UNL     1      16.934  -0.555 116.309  1.00  0.00    -0.289 OA
HETATM   25  O   UNL     1      16.362  -2.254 118.050  1.00  0.00    -0.255 OA
BRANCH  23  26
HETATM   26  C   UNL     1      17.348  -2.412 114.804  1.00  0.00     0.019 C 
HETATM   27  C   UNL     1      18.304  -1.783 113.976  1.00  0.00     0.108 C 
HETATM   28  C   UNL     1      18.840  -2.411 112.836  1.00  0.00     0.099 C 
HETATM   29  C   UNL     1      18.557  -3.686 112.413  1.00  0.00     0.039 C 
HETATM   30  C   UNL     1      18.046  -4.789 113.020  1.00  0.00     0.003 C 
HETATM   31  C   UNL     1      17.409  -4.840 114.252  1.00  0.00     0.001 C 
HETATM   32  C   UNL     1      17.226  -3.744 115.053  1.00  0.00     0.013 C 
BRANCH  27  33
HETATM   33  O   UNL     1      18.616  -0.455 114.095  1.00  0.00    -0.357 OA
ATOM     34  HO  UNL     1      18.299   0.092 113.386  1.00  0.00     0.217 HD
ENDBRANCH  27  33
BRANCH  28  35
HETATM   35  O   UNL     1      19.693  -1.654 112.094  1.00  0.00    -0.358 OA
ATOM     36  HO  UNL     1      19.638  -1.777 111.154  1.00  0.00     0.217 HD
ENDBRANCH  28  35
ENDBRANCH  23  26
ENDBRANCH  21  22
ENDBRANCH   1  21
TORSDOF 12
ENDMDL
MODEL 9
REMARK VINA RESULT:      -7.1      1.520      2.380
REMARK  12 active torsions:
REMARK  status: ('A' for Active; 'I' for Inactive)
REMARK    1  A    between atoms: P_1  and  O_10 
REMARK    2  A    between atoms: P_1  and  O_31 
REMARK    3  A    between atoms: C_2  and  C_30 
REMARK    4  A    between atoms: P_3  and  O_31 
REMARK    5  A    between atoms: C_4  and  O_15 
REMARK    6  A    between atoms: O_5  and  C_28 
REMARK    7  A    between atoms: C_7  and  O_24 
REMARK    8  A    between atoms: O_9  and  C_20 
REMARK    9  A    between atoms: O_9  and  P_33 
REMARK   10  A    between atoms: O_10  and  C_13 
REMARK   11  A    between atoms: C_14  and  O_35 
REMARK   12  A    between atoms: O_21  and  C_27 
ROOT
HETATM    1  P   UNL     1      16.156  -0.057 117.070  1.00  0.00     0.416 P 
HETATM    2  O   UNL     1      16.482   1.241 117.738  1.00  0.00    -0.624 OA
HETATM    3  O   UNL     1      15.457  -1.067 117.896  1.00  0.00    -0.624 OA
ENDROOT
BRANCH   1   4
HETATM    4  O   UNL     1      17.484  -0.671 116.482  1.00  0.00    -0.279 OA
BRANCH   4   5
HETATM    5  C   UNL     1      17.386  -1.104 115.153  1.00  0.00     0.197 C 
HETATM    6  C   UNL     1      17.586  -2.604 115.039  1.00  0.00     0.182 C 
HETATM    7  C   UNL     1      18.664  -2.716 114.000  1.00  0.00     0.198 C 
HETATM    8  C   UNL     1      18.555  -1.476 113.174  1.00  0.00     0.181 C 
HETATM    9  C   UNL     1      18.291  -0.386 114.193  1.00  0.00     0.181 C 
BRANCH   6  10
HETATM   10  O   UNL     1      16.390  -3.178 114.520  1.00  0.00    -0.390 OA
ATOM     11  HO  UNL     1      16.222  -2.796 113.666  1.00  0.00     0.210 HD
ENDBRANCH   6  10
BRANCH   7  12
HETATM   12  O   UNL     1      19.715  -3.571 114.108  1.00  0.00    -0.272 OA
BRANCH  12  13
HETATM   13  P   UNL     1      21.250  -3.246 114.224  1.00  0.00     0.422 P 
HETATM   14  O   UNL     1      21.989  -4.467 114.652  1.00  0.00    -0.617 OA
HETATM   15  O   UNL     1      21.265  -2.156 115.252  1.00  0.00    -0.617 OA
HETATM   16  O   UNL     1      21.702  -2.722 112.887  1.00  0.00    -0.617 OA
ENDBRANCH  12  13
ENDBRANCH   7  12
BRANCH   8  17
HETATM   17  O   UNL     1      17.291  -1.596 112.488  1.00  0.00    -0.390 OA
ATOM     18  HO  UNL     1      16.995  -0.696 112.424  1.00  0.00     0.210 HD
ENDBRANCH   8  17
BRANCH   9  19
HETATM   19  O   UNL     1      19.512   0.062 114.755  1.00  0.00    -0.390 OA
ATOM     20  HO  UNL     1      19.624  -0.144 115.675  1.00  0.00     0.210 HD
ENDBRANCH   9  19
ENDBRANCH   4   5
ENDBRANCH   1   4
BRANCH   1  21
HETATM   21  O   UNL     1      15.292   0.196 115.807  1.00  0.00    -0.203 OA
BRANCH  21  22
HETATM   22  P   UNL     1      14.604   1.490 115.536  1.00  0.00     0.372 P 
HETATM   23  C   UNL     1      15.404   2.594 114.533  1.00  0.00     0.286 A 
HETATM   24  O   UNL     1      14.321   1.788 114.081  1.00  0.00    -0.289 OA
HETATM   25  O   UNL     1      13.596   1.887 116.470  1.00  0.00    -0.255 OA
BRANCH  23  26
HETATM   26  C   UNL     1      15.122   4.062 114.356  1.00  0.00     0.019 C 
HETATM   27  C   UNL     1      14.840   4.458 113.028  1.00  0.00     0.108 C 
HETATM   28  C   UNL     1      15.224   5.714 112.521  1.00  0.00     0.099 C 
HETATM   29  C   UNL     1      15.857   6.706 113.228  1.00  0.00     0.039 C 
HETATM   30  C   UNL     1      15.995   6.981 114.551  1.00  0.00     0.003 C 
HETATM   31  C   UNL     1      15.710   6.131 115.611  1.00  0.00     0.001 C 
HETATM   32  C   UNL     1      15.214   4.865 115.450  1.00  0.00     0.013 C 
BRANCH  27  33
HETATM   33  O   UNL     1      14.369   3.583 112.087  1.00  0.00    -0.357 OA
ATOM     34  HO  UNL     1      14.763   3.675 111.227  1.00  0.00     0.217 HD
ENDBRANCH  27  33
BRANCH  28  35
HETATM   35  O   UNL     1      14.951   5.925 111.206  1.00  0.00    -0.358 OA
ATOM     36  HO  UNL     1      14.066   6.211 111.012  1.00  0.00     0.217 HD
ENDBRANCH  28  35
ENDBRANCH  23  26
ENDBRANCH  21  22
ENDBRANCH   1  21
TORSDOF 12
ENDMDL
