MODEL 1
REMARK VINA RESULT:      -4.9      0.000      0.000
REMARK  5 active torsions:
REMARK  status: ('A' for Active; 'I' for Inactive)
REMARK    1  A    between atoms: O_1  and  C_11 
REMARK    2  A    between atoms: C_6  and  O_17 
REMARK    3  A    between atoms: C_7  and  O_15 
REMARK    4  A    between atoms: O_8  and  C_10 
REMARK    5  A    between atoms: C_10  and  O_12 
ROOT
HETATM    1  C   UNL     1     -15.824  12.934  39.872  1.00  0.00     0.079 C 
HETATM    2  O   UNL     1     -16.570  11.331  41.518  1.00  0.00    -0.291 OA
HETATM    3  C   UNL     1     -14.230  13.168  41.683  1.00  0.00     0.045 C 
HETATM    4  C   UNL     1     -16.645  13.785  41.978  1.00  0.00     0.215 C 
HETATM    5  C   UNL     1     -15.595  11.574  40.514  1.00  0.00     0.194 C 
HETATM    6  C   UNL     1     -17.219  12.384  42.243  1.00  0.00     0.308 C 
HETATM    7  C   UNL     1     -14.261  11.701  41.257  1.00  0.00     0.181 C 
HETATM    8  C   UNL     1     -15.447  13.836  41.057  1.00  0.00     0.030 C 
ENDROOT
BRANCH   6   9
HETATM    9  O   UNL     1     -17.184  12.077  43.564  1.00  0.00    -0.341 OA
ATOM     10  HO  UNL     1     -17.527  11.198  43.675  1.00  0.00     0.215 HD
ENDBRANCH   6   9
BRANCH   6  11
HETATM   11  O   UNL     1     -18.567  12.471  41.863  1.00  0.00    -0.341 OA
ATOM     12  HO  UNL     1     -18.671  12.195  40.960  1.00  0.00     0.215 HD
ENDBRANCH   6  11
BRANCH   4  13
HETATM   13  O   UNL     1     -16.643  14.596  43.138  1.00  0.00    -0.387 OA
ATOM     14  HO  UNL     1     -15.994  14.318  43.773  1.00  0.00     0.210 HD
ENDBRANCH   4  13
BRANCH   5  15
HETATM   15  O   UNL     1     -15.562  10.509  39.591  1.00  0.00    -0.363 OA
ATOM     16  HO  UNL     1     -16.417  10.142  39.398  1.00  0.00     0.213 HD
ENDBRANCH   5  15
BRANCH   7  17
HETATM   17  O   UNL     1     -13.184  11.430  40.371  1.00  0.00    -0.390 OA
ATOM     18  HO  UNL     1     -12.355  11.556  40.819  1.00  0.00     0.210 HD
ENDBRANCH   7  17
TORSDOF 5
ENDMDL
MODEL 2
REMARK VINA RESULT:      -4.8      1.438      3.622
REMARK  5 active torsions:
REMARK  status: ('A' for Active; 'I' for Inactive)
REMARK    1  A    between atoms: O_1  and  C_11 
REMARK    2  A    between atoms: C_6  and  O_17 
REMARK    3  A    between atoms: C_7  and  O_15 
REMARK    4  A    between atoms: O_8  and  C_10 
REMARK    5  A    between atoms: C_10  and  O_12 
ROOT
HETATM    1  C   UNL     1     -15.892  12.560  42.678  1.00  0.00     0.079 C 
HETATM    2  O   UNL     1     -15.826  11.580  40.472  1.00  0.00    -0.291 OA
HETATM    3  C   UNL     1     -16.646  14.345  41.221  1.00  0.00     0.045 C 
HETATM    4  C   UNL     1     -14.301  13.456  41.097  1.00  0.00     0.215 C 
HETATM    5  C   UNL     1     -16.692  11.963  41.531  1.00  0.00     0.194 C 
HETATM    6  C   UNL     1     -14.563  12.212  40.233  1.00  0.00     0.308 C 
HETATM    7  C   UNL     1     -17.530  13.122  40.980  1.00  0.00     0.181 C 
HETATM    8  C   UNL     1     -15.434  13.866  42.010  1.00  0.00     0.030 C 
ENDROOT
BRANCH   6   9
HETATM    9  O   UNL     1     -14.474  12.501  38.910  1.00  0.00    -0.341 OA
ATOM     10  HO  UNL     1     -13.711  12.057  38.558  1.00  0.00     0.215 HD
ENDBRANCH   6   9
BRANCH   6  11
HETATM   11  O   UNL     1     -13.515  11.332  40.546  1.00  0.00    -0.341 OA
ATOM     12  HO  UNL     1     -13.760  10.441  40.324  1.00  0.00     0.215 HD
ENDBRANCH   6  11
BRANCH   4  13
HETATM   13  O   UNL     1     -13.600  14.464  40.394  1.00  0.00    -0.387 OA
ATOM     14  HO  UNL     1     -12.686  14.517  40.652  1.00  0.00     0.210 HD
ENDBRANCH   4  13
BRANCH   5  15
HETATM   15  O   UNL     1     -17.512  10.881  41.913  1.00  0.00    -0.363 OA
ATOM     16  HO  UNL     1     -17.488  10.149  41.308  1.00  0.00     0.213 HD
ENDBRANCH   5  15
BRANCH   7  17
HETATM   17  O   UNL     1     -18.737  13.242  41.718  1.00  0.00    -0.390 OA
ATOM     18  HO  UNL     1     -19.168  14.062  41.506  1.00  0.00     0.210 HD
ENDBRANCH   7  17
TORSDOF 5
ENDMDL
MODEL 3
REMARK VINA RESULT:      -4.8      1.738      2.965
REMARK  5 active torsions:
REMARK  status: ('A' for Active; 'I' for Inactive)
REMARK    1  A    between atoms: O_1  and  C_11 
REMARK    2  A    between atoms: C_6  and  O_17 
REMARK    3  A    between atoms: C_7  and  O_15 
REMARK    4  A    between atoms: O_8  and  C_10 
REMARK    5  A    between atoms: C_10  and  O_12 
ROOT
HETATM    1  C   UNL     1     -13.769  11.888  41.072  1.00  0.00     0.079 C 
HETATM    2  O   UNL     1     -15.085  13.860  40.609  1.00  0.00    -0.291 OA
HETATM    3  C   UNL     1     -15.096  11.267  39.141  1.00  0.00     0.045 C 
HETATM    4  C   UNL     1     -16.162  11.737  41.365  1.00  0.00     0.215 C 
HETATM    5  C   UNL     1     -13.957  13.108  40.183  1.00  0.00     0.194 C 
HETATM    6  C   UNL     1     -16.199  13.272  41.293  1.00  0.00     0.308 C 
HETATM    7  C   UNL     1     -14.332  12.547  38.807  1.00  0.00     0.181 C 
HETATM    8  C   UNL     1     -15.004  11.078  40.650  1.00  0.00     0.030 C 
ENDROOT
BRANCH   6   9
HETATM    9  O   UNL     1     -17.340  13.712  40.705  1.00  0.00    -0.341 OA
ATOM     10  HO  UNL     1     -17.195  13.754  39.767  1.00  0.00     0.215 HD
ENDBRANCH   6   9
BRANCH   6  11
HETATM   11  O   UNL     1     -16.221  13.694  42.631  1.00  0.00    -0.341 OA
ATOM     12  HO  UNL     1     -16.465  14.611  42.681  1.00  0.00     0.215 HD
ENDBRANCH   6  11
BRANCH   4  13
HETATM   13  O   UNL     1     -17.448  11.160  41.248  1.00  0.00    -0.387 OA
ATOM     14  HO  UNL     1     -18.115  11.665  41.698  1.00  0.00     0.210 HD
ENDBRANCH   4  13
BRANCH   5  15
HETATM   15  O   UNL     1     -12.816  13.933  40.101  1.00  0.00    -0.363 OA
ATOM     16  HO  UNL     1     -12.100  13.548  39.610  1.00  0.00     0.213 HD
ENDBRANCH   5  15
BRANCH   7  17
HETATM   17  O   UNL     1     -13.156  12.233  38.074  1.00  0.00    -0.390 OA
ATOM     18  HO  UNL     1     -12.481  12.877  38.253  1.00  0.00     0.210 HD
ENDBRANCH   7  17
TORSDOF 5
ENDMDL
MODEL 4
REMARK VINA RESULT:      -4.7      1.894      3.410
REMARK  5 active torsions:
REMARK  status: ('A' for Active; 'I' for Inactive)
REMARK    1  A    between atoms: O_1  and  C_11 
REMARK    2  A    between atoms: C_6  and  O_17 
REMARK    3  A    between atoms: C_7  and  O_15 
REMARK    4  A    between atoms: O_8  and  C_10 
REMARK    5  A    between atoms: C_10  and  O_12 
ROOT
HETATM    1  C   UNL     1     -16.794  14.274  41.227  1.00  0.00     0.079 C 
HETATM    2  O   UNL     1     -17.182  14.227  43.610  1.00  0.00    -0.291 OA
HETATM    3  C   UNL     1     -15.578  12.317  41.980  1.00  0.00     0.045 C 
HETATM    4  C   UNL     1     -14.899  14.630  42.681  1.00  0.00     0.215 C 
HETATM    5  C   UNL     1     -17.552  13.628  42.376  1.00  0.00     0.194 C 
HETATM    6  C   UNL     1     -15.903  14.837  43.826  1.00  0.00     0.308 C 
HETATM    7  C   UNL     1     -17.028  12.189  42.443  1.00  0.00     0.181 C 
HETATM    8  C   UNL     1     -15.380  13.762  41.540  1.00  0.00     0.030 C 
ENDROOT
BRANCH   6   9
HETATM    9  O   UNL     1     -15.409  14.384  45.005  1.00  0.00    -0.341 OA
ATOM     10  HO  UNL     1     -14.628  14.885  45.214  1.00  0.00     0.215 HD
ENDBRANCH   6   9
BRANCH   6  11
HETATM   11  O   UNL     1     -16.044  16.229  43.931  1.00  0.00    -0.341 OA
ATOM     12  HO  UNL     1     -15.724  16.527  44.775  1.00  0.00     0.215 HD
ENDBRANCH   6  11
BRANCH   4  13
HETATM   13  O   UNL     1     -13.574  14.461  43.148  1.00  0.00    -0.387 OA
ATOM     14  HO  UNL     1     -13.541  14.063  44.010  1.00  0.00     0.210 HD
ENDBRANCH   4  13
BRANCH   5  15
HETATM   15  O   UNL     1     -18.953  13.651  42.217  1.00  0.00    -0.363 OA
ATOM     16  HO  UNL     1     -19.365  12.802  42.325  1.00  0.00     0.213 HD
ENDBRANCH   5  15
BRANCH   7  17
HETATM   17  O   UNL     1     -17.755  11.365  41.543  1.00  0.00    -0.390 OA
ATOM     18  HO  UNL     1     -18.229  11.904  40.920  1.00  0.00     0.210 HD
ENDBRANCH   7  17
TORSDOF 5
ENDMDL
MODEL 5
REMARK VINA RESULT:      -4.6      2.002      4.191
REMARK  5 active torsions:
REMARK  status: ('A' for Active; 'I' for Inactive)
REMARK    1  A    between atoms: O_1  and  C_11 
REMARK    2  A    between atoms: C_6  and  O_17 
REMARK    3  A    between atoms: C_7  and  O_15 
REMARK    4  A    between atoms: O_8  and  C_10 
REMARK    5  A    between atoms: C_10  and  O_12 
ROOT
HETATM    1  C   UNL     1     -14.702  12.445  41.796  1.00  0.00     0.079 C 
HETATM    2  O   UNL     1     -15.080  12.979  39.471  1.00  0.00    -0.291 OA
HETATM    3  C   UNL     1     -12.750  13.739  41.166  1.00  0.00     0.045 C 
HETATM    4  C   UNL     1     -13.205  11.482  40.164  1.00  0.00     0.215 C 
HETATM    5  C   UNL     1     -15.112  13.509  40.789  1.00  0.00     0.194 C 
HETATM    6  C   UNL     1     -14.219  11.899  39.087  1.00  0.00     0.308 C 
HETATM    7  C   UNL     1     -13.997  14.559  40.838  1.00  0.00     0.181 C 
HETATM    8  C   UNL     1     -13.216  12.312  41.427  1.00  0.00     0.030 C 
ENDROOT
BRANCH   6   9
HETATM    9  O   UNL     1     -13.601  12.238  37.929  1.00  0.00    -0.341 OA
ATOM     10  HO  UNL     1     -14.232  12.676  37.370  1.00  0.00     0.215 HD
ENDBRANCH   6   9
BRANCH   6  11
HETATM   11  O   UNL     1     -14.976  10.743  38.842  1.00  0.00    -0.341 OA
ATOM     12  HO  UNL     1     -15.851  10.979  38.557  1.00  0.00     0.215 HD
ENDBRANCH   6  11
BRANCH   4  13
HETATM   13  O   UNL     1     -11.957  11.105  39.613  1.00  0.00    -0.387 OA
ATOM     14  HO  UNL     1     -11.237  11.243  40.217  1.00  0.00     0.210 HD
ENDBRANCH   4  13
BRANCH   5  15
HETATM   15  O   UNL     1     -16.369  14.090  41.056  1.00  0.00    -0.363 OA
ATOM     16  HO  UNL     1     -16.620  14.763  40.434  1.00  0.00     0.213 HD
ENDBRANCH   5  15
BRANCH   7  17
HETATM   17  O   UNL     1     -14.253  15.491  41.878  1.00  0.00    -0.390 OA
ATOM     18  HO  UNL     1     -13.516  15.522  42.476  1.00  0.00     0.210 HD
ENDBRANCH   7  17
TORSDOF 5
ENDMDL
MODEL 6
REMARK VINA RESULT:      -4.6      2.336      3.825
REMARK  5 active torsions:
REMARK  status: ('A' for Active; 'I' for Inactive)
REMARK    1  A    between atoms: O_1  and  C_11 
REMARK    2  A    between atoms: C_6  and  O_17 
REMARK    3  A    between atoms: C_7  and  O_15 
REMARK    4  A    between atoms: O_8  and  C_10 
REMARK    5  A    between atoms: C_10  and  O_12 
ROOT
HETATM    1  C   UNL     1     -13.077  11.574  40.782  1.00  0.00     0.079 C 
HETATM    2  O   UNL     1     -12.803  13.734  39.737  1.00  0.00    -0.291 OA
HETATM    3  C   UNL     1     -15.340  12.258  40.247  1.00  0.00     0.045 C 
HETATM    4  C   UNL     1     -13.962  13.501  41.938  1.00  0.00     0.215 C 
HETATM    5  C   UNL     1     -13.065  12.362  39.481  1.00  0.00     0.194 C 
HETATM    6  C   UNL     1     -13.134  14.371  40.978  1.00  0.00     0.308 C 
HETATM    7  C   UNL     1     -14.508  12.307  38.967  1.00  0.00     0.181 C 
HETATM    8  C   UNL     1     -14.360  12.142  41.407  1.00  0.00     0.030 C 
ENDROOT
BRANCH   6   9
HETATM    9  O   UNL     1     -13.766  15.540  40.701  1.00  0.00    -0.341 OA
ATOM     10  HO  UNL     1     -13.738  16.085  41.479  1.00  0.00     0.215 HD
ENDBRANCH   6   9
BRANCH   6  11
HETATM   11  O   UNL     1     -11.965  14.678  41.691  1.00  0.00    -0.341 OA
ATOM     12  HO  UNL     1     -11.221  14.710  41.100  1.00  0.00     0.215 HD
ENDBRANCH   6  11
BRANCH   4  13
HETATM   13  O   UNL     1     -14.918  14.252  42.660  1.00  0.00    -0.387 OA
ATOM     14  HO  UNL     1     -15.064  13.910  43.534  1.00  0.00     0.210 HD
ENDBRANCH   4  13
BRANCH   5  15
HETATM   15  O   UNL     1     -12.165  11.858  38.520  1.00  0.00    -0.363 OA
ATOM     16  HO  UNL     1     -12.052  10.916  38.556  1.00  0.00     0.213 HD
ENDBRANCH   5  15
BRANCH   7  17
HETATM   17  O   UNL     1     -14.709  11.123  38.210  1.00  0.00    -0.390 OA
ATOM     18  HO  UNL     1     -14.554  10.359  38.754  1.00  0.00     0.210 HD
ENDBRANCH   7  17
TORSDOF 5
ENDMDL
MODEL 7
REMARK VINA RESULT:      -4.5      2.040      3.231
REMARK  5 active torsions:
REMARK  status: ('A' for Active; 'I' for Inactive)
REMARK    1  A    between atoms: O_1  and  C_11 
REMARK    2  A    between atoms: C_6  and  O_17 
REMARK    3  A    between atoms: C_7  and  O_15 
REMARK    4  A    between atoms: O_8  and  C_10 
REMARK    5  A    between atoms: C_10  and  O_12 
ROOT
HETATM    1  C   UNL     1     -14.812  12.746  42.263  1.00  0.00     0.079 C 
HETATM    2  O   UNL     1     -15.918  14.299  43.745  1.00  0.00    -0.291 OA
HETATM    3  C   UNL     1     -16.126  14.139  40.777  1.00  0.00     0.045 C 
HETATM    4  C   UNL     1     -17.217  12.610  42.443  1.00  0.00     0.215 C 
HETATM    5  C   UNL     1     -14.853  14.163  42.815  1.00  0.00     0.194 C 
HETATM    6  C   UNL     1     -17.106  13.498  43.692  1.00  0.00     0.308 C 
HETATM    7  C   UNL     1     -15.232  15.047  41.622  1.00  0.00     0.181 C 
HETATM    8  C   UNL     1     -16.103  12.764  41.431  1.00  0.00     0.030 C 
ENDROOT
BRANCH   6   9
HETATM    9  O   UNL     1     -18.179  14.319  43.812  1.00  0.00    -0.341 OA
ATOM     10  HO  UNL     1     -17.946  15.031  44.397  1.00  0.00     0.215 HD
ENDBRANCH   6   9
BRANCH   6  11
HETATM   11  O   UNL     1     -17.133  12.603  44.772  1.00  0.00    -0.341 OA
ATOM     12  HO  UNL     1     -16.870  11.736  44.485  1.00  0.00     0.215 HD
ENDBRANCH   6  11
BRANCH   4  13
HETATM   13  O   UNL     1     -18.547  12.501  41.974  1.00  0.00    -0.387 OA
ATOM     14  HO  UNL     1     -18.814  13.255  41.460  1.00  0.00     0.210 HD
ENDBRANCH   4  13
BRANCH   5  15
HETATM   15  O   UNL     1     -13.637  14.583  43.392  1.00  0.00    -0.363 OA
ATOM     16  HO  UNL     1     -13.562  15.526  43.484  1.00  0.00     0.213 HD
ENDBRANCH   5  15
BRANCH   7  17
HETATM   17  O   UNL     1     -14.068  15.400  40.890  1.00  0.00    -0.390 OA
ATOM     18  HO  UNL     1     -14.112  15.036  40.013  1.00  0.00     0.210 HD
ENDBRANCH   7  17
TORSDOF 5
ENDMDL
MODEL 8
REMARK VINA RESULT:      -4.4      1.732      2.574
REMARK  5 active torsions:
REMARK  status: ('A' for Active; 'I' for Inactive)
REMARK    1  A    between atoms: O_1  and  C_11 
REMARK    2  A    between atoms: C_6  and  O_17 
REMARK    3  A    between atoms: C_7  and  O_15 
REMARK    4  A    between atoms: O_8  and  C_10 
REMARK    5  A    between atoms: C_10  and  O_12 
ROOT
HETATM    1  C   UNL     1     -17.652  13.695  41.873  1.00  0.00     0.079 C 
HETATM    2  O   UNL     1     -16.983  12.632  43.936  1.00  0.00    -0.291 OA
HETATM    3  C   UNL     1     -15.264  14.096  41.992  1.00  0.00     0.045 C 
HETATM    4  C   UNL     1     -16.847  15.110  43.657  1.00  0.00     0.215 C 
HETATM    5  C   UNL     1     -16.976  12.496  42.522  1.00  0.00     0.194 C 
HETATM    6  C   UNL     1     -17.011  13.904  44.595  1.00  0.00     0.308 C 
HETATM    7  C   UNL     1     -15.505  12.592  42.106  1.00  0.00     0.181 C 
HETATM    8  C   UNL     1     -16.611  14.776  42.201  1.00  0.00     0.030 C 
ENDROOT
BRANCH   6   9
HETATM    9  O   UNL     1     -16.063  13.901  45.567  1.00  0.00    -0.341 OA
ATOM     10  HO  UNL     1     -16.122  13.077  46.037  1.00  0.00     0.215 HD
ENDBRANCH   6   9
BRANCH   6  11
HETATM   11  O   UNL     1     -18.254  14.099  45.216  1.00  0.00    -0.341 OA
ATOM     12  HO  UNL     1     -18.471  15.024  45.229  1.00  0.00     0.215 HD
ENDBRANCH   6  11
BRANCH   4  13
HETATM   13  O   UNL     1     -16.091  16.152  44.244  1.00  0.00    -0.387 OA
ATOM     14  HO  UNL     1     -15.280  16.320  43.777  1.00  0.00     0.210 HD
ENDBRANCH   4  13
BRANCH   5  15
HETATM   15  O   UNL     1     -17.532  11.257  42.142  1.00  0.00    -0.363 OA
ATOM     16  HO  UNL     1     -17.307  10.991  41.259  1.00  0.00     0.213 HD
ENDBRANCH   5  15
BRANCH   7  17
HETATM   17  O   UNL     1     -15.317  11.973  40.841  1.00  0.00    -0.390 OA
ATOM     18  HO  UNL     1     -15.151  12.633  40.178  1.00  0.00     0.210 HD
ENDBRANCH   7  17
TORSDOF 5
ENDMDL
MODEL 9
REMARK VINA RESULT:      -4.4      3.190      5.862
REMARK  5 active torsions:
REMARK  status: ('A' for Active; 'I' for Inactive)
REMARK    1  A    between atoms: O_1  and  C_11 
REMARK    2  A    between atoms: C_6  and  O_17 
REMARK    3  A    between atoms: C_7  and  O_15 
REMARK    4  A    between atoms: O_8  and  C_10 
REMARK    5  A    between atoms: C_10  and  O_12 
ROOT
HETATM    1  C   UNL     1     -12.760  13.488  39.467  1.00  0.00     0.079 C 
HETATM    2  O   UNL     1     -10.871  13.404  40.970  1.00  0.00    -0.291 OA
HETATM    3  C   UNL     1     -13.166  11.509  40.807  1.00  0.00     0.045 C 
HETATM    4  C   UNL     1     -11.217  11.646  39.229  1.00  0.00     0.215 C 
HETATM    5  C   UNL     1     -12.251  13.730  40.880  1.00  0.00     0.194 C 
HETATM    6  C   UNL     1     -10.244  12.435  40.120  1.00  0.00     0.308 C 
HETATM    7  C   UNL     1     -12.976  12.697  41.749  1.00  0.00     0.181 C 
HETATM    8  C   UNL     1     -12.683  11.955  39.432  1.00  0.00     0.030 C 
ENDROOT
BRANCH   6   9
HETATM    9  O   UNL     1      -9.500  11.607  40.895  1.00  0.00    -0.341 OA
ATOM     10  HO  UNL     1      -9.807  10.717  40.761  1.00  0.00     0.215 HD
ENDBRANCH   6   9
BRANCH   6  11
HETATM   11  O   UNL     1      -9.374  13.072  39.222  1.00  0.00    -0.341 OA
ATOM     12  HO  UNL     1      -9.091  13.907  39.578  1.00  0.00     0.215 HD
ENDBRANCH   6  11
BRANCH   4  13
HETATM   13  O   UNL     1     -10.825  10.296  39.066  1.00  0.00    -0.387 OA
ATOM     14  HO  UNL     1     -11.560   9.696  39.125  1.00  0.00     0.210 HD
ENDBRANCH   4  13
BRANCH   5  15
HETATM   15  O   UNL     1     -12.480  15.039  41.350  1.00  0.00    -0.363 OA
ATOM     16  HO  UNL     1     -13.304  15.143  41.812  1.00  0.00     0.213 HD
ENDBRANCH   5  15
BRANCH   7  17
HETATM   17  O   UNL     1     -14.241  13.204  42.152  1.00  0.00    -0.390 OA
ATOM     18  HO  UNL     1     -14.180  13.572  43.026  1.00  0.00     0.210 HD
ENDBRANCH   7  17
TORSDOF 5
ENDMDL
