REMARK  4 active torsions:
REMARK  status: ('A' for Active; 'I' for Inactive)
REMARK    1  A    between atoms: C_3  and  O_6 
REMARK    2  A    between atoms: C_4  and  O_8 
REMARK    3  A    between atoms: O_5  and  C_12 
REMARK    4  A    between atoms: O_5  and  P_15 
ROOT
HETATM    1  C   UNL     1     -11.944   7.440  -3.745  1.00  0.00     0.039 C 
HETATM    2  C   UNL     1     -12.508   8.523  -3.067  1.00  0.00     0.042 C 
HETATM    3  C   UNL     1     -12.981   9.617  -3.788  1.00  0.00     0.099 C 
HETATM    4  C   UNL     1     -11.615   7.574  -5.086  1.00  0.00     0.068 C 
HETATM    5  C   UNL     1     -11.857   8.776  -5.755  1.00  0.00     0.076 C 
HETATM    6  C   UNL     1     -12.580   9.788  -5.129  1.00  0.00     0.118 C 
ENDROOT
BRANCH   6   7
HETATM    7  O   UNL     1     -13.076  10.833  -5.865  1.00  0.00    -0.237 OA
BRANCH   7   8
HETATM    8  P   UNL     1     -13.210  12.429  -5.724  1.00  0.00     0.427 P 
HETATM    9  O   UNL     1     -14.608  12.776  -5.234  1.00  0.00    -0.617 OA
HETATM   10  O   UNL     1     -12.964  12.982  -7.111  1.00  0.00    -0.617 OA
HETATM   11  O   UNL     1     -12.146  12.916  -4.766  1.00  0.00    -0.617 OA
ENDBRANCH   7   8
ENDBRANCH   6   7
BRANCH   3  12
HETATM   12  O   UNL     1     -13.706  10.576  -3.181  1.00  0.00    -0.358 OA
ATOM     13  HO  UNL     1     -14.029  11.322  -3.673  1.00  0.00     0.217 HD
ENDBRANCH   3  12
BRANCH   4  14
HETATM   14  O   UNL     1     -11.452   6.435  -5.814  1.00  0.00    -0.361 OA
ATOM     15  HO  UNL     1     -11.227   6.527  -6.732  1.00  0.00     0.217 HD
ENDBRANCH   4  14
TORSDOF 4
