MODEL 1
REMARK VINA RESULT:      -4.7      0.000      0.000
REMARK  3 active torsions:
REMARK  status: ('A' for Active; 'I' for Inactive)
REMARK       I    between atoms: N_2  and  C_6 
REMARK    1  A    between atoms: N_2  and  C_7 
REMARK    2  A    between atoms: O_4  and  C_12 
REMARK    3  A    between atoms: C_7  and  C_10 
ROOT
HETATM    1  C   UNL     1      15.633   3.045   0.676  1.00  0.00    -0.005 C 
HETATM    2  C   UNL     1      15.592   2.856   3.146  1.00  0.00     0.001 C 
HETATM    3  C   UNL     1      15.111   3.638   1.962  1.00  0.00     0.024 C 
HETATM    4  C   UNL     1      13.586   3.638   1.909  1.00  0.00     0.030 C 
HETATM    5  C   UNL     1      16.165   0.962   1.766  1.00  0.00     0.071 C 
HETATM    6  C   UNL     1      15.145   0.514   4.037  1.00  0.00     0.050 C 
HETATM    7  C   UNL     1      15.713   1.475   3.016  1.00  0.00    -0.031 C 
HETATM    8  C   UNL     1      16.006   1.729   0.594  1.00  0.00     0.034 C 
ENDROOT
BRANCH   3   9
HETATM    9  C   UNL     1      15.685   5.048   2.030  1.00  0.00     0.084 C 
BRANCH   9  10
HETATM   10  N   UNL     1      15.776   5.785   3.250  1.00  0.00    -0.313 N 
HETATM   11  C   UNL     1      16.003   6.918   3.896  1.00  0.00     0.287 C 
HETATM   12  O   UNL     1      17.158   7.364   4.096  1.00  0.00    -0.629 OA
HETATM   13  O   UNL     1      14.962   7.488   4.363  1.00  0.00    -0.629 OA
ATOM     14  HN  UNL     1      15.561   5.106   3.981  1.00  0.00     0.171 HD
ENDBRANCH   9  10
ENDBRANCH   3   9
BRANCH   5  15
HETATM   15  O   UNL     1      16.702  -0.262   1.714  1.00  0.00    -0.360 OA
ATOM     16  HO  UNL     1      17.110  -0.558   0.908  1.00  0.00     0.217 HD
ENDBRANCH   5  15
TORSDOF 3
ENDMDL
MODEL 2
REMARK VINA RESULT:      -4.7      1.902      5.467
REMARK  3 active torsions:
REMARK  status: ('A' for Active; 'I' for Inactive)
REMARK       I    between atoms: N_2  and  C_6 
REMARK    1  A    between atoms: N_2  and  C_7 
REMARK    2  A    between atoms: O_4  and  C_12 
REMARK    3  A    between atoms: C_7  and  C_10 
ROOT
HETATM    1  C   UNL     1      13.769   5.626   1.312  1.00  0.00    -0.005 C 
HETATM    2  C   UNL     1      15.259   5.299   3.265  1.00  0.00     0.001 C 
HETATM    3  C   UNL     1      14.867   4.784   1.914  1.00  0.00     0.024 C 
HETATM    4  C   UNL     1      16.065   4.808   0.968  1.00  0.00     0.030 C 
HETATM    5  C   UNL     1      14.216   7.433   2.844  1.00  0.00     0.071 C 
HETATM    6  C   UNL     1      16.409   7.408   4.104  1.00  0.00     0.050 C 
HETATM    7  C   UNL     1      15.247   6.676   3.472  1.00  0.00    -0.031 C 
HETATM    8  C   UNL     1      13.575   6.928   1.695  1.00  0.00     0.034 C 
ENDROOT
BRANCH   3   9
HETATM    9  C   UNL     1      14.280   3.386   2.064  1.00  0.00     0.084 C 
BRANCH   9  10
HETATM   10  N   UNL     1      15.086   2.237   2.330  1.00  0.00    -0.313 N 
HETATM   11  C   UNL     1      16.180   1.523   2.113  1.00  0.00     0.287 C 
HETATM   12  O   UNL     1      16.327   0.802   1.099  1.00  0.00    -0.629 OA
HETATM   13  O   UNL     1      17.044   1.568   3.049  1.00  0.00    -0.629 OA
ATOM     14  HN  UNL     1      14.563   1.708   3.029  1.00  0.00     0.171 HD
ENDBRANCH   9  10
ENDBRANCH   3   9
BRANCH   5  15
HETATM   15  O   UNL     1      13.896   8.637   3.331  1.00  0.00    -0.360 OA
ATOM     16  HO  UNL     1      14.181   9.418   2.872  1.00  0.00     0.217 HD
ENDBRANCH   5  15
TORSDOF 3
ENDMDL
MODEL 3
REMARK VINA RESULT:      -4.7      2.106      5.478
REMARK  3 active torsions:
REMARK  status: ('A' for Active; 'I' for Inactive)
REMARK       I    between atoms: N_2  and  C_6 
REMARK    1  A    between atoms: N_2  and  C_7 
REMARK    2  A    between atoms: O_4  and  C_12 
REMARK    3  A    between atoms: C_7  and  C_10 
ROOT
HETATM    1  C   UNL     1      13.988   4.517   3.477  1.00  0.00    -0.005 C 
HETATM    2  C   UNL     1      15.296   6.592   3.126  1.00  0.00     0.001 C 
HETATM    3  C   UNL     1      14.666   5.406   2.463  1.00  0.00     0.024 C 
HETATM    4  C   UNL     1      13.624   5.857   1.444  1.00  0.00     0.030 C 
HETATM    5  C   UNL     1      13.978   6.279   5.122  1.00  0.00     0.071 C 
HETATM    6  C   UNL     1      14.398   8.645   4.332  1.00  0.00     0.050 C 
HETATM    7  C   UNL     1      14.643   7.157   4.219  1.00  0.00    -0.031 C 
HETATM    8  C   UNL     1      13.560   5.006   4.684  1.00  0.00     0.034 C 
ENDROOT
BRANCH   3   9
HETATM    9  C   UNL     1      15.758   4.551   1.830  1.00  0.00     0.084 C 
BRANCH   9  10
HETATM   10  N   UNL     1      15.853   3.142   2.045  1.00  0.00    -0.313 N 
HETATM   11  C   UNL     1      16.497   1.995   1.889  1.00  0.00     0.287 C 
HETATM   12  O   UNL     1      16.480   1.349   0.815  1.00  0.00    -0.629 OA
HETATM   13  O   UNL     1      17.078   1.559   2.937  1.00  0.00    -0.629 OA
ATOM     14  HN  UNL     1      15.018   2.902   2.579  1.00  0.00     0.171 HD
ENDBRANCH   9  10
ENDBRANCH   3   9
BRANCH   5  15
HETATM   15  O   UNL     1      13.720   6.691   6.369  1.00  0.00    -0.360 OA
ATOM     16  HO  UNL     1      13.153   6.170   6.924  1.00  0.00     0.217 HD
ENDBRANCH   5  15
TORSDOF 3
ENDMDL
MODEL 4
REMARK VINA RESULT:      -4.7      2.071      5.176
REMARK  3 active torsions:
REMARK  status: ('A' for Active; 'I' for Inactive)
REMARK       I    between atoms: N_2  and  C_6 
REMARK    1  A    between atoms: N_2  and  C_7 
REMARK    2  A    between atoms: O_4  and  C_12 
REMARK    3  A    between atoms: C_7  and  C_10 
ROOT
HETATM    1  C   UNL     1      14.441   4.011   3.456  1.00  0.00    -0.005 C 
HETATM    2  C   UNL     1      15.328   6.073   2.407  1.00  0.00     0.001 C 
HETATM    3  C   UNL     1      14.316   4.974   2.301  1.00  0.00     0.024 C 
HETATM    4  C   UNL     1      12.904   5.550   2.305  1.00  0.00     0.030 C 
HETATM    5  C   UNL     1      15.711   5.605   4.743  1.00  0.00     0.071 C 
HETATM    6  C   UNL     1      15.681   8.024   4.003  1.00  0.00     0.050 C 
HETATM    7  C   UNL     1      15.652   6.548   3.677  1.00  0.00    -0.031 C 
HETATM    8  C   UNL     1      15.000   4.392   4.649  1.00  0.00     0.034 C 
ENDROOT
BRANCH   3   9
HETATM    9  C   UNL     1      14.601   4.154   1.048  1.00  0.00     0.084 C 
BRANCH   9  10
HETATM   10  N   UNL     1      15.143   2.834   1.098  1.00  0.00    -0.313 N 
HETATM   11  C   UNL     1      16.053   1.948   0.721  1.00  0.00     0.287 C 
HETATM   12  O   UNL     1      16.021   1.379  -0.395  1.00  0.00    -0.629 OA
HETATM   13  O   UNL     1      16.923   1.662   1.608  1.00  0.00    -0.629 OA
ATOM     14  HN  UNL     1      14.532   2.325   1.737  1.00  0.00     0.171 HD
ENDBRANCH   9  10
ENDBRANCH   3   9
BRANCH   5  15
HETATM   15  O   UNL     1      16.413   5.902   5.843  1.00  0.00    -0.360 OA
ATOM     16  HO  UNL     1      16.778   5.199   6.367  1.00  0.00     0.217 HD
ENDBRANCH   5  15
TORSDOF 3
ENDMDL
MODEL 5
REMARK VINA RESULT:      -4.5      1.943      5.486
REMARK  3 active torsions:
REMARK  status: ('A' for Active; 'I' for Inactive)
REMARK       I    between atoms: N_2  and  C_6 
REMARK    1  A    between atoms: N_2  and  C_7 
REMARK    2  A    between atoms: O_4  and  C_12 
REMARK    3  A    between atoms: C_7  and  C_10 
ROOT
HETATM    1  C   UNL     1      15.293   4.898   5.059  1.00  0.00    -0.005 C 
HETATM    2  C   UNL     1      14.624   5.363   2.719  1.00  0.00     0.001 C 
HETATM    3  C   UNL     1      14.387   4.499   3.919  1.00  0.00     0.024 C 
HETATM    4  C   UNL     1      12.940   4.626   4.387  1.00  0.00     0.030 C 
HETATM    5  C   UNL     1      15.752   7.035   4.043  1.00  0.00     0.071 C 
HETATM    6  C   UNL     1      14.228   7.819   2.183  1.00  0.00     0.050 C 
HETATM    7  C   UNL     1      14.932   6.706   2.926  1.00  0.00    -0.031 C 
HETATM    8  C   UNL     1      15.821   6.160   5.146  1.00  0.00     0.034 C 
ENDROOT
BRANCH   3   9
HETATM    9  C   UNL     1      14.759   3.061   3.580  1.00  0.00     0.084 C 
BRANCH   9  10
HETATM   10  N   UNL     1      15.913   2.726   2.807  1.00  0.00    -0.313 N 
HETATM   11  C   UNL     1      16.710   1.819   2.263  1.00  0.00     0.287 C 
HETATM   12  O   UNL     1      17.556   1.176   2.928  1.00  0.00    -0.629 OA
HETATM   13  O   UNL     1      16.604   1.701   0.998  1.00  0.00    -0.629 OA
ATOM     14  HN  UNL     1      16.322   3.624   2.547  1.00  0.00     0.171 HD
ENDBRANCH   9  10
ENDBRANCH   3   9
BRANCH   5  15
HETATM   15  O   UNL     1      16.420   8.194   4.049  1.00  0.00    -0.360 OA
ATOM     16  HO  UNL     1      17.273   8.244   3.636  1.00  0.00     0.217 HD
ENDBRANCH   5  15
TORSDOF 3
ENDMDL
MODEL 6
REMARK VINA RESULT:      -4.5      2.860      5.756
REMARK  3 active torsions:
REMARK  status: ('A' for Active; 'I' for Inactive)
REMARK       I    between atoms: N_2  and  C_6 
REMARK    1  A    between atoms: N_2  and  C_7 
REMARK    2  A    between atoms: O_4  and  C_12 
REMARK    3  A    between atoms: C_7  and  C_10 
ROOT
HETATM    1  C   UNL     1      16.012   3.746   1.259  1.00  0.00    -0.005 C 
HETATM    2  C   UNL     1      13.808   2.625   1.425  1.00  0.00     0.001 C 
HETATM    3  C   UNL     1      15.278   2.496   1.683  1.00  0.00     0.024 C 
HETATM    4  C   UNL     1      15.539   2.265   3.168  1.00  0.00     0.030 C 
HETATM    5  C   UNL     1      13.968   5.024   1.233  1.00  0.00     0.071 C 
HETATM    6  C   UNL     1      11.945   4.056   2.402  1.00  0.00     0.050 C 
HETATM    7  C   UNL     1      13.216   3.873   1.604  1.00  0.00    -0.031 C 
HETATM    8  C   UNL     1      15.375   4.957   1.181  1.00  0.00     0.034 C 
ENDROOT
BRANCH   3   9
HETATM    9  C   UNL     1      15.840   1.375   0.817  1.00  0.00     0.084 C 
BRANCH   9  10
HETATM   10  N   UNL     1      15.205   0.940  -0.386  1.00  0.00    -0.313 N 
HETATM   11  C   UNL     1      14.724  -0.032  -1.148  1.00  0.00     0.287 C 
HETATM   12  O   UNL     1      15.459  -0.788  -1.824  1.00  0.00    -0.629 OA
HETATM   13  O   UNL     1      13.452  -0.093  -1.198  1.00  0.00    -0.629 OA
ATOM     14  HN  UNL     1      15.044   1.794  -0.920  1.00  0.00     0.171 HD
ENDBRANCH   9  10
ENDBRANCH   3   9
BRANCH   5  15
HETATM   15  O   UNL     1      13.329   6.171   0.974  1.00  0.00    -0.360 OA
ATOM     16  HO  UNL     1      12.690   6.499   1.595  1.00  0.00     0.217 HD
ENDBRANCH   5  15
TORSDOF 3
ENDMDL
MODEL 7
REMARK VINA RESULT:      -4.4      1.613      2.060
REMARK  3 active torsions:
REMARK  status: ('A' for Active; 'I' for Inactive)
REMARK       I    between atoms: N_2  and  C_6 
REMARK    1  A    between atoms: N_2  and  C_7 
REMARK    2  A    between atoms: O_4  and  C_12 
REMARK    3  A    between atoms: C_7  and  C_10 
ROOT
HETATM    1  C   UNL     1      14.409   1.381   1.184  1.00  0.00    -0.005 C 
HETATM    2  C   UNL     1      16.714   1.706   2.036  1.00  0.00     0.001 C 
HETATM    3  C   UNL     1      15.333   2.282   1.967  1.00  0.00     0.024 C 
HETATM    4  C   UNL     1      14.759   2.456   3.370  1.00  0.00     0.030 C 
HETATM    5  C   UNL     1      15.918  -0.485   1.412  1.00  0.00     0.071 C 
HETATM    6  C   UNL     1      17.741  -0.334   3.159  1.00  0.00     0.050 C 
HETATM    7  C   UNL     1      16.844   0.322   2.133  1.00  0.00    -0.031 C 
HETATM    8  C   UNL     1      14.661   0.040   1.051  1.00  0.00     0.034 C 
ENDROOT
BRANCH   3   9
HETATM    9  C   UNL     1      15.379   3.596   1.197  1.00  0.00     0.084 C 
BRANCH   9  10
HETATM   10  N   UNL     1      15.777   4.828   1.800  1.00  0.00    -0.313 N 
HETATM   11  C   UNL     1      15.494   5.897   2.529  1.00  0.00     0.287 C 
HETATM   12  O   UNL     1      14.853   6.875   2.078  1.00  0.00    -0.629 OA
HETATM   13  O   UNL     1      15.987   5.888   3.706  1.00  0.00    -0.629 OA
ATOM     14  HN  UNL     1      16.758   4.939   1.542  1.00  0.00     0.171 HD
ENDBRANCH   9  10
ENDBRANCH   3   9
BRANCH   5  15
HETATM   15  O   UNL     1      16.239  -1.750   1.118  1.00  0.00    -0.360 OA
ATOM     16  HO  UNL     1      15.730  -2.223   0.470  1.00  0.00     0.217 HD
ENDBRANCH   5  15
TORSDOF 3
ENDMDL
MODEL 8
REMARK VINA RESULT:      -4.3      2.883      3.781
REMARK  3 active torsions:
REMARK  status: ('A' for Active; 'I' for Inactive)
REMARK       I    between atoms: N_2  and  C_6 
REMARK    1  A    between atoms: N_2  and  C_7 
REMARK    2  A    between atoms: O_4  and  C_12 
REMARK    3  A    between atoms: C_7  and  C_10 
ROOT
HETATM    1  C   UNL     1      15.616   5.943   2.583  1.00  0.00    -0.005 C 
HETATM    2  C   UNL     1      13.201   5.560   2.983  1.00  0.00     0.001 C 
HETATM    3  C   UNL     1      14.313   6.562   3.028  1.00  0.00     0.024 C 
HETATM    4  C   UNL     1      14.003   7.742   2.112  1.00  0.00     0.030 C 
HETATM    5  C   UNL     1      14.468   4.097   1.542  1.00  0.00     0.071 C 
HETATM    6  C   UNL     1      11.985   4.329   1.116  1.00  0.00     0.050 C 
HETATM    7  C   UNL     1      13.208   4.616   1.958  1.00  0.00    -0.031 C 
HETATM    8  C   UNL     1      15.643   4.841   1.768  1.00  0.00     0.034 C 
ENDROOT
BRANCH   3   9
HETATM    9  C   UNL     1      14.535   6.996   4.472  1.00  0.00     0.084 C 
BRANCH   9  10
HETATM   10  N   UNL     1      14.624   6.063   5.551  1.00  0.00    -0.313 N 
HETATM   11  C   UNL     1      15.297   5.140   6.220  1.00  0.00     0.287 C 
HETATM   12  O   UNL     1      15.408   3.958   5.818  1.00  0.00    -0.629 OA
HETATM   13  O   UNL     1      15.763   5.524   7.344  1.00  0.00    -0.629 OA
ATOM     14  HN  UNL     1      13.738   6.153   6.047  1.00  0.00     0.171 HD
ENDBRANCH   9  10
ENDBRANCH   3   9
BRANCH   5  15
HETATM   15  O   UNL     1      14.515   2.922   0.903  1.00  0.00    -0.360 OA
ATOM     16  HO  UNL     1      13.779   2.652   0.367  1.00  0.00     0.217 HD
ENDBRANCH   5  15
TORSDOF 3
ENDMDL
MODEL 9
REMARK VINA RESULT:      -4.2      3.967      6.824
REMARK  3 active torsions:
REMARK  status: ('A' for Active; 'I' for Inactive)
REMARK       I    between atoms: N_2  and  C_6 
REMARK    1  A    between atoms: N_2  and  C_7 
REMARK    2  A    between atoms: O_4  and  C_12 
REMARK    3  A    between atoms: C_7  and  C_10 
ROOT
HETATM    1  C   UNL     1      15.303  -0.902   1.006  1.00  0.00    -0.005 C 
HETATM    2  C   UNL     1      15.367   1.484   0.342  1.00  0.00     0.001 C 
HETATM    3  C   UNL     1      14.576   0.213   0.295  1.00  0.00     0.024 C 
HETATM    4  C   UNL     1      13.219   0.406   0.965  1.00  0.00     0.030 C 
HETATM    5  C   UNL     1      16.733   0.664   2.153  1.00  0.00     0.071 C 
HETATM    6  C   UNL     1      16.042   3.097   2.191  1.00  0.00     0.050 C 
HETATM    7  C   UNL     1      16.104   1.757   1.492  1.00  0.00    -0.031 C 
HETATM    8  C   UNL     1      16.235  -0.643   1.978  1.00  0.00     0.034 C 
ENDROOT
BRANCH   3   9
HETATM    9  C   UNL     1      14.444  -0.239  -1.154  1.00  0.00     0.084 C 
BRANCH   9  10
HETATM   10  N   UNL     1      14.979  -1.476  -1.627  1.00  0.00    -0.313 N 
HETATM   11  C   UNL     1      14.960  -2.486  -2.484  1.00  0.00     0.287 C 
HETATM   12  O   UNL     1      14.129  -3.420  -2.412  1.00  0.00    -0.629 OA
HETATM   13  O   UNL     1      15.900  -2.474  -3.347  1.00  0.00    -0.629 OA
ATOM     14  HN  UNL     1      15.753  -1.684  -0.995  1.00  0.00     0.171 HD
ENDBRANCH   9  10
ENDBRANCH   3   9
BRANCH   5  15
HETATM   15  O   UNL     1      17.769   0.896   2.967  1.00  0.00    -0.360 OA
ATOM     16  HO  UNL     1      18.216   1.733   2.926  1.00  0.00     0.217 HD
ENDBRANCH   5  15
TORSDOF 3
ENDMDL
