REMARK  4 active torsions:
REMARK  status: ('A' for Active; 'I' for Inactive)
REMARK    1  A    between atoms: O_1  and  P_8 
REMARK    2  A    between atoms: O_3  and  P_11 
REMARK    3  A    between atoms: O_6  and  P_8 
REMARK    4  A    between atoms: O_9  and  P_11 
ROOT
HETATM    1  O   UNL     1      22.222  10.364  -1.821  1.00  0.00    -0.209 OA
HETATM    2  P   UNL     1      23.717   9.933  -1.629  1.00  0.00     0.394 P 
HETATM    3  P   UNL     1      22.614  10.595  -3.322  1.00  0.00     0.394 P 
HETATM    4  O   UNL     1      24.155  10.432  -3.054  1.00  0.00    -0.209 OA
ENDROOT
BRANCH   2   5
HETATM    5  O   UNL     1      23.810   8.421  -1.578  1.00  0.00    -0.314 OA
ATOM      6  HO  UNL     1      24.716   8.160  -1.462  1.00  0.00     0.221 HD
ENDBRANCH   2   5
BRANCH   2   7
HETATM    7  O   UNL     1      24.302  10.496  -0.396  1.00  0.00    -0.314 OA
ATOM      8  HO  UNL     1      24.244  11.444  -0.428  1.00  0.00     0.221 HD
ENDBRANCH   2   7
BRANCH   3   9
HETATM    9  O   UNL     1      22.283  11.958  -3.769  1.00  0.00    -0.314 OA
ATOM     10  HO  UNL     1      22.520  12.098  -4.678  1.00  0.00     0.221 HD
ENDBRANCH   3   9
BRANCH   3  11
HETATM   11  O   UNL     1      22.098   9.553  -4.242  1.00  0.00    -0.314 OA
ATOM     12  HO  UNL     1      22.312   8.673  -3.954  1.00  0.00     0.221 HD
ENDBRANCH   3  11
TORSDOF 4
