REMARK  8 active torsions:
REMARK  status: ('A' for Active; 'I' for Inactive)
REMARK    1  A    between atoms: C_3  and  O_10 
REMARK    2  A    between atoms: C_3  and  O_16 
REMARK    3  A    between atoms: O_5  and  C_21 
REMARK    4  A    between atoms: O_12  and  C_26 
REMARK    5  A    between atoms: C_18  and  C_25 
REMARK    6  A    between atoms: C_20  and  O_34 
REMARK    7  A    between atoms: O_23  and  C_30 
REMARK    8  A    between atoms: C_30  and  O_32 
ROOT
HETATM    1  C   UNL     1      93.688 -22.782 222.223  1.00  0.00     0.086 C 
HETATM    2  F   UNL     1      96.087 -25.202 224.435  1.00  0.00    -0.240 F 
HETATM    3  C   UNL     1      94.783 -22.129 222.890  1.00  0.00    -0.014 C 
HETATM    4  C   UNL     1      95.199 -20.749 222.486  1.00  0.00     0.072 C 
HETATM    5  O   UNL     1      95.457 -19.569 220.408  1.00  0.00    -0.346 OA
HETATM    6  C   UNL     1      95.084 -24.226 224.329  1.00  0.00     0.268 C 
HETATM    7  C   UNL     1      95.020 -19.976 219.085  1.00  0.00     0.090 C 
HETATM    8  C   UNL     1      96.013 -22.032 220.463  1.00  0.00     0.068 C 
HETATM    9  C   UNL     1      93.955 -21.043 219.367  1.00  0.00     0.205 C 
HETATM   10  C   UNL     1      95.728 -23.002 223.671  1.00  0.00     0.189 C 
HETATM   11  C   UNL     1      92.945 -23.792 223.092  1.00  0.00     0.240 C 
HETATM   12  O   UNL     1      93.701 -22.957 220.830  1.00  0.00    -0.344 OA
HETATM   13  C   UNL     1      96.027 -20.671 221.179  1.00  0.00     0.135 C 
HETATM   14  C   UNL     1      93.903 -24.882 223.589  1.00  0.00     0.227 C 
HETATM   15  C   UNL     1      94.606 -22.315 219.933  1.00  0.00     0.166 C 
ENDROOT
BRANCH   7  16
HETATM   16  C   UNL     1      94.809 -19.029 217.942  1.00  0.00     0.039 C 
HETATM   17  C   UNL     1      95.756 -17.814 217.759  1.00  0.00     0.211 C 
HETATM   18  C   UNL     1      95.083 -16.768 216.936  1.00  0.00     0.046 C 
HETATM   19  C   UNL     1      94.185 -17.149 215.960  1.00  0.00     0.002 C 
HETATM   20  C   UNL     1      93.853 -18.501 215.772  1.00  0.00     0.001 C 
HETATM   21  C   UNL     1      94.173 -19.444 216.753  1.00  0.00     0.015 C 
BRANCH  17  22
HETATM   22  O   UNL     1      96.913 -18.263 217.126  1.00  0.00    -0.358 OA
ATOM     23  HO  UNL     1      96.672 -18.626 216.282  1.00  0.00     0.213 HD
ENDBRANCH  17  22
BRANCH  17  24
HETATM   24  O   UNL     1      96.108 -17.285 218.991  1.00  0.00    -0.358 OA
ATOM     25  HO  UNL     1      95.319 -16.979 219.423  1.00  0.00     0.213 HD
ENDBRANCH  17  24
ENDBRANCH   7  16
BRANCH   9  26
HETATM   26  O   UNL     1      93.081 -21.337 218.299  1.00  0.00    -0.386 OA
ATOM     27  HO  UNL     1      92.421 -21.998 218.474  1.00  0.00     0.210 HD
ENDBRANCH   9  26
BRANCH  10  28
HETATM   28  O   UNL     1      96.308 -22.219 224.699  1.00  0.00    -0.388 OA
ATOM     29  HO  UNL     1      96.904 -22.770 225.192  1.00  0.00     0.210 HD
ENDBRANCH  10  28
BRANCH  11  30
HETATM   30  O   UNL     1      91.836 -24.345 222.396  1.00  0.00    -0.383 OA
ATOM     31  HO  UNL     1      91.373 -24.974 222.937  1.00  0.00     0.210 HD
ENDBRANCH  11  30
BRANCH  14  32
HETATM   32  O   UNL     1      93.214 -25.719 224.497  1.00  0.00    -0.361 OA
ATOM     33  HO  UNL     1      92.486 -26.124 224.041  1.00  0.00     0.213 HD
ENDBRANCH  14  32
BRANCH  14  34
HETATM   34  O   UNL     1      94.373 -25.652 222.517  1.00  0.00    -0.361 OA
ATOM     35  HO  UNL     1      93.645 -26.057 222.061  1.00  0.00     0.213 HD
ENDBRANCH  14  34
TORSDOF 8
