MODEL 1
REMARK VINA RESULT:      -7.8      0.000      0.000
REMARK  3 active torsions:
REMARK  status: ('A' for Active; 'I' for Inactive)
REMARK    1  A    between atoms: O_2  and  C_14 
REMARK    2  A    between atoms: C_4  and  C_22 
REMARK       I    between atoms: N_8  and  C_22 
REMARK    3  A    between atoms: O_17  and  C_27 
ROOT
HETATM    1  C   UNL     1      33.897 -10.478 -24.161  1.00  0.00     0.002 C 
HETATM    2  C   UNL     1      36.148 -10.431 -25.138  1.00  0.00     0.033 C 
HETATM    3  C   UNL     1      34.773 -10.444 -25.225  1.00  0.00     0.017 C 
HETATM    4  C   UNL     1      36.974  -8.153 -22.427  1.00  0.00     0.014 C 
HETATM    5  C   UNL     1      36.367  -9.302 -22.922  1.00  0.00    -0.025 C 
HETATM    6  C   UNL     1      35.737  -9.245 -19.927  1.00  0.00     0.088 C 
HETATM    7  C   UNL     1      35.745  -7.917 -20.327  1.00  0.00     0.067 C 
HETATM    8  C   UNL     1      35.485 -10.249 -20.852  1.00  0.00     0.050 C 
HETATM    9  C   UNL     1      34.162 -10.360 -22.813  1.00  0.00     0.012 C 
HETATM   10  C   UNL     1      35.356  -9.960 -22.211  1.00  0.00    -0.023 C 
HETATM   11  C   UNL     1      36.837  -9.726 -24.167  1.00  0.00     0.029 C 
HETATM   12  C   UNL     1      36.627  -7.459 -21.283  1.00  0.00     0.027 C 
HETATM   13 CL   UNL     1      34.547  -6.874 -19.667  1.00  0.00    -0.081 Cl
ENDROOT
BRANCH   2  14
HETATM   14  C   UNL     1      36.923 -11.179 -26.098  1.00  0.00     0.264 C 
HETATM   15  N   UNL     1      37.047 -12.545 -25.876  1.00  0.00    -0.253 N 
HETATM   16  C   UNL     1      35.961 -13.371 -26.110  1.00  0.00     0.104 C 
HETATM   17  C   UNL     1      38.300 -12.990 -25.488  1.00  0.00     0.287 C 
HETATM   18  C   UNL     1      35.862 -14.649 -25.604  1.00  0.00     0.018 C 
HETATM   19  C   UNL     1      36.572 -15.217 -24.561  1.00  0.00     0.004 C 
HETATM   20  C   UNL     1      37.553 -14.645 -23.822  1.00  0.00     0.042 C 
HETATM   21  C   UNL     1      38.519 -13.772 -24.326  1.00  0.00     0.134 C 
HETATM   22  O   UNL     1      39.277 -12.710 -26.208  1.00  0.00    -0.264 OA
HETATM   23  O   UNL     1      37.471 -10.650 -27.048  1.00  0.00    -0.267 OA
BRANCH  21  24
HETATM   24  O   UNL     1      39.730 -13.653 -23.727  1.00  0.00    -0.356 OA
ATOM     25  HO  UNL     1      39.803 -13.591 -22.782  1.00  0.00     0.218 HD
ENDBRANCH  21  24
ENDBRANCH   2  14
BRANCH   6  26
HETATM   26  O   UNL     1      35.976  -9.506 -18.612  1.00  0.00    -0.359 OA
ATOM     27  HO  UNL     1      35.695 -10.348 -18.273  1.00  0.00     0.217 HD
ENDBRANCH   6  26
TORSDOF 3
ENDMDL
MODEL 2
REMARK VINA RESULT:      -7.7      3.504      5.066
REMARK  3 active torsions:
REMARK  status: ('A' for Active; 'I' for Inactive)
REMARK    1  A    between atoms: O_2  and  C_14 
REMARK    2  A    between atoms: C_4  and  C_22 
REMARK       I    between atoms: N_8  and  C_22 
REMARK    3  A    between atoms: O_17  and  C_27 
ROOT
HETATM    1  C   UNL     1      34.907  -9.180 -21.507  1.00  0.00     0.002 C 
HETATM    2  C   UNL     1      36.376  -9.826 -23.365  1.00  0.00     0.033 C 
HETATM    3  C   UNL     1      36.142  -9.435 -22.064  1.00  0.00     0.017 C 
HETATM    4  C   UNL     1      33.819 -12.286 -24.162  1.00  0.00     0.014 C 
HETATM    5  C   UNL     1      34.217 -11.007 -23.789  1.00  0.00    -0.025 C 
HETATM    6  C   UNL     1      31.158 -10.936 -23.894  1.00  0.00     0.088 C 
HETATM    7  C   UNL     1      31.483 -12.209 -23.448  1.00  0.00     0.067 C 
HETATM    8  C   UNL     1      32.049  -9.887 -23.710  1.00  0.00     0.050 C 
HETATM    9  C   UNL     1      33.653  -9.387 -22.041  1.00  0.00     0.012 C 
HETATM   10  C   UNL     1      33.325 -10.108 -23.191  1.00  0.00    -0.023 C 
HETATM   11  C   UNL     1      35.556 -10.708 -24.048  1.00  0.00     0.029 C 
HETATM   12  C   UNL     1      32.593 -12.875 -23.922  1.00  0.00     0.027 C 
HETATM   13 CL   UNL     1      30.511 -12.894 -22.204  1.00  0.00    -0.081 Cl
ENDROOT
BRANCH   2  14
HETATM   14  C   UNL     1      37.525  -9.304 -24.063  1.00  0.00     0.264 C 
HETATM   15  N   UNL     1      38.768  -9.792 -23.676  1.00  0.00    -0.253 N 
HETATM   16  C   UNL     1      39.134 -11.077 -24.037  1.00  0.00     0.104 C 
HETATM   17  C   UNL     1      39.588  -8.906 -22.998  1.00  0.00     0.287 C 
HETATM   18  C   UNL     1      40.158 -11.769 -23.429  1.00  0.00     0.018 C 
HETATM   19  C   UNL     1      40.760 -11.515 -22.209  1.00  0.00     0.004 C 
HETATM   20  C   UNL     1      40.493 -10.501 -21.351  1.00  0.00     0.042 C 
HETATM   21  C   UNL     1      40.171  -9.199 -21.738  1.00  0.00     0.134 C 
HETATM   22  O   UNL     1      39.845  -7.810 -23.530  1.00  0.00    -0.264 OA
HETATM   23  O   UNL     1      37.432  -8.457 -24.933  1.00  0.00    -0.267 OA
BRANCH  21  24
HETATM   24  O   UNL     1      40.428  -8.147 -20.922  1.00  0.00    -0.356 OA
ATOM     25  HO  UNL     1      41.178  -7.584 -21.074  1.00  0.00     0.218 HD
ENDBRANCH  21  24
ENDBRANCH   2  14
BRANCH   6  26
HETATM   26  O   UNL     1      29.949 -10.771 -24.498  1.00  0.00    -0.359 OA
ATOM     27  HO  UNL     1      29.702  -9.889 -24.752  1.00  0.00     0.217 HD
ENDBRANCH   6  26
TORSDOF 3
ENDMDL
MODEL 3
REMARK VINA RESULT:      -7.4      2.077      3.593
REMARK  3 active torsions:
REMARK  status: ('A' for Active; 'I' for Inactive)
REMARK    1  A    between atoms: O_2  and  C_14 
REMARK    2  A    between atoms: C_4  and  C_22 
REMARK       I    between atoms: N_8  and  C_22 
REMARK    3  A    between atoms: O_17  and  C_27 
ROOT
HETATM    1  C   UNL     1      34.067 -10.557 -24.211  1.00  0.00     0.002 C 
HETATM    2  C   UNL     1      36.340 -10.433 -25.130  1.00  0.00     0.033 C 
HETATM    3  C   UNL     1      34.969 -10.496 -25.253  1.00  0.00     0.017 C 
HETATM    4  C   UNL     1      37.013  -8.115 -22.410  1.00  0.00     0.014 C 
HETATM    5  C   UNL     1      36.461  -9.287 -22.915  1.00  0.00    -0.025 C 
HETATM    6  C   UNL     1      35.752  -9.241 -19.937  1.00  0.00     0.088 C 
HETATM    7  C   UNL     1      35.722  -7.915 -20.344  1.00  0.00     0.067 C 
HETATM    8  C   UNL     1      35.560 -10.257 -20.864  1.00  0.00     0.050 C 
HETATM    9  C   UNL     1      34.293 -10.424 -22.857  1.00  0.00     0.012 C 
HETATM   10  C   UNL     1      35.456  -9.979 -22.227  1.00  0.00    -0.023 C 
HETATM   11  C   UNL     1      36.978  -9.699 -24.145  1.00  0.00     0.029 C 
HETATM   12  C   UNL     1      36.612  -7.430 -21.280  1.00  0.00     0.027 C 
HETATM   13 CL   UNL     1      34.470  -6.914 -19.720  1.00  0.00    -0.081 Cl
ENDROOT
BRANCH   2  14
HETATM   14  C   UNL     1      37.166 -11.156 -26.066  1.00  0.00     0.264 C 
HETATM   15  N   UNL     1      38.378 -10.570 -26.416  1.00  0.00    -0.253 N 
HETATM   16  C   UNL     1      39.417 -10.567 -25.502  1.00  0.00     0.104 C 
HETATM   17  C   UNL     1      38.469 -10.082 -27.708  1.00  0.00     0.287 C 
HETATM   18  C   UNL     1      40.508  -9.731 -25.604  1.00  0.00     0.018 C 
HETATM   19  C   UNL     1      40.638  -8.576 -26.354  1.00  0.00     0.004 C 
HETATM   20  C   UNL     1      39.722  -8.024 -27.186  1.00  0.00     0.042 C 
HETATM   21  C   UNL     1      38.857  -8.751 -28.007  1.00  0.00     0.134 C 
HETATM   22  O   UNL     1      38.222 -10.854 -28.653  1.00  0.00    -0.264 OA
HETATM   23  O   UNL     1      36.822 -12.216 -26.556  1.00  0.00    -0.267 OA
BRANCH  21  24
HETATM   24  O   UNL     1      38.366  -8.211 -29.151  1.00  0.00    -0.356 OA
ATOM     25  HO  UNL     1      38.826  -7.508 -29.594  1.00  0.00     0.218 HD
ENDBRANCH  21  24
ENDBRANCH   2  14
BRANCH   6  26
HETATM   26  O   UNL     1      35.965  -9.487 -18.615  1.00  0.00    -0.359 OA
ATOM     27  HO  UNL     1      35.827 -10.376 -18.307  1.00  0.00     0.217 HD
ENDBRANCH   6  26
TORSDOF 3
ENDMDL
MODEL 4
REMARK VINA RESULT:      -7.2      3.015      4.586
REMARK  3 active torsions:
REMARK  status: ('A' for Active; 'I' for Inactive)
REMARK    1  A    between atoms: O_2  and  C_14 
REMARK    2  A    between atoms: C_4  and  C_22 
REMARK       I    between atoms: N_8  and  C_22 
REMARK    3  A    between atoms: O_17  and  C_27 
ROOT
HETATM    1  C   UNL     1      34.605  -9.021 -21.083  1.00  0.00     0.002 C 
HETATM    2  C   UNL     1      36.315  -9.648 -22.729  1.00  0.00     0.033 C 
HETATM    3  C   UNL     1      35.908  -9.248 -21.474  1.00  0.00     0.017 C 
HETATM    4  C   UNL     1      33.946 -12.188 -23.806  1.00  0.00     0.014 C 
HETATM    5  C   UNL     1      34.260 -10.894 -23.404  1.00  0.00    -0.025 C 
HETATM    6  C   UNL     1      31.239 -10.911 -23.899  1.00  0.00     0.088 C 
HETATM    7  C   UNL     1      31.537 -12.169 -23.395  1.00  0.00     0.067 C 
HETATM    8  C   UNL     1      32.071  -9.835 -23.620  1.00  0.00     0.050 C 
HETATM    9  C   UNL     1      33.435  -9.269 -21.769  1.00  0.00     0.012 C 
HETATM   10  C   UNL     1      33.276 -10.014 -22.939  1.00  0.00    -0.023 C 
HETATM   11  C   UNL     1      35.613 -10.561 -23.496  1.00  0.00     0.029 C 
HETATM   12  C   UNL     1      32.716 -12.809 -23.714  1.00  0.00     0.027 C 
HETATM   13 CL   UNL     1      30.434 -12.866 -22.274  1.00  0.00    -0.081 Cl
ENDROOT
BRANCH   2  14
HETATM   14  C   UNL     1      37.530  -9.103 -23.283  1.00  0.00     0.264 C 
HETATM   15  N   UNL     1      37.928  -9.591 -24.522  1.00  0.00    -0.253 N 
HETATM   16  C   UNL     1      37.237  -9.203 -25.657  1.00  0.00     0.104 C 
HETATM   17  C   UNL     1      39.054 -10.397 -24.528  1.00  0.00     0.287 C 
HETATM   18  C   UNL     1      37.316  -9.878 -26.856  1.00  0.00     0.018 C 
HETATM   19  C   UNL     1      37.766 -11.165 -27.089  1.00  0.00     0.004 C 
HETATM   20  C   UNL     1      38.263 -12.042 -26.183  1.00  0.00     0.042 C 
HETATM   21  C   UNL     1      39.075 -11.693 -25.104  1.00  0.00     0.134 C 
HETATM   22  O   UNL     1      40.103  -9.953 -24.026  1.00  0.00    -0.264 OA
HETATM   23  O   UNL     1      38.201  -8.274 -22.695  1.00  0.00    -0.267 OA
BRANCH  21  24
HETATM   24  O   UNL     1      39.946 -12.586 -24.570  1.00  0.00    -0.356 OA
ATOM     25  HO  UNL     1      40.022 -12.690 -23.629  1.00  0.00     0.218 HD
ENDBRANCH  21  24
ENDBRANCH   2  14
BRANCH   6  26
HETATM   26  O   UNL     1      30.113 -10.788 -24.654  1.00  0.00    -0.359 OA
ATOM     27  HO  UNL     1      29.375 -10.327 -24.270  1.00  0.00     0.217 HD
ENDBRANCH   6  26
TORSDOF 3
ENDMDL
MODEL 5
REMARK VINA RESULT:      -7.1      2.642      4.354
REMARK  3 active torsions:
REMARK  status: ('A' for Active; 'I' for Inactive)
REMARK    1  A    between atoms: O_2  and  C_14 
REMARK    2  A    between atoms: C_4  and  C_22 
REMARK       I    between atoms: N_8  and  C_22 
REMARK    3  A    between atoms: O_17  and  C_27 
ROOT
HETATM    1  C   UNL     1      34.981 -10.856 -24.055  1.00  0.00     0.002 C 
HETATM    2  C   UNL     1      36.939  -9.581 -24.807  1.00  0.00     0.033 C 
HETATM    3  C   UNL     1      35.752 -10.246 -25.023  1.00  0.00     0.017 C 
HETATM    4  C   UNL     1      36.469  -7.613 -21.785  1.00  0.00     0.014 C 
HETATM    5  C   UNL     1      36.520  -8.826 -22.465  1.00  0.00    -0.025 C 
HETATM    6  C   UNL     1      35.871  -9.521 -19.554  1.00  0.00     0.088 C 
HETATM    7  C   UNL     1      35.233  -8.313 -19.796  1.00  0.00     0.067 C 
HETATM    8  C   UNL     1      36.169 -10.373 -20.609  1.00  0.00     0.050 C 
HETATM    9  C   UNL     1      35.120 -10.823 -22.684  1.00  0.00     0.012 C 
HETATM   10  C   UNL     1      35.948  -9.988 -21.931  1.00  0.00    -0.023 C 
HETATM   11  C   UNL     1      37.168  -8.781 -23.700  1.00  0.00     0.029 C 
HETATM   12  C   UNL     1      35.798  -7.351 -20.606  1.00  0.00     0.027 C 
HETATM   13 CL   UNL     1      33.661  -8.092 -19.134  1.00  0.00    -0.081 Cl
ENDROOT
BRANCH   2  14
HETATM   14  C   UNL     1      38.005  -9.710 -25.771  1.00  0.00     0.264 C 
HETATM   15  N   UNL     1      39.174  -9.002 -25.511  1.00  0.00    -0.253 N 
HETATM   16  C   UNL     1      40.025  -9.443 -24.513  1.00  0.00     0.104 C 
HETATM   17  C   UNL     1      39.430  -7.922 -26.338  1.00  0.00     0.287 C 
HETATM   18  C   UNL     1      40.999  -8.649 -23.948  1.00  0.00     0.018 C 
HETATM   19  C   UNL     1      41.110  -7.271 -23.981  1.00  0.00     0.004 C 
HETATM   20  C   UNL     1      40.294  -6.392 -24.611  1.00  0.00     0.042 C 
HETATM   21  C   UNL     1      39.690  -6.617 -25.849  1.00  0.00     0.134 C 
HETATM   22  O   UNL     1      39.457  -8.111 -27.569  1.00  0.00    -0.264 OA
HETATM   23  O   UNL     1      37.894 -10.380 -26.781  1.00  0.00    -0.267 OA
BRANCH  21  24
HETATM   24  O   UNL     1      39.345  -5.581 -26.654  1.00  0.00    -0.356 OA
ATOM     25  HO  UNL     1      38.556  -5.615 -27.182  1.00  0.00     0.218 HD
ENDBRANCH  21  24
ENDBRANCH   2  14
BRANCH   6  26
HETATM   26  O   UNL     1      36.176  -9.823 -18.262  1.00  0.00    -0.359 OA
ATOM     27  HO  UNL     1      35.956  -9.179 -17.598  1.00  0.00     0.217 HD
ENDBRANCH   6  26
TORSDOF 3
ENDMDL
MODEL 6
REMARK VINA RESULT:      -7.1      4.025      7.188
REMARK  3 active torsions:
REMARK  status: ('A' for Active; 'I' for Inactive)
REMARK    1  A    between atoms: O_2  and  C_14 
REMARK    2  A    between atoms: C_4  and  C_22 
REMARK       I    between atoms: N_8  and  C_22 
REMARK    3  A    between atoms: O_17  and  C_27 
ROOT
HETATM    1  C   UNL     1      36.371  -9.590 -26.662  1.00  0.00     0.002 C 
HETATM    2  C   UNL     1      35.611 -11.279 -25.051  1.00  0.00     0.033 C 
HETATM    3  C   UNL     1      35.488 -10.083 -25.724  1.00  0.00     0.017 C 
HETATM    4  C   UNL     1      36.725 -13.719 -27.507  1.00  0.00     0.014 C 
HETATM    5  C   UNL     1      36.892 -12.546 -26.779  1.00  0.00    -0.025 C 
HETATM    6  C   UNL     1      39.370 -12.789 -28.561  1.00  0.00     0.088 C 
HETATM    7  C   UNL     1      38.325 -13.311 -29.309  1.00  0.00     0.067 C 
HETATM    8  C   UNL     1      39.111 -11.877 -27.547  1.00  0.00     0.050 C 
HETATM    9  C   UNL     1      37.459 -10.209 -27.240  1.00  0.00     0.012 C 
HETATM   10  C   UNL     1      37.803 -11.560 -27.179  1.00  0.00    -0.023 C 
HETATM   11  C   UNL     1      36.085 -12.436 -25.645  1.00  0.00     0.029 C 
HETATM   12  C   UNL     1      37.309 -14.033 -28.718  1.00  0.00     0.027 C 
HETATM   13 CL   UNL     1      38.280 -12.943 -30.989  1.00  0.00    -0.081 Cl
ENDROOT
BRANCH   2  14
HETATM   14  C   UNL     1      35.228 -11.350 -23.661  1.00  0.00     0.264 C 
HETATM   15  N   UNL     1      33.880 -11.560 -23.392  1.00  0.00    -0.253 N 
HETATM   16  C   UNL     1      33.334 -12.814 -23.605  1.00  0.00     0.104 C 
HETATM   17  C   UNL     1      33.189 -10.486 -22.858  1.00  0.00     0.287 C 
HETATM   18  C   UNL     1      31.979 -13.039 -23.708  1.00  0.00     0.018 C 
HETATM   19  C   UNL     1      30.973 -12.123 -23.958  1.00  0.00     0.004 C 
HETATM   20  C   UNL     1      31.098 -10.785 -24.127  1.00  0.00     0.042 C 
HETATM   21  C   UNL     1      31.992  -9.977 -23.423  1.00  0.00     0.134 C 
HETATM   22  O   UNL     1      33.627  -9.958 -21.819  1.00  0.00    -0.264 OA
HETATM   23  O   UNL     1      36.029 -11.208 -22.756  1.00  0.00    -0.267 OA
BRANCH  21  24
HETATM   24  O   UNL     1      31.736  -8.659 -23.228  1.00  0.00    -0.356 OA
ATOM     25  HO  UNL     1      31.968  -8.015 -23.887  1.00  0.00     0.218 HD
ENDBRANCH  21  24
ENDBRANCH   2  14
BRANCH   6  26
HETATM   26  O   UNL     1      40.631 -13.202 -28.869  1.00  0.00    -0.359 OA
ATOM     27  HO  UNL     1      41.356 -12.705 -28.508  1.00  0.00     0.217 HD
ENDBRANCH   6  26
TORSDOF 3
ENDMDL
MODEL 7
REMARK VINA RESULT:      -7.0      3.166      5.353
REMARK  3 active torsions:
REMARK  status: ('A' for Active; 'I' for Inactive)
REMARK    1  A    between atoms: O_2  and  C_14 
REMARK    2  A    between atoms: C_4  and  C_22 
REMARK       I    between atoms: N_8  and  C_22 
REMARK    3  A    between atoms: O_17  and  C_27 
ROOT
HETATM    1  C   UNL     1      35.247 -13.481 -25.412  1.00  0.00     0.002 C 
HETATM    2  C   UNL     1      36.385 -11.466 -24.592  1.00  0.00     0.033 C 
HETATM    3  C   UNL     1      36.260 -12.545 -25.440  1.00  0.00     0.017 C 
HETATM    4  C   UNL     1      33.047 -10.071 -24.221  1.00  0.00     0.014 C 
HETATM    5  C   UNL     1      33.966 -11.107 -24.091  1.00  0.00    -0.025 C 
HETATM    6  C   UNL     1      31.312 -12.198 -23.022  1.00  0.00     0.088 C 
HETATM    7  C   UNL     1      30.969 -11.348 -24.064  1.00  0.00     0.067 C 
HETATM    8  C   UNL     1      32.572 -12.781 -22.988  1.00  0.00     0.050 C 
HETATM    9  C   UNL     1      34.088 -13.484 -24.665  1.00  0.00     0.012 C 
HETATM   10  C   UNL     1      33.553 -12.434 -23.918  1.00  0.00    -0.023 C 
HETATM   11  C   UNL     1      35.305 -10.718 -24.156  1.00  0.00     0.029 C 
HETATM   12  C   UNL     1      31.674 -10.187 -24.305  1.00  0.00     0.027 C 
HETATM   13 CL   UNL     1      29.696 -11.838 -25.112  1.00  0.00    -0.081 Cl
ENDROOT
BRANCH   2  14
HETATM   14  C   UNL     1      37.696 -11.080 -24.130  1.00  0.00     0.264 C 
HETATM   15  N   UNL     1      37.753 -10.068 -23.178  1.00  0.00    -0.253 N 
HETATM   16  C   UNL     1      37.375 -10.342 -21.875  1.00  0.00     0.104 C 
HETATM   17  C   UNL     1      38.257  -8.853 -23.608  1.00  0.00     0.287 C 
HETATM   18  C   UNL     1      37.063  -9.362 -20.959  1.00  0.00     0.018 C 
HETATM   19  C   UNL     1      36.736  -8.038 -21.194  1.00  0.00     0.004 C 
HETATM   20  C   UNL     1      36.682  -7.401 -22.389  1.00  0.00     0.042 C 
HETATM   21  C   UNL     1      37.563  -7.626 -23.448  1.00  0.00     0.134 C 
HETATM   22  O   UNL     1      39.383  -8.832 -24.139  1.00  0.00    -0.264 OA
HETATM   23  O   UNL     1      38.715 -11.587 -24.562  1.00  0.00    -0.267 OA
BRANCH  21  24
HETATM   24  O   UNL     1      37.811  -6.657 -24.365  1.00  0.00    -0.356 OA
ATOM     25  HO  UNL     1      37.102  -6.152 -24.744  1.00  0.00     0.218 HD
ENDBRANCH  21  24
ENDBRANCH   2  14
BRANCH   6  26
HETATM   26  O   UNL     1      30.372 -12.433 -22.067  1.00  0.00    -0.359 OA
ATOM     27  HO  UNL     1      30.106 -11.699 -21.524  1.00  0.00     0.217 HD
ENDBRANCH   6  26
TORSDOF 3
ENDMDL
MODEL 8
REMARK VINA RESULT:      -6.9      3.289      6.504
REMARK  3 active torsions:
REMARK  status: ('A' for Active; 'I' for Inactive)
REMARK    1  A    between atoms: O_2  and  C_14 
REMARK    2  A    between atoms: C_4  and  C_22 
REMARK       I    between atoms: N_8  and  C_22 
REMARK    3  A    between atoms: O_17  and  C_27 
ROOT
HETATM    1  C   UNL     1      37.605 -12.406 -27.095  1.00  0.00     0.002 C 
HETATM    2  C   UNL     1      36.056 -11.690 -25.330  1.00  0.00     0.033 C 
HETATM    3  C   UNL     1      36.476 -11.756 -26.641  1.00  0.00     0.017 C 
HETATM    4  C   UNL     1      36.554 -15.010 -23.933  1.00  0.00     0.014 C 
HETATM    5  C   UNL     1      37.028 -13.842 -24.521  1.00  0.00    -0.025 C 
HETATM    6  C   UNL     1      39.480 -15.628 -24.105  1.00  0.00     0.088 C 
HETATM    7  C   UNL     1      38.438 -16.495 -24.401  1.00  0.00     0.067 C 
HETATM    8  C   UNL     1      39.425 -14.306 -24.526  1.00  0.00     0.050 C 
HETATM    9  C   UNL     1      38.466 -13.235 -26.408  1.00  0.00     0.012 C 
HETATM   10  C   UNL     1      38.283 -13.793 -25.141  1.00  0.00    -0.023 C 
HETATM   11  C   UNL     1      36.158 -12.752 -24.449  1.00  0.00     0.029 C 
HETATM   12  C   UNL     1      37.155 -16.254 -23.958  1.00  0.00     0.027 C 
HETATM   13 CL   UNL     1      38.777 -17.833 -25.427  1.00  0.00    -0.081 Cl
ENDROOT
BRANCH   2  14
HETATM   14  C   UNL     1      35.474 -10.465 -24.837  1.00  0.00     0.264 C 
HETATM   15  N   UNL     1      36.210  -9.758 -23.893  1.00  0.00    -0.253 N 
HETATM   16  C   UNL     1      37.336  -9.061 -24.295  1.00  0.00     0.104 C 
HETATM   17  C   UNL     1      35.707  -9.756 -22.603  1.00  0.00     0.287 C 
HETATM   18  C   UNL     1      38.309  -8.631 -23.420  1.00  0.00     0.018 C 
HETATM   19  C   UNL     1      38.551  -9.059 -22.126  1.00  0.00     0.004 C 
HETATM   20  C   UNL     1      37.856  -9.982 -21.418  1.00  0.00     0.042 C 
HETATM   21  C   UNL     1      36.471 -10.144 -21.473  1.00  0.00     0.134 C 
HETATM   22  O   UNL     1      34.536  -9.372 -22.424  1.00  0.00    -0.264 OA
HETATM   23  O   UNL     1      34.382 -10.069 -25.200  1.00  0.00    -0.267 OA
BRANCH  21  24
HETATM   24  O   UNL     1      35.789 -10.666 -20.423  1.00  0.00    -0.356 OA
ATOM     25  HO  UNL     1      35.370 -11.516 -20.487  1.00  0.00     0.218 HD
ENDBRANCH  21  24
ENDBRANCH   2  14
BRANCH   6  26
HETATM   26  O   UNL     1      40.535 -16.129 -23.405  1.00  0.00    -0.359 OA
ATOM     27  HO  UNL     1      40.905 -15.586 -22.719  1.00  0.00     0.217 HD
ENDBRANCH   6  26
TORSDOF 3
ENDMDL
MODEL 9
REMARK VINA RESULT:      -6.8      1.819      2.424
REMARK  3 active torsions:
REMARK  status: ('A' for Active; 'I' for Inactive)
REMARK    1  A    between atoms: O_2  and  C_14 
REMARK    2  A    between atoms: C_4  and  C_22 
REMARK       I    between atoms: N_8  and  C_22 
REMARK    3  A    between atoms: O_17  and  C_27 
ROOT
HETATM    1  C   UNL     1      34.273 -10.621 -24.170  1.00  0.00     0.002 C 
HETATM    2  C   UNL     1      36.506 -10.071 -25.028  1.00  0.00     0.033 C 
HETATM    3  C   UNL     1      35.164 -10.344 -25.185  1.00  0.00     0.017 C 
HETATM    4  C   UNL     1      36.767  -7.872 -22.143  1.00  0.00     0.014 C 
HETATM    5  C   UNL     1      36.416  -9.079 -22.739  1.00  0.00    -0.025 C 
HETATM    6  C   UNL     1      35.676  -9.356 -19.780  1.00  0.00     0.088 C 
HETATM    7  C   UNL     1      35.438  -8.026 -20.098  1.00  0.00     0.067 C 
HETATM    8  C   UNL     1      35.660 -10.322 -20.778  1.00  0.00     0.050 C 
HETATM    9  C   UNL     1      34.459 -10.549 -22.805  1.00  0.00     0.012 C 
HETATM   10  C   UNL     1      35.528  -9.968 -22.121  1.00  0.00    -0.023 C 
HETATM   11  C   UNL     1      37.007  -9.316 -23.981  1.00  0.00     0.029 C 
HETATM   12  C   UNL     1      36.249  -7.341 -20.978  1.00  0.00     0.027 C 
HETATM   13 CL   UNL     1      34.035  -7.284 -19.435  1.00  0.00    -0.081 Cl
ENDROOT
BRANCH   2  14
HETATM   14  C   UNL     1      37.448 -10.585 -25.992  1.00  0.00     0.264 C 
HETATM   15  N   UNL     1      38.609 -11.161 -25.488  1.00  0.00    -0.253 N 
HETATM   16  C   UNL     1      38.543 -12.407 -24.889  1.00  0.00     0.104 C 
HETATM   17  C   UNL     1      39.780 -10.450 -25.690  1.00  0.00     0.287 C 
HETATM   18  C   UNL     1      39.531 -12.901 -24.067  1.00  0.00     0.018 C 
HETATM   19  C   UNL     1      40.541 -12.207 -23.423  1.00  0.00     0.004 C 
HETATM   20  C   UNL     1      40.800 -10.879 -23.488  1.00  0.00     0.042 C 
HETATM   21  C   UNL     1      40.664 -10.099 -24.638  1.00  0.00     0.134 C 
HETATM   22  O   UNL     1      40.083 -10.124 -26.853  1.00  0.00    -0.264 OA
HETATM   23  O   UNL     1      37.263 -10.504 -27.192  1.00  0.00    -0.267 OA
BRANCH  21  24
HETATM   24  O   UNL     1      41.400  -8.972 -24.806  1.00  0.00    -0.356 OA
ATOM     25  HO  UNL     1      41.113  -8.143 -24.441  1.00  0.00     0.218 HD
ENDBRANCH  21  24
ENDBRANCH   2  14
BRANCH   6  26
HETATM   26  O   UNL     1      35.912  -9.657 -18.474  1.00  0.00    -0.359 OA
ATOM     27  HO  UNL     1      35.469  -9.133 -17.816  1.00  0.00     0.217 HD
ENDBRANCH   6  26
TORSDOF 3
ENDMDL
