MODEL 1
REMARK VINA RESULT:      -8.8      0.000      0.000
REMARK  3 active torsions:
REMARK  status: ('A' for Active; 'I' for Inactive)
REMARK    1  A    between atoms: C_1  and  N_32 
REMARK    2  A    between atoms: O_12  and  C_21 
REMARK    3  A    between atoms: O_14  and  C_21 
ROOT
HETATM    1  C   UNL     1       8.509  41.394  19.360  1.00  0.00     0.039 C 
HETATM    2  O   UNL     1      11.756  46.229  23.947  1.00  0.00    -0.643 OA
HETATM    3  P   UNL     1      11.105  45.543  22.785  1.00  0.00     0.317 P 
HETATM    4  C   UNL     1       8.425  44.659  19.526  1.00  0.00     0.078 C 
HETATM    5  C   UNL     1       9.260  44.361  21.663  1.00  0.00     0.204 C 
HETATM    6  C   UNL     1       7.629  44.347  18.438  1.00  0.00     0.037 C 
HETATM    7  C   UNL     1       7.569  41.815  18.439  1.00  0.00     0.030 C 
HETATM    8  C   UNL     1       7.228  43.086  18.118  1.00  0.00     0.005 C 
HETATM    9  C   UNL     1       9.125  42.321  20.198  1.00  0.00     0.042 C 
HETATM   10  C   UNL     1       9.619  46.489  22.568  1.00  0.00     0.299 C 
HETATM   11  C   UNL     1       8.964  43.685  20.378  1.00  0.00     0.009 C 
HETATM   12  O   UNL     1       8.518  45.969  20.040  1.00  0.00    -0.336 OA
HETATM   13  C   UNL     1       9.149  45.823  21.317  1.00  0.00     0.238 C 
HETATM   14  O   UNL     1      10.513  44.159  22.302  1.00  0.00    -0.295 OA
HETATM   15  O   UNL     1      12.277  45.700  21.861  1.00  0.00    -0.643 OA
ENDROOT
BRANCH   1  16
HETATM   16  N   UNL     1       8.887  40.032  19.323  1.00  0.00    -0.300 N 
HETATM   17  C   UNL     1       8.667  39.196  20.507  1.00  0.00     0.139 C 
HETATM   18  C   UNL     1       8.176  37.764  20.333  1.00  0.00     0.010 C 
HETATM   19  C   UNL     1       9.289  36.764  19.984  1.00  0.00     0.009 C 
HETATM   20  C   UNL     1       7.433  37.338  21.596  1.00  0.00     0.007 C 
HETATM   21  C   UNL     1       9.871  37.109  18.608  1.00  0.00     0.129 C 
HETATM   22  C   UNL     1       8.739  35.335  19.953  1.00  0.00     0.007 C 
HETATM   23  N   UNL     1      10.456  38.443  18.617  1.00  0.00    -0.342 N 
HETATM   24  C   UNL     1       9.724  39.569  18.319  1.00  0.00     0.322 C 
ATOM     25  HN  UNL     1      11.444  38.546  18.852  1.00  0.00     0.164 HD
HETATM   26  O   UNL     1       9.824  40.148  17.251  1.00  0.00    -0.247 OA
HETATM   27  C   UNL     1       8.122  34.994  21.303  1.00  0.00     0.000 C 
HETATM   28  C   UNL     1       6.917  35.908  21.497  1.00  0.00     0.000 C 
ENDBRANCH   1  16
BRANCH  10  29
HETATM   29  O   UNL     1       9.848  47.891  22.496  1.00  0.00    -0.353 OA
ATOM     30  HO  UNL     1       9.096  48.380  22.181  1.00  0.00     0.213 HD
ENDBRANCH  10  29
BRANCH  10  31
HETATM   31  O   UNL     1       8.808  46.163  23.672  1.00  0.00    -0.353 OA
ATOM     32  HO  UNL     1       8.930  45.230  23.805  1.00  0.00     0.213 HD
ENDBRANCH  10  31
TORSDOF 3
ENDMDL
MODEL 2
REMARK VINA RESULT:      -8.3      4.360      8.602
REMARK  3 active torsions:
REMARK  status: ('A' for Active; 'I' for Inactive)
REMARK    1  A    between atoms: C_1  and  N_32 
REMARK    2  A    between atoms: O_12  and  C_21 
REMARK    3  A    between atoms: O_14  and  C_21 
ROOT
HETATM    1  C   UNL     1       8.865  39.820  19.283  1.00  0.00     0.039 C 
HETATM    2  O   UNL     1      14.106  36.731  15.047  1.00  0.00    -0.643 OA
HETATM    3  P   UNL     1      13.193  37.132  16.165  1.00  0.00     0.317 P 
HETATM    4  C   UNL     1      10.401  36.938  19.444  1.00  0.00     0.078 C 
HETATM    5  C   UNL     1      10.997  37.372  17.252  1.00  0.00     0.204 C 
HETATM    6  C   UNL     1       9.546  36.937  20.533  1.00  0.00     0.037 C 
HETATM    7  C   UNL     1       8.247  39.097  20.285  1.00  0.00     0.030 C 
HETATM    8  C   UNL     1       8.573  37.865  20.745  1.00  0.00     0.005 C 
HETATM    9  C   UNL     1       9.864  39.230  18.513  1.00  0.00     0.042 C 
HETATM   10  C   UNL     1      12.364  35.609  16.545  1.00  0.00     0.299 C 
HETATM   11  C   UNL     1      10.397  37.951  18.476  1.00  0.00     0.009 C 
HETATM   12  O   UNL     1      11.131  35.795  19.058  1.00  0.00    -0.336 OA
HETATM   13  C   UNL     1      11.618  36.091  17.745  1.00  0.00     0.238 C 
HETATM   14  O   UNL     1      11.993  38.091  16.538  1.00  0.00    -0.295 OA
HETATM   15  O   UNL     1      14.283  37.672  17.045  1.00  0.00    -0.643 OA
ENDROOT
BRANCH   1  16
HETATM   16  N   UNL     1       8.523  41.188  19.167  1.00  0.00    -0.300 N 
HETATM   17  C   UNL     1       8.580  42.043  20.356  1.00  0.00     0.139 C 
HETATM   18  C   UNL     1       9.120  43.463  20.234  1.00  0.00     0.010 C 
HETATM   19  C   UNL     1       8.090  44.475  19.705  1.00  0.00     0.009 C 
HETATM   20  C   UNL     1       9.675  43.902  21.586  1.00  0.00     0.007 C 
HETATM   21  C   UNL     1       7.714  44.112  18.263  1.00  0.00     0.129 C 
HETATM   22  C   UNL     1       8.667  45.893  19.732  1.00  0.00     0.007 C 
HETATM   23  N   UNL     1       7.108  42.788  18.208  1.00  0.00    -0.342 N 
HETATM   24  C   UNL     1       7.854  41.645  18.042  1.00  0.00     0.322 C 
ATOM     25  HN  UNL     1       6.095  42.707  18.295  1.00  0.00     0.164 HD
HETATM   26  O   UNL     1       7.903  41.047  16.981  1.00  0.00    -0.247 OA
HETATM   27  C   UNL     1       9.082  46.250  21.153  1.00  0.00     0.000 C 
HETATM   28  C   UNL     1      10.227  45.320  21.541  1.00  0.00     0.000 C 
ENDBRANCH   1  16
BRANCH  10  29
HETATM   29  O   UNL     1      13.253  34.517  16.744  1.00  0.00    -0.353 OA
ATOM     30  HO  UNL     1      13.816  34.623  17.503  1.00  0.00     0.213 HD
ENDBRANCH  10  29
BRANCH  10  31
HETATM   31  O   UNL     1      11.506  35.373  15.454  1.00  0.00    -0.353 OA
ATOM     32  HO  UNL     1      11.611  36.127  14.885  1.00  0.00     0.213 HD
ENDBRANCH  10  31
TORSDOF 3
ENDMDL
MODEL 3
REMARK VINA RESULT:      -7.5      4.387      8.337
REMARK  3 active torsions:
REMARK  status: ('A' for Active; 'I' for Inactive)
REMARK    1  A    between atoms: C_1  and  N_32 
REMARK    2  A    between atoms: O_12  and  C_21 
REMARK    3  A    between atoms: O_14  and  C_21 
ROOT
HETATM    1  C   UNL     1       9.352  39.893  18.490  1.00  0.00     0.039 C 
HETATM    2  O   UNL     1       7.778  34.751  23.593  1.00  0.00    -0.643 OA
HETATM    3  P   UNL     1       8.062  35.501  22.327  1.00  0.00     0.317 P 
HETATM    4  C   UNL     1       9.779  36.652  18.544  1.00  0.00     0.078 C 
HETATM    5  C   UNL     1       9.462  36.861  20.826  1.00  0.00     0.204 C 
HETATM    6  C   UNL     1      10.256  37.044  17.305  1.00  0.00     0.037 C 
HETATM    7  C   UNL     1      10.076  39.570  17.359  1.00  0.00     0.030 C 
HETATM    8  C   UNL     1      10.448  38.339  16.932  1.00  0.00     0.005 C 
HETATM    9  C   UNL     1       9.046  38.908  19.426  1.00  0.00     0.042 C 
HETATM   10  C   UNL     1       9.534  34.704  21.734  1.00  0.00     0.299 C 
HETATM   11  C   UNL     1       9.374  37.566  19.527  1.00  0.00     0.009 C 
HETATM   12  O   UNL     1       9.937  35.338  19.031  1.00  0.00    -0.336 OA
HETATM   13  C   UNL     1       9.622  35.417  20.425  1.00  0.00     0.238 C 
HETATM   14  O   UNL     1       8.386  36.937  21.752  1.00  0.00    -0.295 OA
HETATM   15  O   UNL     1       6.721  35.233  21.707  1.00  0.00    -0.643 OA
ENDROOT
BRANCH   1  16
HETATM   16  N   UNL     1       8.850  41.212  18.581  1.00  0.00    -0.300 N 
HETATM   17  C   UNL     1       8.847  41.889  19.881  1.00  0.00     0.139 C 
HETATM   18  C   UNL     1       9.213  43.366  19.960  1.00  0.00     0.010 C 
HETATM   19  C   UNL     1       8.056  44.312  19.602  1.00  0.00     0.009 C 
HETATM   20  C   UNL     1       9.759  43.669  21.352  1.00  0.00     0.007 C 
HETATM   21  C   UNL     1       7.677  44.118  18.129  1.00  0.00     0.129 C 
HETATM   22  C   UNL     1       8.465  45.771  19.827  1.00  0.00     0.007 C 
HETATM   23  N   UNL     1       7.227  42.753  17.890  1.00  0.00    -0.342 N 
HETATM   24  C   UNL     1       8.095  41.743  17.546  1.00  0.00     0.322 C 
ATOM     25  HN  UNL     1       6.233  42.539  17.980  1.00  0.00     0.164 HD
HETATM   26  O   UNL     1       8.177  41.314  16.408  1.00  0.00    -0.247 OA
HETATM   27  C   UNL     1       8.883  45.967  21.278  1.00  0.00     0.000 C 
HETATM   28  C   UNL     1      10.141  45.135  21.507  1.00  0.00     0.000 C 
ENDBRANCH   1  16
BRANCH  10  29
HETATM   29  O   UNL     1       9.426  33.288  21.682  1.00  0.00    -0.353 OA
ATOM     30  HO  UNL     1       8.651  32.985  21.222  1.00  0.00     0.213 HD
ENDBRANCH  10  29
BRANCH  10  31
HETATM   31  O   UNL     1      10.553  35.105  22.619  1.00  0.00    -0.353 OA
ATOM     32  HO  UNL     1      10.113  35.601  23.300  1.00  0.00     0.213 HD
ENDBRANCH  10  31
TORSDOF 3
ENDMDL
MODEL 4
REMARK VINA RESULT:      -6.7      6.508      8.845
REMARK  3 active torsions:
REMARK  status: ('A' for Active; 'I' for Inactive)
REMARK    1  A    between atoms: C_1  and  N_32 
REMARK    2  A    between atoms: O_12  and  C_21 
REMARK    3  A    between atoms: O_14  and  C_21 
ROOT
HETATM    1  C   UNL     1       7.112  46.320  14.539  1.00  0.00     0.039 C 
HETATM    2  O   UNL     1       1.507  50.978  15.898  1.00  0.00    -0.643 OA
HETATM    3  P   UNL     1       2.837  50.354  15.604  1.00  0.00     0.317 P 
HETATM    4  C   UNL     1       6.614  49.450  13.733  1.00  0.00     0.078 C 
HETATM    5  C   UNL     1       4.404  49.014  14.258  1.00  0.00     0.204 C 
HETATM    6  C   UNL     1       7.859  49.150  13.207  1.00  0.00     0.037 C 
HETATM    7  C   UNL     1       8.142  46.680  13.691  1.00  0.00     0.030 C 
HETATM    8  C   UNL     1       8.381  47.895  13.142  1.00  0.00     0.005 C 
HETATM    9  C   UNL     1       6.080  47.218  14.800  1.00  0.00     0.042 C 
HETATM   10  C   UNL     1       3.224  51.019  14.004  1.00  0.00     0.299 C 
HETATM   11  C   UNL     1       5.786  48.486  14.324  1.00  0.00     0.009 C 
HETATM   12  O   UNL     1       5.954  50.665  13.460  1.00  0.00    -0.336 OA
HETATM   13  C   UNL     1       4.605  50.462  13.895  1.00  0.00     0.238 C 
HETATM   14  O   UNL     1       3.568  48.967  15.407  1.00  0.00    -0.295 OA
HETATM   15  O   UNL     1       3.504  50.864  16.848  1.00  0.00    -0.643 OA
ENDROOT
BRANCH   1  16
HETATM   16  N   UNL     1       7.224  45.075  15.201  1.00  0.00    -0.300 N 
HETATM   17  C   UNL     1       8.112  44.958  16.360  1.00  0.00     0.139 C 
HETATM   18  C   UNL     1       7.670  44.136  17.564  1.00  0.00     0.010 C 
HETATM   19  C   UNL     1       7.890  42.624  17.398  1.00  0.00     0.009 C 
HETATM   20  C   UNL     1       8.380  44.658  18.810  1.00  0.00     0.007 C 
HETATM   21  C   UNL     1       6.998  42.102  16.264  1.00  0.00     0.129 C 
HETATM   22  C   UNL     1       7.541  41.883  18.692  1.00  0.00     0.007 C 
HETATM   23  N   UNL     1       7.341  42.744  15.003  1.00  0.00    -0.342 N 
HETATM   24  C   UNL     1       6.756  43.919  14.594  1.00  0.00     0.322 C 
ATOM     25  HN  UNL     1       8.041  42.307  14.402  1.00  0.00     0.164 HD
HETATM   26  O   UNL     1       5.899  43.954  13.727  1.00  0.00    -0.247 OA
HETATM   27  C   UNL     1       8.393  42.421  19.834  1.00  0.00     0.000 C 
HETATM   28  C   UNL     1       7.991  43.876  20.057  1.00  0.00     0.000 C 
ENDBRANCH   1  16
BRANCH  10  29
HETATM   29  O   UNL     1       3.101  52.434  13.937  1.00  0.00    -0.353 OA
ATOM     30  HO  UNL     1       3.229  52.864  14.775  1.00  0.00     0.213 HD
ENDBRANCH  10  29
BRANCH  10  31
HETATM   31  O   UNL     1       2.333  50.388  13.115  1.00  0.00    -0.353 OA
ATOM     32  HO  UNL     1       1.480  50.760  13.311  1.00  0.00     0.213 HD
ENDBRANCH  10  31
TORSDOF 3
ENDMDL
MODEL 5
REMARK VINA RESULT:      -6.4      4.975      8.918
REMARK  3 active torsions:
REMARK  status: ('A' for Active; 'I' for Inactive)
REMARK    1  A    between atoms: C_1  and  N_32 
REMARK    2  A    between atoms: O_12  and  C_21 
REMARK    3  A    between atoms: O_14  and  C_21 
ROOT
HETATM    1  C   UNL     1       8.573  43.228  15.743  1.00  0.00     0.039 C 
HETATM    2  O   UNL     1      13.542  38.092  17.717  1.00  0.00    -0.643 OA
HETATM    3  P   UNL     1      12.464  39.133  17.684  1.00  0.00     0.317 P 
HETATM    4  C   UNL     1       8.700  41.152  18.266  1.00  0.00     0.078 C 
HETATM    5  C   UNL     1      10.280  40.037  16.997  1.00  0.00     0.204 C 
HETATM    6  C   UNL     1       7.533  41.869  18.465  1.00  0.00     0.037 C 
HETATM    7  C   UNL     1       7.370  43.342  16.412  1.00  0.00     0.030 C 
HETATM    8  C   UNL     1       6.986  42.713  17.549  1.00  0.00     0.005 C 
HETATM    9  C   UNL     1       9.504  42.272  16.143  1.00  0.00     0.042 C 
HETATM   10  C   UNL     1      11.051  38.236  18.278  1.00  0.00     0.299 C 
HETATM   11  C   UNL     1       9.483  41.280  17.111  1.00  0.00     0.009 C 
HETATM   12  O   UNL     1       9.040  40.033  19.053  1.00  0.00    -0.336 OA
HETATM   13  C   UNL     1      10.108  39.392  18.347  1.00  0.00     0.238 C 
HETATM   14  O   UNL     1      11.673  40.106  16.723  1.00  0.00    -0.295 OA
HETATM   15  O   UNL     1      13.195  40.112  18.557  1.00  0.00    -0.643 OA
ENDROOT
BRANCH   1  16
HETATM   16  N   UNL     1       8.849  44.185  14.739  1.00  0.00    -0.300 N 
HETATM   17  C   UNL     1       9.212  45.550  15.131  1.00  0.00     0.139 C 
HETATM   18  C   UNL     1      10.307  46.284  14.368  1.00  0.00     0.010 C 
HETATM   19  C   UNL     1       9.829  46.920  13.053  1.00  0.00     0.009 C 
HETATM   20  C   UNL     1      10.936  47.329  15.285  1.00  0.00     0.007 C 
HETATM   21  C   UNL     1       9.397  45.815  12.081  1.00  0.00     0.129 C 
HETATM   22  C   UNL     1      10.951  47.743  12.413  1.00  0.00     0.007 C 
HETATM   23  N   UNL     1       8.290  45.047  12.634  1.00  0.00    -0.342 N 
HETATM   24  C   UNL     1       8.487  43.938  13.423  1.00  0.00     0.322 C 
ATOM     25  HN  UNL     1       7.335  45.342  12.429  1.00  0.00     0.164 HD
HETATM   26  O   UNL     1       8.324  42.804  13.006  1.00  0.00    -0.247 OA
HETATM   27  C   UNL     1      11.415  48.818  13.386  1.00  0.00     0.000 C 
HETATM   28  C   UNL     1      12.040  48.110  14.584  1.00  0.00     0.000 C 
ENDBRANCH   1  16
BRANCH  10  29
HETATM   29  O   UNL     1      11.295  37.540  19.493  1.00  0.00    -0.353 OA
ATOM     30  HO  UNL     1      11.845  38.021  20.101  1.00  0.00     0.213 HD
ENDBRANCH  10  29
BRANCH  10  31
HETATM   31  O   UNL     1      10.715  37.346  17.240  1.00  0.00    -0.353 OA
ATOM     32  HO  UNL     1      10.865  37.831  16.436  1.00  0.00     0.213 HD
ENDBRANCH  10  31
TORSDOF 3
ENDMDL
MODEL 6
REMARK VINA RESULT:      -6.3      7.534     10.673
REMARK  3 active torsions:
REMARK  status: ('A' for Active; 'I' for Inactive)
REMARK    1  A    between atoms: C_1  and  N_32 
REMARK    2  A    between atoms: O_12  and  C_21 
REMARK    3  A    between atoms: O_14  and  C_21 
ROOT
HETATM    1  C   UNL     1      14.612  44.793  14.769  1.00  0.00     0.039 C 
HETATM    2  O   UNL     1      13.383  37.924  17.272  1.00  0.00    -0.643 OA
HETATM    3  P   UNL     1      13.989  39.205  16.786  1.00  0.00     0.317 P 
HETATM    4  C   UNL     1      16.444  42.740  16.535  1.00  0.00     0.078 C 
HETATM    5  C   UNL     1      14.455  41.619  16.907  1.00  0.00     0.204 C 
HETATM    6  C   UNL     1      17.238  43.862  16.374  1.00  0.00     0.037 C 
HETATM    7  C   UNL     1      15.734  45.497  15.158  1.00  0.00     0.030 C 
HETATM    8  C   UNL     1      16.799  45.044  15.863  1.00  0.00     0.005 C 
HETATM    9  C   UNL     1      14.410  43.494  15.232  1.00  0.00     0.042 C 
HETATM   10  C   UNL     1      14.958  39.721  18.182  1.00  0.00     0.299 C 
HETATM   11  C   UNL     1      15.108  42.687  16.116  1.00  0.00     0.009 C 
HETATM   12  O   UNL     1      16.807  41.676  17.386  1.00  0.00    -0.336 OA
HETATM   13  C   UNL     1      15.618  40.893  17.532  1.00  0.00     0.238 C 
HETATM   14  O   UNL     1      13.636  40.653  16.262  1.00  0.00    -0.295 OA
HETATM   15  O   UNL     1      14.628  38.600  15.570  1.00  0.00    -0.643 OA
ENDROOT
BRANCH   1  16
HETATM   16  N   UNL     1      13.768  45.398  13.809  1.00  0.00    -0.300 N 
HETATM   17  C   UNL     1      12.492  45.976  14.241  1.00  0.00     0.139 C 
HETATM   18  C   UNL     1      12.024  47.296  13.639  1.00  0.00     0.010 C 
HETATM   19  C   UNL     1      11.352  47.148  12.265  1.00  0.00     0.009 C 
HETATM   20  C   UNL     1      11.096  47.992  14.631  1.00  0.00     0.007 C 
HETATM   21  C   UNL     1      12.381  46.638  11.248  1.00  0.00     0.129 C 
HETATM   22  C   UNL     1      10.799  48.494  11.789  1.00  0.00     0.007 C 
HETATM   23  N   UNL     1      12.887  45.330  11.640  1.00  0.00    -0.342 N 
HETATM   24  C   UNL     1      13.984  45.182  12.456  1.00  0.00     0.322 C 
ATOM     25  HN  UNL     1      12.412  44.495  11.297  1.00  0.00     0.164 HD
HETATM   26  O   UNL     1      15.075  44.848  12.028  1.00  0.00    -0.247 OA
HETATM   27  C   UNL     1       9.805  49.029  12.811  1.00  0.00     0.000 C 
HETATM   28  C   UNL     1      10.581  49.320  14.092  1.00  0.00     0.000 C 
ENDBRANCH   1  16
BRANCH  10  29
HETATM   29  O   UNL     1      15.816  38.704  18.681  1.00  0.00    -0.353 OA
ATOM     30  HO  UNL     1      15.973  38.767  19.616  1.00  0.00     0.213 HD
ENDBRANCH  10  29
BRANCH  10  31
HETATM   31  O   UNL     1      14.022  40.120  19.155  1.00  0.00    -0.353 OA
ATOM     32  HO  UNL     1      14.494  40.713  19.728  1.00  0.00     0.213 HD
ENDBRANCH  10  31
TORSDOF 3
ENDMDL
MODEL 7
REMARK VINA RESULT:      -6.3      5.599      8.672
REMARK  3 active torsions:
REMARK  status: ('A' for Active; 'I' for Inactive)
REMARK    1  A    between atoms: C_1  and  N_32 
REMARK    2  A    between atoms: O_12  and  C_21 
REMARK    3  A    between atoms: O_14  and  C_21 
ROOT
HETATM    1  C   UNL     1       9.696  40.782  16.640  1.00  0.00     0.039 C 
HETATM    2  O   UNL     1       8.440  34.682  20.661  1.00  0.00    -0.643 OA
HETATM    3  P   UNL     1       8.982  35.714  19.721  1.00  0.00     0.317 P 
HETATM    4  C   UNL     1      11.678  38.413  17.712  1.00  0.00     0.078 C 
HETATM    5  C   UNL     1       9.946  37.909  19.161  1.00  0.00     0.204 C 
HETATM    6  C   UNL     1      12.506  39.261  16.997  1.00  0.00     0.037 C 
HETATM    7  C   UNL     1      10.984  41.172  16.329  1.00  0.00     0.030 C 
HETATM    8  C   UNL     1      12.134  40.486  16.535  1.00  0.00     0.005 C 
HETATM    9  C   UNL     1       9.479  39.620  17.377  1.00  0.00     0.042 C 
HETATM   10  C   UNL     1      10.597  36.026  20.389  1.00  0.00     0.299 C 
HETATM   11  C   UNL     1      10.333  38.706  17.973  1.00  0.00     0.009 C 
HETATM   12  O   UNL     1      12.179  37.343  18.482  1.00  0.00    -0.336 OA
HETATM   13  C   UNL     1      11.082  36.930  19.303  1.00  0.00     0.238 C 
HETATM   14  O   UNL     1       8.732  37.170  19.158  1.00  0.00    -0.295 OA
HETATM   15  O   UNL     1       8.792  34.885  18.484  1.00  0.00    -0.643 OA
ENDROOT
BRANCH   1  16
HETATM   16  N   UNL     1       8.639  41.538  16.083  1.00  0.00    -0.300 N 
HETATM   17  C   UNL     1       8.533  42.965  16.402  1.00  0.00     0.139 C 
HETATM   18  C   UNL     1       8.139  43.951  15.310  1.00  0.00     0.010 C 
HETATM   19  C   UNL     1       6.625  44.022  15.054  1.00  0.00     0.009 C 
HETATM   20  C   UNL     1       8.700  45.327  15.658  1.00  0.00     0.007 C 
HETATM   21  C   UNL     1       6.138  42.674  14.508  1.00  0.00     0.129 C 
HETATM   22  C   UNL     1       6.302  45.122  14.038  1.00  0.00     0.007 C 
HETATM   23  N   UNL     1       6.378  41.610  15.474  1.00  0.00    -0.342 N 
HETATM   24  C   UNL     1       7.553  40.897  15.504  1.00  0.00     0.322 C 
ATOM     25  HN  UNL     1       5.649  41.387  16.152  1.00  0.00     0.164 HD
HETATM   26  O   UNL     1       7.635  39.757  15.080  1.00  0.00    -0.247 OA
HETATM   27  C   UNL     1       6.817  46.459  14.552  1.00  0.00     0.000 C 
HETATM   28  C   UNL     1       8.338  46.371  14.609  1.00  0.00     0.000 C 
ENDBRANCH   1  16
BRANCH  10  29
HETATM   29  O   UNL     1      11.352  34.843  20.617  1.00  0.00    -0.353 OA
ATOM     30  HO  UNL     1      11.769  34.505  19.833  1.00  0.00     0.213 HD
ENDBRANCH  10  29
BRANCH  10  31
HETATM   31  O   UNL     1      10.372  36.725  21.591  1.00  0.00    -0.353 OA
ATOM     32  HO  UNL     1      10.525  37.640  21.381  1.00  0.00     0.213 HD
ENDBRANCH  10  31
TORSDOF 3
ENDMDL
MODEL 8
REMARK VINA RESULT:      -6.2      6.113      9.057
REMARK  3 active torsions:
REMARK  status: ('A' for Active; 'I' for Inactive)
REMARK    1  A    between atoms: C_1  and  N_32 
REMARK    2  A    between atoms: O_12  and  C_21 
REMARK    3  A    between atoms: O_14  and  C_21 
ROOT
HETATM    1  C   UNL     1      12.613  38.295  17.068  1.00  0.00     0.039 C 
HETATM    2  O   UNL     1       7.667  37.160  22.473  1.00  0.00    -0.643 OA
HETATM    3  P   UNL     1       8.510  37.081  21.237  1.00  0.00     0.317 P 
HETATM    4  C   UNL     1      11.122  35.592  18.148  1.00  0.00     0.078 C 
HETATM    5  C   UNL     1      10.640  36.861  20.021  1.00  0.00     0.204 C 
HETATM    6  C   UNL     1      11.916  35.156  17.102  1.00  0.00     0.037 C 
HETATM    7  C   UNL     1      13.188  37.231  16.401  1.00  0.00     0.030 C 
HETATM    8  C   UNL     1      12.859  35.920  16.485  1.00  0.00     0.005 C 
HETATM    9  C   UNL     1      11.668  38.062  18.065  1.00  0.00     0.042 C 
HETATM   10  C   UNL     1       9.345  35.528  21.444  1.00  0.00     0.299 C 
HETATM   11  C   UNL     1      11.161  36.905  18.635  1.00  0.00     0.009 C 
HETATM   12  O   UNL     1      10.435  34.699  18.995  1.00  0.00    -0.336 OA
HETATM   13  C   UNL     1      10.015  35.492  20.110  1.00  0.00     0.238 C 
HETATM   14  O   UNL     1       9.671  37.809  20.448  1.00  0.00    -0.295 OA
HETATM   15  O   UNL     1       7.364  37.235  20.280  1.00  0.00    -0.643 OA
ENDROOT
BRANCH   1  16
HETATM   16  N   UNL     1      12.936  39.595  16.615  1.00  0.00    -0.300 N 
HETATM   17  C   UNL     1      13.906  40.396  17.368  1.00  0.00     0.139 C 
HETATM   18  C   UNL     1      14.925  41.242  16.616  1.00  0.00     0.010 C 
HETATM   19  C   UNL     1      14.373  42.592  16.129  1.00  0.00     0.009 C 
HETATM   20  C   UNL     1      16.154  41.440  17.499  1.00  0.00     0.007 C 
HETATM   21  C   UNL     1      13.277  42.346  15.085  1.00  0.00     0.129 C 
HETATM   22  C   UNL     1      15.487  43.433  15.499  1.00  0.00     0.007 C 
HETATM   23  N   UNL     1      12.172  41.596  15.667  1.00  0.00    -0.342 N 
HETATM   24  C   UNL     1      12.138  40.221  15.669  1.00  0.00     0.322 C 
ATOM     25  HN  UNL     1      11.396  42.108  16.088  1.00  0.00     0.164 HD
HETATM   26  O   UNL     1      11.426  39.585  14.910  1.00  0.00    -0.247 OA
HETATM   27  C   UNL     1      16.601  43.649  16.514  1.00  0.00     0.000 C 
HETATM   28  C   UNL     1      17.217  42.286  16.812  1.00  0.00     0.000 C 
ENDBRANCH   1  16
BRANCH  10  29
HETATM   29  O   UNL     1       8.466  34.451  21.743  1.00  0.00    -0.353 OA
ATOM     30  HO  UNL     1       8.042  34.534  22.590  1.00  0.00     0.213 HD
ENDBRANCH  10  29
BRANCH  10  31
HETATM   31  O   UNL     1      10.265  35.738  22.488  1.00  0.00    -0.353 OA
ATOM     32  HO  UNL     1      10.120  36.633  22.773  1.00  0.00     0.213 HD
ENDBRANCH  10  31
TORSDOF 3
ENDMDL
MODEL 9
REMARK VINA RESULT:      -6.1      4.638      8.771
REMARK  3 active torsions:
REMARK  status: ('A' for Active; 'I' for Inactive)
REMARK    1  A    between atoms: C_1  and  N_32 
REMARK    2  A    between atoms: O_12  and  C_21 
REMARK    3  A    between atoms: O_14  and  C_21 
ROOT
HETATM    1  C   UNL     1      10.031  38.891  18.527  1.00  0.00     0.039 C 
HETATM    2  O   UNL     1       8.765  34.059  24.005  1.00  0.00    -0.643 OA
HETATM    3  P   UNL     1       9.049  34.724  22.692  1.00  0.00     0.317 P 
HETATM    4  C   UNL     1      10.908  35.769  18.946  1.00  0.00     0.078 C 
HETATM    5  C   UNL     1      10.367  36.135  21.165  1.00  0.00     0.204 C 
HETATM    6  C   UNL     1      11.430  36.113  17.711  1.00  0.00     0.037 C 
HETATM    7  C   UNL     1      10.890  38.578  17.491  1.00  0.00     0.030 C 
HETATM    8  C   UNL     1      11.468  37.383  17.222  1.00  0.00     0.005 C 
HETATM    9  C   UNL     1       9.788  37.961  19.535  1.00  0.00     0.042 C 
HETATM   10  C   UNL     1      10.664  34.106  22.293  1.00  0.00     0.299 C 
HETATM   11  C   UNL     1      10.293  36.698  19.797  1.00  0.00     0.009 C 
HETATM   12  O   UNL     1      11.207  34.544  19.576  1.00  0.00    -0.336 OA
HETATM   13  C   UNL     1      10.764  34.702  20.927  1.00  0.00     0.238 C 
HETATM   14  O   UNL     1       9.215  36.134  21.998  1.00  0.00    -0.295 OA
HETATM   15  O   UNL     1       7.819  34.203  22.007  1.00  0.00    -0.643 OA
ENDROOT
BRANCH   1  16
HETATM   16  N   UNL     1       9.341  40.123  18.445  1.00  0.00    -0.300 N 
HETATM   17  C   UNL     1       9.866  41.182  17.578  1.00  0.00     0.139 C 
HETATM   18  C   UNL     1       8.901  42.024  16.753  1.00  0.00     0.010 C 
HETATM   19  C   UNL     1       8.243  43.166  17.543  1.00  0.00     0.009 C 
HETATM   20  C   UNL     1       9.632  42.558  15.525  1.00  0.00     0.007 C 
HETATM   21  C   UNL     1       7.350  42.576  18.642  1.00  0.00     0.129 C 
HETATM   22  C   UNL     1       7.389  44.039  16.618  1.00  0.00     0.007 C 
HETATM   23  N   UNL     1       8.140  41.785  19.576  1.00  0.00    -0.342 N 
HETATM   24  C   UNL     1       8.374  40.443  19.386  1.00  0.00     0.322 C 
ATOM     25  HN  UNL     1       8.532  42.242  20.400  1.00  0.00     0.164 HD
HETATM   26  O   UNL     1       7.795  39.583  20.027  1.00  0.00    -0.247 OA
HETATM   27  C   UNL     1       8.257  44.598  15.499  1.00  0.00     0.000 C 
HETATM   28  C   UNL     1       8.727  43.418  14.653  1.00  0.00     0.000 C 
ENDBRANCH   1  16
BRANCH  10  29
HETATM   29  O   UNL     1      10.764  32.691  22.379  1.00  0.00    -0.353 OA
ATOM     30  HO  UNL     1      11.416  32.322  21.794  1.00  0.00     0.213 HD
ENDBRANCH  10  29
BRANCH  10  31
HETATM   31  O   UNL     1      11.536  34.734  23.204  1.00  0.00    -0.353 OA
ATOM     32  HO  UNL     1      12.115  34.046  23.511  1.00  0.00     0.213 HD
ENDBRANCH  10  31
TORSDOF 3
ENDMDL
