REMARK  10 active torsions:
REMARK  status: ('A' for Active; 'I' for Inactive)
REMARK    1  A    between atoms: C_4  and  C_27 
REMARK    2  A    between atoms: O_6  and  C_37 
REMARK    3  A    between atoms: O_10  and  P_32 
REMARK    4  A    between atoms: O_12  and  C_28 
REMARK    5  A    between atoms: O_17  and  P_32 
REMARK    6  A    between atoms: N_19  and  C_21 
REMARK    7  A    between atoms: O_26  and  P_32 
REMARK    8  A    between atoms: O_26  and  C_38 
REMARK    9  A    between atoms: C_27  and  C_28 
REMARK   10  A    between atoms: C_27  and  C_38 
ROOT
HETATM    1  C   UNL     1       9.538  44.536  21.162  1.00  0.00     0.080 C 
HETATM    2  C   UNL     1       7.971  41.106  17.984  1.00  0.00     0.254 C 
HETATM    3  C   UNL     1       8.173  44.565  19.203  1.00  0.00     0.053 C 
HETATM    4  O   UNL     1       7.757  40.587  16.870  1.00  0.00    -0.268 OA
HETATM    5  N   UNL     1       9.734  43.180  21.070  1.00  0.00    -0.352 N 
ATOM      6  HN  UNL     1      10.424  42.708  21.654  1.00  0.00     0.166 HD
HETATM    7  N   UNL     1       8.667  40.411  18.987  1.00  0.00    -0.273 N 
HETATM    8  C   UNL     1       8.967  41.076  20.161  1.00  0.00     0.132 C 
HETATM    9  C   UNL     1       8.185  43.159  19.220  1.00  0.00    -0.000 C 
HETATM   10  C   UNL     1       7.513  42.404  18.246  1.00  0.00     0.088 C 
HETATM   11  C   UNL     1       8.976  42.481  20.172  1.00  0.00     0.059 C 
HETATM   12  C   UNL     1       9.096  45.224  20.018  1.00  0.00     0.094 C 
ENDROOT
BRANCH   1  13
HETATM   13  C   UNL     1       9.604  45.159  22.450  1.00  0.00     0.070 C 
BRANCH  13  14
HETATM   14  C   UNL     1       8.956  44.423  23.572  1.00  0.00     0.211 C 
BRANCH  14  15
HETATM   15  O   UNL     1       8.499  45.336  24.541  1.00  0.00    -0.396 OA
ATOM     16  HO  UNL     1       8.086  44.867  25.256  1.00  0.00     0.209 HD
ENDBRANCH  14  15
ENDBRANCH  13  14
BRANCH  13  17
HETATM   17  C   UNL     1      10.003  46.558  22.831  1.00  0.00     0.300 C 
HETATM   18  O   UNL     1       9.322  47.536  22.660  1.00  0.00    -0.259 OA
BRANCH  17  19
HETATM   19  O   UNL     1      11.108  46.577  23.684  1.00  0.00    -0.238 OA
BRANCH  19  20
HETATM   20  P   UNL     1      12.501  45.999  23.419  1.00  0.00     0.337 P 
BRANCH  20  21
HETATM   21  O   UNL     1      13.586  46.952  23.343  1.00  0.00    -0.328 OA
ATOM     22  HO  UNL     1      13.488  47.873  23.555  1.00  0.00     0.219 HD
ENDBRANCH  20  21
BRANCH  20  23
HETATM   23  O   UNL     1      12.648  44.617  23.101  1.00  0.00    -0.328 OA
ATOM     24  HO  UNL     1      11.935  43.991  23.151  1.00  0.00     0.219 HD
ENDBRANCH  20  23
ENDBRANCH  19  20
ENDBRANCH  17  19
ENDBRANCH  13  17
ENDBRANCH   1  13
BRANCH  12  25
HETATM   25  O   UNL     1       9.589  46.458  19.697  1.00  0.00    -0.358 OA
ATOM     26  HO  UNL     1       9.290  46.923  18.924  1.00  0.00     0.217 HD
ENDBRANCH  12  25
BRANCH   7  27
HETATM   27  C   UNL     1       9.164  39.116  18.757  1.00  0.00     0.114 C 
HETATM   28  C   UNL     1       9.811  38.903  17.557  1.00  0.00     0.049 C 
HETATM   29  C   UNL     1      10.460  37.816  17.061  1.00  0.00     0.005 C 
HETATM   30  C   UNL     1      10.787  36.631  17.653  1.00  0.00     0.014 C 
HETATM   31  C   UNL     1      10.744  36.425  19.057  1.00  0.00    -0.009 C 
HETATM   32  C   UNL     1      11.646  35.489  19.561  1.00  0.00     0.013 C 
HETATM   33  C   UNL     1       9.805  37.025  19.943  1.00  0.00     0.043 C 
HETATM   34  C   UNL     1      11.426  34.915  20.814  1.00  0.00     0.001 C 
HETATM   35  C   UNL     1      10.442  35.425  21.637  1.00  0.00     0.002 C 
HETATM   36  C   UNL     1       9.564  36.394  21.164  1.00  0.00     0.030 C 
HETATM   37  N   UNL     1       9.066  38.170  19.706  1.00  0.00    -0.341 N 
ATOM     38  HN  UNL     1       8.309  38.324  20.373  1.00  0.00     0.167 HD
ENDBRANCH   7  27
TORSDOF 10
