REMARK  0 active torsions:
REMARK  status: ('A' for Active; 'I' for Inactive)
ROOT
HETATM    1  C   UNL     1     -57.820 -52.956 -32.945  1.00  0.00     0.009 C 
HETATM    2  C   UNL     1     -57.512 -53.660 -31.605  1.00  0.00    -0.013 C 
HETATM    3  C   UNL     1     -56.637 -53.329 -33.838  1.00  0.00    -0.010 C 
HETATM    4  C   UNL     1     -57.587 -55.167 -31.855  1.00  0.00     0.009 C 
HETATM    5  C   UNL     1     -57.046 -54.383 -34.859  1.00  0.00     0.005 C 
HETATM    6  C   UNL     1     -55.704 -54.086 -32.865  1.00  0.00    -0.006 C 
HETATM    7  C   UNL     1     -55.994 -53.409 -31.523  1.00  0.00     0.010 C 
HETATM    8  C   UNL     1     -56.903 -55.728 -34.172  1.00  0.00     0.005 C 
HETATM    9  C   UNL     1     -56.356 -55.447 -32.758  1.00  0.00    -0.010 C 
ENDROOT
TORSDOF 0
