REMARK  11 active torsions:
REMARK  status: ('A' for Active; 'I' for Inactive)
REMARK    1  A    between atoms: C_1  and  O_8 
REMARK    2  A    between atoms: C_1  and  O_15 
REMARK    3  A    between atoms: C_1  and  C_28 
REMARK    4  A    between atoms: C_1  and  O_31 
REMARK    5  A    between atoms: C_2  and  O_11 
REMARK    6  A    between atoms: O_3  and  C_22 
REMARK    7  A    between atoms: C_10  and  C_22 
REMARK    8  A    between atoms: C_10  and  C_28 
REMARK    9  A    between atoms: C_21  and  C_26 
REMARK   10  A    between atoms: C_22  and  C_29 
REMARK   11  A    between atoms: C_28  and  O_35 
ROOT
HETATM    1  C   UNL     1      14.083   1.312  14.383  1.00  0.00     0.066 C 
HETATM    2  C   UNL     1      14.194   2.646  12.379  1.00  0.00     0.011 C 
HETATM    3  C   UNL     1      11.902  -1.635  11.629  1.00  0.00     0.002 C 
HETATM    4  C   UNL     1      10.691  -1.356   9.562  1.00  0.00     0.031 C 
HETATM    5  C   UNL     1      12.377   0.247  10.179  1.00  0.00    -0.037 C 
HETATM    6  C   UNL     1      10.788  -1.941  10.826  1.00  0.00     0.043 C 
HETATM    7  C   UNL     1      11.537  -0.299   9.220  1.00  0.00     0.011 C 
HETATM    8  C   UNL     1      12.426  -0.356  11.459  1.00  0.00    -0.006 C 
HETATM    9  C   UNL     1      13.558   1.632  11.686  1.00  0.00    -0.038 C 
HETATM   10  C   UNL     1      13.208   1.495  10.230  1.00  0.00     0.053 C 
HETATM   11  C   UNL     1      13.301   0.364  13.741  1.00  0.00     0.049 C 
HETATM   12  N   UNL     1       9.822  -2.755  11.373  1.00  0.00    -0.357 N 
ATOM     13  HN  UNL     1       8.974  -2.999  10.861  1.00  0.00     0.166 HD
HETATM   14  C   UNL     1      14.476   2.471  13.731  1.00  0.00     0.037 C 
HETATM   15  C   UNL     1      10.055  -3.217  12.631  1.00  0.00     0.038 C 
HETATM   16  C   UNL     1      13.049   0.528  12.392  1.00  0.00    -0.015 C 
HETATM   17  C   UNL     1      11.369  -3.455  13.056  1.00  0.00     0.028 C 
HETATM   18  C   UNL     1      12.333  -2.578  12.573  1.00  0.00     0.017 C 
ENDROOT
BRANCH  15  19
HETATM   19  C   UNL     1       8.907  -3.306  13.598  1.00  0.00     0.170 C 
BRANCH  19  20
HETATM   20  O   UNL     1       8.702  -2.069  14.259  1.00  0.00    -0.389 OA
ATOM     21  HO  UNL     1       8.697  -1.357  13.631  1.00  0.00     0.210 HD
ENDBRANCH  19  20
BRANCH  19  22
HETATM   22  C   UNL     1       8.915  -4.452  14.609  1.00  0.00     0.078 C 
BRANCH  22  23
HETATM   23  C   UNL     1       9.662  -5.715  14.157  1.00  0.00     0.213 C 
BRANCH  23  24
HETATM   24  C   UNL     1       9.423  -6.936  15.096  1.00  0.00     0.303 C 
BRANCH  24  25
HETATM   25  O   UNL     1      10.479  -7.832  14.832  1.00  0.00    -0.342 OA
ATOM     26  HO  UNL     1      11.320  -7.437  15.029  1.00  0.00     0.215 HD
ENDBRANCH  24  25
BRANCH  24  27
HETATM   27  O   UNL     1       8.185  -7.518  14.806  1.00  0.00    -0.342 OA
ATOM     28  HO  UNL     1       7.473  -6.914  14.984  1.00  0.00     0.215 HD
ENDBRANCH  24  27
BRANCH  24  29
HETATM   29  O   UNL     1       9.499  -6.502  16.420  1.00  0.00    -0.342 OA
ATOM     30  HO  UNL     1       8.787  -5.898  16.598  1.00  0.00     0.215 HD
ENDBRANCH  24  29
ENDBRANCH  23  24
BRANCH  23  31
HETATM   31  O   UNL     1       9.370  -6.087  12.823  1.00  0.00    -0.387 OA
ATOM     32  HO  UNL     1       9.516  -5.343  12.251  1.00  0.00     0.210 HD
ENDBRANCH  23  31
ENDBRANCH  22  23
ENDBRANCH  19  22
ENDBRANCH  15  19
BRANCH  10  33
HETATM   33  C   UNL     1      14.387   1.672   9.284  1.00  0.00     0.009 C 
HETATM   34  C   UNL     1      14.557   0.735   8.111  1.00  0.00     0.006 C 
ENDBRANCH  10  33
BRANCH   1  35
HETATM   35  O   UNL     1      14.724   0.974  15.555  1.00  0.00    -0.361 OA
ATOM     36  HO  UNL     1      15.260   1.624  15.995  1.00  0.00     0.217 HD
ENDBRANCH   1  35
TORSDOF 11
