REMARK  3 active torsions:
REMARK  status: ('A' for Active; 'I' for Inactive)
REMARK    1  A    between atoms: O_9  and  C_18 
REMARK    2  A    between atoms: C_23  and  C_27 
REMARK    3  A    between atoms: C_28  and  O_29 
ROOT
HETATM    1  O   UNL     1      10.579  -2.125   9.991  1.00  0.00    -0.273 OA
HETATM    2  C   UNL     1      12.074  -2.272  13.671  1.00  0.00     0.033 C 
HETATM    3  C   UNL     1      10.878  -3.152  13.297  1.00  0.00     0.012 C 
HETATM    4  C   UNL     1      10.730  -1.819  11.170  1.00  0.00     0.231 C 
HETATM    5  O   UNL     1      12.615  -0.160   9.638  1.00  0.00    -0.267 OA
HETATM    6  C   UNL     1       8.964  -1.708  13.073  1.00  0.00     0.047 C 
HETATM    7  N   UNL     1      11.818  -1.053  11.583  1.00  0.00    -0.279 N 
HETATM    8  C   UNL     1      14.069   2.914  12.656  1.00  0.00     0.066 C 
HETATM    9  C   UNL     1      12.423  -0.068  10.847  1.00  0.00     0.257 C 
HETATM   10  C   UNL     1      14.099   2.496  10.116  1.00  0.00     0.044 C 
HETATM   11  C   UNL     1      12.154  -0.901  13.005  1.00  0.00     0.105 C 
HETATM   12  C   UNL     1       8.690  -2.626  14.253  1.00  0.00     0.128 C 
HETATM   13  C   UNL     1      13.389   0.015  13.003  1.00  0.00     0.050 C 
HETATM   14  C   UNL     1      13.069   0.867  11.779  1.00  0.00     0.018 C 
HETATM   15  C   UNL     1       9.923  -3.507  14.453  1.00  0.00     0.053 C 
HETATM   16  C   UNL     1      13.609   1.002  14.154  1.00  0.00     0.043 C 
HETATM   17  C   UNL     1       9.945  -2.532  12.255  1.00  0.00     0.086 C 
HETATM   18  C   UNL     1      14.685   2.002  13.720  1.00  0.00     0.122 C 
HETATM   19  C   UNL     1      13.741   1.996  11.485  1.00  0.00    -0.069 C 
ENDROOT
BRANCH  15  20
HETATM   20  C   UNL     1       9.377  -4.854  14.097  1.00  0.00    -0.036 C 
HETATM   21  C   UNL     1      10.014  -5.637  13.152  1.00  0.00     0.009 C 
HETATM   22  C   UNL     1      10.050  -7.019  13.219  1.00  0.00     0.006 C 
HETATM   23  C   UNL     1       9.454  -7.836  14.128  1.00  0.00     0.074 C 
HETATM   24  C   UNL     1       8.615  -7.496  15.197  1.00  0.00     0.245 C 
HETATM   25  N   UNL     1       7.822  -6.410  15.101  1.00  0.00    -0.333 N 
HETATM   26  O   UNL     1       8.506  -8.223  16.206  1.00  0.00    -0.268 OA
HETATM   27  C   UNL     1       8.146  -5.226  14.563  1.00  0.00     0.099 C 
ATOM     28  HN  UNL     1       6.878  -6.499  15.477  1.00  0.00     0.168 HD
ENDBRANCH  15  20
BRANCH  12  29
HETATM   29  O   UNL     1       8.288  -1.934  15.424  1.00  0.00    -0.395 OA
ATOM     30  HO  UNL     1       8.117  -2.508  16.162  1.00  0.00     0.210 HD
ENDBRANCH  12  29
BRANCH  18  31
HETATM   31  O   UNL     1      15.163   2.761  14.813  1.00  0.00    -0.395 OA
ATOM     32  HO  UNL     1      15.545   2.195  15.473  1.00  0.00     0.210 HD
ENDBRANCH  18  31
TORSDOF 3
