REMARK  0 active torsions:
REMARK  status: ('A' for Active; 'I' for Inactive)
ROOT
HETATM    1  O   UNL     1      -2.760  43.264  20.398  1.00  0.00    -0.247 OA
HETATM    2  O   UNL     1      -1.594  41.883  12.516  1.00  0.00    -0.287 OA
HETATM    3  C   UNL     1      -2.266  40.135  21.165  1.00  0.00     0.242 C 
HETATM    4  C   UNL     1      -2.699  39.868  12.941  1.00  0.00    -0.001 C 
HETATM    5  N   UNL     1      -3.167  41.037  20.460  1.00  0.00    -0.327 N 
ATOM      6  HN  UNL     1      -4.166  40.850  20.372  1.00  0.00     0.165 HD
HETATM    7  C   UNL     1      -1.422  36.370  13.611  1.00  0.00     0.003 C 
HETATM    8  C   UNL     1      -1.406  35.671  19.697  1.00  0.00     0.192 C 
HETATM    9  C   UNL     1      -2.582  42.151  19.924  1.00  0.00     0.321 C 
HETATM   10  C   UNL     1      -2.100  38.639  15.016  1.00  0.00     0.041 C 
HETATM   11  C   UNL     1      -1.051  42.230  15.306  1.00  0.00     0.018 C 
HETATM   12  N   UNL     1      -0.867  37.873  16.913  1.00  0.00    -0.362 N 
ATOM     13  HN  UNL     1      -0.115  38.554  17.023  1.00  0.00     0.165 HD
HETATM   14  C   UNL     1      -1.439  37.894  19.397  1.00  0.00     0.040 C 
HETATM   15  C   UNL     1      -1.035  36.485  14.937  1.00  0.00     0.029 C 
HETATM   16  N   UNL     1      -2.823  36.095  19.942  1.00  0.00    -0.069 N 
ATOM     17  HN1 UNL     1      -3.180  35.777  20.843  1.00  0.00     0.277 HD
ATOM     18  HN2 UNL     1      -3.491  35.602  19.349  1.00  0.00     0.277 HD
HETATM   19  C   UNL     1      -2.894  37.568  19.784  1.00  0.00     0.250 C 
HETATM   20  N   UNL     1      -1.761  41.917  18.875  1.00  0.00    -0.309 N 
ATOM     21  HN  UNL     1      -0.815  41.634  19.132  1.00  0.00     0.170 HD
HETATM   22  C   UNL     1      -3.448  39.738  11.657  1.00  0.00     0.053 C 
HETATM   23  C   UNL     1      -1.131  35.782  18.201  1.00  0.00     0.086 C 
HETATM   24  C   UNL     1      -1.930  37.470  12.929  1.00  0.00     0.012 C 
HETATM   25  N   UNL     1      -0.941  40.077  20.591  1.00  0.00    -0.405 N 
ATOM     26  HN  UNL     1      -0.175  40.607  21.006  1.00  0.00     0.154 HD
HETATM   27  C   UNL     1      -1.989  41.997  17.506  1.00  0.00     0.036 C 
HETATM   28  C   UNL     1      -2.253  38.622  13.637  1.00  0.00    -0.024 C 
HETATM   29  C   UNL     1      -0.662  36.891  20.250  1.00  0.00     0.052 C 
HETATM   30  C   UNL     1      -0.712  39.248  19.406  1.00  0.00     0.132 C 
HETATM   31  C   UNL     1      -0.943  42.380  16.679  1.00  0.00     0.030 C 
HETATM   32  C   UNL     1      -2.204  41.667  14.774  1.00  0.00     0.015 C 
HETATM   33  C   UNL     1      -1.337  37.655  15.631  1.00  0.00     0.032 C 
HETATM   34  C   UNL     1      -3.225  41.696  16.946  1.00  0.00     0.030 C 
HETATM   35  C   UNL     1      -2.166  41.194  13.349  1.00  0.00     0.188 C 
HETATM   36  C   UNL     1      -3.338  41.531  15.572  1.00  0.00     0.018 C 
HETATM   37  C   UNL     1      -1.316  37.263  18.036  1.00  0.00     0.001 C 
ENDROOT
TORSDOF 0
