MODEL 1
REMARK VINA RESULT:      -7.2      0.000      0.000
REMARK  3 active torsions:
REMARK  status: ('A' for Active; 'I' for Inactive)
REMARK    1  A    between atoms: C_4  and  O_9 
REMARK    2  A    between atoms: C_8  and  O_14 
REMARK    3  A    between atoms: C_8  and  O_17 
ROOT
HETATM    1  C   UNL     1      13.831  -6.287 -22.129  1.00  0.00     0.040 C 
HETATM    2  C   UNL     1      13.355  -9.450 -24.797  1.00  0.00     0.052 C 
HETATM    3  C   UNL     1      13.513  -8.618 -22.394  1.00  0.00     0.106 C 
HETATM    4  C   UNL     1      14.620  -7.395 -24.099  1.00  0.00     0.075 C 
HETATM    5  C   UNL     1      14.441  -6.202 -23.393  1.00  0.00     0.067 C 
HETATM    6  C   UNL     1      12.178  -6.961 -19.604  1.00  0.00     0.062 C 
HETATM    7  C   UNL     1      13.338  -5.098 -21.548  1.00  0.00     0.031 C 
HETATM    8  C   UNL     1      11.599  -5.615 -19.759  1.00  0.00     0.200 C 
HETATM    9  C   UNL     1      13.849  -8.518 -23.721  1.00  0.00    -0.013 C 
HETATM   10  C   UNL     1      12.396  -4.795 -20.691  1.00  0.00     0.047 C 
HETATM   11  C   UNL     1      12.990  -7.647 -20.356  1.00  0.00     0.098 C 
HETATM   12  N   UNL     1      13.536  -7.509 -21.602  1.00  0.00    -0.332 N 
ENDROOT
BRANCH   8  13
HETATM   13  O   UNL     1      10.279  -5.758 -20.232  1.00  0.00    -0.359 OA
ATOM     14  HO  UNL     1       9.689  -5.687 -19.490  1.00  0.00     0.213 HD
ENDBRANCH   8  13
BRANCH   8  15
HETATM   15  O   UNL     1      11.409  -5.128 -18.474  1.00  0.00    -0.359 OA
ATOM     16  HO  UNL     1      10.481  -4.934 -18.400  1.00  0.00     0.213 HD
ENDBRANCH   8  15
BRANCH   4  17
HETATM   17  O   UNL     1      15.497  -7.536 -25.121  1.00  0.00    -0.360 OA
ATOM     18  HO  UNL     1      16.272  -6.998 -25.226  1.00  0.00     0.217 HD
ENDBRANCH   4  17
TORSDOF 3
ENDMDL
MODEL 2
REMARK VINA RESULT:      -6.6      1.287      5.432
REMARK  3 active torsions:
REMARK  status: ('A' for Active; 'I' for Inactive)
REMARK    1  A    between atoms: C_4  and  O_9 
REMARK    2  A    between atoms: C_8  and  O_14 
REMARK    3  A    between atoms: C_8  and  O_17 
ROOT
HETATM    1  C   UNL     1      13.786  -7.827 -22.246  1.00  0.00     0.040 C 
HETATM    2  C   UNL     1      11.912  -4.586 -20.418  1.00  0.00     0.052 C 
HETATM    3  C   UNL     1      13.866  -5.509 -21.767  1.00  0.00     0.106 C 
HETATM    4  C   UNL     1      12.717  -6.962 -20.286  1.00  0.00     0.075 C 
HETATM    5  C   UNL     1      12.994  -8.058 -21.108  1.00  0.00     0.067 C 
HETATM    6  C   UNL     1      15.256  -6.746 -24.743  1.00  0.00     0.062 C 
HETATM    7  C   UNL     1      13.803  -8.813 -23.255  1.00  0.00     0.031 C 
HETATM    8  C   UNL     1      14.575  -7.827 -25.475  1.00  0.00     0.200 C 
HETATM    9  C   UNL     1      12.884  -5.665 -20.822  1.00  0.00    -0.013 C 
HETATM   10  C   UNL     1      14.011  -8.828 -24.548  1.00  0.00     0.047 C 
HETATM   11  C   UNL     1      15.150  -6.332 -23.513  1.00  0.00     0.098 C 
HETATM   12  N   UNL     1      14.331  -6.594 -22.450  1.00  0.00    -0.332 N 
ENDROOT
BRANCH   8  13
HETATM   13  O   UNL     1      13.556  -7.251 -26.260  1.00  0.00    -0.359 OA
ATOM     14  HO  UNL     1      13.801  -7.338 -27.174  1.00  0.00     0.213 HD
ENDBRANCH   8  13
BRANCH   8  15
HETATM   15  O   UNL     1      15.478  -8.273 -26.431  1.00  0.00    -0.359 OA
ATOM     16  HO  UNL     1      15.448  -7.638 -27.137  1.00  0.00     0.213 HD
ENDBRANCH   8  15
BRANCH   4  17
HETATM   17  O   UNL     1      12.306  -7.075 -19.001  1.00  0.00    -0.360 OA
ATOM     18  HO  UNL     1      12.416  -6.390 -18.352  1.00  0.00     0.217 HD
ENDBRANCH   4  17
TORSDOF 3
ENDMDL
MODEL 3
REMARK VINA RESULT:      -5.9      2.200      5.536
REMARK  3 active torsions:
REMARK  status: ('A' for Active; 'I' for Inactive)
REMARK    1  A    between atoms: C_4  and  O_9 
REMARK    2  A    between atoms: C_8  and  O_14 
REMARK    3  A    between atoms: C_8  and  O_17 
ROOT
HETATM    1  C   UNL     1      14.148  -7.912 -23.927  1.00  0.00     0.040 C 
HETATM    2  C   UNL     1      12.729  -6.183 -20.413  1.00  0.00     0.052 C 
HETATM    3  C   UNL     1      14.521  -6.316 -22.218  1.00  0.00     0.106 C 
HETATM    4  C   UNL     1      13.243  -8.255 -21.738  1.00  0.00     0.075 C 
HETATM    5  C   UNL     1      13.363  -8.692 -23.060  1.00  0.00     0.067 C 
HETATM    6  C   UNL     1      15.674  -5.715 -25.478  1.00  0.00     0.062 C 
HETATM    7  C   UNL     1      14.019  -8.130 -25.316  1.00  0.00     0.031 C 
HETATM    8  C   UNL     1      14.848  -6.111 -26.632  1.00  0.00     0.200 C 
HETATM    9  C   UNL     1      13.552  -6.906 -21.448  1.00  0.00    -0.013 C 
HETATM   10  C   UNL     1      14.190  -7.411 -26.397  1.00  0.00     0.047 C 
HETATM   11  C   UNL     1      15.650  -6.081 -24.229  1.00  0.00     0.098 C 
HETATM   12  N   UNL     1      14.833  -6.841 -23.438  1.00  0.00    -0.332 N 
ENDROOT
BRANCH   8  13
HETATM   13  O   UNL     1      13.887  -5.103 -26.849  1.00  0.00    -0.359 OA
ATOM     14  HO  UNL     1      13.633  -5.128 -27.765  1.00  0.00     0.213 HD
ENDBRANCH   8  13
BRANCH   8  15
HETATM   15  O   UNL     1      15.665  -5.995 -27.748  1.00  0.00    -0.359 OA
ATOM     16  HO  UNL     1      15.581  -6.814 -28.222  1.00  0.00     0.213 HD
ENDBRANCH   8  15
BRANCH   4  17
HETATM   17  O   UNL     1      12.853  -9.055 -20.718  1.00  0.00    -0.360 OA
ATOM     18  HO  UNL     1      12.382  -9.871 -20.840  1.00  0.00     0.217 HD
ENDBRANCH   4  17
TORSDOF 3
ENDMDL
MODEL 4
REMARK VINA RESULT:      -5.7      2.450      6.138
REMARK  3 active torsions:
REMARK  status: ('A' for Active; 'I' for Inactive)
REMARK    1  A    between atoms: C_4  and  O_9 
REMARK    2  A    between atoms: C_8  and  O_14 
REMARK    3  A    between atoms: C_8  and  O_17 
ROOT
HETATM    1  C   UNL     1      14.811  -7.506 -24.765  1.00  0.00     0.040 C 
HETATM    2  C   UNL     1      13.671  -7.881 -20.776  1.00  0.00     0.052 C 
HETATM    3  C   UNL     1      13.407  -8.602 -23.205  1.00  0.00     0.106 C 
HETATM    4  C   UNL     1      14.156  -6.399 -22.746  1.00  0.00     0.075 C 
HETATM    5  C   UNL     1      14.902  -6.381 -23.928  1.00  0.00     0.067 C 
HETATM    6  C   UNL     1      14.531 -10.299 -26.064  1.00  0.00     0.062 C 
HETATM    7  C   UNL     1      15.786  -7.665 -25.773  1.00  0.00     0.031 C 
HETATM    8  C   UNL     1      15.908 -10.091 -26.545  1.00  0.00     0.200 C 
HETATM    9  C   UNL     1      13.697  -7.647 -22.264  1.00  0.00    -0.013 C 
HETATM   10  C   UNL     1      16.309  -8.676 -26.420  1.00  0.00     0.047 C 
HETATM   11  C   UNL     1      13.778  -9.601 -25.263  1.00  0.00     0.098 C 
HETATM   12  N   UNL     1      13.941  -8.509 -24.456  1.00  0.00    -0.332 N 
ENDROOT
BRANCH   8  13
HETATM   13  O   UNL     1      16.766 -10.916 -25.790  1.00  0.00    -0.359 OA
ATOM     14  HO  UNL     1      17.068 -11.620 -26.352  1.00  0.00     0.213 HD
ENDBRANCH   8  13
BRANCH   8  15
HETATM   15  O   UNL     1      15.965 -10.667 -27.807  1.00  0.00    -0.359 OA
ATOM     16  HO  UNL     1      16.837 -11.037 -27.887  1.00  0.00     0.213 HD
ENDBRANCH   8  15
BRANCH   4  17
HETATM   17  O   UNL     1      13.843  -5.288 -22.040  1.00  0.00    -0.360 OA
ATOM     18  HO  UNL     1      14.468  -4.811 -21.506  1.00  0.00     0.217 HD
ENDBRANCH   4  17
TORSDOF 3
ENDMDL
MODEL 5
REMARK VINA RESULT:      -5.4      2.469      3.894
REMARK  3 active torsions:
REMARK  status: ('A' for Active; 'I' for Inactive)
REMARK    1  A    between atoms: C_4  and  O_9 
REMARK    2  A    between atoms: C_8  and  O_14 
REMARK    3  A    between atoms: C_8  and  O_17 
ROOT
HETATM    1  C   UNL     1      13.998  -7.903 -24.925  1.00  0.00     0.040 C 
HETATM    2  C   UNL     1      17.499  -6.644 -26.799  1.00  0.00     0.052 C 
HETATM    3  C   UNL     1      15.520  -6.124 -25.282  1.00  0.00     0.106 C 
HETATM    4  C   UNL     1      15.269  -7.791 -26.951  1.00  0.00     0.075 C 
HETATM    5  C   UNL     1      14.353  -8.484 -26.155  1.00  0.00     0.067 C 
HETATM    6  C   UNL     1      13.809  -6.399 -22.230  1.00  0.00     0.062 C 
HETATM    7  C   UNL     1      13.354  -8.716 -23.968  1.00  0.00     0.031 C 
HETATM    8  C   UNL     1      13.589  -7.727 -21.631  1.00  0.00     0.200 C 
HETATM    9  C   UNL     1      16.073  -6.802 -26.338  1.00  0.00    -0.013 C 
HETATM   10  C   UNL     1      13.258  -8.730 -22.662  1.00  0.00     0.047 C 
HETATM   11  C   UNL     1      14.112  -6.035 -23.443  1.00  0.00     0.098 C 
HETATM   12  N   UNL     1      14.468  -6.665 -24.603  1.00  0.00    -0.332 N 
ENDROOT
BRANCH   8  13
HETATM   13  O   UNL     1      14.761  -8.097 -20.940  1.00  0.00    -0.359 OA
ATOM     14  HO  UNL     1      15.456  -7.503 -21.198  1.00  0.00     0.213 HD
ENDBRANCH   8  13
BRANCH   8  15
HETATM   15  O   UNL     1      12.677  -7.538 -20.601  1.00  0.00    -0.359 OA
ATOM     16  HO  UNL     1      12.941  -8.128 -19.905  1.00  0.00     0.213 HD
ENDBRANCH   8  15
BRANCH   4  17
HETATM   17  O   UNL     1      15.425  -8.009 -28.278  1.00  0.00    -0.360 OA
ATOM     18  HO  UNL     1      14.716  -7.947 -28.907  1.00  0.00     0.217 HD
ENDBRANCH   4  17
TORSDOF 3
ENDMDL
MODEL 6
REMARK VINA RESULT:      -5.1      2.738      4.343
REMARK  3 active torsions:
REMARK  status: ('A' for Active; 'I' for Inactive)
REMARK    1  A    between atoms: C_4  and  O_9 
REMARK    2  A    between atoms: C_8  and  O_14 
REMARK    3  A    between atoms: C_8  and  O_17 
ROOT
HETATM    1  C   UNL     1      14.111  -8.748 -24.724  1.00  0.00     0.040 C 
HETATM    2  C   UNL     1      16.822  -9.337 -27.831  1.00  0.00     0.052 C 
HETATM    3  C   UNL     1      15.063  -7.875 -26.709  1.00  0.00     0.106 C 
HETATM    4  C   UNL     1      14.951 -10.225 -26.410  1.00  0.00     0.075 C 
HETATM    5  C   UNL     1      14.382 -10.061 -25.143  1.00  0.00     0.067 C 
HETATM    6  C   UNL     1      14.020  -5.710 -24.151  1.00  0.00     0.062 C 
HETATM    7  C   UNL     1      13.859  -8.526 -23.353  1.00  0.00     0.031 C 
HETATM    8  C   UNL     1      14.238  -6.081 -22.743  1.00  0.00     0.200 C 
HETATM    9  C   UNL     1      15.579  -9.110 -27.010  1.00  0.00    -0.013 C 
HETATM   10  C   UNL     1      13.993  -7.520 -22.525  1.00  0.00     0.047 C 
HETATM   11  C   UNL     1      14.012  -6.419 -25.243  1.00  0.00     0.098 C 
HETATM   12  N   UNL     1      14.309  -7.709 -25.585  1.00  0.00    -0.332 N 
ENDROOT
BRANCH   8  13
HETATM   13  O   UNL     1      15.565  -5.749 -22.402  1.00  0.00    -0.359 OA
ATOM     14  HO  UNL     1      16.070  -6.552 -22.363  1.00  0.00     0.213 HD
ENDBRANCH   8  13
BRANCH   8  15
HETATM   15  O   UNL     1      13.497  -5.182 -21.989  1.00  0.00    -0.359 OA
ATOM     16  HO  UNL     1      14.012  -5.003 -21.210  1.00  0.00     0.213 HD
ENDBRANCH   8  15
BRANCH   4  17
HETATM   17  O   UNL     1      14.927 -11.392 -27.096  1.00  0.00    -0.360 OA
ATOM     18  HO  UNL     1      15.687 -11.764 -27.526  1.00  0.00     0.217 HD
ENDBRANCH   4  17
TORSDOF 3
ENDMDL
MODEL 7
REMARK VINA RESULT:      -5.0      6.557      7.895
REMARK  3 active torsions:
REMARK  status: ('A' for Active; 'I' for Inactive)
REMARK    1  A    between atoms: C_4  and  O_9 
REMARK    2  A    between atoms: C_8  and  O_14 
REMARK    3  A    between atoms: C_8  and  O_17 
ROOT
HETATM    1  C   UNL     1      16.098  -3.182 -27.001  1.00  0.00     0.040 C 
HETATM    2  C   UNL     1      19.936  -1.886 -26.028  1.00  0.00     0.052 C 
HETATM    3  C   UNL     1      17.708  -1.455 -27.185  1.00  0.00     0.106 C 
HETATM    4  C   UNL     1      18.435  -3.696 -26.913  1.00  0.00     0.075 C 
HETATM    5  C   UNL     1      17.112  -4.141 -26.831  1.00  0.00     0.067 C 
HETATM    6  C   UNL     1      14.286  -0.678 -27.108  1.00  0.00     0.062 C 
HETATM    7  C   UNL     1      14.788  -3.521 -26.598  1.00  0.00     0.031 C 
HETATM    8  C   UNL     1      13.384  -1.429 -26.217  1.00  0.00     0.200 C 
HETATM    9  C   UNL     1      18.686  -2.314 -26.754  1.00  0.00    -0.013 C 
HETATM   10  C   UNL     1      13.733  -2.863 -26.189  1.00  0.00     0.047 C 
HETATM   11  C   UNL     1      15.478  -0.945 -27.559  1.00  0.00     0.098 C 
HETATM   12  N   UNL     1      16.428  -1.902 -27.334  1.00  0.00    -0.332 N 
ENDROOT
BRANCH   8  13
HETATM   13  O   UNL     1      13.479  -0.872 -24.926  1.00  0.00    -0.359 OA
ATOM     14  HO  UNL     1      12.718  -0.320 -24.785  1.00  0.00     0.213 HD
ENDBRANCH   8  13
BRANCH   8  15
HETATM   15  O   UNL     1      12.094  -1.088 -26.600  1.00  0.00    -0.359 OA
ATOM     16  HO  UNL     1      11.964  -1.472 -27.459  1.00  0.00     0.213 HD
ENDBRANCH   8  15
BRANCH   4  17
HETATM   17  O   UNL     1      19.487  -4.515 -27.143  1.00  0.00    -0.360 OA
ATOM     18  HO  UNL     1      20.251  -4.260 -27.646  1.00  0.00     0.217 HD
ENDBRANCH   4  17
TORSDOF 3
ENDMDL
MODEL 8
REMARK VINA RESULT:      -5.0      3.122      6.828
REMARK  3 active torsions:
REMARK  status: ('A' for Active; 'I' for Inactive)
REMARK    1  A    between atoms: C_4  and  O_9 
REMARK    2  A    between atoms: C_8  and  O_14 
REMARK    3  A    between atoms: C_8  and  O_17 
ROOT
HETATM    1  C   UNL     1      15.453  -8.160 -25.819  1.00  0.00     0.040 C 
HETATM    2  C   UNL     1      13.983  -7.474 -21.982  1.00  0.00     0.052 C 
HETATM    3  C   UNL     1      13.945  -8.847 -24.127  1.00  0.00     0.106 C 
HETATM    4  C   UNL     1      14.602  -6.572 -24.243  1.00  0.00     0.075 C 
HETATM    5  C   UNL     1      15.446  -6.845 -25.323  1.00  0.00     0.067 C 
HETATM    6  C   UNL     1      15.349 -11.213 -26.307  1.00  0.00     0.062 C 
HETATM    7  C   UNL     1      16.514  -8.546 -26.665  1.00  0.00     0.031 C 
HETATM    8  C   UNL     1      16.756 -11.082 -26.721  1.00  0.00     0.200 C 
HETATM    9  C   UNL     1      14.132  -7.658 -23.470  1.00  0.00    -0.013 C 
HETATM   10  C   UNL     1      17.114  -9.671 -26.964  1.00  0.00     0.047 C 
HETATM   11  C   UNL     1      14.514 -10.356 -25.792  1.00  0.00     0.098 C 
HETATM   12  N   UNL     1      14.583  -9.078 -25.310  1.00  0.00    -0.332 N 
ENDROOT
BRANCH   8  13
HETATM   13  O   UNL     1      17.565 -11.628 -25.703  1.00  0.00    -0.359 OA
ATOM     14  HO  UNL     1      17.799 -12.514 -25.955  1.00  0.00     0.213 HD
ENDBRANCH   8  13
BRANCH   8  15
HETATM   15  O   UNL     1      16.935 -11.981 -27.764  1.00  0.00    -0.359 OA
ATOM     16  HO  UNL     1      17.817 -12.322 -27.669  1.00  0.00     0.213 HD
ENDBRANCH   8  15
BRANCH   4  17
HETATM   17  O   UNL     1      14.205  -5.324 -23.901  1.00  0.00    -0.360 OA
ATOM     18  HO  UNL     1      13.361  -5.129 -23.511  1.00  0.00     0.217 HD
ENDBRANCH   4  17
TORSDOF 3
ENDMDL
MODEL 9
REMARK VINA RESULT:      -4.7      3.655      5.660
REMARK  3 active torsions:
REMARK  status: ('A' for Active; 'I' for Inactive)
REMARK    1  A    between atoms: C_4  and  O_9 
REMARK    2  A    between atoms: C_8  and  O_14 
REMARK    3  A    between atoms: C_8  and  O_17 
ROOT
HETATM    1  C   UNL     1      14.121  -6.578 -26.683  1.00  0.00     0.040 C 
HETATM    2  C   UNL     1      16.955  -3.592 -27.322  1.00  0.00     0.052 C 
HETATM    3  C   UNL     1      15.243  -4.693 -25.790  1.00  0.00     0.106 C 
HETATM    4  C   UNL     1      14.949  -4.866 -28.137  1.00  0.00     0.075 C 
HETATM    5  C   UNL     1      14.323  -6.108 -27.992  1.00  0.00     0.067 C 
HETATM    6  C   UNL     1      14.210  -7.298 -23.676  1.00  0.00     0.062 C 
HETATM    7  C   UNL     1      13.808  -7.943 -26.508  1.00  0.00     0.031 C 
HETATM    8  C   UNL     1      14.322  -8.695 -24.128  1.00  0.00     0.200 C 
HETATM    9  C   UNL     1      15.686  -4.357 -27.043  1.00  0.00    -0.013 C 
HETATM   10  C   UNL     1      13.966  -8.826 -25.554  1.00  0.00     0.047 C 
HETATM   11  C   UNL     1      14.215  -6.172 -24.331  1.00  0.00     0.098 C 
HETATM   12  N   UNL     1      14.439  -5.782 -25.622  1.00  0.00    -0.332 N 
ENDROOT
BRANCH   8  13
HETATM   13  O   UNL     1      15.648  -9.122 -23.909  1.00  0.00    -0.359 OA
ATOM     14  HO  UNL     1      15.620 -10.003 -23.555  1.00  0.00     0.213 HD
ENDBRANCH   8  13
BRANCH   8  15
HETATM   15  O   UNL     1      13.605  -9.454 -23.213  1.00  0.00    -0.359 OA
ATOM     16  HO  UNL     1      13.303  -8.847 -22.548  1.00  0.00     0.213 HD
ENDBRANCH   8  15
BRANCH   4  17
HETATM   17  O   UNL     1      14.882  -4.122 -29.266  1.00  0.00    -0.360 OA
ATOM     18  HO  UNL     1      14.201  -3.481 -29.433  1.00  0.00     0.217 HD
ENDBRANCH   4  17
TORSDOF 3
ENDMDL
