REMARK  10 active torsions:
REMARK  status: ('A' for Active; 'I' for Inactive)
REMARK    1  A    between atoms: C_1  and  C_3 
REMARK    2  A    between atoms: C_1  and  C_11 
REMARK    3  A    between atoms: C_1  and  O_14 
REMARK    4  A    between atoms: C_3  and  O_7 
REMARK    5  A    between atoms: C_3  and  C_22 
REMARK    6  A    between atoms: C_4  and  C_13 
REMARK    7  A    between atoms: O_5  and  C_11 
REMARK    8  A    between atoms: C_11  and  C_13 
REMARK    9  A    between atoms: C_13  and  O_19 
REMARK   10  A    between atoms: C_25  and  O_28 
ROOT
HETATM    1  C   UNL     1      -2.787  11.304  13.881  1.00  0.00     0.184 C 
ENDROOT
BRANCH   1   2
HETATM    2  C   UNL     1      -2.236  12.534  13.155  1.00  0.00     0.178 C 
BRANCH   2   3
HETATM    3  C   UNL     1      -0.776  12.613  13.609  1.00  0.00     0.154 C 
BRANCH   3   4
HETATM    4  O   UNL     1      -0.769  13.098  14.930  1.00  0.00    -0.393 OA
ATOM      5  HO  UNL     1       0.137  13.147  15.212  1.00  0.00     0.210 HD
ENDBRANCH   3   4
BRANCH   3   6
HETATM    6  C   UNL     1       0.012  13.646  12.833  1.00  0.00     0.022 C 
HETATM    7  C   UNL     1      -0.462  15.074  13.130  1.00  0.00     0.002 A 
HETATM    8  C   UNL     1       0.804  15.957  13.211  1.00  0.00    -0.000 A 
HETATM    9  C   UNL     1      -0.422  15.942  11.877  1.00  0.00    -0.000 A 
HETATM   10  C   UNL     1       1.081  16.097  11.699  1.00  0.00    -0.005 A 
HETATM   11  C   UNL     1       1.754  14.749  11.211  1.00  0.00     0.006 C 
HETATM   12  C   UNL     1       1.071  13.470  11.756  1.00  0.00     0.008 C 
ENDBRANCH   3   6
ENDBRANCH   2   3
BRANCH   2  13
HETATM   13  O   UNL     1      -2.259  12.316  11.750  1.00  0.00    -0.390 OA
ATOM     14  HO  UNL     1      -3.165  12.267  11.468  1.00  0.00     0.210 HD
ENDBRANCH   2  13
ENDBRANCH   1   2
BRANCH   1  15
HETATM   15  O   UNL     1      -2.194  10.139  13.308  1.00  0.00    -0.390 OA
ATOM     16  HO  UNL     1      -2.536   9.376  13.759  1.00  0.00     0.210 HD
ENDBRANCH   1  15
BRANCH   1  17
HETATM   17  C   UNL     1      -4.311  11.213  13.866  1.00  0.00     0.199 C 
BRANCH  17  18
HETATM   18  C   UNL     1      -4.938  12.307  14.683  1.00  0.00     0.043 C 
HETATM   19  C   UNL     1      -4.492  12.485  16.000  1.00  0.00     0.064 C 
HETATM   20  C   UNL     1      -5.467  12.778  16.950  1.00  0.00     0.069 C 
HETATM   21  C   UNL     1      -6.741  13.175  16.504  1.00  0.00     0.061 C 
HETATM   22  C   UNL     1      -6.912  13.423  15.146  1.00  0.00     0.008 C 
HETATM   23  C   UNL     1      -8.196  14.077  14.636  1.00  0.00     0.068 C 
HETATM   24  N   UNL     1      -5.983  13.032  14.240  1.00  0.00    -0.361 N 
ATOM     25  HN  UNL     1      -6.072  13.279  13.254  1.00  0.00     0.165 HD
BRANCH  20  26
HETATM   26  O   UNL     1      -5.267  12.513  18.270  1.00  0.00    -0.361 OA
ATOM     27  HO  UNL     1      -5.932  12.713  18.918  1.00  0.00     0.217 HD
ENDBRANCH  20  26
ENDBRANCH  17  18
BRANCH  17  28
HETATM   28  O   UNL     1      -4.852  11.113  12.566  1.00  0.00    -0.387 OA
ATOM     29  HO  UNL     1      -4.456  10.421  12.049  1.00  0.00     0.210 HD
ENDBRANCH  17  28
ENDBRANCH   1  17
TORSDOF 10
