REMARK  1 active torsions:
REMARK  status: ('A' for Active; 'I' for Inactive)
REMARK    1  A    between atoms: C_13  and  O_34 
ROOT
HETATM    1  C   UNL     1     -13.874  18.764   5.656  1.00  0.00     0.013 C 
HETATM    2  N   UNL     1     -14.661  15.171   5.566  1.00  0.00    -0.327 N 
ATOM      3  HN  UNL     1     -15.315  14.625   6.126  1.00  0.00     0.165 HD
HETATM    4  C   UNL     1      -8.849  20.336   6.096  1.00  0.00     0.043 C 
HETATM    5  C   UNL     1      -9.930  21.425   6.017  1.00  0.00     0.068 A 
HETATM    6  C   UNL     1     -13.008  19.797   5.902  1.00  0.00     0.008 C 
HETATM    7  N   UNL     1     -10.340  25.800   4.203  1.00  0.00    -0.376 N 
ATOM      8  HN  UNL     1     -11.076  26.490   4.050  1.00  0.00     0.160 HD
HETATM    9  N   UNL     1      -8.200  24.144   4.691  1.00  0.00    -0.051 N 
ATOM     10  HN1 UNL     1      -7.763  24.914   5.198  1.00  0.00     0.279 HD
ATOM     11  HN2 UNL     1      -7.455  23.466   4.853  1.00  0.00     0.279 HD
HETATM   12  O   UNL     1     -13.481  13.464   4.628  1.00  0.00    -0.269 OA
HETATM   13  C   UNL     1     -14.924  16.561   5.233  1.00  0.00     0.255 C 
HETATM   14  C   UNL     1     -13.704  17.399   5.578  1.00  0.00     0.000 C 
HETATM   15  C   UNL     1     -11.138  21.072   6.897  1.00  0.00     0.077 C 
HETATM   16  C   UNL     1      -8.457  24.426   3.276  1.00  0.00     0.255 C 
HETATM   17  C   UNL     1      -9.376  23.244   2.874  1.00  0.00     0.075 C 
HETATM   18  C   UNL     1     -11.700  19.780   6.330  1.00  0.00    -0.049 C 
HETATM   19  C   UNL     1      -9.507  23.739   5.223  1.00  0.00     0.171 A 
HETATM   20  C   UNL     1     -10.853  18.680   6.126  1.00  0.00    -0.051 C 
HETATM   21  C   UNL     1     -10.394  24.982   5.418  1.00  0.00     0.163 C 
HETATM   22  C   UNL     1     -13.470  14.614   5.084  1.00  0.00     0.244 C 
HETATM   23  O   UNL     1     -10.333  21.559   4.636  1.00  0.00    -0.372 OA
HETATM   24  N   UNL     1      -9.045  26.642   2.399  1.00  0.00    -0.387 N 
ATOM     25  HN1 UNL     1      -8.308  26.556   1.699  1.00  0.00     0.157 HD
ATOM     26  HN2 UNL     1      -9.635  27.474   2.389  1.00  0.00     0.157 HD
HETATM   27  C   UNL     1     -12.347  15.453   4.963  1.00  0.00     0.086 C 
HETATM   28  C   UNL     1     -10.185  22.893   4.128  1.00  0.00     0.162 A 
HETATM   29  C   UNL     1      -9.349  18.890   6.040  1.00  0.00     0.042 C 
HETATM   30  C   UNL     1     -11.305  17.381   6.012  1.00  0.00     0.020 C 
HETATM   31  C   UNL     1      -9.390  22.807   6.427  1.00  0.00     0.081 A 
HETATM   32  C   UNL     1     -12.447  16.772   5.500  1.00  0.00    -0.020 C 
HETATM   33  C   UNL     1      -9.348  25.684   3.261  1.00  0.00     0.102 C 
ENDROOT
BRANCH  13  34
HETATM   34  O   UNL     1     -16.074  17.010   5.903  1.00  0.00    -0.372 OA
ATOM     35  HO  UNL     1     -16.246  17.919   5.685  1.00  0.00     0.212 HD
ENDBRANCH  13  34
TORSDOF 1
