REMARK  6 active torsions:
REMARK  status: ('A' for Active; 'I' for Inactive)
REMARK    1  A    between atoms: O_1  and  C_32 
REMARK    2  A    between atoms: C_4  and  C_22 
REMARK    3  A    between atoms: O_5  and  C_17 
REMARK    4  A    between atoms: C_7  and  C_25 
REMARK    5  A    between atoms: N_13  and  C_33 
REMARK    6  A    between atoms: O_20  and  C_24 
ROOT
HETATM    1  C   UNL     1     -11.280  19.564   6.067  1.00  0.00     0.026 C 
HETATM    2  C   UNL     1     -10.666  20.323   8.280  1.00  0.00     0.040 C 
HETATM    3  C   UNL     1     -10.591  21.615   7.775  1.00  0.00     0.033 C 
HETATM    4  C   UNL     1     -10.831  19.274   7.380  1.00  0.00     0.078 C 
HETATM    5  C   UNL     1     -10.844  20.787   5.535  1.00  0.00     0.046 C 
HETATM    6  C   UNL     1     -10.486  21.825   6.402  1.00  0.00     0.039 C 
ENDROOT
BRANCH   1   7
HETATM    7  C   UNL     1     -12.287  18.783   5.392  1.00  0.00     0.047 C 
HETATM    8  C   UNL     1     -12.283  17.354   5.321  1.00  0.00     0.056 C 
HETATM    9  C   UNL     1     -13.505  16.674   5.083  1.00  0.00     0.090 C 
HETATM   10  C   UNL     1     -14.817  17.097   5.256  1.00  0.00     0.076 C 
HETATM   11  S   UNL     1     -13.998  15.047   5.139  1.00  0.00     0.210 S 
HETATM   12  N   UNL     1     -15.331  18.331   5.090  1.00  0.00    -0.352 N 
HETATM   13  C   UNL     1     -15.557  15.850   5.521  1.00  0.00     0.296 C 
HETATM   14  C   UNL     1     -14.575  19.409   4.961  1.00  0.00     0.181 C 
ATOM     15  HN  UNL     1     -16.345  18.439   5.063  1.00  0.00     0.166 HD
HETATM   16  N   UNL     1     -13.273  19.488   4.786  1.00  0.00    -0.352 N 
ATOM     17  HN  UNL     1     -12.963  20.175   4.099  1.00  0.00     0.166 HD
HETATM   18  O   UNL     1     -13.471  14.356   6.250  1.00  0.00    -0.219 OA
HETATM   19  O   UNL     1     -14.099  14.402   3.882  1.00  0.00    -0.219 OA
BRANCH  13  20
HETATM   20  O   UNL     1     -16.636  15.525   4.715  1.00  0.00    -0.374 OA
ATOM     21  HO  UNL     1     -17.113  14.721   4.886  1.00  0.00     0.211 HD
ENDBRANCH  13  20
ENDBRANCH   1   7
BRANCH   4  22
HETATM   22  O   UNL     1     -10.495  18.002   7.701  1.00  0.00    -0.360 OA
ATOM     23  HO  UNL     1     -10.194  17.808   8.581  1.00  0.00     0.217 HD
ENDBRANCH   4  22
BRANCH   6  24
HETATM   24  N   UNL     1     -10.031  23.077   5.910  1.00  0.00    -0.329 N 
HETATM   25  C   UNL     1     -10.085  23.576   4.630  1.00  0.00     0.118 C 
HETATM   26  C   UNL     1      -9.495  24.834   4.642  1.00  0.00     0.091 C 
HETATM   27  C   UNL     1      -9.161  25.118   6.000  1.00  0.00     0.100 C 
HETATM   28  C   UNL     1      -9.330  23.957   6.722  1.00  0.00     0.134 C 
BRANCH  26  29
HETATM   29  C   UNL     1      -9.210  25.798   3.541  1.00  0.00     0.213 C 
HETATM   30  O   UNL     1     -10.059  26.704   3.282  1.00  0.00    -0.644 OA
HETATM   31  O   UNL     1      -8.108  25.772   2.971  1.00  0.00    -0.644 OA
ENDBRANCH  26  29
BRANCH  27  32
HETATM   32  O   UNL     1      -8.268  26.060   6.323  1.00  0.00    -0.358 OA
ATOM     33  HO  UNL     1      -8.046  26.249   7.227  1.00  0.00     0.217 HD
ENDBRANCH  27  32
ENDBRANCH   6  24
TORSDOF 6
