MODEL 1
REMARK VINA RESULT:     -10.4      0.000      0.000
REMARK  3 active torsions:
REMARK  status: ('A' for Active; 'I' for Inactive)
REMARK    1  A    between atoms: C_11  and  C_21 
REMARK    2  A    between atoms: O_12  and  C_20 
REMARK    3  A    between atoms: C_18  and  O_22 
ROOT
HETATM    1  C   UNL     1      48.713  40.951  -3.840  1.00  0.00     0.007 C 
HETATM    2  C   UNL     1      45.975  38.868  -2.338  1.00  0.00     0.314 C 
HETATM    3  C   UNL     1      50.683  42.890  -3.600  1.00  0.00     0.040 C 
HETATM    4  F   UNL     1      50.738  42.460  -1.293  1.00  0.00    -0.208 F 
HETATM    5  C   UNL     1      49.741  40.761  -2.730  1.00  0.00     0.176 C 
HETATM    6  O   UNL     1      47.292  39.010  -0.496  1.00  0.00    -0.335 OA
HETATM    7  C   UNL     1      49.175  41.573  -4.996  1.00  0.00     0.010 C 
HETATM    8  C   UNL     1      50.379  42.094  -2.503  1.00  0.00     0.120 C 
HETATM    9  C   UNL     1      45.884  39.075  -0.823  1.00  0.00     0.158 C 
HETATM   10  N   UNL     1      46.977  39.956  -2.502  1.00  0.00     0.172 N 
HETATM   11  C   UNL     1      47.665  39.878  -3.811  1.00  0.00     0.395 C 
HETATM   12  C   UNL     1      50.169  42.560  -4.864  1.00  0.00     0.003 C 
HETATM   13  N   UNL     1      49.077  40.280  -1.498  1.00  0.00    -0.358 N 
ATOM     14  HN  UNL     1      49.318  40.633  -0.572  1.00  0.00     0.158 HD
HETATM   15  C   UNL     1      48.032  39.242  -1.709  1.00  0.00     0.468 C 
ENDROOT
BRANCH   9  16
HETATM   16  C   UNL     1      45.066  38.186   0.024  1.00  0.00     0.017 C 
HETATM   17  C   UNL     1      45.550  36.838   0.413  1.00  0.00     0.010 C 
HETATM   18  C   UNL     1      44.954  36.223   1.655  1.00  0.00     0.032 C 
HETATM   19  C   UNL     1      43.525  36.650   1.946  1.00  0.00     0.121 C 
HETATM   20  C   UNL     1      43.397  38.178   1.866  1.00  0.00     0.011 C 
HETATM   21  C   UNL     1      43.677  38.641   0.434  1.00  0.00     0.014 C 
HETATM   22  C   UNL     1      42.096  38.726   2.419  1.00  0.00     0.012 C 
BRANCH  19  23
HETATM   23  O   UNL     1      43.231  36.241   3.288  1.00  0.00    -0.395 OA
ATOM     24  HO  UNL     1      43.391  36.978   3.866  1.00  0.00     0.210 HD
ENDBRANCH  19  23
ENDBRANCH   9  16
BRANCH  11  25
HETATM   25  O   UNL     1      46.759  39.947  -4.893  1.00  0.00    -0.364 OA
ATOM     26  HO  UNL     1      46.010  39.371  -4.797  1.00  0.00     0.212 HD
ENDBRANCH  11  25
TORSDOF 3
ENDMDL
MODEL 2
REMARK VINA RESULT:     -10.2      3.802      8.797
REMARK  3 active torsions:
REMARK  status: ('A' for Active; 'I' for Inactive)
REMARK    1  A    between atoms: C_11  and  C_21 
REMARK    2  A    between atoms: O_12  and  C_20 
REMARK    3  A    between atoms: C_18  and  O_22 
ROOT
HETATM    1  C   UNL     1      48.055  39.818  -1.719  1.00  0.00     0.007 C 
HETATM    2  C   UNL     1      50.640  42.434  -0.963  1.00  0.00     0.314 C 
HETATM    3  C   UNL     1      45.870  38.931  -3.180  1.00  0.00     0.040 C 
HETATM    4  F   UNL     1      46.474  40.434  -4.879  1.00  0.00    -0.208 F 
HETATM    5  C   UNL     1      48.180  39.846  -3.238  1.00  0.00     0.176 C 
HETATM    6  O   UNL     1      50.454  42.827  -3.189  1.00  0.00    -0.335 OA
HETATM    7  C   UNL     1      47.278  38.790  -1.192  1.00  0.00     0.010 C 
HETATM    8  C   UNL     1      46.790  39.779  -3.784  1.00  0.00     0.120 C 
HETATM    9  C   UNL     1      50.573  43.590  -1.966  1.00  0.00     0.158 C 
HETATM   10  N   UNL     1      49.405  41.799  -1.498  1.00  0.00     0.172 N 
HETATM   11  C   UNL     1      49.271  40.393  -1.054  1.00  0.00     0.395 C 
HETATM   12  C   UNL     1      46.169  38.352  -1.937  1.00  0.00     0.003 C 
HETATM   13  N   UNL     1      48.854  41.091  -3.671  1.00  0.00    -0.358 N 
ATOM     14  HN  UNL     1      48.545  41.628  -4.481  1.00  0.00     0.158 HD
HETATM   15  C   UNL     1      50.015  41.502  -2.836  1.00  0.00     0.468 C 
ENDROOT
BRANCH   9  16
HETATM   16  C   UNL     1      51.640  44.606  -2.035  1.00  0.00     0.017 C 
HETATM   17  C   UNL     1      51.540  45.876  -1.273  1.00  0.00     0.010 C 
HETATM   18  C   UNL     1      52.829  46.597  -0.964  1.00  0.00     0.032 C 
HETATM   19  C   UNL     1      53.930  46.391  -1.991  1.00  0.00     0.121 C 
HETATM   20  C   UNL     1      54.095  44.896  -2.305  1.00  0.00     0.011 C 
HETATM   21  C   UNL     1      52.817  44.368  -2.964  1.00  0.00     0.014 C 
HETATM   22  C   UNL     1      55.347  44.557  -3.089  1.00  0.00     0.012 C 
BRANCH  19  23
HETATM   23  O   UNL     1      55.147  46.865  -1.402  1.00  0.00    -0.395 OA
ATOM     24  HO  UNL     1      55.717  47.168  -2.098  1.00  0.00     0.210 HD
ENDBRANCH  19  23
ENDBRANCH   9  16
BRANCH  11  25
HETATM   25  O   UNL     1      49.250  40.279   0.354  1.00  0.00    -0.364 OA
ATOM     26  HO  UNL     1      48.438  40.578   0.746  1.00  0.00     0.212 HD
ENDBRANCH  11  25
TORSDOF 3
ENDMDL
MODEL 3
REMARK VINA RESULT:      -9.8      3.798      6.148
REMARK  3 active torsions:
REMARK  status: ('A' for Active; 'I' for Inactive)
REMARK    1  A    between atoms: C_11  and  C_21 
REMARK    2  A    between atoms: O_12  and  C_20 
REMARK    3  A    between atoms: C_18  and  O_22 
ROOT
HETATM    1  C   UNL     1      52.916  45.404  -1.923  1.00  0.00     0.007 C 
HETATM    2  C   UNL     1      49.927  43.154  -1.618  1.00  0.00     0.314 C 
HETATM    3  C   UNL     1      55.657  45.762  -2.171  1.00  0.00     0.040 C 
HETATM    4  F   UNL     1      55.801  43.581  -3.030  1.00  0.00    -0.208 F 
HETATM    5  C   UNL     1      53.613  44.658  -3.056  1.00  0.00     0.176 C 
HETATM    6  O   UNL     1      51.195  41.796  -2.920  1.00  0.00    -0.335 OA
HETATM    7  C   UNL     1      53.456  46.642  -1.589  1.00  0.00     0.010 C 
HETATM    8  C   UNL     1      55.070  44.628  -2.719  1.00  0.00     0.120 C 
HETATM    9  C   UNL     1      50.318  41.681  -1.775  1.00  0.00     0.158 C 
HETATM   10  N   UNL     1      51.344  43.608  -1.612  1.00  0.00     0.172 N 
HETATM   11  C   UNL     1      51.457  45.065  -1.855  1.00  0.00     0.395 C 
HETATM   12  C   UNL     1      54.847  46.812  -1.711  1.00  0.00     0.003 C 
HETATM   13  N   UNL     1      53.072  43.285  -3.171  1.00  0.00    -0.358 N 
ATOM     14  HN  UNL     1      53.668  42.474  -3.337  1.00  0.00     0.158 HD
HETATM   15  C   UNL     1      51.596  43.175  -3.026  1.00  0.00     0.468 C 
ENDROOT
BRANCH   9  16
HETATM   16  C   UNL     1      49.297  40.631  -1.948  1.00  0.00     0.017 C 
HETATM   17  C   UNL     1      48.863  39.787  -0.806  1.00  0.00     0.010 C 
HETATM   18  C   UNL     1      47.505  39.138  -0.906  1.00  0.00     0.032 C 
HETATM   19  C   UNL     1      47.063  38.816  -2.323  1.00  0.00     0.121 C 
HETATM   20  C   UNL     1      47.254  40.037  -3.235  1.00  0.00     0.011 C 
HETATM   21  C   UNL     1      48.746  40.369  -3.337  1.00  0.00     0.014 C 
HETATM   22  C   UNL     1      46.581  39.919  -4.588  1.00  0.00     0.012 C 
BRANCH  19  23
HETATM   23  O   UNL     1      45.664  38.510  -2.267  1.00  0.00    -0.395 OA
ATOM     24  HO  UNL     1      45.287  38.676  -3.123  1.00  0.00     0.210 HD
ENDBRANCH  19  23
ENDBRANCH   9  16
BRANCH  11  25
HETATM   25  O   UNL     1      50.747  45.821  -0.896  1.00  0.00    -0.364 OA
ATOM     26  HO  UNL     1      50.749  46.754  -1.072  1.00  0.00     0.212 HD
ENDBRANCH  11  25
TORSDOF 3
ENDMDL
MODEL 4
REMARK VINA RESULT:      -9.1      5.287      8.162
REMARK  3 active torsions:
REMARK  status: ('A' for Active; 'I' for Inactive)
REMARK    1  A    between atoms: C_11  and  C_21 
REMARK    2  A    between atoms: O_12  and  C_20 
REMARK    3  A    between atoms: C_18  and  O_22 
ROOT
HETATM    1  C   UNL     1      55.546  45.824  -2.874  1.00  0.00     0.007 C 
HETATM    2  C   UNL     1      53.077  43.006  -3.106  1.00  0.00     0.314 C 
HETATM    3  C   UNL     1      56.190  48.505  -3.182  1.00  0.00     0.040 C 
HETATM    4  F   UNL     1      53.901  49.007  -3.046  1.00  0.00    -0.208 F 
HETATM    5  C   UNL     1      54.630  46.839  -2.200  1.00  0.00     0.176 C 
HETATM    6  O   UNL     1      51.607  44.654  -2.584  1.00  0.00    -0.335 OA
HETATM    7  C   UNL     1      56.890  46.178  -2.955  1.00  0.00     0.010 C 
HETATM    8  C   UNL     1      54.885  48.155  -2.863  1.00  0.00     0.120 C 
HETATM    9  C   UNL     1      51.680  43.517  -3.476  1.00  0.00     0.158 C 
HETATM   10  N   UNL     1      53.702  44.341  -3.313  1.00  0.00     0.172 N 
HETATM   11  C   UNL     1      55.045  44.422  -2.694  1.00  0.00     0.395 C 
HETATM   12  C   UNL     1      57.206  47.539  -3.117  1.00  0.00     0.003 C 
HETATM   13  N   UNL     1      53.215  46.434  -2.362  1.00  0.00    -0.358 N 
ATOM     14  HN  UNL     1      52.476  47.102  -2.581  1.00  0.00     0.158 HD
HETATM   15  C   UNL     1      52.951  44.981  -2.183  1.00  0.00     0.468 C 
ENDROOT
BRANCH   9  16
HETATM   16  C   UNL     1      50.495  42.645  -3.379  1.00  0.00     0.017 C 
HETATM   17  C   UNL     1      49.754  42.219  -4.593  1.00  0.00     0.010 C 
HETATM   18  C   UNL     1      48.929  40.960  -4.491  1.00  0.00     0.032 C 
HETATM   19  C   UNL     1      48.376  40.680  -3.104  1.00  0.00     0.121 C 
HETATM   20  C   UNL     1      49.486  40.802  -2.049  1.00  0.00     0.011 C 
HETATM   21  C   UNL     1      49.990  42.247  -2.004  1.00  0.00     0.014 C 
HETATM   22  C   UNL     1      49.112  40.265  -0.682  1.00  0.00     0.012 C 
BRANCH  19  23
HETATM   23  O   UNL     1      47.903  39.327  -3.106  1.00  0.00    -0.395 OA
ATOM     24  HO  UNL     1      48.108  38.940  -3.949  1.00  0.00     0.210 HD
ENDBRANCH  19  23
ENDBRANCH   9  16
BRANCH  11  25
HETATM   25  O   UNL     1      55.924  43.439  -3.201  1.00  0.00    -0.364 OA
ATOM     26  HO  UNL     1      56.372  42.945  -2.524  1.00  0.00     0.212 HD
ENDBRANCH  11  25
TORSDOF 3
ENDMDL
MODEL 5
REMARK VINA RESULT:      -9.1      6.692     11.662
REMARK  3 active torsions:
REMARK  status: ('A' for Active; 'I' for Inactive)
REMARK    1  A    between atoms: C_11  and  C_21 
REMARK    2  A    between atoms: O_12  and  C_20 
REMARK    3  A    between atoms: C_18  and  O_22 
ROOT
HETATM    1  C   UNL     1      51.299  42.966  -2.312  1.00  0.00     0.007 C 
HETATM    2  C   UNL     1      54.150  45.345  -2.865  1.00  0.00     0.314 C 
HETATM    3  C   UNL     1      49.369  41.849  -0.661  1.00  0.00     0.040 C 
HETATM    4  F   UNL     1      49.518  43.757   0.700  1.00  0.00    -0.208 F 
HETATM    5  C   UNL     1      50.373  43.929  -1.577  1.00  0.00     0.176 C 
HETATM    6  O   UNL     1      53.004  46.593  -1.355  1.00  0.00    -0.335 OA
HETATM    7  C   UNL     1      50.739  41.745  -2.678  1.00  0.00     0.010 C 
HETATM    8  C   UNL     1      49.765  43.163  -0.447  1.00  0.00     0.120 C 
HETATM    9  C   UNL     1      54.377  46.238  -1.641  1.00  0.00     0.158 C 
HETATM   10  N   UNL     1      53.143  44.507  -2.160  1.00  0.00     0.172 N 
HETATM   11  C   UNL     1      52.340  43.697  -3.106  1.00  0.00     0.395 C 
HETATM   12  C   UNL     1      49.766  41.184  -1.832  1.00  0.00     0.003 C 
HETATM   13  N   UNL     1      51.142  45.089  -1.072  1.00  0.00    -0.358 N 
ATOM     14  HN  UNL     1      50.987  45.488  -0.146  1.00  0.00     0.158 HD
HETATM   15  C   UNL     1      52.159  45.630  -2.014  1.00  0.00     0.468 C 
ENDROOT
BRANCH   9  16
HETATM   16  C   UNL     1      55.263  47.415  -1.705  1.00  0.00     0.017 C 
HETATM   17  C   UNL     1      55.765  48.066  -0.468  1.00  0.00     0.010 C 
HETATM   18  C   UNL     1      57.031  48.879  -0.583  1.00  0.00     0.032 C 
HETATM   19  C   UNL     1      57.247  49.522  -1.942  1.00  0.00     0.121 C 
HETATM   20  C   UNL     1      57.050  48.487  -3.061  1.00  0.00     0.011 C 
HETATM   21  C   UNL     1      55.596  48.007  -3.062  1.00  0.00     0.014 C 
HETATM   22  C   UNL     1      57.521  48.947  -4.426  1.00  0.00     0.012 C 
BRANCH  19  23
HETATM   23  O   UNL     1      58.606  49.975  -1.981  1.00  0.00    -0.395 OA
ATOM     24  HO  UNL     1      59.158  49.242  -2.226  1.00  0.00     0.210 HD
ENDBRANCH  19  23
ENDBRANCH   9  16
BRANCH  11  25
HETATM   25  O   UNL     1      53.146  42.848  -3.896  1.00  0.00    -0.364 OA
ATOM     26  HO  UNL     1      53.382  43.222  -4.736  1.00  0.00     0.212 HD
ENDBRANCH  11  25
TORSDOF 3
ENDMDL
MODEL 6
REMARK VINA RESULT:      -9.0      4.111      9.209
REMARK  3 active torsions:
REMARK  status: ('A' for Active; 'I' for Inactive)
REMARK    1  A    between atoms: C_11  and  C_21 
REMARK    2  A    between atoms: O_12  and  C_20 
REMARK    3  A    between atoms: C_18  and  O_22 
ROOT
HETATM    1  C   UNL     1      48.457  40.501  -3.187  1.00  0.00     0.007 C 
HETATM    2  C   UNL     1      51.088  43.034  -4.056  1.00  0.00     0.314 C 
HETATM    3  C   UNL     1      47.516  38.451  -1.573  1.00  0.00     0.040 C 
HETATM    4  F   UNL     1      48.931  39.227   0.132  1.00  0.00    -0.208 F 
HETATM    5  C   UNL     1      48.411  40.766  -1.687  1.00  0.00     0.176 C 
HETATM    6  O   UNL     1      51.375  43.060  -1.805  1.00  0.00    -0.335 OA
HETATM    7  C   UNL     1      47.461  39.667  -3.688  1.00  0.00     0.010 C 
HETATM    8  C   UNL     1      48.327  39.432  -1.017  1.00  0.00     0.120 C 
HETATM    9  C   UNL     1      52.195  43.074  -2.997  1.00  0.00     0.158 C 
HETATM   10  N   UNL     1      50.437  41.847  -3.438  1.00  0.00     0.172 N 
HETATM   11  C   UNL     1      49.054  41.656  -3.934  1.00  0.00     0.395 C 
HETATM   12  C   UNL     1      46.995  38.626  -2.864  1.00  0.00     0.003 C 
HETATM   13  N   UNL     1      49.629  41.492  -1.260  1.00  0.00    -0.358 N 
ATOM     14  HN  UNL     1      50.129  41.266  -0.400  1.00  0.00     0.158 HD
HETATM   15  C   UNL     1      50.071  42.575  -2.179  1.00  0.00     0.468 C 
ENDROOT
BRANCH   9  16
HETATM   16  C   UNL     1      53.199  44.155  -2.979  1.00  0.00     0.017 C 
HETATM   17  C   UNL     1      52.817  45.551  -2.647  1.00  0.00     0.010 C 
HETATM   18  C   UNL     1      53.908  46.460  -2.135  1.00  0.00     0.032 C 
HETATM   19  C   UNL     1      55.296  46.137  -2.662  1.00  0.00     0.121 C 
HETATM   20  C   UNL     1      55.592  44.638  -2.508  1.00  0.00     0.011 C 
HETATM   21  C   UNL     1      54.626  43.834  -3.383  1.00  0.00     0.014 C 
HETATM   22  C   UNL     1      57.043  44.261  -2.730  1.00  0.00     0.012 C 
BRANCH  19  23
HETATM   23  O   UNL     1      56.230  46.866  -1.855  1.00  0.00    -0.395 OA
ATOM     24  HO  UNL     1      56.020  47.791  -1.918  1.00  0.00     0.210 HD
ENDBRANCH  19  23
ENDBRANCH   9  16
BRANCH  11  25
HETATM   25  O   UNL     1      49.009  41.504  -5.338  1.00  0.00    -0.364 OA
ATOM     26  HO  UNL     1      48.218  41.080  -5.648  1.00  0.00     0.212 HD
ENDBRANCH  11  25
TORSDOF 3
ENDMDL
MODEL 7
REMARK VINA RESULT:      -8.9      5.339     10.212
REMARK  3 active torsions:
REMARK  status: ('A' for Active; 'I' for Inactive)
REMARK    1  A    between atoms: C_11  and  C_21 
REMARK    2  A    between atoms: O_12  and  C_20 
REMARK    3  A    between atoms: C_18  and  O_22 
ROOT
HETATM    1  C   UNL     1      49.818  41.896  -2.907  1.00  0.00     0.007 C 
HETATM    2  C   UNL     1      52.274  44.720  -3.205  1.00  0.00     0.314 C 
HETATM    3  C   UNL     1      48.791  39.723  -1.522  1.00  0.00     0.040 C 
HETATM    4  F   UNL     1      49.717  40.616   0.443  1.00  0.00    -0.208 F 
HETATM    5  C   UNL     1      49.426  42.125  -1.451  1.00  0.00     0.176 C 
HETATM    6  O   UNL     1      52.073  44.732  -0.945  1.00  0.00    -0.335 OA
HETATM    7  C   UNL     1      49.051  40.968  -3.605  1.00  0.00     0.010 C 
HETATM    8  C   UNL     1      49.351  40.776  -0.810  1.00  0.00     0.120 C 
HETATM    9  C   UNL     1      53.120  44.860  -1.935  1.00  0.00     0.158 C 
HETATM   10  N   UNL     1      51.643  43.457  -2.736  1.00  0.00     0.172 N 
HETATM   11  C   UNL     1      50.427  43.125  -3.513  1.00  0.00     0.395 C 
HETATM   12  C   UNL     1      48.539  39.866  -2.895  1.00  0.00     0.003 C 
HETATM   13  N   UNL     1      50.437  42.971  -0.778  1.00  0.00    -0.358 N 
ATOM     14  HN  UNL     1      50.765  42.784   0.170  1.00  0.00     0.158 HD
HETATM   15  C   UNL     1      50.940  44.115  -1.585  1.00  0.00     0.468 C 
ENDROOT
BRANCH   9  16
HETATM   16  C   UNL     1      53.970  46.044  -1.708  1.00  0.00     0.017 C 
HETATM   17  C   UNL     1      54.358  46.457  -0.335  1.00  0.00     0.010 C 
HETATM   18  C   UNL     1      55.603  47.299  -0.195  1.00  0.00     0.032 C 
HETATM   19  C   UNL     1      55.898  48.191  -1.389  1.00  0.00     0.121 C 
HETATM   20  C   UNL     1      55.818  47.383  -2.693  1.00  0.00     0.011 C 
HETATM   21  C   UNL     1      54.384  46.887  -2.900  1.00  0.00     0.014 C 
HETATM   22  C   UNL     1      56.375  48.101  -3.907  1.00  0.00     0.012 C 
BRANCH  19  23
HETATM   23  O   UNL     1      57.241  48.666  -1.235  1.00  0.00    -0.395 OA
ATOM     24  HO  UNL     1      57.207  49.556  -0.903  1.00  0.00     0.210 HD
ENDBRANCH  19  23
ENDBRANCH   9  16
BRANCH  11  25
HETATM   25  O   UNL     1      50.698  42.997  -4.894  1.00  0.00    -0.364 OA
ATOM     26  HO  UNL     1      50.904  43.821  -5.318  1.00  0.00     0.212 HD
ENDBRANCH  11  25
TORSDOF 3
ENDMDL
MODEL 8
REMARK VINA RESULT:      -8.6      7.067     10.155
REMARK  3 active torsions:
REMARK  status: ('A' for Active; 'I' for Inactive)
REMARK    1  A    between atoms: C_11  and  C_21 
REMARK    2  A    between atoms: O_12  and  C_20 
REMARK    3  A    between atoms: C_18  and  O_22 
ROOT
HETATM    1  C   UNL     1      56.568  48.213  -1.983  1.00  0.00     0.007 C 
HETATM    2  C   UNL     1      53.690  45.945  -1.163  1.00  0.00     0.314 C 
HETATM    3  C   UNL     1      58.582  49.036  -3.705  1.00  0.00     0.040 C 
HETATM    4  F   UNL     1      57.385  48.059  -5.473  1.00  0.00    -0.208 F 
HETATM    5  C   UNL     1      56.164  48.539  -3.417  1.00  0.00     0.176 C 
HETATM    6  O   UNL     1      53.381  46.025  -3.410  1.00  0.00    -0.335 OA
HETATM    7  C   UNL     1      57.620  48.962  -1.463  1.00  0.00     0.010 C 
HETATM    8  C   UNL     1      57.415  48.500  -4.235  1.00  0.00     0.120 C 
HETATM    9  C   UNL     1      53.336  45.042  -2.349  1.00  0.00     0.158 C 
HETATM   10  N   UNL     1      54.909  46.475  -1.834  1.00  0.00     0.172 N 
HETATM   11  C   UNL     1      55.404  47.710  -1.183  1.00  0.00     0.395 C 
HETATM   12  C   UNL     1      58.639  49.369  -2.343  1.00  0.00     0.003 C 
HETATM   13  N   UNL     1      55.184  47.544  -3.909  1.00  0.00    -0.358 N 
ATOM     14  HN  UNL     1      55.224  47.155  -4.851  1.00  0.00     0.158 HD
HETATM   15  C   UNL     1      54.137  47.153  -2.927  1.00  0.00     0.468 C 
ENDROOT
BRANCH   9  16
HETATM   16  C   UNL     1      52.092  44.251  -2.365  1.00  0.00     0.017 C 
HETATM   17  C   UNL     1      51.835  43.246  -3.428  1.00  0.00     0.010 C 
HETATM   18  C   UNL     1      50.856  42.142  -3.110  1.00  0.00     0.032 C 
HETATM   19  C   UNL     1      49.766  42.530  -2.126  1.00  0.00     0.121 C 
HETATM   20  C   UNL     1      50.375  43.216  -0.894  1.00  0.00     0.011 C 
HETATM   21  C   UNL     1      51.032  44.533  -1.316  1.00  0.00     0.014 C 
HETATM   22  C   UNL     1      49.415  43.381   0.268  1.00  0.00     0.012 C 
BRANCH  19  23
HETATM   23  O   UNL     1      49.134  41.317  -1.701  1.00  0.00    -0.395 OA
ATOM     24  HO  UNL     1      48.757  40.893  -2.463  1.00  0.00     0.210 HD
ENDBRANCH  19  23
ENDBRANCH   9  16
BRANCH  11  25
HETATM   25  O   UNL     1      55.705  47.507   0.182  1.00  0.00    -0.364 OA
ATOM     26  HO  UNL     1      56.391  46.866   0.329  1.00  0.00     0.212 HD
ENDBRANCH  11  25
TORSDOF 3
ENDMDL
MODEL 9
REMARK VINA RESULT:      -8.5      5.668      8.868
REMARK  3 active torsions:
REMARK  status: ('A' for Active; 'I' for Inactive)
REMARK    1  A    between atoms: C_11  and  C_21 
REMARK    2  A    between atoms: O_12  and  C_20 
REMARK    3  A    between atoms: C_18  and  O_22 
ROOT
HETATM    1  C   UNL     1      54.948  46.975  -0.963  1.00  0.00     0.007 C 
HETATM    2  C   UNL     1      51.951  44.737  -1.280  1.00  0.00     0.314 C 
HETATM    3  C   UNL     1      57.461  47.785  -1.816  1.00  0.00     0.040 C 
HETATM    4  F   UNL     1      56.990  46.832  -3.909  1.00  0.00    -0.208 F 
HETATM    5  C   UNL     1      55.102  47.314  -2.442  1.00  0.00     0.176 C 
HETATM    6  O   UNL     1      52.490  44.832  -3.482  1.00  0.00    -0.335 OA
HETATM    7  C   UNL     1      55.741  47.708  -0.085  1.00  0.00     0.010 C 
HETATM    8  C   UNL     1      56.566  47.265  -2.743  1.00  0.00     0.120 C 
HETATM    9  C   UNL     1      52.050  43.844  -2.522  1.00  0.00     0.158 C 
HETATM   10  N   UNL     1      53.335  45.256  -1.451  1.00  0.00     0.172 N 
HETATM   11  C   UNL     1      53.567  46.481  -0.651  1.00  0.00     0.395 C 
HETATM   12  C   UNL     1      57.016  48.109  -0.525  1.00  0.00     0.003 C 
HETATM   13  N   UNL     1      54.363  46.333  -3.269  1.00  0.00    -0.358 N 
ATOM     14  HN  UNL     1      54.743  45.949  -4.134  1.00  0.00     0.158 HD
HETATM   15  C   UNL     1      53.025  45.948  -2.745  1.00  0.00     0.468 C 
ENDROOT
BRANCH   9  16
HETATM   16  C   UNL     1      50.891  43.068  -3.002  1.00  0.00     0.017 C 
HETATM   17  C   UNL     1      50.440  43.158  -4.413  1.00  0.00     0.010 C 
HETATM   18  C   UNL     1      49.641  41.998  -4.956  1.00  0.00     0.032 C 
HETATM   19  C   UNL     1      48.808  41.265  -3.918  1.00  0.00     0.121 C 
HETATM   20  C   UNL     1      49.663  40.930  -2.686  1.00  0.00     0.011 C 
HETATM   21  C   UNL     1      50.112  42.226  -2.008  1.00  0.00     0.014 C 
HETATM   22  C   UNL     1      49.015  39.953  -1.724  1.00  0.00     0.012 C 
BRANCH  19  23
HETATM   23  O   UNL     1      48.378  40.037  -4.517  1.00  0.00    -0.395 OA
ATOM     24  HO  UNL     1      48.385  40.146  -5.461  1.00  0.00     0.210 HD
ENDBRANCH  19  23
ENDBRANCH   9  16
BRANCH  11  25
HETATM   25  O   UNL     1      53.343  46.267   0.727  1.00  0.00    -0.364 OA
ATOM     26  HO  UNL     1      53.437  47.052   1.253  1.00  0.00     0.212 HD
ENDBRANCH  11  25
TORSDOF 3
ENDMDL
