REMARK  2 active torsions:
REMARK  status: ('A' for Active; 'I' for Inactive)
REMARK    1  A    between atoms: N_7  and  C_15 
REMARK    2  A    between atoms: C_15  and  C_19 
ROOT
HETATM    1  O   UNL     1      49.895  41.280  -4.238  1.00  0.00    -0.267 OA
HETATM    2  C   UNL     1      49.386  40.960  -3.180  1.00  0.00     0.258 A 
HETATM    3  C   UNL     1      47.432  39.427  -3.808  1.00  0.00     0.042 C 
HETATM    4  N   UNL     1      49.888  41.288  -1.935  1.00  0.00    -0.323 N 
HETATM    5  C   UNL     1      47.814  38.359  -1.214  1.00  0.00     0.097 C 
HETATM    6  C   UNL     1      48.454  39.511  -1.628  1.00  0.00    -0.009 A 
HETATM    7  C   UNL     1      45.104  39.244  -2.901  1.00  0.00     0.068 C 
HETATM    8  C   UNL     1      49.359  40.417  -0.875  1.00  0.00     0.172 A 
HETATM    9  C   UNL     1      48.452  39.880  -2.973  1.00  0.00     0.043 A 
HETATM   10  N   UNL     1      46.909  37.849  -2.097  1.00  0.00    -0.369 N 
ATOM     11  HN  UNL     1      46.570  36.890  -2.028  1.00  0.00     0.165 HD
HETATM   12  C   UNL     1      46.483  38.697  -3.079  1.00  0.00     0.006 C 
ENDROOT
BRANCH   4  13
HETATM   13  C   UNL     1      51.133  41.963  -1.694  1.00  0.00     0.080 C 
BRANCH  13  14
HETATM   14  C   UNL     1      51.336  43.416  -2.021  1.00  0.00     0.103 C 
HETATM   15  C   UNL     1      52.743  43.491  -2.613  1.00  0.00     0.057 C 
HETATM   16  C   UNL     1      53.321  44.738  -1.997  1.00  0.00    -0.043 C 
HETATM   17  C   UNL     1      54.583  45.192  -2.374  1.00  0.00     0.008 C 
HETATM   18  C   UNL     1      52.643  45.058  -0.810  1.00  0.00     0.017 C 
HETATM   19  C   UNL     1      55.449  46.097  -1.808  1.00  0.00     0.001 C 
HETATM   20  C   UNL     1      55.259  46.803  -0.619  1.00  0.00     0.000 C 
HETATM   21  C   UNL     1      54.106  46.809   0.156  1.00  0.00     0.001 C 
HETATM   22  C   UNL     1      52.904  46.113   0.061  1.00  0.00     0.016 C 
HETATM   23  C   UNL     1      51.389  44.265  -0.782  1.00  0.00     0.169 C 
HETATM   24  O   UNL     1      50.611  44.191   0.148  1.00  0.00    -0.292 OA
ENDBRANCH  13  14
ENDBRANCH   4  13
TORSDOF 2
