REMARK  2 active torsions:
REMARK  status: ('A' for Active; 'I' for Inactive)
REMARK    1  A    between atoms: C_2  and  C_15 
REMARK    2  A    between atoms: C_4  and  C_15 
ROOT
HETATM    1  C   UNL     1      46.044  39.134  -2.974  1.00  0.00    -0.017 C 
HETATM    2  C   UNL     1      50.630  42.835  -2.385  1.00  0.00    -0.075 C 
HETATM    3  C   UNL     1      45.529  38.434  -1.920  1.00  0.00    -0.003 C 
HETATM    4  C   UNL     1      50.349  42.447  -1.071  1.00  0.00     0.004 C 
HETATM    5  C   UNL     1      47.275  37.792  -0.286  1.00  0.00     0.001 C 
HETATM    6  C   UNL     1      47.522  39.344  -3.189  1.00  0.00     0.042 C 
HETATM    7  C   UNL     1      47.916  40.654  -3.908  1.00  0.00     0.023 C 
HETATM    8  C   UNL     1      49.771  42.332  -3.522  1.00  0.00     0.043 C 
HETATM    9  C   UNL     1      49.056  40.596  -1.896  1.00  0.00    -0.047 C 
HETATM   10  C   UNL     1      45.949  37.784  -0.756  1.00  0.00    -0.000 C 
HETATM   11  C   UNL     1      48.260  38.626  -0.804  1.00  0.00     0.008 C 
HETATM   12  C   UNL     1      48.193  39.547  -1.844  1.00  0.00    -0.044 C 
HETATM   13  C   UNL     1      49.621  41.267  -0.810  1.00  0.00     0.008 C 
HETATM   14  C   UNL     1      49.348  40.870  -3.338  1.00  0.00     0.024 C 
ENDROOT
BRANCH   2  15
HETATM   15  C   UNL     1      51.692  43.815  -2.709  1.00  0.00     0.068 C 
BRANCH  15  16
HETATM   16  C   UNL     1      52.202  44.692  -1.653  1.00  0.00    -0.073 C 
HETATM   17  C   UNL     1      51.294  45.308  -0.580  1.00  0.00     0.035 C 
HETATM   18  C   UNL     1      52.308  45.694   0.515  1.00  0.00     0.013 C 
HETATM   19  C   UNL     1      53.427  46.262  -0.364  1.00  0.00     0.015 C 
HETATM   20  C   UNL     1      54.894  46.377  -0.002  1.00  0.00     0.009 C 
HETATM   21  C   UNL     1      53.389  45.305  -1.523  1.00  0.00    -0.073 C 
HETATM   22  C   UNL     1      55.719  45.795  -1.151  1.00  0.00     0.005 C 
HETATM   23  C   UNL     1      54.753  45.047  -2.050  1.00  0.00     0.035 C 
ENDBRANCH  15  16
ENDBRANCH   2  15
TORSDOF 2
