REMARK  2 active torsions:
REMARK  status: ('A' for Active; 'I' for Inactive)
REMARK    1  A    between atoms: C_7  and  C_11 
REMARK    2  A    between atoms: C_14  and  C_20 
ROOT
HETATM    1  C   UNL     1      52.220 106.424  39.101  1.00  0.00     0.117 C 
HETATM    2  C   UNL     1      53.551 106.111  39.378  1.00  0.00     0.047 C 
HETATM    3  C   UNL     1      52.587 108.343  37.863  1.00  0.00     0.096 C 
HETATM    4  C   UNL     1      54.489 107.050  37.394  1.00  0.00     0.097 C 
HETATM    5  N   UNL     1      54.475 106.136  38.380  1.00  0.00    -0.364 N 
ATOM      6  HN  UNL     1      55.200 105.419  38.380  1.00  0.00     0.165 HD
HETATM    7  C   UNL     1      53.527 107.930  36.967  1.00  0.00    -0.019 C 
HETATM    8  N   UNL     1      51.785 107.593  38.627  1.00  0.00    -0.372 N 
ATOM      9  HN  UNL     1      50.842 107.914  38.847  1.00  0.00     0.164 HD
ENDROOT
BRANCH   2  10
HETATM   10  C   UNL     1      54.009 105.776  40.772  1.00  0.00     0.033 C 
HETATM   11  C   UNL     1      53.612 104.862  41.677  1.00  0.00    -0.078 C 
HETATM   12  C   UNL     1      52.486 105.208  42.639  1.00  0.00     0.034 C 
HETATM   13  C   UNL     1      54.428 103.608  41.922  1.00  0.00     0.034 C 
HETATM   14  C   UNL     1      51.816 104.025  43.313  1.00  0.00     0.008 C 
HETATM   15  C   UNL     1      52.266 102.657  42.792  1.00  0.00    -0.018 C 
HETATM   16  C   UNL     1      51.915 102.578  41.287  1.00  0.00     0.010 C 
HETATM   17  C   UNL     1      53.796 102.573  42.839  1.00  0.00     0.008 C 
ENDBRANCH   2  10
BRANCH   7  18
HETATM   18  C   UNL     1      53.450 108.406  35.501  1.00  0.00    -0.014 C 
HETATM   19  C   UNL     1      54.546 109.397  35.151  1.00  0.00     0.014 C 
HETATM   20  C   UNL     1      54.655 109.731  33.678  1.00  0.00     0.001 C 
HETATM   21  C   UNL     1      53.885 108.929  32.674  1.00  0.00     0.000 C 
HETATM   22  C   UNL     1      53.263 107.627  33.113  1.00  0.00     0.001 C 
HETATM   23  C   UNL     1      53.555 107.215  34.549  1.00  0.00     0.014 C 
HETATM   24  C   UNL     1      52.100 109.117  35.295  1.00  0.00     0.020 C 
ENDBRANCH   7  18
TORSDOF 2
