MODEL 1
REMARK VINA RESULT:      -8.8      0.000      0.000
REMARK  1 active torsions:
REMARK  status: ('A' for Active; 'I' for Inactive)
REMARK    1  A    between atoms: C_4  and  C_17 
ROOT
HETATM    1  C   UNL     1      57.592 113.945  35.528  1.00  0.00    -0.010 C 
HETATM    2  O   UNL     1      55.456 111.690  33.048  1.00  0.00    -0.291 OA
HETATM    3  C   UNL     1      55.568 110.605  33.858  1.00  0.00     0.104 C 
HETATM    4  C   UNL     1      56.829 110.592  34.370  1.00  0.00     0.136 C 
HETATM    5  C   UNL     1      56.314 112.562  33.566  1.00  0.00     0.155 C 
HETATM    6  C   UNL     1      57.862 112.595  35.337  1.00  0.00     0.111 C 
HETATM    7  C   UNL     1      56.884 114.637  34.538  1.00  0.00    -0.021 C 
HETATM    8  C   UNL     1      56.940 116.614  35.895  1.00  0.00     0.001 C 
HETATM    9  C   UNL     1      57.898 114.575  36.729  1.00  0.00     0.013 C 
HETATM   10  C   UNL     1      57.530 115.897  36.919  1.00  0.00     0.001 C 
HETATM   11  N   UNL     1      57.123 111.914  34.431  1.00  0.00    -0.310 N 
HETATM   12  C   UNL     1      56.219 113.945  33.515  1.00  0.00     0.069 C 
HETATM   13  C   UNL     1      56.657 115.998  34.691  1.00  0.00     0.012 C 
ENDROOT
BRANCH   3  14
HETATM   14  C   UNL     1      54.480 109.789  34.145  1.00  0.00    -0.000 C 
HETATM   15  C   UNL     1      54.189 109.334  35.431  1.00  0.00     0.021 C 
HETATM   16  C   UNL     1      53.528 108.115  35.568  1.00  0.00    -0.061 C 
HETATM   17  C   UNL     1      53.147 107.589  36.921  1.00  0.00     0.048 C 
HETATM   18  C   UNL     1      52.996 107.484  34.463  1.00  0.00     0.007 C 
HETATM   19  C   UNL     1      53.006 108.121  33.232  1.00  0.00     0.001 C 
HETATM   20  C   UNL     1      53.704 109.316  33.090  1.00  0.00     0.014 C 
ENDBRANCH   3  14
TORSDOF 1
ENDMDL
MODEL 2
REMARK VINA RESULT:      -8.6      3.786      6.710
REMARK  1 active torsions:
REMARK  status: ('A' for Active; 'I' for Inactive)
REMARK    1  A    between atoms: C_4  and  C_17 
ROOT
HETATM    1  C   UNL     1      54.223 109.492  34.186  1.00  0.00    -0.010 C 
HETATM    2  O   UNL     1      53.912 109.251  38.140  1.00  0.00    -0.291 OA
HETATM    3  C   UNL     1      54.161 110.579  38.291  1.00  0.00     0.104 C 
HETATM    4  C   UNL     1      55.122 110.930  37.394  1.00  0.00     0.136 C 
HETATM    5  C   UNL     1      54.193 109.020  36.864  1.00  0.00     0.155 C 
HETATM    6  C   UNL     1      55.010 110.257  35.038  1.00  0.00     0.111 C 
HETATM    7  C   UNL     1      53.647 108.315  34.677  1.00  0.00    -0.021 C 
HETATM    8  C   UNL     1      52.565 107.975  32.562  1.00  0.00     0.001 C 
HETATM    9  C   UNL     1      53.901 109.941  32.910  1.00  0.00     0.013 C 
HETATM   10  C   UNL     1      53.037 109.196  32.123  1.00  0.00     0.001 C 
HETATM   11  N   UNL     1      54.881 110.072  36.372  1.00  0.00    -0.310 N 
HETATM   12  C   UNL     1      53.621 108.049  36.054  1.00  0.00     0.069 C 
HETATM   13  C   UNL     1      52.904 107.513  33.821  1.00  0.00     0.012 C 
ENDROOT
BRANCH   3  14
HETATM   14  C   UNL     1      53.413 111.372  39.154  1.00  0.00    -0.000 C 
HETATM   15  C   UNL     1      52.562 110.846  40.126  1.00  0.00     0.021 C 
HETATM   16  C   UNL     1      51.450 111.594  40.506  1.00  0.00    -0.061 C 
HETATM   17  C   UNL     1      50.518 111.106  41.577  1.00  0.00     0.048 C 
HETATM   18  C   UNL     1      51.313 112.901  40.086  1.00  0.00     0.007 C 
HETATM   19  C   UNL     1      52.343 113.514  39.390  1.00  0.00     0.001 C 
HETATM   20  C   UNL     1      53.430 112.753  38.975  1.00  0.00     0.014 C 
ENDBRANCH   3  14
TORSDOF 1
ENDMDL
MODEL 3
REMARK VINA RESULT:      -8.3      3.684      4.976
REMARK  1 active torsions:
REMARK  status: ('A' for Active; 'I' for Inactive)
REMARK    1  A    between atoms: C_4  and  C_17 
ROOT
HETATM    1  C   UNL     1      52.976 111.412  39.534  1.00  0.00    -0.010 C 
HETATM    2  O   UNL     1      55.329 110.477  36.470  1.00  0.00    -0.291 OA
HETATM    3  C   UNL     1      54.682 109.299  36.268  1.00  0.00     0.104 C 
HETATM    4  C   UNL     1      54.386 108.769  37.486  1.00  0.00     0.136 C 
HETATM    5  C   UNL     1      54.856 110.901  37.636  1.00  0.00     0.155 C 
HETATM    6  C   UNL     1      53.367 110.104  39.274  1.00  0.00     0.111 C 
HETATM    7  C   UNL     1      53.750 112.460  39.023  1.00  0.00    -0.021 C 
HETATM    8  C   UNL     1      52.193 114.040  39.939  1.00  0.00     0.001 C 
HETATM    9  C   UNL     1      51.775 111.686  40.177  1.00  0.00     0.013 C 
HETATM   10  C   UNL     1      51.372 113.003  40.336  1.00  0.00     0.001 C 
HETATM   11  N   UNL     1      54.217 109.880  38.244  1.00  0.00    -0.310 N 
HETATM   12  C   UNL     1      54.726 112.222  38.045  1.00  0.00     0.069 C 
HETATM   13  C   UNL     1      53.401 113.770  39.323  1.00  0.00     0.012 C 
ENDROOT
BRANCH   3  14
HETATM   14  C   UNL     1      54.322 108.869  34.996  1.00  0.00    -0.000 C 
HETATM   15  C   UNL     1      54.588 109.604  33.841  1.00  0.00     0.021 C 
HETATM   16  C   UNL     1      53.729 109.462  32.754  1.00  0.00    -0.061 C 
HETATM   17  C   UNL     1      53.980 110.192  31.466  1.00  0.00     0.048 C 
HETATM   18  C   UNL     1      52.770 108.470  32.750  1.00  0.00     0.007 C 
HETATM   19  C   UNL     1      52.742 107.532  33.770  1.00  0.00     0.001 C 
HETATM   20  C   UNL     1      53.571 107.703  34.873  1.00  0.00     0.014 C 
ENDBRANCH   3  14
TORSDOF 1
ENDMDL
MODEL 4
REMARK VINA RESULT:      -8.2      3.921      7.004
REMARK  1 active torsions:
REMARK  status: ('A' for Active; 'I' for Inactive)
REMARK    1  A    between atoms: C_4  and  C_17 
ROOT
HETATM    1  C   UNL     1      54.312 109.469  34.420  1.00  0.00    -0.010 C 
HETATM    2  O   UNL     1      53.760 109.278  38.350  1.00  0.00    -0.291 OA
HETATM    3  C   UNL     1      54.055 110.596  38.506  1.00  0.00     0.104 C 
HETATM    4  C   UNL     1      55.081 110.899  37.664  1.00  0.00     0.136 C 
HETATM    5  C   UNL     1      54.106 109.023  37.094  1.00  0.00     0.155 C 
HETATM    6  C   UNL     1      55.079 110.209  35.311  1.00  0.00     0.111 C 
HETATM    7  C   UNL     1      53.660 108.321  34.884  1.00  0.00    -0.021 C 
HETATM    8  C   UNL     1      52.692 108.005  32.712  1.00  0.00     0.001 C 
HETATM    9  C   UNL     1      54.085 109.919  33.124  1.00  0.00     0.013 C 
HETATM   10  C   UNL     1      53.239 109.202  32.292  1.00  0.00     0.001 C 
HETATM   11  N   UNL     1      54.864 110.042  36.636  1.00  0.00    -0.310 N 
HETATM   12  C   UNL     1      53.543 108.069  36.259  1.00  0.00     0.069 C 
HETATM   13  C   UNL     1      52.937 107.542  33.991  1.00  0.00     0.012 C 
ENDROOT
BRANCH   3  14
HETATM   14  C   UNL     1      53.291 111.427  39.318  1.00  0.00    -0.000 C 
HETATM   15  C   UNL     1      53.163 112.798  39.095  1.00  0.00     0.021 C 
HETATM   16  C   UNL     1      52.934 113.627  40.190  1.00  0.00    -0.061 C 
HETATM   17  C   UNL     1      52.744 115.107  40.016  1.00  0.00     0.048 C 
HETATM   18  C   UNL     1      52.637 113.085  41.424  1.00  0.00     0.007 C 
HETATM   19  C   UNL     1      52.439 111.719  41.549  1.00  0.00     0.001 C 
HETATM   20  C   UNL     1      52.711 110.891  40.465  1.00  0.00     0.014 C 
ENDBRANCH   3  14
TORSDOF 1
ENDMDL
MODEL 5
REMARK VINA RESULT:      -8.1      1.597      6.849
REMARK  1 active torsions:
REMARK  status: ('A' for Active; 'I' for Inactive)
REMARK    1  A    between atoms: C_4  and  C_17 
ROOT
HETATM    1  C   UNL     1      55.260 110.371  32.904  1.00  0.00    -0.010 C 
HETATM    2  O   UNL     1      56.564 111.807  36.372  1.00  0.00    -0.291 OA
HETATM    3  C   UNL     1      56.947 112.979  35.800  1.00  0.00     0.104 C 
HETATM    4  C   UNL     1      57.484 112.696  34.582  1.00  0.00     0.136 C 
HETATM    5  C   UNL     1      56.286 111.025  35.336  1.00  0.00     0.155 C 
HETATM    6  C   UNL     1      56.378 111.192  32.991  1.00  0.00     0.111 C 
HETATM    7  C   UNL     1      54.851 109.667  34.043  1.00  0.00    -0.021 C 
HETATM    8  C   UNL     1      52.983 108.792  32.817  1.00  0.00     0.001 C 
HETATM    9  C   UNL     1      54.482 110.339  31.753  1.00  0.00     0.013 C 
HETATM   10  C   UNL     1      53.322 109.580  31.734  1.00  0.00     0.001 C 
HETATM   11  N   UNL     1      56.788 111.591  34.218  1.00  0.00    -0.310 N 
HETATM   12  C   UNL     1      55.367 109.986  35.307  1.00  0.00     0.069 C 
HETATM   13  C   UNL     1      53.770 108.801  33.954  1.00  0.00     0.012 C 
ENDROOT
BRANCH   3  14
HETATM   14  C   UNL     1      56.672 114.208  36.391  1.00  0.00    -0.000 C 
HETATM   15  C   UNL     1      57.127 115.419  35.871  1.00  0.00     0.021 C 
HETATM   16  C   UNL     1      57.353 116.473  36.753  1.00  0.00    -0.061 C 
HETATM   17  C   UNL     1      57.803 117.817  36.256  1.00  0.00     0.048 C 
HETATM   18  C   UNL     1      56.941 116.383  38.067  1.00  0.00     0.007 C 
HETATM   19  C   UNL     1      56.187 115.296  38.481  1.00  0.00     0.001 C 
HETATM   20  C   UNL     1      56.001 114.227  37.611  1.00  0.00     0.014 C 
ENDBRANCH   3  14
TORSDOF 1
ENDMDL
MODEL 6
REMARK VINA RESULT:      -8.1      1.270      2.289
REMARK  1 active torsions:
REMARK  status: ('A' for Active; 'I' for Inactive)
REMARK    1  A    between atoms: C_4  and  C_17 
ROOT
HETATM    1  C   UNL     1      57.810 114.100  36.792  1.00  0.00    -0.010 C 
HETATM    2  O   UNL     1      56.665 112.561  33.312  1.00  0.00    -0.291 OA
HETATM    3  C   UNL     1      56.790 111.290  33.776  1.00  0.00     0.104 C 
HETATM    4  C   UNL     1      57.898 111.237  34.565  1.00  0.00     0.136 C 
HETATM    5  C   UNL     1      57.231 113.300  34.258  1.00  0.00     0.155 C 
HETATM    6  C   UNL     1      58.343 112.917  36.296  1.00  0.00     0.111 C 
HETATM    7  C   UNL     1      57.218 115.000  35.898  1.00  0.00    -0.021 C 
HETATM    8  C   UNL     1      56.646 116.432  37.736  1.00  0.00     0.001 C 
HETATM    9  C   UNL     1      57.745 114.339  38.160  1.00  0.00     0.013 C 
HETATM   10  C   UNL     1      57.122 115.487  38.623  1.00  0.00     0.001 C 
HETATM   11  N   UNL     1      57.940 112.492  35.075  1.00  0.00    -0.310 N 
HETATM   12  C   UNL     1      56.912 114.611  34.586  1.00  0.00     0.069 C 
HETATM   13  C   UNL     1      56.732 116.210  36.374  1.00  0.00     0.012 C 
ENDROOT
BRANCH   3  14
HETATM   14  C   UNL     1      55.823 110.321  33.530  1.00  0.00    -0.000 C 
HETATM   15  C   UNL     1      55.097 110.255  32.341  1.00  0.00     0.021 C 
HETATM   16  C   UNL     1      53.813 109.717  32.379  1.00  0.00    -0.061 C 
HETATM   17  C   UNL     1      52.994 109.578  31.128  1.00  0.00     0.048 C 
HETATM   18  C   UNL     1      53.358 109.081  33.516  1.00  0.00     0.007 C 
HETATM   19  C   UNL     1      54.221 108.863  34.578  1.00  0.00     0.001 C 
HETATM   20  C   UNL     1      55.487 109.438  34.554  1.00  0.00     0.014 C 
ENDBRANCH   3  14
TORSDOF 1
ENDMDL
MODEL 7
REMARK VINA RESULT:      -8.1      1.283      1.749
REMARK  1 active torsions:
REMARK  status: ('A' for Active; 'I' for Inactive)
REMARK    1  A    between atoms: C_4  and  C_17 
ROOT
HETATM    1  C   UNL     1      58.460 114.657  36.815  1.00  0.00    -0.010 C 
HETATM    2  O   UNL     1      55.896 113.017  34.261  1.00  0.00    -0.291 OA
HETATM    3  C   UNL     1      56.159 111.766  34.721  1.00  0.00     0.104 C 
HETATM    4  C   UNL     1      57.495 111.684  34.973  1.00  0.00     0.136 C 
HETATM    5  C   UNL     1      56.835 113.766  34.825  1.00  0.00     0.155 C 
HETATM    6  C   UNL     1      58.690 113.419  36.229  1.00  0.00     0.111 C 
HETATM    7  C   UNL     1      57.578 115.545  36.189  1.00  0.00    -0.021 C 
HETATM    8  C   UNL     1      57.888 117.104  37.987  1.00  0.00     0.001 C 
HETATM    9  C   UNL     1      58.988 114.969  38.063  1.00  0.00     0.013 C 
HETATM   10  C   UNL     1      58.661 116.177  38.659  1.00  0.00     0.001 C 
HETATM   11  N   UNL     1      57.793 112.958  35.326  1.00  0.00    -0.310 N 
HETATM   12  C   UNL     1      56.731 115.110  35.159  1.00  0.00     0.069 C 
HETATM   13  C   UNL     1      57.383 116.807  36.734  1.00  0.00     0.012 C 
ENDROOT
BRANCH   3  14
HETATM   14  C   UNL     1      55.145 110.849  34.976  1.00  0.00    -0.000 C 
HETATM   15  C   UNL     1      54.822 110.411  36.259  1.00  0.00     0.021 C 
HETATM   16  C   UNL     1      54.283 109.135  36.406  1.00  0.00    -0.061 C 
HETATM   17  C   UNL     1      53.873 108.617  37.755  1.00  0.00     0.048 C 
HETATM   18  C   UNL     1      53.891 108.413  35.298  1.00  0.00     0.007 C 
HETATM   19  C   UNL     1      53.913 109.004  34.045  1.00  0.00     0.001 C 
HETATM   20  C   UNL     1      54.491 110.261  33.897  1.00  0.00     0.014 C 
ENDBRANCH   3  14
TORSDOF 1
ENDMDL
MODEL 8
REMARK VINA RESULT:      -8.0      4.140      6.583
REMARK  1 active torsions:
REMARK  status: ('A' for Active; 'I' for Inactive)
REMARK    1  A    between atoms: C_4  and  C_17 
ROOT
HETATM    1  C   UNL     1      54.304 109.452  34.063  1.00  0.00    -0.010 C 
HETATM    2  O   UNL     1      53.036 107.329  37.172  1.00  0.00    -0.291 OA
HETATM    3  C   UNL     1      53.453 108.276  38.053  1.00  0.00     0.104 C 
HETATM    4  C   UNL     1      54.642 108.768  37.610  1.00  0.00     0.136 C 
HETATM    5  C   UNL     1      53.570 107.713  36.019  1.00  0.00     0.155 C 
HETATM    6  C   UNL     1      54.981 109.442  35.276  1.00  0.00     0.111 C 
HETATM    7  C   UNL     1      53.448 108.388  33.759  1.00  0.00    -0.021 C 
HETATM    8  C   UNL     1      52.855 109.466  31.699  1.00  0.00     0.001 C 
HETATM    9  C   UNL     1      54.368 110.553  33.215  1.00  0.00     0.013 C 
HETATM   10  C   UNL     1      53.606 110.569  32.058  1.00  0.00     0.001 C 
HETATM   11  N   UNL     1      54.513 108.646  36.266  1.00  0.00    -0.310 N 
HETATM   12  C   UNL     1      53.056 107.477  34.751  1.00  0.00     0.069 C 
HETATM   13  C   UNL     1      52.809 108.359  32.527  1.00  0.00     0.012 C 
ENDROOT
BRANCH   3  14
HETATM   14  C   UNL     1      52.660 108.685  39.120  1.00  0.00    -0.000 C 
HETATM   15  C   UNL     1      52.769 109.944  39.709  1.00  0.00     0.021 C 
HETATM   16  C   UNL     1      52.436 110.076  41.055  1.00  0.00    -0.061 C 
HETATM   17  C   UNL     1      52.491 111.411  41.740  1.00  0.00     0.048 C 
HETATM   18  C   UNL     1      51.821 109.038  41.724  1.00  0.00     0.007 C 
HETATM   19  C   UNL     1      51.417 107.910  41.029  1.00  0.00     0.001 C 
HETATM   20  C   UNL     1      51.789 107.764  39.696  1.00  0.00     0.014 C 
ENDBRANCH   3  14
TORSDOF 1
ENDMDL
MODEL 9
REMARK VINA RESULT:      -7.7      2.158      6.872
REMARK  1 active torsions:
REMARK  status: ('A' for Active; 'I' for Inactive)
REMARK    1  A    between atoms: C_4  and  C_17 
ROOT
HETATM    1  C   UNL     1      54.511 109.941  36.736  1.00  0.00    -0.010 C 
HETATM    2  O   UNL     1      56.365 113.018  35.038  1.00  0.00    -0.291 OA
HETATM    3  C   UNL     1      57.069 113.282  36.169  1.00  0.00     0.104 C 
HETATM    4  C   UNL     1      56.243 113.090  37.233  1.00  0.00     0.136 C 
HETATM    5  C   UNL     1      55.461 112.128  35.429  1.00  0.00     0.155 C 
HETATM    6  C   UNL     1      54.841 111.088  37.446  1.00  0.00     0.111 C 
HETATM    7  C   UNL     1      54.402 110.019  35.343  1.00  0.00    -0.021 C 
HETATM    8  C   UNL     1      53.947 107.664  35.258  1.00  0.00     0.001 C 
HETATM    9  C   UNL     1      54.413 108.708  37.371  1.00  0.00     0.013 C 
HETATM   10  C   UNL     1      54.174 107.569  36.618  1.00  0.00     0.001 C 
HETATM   11  N   UNL     1      55.420 112.113  36.778  1.00  0.00    -0.310 N 
HETATM   12  C   UNL     1      54.884 111.137  34.647  1.00  0.00     0.069 C 
HETATM   13  C   UNL     1      54.018 108.893  34.627  1.00  0.00     0.012 C 
ENDROOT
BRANCH   3  14
HETATM   14  C   UNL     1      58.430 113.567  36.136  1.00  0.00    -0.000 C 
HETATM   15  C   UNL     1      59.407 112.656  36.539  1.00  0.00     0.021 C 
HETATM   16  C   UNL     1      60.604 113.153  37.049  1.00  0.00    -0.061 C 
HETATM   17  C   UNL     1      61.714 112.229  37.460  1.00  0.00     0.048 C 
HETATM   18  C   UNL     1      60.892 114.499  36.963  1.00  0.00     0.007 C 
HETATM   19  C   UNL     1      60.049 115.343  36.256  1.00  0.00     0.001 C 
HETATM   20  C   UNL     1      58.835 114.852  35.786  1.00  0.00     0.014 C 
ENDBRANCH   3  14
TORSDOF 1
ENDMDL
