MODEL 1
REMARK VINA RESULT:      -7.6      0.000      0.000
REMARK  7 active torsions:
REMARK  status: ('A' for Active; 'I' for Inactive)
REMARK    1  A    between atoms: C_2  and  C_13 
REMARK    2  A    between atoms: O_3  and  C_8 
REMARK    3  A    between atoms: O_6  and  C_15 
REMARK    4  A    between atoms: C_9  and  O_16 
REMARK    5  A    between atoms: C_9  and  O_25 
REMARK    6  A    between atoms: C_15  and  C_28 
REMARK       I    between atoms: N_19  and  C_28 
REMARK    7  A    between atoms: O_23  and  C_27 
ROOT
HETATM    1  C   UNL     1     379.931 151.291  62.295  1.00  0.00     0.227 C 
HETATM    2  C   UNL     1     379.348 151.729  60.944  1.00  0.00     0.196 C 
HETATM    3  C   UNL     1     378.227 152.726  61.253  1.00  0.00     0.087 C 
HETATM    4  C   UNL     1     379.234 152.092  63.406  1.00  0.00     0.195 C 
HETATM    5  C   UNL     1     378.303 153.102  62.736  1.00  0.00     0.174 C 
ENDROOT
BRANCH   3   6
HETATM    6  C   UNL     1     376.790 152.415  60.845  1.00  0.00    -0.002 C 
HETATM    7  C   UNL     1     375.760 151.746  61.712  1.00  0.00     0.010 C 
HETATM    8  C   UNL     1     374.293 152.136  61.458  1.00  0.00    -0.014 C 
HETATM    9  C   UNL     1     374.069 153.576  61.913  1.00  0.00     0.005 C 
HETATM   10  C   UNL     1     374.046 152.228  59.944  1.00  0.00     0.009 C 
HETATM   11  C   UNL     1     374.534 154.456  60.766  1.00  0.00     0.005 C 
HETATM   12  C   UNL     1     374.798 153.521  59.594  1.00  0.00    -0.014 C 
HETATM   13  C   UNL     1     376.296 153.170  59.614  1.00  0.00     0.010 C 
ENDBRANCH   3   6
BRANCH   2  14
HETATM   14  O   UNL     1     378.914 150.562  60.285  1.00  0.00    -0.363 OA
ATOM     15  HO  UNL     1     378.407 150.060  60.913  1.00  0.00     0.213 HD
ENDBRANCH   2  14
BRANCH   2  16
HETATM   16  O   UNL     1     380.300 152.304  60.084  1.00  0.00    -0.363 OA
ATOM     17  HO  UNL     1     380.988 152.773  60.542  1.00  0.00     0.213 HD
ENDBRANCH   2  16
BRANCH   5  18
HETATM   18  O   UNL     1     378.685 154.466  62.855  1.00  0.00    -0.391 OA
ATOM     19  HO  UNL     1     378.258 154.846  63.615  1.00  0.00     0.210 HD
ENDBRANCH   5  18
BRANCH   1  20
HETATM   20  O   UNL     1     381.343 151.382  62.298  1.00  0.00    -0.386 OA
ATOM     21  HO  UNL     1     381.632 152.280  62.186  1.00  0.00     0.210 HD
ENDBRANCH   1  20
BRANCH   4  22
HETATM   22  O   UNL     1     378.450 151.152  64.157  1.00  0.00    -0.375 OA
ATOM     23  HO  UNL     1     378.606 151.342  65.074  1.00  0.00     0.211 HD
ENDBRANCH   4  22
BRANCH   4  24
HETATM   24  C   UNL     1     380.212 152.790  64.347  1.00  0.00     0.255 C 
HETATM   25  N   UNL     1     380.103 152.551  65.631  1.00  0.00    -0.367 N 
ATOM     26  HN2 UNL     1     379.414 151.893  65.995  1.00  0.00     0.159 HD
ATOM     27  HN1 UNL     1     380.757 153.018  66.259  1.00  0.00     0.159 HD
HETATM   28  O   UNL     1     381.035 153.577  63.912  1.00  0.00    -0.270 OA
ENDBRANCH   4  24
TORSDOF 7
ENDMDL
MODEL 2
REMARK VINA RESULT:      -7.1      1.928      2.293
REMARK  7 active torsions:
REMARK  status: ('A' for Active; 'I' for Inactive)
REMARK    1  A    between atoms: C_2  and  C_13 
REMARK    2  A    between atoms: O_3  and  C_8 
REMARK    3  A    between atoms: O_6  and  C_15 
REMARK    4  A    between atoms: C_9  and  O_16 
REMARK    5  A    between atoms: C_9  and  O_25 
REMARK    6  A    between atoms: C_15  and  C_28 
REMARK       I    between atoms: N_19  and  C_28 
REMARK    7  A    between atoms: O_23  and  C_27 
ROOT
HETATM    1  C   UNL     1     379.625 153.631  63.950  1.00  0.00     0.227 C 
HETATM    2  C   UNL     1     379.193 153.330  62.508  1.00  0.00     0.196 C 
HETATM    3  C   UNL     1     377.878 154.079  62.279  1.00  0.00     0.087 C 
HETATM    4  C   UNL     1     378.628 154.632  64.556  1.00  0.00     0.195 C 
HETATM    5  C   UNL     1     377.649 155.035  63.454  1.00  0.00     0.174 C 
ENDROOT
BRANCH   3   6
HETATM    6  C   UNL     1     376.602 153.307  61.952  1.00  0.00    -0.002 C 
HETATM    7  C   UNL     1     375.434 153.116  62.878  1.00  0.00     0.010 C 
HETATM    8  C   UNL     1     374.052 152.970  62.216  1.00  0.00    -0.014 C 
HETATM    9  C   UNL     1     373.642 154.309  61.608  1.00  0.00     0.005 C 
HETATM   10  C   UNL     1     374.174 152.070  60.976  1.00  0.00     0.009 C 
HETATM   11  C   UNL     1     374.319 154.379  60.251  1.00  0.00     0.005 C 
HETATM   12  C   UNL     1     374.912 153.000  60.001  1.00  0.00    -0.014 C 
HETATM   13  C   UNL     1     376.379 153.040  60.466  1.00  0.00     0.010 C 
ENDBRANCH   3   6
BRANCH   2  14
HETATM   14  O   UNL     1     379.086 151.930  62.393  1.00  0.00    -0.363 OA
ATOM     15  HO  UNL     1     378.534 151.754  61.639  1.00  0.00     0.213 HD
ENDBRANCH   2  14
BRANCH   2  16
HETATM   16  O   UNL     1     380.151 153.705  61.549  1.00  0.00    -0.363 OA
ATOM     17  HO  UNL     1     380.746 153.002  61.314  1.00  0.00     0.213 HD
ENDBRANCH   2  16
BRANCH   5  18
HETATM   18  O   UNL     1     377.756 156.376  62.995  1.00  0.00    -0.391 OA
ATOM     19  HO  UNL     1     378.137 156.913  63.680  1.00  0.00     0.210 HD
ENDBRANCH   5  18
BRANCH   1  20
HETATM   20  O   UNL     1     380.979 154.037  64.008  1.00  0.00    -0.386 OA
ATOM     21  HO  UNL     1     381.559 153.348  63.704  1.00  0.00     0.210 HD
ENDBRANCH   1  20
BRANCH   4  22
HETATM   22  O   UNL     1     377.917 153.929  65.585  1.00  0.00    -0.375 OA
ATOM     23  HO  UNL     1     377.008 153.896  65.312  1.00  0.00     0.211 HD
ENDBRANCH   4  22
BRANCH   4  24
HETATM   24  C   UNL     1     379.303 155.859  65.163  1.00  0.00     0.255 C 
HETATM   25  N   UNL     1     378.994 156.181  66.395  1.00  0.00    -0.367 N 
ATOM     26  HN2 UNL     1     378.351 155.615  66.950  1.00  0.00     0.159 HD
ATOM     27  HN1 UNL     1     379.445 157.000  66.800  1.00  0.00     0.159 HD
HETATM   28  O   UNL     1     380.071 156.535  64.500  1.00  0.00    -0.270 OA
ENDBRANCH   4  24
TORSDOF 7
ENDMDL
MODEL 3
REMARK VINA RESULT:      -7.0      2.964      4.778
REMARK  7 active torsions:
REMARK  status: ('A' for Active; 'I' for Inactive)
REMARK    1  A    between atoms: C_2  and  C_13 
REMARK    2  A    between atoms: O_3  and  C_8 
REMARK    3  A    between atoms: O_6  and  C_15 
REMARK    4  A    between atoms: C_9  and  O_16 
REMARK    5  A    between atoms: C_9  and  O_25 
REMARK    6  A    between atoms: C_15  and  C_28 
REMARK       I    between atoms: N_19  and  C_28 
REMARK    7  A    between atoms: O_23  and  C_27 
ROOT
HETATM    1  C   UNL     1     376.997 154.686  62.674  1.00  0.00     0.227 C 
HETATM    2  C   UNL     1     378.095 153.646  62.408  1.00  0.00     0.196 C 
HETATM    3  C   UNL     1     377.649 152.844  61.182  1.00  0.00     0.087 C 
HETATM    4  C   UNL     1     375.944 154.577  61.560  1.00  0.00     0.195 C 
HETATM    5  C   UNL     1     376.448 153.550  60.546  1.00  0.00     0.174 C 
ENDROOT
BRANCH   3   6
HETATM    6  C   UNL     1     377.398 151.343  61.298  1.00  0.00    -0.002 C 
HETATM    7  C   UNL     1     378.460 150.283  61.387  1.00  0.00     0.010 C 
HETATM    8  C   UNL     1     378.093 149.011  62.173  1.00  0.00    -0.014 C 
HETATM    9  C   UNL     1     377.987 149.350  63.658  1.00  0.00     0.005 C 
HETATM   10  C   UNL     1     376.654 148.597  61.828  1.00  0.00     0.009 C 
HETATM   11  C   UNL     1     376.593 149.915  63.861  1.00  0.00     0.005 C 
HETATM   12  C   UNL     1     375.846 149.681  62.556  1.00  0.00    -0.014 C 
HETATM   13  C   UNL     1     375.980 150.961  61.713  1.00  0.00     0.010 C 
ENDBRANCH   3   6
BRANCH   2  14
HETATM   14  O   UNL     1     378.228 152.878  63.581  1.00  0.00    -0.363 OA
ATOM     15  HO  UNL     1     378.254 153.487  64.311  1.00  0.00     0.213 HD
ENDBRANCH   2  14
BRANCH   2  16
HETATM   16  O   UNL     1     379.363 154.215  62.195  1.00  0.00    -0.363 OA
ATOM     17  HO  UNL     1     379.674 154.732  62.930  1.00  0.00     0.213 HD
ENDBRANCH   2  16
BRANCH   5  18
HETATM   18  O   UNL     1     376.826 154.069  59.278  1.00  0.00    -0.391 OA
ATOM     19  HO  UNL     1     377.273 154.900  59.399  1.00  0.00     0.210 HD
ENDBRANCH   5  18
BRANCH   1  20
HETATM   20  O   UNL     1     377.544 155.980  62.845  1.00  0.00    -0.386 OA
ATOM     21  HO  UNL     1     377.903 156.313  62.031  1.00  0.00     0.210 HD
ENDBRANCH   1  20
BRANCH   4  22
HETATM   22  O   UNL     1     374.746 154.083  62.177  1.00  0.00    -0.375 OA
ATOM     23  HO  UNL     1     374.136 153.899  61.472  1.00  0.00     0.211 HD
ENDBRANCH   4  22
BRANCH   4  24
HETATM   24  C   UNL     1     375.645 155.912  60.883  1.00  0.00     0.255 C 
HETATM   25  N   UNL     1     374.391 156.273  60.770  1.00  0.00    -0.367 N 
ATOM     26  HN2 UNL     1     373.634 155.704  61.152  1.00  0.00     0.159 HD
ATOM     27  HN1 UNL     1     374.191 157.165  60.318  1.00  0.00     0.159 HD
HETATM   28  O   UNL     1     376.549 156.591  60.427  1.00  0.00    -0.270 OA
ENDBRANCH   4  24
TORSDOF 7
ENDMDL
MODEL 4
REMARK VINA RESULT:      -7.0      3.235      5.178
REMARK  7 active torsions:
REMARK  status: ('A' for Active; 'I' for Inactive)
REMARK    1  A    between atoms: C_2  and  C_13 
REMARK    2  A    between atoms: O_3  and  C_8 
REMARK    3  A    between atoms: O_6  and  C_15 
REMARK    4  A    between atoms: C_9  and  O_16 
REMARK    5  A    between atoms: C_9  and  O_25 
REMARK    6  A    between atoms: C_15  and  C_28 
REMARK       I    between atoms: N_19  and  C_28 
REMARK    7  A    between atoms: O_23  and  C_27 
ROOT
HETATM    1  C   UNL     1     376.550 154.838  60.968  1.00  0.00     0.227 C 
HETATM    2  C   UNL     1     376.563 153.423  60.372  1.00  0.00     0.196 C 
HETATM    3  C   UNL     1     375.490 152.625  61.118  1.00  0.00     0.087 C 
HETATM    4  C   UNL     1     375.412 154.921  61.997  1.00  0.00     0.195 C 
HETATM    5  C   UNL     1     374.652 153.596  61.955  1.00  0.00     0.174 C 
ENDROOT
BRANCH   3   6
HETATM    6  C   UNL     1     375.878 151.397  61.937  1.00  0.00    -0.002 C 
HETATM    7  C   UNL     1     376.129 150.021  61.386  1.00  0.00     0.010 C 
HETATM    8  C   UNL     1     377.139 149.149  62.155  1.00  0.00    -0.014 C 
HETATM    9  C   UNL     1     378.541 149.725  61.974  1.00  0.00     0.005 C 
HETATM   10  C   UNL     1     376.908 149.316  63.665  1.00  0.00     0.009 C 
HETATM   11  C   UNL     1     378.674 150.837  62.999  1.00  0.00     0.005 C 
HETATM   12  C   UNL     1     377.450 150.734  63.898  1.00  0.00    -0.014 C 
HETATM   13  C   UNL     1     376.389 151.700  63.343  1.00  0.00     0.010 C 
ENDBRANCH   3   6
BRANCH   2  14
HETATM   14  O   UNL     1     377.869 152.920  60.532  1.00  0.00    -0.363 OA
ATOM     15  HO  UNL     1     377.812 151.973  60.470  1.00  0.00     0.213 HD
ENDBRANCH   2  14
BRANCH   2  16
HETATM   16  O   UNL     1     376.327 153.398  58.986  1.00  0.00    -0.363 OA
ATOM     17  HO  UNL     1     375.525 152.946  58.748  1.00  0.00     0.213 HD
ENDBRANCH   2  16
BRANCH   5  18
HETATM   18  O   UNL     1     373.334 153.657  61.424  1.00  0.00    -0.391 OA
ATOM     19  HO  UNL     1     372.956 152.785  61.424  1.00  0.00     0.210 HD
ENDBRANCH   5  18
BRANCH   1  20
HETATM   20  O   UNL     1     376.502 155.823  59.953  1.00  0.00    -0.386 OA
ATOM     21  HO  UNL     1     375.655 156.254  59.930  1.00  0.00     0.210 HD
ENDBRANCH   1  20
BRANCH   4  22
HETATM   22  O   UNL     1     376.033 155.069  63.283  1.00  0.00    -0.375 OA
ATOM     23  HO  UNL     1     376.900 154.689  63.209  1.00  0.00     0.211 HD
ENDBRANCH   4  22
BRANCH   4  24
HETATM   24  C   UNL     1     374.471 156.099  61.759  1.00  0.00     0.255 C 
HETATM   25  N   UNL     1     373.890 156.639  62.801  1.00  0.00    -0.367 N 
ATOM     26  HN2 UNL     1     374.082 156.313  63.749  1.00  0.00     0.159 HD
ATOM     27  HN1 UNL     1     373.261 157.426  62.641  1.00  0.00     0.159 HD
HETATM   28  O   UNL     1     374.241 156.487  60.626  1.00  0.00    -0.270 OA
ENDBRANCH   4  24
TORSDOF 7
ENDMDL
MODEL 5
REMARK VINA RESULT:      -6.9      3.069      5.699
REMARK  7 active torsions:
REMARK  status: ('A' for Active; 'I' for Inactive)
REMARK    1  A    between atoms: C_2  and  C_13 
REMARK    2  A    between atoms: O_3  and  C_8 
REMARK    3  A    between atoms: O_6  and  C_15 
REMARK    4  A    between atoms: C_9  and  O_16 
REMARK    5  A    between atoms: C_9  and  O_25 
REMARK    6  A    between atoms: C_15  and  C_28 
REMARK       I    between atoms: N_19  and  C_28 
REMARK    7  A    between atoms: O_23  and  C_27 
ROOT
HETATM    1  C   UNL     1     375.091 153.181  62.160  1.00  0.00     0.227 C 
HETATM    2  C   UNL     1     376.438 153.667  62.716  1.00  0.00     0.196 C 
HETATM    3  C   UNL     1     377.431 153.628  61.552  1.00  0.00     0.087 C 
HETATM    4  C   UNL     1     375.247 152.945  60.650  1.00  0.00     0.195 C 
HETATM    5  C   UNL     1     376.654 153.391  60.253  1.00  0.00     0.174 C 
ENDROOT
BRANCH   3   6
HETATM    6  C   UNL     1     378.660 152.725  61.621  1.00  0.00    -0.002 C 
HETATM    7  C   UNL     1     379.678 152.717  62.726  1.00  0.00     0.010 C 
HETATM    8  C   UNL     1     380.378 151.374  63.002  1.00  0.00    -0.014 C 
HETATM    9  C   UNL     1     379.374 150.399  63.612  1.00  0.00     0.005 C 
HETATM   10  C   UNL     1     380.723 150.696  61.667  1.00  0.00     0.009 C 
HETATM   11  C   UNL     1     378.611 149.797  62.447  1.00  0.00     0.005 C 
HETATM   12  C   UNL     1     379.334 150.253  61.187  1.00  0.00    -0.014 C 
HETATM   13  C   UNL     1     378.623 151.522  60.683  1.00  0.00     0.010 C 
ENDBRANCH   3   6
BRANCH   2  14
HETATM   14  O   UNL     1     376.774 152.815  63.787  1.00  0.00    -0.363 OA
ATOM     15  HO  UNL     1     376.880 151.942  63.425  1.00  0.00     0.213 HD
ENDBRANCH   2  14
BRANCH   2  16
HETATM   16  O   UNL     1     376.379 154.955  63.276  1.00  0.00    -0.363 OA
ATOM     17  HO  UNL     1     376.051 155.614  62.674  1.00  0.00     0.213 HD
ENDBRANCH   2  16
BRANCH   5  18
HETATM   18  O   UNL     1     376.725 154.557  59.444  1.00  0.00    -0.391 OA
ATOM     19  HO  UNL     1     377.182 155.242  59.919  1.00  0.00     0.210 HD
ENDBRANCH   5  18
BRANCH   1  20
HETATM   20  O   UNL     1     374.041 154.060  62.516  1.00  0.00    -0.386 OA
ATOM     21  HO  UNL     1     374.356 154.952  62.613  1.00  0.00     0.210 HD
ENDBRANCH   1  20
BRANCH   4  22
HETATM   22  O   UNL     1     375.124 151.530  60.443  1.00  0.00    -0.375 OA
ATOM     23  HO  UNL     1     374.562 151.415  59.686  1.00  0.00     0.211 HD
ENDBRANCH   4  22
BRANCH   4  24
HETATM   24  C   UNL     1     374.190 153.665  59.817  1.00  0.00     0.255 C 
HETATM   25  N   UNL     1     374.014 154.946  60.026  1.00  0.00    -0.367 N 
ATOM     26  HN2 UNL     1     374.586 155.462  60.695  1.00  0.00     0.159 HD
ATOM     27  HN1 UNL     1     373.307 155.427  59.469  1.00  0.00     0.159 HD
HETATM   28  O   UNL     1     373.506 153.048  59.017  1.00  0.00    -0.270 OA
ENDBRANCH   4  24
TORSDOF 7
ENDMDL
MODEL 6
REMARK VINA RESULT:      -6.9      2.486      4.222
REMARK  7 active torsions:
REMARK  status: ('A' for Active; 'I' for Inactive)
REMARK    1  A    between atoms: C_2  and  C_13 
REMARK    2  A    between atoms: O_3  and  C_8 
REMARK    3  A    between atoms: O_6  and  C_15 
REMARK    4  A    between atoms: C_9  and  O_16 
REMARK    5  A    between atoms: C_9  and  O_25 
REMARK    6  A    between atoms: C_15  and  C_28 
REMARK       I    between atoms: N_19  and  C_28 
REMARK    7  A    between atoms: O_23  and  C_27 
ROOT
HETATM    1  C   UNL     1     379.711 156.342  64.932  1.00  0.00     0.227 C 
HETATM    2  C   UNL     1     378.218 156.358  64.575  1.00  0.00     0.196 C 
HETATM    3  C   UNL     1     377.848 154.926  64.179  1.00  0.00     0.087 C 
HETATM    4  C   UNL     1     380.216 154.893  64.846  1.00  0.00     0.195 C 
HETATM    5  C   UNL     1     379.011 154.001  64.547  1.00  0.00     0.174 C 
ENDROOT
BRANCH   3   6
HETATM    6  C   UNL     1     377.341 154.626  62.771  1.00  0.00    -0.002 C 
HETATM    7  C   UNL     1     377.874 153.557  61.859  1.00  0.00     0.010 C 
HETATM    8  C   UNL     1     376.872 152.943  60.864  1.00  0.00    -0.014 C 
HETATM    9  C   UNL     1     375.855 152.100  61.631  1.00  0.00     0.005 C 
HETATM   10  C   UNL     1     375.995 154.057  60.273  1.00  0.00     0.009 C 
HETATM   11  C   UNL     1     374.804 153.070  62.139  1.00  0.00     0.005 C 
HETATM   12  C   UNL     1     375.101 154.405  61.472  1.00  0.00    -0.014 C 
HETATM   13  C   UNL     1     375.974 155.220  62.442  1.00  0.00     0.010 C 
ENDBRANCH   3   6
BRANCH   2  14
HETATM   14  O   UNL     1     378.050 157.302  63.543  1.00  0.00    -0.363 OA
ATOM     15  HO  UNL     1     377.115 157.400  63.405  1.00  0.00     0.213 HD
ENDBRANCH   2  14
BRANCH   2  16
HETATM   16  O   UNL     1     377.398 156.811  65.624  1.00  0.00    -0.363 OA
ATOM     17  HO  UNL     1     377.878 157.007  66.421  1.00  0.00     0.213 HD
ENDBRANCH   2  16
BRANCH   5  18
HETATM   18  O   UNL     1     378.608 153.136  65.601  1.00  0.00    -0.391 OA
ATOM     19  HO  UNL     1     378.697 153.591  66.432  1.00  0.00     0.210 HD
ENDBRANCH   5  18
BRANCH   1  20
HETATM   20  O   UNL     1     379.951 156.978  66.173  1.00  0.00    -0.386 OA
ATOM     21  HO  UNL     1     379.222 157.536  66.421  1.00  0.00     0.210 HD
ENDBRANCH   1  20
BRANCH   4  22
HETATM   22  O   UNL     1     381.127 154.842  63.738  1.00  0.00    -0.375 OA
ATOM     23  HO  UNL     1     380.910 155.576  63.175  1.00  0.00     0.211 HD
ENDBRANCH   4  22
BRANCH   4  24
HETATM   24  C   UNL     1     380.938 154.432  66.109  1.00  0.00     0.255 C 
HETATM   25  N   UNL     1     382.139 153.926  65.977  1.00  0.00    -0.367 N 
ATOM     26  HN2 UNL     1     382.599 153.872  65.067  1.00  0.00     0.159 HD
ATOM     27  HN1 UNL     1     382.622 153.619  66.821  1.00  0.00     0.159 HD
HETATM   28  O   UNL     1     380.388 154.497  67.195  1.00  0.00    -0.270 OA
ENDBRANCH   4  24
TORSDOF 7
ENDMDL
MODEL 7
REMARK VINA RESULT:      -6.7      3.292      5.171
REMARK  7 active torsions:
REMARK  status: ('A' for Active; 'I' for Inactive)
REMARK    1  A    between atoms: C_2  and  C_13 
REMARK    2  A    between atoms: O_3  and  C_8 
REMARK    3  A    between atoms: O_6  and  C_15 
REMARK    4  A    between atoms: C_9  and  O_16 
REMARK    5  A    between atoms: C_9  and  O_25 
REMARK    6  A    between atoms: C_15  and  C_28 
REMARK       I    between atoms: N_19  and  C_28 
REMARK    7  A    between atoms: O_23  and  C_27 
ROOT
HETATM    1  C   UNL     1     378.054 156.226  63.736  1.00  0.00     0.227 C 
HETATM    2  C   UNL     1     377.347 155.021  63.099  1.00  0.00     0.196 C 
HETATM    3  C   UNL     1     377.915 153.772  63.777  1.00  0.00     0.087 C 
HETATM    4  C   UNL     1     378.971 155.713  64.858  1.00  0.00     0.195 C 
HETATM    5  C   UNL     1     378.744 154.207  64.989  1.00  0.00     0.174 C 
ENDROOT
BRANCH   3   6
HETATM    6  C   UNL     1     378.663 152.725  62.956  1.00  0.00    -0.002 C 
HETATM    7  C   UNL     1     380.157 152.601  62.851  1.00  0.00     0.010 C 
HETATM    8  C   UNL     1     380.711 151.184  62.613  1.00  0.00    -0.014 C 
HETATM    9  C   UNL     1     380.502 150.345  63.871  1.00  0.00     0.005 C 
HETATM   10  C   UNL     1     379.829 150.460  61.584  1.00  0.00     0.009 C 
HETATM   11  C   UNL     1     379.075 149.832  63.800  1.00  0.00     0.005 C 
HETATM   12  C   UNL     1     378.565 150.186  62.411  1.00  0.00    -0.014 C 
HETATM   13  C   UNL     1     377.821 151.529  62.523  1.00  0.00     0.010 C 
ENDBRANCH   3   6
BRANCH   2  14
HETATM   14  O   UNL     1     377.591 155.085  61.713  1.00  0.00    -0.363 OA
ATOM     15  HO  UNL     1     377.406 155.976  61.439  1.00  0.00     0.213 HD
ENDBRANCH   2  14
BRANCH   2  16
HETATM   16  O   UNL     1     375.947 155.064  63.228  1.00  0.00    -0.363 OA
ATOM     17  HO  UNL     1     375.571 154.245  63.531  1.00  0.00     0.213 HD
ENDBRANCH   2  16
BRANCH   5  18
HETATM   18  O   UNL     1     378.094 153.783  66.180  1.00  0.00    -0.391 OA
ATOM     19  HO  UNL     1     377.156 153.911  66.089  1.00  0.00     0.210 HD
ENDBRANCH   5  18
BRANCH   1  20
HETATM   20  O   UNL     1     377.126 157.215  64.137  1.00  0.00    -0.386 OA
ATOM     21  HO  UNL     1     376.374 156.827  64.571  1.00  0.00     0.210 HD
ENDBRANCH   1  20
BRANCH   4  22
HETATM   22  O   UNL     1     380.319 155.952  64.427  1.00  0.00    -0.375 OA
ATOM     23  HO  UNL     1     380.722 156.500  65.090  1.00  0.00     0.211 HD
ENDBRANCH   4  22
BRANCH   4  24
HETATM   24  C   UNL     1     378.741 156.419  66.192  1.00  0.00     0.255 C 
HETATM   25  N   UNL     1     377.562 156.302  66.751  1.00  0.00    -0.367 N 
ATOM     26  HN2 UNL     1     376.827 155.730  66.334  1.00  0.00     0.159 HD
ATOM     27  HN1 UNL     1     377.408 156.774  67.642  1.00  0.00     0.159 HD
HETATM   28  O   UNL     1     379.619 157.103  66.690  1.00  0.00    -0.270 OA
ENDBRANCH   4  24
TORSDOF 7
ENDMDL
MODEL 8
REMARK VINA RESULT:      -6.6      1.699      2.987
REMARK  7 active torsions:
REMARK  status: ('A' for Active; 'I' for Inactive)
REMARK    1  A    between atoms: C_2  and  C_13 
REMARK    2  A    between atoms: O_3  and  C_8 
REMARK    3  A    between atoms: O_6  and  C_15 
REMARK    4  A    between atoms: C_9  and  O_16 
REMARK    5  A    between atoms: C_9  and  O_25 
REMARK    6  A    between atoms: C_15  and  C_28 
REMARK       I    between atoms: N_19  and  C_28 
REMARK    7  A    between atoms: O_23  and  C_27 
ROOT
HETATM    1  C   UNL     1     378.754 152.154  63.452  1.00  0.00     0.227 C 
HETATM    2  C   UNL     1     377.266 151.781  63.517  1.00  0.00     0.196 C 
HETATM    3  C   UNL     1     376.917 151.137  62.172  1.00  0.00     0.087 C 
HETATM    4  C   UNL     1     379.322 151.650  62.116  1.00  0.00     0.195 C 
HETATM    5  C   UNL     1     378.217 150.870  61.407  1.00  0.00     0.174 C 
ENDROOT
BRANCH   3   6
HETATM    6  C   UNL     1     375.874 151.779  61.262  1.00  0.00    -0.002 C 
HETATM    7  C   UNL     1     374.400 151.865  61.545  1.00  0.00     0.010 C 
HETATM    8  C   UNL     1     373.658 153.077  60.951  1.00  0.00    -0.014 C 
HETATM    9  C   UNL     1     374.103 154.344  61.678  1.00  0.00     0.005 C 
HETATM   10  C   UNL     1     374.157 153.326  59.520  1.00  0.00     0.009 C 
HETATM   11  C   UNL     1     375.399 154.774  61.016  1.00  0.00     0.005 C 
HETATM   12  C   UNL     1     375.559 153.894  59.784  1.00  0.00    -0.014 C 
HETATM   13  C   UNL     1     376.442 152.699  60.185  1.00  0.00     0.010 C 
ENDBRANCH   3   6
BRANCH   2  14
HETATM   14  O   UNL     1     376.555 152.967  63.788  1.00  0.00    -0.363 OA
ATOM     15  HO  UNL     1     376.136 152.852  64.634  1.00  0.00     0.213 HD
ENDBRANCH   2  14
BRANCH   2  16
HETATM   16  O   UNL     1     376.953 150.914  64.579  1.00  0.00    -0.363 OA
ATOM     17  HO  UNL     1     377.224 151.243  65.428  1.00  0.00     0.213 HD
ENDBRANCH   2  16
BRANCH   5  18
HETATM   18  O   UNL     1     378.421 149.466  61.305  1.00  0.00    -0.391 OA
ATOM     19  HO  UNL     1     377.584 149.021  61.376  1.00  0.00     0.210 HD
ENDBRANCH   5  18
BRANCH   1  20
HETATM   20  O   UNL     1     379.448 151.700  64.598  1.00  0.00    -0.386 OA
ATOM     21  HO  UNL     1     378.886 151.697  65.364  1.00  0.00     0.210 HD
ENDBRANCH   1  20
BRANCH   4  22
HETATM   22  O   UNL     1     379.646 152.817  61.344  1.00  0.00    -0.375 OA
ATOM     23  HO  UNL     1     380.505 152.662  60.969  1.00  0.00     0.211 HD
ENDBRANCH   4  22
BRANCH   4  24
HETATM   24  C   UNL     1     380.576 150.796  62.280  1.00  0.00     0.255 C 
HETATM   25  N   UNL     1     381.420 150.748  61.280  1.00  0.00    -0.367 N 
ATOM     26  HN2 UNL     1     381.270 151.290  60.428  1.00  0.00     0.159 HD
ATOM     27  HN1 UNL     1     382.258 150.177  61.390  1.00  0.00     0.159 HD
HETATM   28  O   UNL     1     380.755 150.148  63.298  1.00  0.00    -0.270 OA
ENDBRANCH   4  24
TORSDOF 7
ENDMDL
MODEL 9
REMARK VINA RESULT:      -6.6      2.832      4.188
REMARK  7 active torsions:
REMARK  status: ('A' for Active; 'I' for Inactive)
REMARK    1  A    between atoms: C_2  and  C_13 
REMARK    2  A    between atoms: O_3  and  C_8 
REMARK    3  A    between atoms: O_6  and  C_15 
REMARK    4  A    between atoms: C_9  and  O_16 
REMARK    5  A    between atoms: C_9  and  O_25 
REMARK    6  A    between atoms: C_15  and  C_28 
REMARK       I    between atoms: N_19  and  C_28 
REMARK    7  A    between atoms: O_23  and  C_27 
ROOT
HETATM    1  C   UNL     1     380.404 154.212  65.983  1.00  0.00     0.227 C 
HETATM    2  C   UNL     1     380.977 153.658  64.672  1.00  0.00     0.196 C 
HETATM    3  C   UNL     1     379.828 153.651  63.660  1.00  0.00     0.087 C 
HETATM    4  C   UNL     1     378.944 154.628  65.738  1.00  0.00     0.195 C 
HETATM    5  C   UNL     1     378.652 154.436  64.250  1.00  0.00     0.174 C 
ENDROOT
BRANCH   3   6
HETATM    6  C   UNL     1     379.350 152.335  63.051  1.00  0.00    -0.002 C 
HETATM    7  C   UNL     1     378.022 151.682  63.313  1.00  0.00     0.010 C 
HETATM    8  C   UNL     1     377.440 150.833  62.168  1.00  0.00    -0.014 C 
HETATM    9  C   UNL     1     377.018 151.752  61.025  1.00  0.00     0.005 C 
HETATM   10  C   UNL     1     378.563 150.005  61.526  1.00  0.00     0.009 C 
HETATM   11  C   UNL     1     378.275 152.028  60.221  1.00  0.00     0.005 C 
HETATM   12  C   UNL     1     379.342 151.090  60.769  1.00  0.00    -0.014 C 
HETATM   13  C   UNL     1     380.139 151.871  61.830  1.00  0.00     0.010 C 
ENDBRANCH   3   6
BRANCH   2  14
HETATM   14  O   UNL     1     381.501 152.382  64.957  1.00  0.00    -0.363 OA
ATOM     15  HO  UNL     1     382.437 152.423  64.796  1.00  0.00     0.213 HD
ENDBRANCH   2  14
BRANCH   2  16
HETATM   16  O   UNL     1     382.066 154.401  64.180  1.00  0.00    -0.363 OA
ATOM     17  HO  UNL     1     382.495 154.927  64.845  1.00  0.00     0.213 HD
ENDBRANCH   2  16
BRANCH   5  18
HETATM   18  O   UNL     1     378.461 155.628  63.500  1.00  0.00    -0.391 OA
ATOM     19  HO  UNL     1     377.612 155.598  63.073  1.00  0.00     0.210 HD
ENDBRANCH   5  18
BRANCH   1  20
HETATM   20  O   UNL     1     381.227 155.233  66.514  1.00  0.00    -0.386 OA
ATOM     21  HO  UNL     1     381.501 155.843  65.838  1.00  0.00     0.210 HD
ENDBRANCH   1  20
BRANCH   4  22
HETATM   22  O   UNL     1     378.128 153.725  66.499  1.00  0.00    -0.375 OA
ATOM     23  HO  UNL     1     377.989 152.961  65.953  1.00  0.00     0.211 HD
ENDBRANCH   4  22
BRANCH   4  24
HETATM   24  C   UNL     1     378.645 156.060  66.174  1.00  0.00     0.255 C 
HETATM   25  N   UNL     1     377.621 156.257  66.965  1.00  0.00    -0.367 N 
ATOM     26  HN2 UNL     1     377.057 155.481  67.314  1.00  0.00     0.159 HD
ATOM     27  HN1 UNL     1     377.422 157.214  67.256  1.00  0.00     0.159 HD
HETATM   28  O   UNL     1     379.319 156.987  65.756  1.00  0.00    -0.270 OA
ENDBRANCH   4  24
TORSDOF 7
ENDMDL
