MODEL 1
REMARK VINA RESULT:      -8.6      0.000      0.000
REMARK  7 active torsions:
REMARK  status: ('A' for Active; 'I' for Inactive)
REMARK    1  A    between atoms: C_2  and  N_5 
REMARK    2  A    between atoms: C_2  and  C_25 
REMARK    3  A    between atoms: N_5  and  C_38 
REMARK    4  A    between atoms: O_7  and  C_22 
REMARK    5  A    between atoms: C_13  and  N_35 
REMARK       I    between atoms: C_16  and  N_35 
REMARK    6  A    between atoms: C_16  and  C_40 
REMARK    7  A    between atoms: C_25  and  C_40 
ROOT
HETATM    1  C   UNL     1      46.306  31.467  10.714  1.00  0.00     0.027 C 
HETATM    2  C   UNL     1      46.497  32.132  13.143  1.00  0.00    -0.011 C 
HETATM    3  C   UNL     1      47.218  32.598  10.346  1.00  0.00     0.005 C 
HETATM    4  C   UNL     1      47.832  33.438  11.447  1.00  0.00     0.024 C 
HETATM    5  C   UNL     1      46.012  31.251  12.158  1.00  0.00    -0.029 C 
HETATM    6  C   UNL     1      47.220  33.432  12.867  1.00  0.00     0.063 C 
ENDROOT
BRANCH   6   7
HETATM    7  C   UNL     1      46.320  34.654  13.069  1.00  0.00     0.236 C 
HETATM    8  O   UNL     1      46.108  35.384  12.114  1.00  0.00    -0.272 OA
HETATM    9  N   UNL     1      45.720  34.953  14.286  1.00  0.00    -0.308 N 
ATOM     10  HN  UNL     1      46.306  35.367  15.012  1.00  0.00     0.170 HD
BRANCH   9  11
HETATM   11  C   UNL     1      44.401  34.735  14.582  1.00  0.00     0.179 C 
HETATM   12  C   UNL     1      44.023  33.525  15.391  1.00  0.00     0.290 C 
HETATM   13  N   UNL     1      42.752  33.481  15.863  1.00  0.00    -0.313 N 
HETATM   14  O   UNL     1      44.840  32.643  15.615  1.00  0.00    -0.264 OA
HETATM   15  C   UNL     1      41.879  34.538  15.671  1.00  0.00     0.148 C 
ATOM     16  HN  UNL     1      42.434  32.655  16.369  1.00  0.00     0.169 HD
HETATM   17  C   UNL     1      40.438  34.358  15.999  1.00  0.00     0.277 C 
HETATM   18  C   UNL     1      42.212  35.529  14.711  1.00  0.00     0.141 C 
HETATM   19  N   UNL     1      39.549  35.012  15.171  1.00  0.00    -0.318 N 
HETATM   20  O   UNL     1      40.125  34.270  17.205  1.00  0.00    -0.266 OA
HETATM   21  C   UNL     1      39.979  35.978  14.337  1.00  0.00     0.185 C 
ATOM     22  HN  UNL     1      38.560  34.764  15.190  1.00  0.00     0.169 HD
HETATM   23  N   UNL     1      41.254  36.363  14.233  1.00  0.00    -0.336 N 
ATOM     24  HN  UNL     1      41.499  37.256  13.808  1.00  0.00     0.168 HD
HETATM   25  N   UNL     1      43.468  35.600  14.191  1.00  0.00    -0.322 N 
ATOM     26  HN  UNL     1      43.695  36.317  13.501  1.00  0.00     0.169 HD
ENDBRANCH   9  11
ENDBRANCH   6   7
BRANCH   6  27
HETATM   27  C   UNL     1      48.363  33.565  13.916  1.00  0.00     0.068 C 
BRANCH  27  28
HETATM   28  C   UNL     1      48.356  32.657  15.144  1.00  0.00     0.062 C 
BRANCH  28  29
HETATM   29  N   UNL     1      48.358  33.129  16.525  1.00  0.00    -0.369 N 
ATOM     30  HN  UNL     1      48.997  32.641  17.151  1.00  0.00     0.165 HD
BRANCH  29  31
HETATM   31  C   UNL     1      47.606  34.162  17.116  1.00  0.00     0.031 C 
HETATM   32  C   UNL     1      46.624  33.823  18.090  1.00  0.00     0.032 C 
HETATM   33  C   UNL     1      45.547  34.559  18.535  1.00  0.00     0.039 C 
HETATM   34  C   UNL     1      45.140  35.875  18.244  1.00  0.00     0.071 C 
HETATM   35  C   UNL     1      45.949  36.838  17.528  1.00  0.00    -0.029 C 
HETATM   36  C   UNL     1      45.352  38.199  17.254  1.00  0.00     0.051 C 
HETATM   37  C   UNL     1      47.296  36.653  17.239  1.00  0.00     0.012 C 
HETATM   38  C   UNL     1      48.006  35.507  16.912  1.00  0.00     0.030 C 
BRANCH  34  39
HETATM   39  O   UNL     1      43.880  36.235  18.636  1.00  0.00    -0.360 OA
ATOM     40  HO  UNL     1      43.192  35.590  18.519  1.00  0.00     0.217 HD
ENDBRANCH  34  39
ENDBRANCH  29  31
ENDBRANCH  28  29
ENDBRANCH  27  28
ENDBRANCH   6  27
TORSDOF 7
ENDMDL
MODEL 2
REMARK VINA RESULT:      -8.6      2.586      6.553
REMARK  7 active torsions:
REMARK  status: ('A' for Active; 'I' for Inactive)
REMARK    1  A    between atoms: C_2  and  N_5 
REMARK    2  A    between atoms: C_2  and  C_25 
REMARK    3  A    between atoms: N_5  and  C_38 
REMARK    4  A    between atoms: O_7  and  C_22 
REMARK    5  A    between atoms: C_13  and  N_35 
REMARK       I    between atoms: C_16  and  N_35 
REMARK    6  A    between atoms: C_16  and  C_40 
REMARK    7  A    between atoms: C_25  and  C_40 
ROOT
HETATM    1  C   UNL     1      47.354  37.589  18.355  1.00  0.00     0.027 C 
HETATM    2  C   UNL     1      45.285  37.622  16.907  1.00  0.00    -0.011 C 
HETATM    3  C   UNL     1      47.762  36.294  17.722  1.00  0.00     0.005 C 
HETATM    4  C   UNL     1      46.924  35.730  16.593  1.00  0.00     0.024 C 
HETATM    5  C   UNL     1      46.107  38.242  17.867  1.00  0.00    -0.029 C 
HETATM    6  C   UNL     1      45.472  36.216  16.380  1.00  0.00     0.063 C 
ENDROOT
BRANCH   6   7
HETATM    7  C   UNL     1      44.478  35.227  16.996  1.00  0.00     0.236 C 
HETATM    8  O   UNL     1      43.329  35.596  17.178  1.00  0.00    -0.272 OA
HETATM    9  N   UNL     1      44.825  33.925  17.335  1.00  0.00    -0.308 N 
ATOM     10  HN  UNL     1      45.365  33.788  18.190  1.00  0.00     0.170 HD
BRANCH   9  11
HETATM   11  C   UNL     1      44.494  32.813  16.608  1.00  0.00     0.179 C 
HETATM   12  C   UNL     1      45.289  31.551  16.800  1.00  0.00     0.290 C 
HETATM   13  N   UNL     1      44.779  30.421  16.249  1.00  0.00    -0.313 N 
HETATM   14  O   UNL     1      46.331  31.560  17.438  1.00  0.00    -0.264 OA
HETATM   15  C   UNL     1      43.550  30.426  15.612  1.00  0.00     0.148 C 
ATOM     16  HN  UNL     1      45.310  29.552  16.305  1.00  0.00     0.169 HD
HETATM   17  C   UNL     1      43.135  29.231  14.827  1.00  0.00     0.277 C 
HETATM   18  C   UNL     1      42.972  31.672  15.260  1.00  0.00     0.141 C 
HETATM   19  N   UNL     1      42.404  29.489  13.685  1.00  0.00    -0.318 N 
HETATM   20  O   UNL     1      42.845  28.193  15.459  1.00  0.00    -0.266 OA
HETATM   21  C   UNL     1      41.856  30.703  13.487  1.00  0.00     0.185 C 
ATOM     22  HN  UNL     1      42.277  28.756  12.987  1.00  0.00     0.169 HD
HETATM   23  N   UNL     1      41.977  31.725  14.337  1.00  0.00    -0.336 N 
ATOM     24  HN  UNL     1      41.341  32.521  14.295  1.00  0.00     0.168 HD
HETATM   25  N   UNL     1      43.462  32.836  15.769  1.00  0.00    -0.322 N 
ATOM     26  HN  UNL     1      43.037  33.726  15.507  1.00  0.00     0.169 HD
ENDBRANCH   9  11
ENDBRANCH   6   7
BRANCH   6  27
HETATM   27  C   UNL     1      45.160  36.241  14.855  1.00  0.00     0.068 C 
BRANCH  27  28
HETATM   28  C   UNL     1      45.890  35.267  13.931  1.00  0.00     0.062 C 
BRANCH  28  29
HETATM   29  N   UNL     1      45.302  34.051  13.378  1.00  0.00    -0.369 N 
ATOM     30  HN  UNL     1      44.347  33.853  13.678  1.00  0.00     0.165 HD
BRANCH  29  31
HETATM   31  C   UNL     1      45.861  33.112  12.492  1.00  0.00     0.031 C 
HETATM   32  C   UNL     1      47.030  33.471  11.760  1.00  0.00     0.032 C 
HETATM   33  C   UNL     1      47.544  32.911  10.611  1.00  0.00     0.039 C 
HETATM   34  C   UNL     1      47.143  31.784   9.868  1.00  0.00     0.071 C 
HETATM   35  C   UNL     1      46.167  30.816  10.321  1.00  0.00    -0.029 C 
HETATM   36  C   UNL     1      45.809  29.684   9.387  1.00  0.00     0.051 C 
HETATM   37  C   UNL     1      45.678  30.761  11.621  1.00  0.00     0.012 C 
HETATM   38  C   UNL     1      45.400  31.771  12.530  1.00  0.00     0.030 C 
BRANCH  34  39
HETATM   39  O   UNL     1      47.693  31.634   8.624  1.00  0.00    -0.360 OA
ATOM     40  HO  UNL     1      47.505  30.823   8.165  1.00  0.00     0.217 HD
ENDBRANCH  34  39
ENDBRANCH  29  31
ENDBRANCH  28  29
ENDBRANCH  27  28
ENDBRANCH   6  27
TORSDOF 7
ENDMDL
MODEL 3
REMARK VINA RESULT:      -8.5      3.338      5.190
REMARK  7 active torsions:
REMARK  status: ('A' for Active; 'I' for Inactive)
REMARK    1  A    between atoms: C_2  and  N_5 
REMARK    2  A    between atoms: C_2  and  C_25 
REMARK    3  A    between atoms: N_5  and  C_38 
REMARK    4  A    between atoms: O_7  and  C_22 
REMARK    5  A    between atoms: C_13  and  N_35 
REMARK       I    between atoms: C_16  and  N_35 
REMARK    6  A    between atoms: C_16  and  C_40 
REMARK    7  A    between atoms: C_25  and  C_40 
ROOT
HETATM    1  C   UNL     1      46.831  33.527  15.791  1.00  0.00     0.027 C 
HETATM    2  C   UNL     1      44.910  34.471  17.132  1.00  0.00    -0.011 C 
HETATM    3  C   UNL     1      46.661  34.632  14.793  1.00  0.00     0.005 C 
HETATM    4  C   UNL     1      45.633  35.714  15.059  1.00  0.00     0.024 C 
HETATM    5  C   UNL     1      45.940  33.524  16.985  1.00  0.00    -0.029 C 
HETATM    6  C   UNL     1      44.496  35.476  16.080  1.00  0.00     0.063 C 
ENDROOT
BRANCH   6   7
HETATM    7  C   UNL     1      43.206  35.070  15.363  1.00  0.00     0.236 C 
HETATM    8  O   UNL     1      42.904  35.654  14.334  1.00  0.00    -0.272 OA
HETATM    9  N   UNL     1      42.378  34.053  15.822  1.00  0.00    -0.308 N 
ATOM     10  HN  UNL     1      41.774  34.260  16.618  1.00  0.00     0.170 HD
BRANCH   9  11
HETATM   11  C   UNL     1      42.312  32.795  15.285  1.00  0.00     0.179 C 
HETATM   12  C   UNL     1      41.125  31.927  15.598  1.00  0.00     0.290 C 
HETATM   13  N   UNL     1      40.985  30.798  14.859  1.00  0.00    -0.313 N 
HETATM   14  O   UNL     1      40.328  32.248  16.468  1.00  0.00    -0.264 OA
HETATM   15  C   UNL     1      41.851  30.510  13.819  1.00  0.00     0.148 C 
ATOM     16  HN  UNL     1      40.226  30.150  15.073  1.00  0.00     0.169 HD
HETATM   17  C   UNL     1      41.804  29.163  13.187  1.00  0.00     0.277 C 
HETATM   18  C   UNL     1      43.070  31.231  13.730  1.00  0.00     0.141 C 
HETATM   19  N   UNL     1      43.018  28.651  12.776  1.00  0.00    -0.318 N 
HETATM   20  O   UNL     1      40.809  28.887  12.484  1.00  0.00    -0.266 OA
HETATM   21  C   UNL     1      44.097  29.451  12.680  1.00  0.00     0.185 C 
ATOM     22  HN  UNL     1      43.099  27.661  12.545  1.00  0.00     0.169 HD
HETATM   23  N   UNL     1      44.090  30.754  12.972  1.00  0.00    -0.336 N 
ATOM     24  HN  UNL     1      44.828  31.372  12.636  1.00  0.00     0.168 HD
HETATM   25  N   UNL     1      43.268  32.358  14.468  1.00  0.00    -0.322 N 
ATOM     26  HN  UNL     1      44.149  32.867  14.396  1.00  0.00     0.169 HD
ENDBRANCH   9  11
ENDBRANCH   6   7
BRANCH   6  27
HETATM   27  C   UNL     1      44.177  36.815  16.808  1.00  0.00     0.068 C 
BRANCH  27  28
HETATM   28  C   UNL     1      45.270  37.876  16.927  1.00  0.00     0.062 C 
BRANCH  28  29
HETATM   29  N   UNL     1      46.052  38.129  18.132  1.00  0.00    -0.369 N 
ATOM     30  HN  UNL     1      45.610  38.742  18.818  1.00  0.00     0.165 HD
BRANCH  29  31
HETATM   31  C   UNL     1      47.327  37.650  18.487  1.00  0.00     0.031 C 
HETATM   32  C   UNL     1      47.891  38.057  19.730  1.00  0.00     0.032 C 
HETATM   33  C   UNL     1      49.207  38.036  20.138  1.00  0.00     0.039 C 
HETATM   34  C   UNL     1      50.365  37.538  19.510  1.00  0.00     0.071 C 
HETATM   35  C   UNL     1      50.356  36.712  18.322  1.00  0.00    -0.029 C 
HETATM   36  C   UNL     1      51.686  36.293  17.741  1.00  0.00     0.051 C 
HETATM   37  C   UNL     1      49.208  36.135  17.791  1.00  0.00     0.012 C 
HETATM   38  C   UNL     1      47.903  36.601  17.726  1.00  0.00     0.030 C 
BRANCH  34  39
HETATM   39  O   UNL     1      51.568  37.902  20.050  1.00  0.00    -0.360 OA
ATOM     40  HO  UNL     1      52.175  37.202  20.261  1.00  0.00     0.217 HD
ENDBRANCH  34  39
ENDBRANCH  29  31
ENDBRANCH  28  29
ENDBRANCH  27  28
ENDBRANCH   6  27
TORSDOF 7
ENDMDL
MODEL 4
REMARK VINA RESULT:      -8.4      1.939      5.991
REMARK  7 active torsions:
REMARK  status: ('A' for Active; 'I' for Inactive)
REMARK    1  A    between atoms: C_2  and  N_5 
REMARK    2  A    between atoms: C_2  and  C_25 
REMARK    3  A    between atoms: N_5  and  C_38 
REMARK    4  A    between atoms: O_7  and  C_22 
REMARK    5  A    between atoms: C_13  and  N_35 
REMARK       I    between atoms: C_16  and  N_35 
REMARK    6  A    between atoms: C_16  and  C_40 
REMARK    7  A    between atoms: C_25  and  C_40 
ROOT
HETATM    1  C   UNL     1      46.625  37.952  18.349  1.00  0.00     0.027 C 
HETATM    2  C   UNL     1      45.452  36.952  16.349  1.00  0.00    -0.011 C 
HETATM    3  C   UNL     1      47.426  36.694  18.493  1.00  0.00     0.005 C 
HETATM    4  C   UNL     1      47.266  35.596  17.460  1.00  0.00     0.024 C 
HETATM    5  C   UNL     1      45.669  38.042  17.211  1.00  0.00    -0.029 C 
HETATM    6  C   UNL     1      46.023  35.564  16.542  1.00  0.00     0.063 C 
ENDROOT
BRANCH   6   7
HETATM    7  C   UNL     1      44.984  34.577  17.079  1.00  0.00     0.236 C 
HETATM    8  O   UNL     1      44.752  34.571  18.277  1.00  0.00    -0.272 OA
HETATM    9  N   UNL     1      44.281  33.703  16.258  1.00  0.00    -0.308 N 
ATOM     10  HN  UNL     1      44.771  32.876  15.919  1.00  0.00     0.170 HD
BRANCH   9  11
HETATM   11  C   UNL     1      42.977  33.871  15.872  1.00  0.00     0.179 C 
HETATM   12  C   UNL     1      42.069  32.674  15.821  1.00  0.00     0.290 C 
HETATM   13  N   UNL     1      40.744  32.922  15.672  1.00  0.00    -0.313 N 
HETATM   14  O   UNL     1      42.520  31.543  15.927  1.00  0.00    -0.264 OA
HETATM   15  C   UNL     1      40.255  34.216  15.647  1.00  0.00     0.148 C 
ATOM     16  HN  UNL     1      40.095  32.140  15.576  1.00  0.00     0.169 HD
HETATM   17  C   UNL     1      38.838  34.450  15.254  1.00  0.00     0.277 C 
HETATM   18  C   UNL     1      41.169  35.285  15.461  1.00  0.00     0.141 C 
HETATM   19  N   UNL     1      38.598  35.602  14.534  1.00  0.00    -0.318 N 
HETATM   20  O   UNL     1      37.948  34.089  16.053  1.00  0.00    -0.266 OA
HETATM   21  C   UNL     1      39.528  36.574  14.475  1.00  0.00     0.185 C 
ATOM     22  HN  UNL     1      37.712  35.719  14.043  1.00  0.00     0.169 HD
HETATM   23  N   UNL     1      40.720  36.506  15.074  1.00  0.00    -0.336 N 
ATOM     24  HN  UNL     1      41.275  37.346  15.235  1.00  0.00     0.168 HD
HETATM   25  N   UNL     1      42.510  35.082  15.578  1.00  0.00    -0.322 N 
ATOM     26  HN  UNL     1      43.157  35.859  15.441  1.00  0.00     0.169 HD
ENDBRANCH   9  11
ENDBRANCH   6   7
BRANCH   6  27
HETATM   27  C   UNL     1      46.438  35.027  15.141  1.00  0.00     0.068 C 
BRANCH  27  28
HETATM   28  C   UNL     1      45.712  35.547  13.900  1.00  0.00     0.062 C 
BRANCH  28  29
HETATM   29  N   UNL     1      46.100  35.245  12.526  1.00  0.00    -0.369 N 
ATOM     30  HN  UNL     1      45.981  36.010  11.862  1.00  0.00     0.165 HD
BRANCH  29  31
HETATM   31  C   UNL     1      46.615  34.052  11.985  1.00  0.00     0.031 C 
HETATM   32  C   UNL     1      47.911  34.071  11.394  1.00  0.00     0.032 C 
HETATM   33  C   UNL     1      48.476  33.181  10.506  1.00  0.00     0.039 C 
HETATM   34  C   UNL     1      48.002  31.962   9.987  1.00  0.00     0.071 C 
HETATM   35  C   UNL     1      46.835  31.265  10.483  1.00  0.00    -0.029 C 
HETATM   36  C   UNL     1      46.427  29.986   9.789  1.00  0.00     0.051 C 
HETATM   37  C   UNL     1      46.177  31.599  11.661  1.00  0.00     0.012 C 
HETATM   38  C   UNL     1      45.947  32.831  12.255  1.00  0.00     0.030 C 
BRANCH  34  39
HETATM   39  O   UNL     1      48.678  31.438   8.919  1.00  0.00    -0.360 OA
ATOM     40  HO  UNL     1      48.174  31.266   8.132  1.00  0.00     0.217 HD
ENDBRANCH  34  39
ENDBRANCH  29  31
ENDBRANCH  28  29
ENDBRANCH  27  28
ENDBRANCH   6  27
TORSDOF 7
ENDMDL
MODEL 5
REMARK VINA RESULT:      -8.4      2.076      2.536
REMARK  7 active torsions:
REMARK  status: ('A' for Active; 'I' for Inactive)
REMARK    1  A    between atoms: C_2  and  N_5 
REMARK    2  A    between atoms: C_2  and  C_25 
REMARK    3  A    between atoms: N_5  and  C_38 
REMARK    4  A    between atoms: O_7  and  C_22 
REMARK    5  A    between atoms: C_13  and  N_35 
REMARK       I    between atoms: C_16  and  N_35 
REMARK    6  A    between atoms: C_16  and  C_40 
REMARK    7  A    between atoms: C_25  and  C_40 
ROOT
HETATM    1  C   UNL     1      45.860  30.449  11.799  1.00  0.00     0.027 C 
HETATM    2  C   UNL     1      47.216  30.034  13.888  1.00  0.00    -0.011 C 
HETATM    3  C   UNL     1      45.894  31.919  12.083  1.00  0.00     0.005 C 
HETATM    4  C   UNL     1      46.698  32.423  13.265  1.00  0.00     0.024 C 
HETATM    5  C   UNL     1      46.590  29.542  12.728  1.00  0.00    -0.029 C 
HETATM    6  C   UNL     1      47.111  31.455  14.397  1.00  0.00     0.063 C 
ENDROOT
BRANCH   6   7
HETATM    7  C   UNL     1      46.154  31.578  15.585  1.00  0.00     0.236 C 
HETATM    8  O   UNL     1      46.606  31.933  16.662  1.00  0.00    -0.272 OA
HETATM    9  N   UNL     1      44.791  31.324  15.484  1.00  0.00    -0.308 N 
ATOM     10  HN  UNL     1      44.495  30.348  15.451  1.00  0.00     0.170 HD
BRANCH   9  11
HETATM   11  C   UNL     1      43.818  32.285  15.425  1.00  0.00     0.179 C 
HETATM   12  C   UNL     1      42.669  32.106  14.471  1.00  0.00     0.290 C 
HETATM   13  N   UNL     1      41.617  32.950  14.622  1.00  0.00    -0.313 N 
HETATM   14  O   UNL     1      42.693  31.228  13.622  1.00  0.00    -0.264 OA
HETATM   15  C   UNL     1      41.579  33.872  15.652  1.00  0.00     0.148 C 
ATOM     16  HN  UNL     1      40.839  32.903  13.962  1.00  0.00     0.169 HD
HETATM   17  C   UNL     1      40.527  34.925  15.645  1.00  0.00     0.277 C 
HETATM   18  C   UNL     1      42.777  34.151  16.359  1.00  0.00     0.141 C 
HETATM   19  N   UNL     1      40.909  36.158  16.134  1.00  0.00    -0.318 N 
HETATM   20  O   UNL     1      39.350  34.570  15.871  1.00  0.00    -0.266 OA
HETATM   21  C   UNL     1      42.047  36.287  16.841  1.00  0.00     0.185 C 
ATOM     22  HN  UNL     1      40.326  36.977  15.958  1.00  0.00     0.169 HD
HETATM   23  N   UNL     1      42.879  35.277  17.111  1.00  0.00    -0.336 N 
ATOM     24  HN  UNL     1      43.568  35.350  17.858  1.00  0.00     0.168 HD
HETATM   25  N   UNL     1      43.868  33.347  16.225  1.00  0.00    -0.322 N 
ATOM     26  HN  UNL     1      44.724  33.559  16.739  1.00  0.00     0.169 HD
ENDBRANCH   9  11
ENDBRANCH   6   7
BRANCH   6  27
HETATM   27  C   UNL     1      48.513  31.867  14.934  1.00  0.00     0.068 C 
BRANCH  27  28
HETATM   28  C   UNL     1      49.137  33.177  14.456  1.00  0.00     0.062 C 
BRANCH  28  29
HETATM   29  N   UNL     1      49.338  34.354  15.295  1.00  0.00    -0.369 N 
ATOM     30  HN  UNL     1      50.291  34.718  15.315  1.00  0.00     0.165 HD
BRANCH  29  31
HETATM   31  C   UNL     1      48.408  35.059  16.082  1.00  0.00     0.031 C 
HETATM   32  C   UNL     1      47.060  35.151  15.631  1.00  0.00     0.032 C 
HETATM   33  C   UNL     1      46.078  36.046  15.998  1.00  0.00     0.039 C 
HETATM   34  C   UNL     1      46.067  37.064  16.970  1.00  0.00     0.071 C 
HETATM   35  C   UNL     1      47.091  37.238  17.977  1.00  0.00    -0.029 C 
HETATM   36  C   UNL     1      46.960  38.409  18.924  1.00  0.00     0.051 C 
HETATM   37  C   UNL     1      48.082  36.301  18.243  1.00  0.00     0.012 C 
HETATM   38  C   UNL     1      48.771  35.443  17.398  1.00  0.00     0.030 C 
BRANCH  34  39
HETATM   39  O   UNL     1      45.034  37.960  16.917  1.00  0.00    -0.360 OA
ATOM     40  HO  UNL     1      44.164  37.625  17.101  1.00  0.00     0.217 HD
ENDBRANCH  34  39
ENDBRANCH  29  31
ENDBRANCH  28  29
ENDBRANCH  27  28
ENDBRANCH   6  27
TORSDOF 7
ENDMDL
MODEL 6
REMARK VINA RESULT:      -8.1      2.276      6.075
REMARK  7 active torsions:
REMARK  status: ('A' for Active; 'I' for Inactive)
REMARK    1  A    between atoms: C_2  and  N_5 
REMARK    2  A    between atoms: C_2  and  C_25 
REMARK    3  A    between atoms: N_5  and  C_38 
REMARK    4  A    between atoms: O_7  and  C_22 
REMARK    5  A    between atoms: C_13  and  N_35 
REMARK       I    between atoms: C_16  and  N_35 
REMARK    6  A    between atoms: C_16  and  C_40 
REMARK    7  A    between atoms: C_25  and  C_40 
ROOT
HETATM    1  C   UNL     1      48.130  37.104  18.338  1.00  0.00     0.027 C 
HETATM    2  C   UNL     1      46.025  36.687  17.007  1.00  0.00    -0.011 C 
HETATM    3  C   UNL     1      48.847  36.090  17.500  1.00  0.00     0.005 C 
HETATM    4  C   UNL     1      48.118  35.447  16.337  1.00  0.00     0.024 C 
HETATM    5  C   UNL     1      46.707  37.399  18.010  1.00  0.00    -0.029 C 
HETATM    6  C   UNL     1      46.574  35.487  16.266  1.00  0.00     0.063 C 
ENDROOT
BRANCH   6   7
HETATM    7  C   UNL     1      45.978  34.170  16.769  1.00  0.00     0.236 C 
HETATM    8  O   UNL     1      45.007  34.216  17.507  1.00  0.00    -0.272 OA
HETATM    9  N   UNL     1      46.484  32.928  16.407  1.00  0.00    -0.308 N 
ATOM     10  HN  UNL     1      47.344  32.617  16.860  1.00  0.00     0.170 HD
BRANCH   9  11
HETATM   11  C   UNL     1      45.913  32.089  15.486  1.00  0.00     0.179 C 
HETATM   12  C   UNL     1      44.991  31.001  15.961  1.00  0.00     0.290 C 
HETATM   13  N   UNL     1      44.266  30.360  15.009  1.00  0.00    -0.313 N 
HETATM   14  O   UNL     1      44.899  30.734  17.150  1.00  0.00    -0.264 OA
HETATM   15  C   UNL     1      44.323  30.748  13.683  1.00  0.00     0.148 C 
ATOM     16  HN  UNL     1      43.669  29.577  15.277  1.00  0.00     0.169 HD
HETATM   17  C   UNL     1      43.698  29.881  12.645  1.00  0.00     0.277 C 
HETATM   18  C   UNL     1      45.374  31.607  13.269  1.00  0.00     0.141 C 
HETATM   19  N   UNL     1      44.355  29.830  11.432  1.00  0.00    -0.318 N 
HETATM   20  O   UNL     1      42.451  29.823  12.613  1.00  0.00    -0.266 OA
HETATM   21  C   UNL     1      45.302  30.738  11.132  1.00  0.00     0.185 C 
ATOM     22  HN  UNL     1      44.122  29.100  10.760  1.00  0.00     0.169 HD
HETATM   23  N   UNL     1      45.683  31.721  11.952  1.00  0.00    -0.336 N 
ATOM     24  HN  UNL     1      46.189  32.533  11.600  1.00  0.00     0.168 HD
HETATM   25  N   UNL     1      46.144  32.256  14.186  1.00  0.00    -0.322 N 
ATOM     26  HN  UNL     1      46.897  32.870  13.876  1.00  0.00     0.169 HD
ENDBRANCH   9  11
ENDBRANCH   6   7
BRANCH   6  27
HETATM   27  C   UNL     1      46.136  35.613  14.777  1.00  0.00     0.068 C 
BRANCH  27  28
HETATM   28  C   UNL     1      44.653  35.790  14.451  1.00  0.00     0.062 C 
BRANCH  28  29
HETATM   29  N   UNL     1      43.614  34.816  14.764  1.00  0.00    -0.369 N 
ATOM     30  HN  UNL     1      43.915  33.841  14.764  1.00  0.00     0.165 HD
BRANCH  29  31
HETATM   31  C   UNL     1      42.255  35.025  15.067  1.00  0.00     0.031 C 
HETATM   32  C   UNL     1      41.663  34.269  16.119  1.00  0.00     0.032 C 
HETATM   33  C   UNL     1      40.331  34.020  16.369  1.00  0.00     0.039 C 
HETATM   34  C   UNL     1      39.164  34.491  15.738  1.00  0.00     0.071 C 
HETATM   35  C   UNL     1      39.141  35.564  14.767  1.00  0.00    -0.029 C 
HETATM   36  C   UNL     1      37.813  35.926  14.144  1.00  0.00     0.051 C 
HETATM   37  C   UNL     1      40.224  36.397  14.509  1.00  0.00     0.012 C 
HETATM   38  C   UNL     1      41.586  36.136  14.493  1.00  0.00     0.030 C 
BRANCH  34  39
HETATM   39  O   UNL     1      37.993  33.855  16.045  1.00  0.00    -0.360 OA
ATOM     40  HO  UNL     1      38.058  33.060  16.562  1.00  0.00     0.217 HD
ENDBRANCH  34  39
ENDBRANCH  29  31
ENDBRANCH  28  29
ENDBRANCH  27  28
ENDBRANCH   6  27
TORSDOF 7
ENDMDL
MODEL 7
REMARK VINA RESULT:      -8.1      2.329      5.912
REMARK  7 active torsions:
REMARK  status: ('A' for Active; 'I' for Inactive)
REMARK    1  A    between atoms: C_2  and  N_5 
REMARK    2  A    between atoms: C_2  and  C_25 
REMARK    3  A    between atoms: N_5  and  C_38 
REMARK    4  A    between atoms: O_7  and  C_22 
REMARK    5  A    between atoms: C_13  and  N_35 
REMARK       I    between atoms: C_16  and  N_35 
REMARK    6  A    between atoms: C_16  and  C_40 
REMARK    7  A    between atoms: C_25  and  C_40 
ROOT
HETATM    1  C   UNL     1      39.340  35.542  14.708  1.00  0.00     0.027 C 
HETATM    2  C   UNL     1      41.823  35.967  14.880  1.00  0.00    -0.011 C 
HETATM    3  C   UNL     1      39.428  34.617  15.883  1.00  0.00     0.005 C 
HETATM    4  C   UNL     1      40.755  34.462  16.600  1.00  0.00     0.024 C 
HETATM    5  C   UNL     1      40.583  36.236  14.271  1.00  0.00    -0.029 C 
HETATM    6  C   UNL     1      42.071  34.884  15.906  1.00  0.00     0.063 C 
ENDROOT
BRANCH   6   7
HETATM    7  C   UNL     1      42.777  33.665  15.307  1.00  0.00     0.236 C 
HETATM    8  O   UNL     1      42.169  32.979  14.502  1.00  0.00    -0.272 OA
HETATM    9  N   UNL     1      44.084  33.320  15.627  1.00  0.00    -0.308 N 
ATOM     10  HN  UNL     1      44.247  32.869  16.528  1.00  0.00     0.170 HD
BRANCH   9  11
HETATM   11  C   UNL     1      45.171  33.540  14.822  1.00  0.00     0.179 C 
HETATM   12  C   UNL     1      46.483  32.897  15.173  1.00  0.00     0.290 C 
HETATM   13  N   UNL     1      47.455  32.942  14.227  1.00  0.00    -0.313 N 
HETATM   14  O   UNL     1      46.642  32.350  16.255  1.00  0.00    -0.264 OA
HETATM   15  C   UNL     1      47.214  33.486  12.978  1.00  0.00     0.148 C 
ATOM     16  HN  UNL     1      48.380  32.568  14.441  1.00  0.00     0.169 HD
HETATM   17  C   UNL     1      48.360  33.725  12.057  1.00  0.00     0.277 C 
HETATM   18  C   UNL     1      46.052  34.279  12.794  1.00  0.00     0.141 C 
HETATM   19  N   UNL     1      48.266  34.850  11.263  1.00  0.00    -0.318 N 
HETATM   20  O   UNL     1      48.918  32.726  11.555  1.00  0.00    -0.266 OA
HETATM   21  C   UNL     1      47.090  35.489  11.124  1.00  0.00     0.185 C 
ATOM     22  HN  UNL     1      49.093  35.200  10.779  1.00  0.00     0.169 HD
HETATM   23  N   UNL     1      45.958  35.113  11.727  1.00  0.00    -0.336 N 
ATOM     24  HN  UNL     1      45.052  35.442  11.395  1.00  0.00     0.168 HD
HETATM   25  N   UNL     1      45.059  34.285  13.725  1.00  0.00    -0.322 N 
ATOM     26  HN  UNL     1      44.228  34.860  13.581  1.00  0.00     0.169 HD
ENDBRANCH   9  11
ENDBRANCH   6   7
BRANCH   6  27
HETATM   27  C   UNL     1      43.047  35.462  16.973  1.00  0.00     0.068 C 
BRANCH  27  28
HETATM   28  C   UNL     1      43.829  36.735  16.653  1.00  0.00     0.062 C 
BRANCH  28  29
HETATM   29  N   UNL     1      45.266  36.783  16.402  1.00  0.00    -0.369 N 
ATOM     30  HN  UNL     1      45.536  36.791  15.418  1.00  0.00     0.165 HD
BRANCH  29  31
HETATM   31  C   UNL     1      46.332  36.819  17.319  1.00  0.00     0.031 C 
HETATM   32  C   UNL     1      46.110  37.389  18.606  1.00  0.00     0.032 C 
HETATM   33  C   UNL     1      47.027  37.864  19.519  1.00  0.00     0.039 C 
HETATM   34  C   UNL     1      48.435  37.855  19.509  1.00  0.00     0.071 C 
HETATM   35  C   UNL     1      49.238  37.109  18.565  1.00  0.00    -0.029 C 
HETATM   36  C   UNL     1      50.740  37.238  18.657  1.00  0.00     0.051 C 
HETATM   37  C   UNL     1      48.724  36.147  17.703  1.00  0.00     0.012 C 
HETATM   38  C   UNL     1      47.510  36.082  17.035  1.00  0.00     0.030 C 
BRANCH  34  39
HETATM   39  O   UNL     1      49.065  38.640  20.435  1.00  0.00    -0.360 OA
ATOM     40  HO  UNL     1      49.627  38.200  21.063  1.00  0.00     0.217 HD
ENDBRANCH  34  39
ENDBRANCH  29  31
ENDBRANCH  28  29
ENDBRANCH  27  28
ENDBRANCH   6  27
TORSDOF 7
ENDMDL
MODEL 8
REMARK VINA RESULT:      -8.1      2.550      7.526
REMARK  7 active torsions:
REMARK  status: ('A' for Active; 'I' for Inactive)
REMARK    1  A    between atoms: C_2  and  N_5 
REMARK    2  A    between atoms: C_2  and  C_25 
REMARK    3  A    between atoms: N_5  and  C_38 
REMARK    4  A    between atoms: O_7  and  C_22 
REMARK    5  A    between atoms: C_13  and  N_35 
REMARK       I    between atoms: C_16  and  N_35 
REMARK    6  A    between atoms: C_16  and  C_40 
REMARK    7  A    between atoms: C_25  and  C_40 
ROOT
HETATM    1  C   UNL     1      41.813  33.109  15.573  1.00  0.00     0.027 C 
HETATM    2  C   UNL     1      44.153  34.026  15.328  1.00  0.00    -0.011 C 
HETATM    3  C   UNL     1      41.268  34.500  15.456  1.00  0.00     0.005 C 
HETATM    4  C   UNL     1      42.223  35.644  15.179  1.00  0.00     0.024 C 
HETATM    5  C   UNL     1      43.286  32.925  15.454  1.00  0.00    -0.029 C 
HETATM    6  C   UNL     1      43.737  35.477  15.439  1.00  0.00     0.063 C 
ENDROOT
BRANCH   6   7
HETATM    7  C   UNL     1      44.122  36.090  16.788  1.00  0.00     0.236 C 
HETATM    8  O   UNL     1      43.678  35.583  17.805  1.00  0.00    -0.272 OA
HETATM    9  N   UNL     1      44.969  37.186  16.902  1.00  0.00    -0.308 N 
ATOM     10  HN  UNL     1      44.584  38.106  16.686  1.00  0.00     0.170 HD
BRANCH   9  11
HETATM   11  C   UNL     1      46.283  37.122  17.284  1.00  0.00     0.179 C 
HETATM   12  C   UNL     1      46.801  38.113  18.290  1.00  0.00     0.290 C 
HETATM   13  N   UNL     1      48.027  37.861  18.814  1.00  0.00    -0.313 N 
HETATM   14  O   UNL     1      46.130  39.080  18.618  1.00  0.00    -0.264 OA
HETATM   15  C   UNL     1      48.722  36.709  18.492  1.00  0.00     0.148 C 
ATOM     16  HN  UNL     1      48.444  38.534  19.458  1.00  0.00     0.169 HD
HETATM   17  C   UNL     1      50.148  36.583  18.904  1.00  0.00     0.277 C 
HETATM   18  C   UNL     1      48.295  35.947  17.374  1.00  0.00     0.141 C 
HETATM   19  N   UNL     1      50.970  35.914  18.019  1.00  0.00    -0.318 N 
HETATM   20  O   UNL     1      50.389  36.432  20.120  1.00  0.00    -0.266 OA
HETATM   21  C   UNL     1      50.442  35.175  17.025  1.00  0.00     0.185 C 
ATOM     22  HN  UNL     1      51.982  35.980  18.119  1.00  0.00     0.169 HD
HETATM   23  N   UNL     1      49.131  35.039  16.809  1.00  0.00    -0.336 N 
ATOM     24  HN  UNL     1      48.769  34.276  16.237  1.00  0.00     0.168 HD
HETATM   25  N   UNL     1      47.083  36.176  16.798  1.00  0.00    -0.322 N 
ATOM     26  HN  UNL     1      46.787  35.621  15.994  1.00  0.00     0.169 HD
ENDBRANCH   9  11
ENDBRANCH   6   7
BRANCH   6  27
HETATM   27  C   UNL     1      44.531  36.276  14.364  1.00  0.00     0.068 C 
BRANCH  27  28
HETATM   28  C   UNL     1      45.047  35.546  13.124  1.00  0.00     0.062 C 
BRANCH  28  29
HETATM   29  N   UNL     1      46.366  34.933  13.013  1.00  0.00    -0.369 N 
ATOM     30  HN  UNL     1      47.109  35.400  13.532  1.00  0.00     0.165 HD
BRANCH  29  31
HETATM   31  C   UNL     1      46.761  33.790  12.293  1.00  0.00     0.031 C 
HETATM   32  C   UNL     1      48.075  33.746  11.745  1.00  0.00     0.032 C 
HETATM   33  C   UNL     1      48.571  32.950  10.735  1.00  0.00     0.039 C 
HETATM   34  C   UNL     1      47.982  31.897  10.009  1.00  0.00     0.071 C 
HETATM   35  C   UNL     1      46.721  31.277  10.354  1.00  0.00    -0.029 C 
HETATM   36  C   UNL     1      46.198  30.187   9.448  1.00  0.00     0.051 C 
HETATM   37  C   UNL     1      46.056  31.493  11.555  1.00  0.00     0.012 C 
HETATM   38  C   UNL     1      45.944  32.631  12.340  1.00  0.00     0.030 C 
BRANCH  34  39
HETATM   39  O   UNL     1      48.639  31.475   8.886  1.00  0.00    -0.360 OA
ATOM     40  HO  UNL     1      49.142  32.127   8.411  1.00  0.00     0.217 HD
ENDBRANCH  34  39
ENDBRANCH  29  31
ENDBRANCH  28  29
ENDBRANCH  27  28
ENDBRANCH   6  27
TORSDOF 7
ENDMDL
MODEL 9
REMARK VINA RESULT:      -7.9      2.598      6.165
REMARK  7 active torsions:
REMARK  status: ('A' for Active; 'I' for Inactive)
REMARK    1  A    between atoms: C_2  and  N_5 
REMARK    2  A    between atoms: C_2  and  C_25 
REMARK    3  A    between atoms: N_5  and  C_38 
REMARK    4  A    between atoms: O_7  and  C_22 
REMARK    5  A    between atoms: C_13  and  N_35 
REMARK       I    between atoms: C_16  and  N_35 
REMARK    6  A    between atoms: C_16  and  C_40 
REMARK    7  A    between atoms: C_25  and  C_40 
ROOT
HETATM    1  C   UNL     1      39.615  35.509  14.820  1.00  0.00     0.027 C 
HETATM    2  C   UNL     1      42.139  35.549  14.870  1.00  0.00    -0.011 C 
HETATM    3  C   UNL     1      39.619  34.529  15.952  1.00  0.00     0.005 C 
HETATM    4  C   UNL     1      40.940  34.144  16.589  1.00  0.00     0.024 C 
HETATM    5  C   UNL     1      40.926  36.028  14.342  1.00  0.00    -0.029 C 
HETATM    6  C   UNL     1      42.269  34.394  15.840  1.00  0.00     0.063 C 
ENDROOT
BRANCH   6   7
HETATM    7  C   UNL     1      42.751  33.112  15.157  1.00  0.00     0.236 C 
HETATM    8  O   UNL     1      41.919  32.367  14.666  1.00  0.00    -0.272 OA
HETATM    9  N   UNL     1      44.095  32.772  15.057  1.00  0.00    -0.308 N 
ATOM     10  HN  UNL     1      44.552  32.403  15.891  1.00  0.00     0.170 HD
BRANCH   9  11
HETATM   11  C   UNL     1      44.850  32.896  13.921  1.00  0.00     0.179 C 
HETATM   12  C   UNL     1      45.624  34.165  13.692  1.00  0.00     0.290 C 
HETATM   13  N   UNL     1      46.539  34.147  12.690  1.00  0.00    -0.313 N 
HETATM   14  O   UNL     1      45.436  35.148  14.394  1.00  0.00    -0.264 OA
HETATM   15  C   UNL     1      46.795  32.991  11.974  1.00  0.00     0.148 C 
ATOM     16  HN  UNL     1      47.048  35.001  12.461  1.00  0.00     0.169 HD
HETATM   17  C   UNL     1      47.629  33.069  10.743  1.00  0.00     0.277 C 
HETATM   18  C   UNL     1      45.879  31.912  12.074  1.00  0.00     0.141 C 
HETATM   19  N   UNL     1      47.269  32.216   9.720  1.00  0.00    -0.318 N 
HETATM   20  O   UNL     1      48.850  33.296  10.884  1.00  0.00    -0.266 OA
HETATM   21  C   UNL     1      46.429  31.190   9.952  1.00  0.00     0.185 C 
ATOM     22  HN  UNL     1      47.641  32.364   8.782  1.00  0.00     0.169 HD
HETATM   23  N   UNL     1      45.883  30.925  11.142  1.00  0.00    -0.336 N 
ATOM     24  HN  UNL     1      45.483  30.010  11.344  1.00  0.00     0.168 HD
HETATM   25  N   UNL     1      44.928  31.894  13.049  1.00  0.00    -0.322 N 
ATOM     26  HN  UNL     1      44.275  31.113  13.110  1.00  0.00     0.169 HD
ENDBRANCH   9  11
ENDBRANCH   6   7
BRANCH   6  27
HETATM   27  C   UNL     1      43.373  34.770  16.872  1.00  0.00     0.068 C 
BRANCH  27  28
HETATM   28  C   UNL     1      43.674  36.245  17.135  1.00  0.00     0.062 C 
BRANCH  28  29
HETATM   29  N   UNL     1      44.543  36.736  18.199  1.00  0.00    -0.369 N 
ATOM     30  HN  UNL     1      44.076  36.948  19.081  1.00  0.00     0.165 HD
BRANCH  29  31
HETATM   31  C   UNL     1      45.933  36.961  18.185  1.00  0.00     0.031 C 
HETATM   32  C   UNL     1      46.721  36.319  17.187  1.00  0.00     0.032 C 
HETATM   33  C   UNL     1      48.078  36.082  17.168  1.00  0.00     0.039 C 
HETATM   34  C   UNL     1      49.099  36.466  18.058  1.00  0.00     0.071 C 
HETATM   35  C   UNL     1      48.928  37.424  19.129  1.00  0.00    -0.029 C 
HETATM   36  C   UNL     1      50.110  37.697  20.029  1.00  0.00     0.051 C 
HETATM   37  C   UNL     1      47.808  38.236  19.268  1.00  0.00     0.012 C 
HETATM   38  C   UNL     1      46.470  37.993  18.996  1.00  0.00     0.030 C 
BRANCH  34  39
HETATM   39  O   UNL     1      50.313  35.853  17.910  1.00  0.00    -0.360 OA
ATOM     40  HO  UNL     1      50.451  35.358  17.110  1.00  0.00     0.217 HD
ENDBRANCH  34  39
ENDBRANCH  29  31
ENDBRANCH  28  29
ENDBRANCH  27  28
ENDBRANCH   6  27
TORSDOF 7
ENDMDL
