MODEL 1
REMARK VINA RESULT:      -9.5      0.000      0.000
REMARK  7 active torsions:
REMARK  status: ('A' for Active; 'I' for Inactive)
REMARK    1  A    between atoms: CA_3  and  C_10 
REMARK    2  A    between atoms: O_5  and  C_32 
REMARK    3  A    between atoms: C_8  and  O_35 
REMARK    4  A    between atoms: C_11  and  C_23 
REMARK    5  A    between atoms: S_12  and  N_14 
REMARK       I    between atoms: N_15  and  C_23 
REMARK    6  A    between atoms: C_16  and  O_28 
REMARK    7  A    between atoms: C_16  and  N_37 
ROOT
HETATM    1  C   UNL     1      40.067 150.374  21.407  1.00  0.00     0.106 C 
HETATM    2  C   UNL     1      41.007 148.520  22.549  1.00  0.00     0.102 C 
HETATM    3  C   UNL     1      38.914 147.708  21.508  1.00  0.00     0.099 C 
HETATM    4  C   UNL     1      40.207 147.568  21.939  1.00  0.00     0.052 C 
HETATM    5  C   UNL     1      39.035 149.943  20.613  1.00  0.00     0.114 C 
HETATM    6  N   UNL     1      40.749 149.837  22.447  1.00  0.00    -0.360 N 
ATOM      7  HN  UNL     1      41.083 150.458  23.185  1.00  0.00     0.165 HD
HETATM    8  N   UNL     1      38.398 148.730  20.748  1.00  0.00    -0.292 N 
ENDROOT
BRANCH   2   9
HETATM    9  C   UNL     1      42.071 147.993  23.495  1.00  0.00     0.273 C 
HETATM   10  N   UNL     1      43.421 148.237  23.350  1.00  0.00    -0.303 N 
HETATM   11  C   UNL     1      44.168 148.198  22.083  1.00  0.00     0.272 C 
HETATM   12  C   UNL     1      44.196 148.601  24.531  1.00  0.00     0.228 C 
HETATM   13  N   UNL     1      45.415 147.469  22.258  1.00  0.00    -0.248 N 
HETATM   14  C   UNL     1      45.744 146.883  23.558  1.00  0.00     0.239 C 
HETATM   15  C   UNL     1      45.596 148.003  24.571  1.00  0.00     0.108 C 
HETATM   16  O   UNL     1      41.710 147.262  24.410  1.00  0.00    -0.266 OA
BRANCH  13  17
HETATM   17  S   UNL     1      46.590 147.352  21.163  1.00  0.00     0.210 S 
HETATM   18  O   UNL     1      47.821 147.080  21.830  1.00  0.00    -0.578 OA
HETATM   19  O   UNL     1      46.280 146.186  20.361  1.00  0.00    -0.578 OA
HETATM   20  O   UNL     1      46.605 148.585  20.418  1.00  0.00    -0.578 OA
ENDBRANCH  13  17
BRANCH  14  21
HETATM   21  O   UNL     1      44.837 145.854  23.883  1.00  0.00    -0.376 OA
ATOM     22  HO  UNL     1      44.291 146.144  24.605  1.00  0.00     0.212 HD
ENDBRANCH  14  21
BRANCH  12  23
HETATM   23  O   UNL     1      43.512 148.378  25.743  1.00  0.00    -0.376 OA
ATOM     24  HO  UNL     1      42.707 148.882  25.781  1.00  0.00     0.212 HD
ENDBRANCH  12  23
ENDBRANCH   2   9
BRANCH   8  25
HETATM   25  C   UNL     1      37.072 148.481  20.137  1.00  0.00     0.399 C 
HETATM   26  N   UNL     1      36.578 147.196  20.474  1.00  0.00     0.020 N 
HETATM   27  CA  UNL     1      35.364 147.272  21.171  1.00  0.00     0.384 C 
ATOM     28  HN2 UNL     1      37.271 146.655  20.992  1.00  0.00     0.287 HD
ATOM     29  HN1 UNL     1      36.497 146.600  19.649  1.00  0.00     0.287 HD
HETATM   30  C   UNL     1      35.015 148.713  21.084  1.00  0.00     0.264 C 
HETATM   31  O   UNL     1      33.920 149.245  21.257  1.00  0.00    -0.270 OA
HETATM   32  N   UNL     1      36.070 149.399  20.573  1.00  0.00    -0.285 N 
ATOM     33  HN  UNL     1      36.136 150.415  20.511  1.00  0.00     0.169 HD
BRANCH  27  34
HETATM   34  C   UNL     1      34.231 146.276  20.998  1.00  0.00     0.214 C 
HETATM   35  O   UNL     1      34.294 145.183  21.587  1.00  0.00    -0.646 OA
HETATM   36  OXT UNL     1      33.240 146.603  20.294  1.00  0.00    -0.646 OA
ENDBRANCH  27  34
BRANCH  25  37
HETATM   37  O   UNL     1      37.176 148.561  18.808  1.00  0.00    -0.331 OA
ATOM     38  HO  UNL     1      36.510 148.007  18.419  1.00  0.00     0.216 HD
ENDBRANCH  25  37
ENDBRANCH   8  25
TORSDOF 7
ENDMDL
MODEL 2
REMARK VINA RESULT:      -9.4      2.913      4.166
REMARK  7 active torsions:
REMARK  status: ('A' for Active; 'I' for Inactive)
REMARK    1  A    between atoms: CA_3  and  C_10 
REMARK    2  A    between atoms: O_5  and  C_32 
REMARK    3  A    between atoms: C_8  and  O_35 
REMARK    4  A    between atoms: C_11  and  C_23 
REMARK    5  A    between atoms: S_12  and  N_14 
REMARK       I    between atoms: N_15  and  C_23 
REMARK    6  A    between atoms: C_16  and  O_28 
REMARK    7  A    between atoms: C_16  and  N_37 
ROOT
HETATM    1  C   UNL     1      37.188 148.460  19.911  1.00  0.00     0.106 C 
HETATM    2  C   UNL     1      38.863 147.475  21.271  1.00  0.00     0.102 C 
HETATM    3  C   UNL     1      36.727 146.406  21.915  1.00  0.00     0.099 C 
HETATM    4  C   UNL     1      38.080 146.417  21.702  1.00  0.00     0.052 C 
HETATM    5  C   UNL     1      36.021 147.752  20.045  1.00  0.00     0.114 C 
HETATM    6  N   UNL     1      38.338 148.531  20.624  1.00  0.00    -0.360 N 
ATOM      7  HN  UNL     1      38.828 149.425  20.673  1.00  0.00     0.165 HD
HETATM    8  N   UNL     1      35.750 146.877  21.072  1.00  0.00    -0.292 N 
ENDROOT
BRANCH   2   9
HETATM    9  C   UNL     1      40.309 147.470  21.736  1.00  0.00     0.273 C 
HETATM   10  N   UNL     1      40.904 148.513  22.415  1.00  0.00    -0.303 N 
HETATM   11  C   UNL     1      40.743 149.942  22.103  1.00  0.00     0.272 C 
HETATM   12  C   UNL     1      41.743 148.207  23.568  1.00  0.00     0.228 C 
HETATM   13  N   UNL     1      42.037 150.609  22.126  1.00  0.00    -0.248 N 
HETATM   14  C   UNL     1      43.250 149.841  22.407  1.00  0.00     0.239 C 
HETATM   15  C   UNL     1      42.980 149.087  23.695  1.00  0.00     0.108 C 
HETATM   16  O   UNL     1      41.001 146.503  21.439  1.00  0.00    -0.266 OA
BRANCH  13  17
HETATM   17  S   UNL     1      42.271 152.198  22.009  1.00  0.00     0.210 S 
HETATM   18  O   UNL     1      41.898 152.814  23.241  1.00  0.00    -0.578 OA
HETATM   19  O   UNL     1      43.699 152.386  21.862  1.00  0.00    -0.578 OA
HETATM   20  O   UNL     1      41.502 152.662  20.883  1.00  0.00    -0.578 OA
ENDBRANCH  13  17
BRANCH  14  21
HETATM   21  O   UNL     1      43.499 148.910  21.378  1.00  0.00    -0.376 OA
ATOM     22  HO  UNL     1      42.743 148.881  20.802  1.00  0.00     0.212 HD
ENDBRANCH  14  21
BRANCH  12  23
HETATM   23  O   UNL     1      42.075 146.842  23.676  1.00  0.00    -0.376 OA
ATOM     24  HO  UNL     1      42.938 146.669  23.318  1.00  0.00     0.212 HD
ENDBRANCH  12  23
ENDBRANCH   2   9
BRANCH   8  25
HETATM   25  C   UNL     1      34.365 146.446  21.375  1.00  0.00     0.399 C 
HETATM   26  N   UNL     1      33.938 146.924  22.639  1.00  0.00     0.020 N 
HETATM   27  CA  UNL     1      32.814 147.755  22.527  1.00  0.00     0.384 C 
ATOM     28  HN2 UNL     1      34.697 147.390  23.136  1.00  0.00     0.287 HD
ATOM     29  HN1 UNL     1      33.770 146.156  23.290  1.00  0.00     0.287 HD
HETATM   30  C   UNL     1      32.431 147.615  21.099  1.00  0.00     0.264 C 
HETATM   31  O   UNL     1      31.356 147.882  20.568  1.00  0.00    -0.270 OA
HETATM   32  N   UNL     1      33.406 146.938  20.439  1.00  0.00    -0.285 N 
ATOM     33  HN  UNL     1      33.446 146.801  19.429  1.00  0.00     0.169 HD
BRANCH  27  34
HETATM   34  C   UNL     1      31.686 147.785  23.544  1.00  0.00     0.214 C 
HETATM   35  O   UNL     1      30.876 146.842  23.573  1.00  0.00    -0.646 OA
HETATM   36  OXT UNL     1      31.628 148.745  24.356  1.00  0.00    -0.646 OA
ENDBRANCH  27  34
BRANCH  25  37
HETATM   37  O   UNL     1      34.309 145.112  21.384  1.00  0.00    -0.331 OA
ATOM     38  HO  UNL     1      35.175 144.775  21.582  1.00  0.00     0.216 HD
ENDBRANCH  25  37
ENDBRANCH   8  25
TORSDOF 7
ENDMDL
MODEL 3
REMARK VINA RESULT:      -8.8      2.029      3.190
REMARK  7 active torsions:
REMARK  status: ('A' for Active; 'I' for Inactive)
REMARK    1  A    between atoms: CA_3  and  C_10 
REMARK    2  A    between atoms: O_5  and  C_32 
REMARK    3  A    between atoms: C_8  and  O_35 
REMARK    4  A    between atoms: C_11  and  C_23 
REMARK    5  A    between atoms: S_12  and  N_14 
REMARK       I    between atoms: N_15  and  C_23 
REMARK    6  A    between atoms: C_16  and  O_28 
REMARK    7  A    between atoms: C_16  and  N_37 
ROOT
HETATM    1  C   UNL     1      40.112 147.068  21.730  1.00  0.00     0.106 C 
HETATM    2  C   UNL     1      41.280 149.129  21.630  1.00  0.00     0.102 C 
HETATM    3  C   UNL     1      39.045 149.548  20.654  1.00  0.00     0.099 C 
HETATM    4  C   UNL     1      40.163 149.903  21.362  1.00  0.00     0.052 C 
HETATM    5  C   UNL     1      38.791 147.280  21.427  1.00  0.00     0.114 C 
HETATM    6  N   UNL     1      41.248 147.786  21.561  1.00  0.00    -0.360 N 
ATOM      7  HN  UNL     1      42.117 147.286  21.374  1.00  0.00     0.165 HD
HETATM    8  N   UNL     1      38.303 148.401  20.793  1.00  0.00    -0.292 N 
ENDROOT
BRANCH   2   9
HETATM    9  C   UNL     1      42.586 149.881  21.814  1.00  0.00     0.273 C 
HETATM   10  N   UNL     1      43.691 149.361  22.455  1.00  0.00    -0.303 N 
HETATM   11  C   UNL     1      43.672 148.580  23.701  1.00  0.00     0.272 C 
HETATM   12  C   UNL     1      45.005 149.556  21.851  1.00  0.00     0.228 C 
HETATM   13  N   UNL     1      44.709 149.053  24.606  1.00  0.00    -0.248 N 
HETATM   14  C   UNL     1      45.564 150.174  24.217  1.00  0.00     0.239 C 
HETATM   15  C   UNL     1      46.123 149.819  22.851  1.00  0.00     0.108 C 
HETATM   16  O   UNL     1      42.639 151.040  21.417  1.00  0.00    -0.266 OA
BRANCH  13  17
HETATM   17  S   UNL     1      45.128 148.351  25.995  1.00  0.00     0.210 S 
HETATM   18  O   UNL     1      44.924 149.276  27.061  1.00  0.00    -0.578 OA
HETATM   19  O   UNL     1      44.191 147.265  26.197  1.00  0.00    -0.578 OA
HETATM   20  O   UNL     1      46.497 147.924  25.862  1.00  0.00    -0.578 OA
ENDBRANCH  13  17
BRANCH  14  21
HETATM   21  O   UNL     1      44.810 151.359  24.105  1.00  0.00    -0.376 OA
ATOM     22  HO  UNL     1      45.388 152.067  23.844  1.00  0.00     0.212 HD
ENDBRANCH  14  21
BRANCH  12  23
HETATM   23  O   UNL     1      45.011 150.511  20.815  1.00  0.00    -0.376 OA
ATOM     24  HO  UNL     1      45.325 151.352  21.126  1.00  0.00     0.212 HD
ENDBRANCH  12  23
ENDBRANCH   2   9
BRANCH   8  25
HETATM   25  C   UNL     1      36.965 148.408  20.157  1.00  0.00     0.399 C 
HETATM   26  N   UNL     1      36.279 147.187  20.376  1.00  0.00     0.020 N 
HETATM   27  CA  UNL     1      35.078 147.384  21.073  1.00  0.00     0.384 C 
ATOM     28  HN2 UNL     1      36.875 146.506  20.847  1.00  0.00     0.287 HD
ATOM     29  HN1 UNL     1      36.124 146.686  19.502  1.00  0.00     0.287 HD
HETATM   30  C   UNL     1      34.950 148.862  21.114  1.00  0.00     0.264 C 
HETATM   31  O   UNL     1      33.944 149.536  21.329  1.00  0.00    -0.270 OA
HETATM   32  N   UNL     1      36.105 149.425  20.671  1.00  0.00    -0.285 N 
ATOM     33  HN  UNL     1      36.323 150.420  20.700  1.00  0.00     0.169 HD
BRANCH  27  34
HETATM   34  C   UNL     1      33.812 146.588  20.807  1.00  0.00     0.214 C 
HETATM   35  O   UNL     1      32.836 147.163  20.296  1.00  0.00    -0.646 OA
HETATM   36  OXT UNL     1      33.803 145.359  21.076  1.00  0.00    -0.646 OA
ENDBRANCH  27  34
BRANCH  25  37
HETATM   37  O   UNL     1      37.103 148.588  18.842  1.00  0.00    -0.331 OA
ATOM     38  HO  UNL     1      37.984 148.336  18.593  1.00  0.00     0.216 HD
ENDBRANCH  25  37
ENDBRANCH   8  25
TORSDOF 7
ENDMDL
MODEL 4
REMARK VINA RESULT:      -8.3      1.790      2.180
REMARK  7 active torsions:
REMARK  status: ('A' for Active; 'I' for Inactive)
REMARK    1  A    between atoms: CA_3  and  C_10 
REMARK    2  A    between atoms: O_5  and  C_32 
REMARK    3  A    between atoms: C_8  and  O_35 
REMARK    4  A    between atoms: C_11  and  C_23 
REMARK    5  A    between atoms: S_12  and  N_14 
REMARK       I    between atoms: N_15  and  C_23 
REMARK    6  A    between atoms: C_16  and  O_28 
REMARK    7  A    between atoms: C_16  and  N_37 
ROOT
HETATM    1  C   UNL     1      39.931 150.362  21.192  1.00  0.00     0.106 C 
HETATM    2  C   UNL     1      40.983 148.453  22.126  1.00  0.00     0.102 C 
HETATM    3  C   UNL     1      38.824 147.674  21.200  1.00  0.00     0.099 C 
HETATM    4  C   UNL     1      40.150 147.530  21.517  1.00  0.00     0.052 C 
HETATM    5  C   UNL     1      38.844 149.966  20.454  1.00  0.00     0.114 C 
HETATM    6  N   UNL     1      40.701 149.769  22.135  1.00  0.00    -0.360 N 
ATOM      7  HN  UNL     1      41.084 150.344  22.885  1.00  0.00     0.165 HD
HETATM    8  N   UNL     1      38.236 148.735  20.556  1.00  0.00    -0.292 N 
ENDROOT
BRANCH   2   9
HETATM    9  C   UNL     1      42.126 147.883  22.946  1.00  0.00     0.273 C 
HETATM   10  N   UNL     1      42.972 148.646  23.724  1.00  0.00    -0.303 N 
HETATM   11  C   UNL     1      43.558 149.940  23.339  1.00  0.00     0.272 C 
HETATM   12  C   UNL     1      43.307 148.173  25.063  1.00  0.00     0.228 C 
HETATM   13  N   UNL     1      44.975 149.968  23.673  1.00  0.00    -0.248 N 
HETATM   14  C   UNL     1      45.607 148.797  24.279  1.00  0.00     0.239 C 
HETATM   15  C   UNL     1      44.750 148.431  25.477  1.00  0.00     0.108 C 
HETATM   16  O   UNL     1      42.341 146.679  22.867  1.00  0.00    -0.266 OA
BRANCH  13  17
HETATM   17  S   UNL     1      45.932 151.260  23.573  1.00  0.00     0.210 S 
HETATM   18  O   UNL     1      45.186 152.420  23.936  1.00  0.00    -0.578 OA
HETATM   19  O   UNL     1      46.954 151.084  24.584  1.00  0.00    -0.578 OA
HETATM   20  O   UNL     1      46.444 151.309  22.228  1.00  0.00    -0.578 OA
ENDBRANCH  13  17
BRANCH  14  21
HETATM   21  O   UNL     1      45.614 147.713  23.378  1.00  0.00    -0.376 OA
ATOM     22  HO  UNL     1      45.694 148.051  22.493  1.00  0.00     0.212 HD
ENDBRANCH  14  21
BRANCH  12  23
HETATM   23  O   UNL     1      42.942 146.832  25.293  1.00  0.00    -0.376 OA
ATOM     24  HO  UNL     1      43.550 146.408  25.888  1.00  0.00     0.212 HD
ENDBRANCH  12  23
ENDBRANCH   2   9
BRANCH   8  25
HETATM   25  C   UNL     1      36.868 148.504  20.035  1.00  0.00     0.399 C 
HETATM   26  N   UNL     1      36.405 147.202  20.354  1.00  0.00     0.020 N 
HETATM   27  CA  UNL     1      35.247 147.242  21.143  1.00  0.00     0.384 C 
ATOM     28  HN2 UNL     1      37.138 146.645  20.795  1.00  0.00     0.287 HD
ATOM     29  HN1 UNL     1      36.264 146.642  19.513  1.00  0.00     0.287 HD
HETATM   30  C   UNL     1      34.888 148.682  21.143  1.00  0.00     0.264 C 
HETATM   31  O   UNL     1      33.807 149.199  21.420  1.00  0.00    -0.270 OA
HETATM   32  N   UNL     1      35.899 149.397  20.584  1.00  0.00    -0.285 N 
ATOM     33  HN  UNL     1      35.957 150.414  20.560  1.00  0.00     0.169 HD
BRANCH  27  34
HETATM   34  C   UNL     1      34.107 146.246  21.013  1.00  0.00     0.214 C 
HETATM   35  O   UNL     1      34.191 145.155  21.602  1.00  0.00    -0.646 OA
HETATM   36  OXT UNL     1      33.092 146.573  20.344  1.00  0.00    -0.646 OA
ENDBRANCH  27  34
BRANCH  25  37
HETATM   37  O   UNL     1      36.872 148.640  18.707  1.00  0.00    -0.331 OA
ATOM     38  HO  UNL     1      36.094 148.221  18.358  1.00  0.00     0.216 HD
ENDBRANCH  25  37
ENDBRANCH   8  25
TORSDOF 7
ENDMDL
MODEL 5
REMARK VINA RESULT:      -7.9      3.685      4.783
REMARK  7 active torsions:
REMARK  status: ('A' for Active; 'I' for Inactive)
REMARK    1  A    between atoms: CA_3  and  C_10 
REMARK    2  A    between atoms: O_5  and  C_32 
REMARK    3  A    between atoms: C_8  and  O_35 
REMARK    4  A    between atoms: C_11  and  C_23 
REMARK    5  A    between atoms: S_12  and  N_14 
REMARK       I    between atoms: N_15  and  C_23 
REMARK    6  A    between atoms: C_16  and  O_28 
REMARK    7  A    between atoms: C_16  and  N_37 
ROOT
HETATM    1  C   UNL     1      40.158 147.190  21.670  1.00  0.00     0.106 C 
HETATM    2  C   UNL     1      41.140 149.344  21.530  1.00  0.00     0.102 C 
HETATM    3  C   UNL     1      38.850 149.564  20.620  1.00  0.00     0.099 C 
HETATM    4  C   UNL     1      39.953 150.018  21.295  1.00  0.00     0.052 C 
HETATM    5  C   UNL     1      38.815 147.286  21.406  1.00  0.00     0.114 C 
HETATM    6  N   UNL     1      41.222 148.003  21.466  1.00  0.00    -0.360 N 
ATOM      7  HN  UNL     1      42.126 147.579  21.253  1.00  0.00     0.165 HD
HETATM    8  N   UNL     1      38.214 148.357  20.785  1.00  0.00    -0.292 N 
ENDROOT
BRANCH   2   9
HETATM    9  C   UNL     1      42.382 150.207  21.674  1.00  0.00     0.273 C 
HETATM   10  N   UNL     1      42.368 151.586  21.655  1.00  0.00    -0.303 N 
HETATM   11  C   UNL     1      41.583 152.424  20.736  1.00  0.00     0.272 C 
HETATM   12  C   UNL     1      43.164 152.305  22.644  1.00  0.00     0.228 C 
HETATM   13  N   UNL     1      42.410 153.498  20.206  1.00  0.00    -0.248 N 
HETATM   14  C   UNL     1      43.817 153.598  20.596  1.00  0.00     0.239 C 
HETATM   15  C   UNL     1      43.834 153.566  22.113  1.00  0.00     0.108 C 
HETATM   16  O   UNL     1      43.465 149.639  21.755  1.00  0.00    -0.266 OA
BRANCH  13  17
HETATM   17  S   UNL     1      41.883 154.726  19.307  1.00  0.00     0.210 S 
HETATM   18  O   UNL     1      42.615 154.754  18.084  1.00  0.00    -0.578 OA
HETATM   19  O   UNL     1      40.509 154.416  18.966  1.00  0.00    -0.578 OA
HETATM   20  O   UNL     1      42.033 155.925  20.090  1.00  0.00    -0.578 OA
ENDBRANCH  13  17
BRANCH  14  21
HETATM   21  O   UNL     1      44.547 152.496  20.109  1.00  0.00    -0.376 OA
ATOM     22  HO  UNL     1      45.161 152.801  19.450  1.00  0.00     0.212 HD
ENDBRANCH  14  21
BRANCH  12  23
HETATM   23  O   UNL     1      44.086 151.487  23.327  1.00  0.00    -0.376 OA
ATOM     24  HO  UNL     1      44.151 151.733  24.242  1.00  0.00     0.212 HD
ENDBRANCH  12  23
ENDBRANCH   2   9
BRANCH   8  25
HETATM   25  C   UNL     1      36.862 148.247  20.189  1.00  0.00     0.399 C 
HETATM   26  N   UNL     1      36.277 146.985  20.462  1.00  0.00     0.020 N 
HETATM   27  CA  UNL     1      35.084 147.112  21.189  1.00  0.00     0.384 C 
ATOM     28  HN2 UNL     1      36.935 146.364  20.933  1.00  0.00     0.287 HD
ATOM     29  HN1 UNL     1      36.135 146.448  19.606  1.00  0.00     0.287 HD
HETATM   30  C   UNL     1      34.846 148.577  21.193  1.00  0.00     0.264 C 
HETATM   31  O   UNL     1      33.799 149.180  21.420  1.00  0.00    -0.270 OA
HETATM   32  N   UNL     1      35.942 149.211  20.700  1.00  0.00    -0.285 N 
ATOM     33  HN  UNL     1      36.085 150.221  20.695  1.00  0.00     0.169 HD
BRANCH  27  34
HETATM   34  C   UNL     1      33.875 146.217  20.983  1.00  0.00     0.214 C 
HETATM   35  O   UNL     1      32.912 146.648  20.325  1.00  0.00    -0.646 OA
HETATM   36  OXT UNL     1      33.900 145.048  21.450  1.00  0.00    -0.646 OA
ENDBRANCH  27  34
BRANCH  25  37
HETATM   37  O   UNL     1      36.949 148.397  18.866  1.00  0.00    -0.331 OA
ATOM     38  HO  UNL     1      37.273 147.587  18.490  1.00  0.00     0.216 HD
ENDBRANCH  25  37
ENDBRANCH   8  25
TORSDOF 7
ENDMDL
MODEL 6
REMARK VINA RESULT:      -7.7      2.336      3.274
REMARK  7 active torsions:
REMARK  status: ('A' for Active; 'I' for Inactive)
REMARK    1  A    between atoms: CA_3  and  C_10 
REMARK    2  A    between atoms: O_5  and  C_32 
REMARK    3  A    between atoms: C_8  and  O_35 
REMARK    4  A    between atoms: C_11  and  C_23 
REMARK    5  A    between atoms: S_12  and  N_14 
REMARK       I    between atoms: N_15  and  C_23 
REMARK    6  A    between atoms: C_16  and  O_28 
REMARK    7  A    between atoms: C_16  and  N_37 
ROOT
HETATM    1  C   UNL     1      40.522 146.826  24.284  1.00  0.00     0.106 C 
HETATM    2  C   UNL     1      41.848 148.485  23.230  1.00  0.00     0.102 C 
HETATM    3  C   UNL     1      40.162 147.779  21.562  1.00  0.00     0.099 C 
HETATM    4  C   UNL     1      40.983 148.694  22.168  1.00  0.00     0.052 C 
HETATM    5  C   UNL     1      39.424 146.561  23.506  1.00  0.00     0.114 C 
HETATM    6  N   UNL     1      41.709 147.441  24.066  1.00  0.00    -0.360 N 
ATOM      7  HN  UNL     1      42.534 147.098  24.559  1.00  0.00     0.165 HD
HETATM    8  N   UNL     1      39.308 146.895  22.175  1.00  0.00    -0.292 N 
ENDROOT
BRANCH   2   9
HETATM    9  C   UNL     1      43.071 149.384  23.282  1.00  0.00     0.273 C 
HETATM   10  N   UNL     1      44.368 148.919  23.347  1.00  0.00    -0.303 N 
HETATM   11  C   UNL     1      44.838 147.804  24.184  1.00  0.00     0.272 C 
HETATM   12  C   UNL     1      45.377 149.543  22.499  1.00  0.00     0.228 C 
HETATM   13  N   UNL     1      46.076 148.169  24.856  1.00  0.00    -0.248 N 
HETATM   14  C   UNL     1      46.650 149.500  24.660  1.00  0.00     0.239 C 
HETATM   15  C   UNL     1      46.741 149.700  23.158  1.00  0.00     0.108 C 
HETATM   16  O   UNL     1      42.887 150.596  23.325  1.00  0.00    -0.266 OA
BRANCH  13  17
HETATM   17  S   UNL     1      46.999 147.171  25.720  1.00  0.00     0.210 S 
HETATM   18  O   UNL     1      47.965 147.936  26.437  1.00  0.00    -0.578 OA
HETATM   19  O   UNL     1      46.126 146.567  26.707  1.00  0.00    -0.578 OA
HETATM   20  O   UNL     1      47.584 146.227  24.803  1.00  0.00    -0.578 OA
ENDBRANCH  13  17
BRANCH  14  21
HETATM   21  O   UNL     1      45.805 150.491  25.200  1.00  0.00    -0.376 OA
ATOM     22  HO  UNL     1      44.918 150.336  24.896  1.00  0.00     0.212 HD
ENDBRANCH  14  21
BRANCH  12  23
HETATM   23  O   UNL     1      44.951 150.753  21.916  1.00  0.00    -0.376 OA
ATOM     24  HO  UNL     1      44.270 151.164  22.435  1.00  0.00     0.212 HD
ENDBRANCH  12  23
ENDBRANCH   2   9
BRANCH   8  25
HETATM   25  C   UNL     1      38.293 146.258  21.304  1.00  0.00     0.399 C 
HETATM   26  N   UNL     1      37.025 146.211  21.934  1.00  0.00     0.020 N 
HETATM   27  CA  UNL     1      36.057 146.920  21.208  1.00  0.00     0.384 C 
ATOM     28  HN2 UNL     1      37.077 146.536  22.900  1.00  0.00     0.287 HD
ATOM     29  HN1 UNL     1      36.731 145.249  22.106  1.00  0.00     0.287 HD
HETATM   30  C   UNL     1      36.765 147.266  19.950  1.00  0.00     0.264 C 
HETATM   31  O   UNL     1      36.284 147.605  18.871  1.00  0.00    -0.270 OA
HETATM   32  N   UNL     1      38.083 146.962  20.080  1.00  0.00    -0.285 N 
ATOM     33  HN  UNL     1      38.811 147.200  19.406  1.00  0.00     0.169 HD
BRANCH  27  34
HETATM   34  C   UNL     1      34.608 146.480  21.086  1.00  0.00     0.214 C 
HETATM   35  O   UNL     1      34.295 145.333  21.449  1.00  0.00    -0.646 OA
HETATM   36  OXT UNL     1      33.760 147.304  20.656  1.00  0.00    -0.646 OA
ENDBRANCH  27  34
BRANCH  25  37
HETATM   37  O   UNL     1      38.674 145.011  21.020  1.00  0.00    -0.331 OA
ATOM     38  HO  UNL     1      39.410 144.786  21.577  1.00  0.00     0.216 HD
ENDBRANCH  25  37
ENDBRANCH   8  25
TORSDOF 7
ENDMDL
MODEL 7
REMARK VINA RESULT:      -7.4      3.306      4.355
REMARK  7 active torsions:
REMARK  status: ('A' for Active; 'I' for Inactive)
REMARK    1  A    between atoms: CA_3  and  C_10 
REMARK    2  A    between atoms: O_5  and  C_32 
REMARK    3  A    between atoms: C_8  and  O_35 
REMARK    4  A    between atoms: C_11  and  C_23 
REMARK    5  A    between atoms: S_12  and  N_14 
REMARK       I    between atoms: N_15  and  C_23 
REMARK    6  A    between atoms: C_16  and  O_28 
REMARK    7  A    between atoms: C_16  and  N_37 
ROOT
HETATM    1  C   UNL     1      40.926 147.042  23.837  1.00  0.00     0.106 C 
HETATM    2  C   UNL     1      41.567 149.101  22.850  1.00  0.00     0.102 C 
HETATM    3  C   UNL     1      39.738 148.198  21.449  1.00  0.00     0.099 C 
HETATM    4  C   UNL     1      40.454 149.210  22.033  1.00  0.00     0.052 C 
HETATM    5  C   UNL     1      39.763 146.603  23.255  1.00  0.00     0.114 C 
HETATM    6  N   UNL     1      41.862 147.962  23.501  1.00  0.00    -0.360 N 
ATOM      7  HN  UNL     1      42.835 147.782  23.754  1.00  0.00     0.165 HD
HETATM    8  N   UNL     1      39.269 147.057  22.053  1.00  0.00    -0.292 N 
ENDROOT
BRANCH   2   9
HETATM    9  C   UNL     1      42.538 150.268  22.818  1.00  0.00     0.273 C 
HETATM   10  N   UNL     1      42.470 151.302  21.908  1.00  0.00    -0.303 N 
HETATM   11  C   UNL     1      42.196 151.162  20.469  1.00  0.00     0.272 C 
HETATM   12  C   UNL     1      42.646 152.668  22.388  1.00  0.00     0.228 C 
HETATM   13  N   UNL     1      43.125 151.977  19.700  1.00  0.00    -0.248 N 
HETATM   14  C   UNL     1      44.155 152.757  20.386  1.00  0.00     0.239 C 
HETATM   15  C   UNL     1      43.430 153.570  21.443  1.00  0.00     0.108 C 
HETATM   16  O   UNL     1      43.468 150.259  23.616  1.00  0.00    -0.266 OA
BRANCH  13  17
HETATM   17  S   UNL     1      43.047 152.235  18.111  1.00  0.00     0.210 S 
HETATM   18  O   UNL     1      42.612 151.038  17.469  1.00  0.00    -0.578 OA
HETATM   19  O   UNL     1      42.005 153.221  17.913  1.00  0.00    -0.578 OA
HETATM   20  O   UNL     1      44.352 152.670  17.684  1.00  0.00    -0.578 OA
ENDBRANCH  13  17
BRANCH  14  21
HETATM   21  O   UNL     1      45.081 151.907  21.022  1.00  0.00    -0.376 OA
ATOM     22  HO  UNL     1      45.448 152.361  21.773  1.00  0.00     0.212 HD
ENDBRANCH  14  21
BRANCH  12  23
HETATM   23  O   UNL     1      43.154 152.742  23.700  1.00  0.00    -0.376 OA
ATOM     24  HO  UNL     1      44.094 152.875  23.697  1.00  0.00     0.212 HD
ENDBRANCH  12  23
ENDBRANCH   2   9
BRANCH   8  25
HETATM   25  C   UNL     1      38.246 146.295  21.300  1.00  0.00     0.399 C 
HETATM   26  N   UNL     1      37.015 146.247  22.001  1.00  0.00     0.020 N 
HETATM   27  CA  UNL     1      35.976 146.838  21.268  1.00  0.00     0.384 C 
ATOM     28  HN2 UNL     1      37.099 146.663  22.929  1.00  0.00     0.287 HD
ATOM     29  HN1 UNL     1      36.781 145.293  22.276  1.00  0.00     0.287 HD
HETATM   30  C   UNL     1      36.601 147.097  19.947  1.00  0.00     0.264 C 
HETATM   31  O   UNL     1      36.049 147.311  18.870  1.00  0.00    -0.270 OA
HETATM   32  N   UNL     1      37.938 146.870  20.031  1.00  0.00    -0.285 N 
ATOM     33  HN  UNL     1      38.617 147.078  19.299  1.00  0.00     0.169 HD
BRANCH  27  34
HETATM   34  C   UNL     1      34.548 146.321  21.266  1.00  0.00     0.214 C 
HETATM   35  O   UNL     1      34.325 145.169  21.677  1.00  0.00    -0.646 OA
HETATM   36  OXT UNL     1      33.627 147.089  20.886  1.00  0.00    -0.646 OA
ENDBRANCH  27  34
BRANCH  25  37
HETATM   37  O   UNL     1      38.676 145.046  21.111  1.00  0.00    -0.331 OA
ATOM     38  HO  UNL     1      38.429 144.770  20.237  1.00  0.00     0.216 HD
ENDBRANCH  25  37
ENDBRANCH   8  25
TORSDOF 7
ENDMDL
MODEL 8
REMARK VINA RESULT:      -7.3      5.349      7.317
REMARK  7 active torsions:
REMARK  status: ('A' for Active; 'I' for Inactive)
REMARK    1  A    between atoms: CA_3  and  C_10 
REMARK    2  A    between atoms: O_5  and  C_32 
REMARK    3  A    between atoms: C_8  and  O_35 
REMARK    4  A    between atoms: C_11  and  C_23 
REMARK    5  A    between atoms: S_12  and  N_14 
REMARK       I    between atoms: N_15  and  C_23 
REMARK    6  A    between atoms: C_16  and  O_28 
REMARK    7  A    between atoms: C_16  and  N_37 
ROOT
HETATM    1  C   UNL     1      41.622 151.070  19.677  1.00  0.00     0.106 C 
HETATM    2  C   UNL     1      40.895 151.279  17.429  1.00  0.00     0.102 C 
HETATM    3  C   UNL     1      39.008 150.280  18.680  1.00  0.00     0.099 C 
HETATM    4  C   UNL     1      39.554 151.070  17.702  1.00  0.00     0.052 C 
HETATM    5  C   UNL     1      40.551 150.746  20.472  1.00  0.00     0.114 C 
HETATM    6  N   UNL     1      41.853 151.039  18.343  1.00  0.00    -0.360 N 
ATOM      7  HN  UNL     1      42.795 150.822  18.016  1.00  0.00     0.165 HD
HETATM    8  N   UNL     1      39.356 150.243  20.008  1.00  0.00    -0.292 N 
ENDROOT
BRANCH   2   9
HETATM    9  C   UNL     1      41.241 151.608  15.988  1.00  0.00     0.273 C 
HETATM   10  N   UNL     1      41.135 150.712  14.946  1.00  0.00    -0.303 N 
HETATM   11  C   UNL     1      41.539 149.297  14.986  1.00  0.00     0.272 C 
HETATM   12  C   UNL     1      40.542 151.165  13.692  1.00  0.00     0.228 C 
HETATM   13  N   UNL     1      42.286 148.955  13.784  1.00  0.00    -0.248 N 
HETATM   14  C   UNL     1      42.550 149.976  12.771  1.00  0.00     0.239 C 
HETATM   15  C   UNL     1      41.205 150.598  12.443  1.00  0.00     0.108 C 
HETATM   16  O   UNL     1      41.695 152.722  15.750  1.00  0.00    -0.266 OA
BRANCH  13  17
HETATM   17  S   UNL     1      42.753 147.471  13.366  1.00  0.00     0.210 S 
HETATM   18  O   UNL     1      43.743 147.019  14.288  1.00  0.00    -0.578 OA
HETATM   19  O   UNL     1      41.595 146.619  13.544  1.00  0.00    -0.578 OA
HETATM   20  O   UNL     1      43.225 147.538  12.008  1.00  0.00    -0.578 OA
ENDBRANCH  13  17
BRANCH  14  21
HETATM   21  O   UNL     1      43.401 150.977  13.283  1.00  0.00    -0.376 OA
ATOM     22  HO  UNL     1      43.113 151.205  14.159  1.00  0.00     0.212 HD
ENDBRANCH  14  21
BRANCH  12  23
HETATM   23  O   UNL     1      40.407 152.564  13.607  1.00  0.00    -0.376 OA
ATOM     24  HO  UNL     1      40.845 152.905  12.835  1.00  0.00     0.212 HD
ENDBRANCH  12  23
ENDBRANCH   2   9
BRANCH   8  25
HETATM   25  C   UNL     1      38.401 149.562  20.913  1.00  0.00     0.399 C 
HETATM   26  N   UNL     1      37.091 149.555  20.374  1.00  0.00     0.020 N 
HETATM   27  CA  UNL     1      36.616 148.250  20.177  1.00  0.00     0.384 C 
ATOM     28  HN2 UNL     1      37.040 150.103  19.514  1.00  0.00     0.287 HD
ATOM     29  HN1 UNL     1      36.449 150.102  20.949  1.00  0.00     0.287 HD
HETATM   30  C   UNL     1      37.659 147.412  20.821  1.00  0.00     0.264 C 
HETATM   31  O   UNL     1      37.576 146.244  21.194  1.00  0.00    -0.270 OA
HETATM   32  N   UNL     1      38.725 148.191  21.142  1.00  0.00    -0.285 N 
ATOM     33  HN  UNL     1      39.619 147.848  21.493  1.00  0.00     0.169 HD
BRANCH  27  34
HETATM   34  C   UNL     1      35.170 147.840  20.395  1.00  0.00     0.214 C 
HETATM   35  O   UNL     1      34.365 148.681  20.831  1.00  0.00    -0.646 OA
HETATM   36  OXT UNL     1      34.820 146.671  20.087  1.00  0.00    -0.646 OA
ENDBRANCH  27  34
BRANCH  25  37
HETATM   37  O   UNL     1      38.375 150.197  22.087  1.00  0.00    -0.331 OA
ATOM     38  HO  UNL     1      38.305 151.130  21.924  1.00  0.00     0.216 HD
ENDBRANCH  25  37
ENDBRANCH   8  25
TORSDOF 7
ENDMDL
MODEL 9
REMARK VINA RESULT:      -6.9      2.985      5.263
REMARK  7 active torsions:
REMARK  status: ('A' for Active; 'I' for Inactive)
REMARK    1  A    between atoms: CA_3  and  C_10 
REMARK    2  A    between atoms: O_5  and  C_32 
REMARK    3  A    between atoms: C_8  and  O_35 
REMARK    4  A    between atoms: C_11  and  C_23 
REMARK    5  A    between atoms: S_12  and  N_14 
REMARK       I    between atoms: N_15  and  C_23 
REMARK    6  A    between atoms: C_16  and  O_28 
REMARK    7  A    between atoms: C_16  and  N_37 
ROOT
HETATM    1  C   UNL     1      42.154 146.382  21.791  1.00  0.00     0.106 C 
HETATM    2  C   UNL     1      44.024 147.265  22.953  1.00  0.00     0.102 C 
HETATM    3  C   UNL     1      42.435 149.140  22.665  1.00  0.00     0.099 C 
HETATM    4  C   UNL     1      43.398 148.438  23.341  1.00  0.00     0.052 C 
HETATM    5  C   UNL     1      41.136 147.301  21.806  1.00  0.00     0.114 C 
HETATM    6  N   UNL     1      43.486 146.442  22.035  1.00  0.00    -0.360 N 
ATOM      7  HN  UNL     1      44.108 145.836  21.499  1.00  0.00     0.165 HD
HETATM    8  N   UNL     1      41.292 148.639  22.090  1.00  0.00    -0.292 N 
ENDROOT
BRANCH   2   9
HETATM    9  C   UNL     1      45.435 147.056  23.472  1.00  0.00     0.273 C 
HETATM   10  N   UNL     1      45.730 146.589  24.736  1.00  0.00    -0.303 N 
HETATM   11  C   UNL     1      45.061 146.999  25.980  1.00  0.00     0.272 C 
HETATM   12  C   UNL     1      46.767 145.573  24.880  1.00  0.00     0.228 C 
HETATM   13  N   UNL     1      46.048 147.260  27.018  1.00  0.00    -0.248 N 
HETATM   14  C   UNL     1      47.474 147.121  26.722  1.00  0.00     0.239 C 
HETATM   15  C   UNL     1      47.643 145.741  26.114  1.00  0.00     0.108 C 
HETATM   16  O   UNL     1      46.366 147.376  22.741  1.00  0.00    -0.266 OA
BRANCH  13  17
HETATM   17  S   UNL     1      45.718 147.562  28.565  1.00  0.00     0.210 S 
HETATM   18  O   UNL     1      44.352 147.954  28.680  1.00  0.00    -0.578 OA
HETATM   19  O   UNL     1      45.851 146.297  29.260  1.00  0.00    -0.578 OA
HETATM   20  O   UNL     1      46.642 148.572  29.010  1.00  0.00    -0.578 OA
ENDBRANCH  13  17
BRANCH  14  21
HETATM   21  O   UNL     1      47.883 148.086  25.780  1.00  0.00    -0.376 OA
ATOM     22  HO  UNL     1      48.005 148.917  26.226  1.00  0.00     0.212 HD
ENDBRANCH  14  21
BRANCH  12  23
HETATM   23  O   UNL     1      47.548 145.397  23.721  1.00  0.00    -0.376 OA
ATOM     24  HO  UNL     1      48.274 146.010  23.700  1.00  0.00     0.212 HD
ENDBRANCH  12  23
ENDBRANCH   2   9
BRANCH   8  25
HETATM   25  C   UNL     1      40.258 149.634  21.721  1.00  0.00     0.399 C 
HETATM   26  N   UNL     1      40.531 150.222  20.461  1.00  0.00     0.020 N 
HETATM   27  CA  UNL     1      39.501 149.981  19.541  1.00  0.00     0.384 C 
ATOM     28  HN2 UNL     1      41.434 149.918  20.097  1.00  0.00     0.287 HD
ATOM     29  HN1 UNL     1      40.724 151.220  20.551  1.00  0.00     0.287 HD
HETATM   30  C   UNL     1      38.446 149.351  20.374  1.00  0.00     0.264 C 
HETATM   31  O   UNL     1      37.247 149.233  20.127  1.00  0.00    -0.270 OA
HETATM   32  N   UNL     1      38.953 149.069  21.602  1.00  0.00    -0.285 N 
ATOM     33  HN  UNL     1      38.474 148.536  22.328  1.00  0.00     0.169 HD
BRANCH  27  34
HETATM   34  C   UNL     1      39.048 150.992  18.502  1.00  0.00     0.214 C 
HETATM   35  O   UNL     1      39.790 151.952  18.232  1.00  0.00    -0.646 OA
HETATM   36  OXT UNL     1      37.951 150.805  17.914  1.00  0.00    -0.646 OA
ENDBRANCH  27  34
BRANCH  25  37
HETATM   37  O   UNL     1      40.225 150.598  22.643  1.00  0.00    -0.331 OA
ATOM     38  HO  UNL     1      41.044 150.585  23.124  1.00  0.00     0.216 HD
ENDBRANCH  25  37
ENDBRANCH   8  25
TORSDOF 7
ENDMDL
