REMARK  0 active torsions:
REMARK  status: ('A' for Active; 'I' for Inactive)
ROOT
HETATM    1  C   UNL     1      29.197  67.165   6.441  1.00  0.00     0.090 C 
HETATM    2  N   UNL     1      26.440  65.642   4.474  1.00  0.00    -0.074 N 
ATOM      3  HN1 UNL     1      26.022  66.535   4.211  1.00  0.00     0.277 HD
ATOM      4  HN2 UNL     1      26.275  65.131   3.607  1.00  0.00     0.277 HD
HETATM    5  C   UNL     1      30.045  66.978   8.449  1.00  0.00     0.137 C 
HETATM    6  N   UNL     1      30.546  67.162   6.292  1.00  0.00    -0.339 N 
ATOM      7  HN  UNL     1      31.068  67.073   5.420  1.00  0.00     0.167 HD
HETATM    8  C   UNL     1      26.434  67.060   7.227  1.00  0.00     0.006 C 
HETATM    9  N   UNL     1      32.012  66.758   9.489  1.00  0.00    -0.287 N 
ATOM     10  HN  UNL     1      32.710  66.321  10.091  1.00  0.00     0.172 HD
HETATM   11  C   UNL     1      32.254  67.376   8.303  1.00  0.00     0.277 C 
HETATM   12  C   UNL     1      25.733  65.027   5.605  1.00  0.00     0.232 C 
HETATM   13  C   UNL     1      30.623  66.828   9.742  1.00  0.00     0.277 C 
HETATM   14  C   UNL     1      31.063  67.303   7.551  1.00  0.00     0.135 C 
HETATM   15  C   UNL     1      27.524  66.871   8.297  1.00  0.00     0.135 C 
HETATM   16  C   UNL     1      26.864  67.786   5.926  1.00  0.00     0.020 C 
HETATM   17  C   UNL     1      27.885  65.781   4.757  1.00  0.00     0.244 C 
HETATM   18  O   UNL     1      30.098  65.976  10.548  1.00  0.00    -0.266 OA
HETATM   19  O   UNL     1      33.360  67.737   7.929  1.00  0.00    -0.266 OA
HETATM   20  C   UNL     1      28.160  67.172   5.345  1.00  0.00     0.080 C 
HETATM   21  C   UNL     1      25.754  65.715   6.952  1.00  0.00     0.034 C 
HETATM   22  N   UNL     1      28.885  66.981   7.747  1.00  0.00    -0.329 N 
ENDROOT
TORSDOF 0
