REMARK  6 active torsions:
REMARK  status: ('A' for Active; 'I' for Inactive)
REMARK       I    between atoms: N_2  and  C_30 
REMARK    1  A    between atoms: C_3  and  O_21 
REMARK    2  A    between atoms: C_4  and  C_12 
REMARK    3  A    between atoms: C_4  and  C_26 
REMARK       I    between atoms: N_5  and  C_9 
REMARK       I    between atoms: N_5  and  C_27 
REMARK       I    between atoms: N_5  and  C_30 
REMARK    4  A    between atoms: C_16  and  C_28 
REMARK    5  A    between atoms: C_16  and  C_29 
REMARK    6  A    between atoms: C_26  and  C_29 
ROOT
HETATM    1  C   UNL     1     -19.528 -23.551  13.161  1.00  0.00     0.118 C 
HETATM    2  N   UNL     1     -23.218 -20.312  12.714  1.00  0.00    -0.333 N 
HETATM    3  N   UNL     1     -21.593 -22.067  13.167  1.00  0.00    -0.175 N 
HETATM    4  O   UNL     1     -21.791 -23.575  11.411  1.00  0.00    -0.629 OA
HETATM    5  C   UNL     1     -20.254 -22.313  13.621  1.00  0.00     0.233 C 
HETATM    6  O   UNL     1     -21.974 -20.319  14.590  1.00  0.00    -0.246 OA
HETATM    7  C   UNL     1     -23.826 -18.186  11.368  1.00  0.00     0.004 C 
HETATM    8  C   UNL     1     -24.650 -18.444  10.102  1.00  0.00     0.011 C 
HETATM    9  C   UNL     1     -24.595 -20.396  13.207  1.00  0.00     0.132 C 
HETATM   10  C   UNL     1     -24.747 -17.934  12.583  1.00  0.00     0.012 C 
HETATM   11  C   UNL     1     -22.853 -19.339  11.670  1.00  0.00     0.132 C 
HETATM   12  O   UNL     1     -23.352 -23.560  12.994  1.00  0.00    -0.629 OA
HETATM   13  O   UNL     1     -19.700 -21.522  14.366  1.00  0.00    -0.273 OA
HETATM   14  C   UNL     1     -25.523 -19.233  12.830  1.00  0.00     0.004 C 
HETATM   15  C   UNL     1     -26.363 -19.630  11.609  1.00  0.00     0.011 C 
HETATM   16  C   UNL     1     -22.295 -23.143  12.488  1.00  0.00     0.301 C 
HETATM   17  C   UNL     1     -26.013 -19.093  10.229  1.00  0.00    -0.014 C 
HETATM   18  C   UNL     1     -22.264 -20.868  13.534  1.00  0.00     0.336 C 
ENDROOT
BRANCH  17  19
HETATM   19  C   UNL     1     -27.145 -18.273   9.605  1.00  0.00     0.005 C 
BRANCH  19  20
HETATM   20  C   UNL     1     -28.253 -19.215   9.116  1.00  0.00     0.001 C 
BRANCH  20  21
HETATM   21  C   UNL     1     -28.481 -19.061   7.620  1.00  0.00     0.005 C 
BRANCH  21  22
HETATM   22  C   UNL     1     -27.202 -18.838   6.851  1.00  0.00     0.038 C 
BRANCH  22  23
HETATM   23  C   UNL     1     -26.843 -19.886   5.830  1.00  0.00    -0.056 A 
HETATM   24  C   UNL     1     -27.520 -21.105   5.717  1.00  0.00     0.007 A 
HETATM   25  C   UNL     1     -27.088 -22.060   4.792  1.00  0.00     0.003 A 
HETATM   26  C   UNL     1     -26.063 -21.757   3.907  1.00  0.00     0.036 A 
HETATM   27  C   UNL     1     -25.368 -20.552   4.031  1.00  0.00     0.066 A 
HETATM   28  C   UNL     1     -25.770 -19.611   4.979  1.00  0.00     0.043 A 
BRANCH  27  29
HETATM   29  O   UNL     1     -24.258 -20.330   3.284  1.00  0.00    -0.361 OA
ATOM     30  HO  UNL     1     -23.785 -19.510   3.368  1.00  0.00     0.217 HD
ENDBRANCH  27  29
ENDBRANCH  22  23
ENDBRANCH  21  22
ENDBRANCH  20  21
ENDBRANCH  19  20
ENDBRANCH  17  19
TORSDOF 6
