MODEL 1
REMARK VINA RESULT:     -10.8      0.000      0.000
REMARK  5 active torsions:
REMARK  status: ('A' for Active; 'I' for Inactive)
REMARK    1  A    between atoms: C_1  and  C_11 
REMARK    2  A    between atoms: C_1  and  C_13 
REMARK    3  A    between atoms: C_8  and  C_21 
REMARK    4  A    between atoms: C_10  and  C_22 
REMARK    5  A    between atoms: C_23  and  C_28 
ROOT
HETATM    1  C   UNL     1      13.683  26.396 -13.575  1.00  0.00     0.096 C 
HETATM    2  N   UNL     1      14.004  27.693 -13.330  1.00  0.00    -0.365 N 
ATOM      3  HN  UNL     1      13.702  28.171 -12.481  1.00  0.00     0.165 HD
HETATM    4  C   UNL     1      14.246  25.745 -14.686  1.00  0.00    -0.031 C 
HETATM    5  C   UNL     1      15.486  26.211 -15.109  1.00  0.00    -0.038 C 
HETATM    6  C   UNL     1      15.771  27.548 -14.892  1.00  0.00    -0.028 C 
HETATM    7  C   UNL     1      17.105  28.147 -15.223  1.00  0.00     0.051 C 
HETATM    8  C   UNL     1      14.748  28.316 -14.276  1.00  0.00     0.038 C 
ENDROOT
BRANCH   8   9
HETATM    9  C   UNL     1      14.460  29.718 -14.643  1.00  0.00     0.031 C 
HETATM   10  C   UNL     1      14.997  30.802 -14.230  1.00  0.00     0.013 C 
BRANCH  10  11
HETATM   11  C   UNL     1      16.392  31.331 -14.242  1.00  0.00    -0.036 C 
HETATM   12  C   UNL     1      17.090  31.337 -15.436  1.00  0.00     0.011 C 
HETATM   13  C   UNL     1      18.413  31.750 -15.481  1.00  0.00     0.001 C 
HETATM   14  C   UNL     1      18.996  32.323 -14.365  1.00  0.00     0.000 C 
HETATM   15  C   UNL     1      18.310  32.333 -13.154  1.00  0.00     0.001 C 
HETATM   16  C   UNL     1      17.000  31.847 -13.086  1.00  0.00     0.011 C 
ENDBRANCH  10  11
ENDBRANCH   8   9
BRANCH   5  17
HETATM   17  C   UNL     1      16.436  25.239 -15.764  1.00  0.00     0.078 C 
BRANCH  17  18
HETATM   18  C   UNL     1      16.563  25.449 -17.247  1.00  0.00    -0.054 C 
HETATM   19  C   UNL     1      17.843  25.612 -17.752  1.00  0.00     0.007 C 
HETATM   20  C   UNL     1      18.027  25.978 -19.075  1.00  0.00     0.001 C 
HETATM   21  C   UNL     1      16.935  26.038 -19.933  1.00  0.00     0.000 C 
HETATM   22  C   UNL     1      15.660  25.737 -19.460  1.00  0.00     0.001 C 
HETATM   23  C   UNL     1      15.464  25.525 -18.098  1.00  0.00     0.007 C 
ENDBRANCH  17  18
ENDBRANCH   5  17
BRANCH   4  24
HETATM   24  C   UNL     1      13.594  24.625 -15.437  1.00  0.00     0.020 C 
HETATM   25  C   UNL     1      13.936  23.246 -14.893  1.00  0.00     0.009 C 
HETATM   26  C   UNL     1      12.658  22.688 -14.286  1.00  0.00     0.001 C 
HETATM   27  C   UNL     1      11.702  23.858 -14.232  1.00  0.00     0.001 C 
HETATM   28  C   UNL     1      12.099  24.772 -15.354  1.00  0.00     0.009 C 
ENDBRANCH   4  24
TORSDOF 5
ENDMDL
MODEL 2
REMARK VINA RESULT:     -10.1      1.262      6.874
REMARK  5 active torsions:
REMARK  status: ('A' for Active; 'I' for Inactive)
REMARK    1  A    between atoms: C_1  and  C_11 
REMARK    2  A    between atoms: C_1  and  C_13 
REMARK    3  A    between atoms: C_8  and  C_21 
REMARK    4  A    between atoms: C_10  and  C_22 
REMARK    5  A    between atoms: C_23  and  C_28 
ROOT
HETATM    1  C   UNL     1      16.612  26.420 -14.276  1.00  0.00     0.096 C 
HETATM    2  N   UNL     1      15.717  26.181 -13.283  1.00  0.00    -0.365 N 
ATOM      3  HN  UNL     1      15.919  25.535 -12.521  1.00  0.00     0.165 HD
HETATM    4  C   UNL     1      16.341  27.427 -15.219  1.00  0.00    -0.031 C 
HETATM    5  C   UNL     1      15.536  28.476 -14.787  1.00  0.00    -0.038 C 
HETATM    6  C   UNL     1      14.598  28.195 -13.808  1.00  0.00    -0.028 C 
HETATM    7  C   UNL     1      13.734  29.258 -13.199  1.00  0.00     0.051 C 
HETATM    8  C   UNL     1      14.539  26.849 -13.362  1.00  0.00     0.038 C 
ENDROOT
BRANCH   8   9
HETATM    9  C   UNL     1      13.275  26.167 -13.019  1.00  0.00     0.031 C 
HETATM   10  C   UNL     1      12.529  25.412 -13.733  1.00  0.00     0.013 C 
BRANCH  10  11
HETATM   11  C   UNL     1      12.755  24.127 -14.456  1.00  0.00    -0.036 C 
HETATM   12  C   UNL     1      13.677  24.097 -15.487  1.00  0.00     0.011 C 
HETATM   13  C   UNL     1      13.866  22.944 -16.234  1.00  0.00     0.001 C 
HETATM   14  C   UNL     1      13.263  21.761 -15.846  1.00  0.00     0.000 C 
HETATM   15  C   UNL     1      12.336  21.767 -14.807  1.00  0.00     0.001 C 
HETATM   16  C   UNL     1      12.083  22.946 -14.098  1.00  0.00     0.011 C 
ENDBRANCH  10  11
ENDBRANCH   8   9
BRANCH   5  17
HETATM   17  C   UNL     1      15.738  29.840 -15.399  1.00  0.00     0.078 C 
BRANCH  17  18
HETATM   18  C   UNL     1      16.713  30.689 -14.633  1.00  0.00    -0.054 C 
HETATM   19  C   UNL     1      16.182  31.662 -13.802  1.00  0.00     0.007 C 
HETATM   20  C   UNL     1      17.013  32.591 -13.199  1.00  0.00     0.001 C 
HETATM   21  C   UNL     1      18.392  32.457 -13.307  1.00  0.00     0.000 C 
HETATM   22  C   UNL     1      18.934  31.393 -14.028  1.00  0.00     0.001 C 
HETATM   23  C   UNL     1      18.093  30.560 -14.760  1.00  0.00     0.007 C 
ENDBRANCH  17  18
ENDBRANCH   5  17
BRANCH   4  24
HETATM   24  C   UNL     1      16.835  27.424 -16.633  1.00  0.00     0.020 C 
HETATM   25  C   UNL     1      18.054  26.540 -16.852  1.00  0.00     0.009 C 
HETATM   26  C   UNL     1      17.597  25.376 -17.717  1.00  0.00     0.001 C 
HETATM   27  C   UNL     1      16.088  25.460 -17.730  1.00  0.00     0.001 C 
HETATM   28  C   UNL     1      15.750  26.909 -17.540  1.00  0.00     0.009 C 
ENDBRANCH   4  24
TORSDOF 5
ENDMDL
MODEL 3
REMARK VINA RESULT:     -10.0      1.423      4.395
REMARK  5 active torsions:
REMARK  status: ('A' for Active; 'I' for Inactive)
REMARK    1  A    between atoms: C_1  and  C_11 
REMARK    2  A    between atoms: C_1  and  C_13 
REMARK    3  A    between atoms: C_8  and  C_21 
REMARK    4  A    between atoms: C_10  and  C_22 
REMARK    5  A    between atoms: C_23  and  C_28 
ROOT
HETATM    1  C   UNL     1      14.945  27.609 -17.095  1.00  0.00     0.096 C 
HETATM    2  N   UNL     1      14.464  28.294 -16.026  1.00  0.00    -0.365 N 
ATOM      3  HN  UNL     1      14.367  29.309 -16.036  1.00  0.00     0.165 HD
HETATM    4  C   UNL     1      14.920  26.204 -17.081  1.00  0.00    -0.031 C 
HETATM    5  C   UNL     1      13.925  25.613 -16.309  1.00  0.00    -0.038 C 
HETATM    6  C   UNL     1      13.485  26.309 -15.197  1.00  0.00    -0.028 C 
HETATM    7  C   UNL     1      12.358  25.819 -14.338  1.00  0.00     0.051 C 
HETATM    8  C   UNL     1      14.121  27.554 -14.943  1.00  0.00     0.038 C 
ENDROOT
BRANCH   8   9
HETATM    9  C   UNL     1      14.435  28.037 -13.583  1.00  0.00     0.031 C 
HETATM   10  C   UNL     1      15.506  28.564 -13.125  1.00  0.00     0.013 C 
BRANCH  10  11
HETATM   11  C   UNL     1      16.291  29.781 -13.486  1.00  0.00    -0.036 C 
HETATM   12  C   UNL     1      17.312  29.662 -14.413  1.00  0.00     0.011 C 
HETATM   13  C   UNL     1      18.115  30.750 -14.724  1.00  0.00     0.001 C 
HETATM   14  C   UNL     1      17.795  32.006 -14.241  1.00  0.00     0.000 C 
HETATM   15  C   UNL     1      16.769  32.149 -13.313  1.00  0.00     0.001 C 
HETATM   16  C   UNL     1      16.003  31.040 -12.936  1.00  0.00     0.011 C 
ENDBRANCH  10  11
ENDBRANCH   8   9
BRANCH   5  17
HETATM   17  C   UNL     1      13.385  24.269 -16.733  1.00  0.00     0.078 C 
BRANCH  17  18
HETATM   18  C   UNL     1      13.711  23.172 -15.759  1.00  0.00    -0.054 C 
HETATM   19  C   UNL     1      15.023  22.728 -15.727  1.00  0.00     0.007 C 
HETATM   20  C   UNL     1      15.361  21.610 -14.984  1.00  0.00     0.001 C 
HETATM   21  C   UNL     1      14.415  21.022 -14.153  1.00  0.00     0.000 C 
HETATM   22  C   UNL     1      13.129  21.553 -14.075  1.00  0.00     0.001 C 
HETATM   23  C   UNL     1      12.754  22.575 -14.943  1.00  0.00     0.007 C 
ENDBRANCH  17  18
ENDBRANCH   5  17
BRANCH   4  24
HETATM   24  C   UNL     1      15.893  25.327 -17.807  1.00  0.00     0.020 C 
HETATM   25  C   UNL     1      16.182  25.785 -19.229  1.00  0.00     0.009 C 
HETATM   26  C   UNL     1      17.626  26.262 -19.248  1.00  0.00     0.001 C 
HETATM   27  C   UNL     1      18.035  26.342 -17.795  1.00  0.00     0.001 C 
HETATM   28  C   UNL     1      17.206  25.322 -17.072  1.00  0.00     0.009 C 
ENDBRANCH   4  24
TORSDOF 5
ENDMDL
MODEL 4
REMARK VINA RESULT:     -10.0      1.307      4.196
REMARK  5 active torsions:
REMARK  status: ('A' for Active; 'I' for Inactive)
REMARK    1  A    between atoms: C_1  and  C_11 
REMARK    2  A    between atoms: C_1  and  C_13 
REMARK    3  A    between atoms: C_8  and  C_21 
REMARK    4  A    between atoms: C_10  and  C_22 
REMARK    5  A    between atoms: C_23  and  C_28 
ROOT
HETATM    1  C   UNL     1      15.044  27.579 -16.733  1.00  0.00     0.096 C 
HETATM    2  N   UNL     1      14.212  28.529 -16.231  1.00  0.00    -0.365 N 
ATOM      3  HN  UNL     1      13.625  29.103 -16.836  1.00  0.00     0.165 HD
HETATM    4  C   UNL     1      15.719  26.719 -15.850  1.00  0.00    -0.031 C 
HETATM    5  C   UNL     1      15.097  26.476 -14.630  1.00  0.00    -0.038 C 
HETATM    6  C   UNL     1      14.293  27.478 -14.116  1.00  0.00    -0.028 C 
HETATM    7  C   UNL     1      13.501  27.302 -12.855  1.00  0.00     0.051 C 
HETATM    8  C   UNL     1      14.207  28.671 -14.883  1.00  0.00     0.038 C 
ENDROOT
BRANCH   8   9
HETATM    9  C   UNL     1      14.142  30.016 -14.278  1.00  0.00     0.031 C 
HETATM   10  C   UNL     1      15.007  30.643 -13.575  1.00  0.00     0.013 C 
BRANCH  10  11
HETATM   11  C   UNL     1      16.415  31.075 -13.817  1.00  0.00    -0.036 C 
HETATM   12  C   UNL     1      16.909  32.158 -13.113  1.00  0.00     0.011 C 
HETATM   13  C   UNL     1      18.186  32.639 -13.360  1.00  0.00     0.001 C 
HETATM   14  C   UNL     1      19.043  31.935 -14.187  1.00  0.00     0.000 C 
HETATM   15  C   UNL     1      18.568  30.839 -14.901  1.00  0.00     0.001 C 
HETATM   16  C   UNL     1      17.255  30.394 -14.714  1.00  0.00     0.011 C 
ENDBRANCH  10  11
ENDBRANCH   8   9
BRANCH   5  17
HETATM   17  C   UNL     1      15.328  25.147 -13.954  1.00  0.00     0.078 C 
BRANCH  17  18
HETATM   18  C   UNL     1      14.451  24.053 -14.495  1.00  0.00    -0.054 C 
HETATM   19  C   UNL     1      13.086  24.182 -14.290  1.00  0.00     0.007 C 
HETATM   20  C   UNL     1      12.234  23.137 -14.606  1.00  0.00     0.001 C 
HETATM   21  C   UNL     1      12.728  22.018 -15.266  1.00  0.00     0.000 C 
HETATM   22  C   UNL     1      14.079  21.947 -15.601  1.00  0.00     0.001 C 
HETATM   23  C   UNL     1      14.954  22.927 -15.140  1.00  0.00     0.007 C 
ENDBRANCH  17  18
ENDBRANCH   5  17
BRANCH   4  24
HETATM   24  C   UNL     1      17.048  26.085 -16.128  1.00  0.00     0.020 C 
HETATM   25  C   UNL     1      16.965  24.867 -17.035  1.00  0.00     0.009 C 
HETATM   26  C   UNL     1      17.629  25.255 -18.347  1.00  0.00     0.001 C 
HETATM   27  C   UNL     1      17.812  26.753 -18.270  1.00  0.00     0.001 C 
HETATM   28  C   UNL     1      17.943  27.083 -16.812  1.00  0.00     0.009 C 
ENDBRANCH   4  24
TORSDOF 5
ENDMDL
MODEL 5
REMARK VINA RESULT:      -9.7      1.189      1.641
REMARK  5 active torsions:
REMARK  status: ('A' for Active; 'I' for Inactive)
REMARK    1  A    between atoms: C_1  and  C_11 
REMARK    2  A    between atoms: C_1  and  C_13 
REMARK    3  A    between atoms: C_8  and  C_21 
REMARK    4  A    between atoms: C_10  and  C_22 
REMARK    5  A    between atoms: C_23  and  C_28 
ROOT
HETATM    1  C   UNL     1      14.573  25.016 -13.995  1.00  0.00     0.096 C 
HETATM    2  N   UNL     1      14.911  26.241 -13.515  1.00  0.00    -0.365 N 
ATOM      3  HN  UNL     1      15.446  26.353 -12.655  1.00  0.00     0.165 HD
HETATM    4  C   UNL     1      13.964  24.914 -15.257  1.00  0.00    -0.031 C 
HETATM    5  C   UNL     1      14.261  25.923 -16.168  1.00  0.00    -0.038 C 
HETATM    6  C   UNL     1      14.554  27.175 -15.656  1.00  0.00    -0.028 C 
HETATM    7  C   UNL     1      14.975  28.318 -16.530  1.00  0.00     0.051 C 
HETATM    8  C   UNL     1      14.495  27.306 -14.243  1.00  0.00     0.038 C 
ENDROOT
BRANCH   8   9
HETATM    9  C   UNL     1      13.985  28.515 -13.566  1.00  0.00     0.031 C 
HETATM   10  C   UNL     1      14.609  29.402 -12.888  1.00  0.00     0.013 C 
BRANCH  10  11
HETATM   11  C   UNL     1      15.733  30.333 -13.198  1.00  0.00    -0.036 C 
HETATM   12  C   UNL     1      16.718  29.917 -14.076  1.00  0.00     0.011 C 
HETATM   13  C   UNL     1      17.819  30.720 -14.336  1.00  0.00     0.001 C 
HETATM   14  C   UNL     1      17.859  32.016 -13.856  1.00  0.00     0.000 C 
HETATM   15  C   UNL     1      16.875  32.458 -12.976  1.00  0.00     0.001 C 
HETATM   16  C   UNL     1      15.800  31.624 -12.648  1.00  0.00     0.011 C 
ENDBRANCH  10  11
ENDBRANCH   8   9
BRANCH   5  17
HETATM   17  C   UNL     1      14.254  25.590 -17.639  1.00  0.00     0.078 C 
BRANCH  17  18
HETATM   18  C   UNL     1      15.621  25.651 -18.262  1.00  0.00    -0.054 C 
HETATM   19  C   UNL     1      16.703  25.419 -17.427  1.00  0.00     0.007 C 
HETATM   20  C   UNL     1      17.992  25.625 -17.887  1.00  0.00     0.001 C 
HETATM   21  C   UNL     1      18.209  25.921 -19.228  1.00  0.00     0.000 C 
HETATM   22  C   UNL     1      17.128  26.015 -20.103  1.00  0.00     0.001 C 
HETATM   23  C   UNL     1      15.831  25.964 -19.602  1.00  0.00     0.007 C 
ENDBRANCH  17  18
ENDBRANCH   5  17
BRANCH   4  24
HETATM   24  C   UNL     1      13.016  23.826 -15.660  1.00  0.00     0.020 C 
HETATM   25  C   UNL     1      13.709  22.535 -16.068  1.00  0.00     0.009 C 
HETATM   26  C   UNL     1      13.377  21.506 -14.998  1.00  0.00     0.001 C 
HETATM   27  C   UNL     1      12.757  22.296 -13.868  1.00  0.00     0.001 C 
HETATM   28  C   UNL     1      12.115  23.495 -14.502  1.00  0.00     0.009 C 
ENDBRANCH   4  24
TORSDOF 5
ENDMDL
MODEL 6
REMARK VINA RESULT:      -8.2      1.605      6.616
REMARK  5 active torsions:
REMARK  status: ('A' for Active; 'I' for Inactive)
REMARK    1  A    between atoms: C_1  and  C_11 
REMARK    2  A    between atoms: C_1  and  C_13 
REMARK    3  A    between atoms: C_8  and  C_21 
REMARK    4  A    between atoms: C_10  and  C_22 
REMARK    5  A    between atoms: C_23  and  C_28 
ROOT
HETATM    1  C   UNL     1      14.144  28.555 -15.671  1.00  0.00     0.096 C 
HETATM    2  N   UNL     1      14.232  27.912 -16.864  1.00  0.00    -0.365 N 
ATOM      3  HN  UNL     1      13.581  28.101 -17.626  1.00  0.00     0.165 HD
HETATM    4  C   UNL     1      15.152  28.365 -14.710  1.00  0.00    -0.031 C 
HETATM    5  C   UNL     1      16.414  28.044 -15.198  1.00  0.00    -0.038 C 
HETATM    6  C   UNL     1      16.477  27.346 -16.391  1.00  0.00    -0.028 C 
HETATM    7  C   UNL     1      17.778  27.020 -17.062  1.00  0.00     0.051 C 
HETATM    8  C   UNL     1      15.233  27.006 -16.986  1.00  0.00     0.038 C 
ENDROOT
BRANCH   8   9
HETATM    9  C   UNL     1      14.995  25.727 -17.685  1.00  0.00     0.031 C 
HETATM   10  C   UNL     1      14.884  24.542 -17.215  1.00  0.00     0.013 C 
BRANCH  10  11
HETATM   11  C   UNL     1      13.960  23.908 -16.230  1.00  0.00    -0.036 C 
HETATM   12  C   UNL     1      14.148  22.576 -15.905  1.00  0.00     0.011 C 
HETATM   13  C   UNL     1      13.269  21.926 -15.051  1.00  0.00     0.001 C 
HETATM   14  C   UNL     1      12.298  22.645 -14.379  1.00  0.00     0.000 C 
HETATM   15  C   UNL     1      12.095  23.988 -14.686  1.00  0.00     0.001 C 
HETATM   16  C   UNL     1      12.931  24.632 -15.606  1.00  0.00     0.011 C 
ENDBRANCH  10  11
ENDBRANCH   8   9
BRANCH   5  17
HETATM   17  C   UNL     1      17.624  28.479 -14.408  1.00  0.00     0.078 C 
BRANCH  17  18
HETATM   18  C   UNL     1      17.805  29.970 -14.383  1.00  0.00    -0.054 C 
HETATM   19  C   UNL     1      18.558  30.530 -15.403  1.00  0.00     0.007 C 
HETATM   20  C   UNL     1      18.910  31.868 -15.354  1.00  0.00     0.001 C 
HETATM   21  C   UNL     1      18.384  32.684 -14.359  1.00  0.00     0.000 C 
HETATM   22  C   UNL     1      17.510  32.153 -13.412  1.00  0.00     0.001 C 
HETATM   23  C   UNL     1      17.289  30.780 -13.375  1.00  0.00     0.007 C 
ENDBRANCH  17  18
ENDBRANCH   5  17
BRANCH   4  24
HETATM   24  C   UNL     1      14.946  28.459 -13.229  1.00  0.00     0.020 C 
HETATM   25  C   UNL     1      13.541  28.886 -12.836  1.00  0.00     0.009 C 
HETATM   26  C   UNL     1      12.889  27.682 -12.172  1.00  0.00     0.001 C 
HETATM   27  C   UNL     1      13.816  26.523 -12.461  1.00  0.00     0.001 C 
HETATM   28  C   UNL     1      15.188  27.112 -12.605  1.00  0.00     0.009 C 
ENDBRANCH   4  24
TORSDOF 5
ENDMDL
MODEL 7
REMARK VINA RESULT:      -7.9      1.971      6.826
REMARK  5 active torsions:
REMARK  status: ('A' for Active; 'I' for Inactive)
REMARK    1  A    between atoms: C_1  and  C_11 
REMARK    2  A    between atoms: C_1  and  C_13 
REMARK    3  A    between atoms: C_8  and  C_21 
REMARK    4  A    between atoms: C_10  and  C_22 
REMARK    5  A    between atoms: C_23  and  C_28 
ROOT
HETATM    1  C   UNL     1      13.394  27.022 -13.343  1.00  0.00     0.096 C 
HETATM    2  N   UNL     1      13.180  26.563 -14.603  1.00  0.00    -0.365 N 
ATOM      3  HN  UNL     1      12.511  25.819 -14.798  1.00  0.00     0.165 HD
HETATM    4  C   UNL     1      14.216  28.146 -13.150  1.00  0.00    -0.031 C 
HETATM    5  C   UNL     1      14.279  29.051 -14.204  1.00  0.00    -0.038 C 
HETATM    6  C   UNL     1      14.106  28.552 -15.483  1.00  0.00    -0.028 C 
HETATM    7  C   UNL     1      14.065  29.439 -16.691  1.00  0.00     0.051 C 
HETATM    8  C   UNL     1      13.905  27.150 -15.588  1.00  0.00     0.038 C 
ENDROOT
BRANCH   8   9
HETATM    9  C   UNL     1      14.467  26.334 -16.683  1.00  0.00     0.031 C 
HETATM   10  C   UNL     1      15.202  25.288 -16.635  1.00  0.00     0.013 C 
BRANCH  10  11
HETATM   11  C   UNL     1      15.031  23.936 -16.029  1.00  0.00    -0.036 C 
HETATM   12  C   UNL     1      16.159  23.234 -15.642  1.00  0.00     0.011 C 
HETATM   13  C   UNL     1      16.052  21.944 -15.142  1.00  0.00     0.001 C 
HETATM   14  C   UNL     1      14.806  21.412 -14.862  1.00  0.00     0.000 C 
HETATM   15  C   UNL     1      13.659  22.104 -15.237  1.00  0.00     0.001 C 
HETATM   16  C   UNL     1      13.762  23.375 -15.813  1.00  0.00     0.011 C 
ENDBRANCH  10  11
ENDBRANCH   8   9
BRANCH   5  17
HETATM   17  C   UNL     1      14.521  30.507 -13.891  1.00  0.00     0.078 C 
BRANCH  17  18
HETATM   18  C   UNL     1      15.979  30.873 -13.884  1.00  0.00    -0.054 C 
HETATM   19  C   UNL     1      16.354  31.951 -13.097  1.00  0.00     0.007 C 
HETATM   20  C   UNL     1      17.642  32.451 -13.172  1.00  0.00     0.001 C 
HETATM   21  C   UNL     1      18.601  31.781 -13.923  1.00  0.00     0.000 C 
HETATM   22  C   UNL     1      18.261  30.614 -14.604  1.00  0.00     0.001 C 
HETATM   23  C   UNL     1      16.931  30.208 -14.652  1.00  0.00     0.007 C 
ENDBRANCH  17  18
ENDBRANCH   5  17
BRANCH   4  24
HETATM   24  C   UNL     1      15.027  28.406 -11.918  1.00  0.00     0.020 C 
HETATM   25  C   UNL     1      14.263  29.145 -10.830  1.00  0.00     0.009 C 
HETATM   26  C   UNL     1      14.075  28.161  -9.685  1.00  0.00     0.001 C 
HETATM   27  C   UNL     1      14.468  26.816 -10.251  1.00  0.00     0.001 C 
HETATM   28  C   UNL     1      15.474  27.096 -11.329  1.00  0.00     0.009 C 
ENDBRANCH   4  24
TORSDOF 5
ENDMDL
