MODEL 1
REMARK VINA RESULT:      -8.9      0.000      0.000
REMARK  3 active torsions:
REMARK  status: ('A' for Active; 'I' for Inactive)
REMARK    1  A    between atoms: C_4  and  O_18 
REMARK    2  A    between atoms: O_5  and  C_31 
REMARK    3  A    between atoms: C_31  and  O_34 
ROOT
HETATM    1  N   UNL     1      19.221  17.150 405.324  1.00  0.00    -0.345 N 
ATOM      2  HN  UNL     1      19.699  17.223 404.426  1.00  0.00     0.160 HD
HETATM    3  O   UNL     1      11.987  15.641 406.179  1.00  0.00    -0.267 OA
HETATM    4  C   UNL     1      14.109  15.766 401.695  1.00  0.00     0.082 C 
HETATM    5  C   UNL     1      14.034  16.658 405.396  1.00  0.00     0.055 C 
HETATM    6  C   UNL     1      14.610  16.643 403.992  1.00  0.00     0.005 C 
HETATM    7  O   UNL     1      11.479  16.967 402.108  1.00  0.00    -0.267 OA
HETATM    8  C   UNL     1      14.705  16.752 406.781  1.00  0.00    -0.012 C 
HETATM    9  C   UNL     1      16.048  16.651 403.580  1.00  0.00    -0.044 C 
HETATM   10  C   UNL     1      15.470  15.401 401.536  1.00  0.00     0.038 C 
HETATM   11  C   UNL     1      17.762  17.018 405.353  1.00  0.00     0.098 C 
HETATM   12  N   UNL     1      11.787  17.032 404.369  1.00  0.00    -0.289 N 
ATOM     13  HN  UNL     1      10.997  17.647 404.569  1.00  0.00     0.172 HD
HETATM   14  C   UNL     1      12.523  16.394 405.387  1.00  0.00     0.260 C 
HETATM   15  C   UNL     1      16.347  17.622 408.589  1.00  0.00    -0.044 C 
HETATM   16  C   UNL     1      18.065  18.667 407.325  1.00  0.00     0.105 C 
HETATM   17  C   UNL     1      15.712  16.824 409.599  1.00  0.00     0.008 C 
HETATM   18  C   UNL     1      16.436  15.765 402.517  1.00  0.00     0.011 C 
HETATM   19  C   UNL     1      12.208  16.766 403.089  1.00  0.00     0.262 C 
HETATM   20  C   UNL     1      17.455  18.625 408.727  1.00  0.00     0.044 C 
HETATM   21  C   UNL     1      13.646  16.444 402.885  1.00  0.00     0.077 C 
HETATM   22  C   UNL     1      18.612  18.286 409.662  1.00  0.00     0.031 C 
HETATM   23  C   UNL     1      15.983  17.434 407.180  1.00  0.00    -0.032 C 
HETATM   24  C   UNL     1      19.897  18.299 408.825  1.00  0.00     0.125 C 
HETATM   25  N   UNL     1      19.424  18.201 407.442  1.00  0.00    -0.336 N 
HETATM   26  C   UNL     1      17.114  17.986 406.361  1.00  0.00     0.066 C 
HETATM   27  C   UNL     1      20.009  17.179 406.562  1.00  0.00     0.331 C 
HETATM   28  C   UNL     1      14.063  16.025 407.901  1.00  0.00     0.013 C 
HETATM   29  C   UNL     1      17.135  17.606 404.058  1.00  0.00     0.065 C 
HETATM   30  C   UNL     1      14.581  16.034 409.238  1.00  0.00     0.001 C 
ENDROOT
BRANCH  27  31
HETATM   31  O   UNL     1      20.027  15.978 407.141  1.00  0.00    -0.331 OA
ATOM     32  HO  UNL     1      20.625  15.968 407.879  1.00  0.00     0.217 HD
ENDBRANCH  27  31
BRANCH  27  33
HETATM   33  O   UNL     1      21.267  17.561 406.263  1.00  0.00    -0.331 OA
ATOM     34  HO  UNL     1      21.284  18.506 406.173  1.00  0.00     0.217 HD
ENDBRANCH  27  33
BRANCH   4  35
HETATM   35  O   UNL     1      13.206  15.411 400.737  1.00  0.00    -0.360 OA
ATOM     36  HO  UNL     1      12.378  15.873 400.685  1.00  0.00     0.217 HD
ENDBRANCH   4  35
TORSDOF 3
ENDMDL
MODEL 2
REMARK VINA RESULT:      -8.8      1.954      7.458
REMARK  3 active torsions:
REMARK  status: ('A' for Active; 'I' for Inactive)
REMARK    1  A    between atoms: C_4  and  O_18 
REMARK    2  A    between atoms: O_5  and  C_31 
REMARK    3  A    between atoms: C_31  and  O_34 
ROOT
HETATM    1  N   UNL     1      12.102  15.715 407.067  1.00  0.00    -0.345 N 
ATOM      2  HN  UNL     1      11.920  15.821 408.065  1.00  0.00     0.160 HD
HETATM    3  O   UNL     1      18.552  17.325 403.730  1.00  0.00    -0.267 OA
HETATM    4  C   UNL     1      17.980  17.764 408.639  1.00  0.00     0.082 C 
HETATM    5  C   UNL     1      16.578  17.525 405.106  1.00  0.00     0.055 C 
HETATM    6  C   UNL     1      16.498  17.655 406.617  1.00  0.00     0.005 C 
HETATM    7  O   UNL     1      19.414  19.819 407.140  1.00  0.00    -0.267 OA
HETATM    8  C   UNL     1      15.602  16.928 404.074  1.00  0.00    -0.012 C 
HETATM    9  C   UNL     1      15.430  17.153 407.535  1.00  0.00    -0.044 C 
HETATM   10  C   UNL     1      17.093  16.905 409.336  1.00  0.00     0.038 C 
HETATM   11  C   UNL     1      13.356  16.228 406.507  1.00  0.00     0.098 C 
HETATM   12  N   UNL     1      18.511  19.108 405.167  1.00  0.00    -0.289 N 
ATOM     13  HN  UNL     1      18.792  19.922 404.619  1.00  0.00     0.172 HD
HETATM   14  C   UNL     1      17.950  17.958 404.577  1.00  0.00     0.260 C 
HETATM   15  C   UNL     1      13.323  16.454 402.931  1.00  0.00    -0.044 C 
HETATM   16  C   UNL     1      11.735  16.957 404.625  1.00  0.00     0.105 C 
HETATM   17  C   UNL     1      13.969  15.765 401.850  1.00  0.00     0.008 C 
HETATM   18  C   UNL     1      15.850  16.523 408.757  1.00  0.00     0.011 C 
HETATM   19  C   UNL     1      18.650  19.056 406.532  1.00  0.00     0.262 C 
HETATM   20  C   UNL     1      11.872  16.794 403.109  1.00  0.00     0.044 C 
HETATM   21  C   UNL     1      17.691  18.213 407.296  1.00  0.00     0.077 C 
HETATM   22  C   UNL     1      10.839  15.739 402.721  1.00  0.00     0.031 C 
HETATM   23  C   UNL     1      14.102  16.845 404.112  1.00  0.00    -0.032 C 
HETATM   24  C   UNL     1      10.010  15.427 403.973  1.00  0.00     0.125 C 
HETATM   25  N   UNL     1      10.826  15.935 405.078  1.00  0.00    -0.336 N 
HETATM   26  C   UNL     1      13.122  17.056 405.229  1.00  0.00     0.066 C 
HETATM   27  C   UNL     1      11.103  15.052 406.220  1.00  0.00     0.331 C 
HETATM   28  C   UNL     1      16.187  16.271 402.882  1.00  0.00     0.013 C 
HETATM   29  C   UNL     1      13.927  17.366 407.398  1.00  0.00     0.065 C 
HETATM   30  C   UNL     1      15.392  15.680 401.845  1.00  0.00     0.001 C 
ENDROOT
BRANCH  27  31
HETATM   31  O   UNL     1      11.535  13.854 405.826  1.00  0.00    -0.331 OA
ATOM     32  HO  UNL     1      10.910  13.446 405.239  1.00  0.00     0.217 HD
ENDBRANCH  27  31
BRANCH  27  33
HETATM   33  O   UNL     1       9.962  14.916 406.926  1.00  0.00    -0.331 OA
ATOM     34  HO  UNL     1       9.226  14.991 406.330  1.00  0.00     0.217 HD
ENDBRANCH  27  33
BRANCH   4  35
HETATM   35  O   UNL     1      19.160  18.119 409.220  1.00  0.00    -0.360 OA
ATOM     36  HO  UNL     1      19.897  18.356 408.669  1.00  0.00     0.217 HD
ENDBRANCH   4  35
TORSDOF 3
ENDMDL
MODEL 3
REMARK VINA RESULT:      -8.5      2.410      6.829
REMARK  3 active torsions:
REMARK  status: ('A' for Active; 'I' for Inactive)
REMARK    1  A    between atoms: C_4  and  O_18 
REMARK    2  A    between atoms: O_5  and  C_31 
REMARK    3  A    between atoms: C_31  and  O_34 
ROOT
HETATM    1  N   UNL     1      13.492  16.132 403.226  1.00  0.00    -0.345 N 
ATOM      2  HN  UNL     1      14.190  15.716 402.609  1.00  0.00     0.160 HD
HETATM    3  O   UNL     1      15.025  20.617 408.959  1.00  0.00    -0.267 OA
HETATM    4  C   UNL     1      18.599  18.863 405.997  1.00  0.00     0.082 C 
HETATM    5  C   UNL     1      15.083  18.728 407.454  1.00  0.00     0.055 C 
HETATM    6  C   UNL     1      16.233  18.263 406.578  1.00  0.00     0.005 C 
HETATM    7  O   UNL     1      18.999  18.946 408.889  1.00  0.00    -0.267 OA
HETATM    8  C   UNL     1      13.555  18.602 407.296  1.00  0.00    -0.012 C 
HETATM    9  C   UNL     1      16.168  17.592 405.243  1.00  0.00    -0.044 C 
HETATM   10  C   UNL     1      18.331  18.600 404.630  1.00  0.00     0.038 C 
HETATM   11  C   UNL     1      13.932  16.858 404.421  1.00  0.00     0.098 C 
HETATM   12  N   UNL     1      16.756  19.147 409.264  1.00  0.00    -0.289 N 
ATOM     13  HN  UNL     1      16.795  18.957 410.266  1.00  0.00     0.172 HD
HETATM   14  C   UNL     1      15.580  19.587 408.624  1.00  0.00     0.260 C 
HETATM   15  C   UNL     1      11.291  17.455 406.768  1.00  0.00    -0.044 C 
HETATM   16  C   UNL     1      11.910  15.594 405.427  1.00  0.00     0.105 C 
HETATM   17  C   UNL     1      10.562  18.603 407.227  1.00  0.00     0.008 C 
HETATM   18  C   UNL     1      17.083  18.042 404.231  1.00  0.00     0.011 C 
HETATM   19  C   UNL     1      17.845  18.992 408.441  1.00  0.00     0.262 C 
HETATM   20  C   UNL     1      10.775  16.123 406.307  1.00  0.00     0.044 C 
HETATM   21  C   UNL     1      17.594  18.651 407.015  1.00  0.00     0.077 C 
HETATM   22  C   UNL     1       9.534  16.108 405.419  1.00  0.00     0.031 C 
HETATM   23  C   UNL     1      12.749  17.532 406.616  1.00  0.00    -0.032 C 
HETATM   24  C   UNL     1       9.920  15.422 404.102  1.00  0.00     0.125 C 
HETATM   25  N   UNL     1      11.384  15.469 404.091  1.00  0.00    -0.336 N 
HETATM   26  C   UNL     1      13.147  16.432 405.676  1.00  0.00     0.066 C 
HETATM   27  C   UNL     1      12.068  15.991 402.900  1.00  0.00     0.331 C 
HETATM   28  C   UNL     1      12.722  19.709 407.822  1.00  0.00     0.013 C 
HETATM   29  C   UNL     1      15.338  16.370 404.870  1.00  0.00     0.065 C 
HETATM   30  C   UNL     1      11.290  19.715 407.742  1.00  0.00     0.001 C 
ENDROOT
BRANCH  27  31
HETATM   31  O   UNL     1      11.555  17.157 402.504  1.00  0.00    -0.331 OA
ATOM     32  HO  UNL     1      12.180  17.861 402.629  1.00  0.00     0.217 HD
ENDBRANCH  27  31
BRANCH  27  33
HETATM   33  O   UNL     1      11.940  15.079 401.915  1.00  0.00    -0.331 OA
ATOM     34  HO  UNL     1      12.501  14.338 402.113  1.00  0.00     0.217 HD
ENDBRANCH  27  33
BRANCH   4  35
HETATM   35  O   UNL     1      19.805  19.391 406.352  1.00  0.00    -0.360 OA
ATOM     36  HO  UNL     1      20.555  18.815 406.442  1.00  0.00     0.217 HD
ENDBRANCH   4  35
TORSDOF 3
ENDMDL
MODEL 4
REMARK VINA RESULT:      -8.5      2.526      4.952
REMARK  3 active torsions:
REMARK  status: ('A' for Active; 'I' for Inactive)
REMARK    1  A    between atoms: C_4  and  O_18 
REMARK    2  A    between atoms: O_5  and  C_31 
REMARK    3  A    between atoms: C_31  and  O_34 
ROOT
HETATM    1  N   UNL     1      16.790  19.501 407.238  1.00  0.00    -0.345 N 
ATOM      2  HN  UNL     1      16.747  20.042 408.102  1.00  0.00     0.160 HD
HETATM    3  O   UNL     1      10.943  16.324 403.915  1.00  0.00    -0.267 OA
HETATM    4  C   UNL     1      10.434  19.060 408.023  1.00  0.00     0.082 C 
HETATM    5  C   UNL     1      12.528  16.982 405.615  1.00  0.00     0.055 C 
HETATM    6  C   UNL     1      12.280  17.830 406.849  1.00  0.00     0.005 C 
HETATM    7  O   UNL     1       8.954  16.559 407.733  1.00  0.00    -0.267 OA
HETATM    8  C   UNL     1      13.786  16.769 404.751  1.00  0.00    -0.012 C 
HETATM    9  C   UNL     1      13.221  18.770 407.533  1.00  0.00    -0.044 C 
HETATM   10  C   UNL     1      11.315  20.142 408.277  1.00  0.00     0.038 C 
HETATM   11  C   UNL     1      15.598  18.784 406.779  1.00  0.00     0.098 C 
HETATM   12  N   UNL     1      10.351  15.844 406.075  1.00  0.00    -0.289 N 
ATOM     13  HN  UNL     1      10.031  14.874 406.074  1.00  0.00     0.172 HD
HETATM   14  C   UNL     1      11.230  16.350 405.097  1.00  0.00     0.260 C 
HETATM   15  C   UNL     1      16.294  16.355 404.238  1.00  0.00    -0.044 C 
HETATM   16  C   UNL     1      17.386  16.988 406.251  1.00  0.00     0.105 C 
HETATM   17  C   UNL     1      16.022  16.227 402.835  1.00  0.00     0.008 C 
HETATM   18  C   UNL     1      12.698  20.040 407.956  1.00  0.00     0.011 C 
HETATM   19  C   UNL     1       9.956  16.748 407.031  1.00  0.00     0.262 C 
HETATM   20  C   UNL     1      17.586  16.164 404.977  1.00  0.00     0.044 C 
HETATM   21  C   UNL     1      10.891  17.858 407.363  1.00  0.00     0.077 C 
HETATM   22  C   UNL     1      18.861  16.710 404.338  1.00  0.00     0.031 C 
HETATM   23  C   UNL     1      15.235  16.816 405.144  1.00  0.00    -0.032 C 
HETATM   24  C   UNL     1      19.470  17.719 405.320  1.00  0.00     0.125 C 
HETATM   25  N   UNL     1      18.368  18.043 406.230  1.00  0.00    -0.336 N 
HETATM   26  C   UNL     1      15.915  17.330 406.380  1.00  0.00     0.066 C 
HETATM   27  C   UNL     1      18.047  19.455 406.480  1.00  0.00     0.331 C 
HETATM   28  C   UNL     1      13.588  16.544 403.300  1.00  0.00     0.013 C 
HETATM   29  C   UNL     1      14.651  18.478 407.973  1.00  0.00     0.065 C 
HETATM   30  C   UNL     1      14.672  16.328 402.386  1.00  0.00     0.001 C 
ENDROOT
BRANCH  27  31
HETATM   31  O   UNL     1      17.943  20.149 405.347  1.00  0.00    -0.331 OA
ATOM     32  HO  UNL     1      18.300  19.657 404.616  1.00  0.00     0.217 HD
ENDBRANCH  27  31
BRANCH  27  33
HETATM   33  O   UNL     1      19.030  19.974 407.245  1.00  0.00    -0.331 OA
ATOM     34  HO  UNL     1      19.828  19.486 407.084  1.00  0.00     0.217 HD
ENDBRANCH  27  33
BRANCH   4  35
HETATM   35  O   UNL     1       9.115  19.183 408.346  1.00  0.00    -0.360 OA
ATOM     36  HO  UNL     1       8.456  18.977 407.694  1.00  0.00     0.217 HD
ENDBRANCH   4  35
TORSDOF 3
ENDMDL
MODEL 5
REMARK VINA RESULT:      -8.4      2.763      3.498
REMARK  3 active torsions:
REMARK  status: ('A' for Active; 'I' for Inactive)
REMARK    1  A    between atoms: C_4  and  O_18 
REMARK    2  A    between atoms: O_5  and  C_31 
REMARK    3  A    between atoms: C_31  and  O_34 
ROOT
HETATM    1  N   UNL     1      19.272  20.501 407.889  1.00  0.00    -0.345 N 
ATOM      2  HN  UNL     1      20.101  20.602 407.303  1.00  0.00     0.160 HD
HETATM    3  O   UNL     1      13.516  16.038 406.379  1.00  0.00    -0.267 OA
HETATM    4  C   UNL     1      17.515  16.211 403.448  1.00  0.00     0.082 C 
HETATM    5  C   UNL     1      15.249  17.700 406.121  1.00  0.00     0.055 C 
HETATM    6  C   UNL     1      16.448  17.667 405.190  1.00  0.00     0.005 C 
HETATM    7  O   UNL     1      14.842  16.120 402.277  1.00  0.00    -0.267 OA
HETATM    8  C   UNL     1      15.031  18.373 407.491  1.00  0.00    -0.012 C 
HETATM    9  C   UNL     1      17.807  18.253 405.408  1.00  0.00    -0.044 C 
HETATM   10  C   UNL     1      18.793  16.491 403.995  1.00  0.00     0.038 C 
HETATM   11  C   UNL     1      18.134  19.721 407.396  1.00  0.00     0.098 C 
HETATM   12  N   UNL     1      13.883  16.778 404.242  1.00  0.00    -0.289 N 
ATOM     13  HN  UNL     1      12.964  16.986 403.851  1.00  0.00     0.172 HD
HETATM   14  C   UNL     1      14.130  16.774 405.630  1.00  0.00     0.260 C 
HETATM   15  C   UNL     1      15.130  20.249 409.277  1.00  0.00    -0.044 C 
HETATM   16  C   UNL     1      16.846  21.687 408.480  1.00  0.00     0.105 C 
HETATM   17  C   UNL     1      14.336  19.473 410.187  1.00  0.00     0.008 C 
HETATM   18  C   UNL     1      18.941  17.450 405.037  1.00  0.00     0.011 C 
HETATM   19  C   UNL     1      14.969  16.482 403.455  1.00  0.00     0.262 C 
HETATM   20  C   UNL     1      15.638  21.654 409.420  1.00  0.00     0.044 C 
HETATM   21  C   UNL     1      16.320  16.826 403.978  1.00  0.00     0.077 C 
HETATM   22  C   UNL     1      16.173  22.085 410.783  1.00  0.00     0.031 C 
HETATM   23  C   UNL     1      15.635  19.632 408.045  1.00  0.00    -0.032 C 
HETATM   24  C   UNL     1      17.632  22.518 410.586  1.00  0.00     0.125 C 
HETATM   25  N   UNL     1      18.008  21.934 409.297  1.00  0.00    -0.336 N 
HETATM   26  C   UNL     1      16.798  20.463 407.587  1.00  0.00     0.066 C 
HETATM   27  C   UNL     1      19.242  21.142 409.210  1.00  0.00     0.331 C 
HETATM   28  C   UNL     1      14.152  17.677 408.460  1.00  0.00     0.013 C 
HETATM   29  C   UNL     1      18.134  19.676 405.842  1.00  0.00     0.065 C 
HETATM   30  C   UNL     1      13.863  18.196 409.765  1.00  0.00     0.001 C 
ENDROOT
BRANCH  27  31
HETATM   31  O   UNL     1      19.317  20.231 410.180  1.00  0.00    -0.331 OA
ATOM     32  HO  UNL     1      18.539  19.686 410.193  1.00  0.00     0.217 HD
ENDBRANCH  27  31
BRANCH  27  33
HETATM   33  O   UNL     1      20.287  21.991 409.299  1.00  0.00    -0.331 OA
ATOM     34  HO  UNL     1      20.599  21.994 410.196  1.00  0.00     0.217 HD
ENDBRANCH  27  33
BRANCH   4  35
HETATM   35  O   UNL     1      17.405  15.293 402.446  1.00  0.00    -0.360 OA
ATOM     36  HO  UNL     1      16.849  14.533 402.572  1.00  0.00     0.217 HD
ENDBRANCH   4  35
TORSDOF 3
ENDMDL
MODEL 6
REMARK VINA RESULT:      -8.4      1.685      2.428
REMARK  3 active torsions:
REMARK  status: ('A' for Active; 'I' for Inactive)
REMARK    1  A    between atoms: C_4  and  O_18 
REMARK    2  A    between atoms: O_5  and  C_31 
REMARK    3  A    between atoms: C_31  and  O_34 
ROOT
HETATM    1  N   UNL     1      19.819  17.389 405.753  1.00  0.00    -0.345 N 
ATOM      2  HN  UNL     1      20.672  17.176 405.236  1.00  0.00     0.160 HD
HETATM    3  O   UNL     1      12.943  15.658 403.506  1.00  0.00    -0.267 OA
HETATM    4  C   UNL     1      16.946  14.353 400.881  1.00  0.00     0.082 C 
HETATM    5  C   UNL     1      15.206  16.503 403.498  1.00  0.00     0.055 C 
HETATM    6  C   UNL     1      16.377  16.036 402.653  1.00  0.00     0.005 C 
HETATM    7  O   UNL     1      14.575  15.386 399.524  1.00  0.00    -0.267 OA
HETATM    8  C   UNL     1      15.141  17.145 404.898  1.00  0.00    -0.012 C 
HETATM    9  C   UNL     1      17.830  16.021 403.009  1.00  0.00    -0.044 C 
HETATM   10  C   UNL     1      18.173  14.076 401.535  1.00  0.00     0.038 C 
HETATM   11  C   UNL     1      18.518  17.149 405.123  1.00  0.00     0.098 C 
HETATM   12  N   UNL     1      13.772  16.284 401.464  1.00  0.00    -0.289 N 
ATOM     13  HN  UNL     1      13.049  16.858 401.027  1.00  0.00     0.172 HD
HETATM   14  C   UNL     1      13.865  16.121 402.861  1.00  0.00     0.260 C 
HETATM   15  C   UNL     1      15.801  18.746 406.828  1.00  0.00    -0.044 C 
HETATM   16  C   UNL     1      18.010  19.415 406.266  1.00  0.00     0.105 C 
HETATM   17  C   UNL     1      14.683  18.312 407.617  1.00  0.00     0.008 C 
HETATM   18  C   UNL     1      18.586  14.851 402.657  1.00  0.00     0.011 C 
HETATM   19  C   UNL     1      14.723  15.615 400.732  1.00  0.00     0.262 C 
HETATM   20  C   UNL     1      16.804  19.825 407.114  1.00  0.00     0.044 C 
HETATM   21  C   UNL     1      16.043  15.369 401.373  1.00  0.00     0.077 C 
HETATM   22  C   UNL     1      17.334  19.947 408.540  1.00  0.00     0.031 C 
HETATM   23  C   UNL     1      16.136  18.034 405.589  1.00  0.00    -0.032 C 
HETATM   24  C   UNL     1      18.857  19.771 408.479  1.00  0.00     0.125 C 
HETATM   25  N   UNL     1      19.093  19.143 407.177  1.00  0.00    -0.336 N 
HETATM   26  C   UNL     1      17.570  18.353 405.279  1.00  0.00     0.066 C 
HETATM   27  C   UNL     1      19.919  17.930 407.115  1.00  0.00     0.331 C 
HETATM   28  C   UNL     1      13.973  16.816 405.747  1.00  0.00     0.013 C 
HETATM   29  C   UNL     1      18.648  17.176 403.575  1.00  0.00     0.065 C 
HETATM   30  C   UNL     1      13.789  17.349 407.066  1.00  0.00     0.001 C 
ENDROOT
BRANCH  27  31
HETATM   31  O   UNL     1      19.538  17.023 408.014  1.00  0.00    -0.331 OA
ATOM     32  HO  UNL     1      18.645  17.183 408.298  1.00  0.00     0.217 HD
ENDBRANCH  27  31
BRANCH  27  33
HETATM   33  O   UNL     1      21.200  18.287 407.342  1.00  0.00    -0.331 OA
ATOM     34  HO  UNL     1      21.221  18.886 408.079  1.00  0.00     0.217 HD
ENDBRANCH  27  33
BRANCH   4  35
HETATM   35  O   UNL     1      16.578  13.600 399.806  1.00  0.00    -0.360 OA
ATOM     36  HO  UNL     1      17.067  13.678 398.995  1.00  0.00     0.217 HD
ENDBRANCH   4  35
TORSDOF 3
ENDMDL
MODEL 7
REMARK VINA RESULT:      -8.3      2.576      4.296
REMARK  3 active torsions:
REMARK  status: ('A' for Active; 'I' for Inactive)
REMARK    1  A    between atoms: C_4  and  O_18 
REMARK    2  A    between atoms: O_5  and  C_31 
REMARK    3  A    between atoms: C_31  and  O_34 
ROOT
HETATM    1  N   UNL     1      16.572  15.821 403.379  1.00  0.00    -0.345 N 
ATOM      2  HN  UNL     1      15.958  15.501 402.629  1.00  0.00     0.160 HD
HETATM    3  O   UNL     1      14.251  18.829 409.774  1.00  0.00    -0.267 OA
HETATM    4  C   UNL     1      11.051  17.185 406.358  1.00  0.00     0.082 C 
HETATM    5  C   UNL     1      14.504  18.393 407.411  1.00  0.00     0.055 C 
HETATM    6  C   UNL     1      13.459  17.885 406.435  1.00  0.00     0.005 C 
HETATM    7  O   UNL     1      10.556  19.712 407.735  1.00  0.00    -0.267 OA
HETATM    8  C   UNL     1      16.039  18.251 407.439  1.00  0.00    -0.012 C 
HETATM    9  C   UNL     1      13.658  17.021 405.231  1.00  0.00    -0.044 C 
HETATM   10  C   UNL     1      11.394  16.093 405.521  1.00  0.00     0.038 C 
HETATM   11  C   UNL     1      15.999  16.551 404.513  1.00  0.00     0.098 C 
HETATM   12  N   UNL     1      12.736  19.858 408.397  1.00  0.00    -0.289 N 
ATOM     13  HN  UNL     1      12.693  20.832 408.698  1.00  0.00     0.172 HD
HETATM   14  C   UNL     1      13.857  19.040 408.642  1.00  0.00     0.260 C 
HETATM   15  C   UNL     1      18.457  18.235 406.503  1.00  0.00    -0.044 C 
HETATM   16  C   UNL     1      18.147  17.952 404.165  1.00  0.00     0.105 C 
HETATM   17  C   UNL     1      19.003  18.070 407.820  1.00  0.00     0.008 C 
HETATM   18  C   UNL     1      12.719  15.953 405.020  1.00  0.00     0.011 C 
HETATM   19  C   UNL     1      11.704  19.249 407.724  1.00  0.00     0.262 C 
HETATM   20  C   UNL     1      19.169  18.433 405.197  1.00  0.00     0.044 C 
HETATM   21  C   UNL     1      12.044  18.142 406.790  1.00  0.00     0.077 C 
HETATM   22  C   UNL     1      20.426  17.608 404.937  1.00  0.00     0.031 C 
HETATM   23  C   UNL     1      17.008  18.122 406.298  1.00  0.00    -0.032 C 
HETATM   24  C   UNL     1      20.180  16.785 403.666  1.00  0.00     0.125 C 
HETATM   25  N   UNL     1      18.725  16.811 403.500  1.00  0.00    -0.336 N 
HETATM   26  C   UNL     1      16.797  17.827 404.841  1.00  0.00     0.066 C 
HETATM   27  C   UNL     1      18.011  15.543 403.299  1.00  0.00     0.331 C 
HETATM   28  C   UNL     1      16.693  18.161 408.766  1.00  0.00     0.013 C 
HETATM   29  C   UNL     1      14.663  17.233 404.105  1.00  0.00     0.065 C 
HETATM   30  C   UNL     1      18.111  18.031 408.932  1.00  0.00     0.001 C 
ENDROOT
BRANCH  27  31
HETATM   31  O   UNL     1      18.367  14.625 404.199  1.00  0.00    -0.331 OA
ATOM     32  HO  UNL     1      18.673  13.835 403.772  1.00  0.00     0.217 HD
ENDBRANCH  27  31
BRANCH  27  33
HETATM   33  O   UNL     1      18.295  15.098 402.058  1.00  0.00    -0.331 OA
ATOM     34  HO  UNL     1      17.599  14.517 401.777  1.00  0.00     0.217 HD
ENDBRANCH  27  33
BRANCH   4  35
HETATM   35  O   UNL     1       9.772  17.298 406.817  1.00  0.00    -0.360 OA
ATOM     36  HO  UNL     1       9.053  17.293 406.197  1.00  0.00     0.217 HD
ENDBRANCH   4  35
TORSDOF 3
ENDMDL
MODEL 8
REMARK VINA RESULT:      -8.1      1.665      2.124
REMARK  3 active torsions:
REMARK  status: ('A' for Active; 'I' for Inactive)
REMARK    1  A    between atoms: C_4  and  O_18 
REMARK    2  A    between atoms: O_5  and  C_31 
REMARK    3  A    between atoms: C_31  and  O_34 
ROOT
HETATM    1  N   UNL     1      17.923  16.997 403.789  1.00  0.00    -0.345 N 
ATOM      2  HN  UNL     1      17.895  17.369 402.839  1.00  0.00     0.160 HD
HETATM    3  O   UNL     1      12.062  14.251 407.454  1.00  0.00    -0.267 OA
HETATM    4  C   UNL     1      11.693  15.836 402.767  1.00  0.00     0.082 C 
HETATM    5  C   UNL     1      13.451  15.730 406.143  1.00  0.00     0.055 C 
HETATM    6  C   UNL     1      13.259  16.162 404.700  1.00  0.00     0.005 C 
HETATM    7  O   UNL     1       9.604  16.483 404.703  1.00  0.00    -0.267 OA
HETATM    8  C   UNL     1      14.718  15.567 407.006  1.00  0.00    -0.012 C 
HETATM    9  C   UNL     1      14.305  16.490 403.684  1.00  0.00    -0.044 C 
HETATM   10  C   UNL     1      12.799  15.733 401.886  1.00  0.00     0.038 C 
HETATM   11  C   UNL     1      16.669  16.645 404.460  1.00  0.00     0.098 C 
HETATM   12  N   UNL     1      10.988  16.012 406.457  1.00  0.00    -0.289 N 
ATOM     13  HN  UNL     1      10.397  16.430 407.177  1.00  0.00     0.172 HD
HETATM   14  C   UNL     1      12.134  15.253 406.767  1.00  0.00     0.260 C 
HETATM   15  C   UNL     1      17.034  16.181 407.994  1.00  0.00    -0.044 C 
HETATM   16  C   UNL     1      17.899  17.761 406.445  1.00  0.00     0.105 C 
HETATM   17  C   UNL     1      16.984  15.066 408.897  1.00  0.00     0.008 C 
HETATM   18  C   UNL     1      14.122  15.975 402.354  1.00  0.00     0.011 C 
HETATM   19  C   UNL     1      10.723  16.149 405.116  1.00  0.00     0.262 C 
HETATM   20  C   UNL     1      18.061  17.270 407.886  1.00  0.00     0.044 C 
HETATM   21  C   UNL     1      11.875  16.110 404.174  1.00  0.00     0.077 C 
HETATM   22  C   UNL     1      19.531  16.881 408.018  1.00  0.00     0.031 C 
HETATM   23  C   UNL     1      16.023  16.308 406.938  1.00  0.00    -0.032 C 
HETATM   24  C   UNL     1      20.235  17.301 406.721  1.00  0.00     0.125 C 
HETATM   25  N   UNL     1      19.141  17.490 405.766  1.00  0.00    -0.336 N 
HETATM   26  C   UNL     1      16.600  17.214 405.890  1.00  0.00     0.066 C 
HETATM   27  C   UNL     1      19.220  16.827 404.456  1.00  0.00     0.331 C 
HETATM   28  C   UNL     1      14.716  14.490 408.023  1.00  0.00     0.013 C 
HETATM   29  C   UNL     1      15.482  17.444 403.853  1.00  0.00     0.065 C 
HETATM   30  C   UNL     1      15.827  14.234 408.893  1.00  0.00     0.001 C 
ENDROOT
BRANCH  27  31
HETATM   31  O   UNL     1      19.527  15.535 404.573  1.00  0.00    -0.331 OA
ATOM     32  HO  UNL     1      20.355  15.424 405.025  1.00  0.00     0.217 HD
ENDBRANCH  27  31
BRANCH  27  33
HETATM   33  O   UNL     1      20.164  17.457 403.729  1.00  0.00    -0.331 OA
ATOM     34  HO  UNL     1      20.251  17.013 402.894  1.00  0.00     0.217 HD
ENDBRANCH  27  33
BRANCH   4  35
HETATM   35  O   UNL     1      10.437  15.606 402.290  1.00  0.00    -0.360 OA
ATOM     36  HO  UNL     1       9.727  15.455 402.903  1.00  0.00     0.217 HD
ENDBRANCH   4  35
TORSDOF 3
ENDMDL
MODEL 9
REMARK VINA RESULT:      -8.1      2.400      5.439
REMARK  3 active torsions:
REMARK  status: ('A' for Active; 'I' for Inactive)
REMARK    1  A    between atoms: C_4  and  O_18 
REMARK    2  A    between atoms: O_5  and  C_31 
REMARK    3  A    between atoms: C_31  and  O_34 
ROOT
HETATM    1  N   UNL     1      11.822  17.826 406.162  1.00  0.00    -0.345 N 
ATOM      2  HN  UNL     1      11.101  17.267 405.705  1.00  0.00     0.160 HD
HETATM    3  O   UNL     1      18.929  18.181 403.994  1.00  0.00    -0.267 OA
HETATM    4  C   UNL     1      15.573  15.518 401.491  1.00  0.00     0.082 C 
HETATM    5  C   UNL     1      16.776  17.294 404.637  1.00  0.00     0.055 C 
HETATM    6  C   UNL     1      15.807  16.483 403.795  1.00  0.00     0.005 C 
HETATM    7  O   UNL     1      18.243  14.437 401.968  1.00  0.00    -0.267 OA
HETATM    8  C   UNL     1      16.551  18.259 405.817  1.00  0.00    -0.012 C 
HETATM    9  C   UNL     1      14.313  16.466 403.859  1.00  0.00    -0.044 C 
HETATM   10  C   UNL     1      14.215  15.926 401.457  1.00  0.00     0.038 C 
HETATM   11  C   UNL     1      13.218  17.677 405.743  1.00  0.00     0.098 C 
HETATM   12  N   UNL     1      18.626  15.937 403.646  1.00  0.00    -0.289 N 
ATOM     13  HN  UNL     1      19.459  15.477 404.016  1.00  0.00     0.172 HD
HETATM   14  C   UNL     1      18.206  17.207 404.090  1.00  0.00     0.260 C 
HETATM   15  C   UNL     1      15.552  19.114 408.052  1.00  0.00    -0.044 C 
HETATM   16  C   UNL     1      13.570  17.828 408.303  1.00  0.00     0.105 C 
HETATM   17  C   UNL     1      16.433  20.247 408.053  1.00  0.00     0.008 C 
HETATM   18  C   UNL     1      13.597  16.482 402.613  1.00  0.00     0.011 C 
HETATM   19  C   UNL     1      17.834  15.362 402.682  1.00  0.00     0.262 C 
HETATM   20  C   UNL     1      14.569  18.673 409.097  1.00  0.00     0.044 C 
HETATM   21  C   UNL     1      16.390  15.724 402.665  1.00  0.00     0.077 C 
HETATM   22  C   UNL     1      13.732  19.747 409.787  1.00  0.00     0.031 C 
HETATM   23  C   UNL     1      15.473  18.256 406.864  1.00  0.00    -0.032 C 
HETATM   24  C   UNL     1      12.257  19.418 409.525  1.00  0.00     0.125 C 
HETATM   25  N   UNL     1      12.293  18.492 408.391  1.00  0.00    -0.336 N 
HETATM   26  C   UNL     1      14.168  17.518 406.946  1.00  0.00     0.066 C 
HETATM   27  C   UNL     1      11.440  18.763 407.225  1.00  0.00     0.331 C 
HETATM   28  C   UNL     1      17.474  19.412 405.942  1.00  0.00     0.013 C 
HETATM   29  C   UNL     1      13.450  16.280 405.101  1.00  0.00     0.065 C 
HETATM   30  C   UNL     1      17.378  20.381 406.994  1.00  0.00     0.001 C 
ENDROOT
BRANCH  27  31
HETATM   31  O   UNL     1      11.556  20.025 406.809  1.00  0.00    -0.331 OA
ATOM     32  HO  UNL     1      12.436  20.350 406.957  1.00  0.00     0.217 HD
ENDBRANCH  27  31
BRANCH  27  33
HETATM   33  O   UNL     1      10.163  18.515 407.579  1.00  0.00    -0.331 OA
ATOM     34  HO  UNL     1      10.056  18.729 408.499  1.00  0.00     0.217 HD
ENDBRANCH  27  33
BRANCH   4  35
HETATM   35  O   UNL     1      16.137  14.983 400.371  1.00  0.00    -0.360 OA
ATOM     36  HO  UNL     1      17.044  14.701 400.397  1.00  0.00     0.217 HD
ENDBRANCH   4  35
TORSDOF 3
ENDMDL
