REMARK  4 active torsions:
REMARK  status: ('A' for Active; 'I' for Inactive)
REMARK    1  A    between atoms: O_3  and  C_23 
REMARK    2  A    between atoms: C_10  and  O_18 
REMARK    3  A    between atoms: C_11  and  C_13 
REMARK    4  A    between atoms: O_14  and  C_17 
ROOT
HETATM    1  O   UNL     1     373.746 151.980  59.377  1.00  0.00    -0.294 OA
HETATM    2  C   UNL     1     377.276 154.926  63.006  1.00  0.00     0.080 C 
HETATM    3  C   UNL     1     374.055 154.203  60.402  1.00  0.00     0.123 C 
HETATM    4  C   UNL     1     377.263 153.797  62.174  1.00  0.00     0.017 C 
HETATM    5  C   UNL     1     376.179 153.623  61.319  1.00  0.00     0.001 C 
HETATM    6  C   UNL     1     375.869 152.566  60.325  1.00  0.00     0.222 C 
HETATM    7  C   UNL     1     376.611 156.073  62.560  1.00  0.00     0.074 C 
HETATM    8  C   UNL     1     375.265 154.647  61.161  1.00  0.00    -0.008 C 
HETATM    9  C   UNL     1     374.420 152.778  60.026  1.00  0.00     0.164 C 
HETATM   10  C   UNL     1     375.717 155.919  61.488  1.00  0.00     0.075 C 
ENDROOT
BRANCH   4  11
HETATM   11  C   UNL     1     378.437 153.034  62.025  1.00  0.00    -0.022 C 
HETATM   12  C   UNL     1     378.738 151.901  62.787  1.00  0.00     0.012 C 
HETATM   13  C   UNL     1     379.640 150.976  62.277  1.00  0.00     0.001 C 
HETATM   14  C   UNL     1     380.095 151.105  60.967  1.00  0.00     0.007 C 
HETATM   15  C   UNL     1     379.737 152.253  60.272  1.00  0.00    -0.061 C 
HETATM   16  C   UNL     1     379.715 152.260  58.779  1.00  0.00     0.048 C 
HETATM   17  C   UNL     1     379.299 153.357  60.980  1.00  0.00     0.019 C 
ENDBRANCH   4  11
BRANCH   2  18
HETATM   18  O   UNL     1     378.093 154.956  64.084  1.00  0.00    -0.360 OA
ATOM     19  HO  UNL     1     378.102 155.721  64.648  1.00  0.00     0.217 HD
ENDBRANCH   2  18
BRANCH   6  20
HETATM   20  O   UNL     1     376.098 151.269  60.811  1.00  0.00    -0.383 OA
ATOM     21  HO  UNL     1     375.900 150.592  60.175  1.00  0.00     0.211 HD
ENDBRANCH   6  20
BRANCH  10  22
HETATM   22  O   UNL     1     375.641 156.907  60.559  1.00  0.00    -0.360 OA
ATOM     23  HO  UNL     1     375.036 156.803  59.834  1.00  0.00     0.217 HD
ENDBRANCH  10  22
TORSDOF 4
