MODEL 1
REMARK VINA RESULT:      -7.4      0.000      0.000
REMARK  5 active torsions:
REMARK  status: ('A' for Active; 'I' for Inactive)
REMARK    1  A    between atoms: N_4  and  O_12 
REMARK    2  A    between atoms: C_6  and  O_10 
REMARK    3  A    between atoms: C_6  and  O_16 
REMARK    4  A    between atoms: O_14  and  C_22 
REMARK    5  A    between atoms: C_20  and  O_24 
ROOT
HETATM    1  C   UNL     1     377.493 150.627  61.816  1.00  0.00     0.046 C 
HETATM    2  C   UNL     1     379.195 151.785  63.460  1.00  0.00     0.091 C 
HETATM    3  C   UNL     1     377.421 151.956  61.044  1.00  0.00    -0.015 C 
HETATM    4  N   UNL     1     379.005 154.216  63.620  1.00  0.00    -0.269 N 
HETATM    5  C   UNL     1     376.342 154.072  61.810  1.00  0.00     0.029 C 
HETATM    6  C   UNL     1     374.537 154.353  60.322  1.00  0.00     0.190 C 
HETATM    7  C   UNL     1     378.544 152.048  60.019  1.00  0.00     0.020 C 
HETATM    8  C   UNL     1     378.579 153.090  63.008  1.00  0.00     0.040 C 
HETATM    9  C   UNL     1     377.471 153.098  62.039  1.00  0.00    -0.042 C 
HETATM   10  C   UNL     1     378.237 154.778  64.708  1.00  0.00     0.185 C 
HETATM   11  C   UNL     1     375.073 153.815  62.615  1.00  0.00     0.047 C 
HETATM   12  C   UNL     1     373.915 153.829  61.614  1.00  0.00     0.181 C 
HETATM   13  C   UNL     1     376.062 152.209  60.336  1.00  0.00     0.024 C 
HETATM   14  C   UNL     1     378.513 150.520  62.956  1.00  0.00     0.124 C 
HETATM   15  C   UNL     1     375.949 153.756  60.358  1.00  0.00     0.060 C 
ENDROOT
BRANCH   6  16
HETATM   16  O   UNL     1     374.618 155.768  60.336  1.00  0.00    -0.363 OA
ATOM     17  HO  UNL     1     375.003 156.009  61.170  1.00  0.00     0.213 HD
ENDBRANCH   6  16
BRANCH   6  18
HETATM   18  O   UNL     1     373.830 154.009  59.178  1.00  0.00    -0.363 OA
ATOM     19  HO  UNL     1     374.303 153.291  58.774  1.00  0.00     0.213 HD
ENDBRANCH   6  18
BRANCH  12  20
HETATM   20  O   UNL     1     372.845 154.658  62.048  1.00  0.00    -0.390 OA
ATOM     21  HO  UNL     1     372.039 154.164  62.141  1.00  0.00     0.210 HD
ENDBRANCH  12  20
BRANCH   4  22
HETATM   22  O   UNL     1     380.300 154.582  63.540  1.00  0.00    -0.288 OA
ATOM     23  HO  UNL     1     380.983 153.923  63.549  1.00  0.00     0.244 HD
ENDBRANCH   4  22
BRANCH  14  24
HETATM   24  O   UNL     1     377.858 149.928  64.079  1.00  0.00    -0.395 OA
ATOM     25  HO  UNL     1     378.517 149.741  64.738  1.00  0.00     0.210 HD
ENDBRANCH  14  24
TORSDOF 5
ENDMDL
MODEL 2
REMARK VINA RESULT:      -7.1      1.008      1.142
REMARK  5 active torsions:
REMARK  status: ('A' for Active; 'I' for Inactive)
REMARK    1  A    between atoms: N_4  and  O_12 
REMARK    2  A    between atoms: C_6  and  O_10 
REMARK    3  A    between atoms: C_6  and  O_16 
REMARK    4  A    between atoms: O_14  and  C_22 
REMARK    5  A    between atoms: C_20  and  O_24 
ROOT
HETATM    1  C   UNL     1     378.771 150.733  62.497  1.00  0.00     0.046 C 
HETATM    2  C   UNL     1     380.111 152.241  64.192  1.00  0.00     0.091 C 
HETATM    3  C   UNL     1     378.606 151.978  61.608  1.00  0.00    -0.015 C 
HETATM    4  N   UNL     1     379.578 154.625  64.118  1.00  0.00    -0.269 N 
HETATM    5  C   UNL     1     377.173 153.968  62.075  1.00  0.00     0.029 C 
HETATM    6  C   UNL     1     375.521 153.878  60.398  1.00  0.00     0.190 C 
HETATM    7  C   UNL     1     379.812 152.155  60.694  1.00  0.00     0.020 C 
HETATM    8  C   UNL     1     379.378 153.407  63.569  1.00  0.00     0.040 C 
HETATM    9  C   UNL     1     378.392 153.186  62.499  1.00  0.00    -0.042 C 
HETATM   10  C   UNL     1     378.627 155.149  65.071  1.00  0.00     0.185 C 
HETATM   11  C   UNL     1     375.870 153.591  62.771  1.00  0.00     0.047 C 
HETATM   12  C   UNL     1     374.837 153.366  61.664  1.00  0.00     0.181 C 
HETATM   13  C   UNL     1     377.310 151.981  60.750  1.00  0.00     0.024 C 
HETATM   14  C   UNL     1     379.665 150.858  63.737  1.00  0.00     0.124 C 
HETATM   15  C   UNL     1     376.988 153.493  60.625  1.00  0.00     0.060 C 
ENDROOT
BRANCH   6  16
HETATM   16  O   UNL     1     375.409 155.287  60.295  1.00  0.00    -0.363 OA
ATOM     17  HO  UNL     1     374.692 155.458  59.697  1.00  0.00     0.213 HD
ENDBRANCH   6  16
BRANCH   6  18
HETATM   18  O   UNL     1     374.997 153.353  59.225  1.00  0.00    -0.363 OA
ATOM     19  HO  UNL     1     375.488 152.561  59.040  1.00  0.00     0.213 HD
ENDBRANCH   6  18
BRANCH  12  20
HETATM   20  O   UNL     1     373.625 154.063  61.917  1.00  0.00    -0.390 OA
ATOM     21  HO  UNL     1     373.669 154.554  62.729  1.00  0.00     0.210 HD
ENDBRANCH  12  20
BRANCH   4  22
HETATM   22  O   UNL     1     380.813 155.165  64.134  1.00  0.00    -0.288 OA
ATOM     23  HO  UNL     1     381.473 154.867  63.520  1.00  0.00     0.244 HD
ENDBRANCH   4  22
BRANCH  14  24
HETATM   24  O   UNL     1     378.977 150.261  64.837  1.00  0.00    -0.395 OA
ATOM     25  HO  UNL     1     378.846 149.342  64.637  1.00  0.00     0.210 HD
ENDBRANCH  14  24
TORSDOF 5
ENDMDL
MODEL 3
REMARK VINA RESULT:      -6.8      2.147      5.107
REMARK  5 active torsions:
REMARK  status: ('A' for Active; 'I' for Inactive)
REMARK    1  A    between atoms: N_4  and  O_12 
REMARK    2  A    between atoms: C_6  and  O_10 
REMARK    3  A    between atoms: C_6  and  O_16 
REMARK    4  A    between atoms: O_14  and  C_22 
REMARK    5  A    between atoms: C_20  and  O_24 
ROOT
HETATM    1  C   UNL     1     376.263 154.255  60.891  1.00  0.00     0.046 C 
HETATM    2  C   UNL     1     376.714 155.814  62.966  1.00  0.00     0.091 C 
HETATM    3  C   UNL     1     376.698 153.064  61.762  1.00  0.00    -0.015 C 
HETATM    4  N   UNL     1     378.347 154.966  64.575  1.00  0.00    -0.269 N 
HETATM    5  C   UNL     1     379.011 152.552  62.546  1.00  0.00     0.029 C 
HETATM    6  C   UNL     1     379.552 150.548  61.432  1.00  0.00     0.190 C 
HETATM    7  C   UNL     1     375.526 152.533  62.577  1.00  0.00     0.020 C 
HETATM    8  C   UNL     1     377.639 154.721  63.451  1.00  0.00     0.040 C 
HETATM    9  C   UNL     1     377.846 153.505  62.648  1.00  0.00    -0.042 C 
HETATM   10  C   UNL     1     379.714 155.426  64.478  1.00  0.00     0.185 C 
HETATM   11  C   UNL     1     380.067 152.906  61.504  1.00  0.00     0.047 C 
HETATM   12  C   UNL     1     380.292 151.643  60.669  1.00  0.00     0.181 C 
HETATM   13  C   UNL     1     377.339 151.893  60.968  1.00  0.00     0.024 C 
HETATM   14  C   UNL     1     376.141 155.626  61.568  1.00  0.00     0.124 C 
HETATM   15  C   UNL     1     378.332 151.288  61.994  1.00  0.00     0.060 C 
ENDROOT
BRANCH   6  16
HETATM   16  O   UNL     1     380.341 150.052  62.500  1.00  0.00    -0.363 OA
ATOM     17  HO  UNL     1     380.518 149.139  62.305  1.00  0.00     0.213 HD
ENDBRANCH   6  16
BRANCH   6  18
HETATM   18  O   UNL     1     379.210 149.451  60.652  1.00  0.00    -0.363 OA
ATOM     19  HO  UNL     1     378.665 148.893  61.194  1.00  0.00     0.213 HD
ENDBRANCH   6  18
BRANCH  12  20
HETATM   20  O   UNL     1     381.673 151.336  60.529  1.00  0.00    -0.390 OA
ATOM     21  HO  UNL     1     381.800 150.468  60.164  1.00  0.00     0.210 HD
ENDBRANCH  12  20
BRANCH   4  22
HETATM   22  O   UNL     1     377.709 155.204  65.739  1.00  0.00    -0.288 OA
ATOM     23  HO  UNL     1     378.084 154.903  66.558  1.00  0.00     0.244 HD
ENDBRANCH   4  22
BRANCH  14  24
HETATM   24  O   UNL     1     376.775 156.591  60.727  1.00  0.00    -0.395 OA
ATOM     25  HO  UNL     1     377.681 156.329  60.612  1.00  0.00     0.210 HD
ENDBRANCH  14  24
TORSDOF 5
ENDMDL
MODEL 4
REMARK VINA RESULT:      -6.7      1.866      3.079
REMARK  5 active torsions:
REMARK  status: ('A' for Active; 'I' for Inactive)
REMARK    1  A    between atoms: N_4  and  O_12 
REMARK    2  A    between atoms: C_6  and  O_10 
REMARK    3  A    between atoms: C_6  and  O_16 
REMARK    4  A    between atoms: O_14  and  C_22 
REMARK    5  A    between atoms: C_20  and  O_24 
ROOT
HETATM    1  C   UNL     1     377.334 152.148  64.506  1.00  0.00     0.046 C 
HETATM    2  C   UNL     1     379.293 151.013  63.158  1.00  0.00     0.091 C 
HETATM    3  C   UNL     1     376.406 151.815  63.326  1.00  0.00    -0.015 C 
HETATM    4  N   UNL     1     379.022 151.004  60.729  1.00  0.00    -0.269 N 
HETATM    5  C   UNL     1     376.421 152.876  61.067  1.00  0.00     0.029 C 
HETATM    6  C   UNL     1     374.362 154.017  60.967  1.00  0.00     0.190 C 
HETATM    7  C   UNL     1     375.848 150.404  63.457  1.00  0.00     0.020 C 
HETATM    8  C   UNL     1     378.468 151.301  61.924  1.00  0.00     0.040 C 
HETATM    9  C   UNL     1     377.177 151.999  62.034  1.00  0.00    -0.042 C 
HETATM   10  C   UNL     1     379.670 152.040  59.958  1.00  0.00     0.185 C 
HETATM   11  C   UNL     1     376.747 154.365  61.130  1.00  0.00     0.047 C 
HETATM   12  C   UNL     1     375.407 155.097  61.237  1.00  0.00     0.181 C 
HETATM   13  C   UNL     1     375.229 152.813  63.140  1.00  0.00     0.024 C 
HETATM   14  C   UNL     1     378.767 151.601  64.460  1.00  0.00     0.124 C 
HETATM   15  C   UNL     1     374.986 152.772  61.609  1.00  0.00     0.060 C 
ENDROOT
BRANCH   6  16
HETATM   16  O   UNL     1     374.200 153.805  59.575  1.00  0.00    -0.363 OA
ATOM     17  HO  UNL     1     374.435 154.620  59.148  1.00  0.00     0.213 HD
ENDBRANCH   6  16
BRANCH   6  18
HETATM   18  O   UNL     1     373.103 154.315  61.471  1.00  0.00    -0.363 OA
ATOM     19  HO  UNL     1     373.223 155.014  62.103  1.00  0.00     0.213 HD
ENDBRANCH   6  18
BRANCH  12  20
HETATM   20  O   UNL     1     375.306 156.163  60.302  1.00  0.00    -0.390 OA
ATOM     21  HO  UNL     1     374.842 156.905  60.671  1.00  0.00     0.210 HD
ENDBRANCH  12  20
BRANCH   4  22
HETATM   22  O   UNL     1     379.359 149.732  60.437  1.00  0.00    -0.288 OA
ATOM     23  HO  UNL     1     378.912 149.267  59.740  1.00  0.00     0.244 HD
ENDBRANCH   4  22
BRANCH  14  24
HETATM   24  O   UNL     1     379.654 152.660  64.825  1.00  0.00    -0.395 OA
ATOM     25  HO  UNL     1     379.972 153.065  64.026  1.00  0.00     0.210 HD
ENDBRANCH  14  24
TORSDOF 5
ENDMDL
MODEL 5
REMARK VINA RESULT:      -6.7      1.789      2.209
REMARK  5 active torsions:
REMARK  status: ('A' for Active; 'I' for Inactive)
REMARK    1  A    between atoms: N_4  and  O_12 
REMARK    2  A    between atoms: C_6  and  O_10 
REMARK    3  A    between atoms: C_6  and  O_16 
REMARK    4  A    between atoms: O_14  and  C_22 
REMARK    5  A    between atoms: C_20  and  O_24 
ROOT
HETATM    1  C   UNL     1     375.822 150.459  63.819  1.00  0.00     0.046 C 
HETATM    2  C   UNL     1     378.164 150.834  64.966  1.00  0.00     0.091 C 
HETATM    3  C   UNL     1     376.492 150.791  62.474  1.00  0.00    -0.015 C 
HETATM    4  N   UNL     1     379.688 152.325  63.771  1.00  0.00    -0.269 N 
HETATM    5  C   UNL     1     377.303 153.027  61.720  1.00  0.00     0.029 C 
HETATM    6  C   UNL     1     375.883 153.563  59.918  1.00  0.00     0.190 C 
HETATM    7  C   UNL     1     377.130 149.549  61.866  1.00  0.00     0.020 C 
HETATM    8  C   UNL     1     378.500 151.682  63.761  1.00  0.00     0.040 C 
HETATM    9  C   UNL     1     377.506 151.895  62.696  1.00  0.00    -0.042 C 
HETATM   10  C   UNL     1     379.753 153.711  64.173  1.00  0.00     0.185 C 
HETATM   11  C   UNL     1     376.403 154.161  62.200  1.00  0.00     0.047 C 
HETATM   12  C   UNL     1     375.371 154.392  61.093  1.00  0.00     0.181 C 
HETATM   13  C   UNL     1     375.539 151.438  61.431  1.00  0.00     0.024 C 
HETATM   14  C   UNL     1     376.725 150.346  65.054  1.00  0.00     0.124 C 
HETATM   15  C   UNL     1     376.497 152.338  60.607  1.00  0.00     0.060 C 
ENDROOT
BRANCH   6  16
HETATM   16  O   UNL     1     376.889 154.262  59.205  1.00  0.00    -0.363 OA
ATOM     17  HO  UNL     1     376.987 155.104  59.631  1.00  0.00     0.213 HD
ENDBRANCH   6  16
BRANCH   6  18
HETATM   18  O   UNL     1     374.902 153.231  58.993  1.00  0.00    -0.363 OA
ATOM     19  HO  UNL     1     374.185 153.840  59.129  1.00  0.00     0.213 HD
ENDBRANCH   6  18
BRANCH  12  20
HETATM   20  O   UNL     1     375.258 155.766  60.748  1.00  0.00    -0.390 OA
ATOM     21  HO  UNL     1     374.388 156.100  60.934  1.00  0.00     0.210 HD
ENDBRANCH  12  20
BRANCH   4  22
HETATM   22  O   UNL     1     380.836 151.622  63.832  1.00  0.00    -0.288 OA
ATOM     23  HO  UNL     1     380.952 150.954  64.496  1.00  0.00     0.244 HD
ENDBRANCH   4  22
BRANCH  14  24
HETATM   24  O   UNL     1     376.106 151.069  66.119  1.00  0.00    -0.395 OA
ATOM     25  HO  UNL     1     376.735 151.701  66.448  1.00  0.00     0.210 HD
ENDBRANCH  14  24
TORSDOF 5
ENDMDL
MODEL 6
REMARK VINA RESULT:      -6.6      2.138      3.133
REMARK  5 active torsions:
REMARK  status: ('A' for Active; 'I' for Inactive)
REMARK    1  A    between atoms: N_4  and  O_12 
REMARK    2  A    between atoms: C_6  and  O_10 
REMARK    3  A    between atoms: C_6  and  O_16 
REMARK    4  A    between atoms: O_14  and  C_22 
REMARK    5  A    between atoms: C_20  and  O_24 
ROOT
HETATM    1  C   UNL     1     375.218 151.055  62.976  1.00  0.00     0.046 C 
HETATM    2  C   UNL     1     377.423 149.802  62.263  1.00  0.00     0.091 C 
HETATM    3  C   UNL     1     375.444 152.009  61.790  1.00  0.00    -0.015 C 
HETATM    4  N   UNL     1     379.040 151.153  61.027  1.00  0.00    -0.269 N 
HETATM    5  C   UNL     1     377.220 153.751  61.592  1.00  0.00     0.029 C 
HETATM    6  C   UNL     1     376.021 155.779  61.602  1.00  0.00     0.190 C 
HETATM    7  C   UNL     1     374.853 151.431  60.510  1.00  0.00     0.020 C 
HETATM    8  C   UNL     1     377.812 151.095  61.584  1.00  0.00     0.040 C 
HETATM    9  C   UNL     1     376.931 152.272  61.656  1.00  0.00    -0.042 C 
HETATM   10  C   UNL     1     380.133 151.758  61.753  1.00  0.00     0.185 C 
HETATM   11  C   UNL     1     377.520 154.425  62.926  1.00  0.00     0.047 C 
HETATM   12  C   UNL     1     376.612 155.655  63.004  1.00  0.00     0.181 C 
HETATM   13  C   UNL     1     374.885 153.442  62.009  1.00  0.00     0.024 C 
HETATM   14  C   UNL     1     376.159 149.851  63.111  1.00  0.00     0.124 C 
HETATM   15  C   UNL     1     375.854 154.317  61.172  1.00  0.00     0.060 C 
ENDROOT
BRANCH   6  16
HETATM   16  O   UNL     1     376.926 156.432  60.727  1.00  0.00    -0.363 OA
ATOM     17  HO  UNL     1     376.563 157.293  60.557  1.00  0.00     0.213 HD
ENDBRANCH   6  16
BRANCH   6  18
HETATM   18  O   UNL     1     374.835 156.499  61.552  1.00  0.00    -0.363 OA
ATOM     19  HO  UNL     1     375.068 157.387  61.307  1.00  0.00     0.213 HD
ENDBRANCH   6  18
BRANCH  12  20
HETATM   20  O   UNL     1     377.329 156.826  63.371  1.00  0.00    -0.390 OA
ATOM     21  HO  UNL     1     377.144 157.546  62.779  1.00  0.00     0.210 HD
ENDBRANCH  12  20
BRANCH   4  22
HETATM   22  O   UNL     1     379.371 150.309  60.028  1.00  0.00    -0.288 OA
ATOM     23  HO  UNL     1     380.143 149.761  60.103  1.00  0.00     0.244 HD
ENDBRANCH   4  22
BRANCH  14  24
HETATM   24  O   UNL     1     376.571 149.766  64.476  1.00  0.00    -0.395 OA
ATOM     25  HO  UNL     1     376.304 148.917  64.810  1.00  0.00     0.210 HD
ENDBRANCH  14  24
TORSDOF 5
ENDMDL
MODEL 7
REMARK VINA RESULT:      -6.5      1.788      3.458
REMARK  5 active torsions:
REMARK  status: ('A' for Active; 'I' for Inactive)
REMARK    1  A    between atoms: N_4  and  O_12 
REMARK    2  A    between atoms: C_6  and  O_10 
REMARK    3  A    between atoms: C_6  and  O_16 
REMARK    4  A    between atoms: O_14  and  C_22 
REMARK    5  A    between atoms: C_20  and  O_24 
ROOT
HETATM    1  C   UNL     1     379.400 153.222  62.197  1.00  0.00     0.046 C 
HETATM    2  C   UNL     1     379.399 150.647  62.755  1.00  0.00     0.091 C 
HETATM    3  C   UNL     1     378.012 153.307  62.854  1.00  0.00    -0.015 C 
HETATM    4  N   UNL     1     377.190 149.624  62.970  1.00  0.00    -0.269 N 
HETATM    5  C   UNL     1     375.873 152.386  61.955  1.00  0.00     0.029 C 
HETATM    6  C   UNL     1     374.584 154.303  61.495  1.00  0.00     0.190 C 
HETATM    7  C   UNL     1     378.136 153.504  64.359  1.00  0.00     0.020 C 
HETATM    8  C   UNL     1     377.892 150.764  62.793  1.00  0.00     0.040 C 
HETATM    9  C   UNL     1     377.235 152.051  62.513  1.00  0.00    -0.042 C 
HETATM   10  C   UNL     1     376.633 148.937  61.827  1.00  0.00     0.185 C 
HETATM   11  C   UNL     1     375.789 152.497  60.437  1.00  0.00     0.047 C 
HETATM   12  C   UNL     1     375.099 153.830  60.138  1.00  0.00     0.181 C 
HETATM   13  C   UNL     1     377.096 154.417  62.269  1.00  0.00     0.024 C 
HETATM   14  C   UNL     1     380.149 151.886  62.287  1.00  0.00     0.124 C 
HETATM   15  C   UNL     1     375.676 153.824  62.460  1.00  0.00     0.060 C 
ENDROOT
BRANCH   6  16
HETATM   16  O   UNL     1     373.355 153.674  61.818  1.00  0.00    -0.363 OA
ATOM     17  HO  UNL     1     373.297 153.666  62.766  1.00  0.00     0.213 HD
ENDBRANCH   6  16
BRANCH   6  18
HETATM   18  O   UNL     1     374.358 155.671  61.566  1.00  0.00    -0.363 OA
ATOM     19  HO  UNL     1     375.203 156.091  61.452  1.00  0.00     0.213 HD
ENDBRANCH   6  18
BRANCH  12  20
HETATM   20  O   UNL     1     374.039 153.685  59.202  1.00  0.00    -0.390 OA
ATOM     21  HO  UNL     1     373.192 153.702  59.632  1.00  0.00     0.210 HD
ENDBRANCH  12  20
BRANCH   4  22
HETATM   22  O   UNL     1     377.350 148.898  64.094  1.00  0.00    -0.288 OA
ATOM     23  HO  UNL     1     377.496 147.961  64.040  1.00  0.00     0.244 HD
ENDBRANCH   4  22
BRANCH  14  24
HETATM   24  O   UNL     1     380.675 151.588  60.993  1.00  0.00    -0.395 OA
ATOM     25  HO  UNL     1     380.681 152.393  60.487  1.00  0.00     0.210 HD
ENDBRANCH  14  24
TORSDOF 5
ENDMDL
MODEL 8
REMARK VINA RESULT:      -6.5      2.601      5.340
REMARK  5 active torsions:
REMARK  status: ('A' for Active; 'I' for Inactive)
REMARK    1  A    between atoms: N_4  and  O_12 
REMARK    2  A    between atoms: C_6  and  O_10 
REMARK    3  A    between atoms: C_6  and  O_16 
REMARK    4  A    between atoms: O_14  and  C_22 
REMARK    5  A    between atoms: C_20  and  O_24 
ROOT
HETATM    1  C   UNL     1     375.743 152.909  63.327  1.00  0.00     0.046 C 
HETATM    2  C   UNL     1     376.294 151.790  61.006  1.00  0.00     0.091 C 
HETATM    3  C   UNL     1     376.806 153.973  63.002  1.00  0.00    -0.015 C 
HETATM    4  N   UNL     1     378.542 152.217  60.148  1.00  0.00    -0.269 N 
HETATM    5  C   UNL     1     379.279 153.645  62.941  1.00  0.00     0.029 C 
HETATM    6  C   UNL     1     380.066 154.958  64.732  1.00  0.00     0.190 C 
HETATM    7  C   UNL     1     376.207 155.101  62.173  1.00  0.00     0.020 C 
HETATM    8  C   UNL     1     377.634 152.483  61.111  1.00  0.00     0.040 C 
HETATM    9  C   UNL     1     377.963 153.302  62.289  1.00  0.00    -0.042 C 
HETATM   10  C   UNL     1     379.569 151.227  60.380  1.00  0.00     0.185 C 
HETATM   11  C   UNL     1     379.760 152.672  64.013  1.00  0.00     0.047 C 
HETATM   12  C   UNL     1     380.111 153.518  65.239  1.00  0.00     0.181 C 
HETATM   13  C   UNL     1     377.508 154.575  64.251  1.00  0.00     0.024 C 
HETATM   14  C   UNL     1     375.397 151.891  62.233  1.00  0.00     0.124 C 
HETATM   15  C   UNL     1     378.920 154.924  63.714  1.00  0.00     0.060 C 
ENDROOT
BRANCH   6  16
HETATM   16  O   UNL     1     381.275 155.303  64.077  1.00  0.00    -0.363 OA
ATOM     17  HO  UNL     1     381.036 155.855  63.343  1.00  0.00     0.213 HD
ENDBRANCH   6  16
BRANCH   6  18
HETATM   18  O   UNL     1     379.876 155.901  65.733  1.00  0.00    -0.363 OA
ATOM     19  HO  UNL     1     379.625 155.421  66.513  1.00  0.00     0.213 HD
ENDBRANCH   6  18
BRANCH  12  20
HETATM   20  O   UNL     1     381.391 153.193  65.763  1.00  0.00    -0.390 OA
ATOM     21  HO  UNL     1     381.598 153.719  66.527  1.00  0.00     0.210 HD
ENDBRANCH  12  20
BRANCH   4  22
HETATM   22  O   UNL     1     378.273 152.519  58.862  1.00  0.00    -0.288 OA
ATOM     23  HO  UNL     1     377.805 151.901  58.314  1.00  0.00     0.244 HD
ENDBRANCH   4  22
BRANCH  14  24
HETATM   24  O   UNL     1     375.367 150.595  62.832  1.00  0.00    -0.395 OA
ATOM     25  HO  UNL     1     374.463 150.303  62.853  1.00  0.00     0.210 HD
ENDBRANCH  14  24
TORSDOF 5
ENDMDL
MODEL 9
REMARK VINA RESULT:      -6.4      1.900      2.218
REMARK  5 active torsions:
REMARK  status: ('A' for Active; 'I' for Inactive)
REMARK    1  A    between atoms: N_4  and  O_12 
REMARK    2  A    between atoms: C_6  and  O_10 
REMARK    3  A    between atoms: C_6  and  O_16 
REMARK    4  A    between atoms: O_14  and  C_22 
REMARK    5  A    between atoms: C_20  and  O_24 
ROOT
HETATM    1  C   UNL     1     377.858 151.148  60.962  1.00  0.00     0.046 C 
HETATM    2  C   UNL     1     378.211 150.212  63.400  1.00  0.00     0.091 C 
HETATM    3  C   UNL     1     377.918 152.565  61.559  1.00  0.00    -0.015 C 
HETATM    4  N   UNL     1     377.474 151.687  65.203  1.00  0.00    -0.269 N 
HETATM    5  C   UNL     1     376.194 153.656  62.996  1.00  0.00     0.029 C 
HETATM    6  C   UNL     1     375.382 155.419  61.660  1.00  0.00     0.190 C 
HETATM    7  C   UNL     1     379.360 153.044  61.671  1.00  0.00     0.020 C 
HETATM    8  C   UNL     1     377.659 151.537  63.874  1.00  0.00     0.040 C 
HETATM    9  C   UNL     1     377.222 152.555  62.905  1.00  0.00    -0.042 C 
HETATM   10  C   UNL     1     376.164 151.476  65.776  1.00  0.00     0.185 C 
HETATM   11  C   UNL     1     374.776 153.273  62.589  1.00  0.00     0.047 C 
HETATM   12  C   UNL     1     374.312 154.333  61.586  1.00  0.00     0.181 C 
HETATM   13  C   UNL     1     377.089 153.621  60.778  1.00  0.00     0.024 C 
HETATM   14  C   UNL     1     378.154 149.969  61.897  1.00  0.00     0.124 C 
HETATM   15  C   UNL     1     376.668 154.615  61.892  1.00  0.00     0.060 C 
ENDROOT
BRANCH   6  16
HETATM   16  O   UNL     1     375.155 156.280  62.763  1.00  0.00    -0.363 OA
ATOM     17  HO  UNL     1     375.612 157.091  62.571  1.00  0.00     0.213 HD
ENDBRANCH   6  16
BRANCH   6  18
HETATM   18  O   UNL     1     375.443 156.227  60.533  1.00  0.00    -0.363 OA
ATOM     19  HO  UNL     1     375.499 155.645  59.785  1.00  0.00     0.213 HD
ENDBRANCH   6  18
BRANCH  12  20
HETATM   20  O   UNL     1     373.027 154.847  61.909  1.00  0.00    -0.390 OA
ATOM     21  HO  UNL     1     372.739 154.548  62.764  1.00  0.00     0.210 HD
ENDBRANCH  12  20
BRANCH   4  22
HETATM   22  O   UNL     1     378.523 151.608  66.046  1.00  0.00    -0.288 OA
ATOM     23  HO  UNL     1     378.380 151.570  66.984  1.00  0.00     0.244 HD
ENDBRANCH   4  22
BRANCH  14  24
HETATM   24  O   UNL     1     377.156 148.970  61.676  1.00  0.00    -0.395 OA
ATOM     25  HO  UNL     1     377.262 148.642  60.791  1.00  0.00     0.210 HD
ENDBRANCH  14  24
TORSDOF 5
ENDMDL
