MODEL 1
REMARK VINA RESULT:      -9.7      0.000      0.000
REMARK  11 active torsions:
REMARK  status: ('A' for Active; 'I' for Inactive)
REMARK    1  A    between atoms: C_1  and  C_20 
REMARK    2  A    between atoms: C_1  and  C_22 
REMARK    3  A    between atoms: O_2  and  C_33 
REMARK    4  A    between atoms: C_6  and  O_34 
REMARK    5  A    between atoms: C_7  and  O_11 
REMARK    6  A    between atoms: C_7  and  C_31 
REMARK    7  A    between atoms: C_10  and  O_16 
REMARK    8  A    between atoms: C_10  and  C_19 
REMARK    9  A    between atoms: C_10  and  C_26 
REMARK   10  A    between atoms: C_21  and  O_27 
REMARK   11  A    between atoms: C_23  and  C_31 
ROOT
HETATM    1  C   UNL     1      38.960 -21.580 -17.131  1.00  0.00     0.054 C 
HETATM    2  C   UNL     1      38.790 -20.300 -16.326  1.00  0.00     0.154 C 
HETATM    3  C   UNL     1      39.336 -20.703 -14.958  1.00  0.00     0.193 C 
HETATM    4  C   UNL     1      40.622 -21.365 -15.424  1.00  0.00     0.003 C 
HETATM    5  C   UNL     1      40.150 -22.316 -16.514  1.00  0.00     0.044 C 
ENDROOT
BRANCH   2   6
HETATM    6  O   UNL     1      39.586 -19.261 -16.893  1.00  0.00    -0.379 OA
ATOM      7  HO  UNL     1      39.397 -19.179 -17.821  1.00  0.00     0.211 HD
ENDBRANCH   2   6
BRANCH   2   8
HETATM    8  C   UNL     1      37.365 -19.809 -16.223  1.00  0.00     0.213 C 
HETATM    9  O   UNL     1      36.914 -19.353 -15.173  1.00  0.00    -0.287 OA
BRANCH   8  10
HETATM   10  C   UNL     1      36.636 -19.759 -17.497  1.00  0.00     0.085 A 
HETATM   11  C   UNL     1      37.079 -19.723 -18.802  1.00  0.00     0.049 A 
HETATM   12  C   UNL     1      35.970 -19.691 -19.611  1.00  0.00     0.051 A 
HETATM   13  C   UNL     1      34.833 -19.748 -18.752  1.00  0.00     0.255 A 
HETATM   14  O   UNL     1      33.630 -19.850 -19.055  1.00  0.00    -0.268 OA
HETATM   15  N   UNL     1      35.267 -19.776 -17.468  1.00  0.00    -0.320 N 
ATOM     16  HN  UNL     1      34.681 -19.805 -16.633  1.00  0.00     0.169 HD
BRANCH  12  17
HETATM   17  C   UNL     1      35.952 -19.802 -21.117  1.00  0.00     0.257 C 
BRANCH  17  18
HETATM   18  O   UNL     1      37.255 -20.054 -21.626  1.00  0.00    -0.380 OA
ATOM     19  HO  UNL     1      37.215 -20.571 -22.422  1.00  0.00     0.211 HD
ENDBRANCH  17  18
BRANCH  17  20
HETATM   20  C   UNL     1      35.368 -18.535 -21.725  1.00  0.00     0.207 C 
HETATM   21  O   UNL     1      34.205 -18.636 -22.197  1.00  0.00    -0.646 OA
HETATM   22  O   UNL     1      36.041 -17.477 -21.696  1.00  0.00    -0.646 OA
ENDBRANCH  17  20
ENDBRANCH  12  17
ENDBRANCH   8  10
ENDBRANCH   2   8
BRANCH   3  23
HETATM   23  O   UNL     1      39.510 -19.622 -14.081  1.00  0.00    -0.388 OA
ATOM     24  HO  UNL     1      38.700 -19.182 -13.851  1.00  0.00     0.210 HD
ENDBRANCH   3  23
BRANCH   4  25
HETATM   25  C   UNL     1      41.757 -21.706 -14.512  1.00  0.00     0.192 C 
HETATM   26  O   UNL     1      41.653 -22.338 -13.452  1.00  0.00    -0.287 OA
BRANCH  25  27
HETATM   27  C   UNL     1      43.023 -20.933 -14.783  1.00  0.00     0.080 A 
HETATM   28  C   UNL     1      43.921 -21.366 -15.748  1.00  0.00     0.082 A 
HETATM   29  C   UNL     1      45.150 -20.738 -15.888  1.00  0.00     0.037 A 
HETATM   30  C   UNL     1      45.441 -19.611 -15.144  1.00  0.00     0.005 A 
HETATM   31  C   UNL     1      44.499 -19.106 -14.264  1.00  0.00     0.037 A 
HETATM   32  C   UNL     1      43.294 -19.776 -14.062  1.00  0.00     0.082 A 
BRANCH  28  33
HETATM   33  O   UNL     1      43.579 -22.388 -16.600  1.00  0.00    -0.360 OA
ATOM     34  HO  UNL     1      44.007 -23.232 -16.516  1.00  0.00     0.217 HD
ENDBRANCH  28  33
BRANCH  32  35
HETATM   35  O   UNL     1      42.371 -19.304 -13.147  1.00  0.00    -0.360 OA
ATOM     36  HO  UNL     1      42.640 -19.076 -12.264  1.00  0.00     0.217 HD
ENDBRANCH  32  35
ENDBRANCH  25  27
ENDBRANCH   4  25
TORSDOF 11
ENDMDL
MODEL 2
REMARK VINA RESULT:      -9.7      0.352      1.534
REMARK  11 active torsions:
REMARK  status: ('A' for Active; 'I' for Inactive)
REMARK    1  A    between atoms: C_1  and  C_20 
REMARK    2  A    between atoms: C_1  and  C_22 
REMARK    3  A    between atoms: O_2  and  C_33 
REMARK    4  A    between atoms: C_6  and  O_34 
REMARK    5  A    between atoms: C_7  and  O_11 
REMARK    6  A    between atoms: C_7  and  C_31 
REMARK    7  A    between atoms: C_10  and  O_16 
REMARK    8  A    between atoms: C_10  and  C_19 
REMARK    9  A    between atoms: C_10  and  C_26 
REMARK   10  A    between atoms: C_21  and  O_27 
REMARK   11  A    between atoms: C_23  and  C_31 
ROOT
HETATM    1  C   UNL     1      39.101 -21.465 -17.246  1.00  0.00     0.054 C 
HETATM    2  C   UNL     1      38.874 -20.278 -16.323  1.00  0.00     0.154 C 
HETATM    3  C   UNL     1      39.413 -20.795 -14.991  1.00  0.00     0.193 C 
HETATM    4  C   UNL     1      40.728 -21.365 -15.496  1.00  0.00     0.003 C 
HETATM    5  C   UNL     1      40.306 -22.219 -16.683  1.00  0.00     0.044 C 
ENDROOT
BRANCH   2   6
HETATM    6  O   UNL     1      39.642 -19.161 -16.770  1.00  0.00    -0.379 OA
ATOM      7  HO  UNL     1      40.482 -19.458 -17.101  1.00  0.00     0.211 HD
ENDBRANCH   2   6
BRANCH   2   8
HETATM    8  C   UNL     1      37.432 -19.847 -16.198  1.00  0.00     0.213 C 
HETATM    9  O   UNL     1      36.968 -19.446 -15.131  1.00  0.00    -0.287 OA
BRANCH   8  10
HETATM   10  C   UNL     1      36.695 -19.780 -17.467  1.00  0.00     0.085 A 
HETATM   11  C   UNL     1      37.131 -19.765 -18.776  1.00  0.00     0.049 A 
HETATM   12  C   UNL     1      36.018 -19.703 -19.577  1.00  0.00     0.051 A 
HETATM   13  C   UNL     1      34.885 -19.720 -18.711  1.00  0.00     0.255 A 
HETATM   14  O   UNL     1      33.677 -19.786 -19.004  1.00  0.00    -0.268 OA
HETATM   15  N   UNL     1      35.327 -19.755 -17.429  1.00  0.00    -0.320 N 
ATOM     16  HN  UNL     1      34.747 -19.762 -16.590  1.00  0.00     0.169 HD
BRANCH  12  17
HETATM   17  C   UNL     1      35.985 -19.820 -21.083  1.00  0.00     0.257 C 
BRANCH  17  18
HETATM   18  O   UNL     1      37.281 -20.092 -21.601  1.00  0.00    -0.380 OA
ATOM     19  HO  UNL     1      37.562 -19.403 -22.191  1.00  0.00     0.211 HD
ENDBRANCH  17  18
BRANCH  17  20
HETATM   20  C   UNL     1      35.414 -18.548 -21.691  1.00  0.00     0.207 C 
HETATM   21  O   UNL     1      34.254 -18.640 -22.172  1.00  0.00    -0.646 OA
HETATM   22  O   UNL     1      36.094 -17.494 -21.655  1.00  0.00    -0.646 OA
ENDBRANCH  17  20
ENDBRANCH  12  17
ENDBRANCH   8  10
ENDBRANCH   2   8
BRANCH   3  23
HETATM   23  O   UNL     1      39.537 -19.801 -14.009  1.00  0.00    -0.388 OA
ATOM     24  HO  UNL     1      39.467 -18.917 -14.349  1.00  0.00     0.210 HD
ENDBRANCH   3  23
BRANCH   4  25
HETATM   25  C   UNL     1      41.861 -21.757 -14.601  1.00  0.00     0.192 C 
HETATM   26  O   UNL     1      41.802 -22.619 -13.715  1.00  0.00    -0.287 OA
BRANCH  25  27
HETATM   27  C   UNL     1      43.017 -20.788 -14.606  1.00  0.00     0.080 A 
HETATM   28  C   UNL     1      43.105 -19.792 -13.644  1.00  0.00     0.082 A 
HETATM   29  C   UNL     1      44.084 -18.815 -13.741  1.00  0.00     0.037 A 
HETATM   30  C   UNL     1      45.043 -18.890 -14.732  1.00  0.00     0.005 A 
HETATM   31  C   UNL     1      45.027 -19.949 -15.624  1.00  0.00     0.037 A 
HETATM   32  C   UNL     1      44.002 -20.892 -15.580  1.00  0.00     0.082 A 
BRANCH  28  33
HETATM   33  O   UNL     1      42.254 -19.796 -12.565  1.00  0.00    -0.360 OA
ATOM     34  HO  UNL     1      42.555 -19.460 -11.729  1.00  0.00     0.217 HD
ENDBRANCH  28  33
BRANCH  32  35
HETATM   35  O   UNL     1      43.953 -21.922 -16.500  1.00  0.00    -0.360 OA
ATOM     36  HO  UNL     1      43.119 -22.268 -16.794  1.00  0.00     0.217 HD
ENDBRANCH  32  35
ENDBRANCH  25  27
ENDBRANCH   4  25
TORSDOF 11
ENDMDL
MODEL 3
REMARK VINA RESULT:      -9.2      2.505      3.866
REMARK  11 active torsions:
REMARK  status: ('A' for Active; 'I' for Inactive)
REMARK    1  A    between atoms: C_1  and  C_20 
REMARK    2  A    between atoms: C_1  and  C_22 
REMARK    3  A    between atoms: O_2  and  C_33 
REMARK    4  A    between atoms: C_6  and  O_34 
REMARK    5  A    between atoms: C_7  and  O_11 
REMARK    6  A    between atoms: C_7  and  C_31 
REMARK    7  A    between atoms: C_10  and  O_16 
REMARK    8  A    between atoms: C_10  and  C_19 
REMARK    9  A    between atoms: C_10  and  C_26 
REMARK   10  A    between atoms: C_21  and  O_27 
REMARK   11  A    between atoms: C_23  and  C_31 
ROOT
HETATM    1  C   UNL     1      42.427 -21.288 -15.679  1.00  0.00     0.054 C 
HETATM    2  C   UNL     1      40.909 -21.211 -15.649  1.00  0.00     0.154 C 
HETATM    3  C   UNL     1      40.574 -21.921 -14.339  1.00  0.00     0.193 C 
HETATM    4  C   UNL     1      41.576 -21.211 -13.445  1.00  0.00     0.003 C 
HETATM    5  C   UNL     1      42.881 -21.330 -14.219  1.00  0.00     0.044 C 
ENDROOT
BRANCH   2   6
HETATM    6  O   UNL     1      40.492 -19.848 -15.596  1.00  0.00    -0.379 OA
ATOM      7  HO  UNL     1      41.219 -19.298 -15.327  1.00  0.00     0.211 HD
ENDBRANCH   2   6
BRANCH   2   8
HETATM    8  C   UNL     1      40.224 -21.875 -16.820  1.00  0.00     0.213 C 
HETATM    9  O   UNL     1      40.519 -23.015 -17.180  1.00  0.00    -0.287 OA
BRANCH   8  10
HETATM   10  C   UNL     1      39.083 -21.132 -17.370  1.00  0.00     0.085 A 
HETATM   11  C   UNL     1      38.676 -20.915 -18.670  1.00  0.00     0.049 A 
HETATM   12  C   UNL     1      37.533 -20.156 -18.620  1.00  0.00     0.051 A 
HETATM   13  C   UNL     1      37.235 -19.951 -17.240  1.00  0.00     0.255 A 
HETATM   14  O   UNL     1      36.236 -19.413 -16.728  1.00  0.00    -0.268 OA
HETATM   15  N   UNL     1      38.203 -20.547 -16.500  1.00  0.00    -0.320 N 
ATOM     16  HN  UNL     1      38.264 -20.557 -15.482  1.00  0.00     0.169 HD
BRANCH  12  17
HETATM   17  C   UNL     1      36.639 -19.797 -19.784  1.00  0.00     0.257 C 
BRANCH  17  18
HETATM   18  O   UNL     1      35.865 -18.639 -19.493  1.00  0.00    -0.380 OA
ATOM     19  HO  UNL     1      35.194 -18.833 -18.849  1.00  0.00     0.211 HD
ENDBRANCH  17  18
BRANCH  17  20
HETATM   20  C   UNL     1      35.743 -20.974 -20.135  1.00  0.00     0.207 C 
HETATM   21  O   UNL     1      34.592 -20.962 -19.626  1.00  0.00    -0.646 OA
HETATM   22  O   UNL     1      36.172 -21.857 -20.917  1.00  0.00    -0.646 OA
ENDBRANCH  17  20
ENDBRANCH  12  17
ENDBRANCH   8  10
ENDBRANCH   2   8
BRANCH   3  23
HETATM   23  O   UNL     1      39.233 -21.785 -13.950  1.00  0.00    -0.388 OA
ATOM     24  HO  UNL     1      39.122 -21.525 -13.044  1.00  0.00     0.210 HD
ENDBRANCH   3  23
BRANCH   4  25
HETATM   25  C   UNL     1      41.535 -21.259 -11.950  1.00  0.00     0.192 C 
HETATM   26  O   UNL     1      41.278 -22.266 -11.277  1.00  0.00    -0.287 OA
BRANCH  25  27
HETATM   27  C   UNL     1      41.490 -19.904 -11.289  1.00  0.00     0.080 A 
HETATM   28  C   UNL     1      40.397 -19.068 -11.470  1.00  0.00     0.082 A 
HETATM   29  C   UNL     1      40.427 -17.769 -10.986  1.00  0.00     0.037 A 
HETATM   30  C   UNL     1      41.497 -17.336 -10.227  1.00  0.00     0.005 A 
HETATM   31  C   UNL     1      42.536 -18.207  -9.945  1.00  0.00     0.037 A 
HETATM   32  C   UNL     1      42.549 -19.488 -10.492  1.00  0.00     0.082 A 
BRANCH  28  33
HETATM   33  O   UNL     1      39.264 -19.537 -12.088  1.00  0.00    -0.360 OA
ATOM     34  HO  UNL     1      39.202 -20.456 -12.321  1.00  0.00     0.217 HD
ENDBRANCH  28  33
BRANCH  32  35
HETATM   35  O   UNL     1      43.609 -20.343 -10.256  1.00  0.00    -0.360 OA
ATOM     36  HO  UNL     1      43.912 -20.504  -9.370  1.00  0.00     0.217 HD
ENDBRANCH  32  35
ENDBRANCH  25  27
ENDBRANCH   4  25
TORSDOF 11
ENDMDL
MODEL 4
REMARK VINA RESULT:      -9.2      3.984      7.605
REMARK  11 active torsions:
REMARK  status: ('A' for Active; 'I' for Inactive)
REMARK    1  A    between atoms: C_1  and  C_20 
REMARK    2  A    between atoms: C_1  and  C_22 
REMARK    3  A    between atoms: O_2  and  C_33 
REMARK    4  A    between atoms: C_6  and  O_34 
REMARK    5  A    between atoms: C_7  and  O_11 
REMARK    6  A    between atoms: C_7  and  C_31 
REMARK    7  A    between atoms: C_10  and  O_16 
REMARK    8  A    between atoms: C_10  and  C_19 
REMARK    9  A    between atoms: C_10  and  C_26 
REMARK   10  A    between atoms: C_21  and  O_27 
REMARK   11  A    between atoms: C_23  and  C_31 
ROOT
HETATM    1  C   UNL     1      39.969 -20.409 -16.531  1.00  0.00     0.054 C 
HETATM    2  C   UNL     1      40.063 -21.698 -15.728  1.00  0.00     0.154 C 
HETATM    3  C   UNL     1      39.650 -21.240 -14.331  1.00  0.00     0.193 C 
HETATM    4  C   UNL     1      38.409 -20.454 -14.718  1.00  0.00     0.003 C 
HETATM    5  C   UNL     1      38.901 -19.556 -15.845  1.00  0.00     0.044 C 
ENDROOT
BRANCH   2   6
HETATM    6  O   UNL     1      39.132 -22.654 -16.233  1.00  0.00    -0.379 OA
ATOM      7  HO  UNL     1      39.375 -23.526 -15.944  1.00  0.00     0.211 HD
ENDBRANCH   2   6
BRANCH   2   8
HETATM    8  C   UNL     1      41.435 -22.328 -15.713  1.00  0.00     0.213 C 
HETATM    9  O   UNL     1      41.648 -23.422 -16.235  1.00  0.00    -0.287 OA
BRANCH   8  10
HETATM   10  C   UNL     1      42.505 -21.468 -15.192  1.00  0.00     0.085 A 
HETATM   11  C   UNL     1      43.662 -20.995 -15.775  1.00  0.00     0.049 A 
HETATM   12  C   UNL     1      44.304 -20.220 -14.841  1.00  0.00     0.051 A 
HETATM   13  C   UNL     1      43.477 -20.206 -13.679  1.00  0.00     0.255 A 
HETATM   14  O   UNL     1      43.613 -19.548 -12.631  1.00  0.00    -0.268 OA
HETATM   15  N   UNL     1      42.392 -20.985 -13.916  1.00  0.00    -0.320 N 
ATOM     16  HN  UNL     1      41.632 -21.176 -13.263  1.00  0.00     0.169 HD
BRANCH  12  17
HETATM   17  C   UNL     1      45.530 -19.367 -15.068  1.00  0.00     0.257 C 
BRANCH  17  18
HETATM   18  O   UNL     1      45.390 -18.098 -14.442  1.00  0.00    -0.380 OA
ATOM     19  HO  UNL     1      45.300 -17.408 -15.090  1.00  0.00     0.211 HD
ENDBRANCH  17  18
BRANCH  17  20
HETATM   20  C   UNL     1      45.786 -19.211 -16.559  1.00  0.00     0.207 C 
HETATM   21  O   UNL     1      45.471 -18.100 -17.059  1.00  0.00    -0.646 OA
HETATM   22  O   UNL     1      46.314 -20.159 -17.191  1.00  0.00    -0.646 OA
ENDBRANCH  17  20
ENDBRANCH  12  17
ENDBRANCH   8  10
ENDBRANCH   2   8
BRANCH   3  23
HETATM   23  O   UNL     1      39.427 -22.295 -13.435  1.00  0.00    -0.388 OA
ATOM     24  HO  UNL     1      39.876 -23.098 -13.670  1.00  0.00     0.210 HD
ENDBRANCH   3  23
BRANCH   4  25
HETATM   25  C   UNL     1      37.375 -19.998 -13.738  1.00  0.00     0.192 C 
HETATM   26  O   UNL     1      36.153 -20.008 -13.935  1.00  0.00    -0.287 OA
BRANCH  25  27
HETATM   27  C   UNL     1      37.925 -19.187 -12.592  1.00  0.00     0.080 A 
HETATM   28  C   UNL     1      38.145 -17.824 -12.734  1.00  0.00     0.082 A 
HETATM   29  C   UNL     1      38.790 -17.114 -11.732  1.00  0.00     0.037 A 
HETATM   30  C   UNL     1      39.116 -17.736 -10.542  1.00  0.00     0.005 A 
HETATM   31  C   UNL     1      38.792 -19.069 -10.351  1.00  0.00     0.037 A 
HETATM   32  C   UNL     1      38.215 -19.807 -11.382  1.00  0.00     0.082 A 
BRANCH  28  33
HETATM   33  O   UNL     1      37.684 -17.163 -13.846  1.00  0.00    -0.360 OA
ATOM     34  HO  UNL     1      36.749 -17.098 -13.999  1.00  0.00     0.217 HD
ENDBRANCH  28  33
BRANCH  32  35
HETATM   35  O   UNL     1      37.936 -21.151 -11.214  1.00  0.00    -0.360 OA
ATOM     36  HO  UNL     1      37.069 -21.435 -10.950  1.00  0.00     0.217 HD
ENDBRANCH  32  35
ENDBRANCH  25  27
ENDBRANCH   4  25
TORSDOF 11
ENDMDL
MODEL 5
REMARK VINA RESULT:      -9.2      2.695      3.934
REMARK  11 active torsions:
REMARK  status: ('A' for Active; 'I' for Inactive)
REMARK    1  A    between atoms: C_1  and  C_20 
REMARK    2  A    between atoms: C_1  and  C_22 
REMARK    3  A    between atoms: O_2  and  C_33 
REMARK    4  A    between atoms: C_6  and  O_34 
REMARK    5  A    between atoms: C_7  and  O_11 
REMARK    6  A    between atoms: C_7  and  C_31 
REMARK    7  A    between atoms: C_10  and  O_16 
REMARK    8  A    between atoms: C_10  and  C_19 
REMARK    9  A    between atoms: C_10  and  C_26 
REMARK   10  A    between atoms: C_21  and  O_27 
REMARK   11  A    between atoms: C_23  and  C_31 
ROOT
HETATM    1  C   UNL     1      37.574 -21.039 -14.947  1.00  0.00     0.054 C 
HETATM    2  C   UNL     1      38.965 -21.278 -15.515  1.00  0.00     0.154 C 
HETATM    3  C   UNL     1      39.856 -21.057 -14.295  1.00  0.00     0.193 C 
HETATM    4  C   UNL     1      39.079 -21.905 -13.302  1.00  0.00     0.003 C 
HETATM    5  C   UNL     1      37.649 -21.413 -13.466  1.00  0.00     0.044 C 
ENDROOT
BRANCH   2   6
HETATM    6  O   UNL     1      39.077 -22.624 -15.974  1.00  0.00    -0.379 OA
ATOM      7  HO  UNL     1      39.651 -23.116 -15.399  1.00  0.00     0.211 HD
ENDBRANCH   2   6
BRANCH   2   8
HETATM    8  C   UNL     1      39.348 -20.353 -16.646  1.00  0.00     0.213 C 
HETATM    9  O   UNL     1      40.280 -19.557 -16.541  1.00  0.00    -0.287 OA
BRANCH   8  10
HETATM   10  C   UNL     1      38.646 -20.602 -17.911  1.00  0.00     0.085 A 
HETATM   11  C   UNL     1      37.596 -19.943 -18.518  1.00  0.00     0.049 A 
HETATM   12  C   UNL     1      37.334 -20.591 -19.700  1.00  0.00     0.051 A 
HETATM   13  C   UNL     1      38.287 -21.646 -19.811  1.00  0.00     0.255 A 
HETATM   14  O   UNL     1      38.490 -22.419 -20.766  1.00  0.00    -0.268 OA
HETATM   15  N   UNL     1      39.067 -21.638 -18.701  1.00  0.00    -0.320 N 
ATOM     16  HN  UNL     1      39.828 -22.284 -18.493  1.00  0.00     0.169 HD
BRANCH  12  17
HETATM   17  C   UNL     1      36.376 -20.143 -20.778  1.00  0.00     0.257 C 
BRANCH  17  18
HETATM   18  O   UNL     1      36.559 -18.766 -21.083  1.00  0.00    -0.380 OA
ATOM     19  HO  UNL     1      36.529 -18.620 -22.021  1.00  0.00     0.211 HD
ENDBRANCH  17  18
BRANCH  17  20
HETATM   20  C   UNL     1      34.943 -20.418 -20.348  1.00  0.00     0.207 C 
HETATM   21  O   UNL     1      34.559 -21.613 -20.442  1.00  0.00    -0.646 OA
HETATM   22  O   UNL     1      34.247 -19.473 -19.903  1.00  0.00    -0.646 OA
ENDBRANCH  17  20
ENDBRANCH  12  17
ENDBRANCH   8  10
ENDBRANCH   2   8
BRANCH   3  23
HETATM   23  O   UNL     1      41.189 -21.447 -14.491  1.00  0.00    -0.388 OA
ATOM     24  HO  UNL     1      41.810 -20.730 -14.430  1.00  0.00     0.210 HD
ENDBRANCH   3  23
BRANCH   4  25
HETATM   25  C   UNL     1      39.621 -22.336 -11.976  1.00  0.00     0.192 C 
HETATM   26  O   UNL     1      39.221 -23.311 -11.326  1.00  0.00    -0.287 OA
BRANCH  25  27
HETATM   27  C   UNL     1      40.474 -21.299 -11.289  1.00  0.00     0.080 A 
HETATM   28  C   UNL     1      39.889 -20.208 -10.662  1.00  0.00     0.082 A 
HETATM   29  C   UNL     1      40.680 -19.183 -10.165  1.00  0.00     0.037 A 
HETATM   30  C   UNL     1      42.057 -19.294 -10.194  1.00  0.00     0.005 A 
HETATM   31  C   UNL     1      42.644 -20.436 -10.714  1.00  0.00     0.037 A 
HETATM   32  C   UNL     1      41.857 -21.434 -11.284  1.00  0.00     0.082 A 
BRANCH  28  33
HETATM   33  O   UNL     1      38.528 -20.160 -10.488  1.00  0.00    -0.360 OA
ATOM     34  HO  UNL     1      38.027 -20.968 -10.470  1.00  0.00     0.217 HD
ENDBRANCH  28  33
BRANCH  32  35
HETATM   35  O   UNL     1      42.440 -22.553 -11.850  1.00  0.00    -0.360 OA
ATOM     36  HO  UNL     1      41.972 -23.066 -12.499  1.00  0.00     0.217 HD
ENDBRANCH  32  35
ENDBRANCH  25  27
ENDBRANCH   4  25
TORSDOF 11
ENDMDL
MODEL 6
REMARK VINA RESULT:      -9.1      2.407      3.645
REMARK  11 active torsions:
REMARK  status: ('A' for Active; 'I' for Inactive)
REMARK    1  A    between atoms: C_1  and  C_20 
REMARK    2  A    between atoms: C_1  and  C_22 
REMARK    3  A    between atoms: O_2  and  C_33 
REMARK    4  A    between atoms: C_6  and  O_34 
REMARK    5  A    between atoms: C_7  and  O_11 
REMARK    6  A    between atoms: C_7  and  C_31 
REMARK    7  A    between atoms: C_10  and  O_16 
REMARK    8  A    between atoms: C_10  and  C_19 
REMARK    9  A    between atoms: C_10  and  C_26 
REMARK   10  A    between atoms: C_21  and  O_27 
REMARK   11  A    between atoms: C_23  and  C_31 
ROOT
HETATM    1  C   UNL     1      37.643 -18.208 -15.234  1.00  0.00     0.054 C 
HETATM    2  C   UNL     1      37.931 -19.697 -15.119  1.00  0.00     0.154 C 
HETATM    3  C   UNL     1      39.118 -19.724 -14.160  1.00  0.00     0.193 C 
HETATM    4  C   UNL     1      38.566 -18.782 -13.103  1.00  0.00     0.003 C 
HETATM    5  C   UNL     1      38.099 -17.582 -13.915  1.00  0.00     0.044 C 
ENDROOT
BRANCH   2   6
HETATM    6  O   UNL     1      36.810 -20.365 -14.543  1.00  0.00    -0.379 OA
ATOM      7  HO  UNL     1      36.197 -19.728 -14.197  1.00  0.00     0.211 HD
ENDBRANCH   2   6
BRANCH   2   8
HETATM    8  C   UNL     1      38.270 -20.372 -16.427  1.00  0.00     0.213 C 
HETATM    9  O   UNL     1      39.152 -21.227 -16.503  1.00  0.00    -0.287 OA
BRANCH   8  10
HETATM   10  C   UNL     1      37.361 -20.058 -17.538  1.00  0.00     0.085 A 
HETATM   11  C   UNL     1      37.556 -20.055 -18.903  1.00  0.00     0.049 A 
HETATM   12  C   UNL     1      36.367 -19.691 -19.486  1.00  0.00     0.051 A 
HETATM   13  C   UNL     1      35.428 -19.511 -18.427  1.00  0.00     0.255 A 
HETATM   14  O   UNL     1      34.206 -19.285 -18.496  1.00  0.00    -0.268 OA
HETATM   15  N   UNL     1      36.064 -19.730 -17.249  1.00  0.00    -0.320 N 
ATOM     16  HN  UNL     1      35.652 -19.661 -16.318  1.00  0.00     0.169 HD
BRANCH  12  17
HETATM   17  C   UNL     1      36.048 -19.699 -20.962  1.00  0.00     0.257 C 
BRANCH  17  18
HETATM   18  O   UNL     1      37.195 -20.045 -21.729  1.00  0.00    -0.380 OA
ATOM     19  HO  UNL     1      37.734 -20.676 -21.266  1.00  0.00     0.211 HD
ENDBRANCH  17  18
BRANCH  17  20
HETATM   20  C   UNL     1      35.503 -18.343 -21.383  1.00  0.00     0.207 C 
HETATM   21  O   UNL     1      36.271 -17.362 -21.211  1.00  0.00    -0.646 OA
HETATM   22  O   UNL     1      34.360 -18.277 -21.898  1.00  0.00    -0.646 OA
ENDBRANCH  17  20
ENDBRANCH  12  17
ENDBRANCH   8  10
ENDBRANCH   2   8
BRANCH   3  23
HETATM   23  O   UNL     1      39.441 -21.009 -13.698  1.00  0.00    -0.388 OA
ATOM     24  HO  UNL     1      39.657 -21.039 -12.773  1.00  0.00     0.210 HD
ENDBRANCH   3  23
BRANCH   4  25
HETATM   25  C   UNL     1      39.153 -18.633 -11.735  1.00  0.00     0.192 C 
HETATM   26  O   UNL     1      38.501 -18.559 -10.686  1.00  0.00    -0.287 OA
BRANCH  25  27
HETATM   27  C   UNL     1      40.604 -18.226 -11.726  1.00  0.00     0.080 A 
HETATM   28  C   UNL     1      40.962 -16.887 -11.809  1.00  0.00     0.082 A 
HETATM   29  C   UNL     1      42.294 -16.530 -11.952  1.00  0.00     0.037 A 
HETATM   30  C   UNL     1      43.280 -17.496 -11.902  1.00  0.00     0.005 A 
HETATM   31  C   UNL     1      42.934 -18.821 -11.702  1.00  0.00     0.037 A 
HETATM   32  C   UNL     1      41.594 -19.196 -11.635  1.00  0.00     0.082 A 
BRANCH  28  33
HETATM   33  O   UNL     1      40.004 -15.909 -11.703  1.00  0.00    -0.360 OA
ATOM     34  HO  UNL     1      39.128 -16.139 -11.413  1.00  0.00     0.217 HD
ENDBRANCH  28  33
BRANCH  32  35
HETATM   35  O   UNL     1      41.242 -20.525 -11.486  1.00  0.00    -0.360 OA
ATOM     36  HO  UNL     1      40.446 -20.862 -11.881  1.00  0.00     0.217 HD
ENDBRANCH  32  35
ENDBRANCH  25  27
ENDBRANCH   4  25
TORSDOF 11
ENDMDL
MODEL 7
REMARK VINA RESULT:      -9.0      1.558      2.824
REMARK  11 active torsions:
REMARK  status: ('A' for Active; 'I' for Inactive)
REMARK    1  A    between atoms: C_1  and  C_20 
REMARK    2  A    between atoms: C_1  and  C_22 
REMARK    3  A    between atoms: O_2  and  C_33 
REMARK    4  A    between atoms: C_6  and  O_34 
REMARK    5  A    between atoms: C_7  and  O_11 
REMARK    6  A    between atoms: C_7  and  C_31 
REMARK    7  A    between atoms: C_10  and  O_16 
REMARK    8  A    between atoms: C_10  and  C_19 
REMARK    9  A    between atoms: C_10  and  C_26 
REMARK   10  A    between atoms: C_21  and  O_27 
REMARK   11  A    between atoms: C_23  and  C_31 
ROOT
HETATM    1  C   UNL     1      38.454 -20.433 -13.262  1.00  0.00     0.054 C 
HETATM    2  C   UNL     1      38.771 -20.358 -14.748  1.00  0.00     0.154 C 
HETATM    3  C   UNL     1      40.288 -20.180 -14.747  1.00  0.00     0.193 C 
HETATM    4  C   UNL     1      40.635 -21.281 -13.760  1.00  0.00     0.003 C 
HETATM    5  C   UNL     1      39.702 -21.007 -12.589  1.00  0.00     0.044 C 
ENDROOT
BRANCH   2   6
HETATM    6  O   UNL     1      38.414 -21.584 -15.383  1.00  0.00    -0.379 OA
ATOM      7  HO  UNL     1      37.469 -21.650 -15.451  1.00  0.00     0.211 HD
ENDBRANCH   2   6
BRANCH   2   8
HETATM    8  C   UNL     1      38.089 -19.225 -15.477  1.00  0.00     0.213 C 
HETATM    9  O   UNL     1      38.059 -18.084 -15.016  1.00  0.00    -0.287 OA
BRANCH   8  10
HETATM   10  C   UNL     1      37.627 -19.553 -16.832  1.00  0.00     0.085 A 
HETATM   11  C   UNL     1      36.436 -19.296 -17.478  1.00  0.00     0.049 A 
HETATM   12  C   UNL     1      36.535 -19.818 -18.745  1.00  0.00     0.051 A 
HETATM   13  C   UNL     1      37.846 -20.368 -18.861  1.00  0.00     0.255 A 
HETATM   14  O   UNL     1      38.407 -20.846 -19.864  1.00  0.00    -0.268 OA
HETATM   15  N   UNL     1      38.487 -20.204 -17.677  1.00  0.00    -0.320 N 
ATOM     16  HN  UNL     1      39.434 -20.509 -17.456  1.00  0.00     0.169 HD
BRANCH  12  17
HETATM   17  C   UNL     1      35.541 -19.648 -19.869  1.00  0.00     0.257 C 
BRANCH  17  18
HETATM   18  O   UNL     1      35.027 -18.322 -19.897  1.00  0.00    -0.380 OA
ATOM     19  HO  UNL     1      35.580 -17.755 -20.422  1.00  0.00     0.211 HD
ENDBRANCH  17  18
BRANCH  17  20
HETATM   20  C   UNL     1      34.418 -20.663 -19.729  1.00  0.00     0.207 C 
HETATM   21  O   UNL     1      33.467 -20.333 -18.973  1.00  0.00    -0.646 OA
HETATM   22  O   UNL     1      34.477 -21.734 -20.381  1.00  0.00    -0.646 OA
ENDBRANCH  17  20
ENDBRANCH  12  17
ENDBRANCH   8  10
ENDBRANCH   2   8
BRANCH   3  23
HETATM   23  O   UNL     1      40.872 -20.317 -16.016  1.00  0.00    -0.388 OA
ATOM     24  HO  UNL     1      40.610 -21.106 -16.474  1.00  0.00     0.210 HD
ENDBRANCH   3  23
BRANCH   4  25
HETATM   25  C   UNL     1      42.019 -21.812 -13.561  1.00  0.00     0.192 C 
HETATM   26  O   UNL     1      42.334 -22.692 -12.749  1.00  0.00    -0.287 OA
BRANCH  25  27
HETATM   27  C   UNL     1      43.102 -20.963 -14.177  1.00  0.00     0.080 A 
HETATM   28  C   UNL     1      43.625 -19.877 -13.488  1.00  0.00     0.082 A 
HETATM   29  C   UNL     1      44.509 -19.013 -14.117  1.00  0.00     0.037 A 
HETATM   30  C   UNL     1      44.958 -19.289 -15.394  1.00  0.00     0.005 A 
HETATM   31  C   UNL     1      44.528 -20.436 -16.041  1.00  0.00     0.037 A 
HETATM   32  C   UNL     1      43.582 -21.267 -15.445  1.00  0.00     0.082 A 
BRANCH  28  33
HETATM   33  O   UNL     1      43.307 -19.680 -12.167  1.00  0.00    -0.360 OA
ATOM     34  HO  UNL     1      43.597 -20.308 -11.515  1.00  0.00     0.217 HD
ENDBRANCH  28  33
BRANCH  32  35
HETATM   35  O   UNL     1      43.111 -22.385 -16.109  1.00  0.00    -0.360 OA
ATOM     36  HO  UNL     1      42.322 -22.825 -15.815  1.00  0.00     0.217 HD
ENDBRANCH  32  35
ENDBRANCH  25  27
ENDBRANCH   4  25
TORSDOF 11
ENDMDL
MODEL 8
REMARK VINA RESULT:      -9.0      3.530      8.223
REMARK  11 active torsions:
REMARK  status: ('A' for Active; 'I' for Inactive)
REMARK    1  A    between atoms: C_1  and  C_20 
REMARK    2  A    between atoms: C_1  and  C_22 
REMARK    3  A    between atoms: O_2  and  C_33 
REMARK    4  A    between atoms: C_6  and  O_34 
REMARK    5  A    between atoms: C_7  and  O_11 
REMARK    6  A    between atoms: C_7  and  C_31 
REMARK    7  A    between atoms: C_10  and  O_16 
REMARK    8  A    between atoms: C_10  and  C_19 
REMARK    9  A    between atoms: C_10  and  C_26 
REMARK   10  A    between atoms: C_21  and  O_27 
REMARK   11  A    between atoms: C_23  and  C_31 
ROOT
HETATM    1  C   UNL     1      41.734 -22.722 -16.266  1.00  0.00     0.054 C 
HETATM    2  C   UNL     1      41.828 -21.762 -15.090  1.00  0.00     0.154 C 
HETATM    3  C   UNL     1      40.906 -20.625 -15.525  1.00  0.00     0.193 C 
HETATM    4  C   UNL     1      39.720 -21.465 -15.969  1.00  0.00     0.003 C 
HETATM    5  C   UNL     1      40.351 -22.504 -16.884  1.00  0.00     0.044 C 
ENDROOT
BRANCH   2   6
HETATM    6  O   UNL     1      41.325 -22.388 -13.911  1.00  0.00    -0.379 OA
ATOM      7  HO  UNL     1      41.816 -23.181 -13.731  1.00  0.00     0.211 HD
ENDBRANCH   2   6
BRANCH   2   8
HETATM    8  C   UNL     1      43.222 -21.256 -14.805  1.00  0.00     0.213 C 
HETATM    9  O   UNL     1      44.150 -21.439 -15.594  1.00  0.00    -0.287 OA
BRANCH   8  10
HETATM   10  C   UNL     1      43.337 -20.397 -13.619  1.00  0.00     0.085 A 
HETATM   11  C   UNL     1      43.510 -19.034 -13.493  1.00  0.00     0.049 A 
HETATM   12  C   UNL     1      43.545 -18.748 -12.150  1.00  0.00     0.051 A 
HETATM   13  C   UNL     1      43.347 -19.982 -11.462  1.00  0.00     0.255 A 
HETATM   14  O   UNL     1      43.199 -20.181 -10.242  1.00  0.00    -0.268 OA
HETATM   15  N   UNL     1      43.235 -20.973 -12.381  1.00  0.00    -0.320 N 
ATOM     16  HN  UNL     1      43.100 -21.965 -12.187  1.00  0.00     0.169 HD
BRANCH  12  17
HETATM   17  C   UNL     1      43.562 -17.375 -11.523  1.00  0.00     0.257 C 
BRANCH  17  18
HETATM   18  O   UNL     1      43.601 -17.463 -10.104  1.00  0.00    -0.380 OA
ATOM     19  HO  UNL     1      43.912 -16.650  -9.722  1.00  0.00     0.211 HD
ENDBRANCH  17  18
BRANCH  17  20
HETATM   20  C   UNL     1      42.352 -16.577 -11.983  1.00  0.00     0.207 C 
HETATM   21  O   UNL     1      41.277 -17.221 -12.094  1.00  0.00    -0.646 OA
HETATM   22  O   UNL     1      42.475 -15.345 -12.191  1.00  0.00    -0.646 OA
ENDBRANCH  17  20
ENDBRANCH  12  17
ENDBRANCH   8  10
ENDBRANCH   2   8
BRANCH   3  23
HETATM   23  O   UNL     1      40.630 -19.702 -14.505  1.00  0.00    -0.388 OA
ATOM     24  HO  UNL     1      41.270 -19.004 -14.437  1.00  0.00     0.210 HD
ENDBRANCH   3  23
BRANCH   4  25
HETATM   25  C   UNL     1      38.357 -20.906 -16.228  1.00  0.00     0.192 C 
HETATM   26  O   UNL     1      37.973 -20.439 -17.308  1.00  0.00    -0.287 OA
BRANCH  25  27
HETATM   27  C   UNL     1      37.559 -20.621 -14.981  1.00  0.00     0.080 A 
HETATM   28  C   UNL     1      37.060 -21.661 -14.210  1.00  0.00     0.082 A 
HETATM   29  C   UNL     1      36.202 -21.396 -13.153  1.00  0.00     0.037 A 
HETATM   30  C   UNL     1      35.928 -20.091 -12.793  1.00  0.00     0.005 A 
HETATM   31  C   UNL     1      36.519 -19.048 -13.488  1.00  0.00     0.037 A 
HETATM   32  C   UNL     1      37.319 -19.307 -14.598  1.00  0.00     0.082 A 
BRANCH  28  33
HETATM   33  O   UNL     1      37.450 -22.954 -14.460  1.00  0.00    -0.360 OA
ATOM     34  HO  UNL     1      36.944 -23.675 -14.102  1.00  0.00     0.217 HD
ENDBRANCH  28  33
BRANCH  32  35
HETATM   35  O   UNL     1      37.869 -18.268 -15.326  1.00  0.00    -0.360 OA
ATOM     36  HO  UNL     1      38.177 -17.482 -14.890  1.00  0.00     0.217 HD
ENDBRANCH  32  35
ENDBRANCH  25  27
ENDBRANCH   4  25
TORSDOF 11
ENDMDL
MODEL 9
REMARK VINA RESULT:      -9.0      2.872      4.707
REMARK  11 active torsions:
REMARK  status: ('A' for Active; 'I' for Inactive)
REMARK    1  A    between atoms: C_1  and  C_20 
REMARK    2  A    between atoms: C_1  and  C_22 
REMARK    3  A    between atoms: O_2  and  C_33 
REMARK    4  A    between atoms: C_6  and  O_34 
REMARK    5  A    between atoms: C_7  and  O_11 
REMARK    6  A    between atoms: C_7  and  C_31 
REMARK    7  A    between atoms: C_10  and  O_16 
REMARK    8  A    between atoms: C_10  and  C_19 
REMARK    9  A    between atoms: C_10  and  C_26 
REMARK   10  A    between atoms: C_21  and  O_27 
REMARK   11  A    between atoms: C_23  and  C_31 
ROOT
HETATM    1  C   UNL     1      39.269 -18.059 -11.786  1.00  0.00     0.054 C 
HETATM    2  C   UNL     1      38.834 -19.497 -11.551  1.00  0.00     0.154 C 
HETATM    3  C   UNL     1      40.045 -20.286 -12.041  1.00  0.00     0.193 C 
HETATM    4  C   UNL     1      41.125 -19.495 -11.322  1.00  0.00     0.003 C 
HETATM    5  C   UNL     1      40.794 -18.052 -11.676  1.00  0.00     0.044 C 
ENDROOT
BRANCH   2   6
HETATM    6  O   UNL     1      38.624 -19.721 -10.158  1.00  0.00    -0.379 OA
ATOM      7  HO  UNL     1      37.709 -19.582  -9.942  1.00  0.00     0.211 HD
ENDBRANCH   2   6
BRANCH   2   8
HETATM    8  C   UNL     1      37.582 -19.902 -12.294  1.00  0.00     0.213 C 
HETATM    9  O   UNL     1      36.518 -20.099 -11.706  1.00  0.00    -0.287 OA
BRANCH   8  10
HETATM   10  C   UNL     1      37.694 -19.870 -13.757  1.00  0.00     0.085 A 
HETATM   11  C   UNL     1      38.743 -20.174 -14.600  1.00  0.00     0.049 A 
HETATM   12  C   UNL     1      38.305 -19.979 -15.887  1.00  0.00     0.051 A 
HETATM   13  C   UNL     1      36.938 -19.582 -15.800  1.00  0.00     0.255 A 
HETATM   14  O   UNL     1      36.117 -19.403 -16.718  1.00  0.00    -0.268 OA
HETATM   15  N   UNL     1      36.594 -19.511 -14.490  1.00  0.00    -0.320 N 
ATOM     16  HN  UNL     1      35.683 -19.241 -14.119  1.00  0.00     0.169 HD
BRANCH  12  17
HETATM   17  C   UNL     1      39.049 -20.330 -17.153  1.00  0.00     0.257 C 
BRANCH  17  18
HETATM   18  O   UNL     1      38.153 -20.464 -18.249  1.00  0.00    -0.380 OA
ATOM     19  HO  UNL     1      37.300 -20.105 -18.036  1.00  0.00     0.211 HD
ENDBRANCH  17  18
BRANCH  17  20
HETATM   20  C   UNL     1      39.852 -21.606 -16.949  1.00  0.00     0.207 C 
HETATM   21  O   UNL     1      41.033 -21.454 -16.543  1.00  0.00    -0.646 OA
HETATM   22  O   UNL     1      39.301 -22.714 -17.156  1.00  0.00    -0.646 OA
ENDBRANCH  17  20
ENDBRANCH  12  17
ENDBRANCH   8  10
ENDBRANCH   2   8
BRANCH   3  23
HETATM   23  O   UNL     1      39.998 -21.651 -11.718  1.00  0.00    -0.388 OA
ATOM     24  HO  UNL     1      40.211 -22.223 -12.446  1.00  0.00     0.210 HD
ENDBRANCH   3  23
BRANCH   4  25
HETATM   25  C   UNL     1      42.535 -19.968 -11.164  1.00  0.00     0.192 C 
HETATM   26  O   UNL     1      43.226 -19.817 -10.148  1.00  0.00    -0.287 OA
BRANCH  25  27
HETATM   27  C   UNL     1      43.208 -20.350 -12.458  1.00  0.00     0.080 A 
HETATM   28  C   UNL     1      43.810 -19.384 -13.252  1.00  0.00     0.082 A 
HETATM   29  C   UNL     1      44.293 -19.717 -14.508  1.00  0.00     0.037 A 
HETATM   30  C   UNL     1      44.277 -21.032 -14.931  1.00  0.00     0.005 A 
HETATM   31  C   UNL     1      43.783 -22.018 -14.093  1.00  0.00     0.037 A 
HETATM   32  C   UNL     1      43.226 -21.680 -12.861  1.00  0.00     0.082 A 
BRANCH  28  33
HETATM   33  O   UNL     1      43.974 -18.105 -12.778  1.00  0.00    -0.360 OA
ATOM     34  HO  UNL     1      43.653 -17.371 -13.289  1.00  0.00     0.217 HD
ENDBRANCH  28  33
BRANCH  32  35
HETATM   35  O   UNL     1      42.685 -22.654 -12.043  1.00  0.00    -0.360 OA
ATOM     36  HO  UNL     1      43.235 -23.133 -11.433  1.00  0.00     0.217 HD
ENDBRANCH  32  35
ENDBRANCH  25  27
ENDBRANCH   4  25
TORSDOF 11
ENDMDL
