MODEL 1
REMARK VINA RESULT:     -10.6      0.000      0.000
REMARK  7 active torsions:
REMARK  status: ('A' for Active; 'I' for Inactive)
REMARK    1  A    between atoms: C_1  and  C_31 
REMARK    2  A    between atoms: C_2  and  O_33 
REMARK    3  A    between atoms: S_5  and  C_24 
REMARK       I    between atoms: C_7  and  N_19 
REMARK    4  A    between atoms: C_7  and  C_21 
REMARK    5  A    between atoms: C_15  and  N_19 
REMARK    6  A    between atoms: C_21  and  O_25 
REMARK    7  A    between atoms: O_22  and  C_27 
ROOT
HETATM    1  C   UNL     1      43.603 -19.812 -14.146  1.00  0.00     0.002 C 
HETATM    2  C   UNL     1      43.896 -23.278 -14.298  1.00  0.00     0.050 C 
HETATM    3  C   UNL     1      43.977 -21.940 -14.985  1.00  0.00    -0.034 C 
HETATM    4  C   UNL     1      45.123 -21.518 -15.700  1.00  0.00     0.009 C 
HETATM    5  C   UNL     1      42.978 -20.942 -14.798  1.00  0.00     0.051 C 
HETATM    6  C   UNL     1      44.747 -19.298 -14.790  1.00  0.00     0.014 C 
HETATM    7  C   UNL     1      45.486 -20.152 -15.622  1.00  0.00     0.002 C 
ENDROOT
BRANCH   5   8
HETATM    8  N   UNL     1      41.656 -20.996 -15.239  1.00  0.00    -0.323 N 
HETATM    9  C   UNL     1      40.631 -21.837 -15.496  1.00  0.00     0.267 C 
HETATM   10  O   UNL     1      40.566 -22.449 -16.562  1.00  0.00    -0.269 OA
ATOM     11  HN  UNL     1      41.349 -20.045 -15.444  1.00  0.00     0.169 HD
BRANCH   9  12
HETATM   12  C   UNL     1      39.462 -21.934 -14.483  1.00  0.00     0.205 C 
HETATM   13  C   UNL     1      38.516 -20.731 -14.427  1.00  0.00     0.091 C 
HETATM   14  C   UNL     1      37.184 -20.698 -13.748  1.00  0.00     0.036 C 
HETATM   15  C   UNL     1      37.003 -21.068 -12.451  1.00  0.00     0.003 C 
HETATM   16  C   UNL     1      37.963 -21.730 -11.590  1.00  0.00    -0.000 C 
HETATM   17  C   UNL     1      39.218 -22.235 -11.907  1.00  0.00    -0.000 C 
HETATM   18  C   UNL     1      39.996 -22.276 -13.078  1.00  0.00     0.028 C 
BRANCH  13  19
HETATM   19  O   UNL     1      39.075 -19.483 -14.674  1.00  0.00    -0.361 OA
ATOM     20  HO  UNL     1      39.721 -19.467 -15.369  1.00  0.00     0.217 HD
ENDBRANCH  13  19
BRANCH  12  21
HETATM   21  O   UNL     1      38.549 -22.943 -14.937  1.00  0.00    -0.371 OA
ATOM     22  HO  UNL     1      37.956 -22.407 -15.450  1.00  0.00     0.212 HD
ENDBRANCH  12  21
ENDBRANCH   9  12
ENDBRANCH   5   8
BRANCH   1  23
HETATM   23  C   UNL     1      43.223 -19.430 -12.772  1.00  0.00    -0.021 C 
HETATM   24  C   UNL     1      42.863 -18.120 -12.484  1.00  0.00     0.050 C 
HETATM   25  C   UNL     1      42.528 -17.742 -11.184  1.00  0.00     0.090 C 
HETATM   26  C   UNL     1      42.440 -18.716 -10.187  1.00  0.00     0.113 C 
HETATM   27  C   UNL     1      42.865 -20.010 -10.454  1.00  0.00     0.030 C 
HETATM   28  C   UNL     1      43.191 -20.384 -11.753  1.00  0.00     0.014 C 
BRANCH  25  29
HETATM   29  O   UNL     1      42.241 -16.435 -10.883  1.00  0.00    -0.359 OA
ATOM     30  HO  UNL     1      42.672 -15.723 -11.342  1.00  0.00     0.217 HD
ENDBRANCH  25  29
BRANCH  26  31
HETATM   31  S   UNL     1      41.654 -18.308  -8.669  1.00  0.00     0.140 S 
HETATM   32  O   UNL     1      42.178 -17.011  -8.244  1.00  0.00    -0.591 OA
HETATM   33  O   UNL     1      42.003 -19.387  -7.747  1.00  0.00    -0.591 OA
HETATM   34  O   UNL     1      40.209 -18.193  -8.959  1.00  0.00    -0.591 OA
ENDBRANCH  26  31
ENDBRANCH   1  23
TORSDOF 7
ENDMDL
MODEL 2
REMARK VINA RESULT:     -10.5      2.357      5.515
REMARK  7 active torsions:
REMARK  status: ('A' for Active; 'I' for Inactive)
REMARK    1  A    between atoms: C_1  and  C_31 
REMARK    2  A    between atoms: C_2  and  O_33 
REMARK    3  A    between atoms: S_5  and  C_24 
REMARK       I    between atoms: C_7  and  N_19 
REMARK    4  A    between atoms: C_7  and  C_21 
REMARK    5  A    between atoms: C_15  and  N_19 
REMARK    6  A    between atoms: C_21  and  O_25 
REMARK    7  A    between atoms: O_22  and  C_27 
ROOT
HETATM    1  C   UNL     1      42.500 -21.706 -13.721  1.00  0.00     0.002 C 
HETATM    2  C   UNL     1      43.995 -19.549 -16.008  1.00  0.00     0.050 C 
HETATM    3  C   UNL     1      44.127 -20.653 -14.993  1.00  0.00    -0.034 C 
HETATM    4  C   UNL     1      44.776 -21.878 -15.278  1.00  0.00     0.009 C 
HETATM    5  C   UNL     1      43.441 -20.608 -13.745  1.00  0.00     0.051 C 
HETATM    6  C   UNL     1      43.049 -22.980 -13.973  1.00  0.00     0.014 C 
HETATM    7  C   UNL     1      44.235 -23.060 -14.719  1.00  0.00     0.002 C 
ENDROOT
BRANCH   5   8
HETATM    8  N   UNL     1      43.686 -19.725 -12.694  1.00  0.00    -0.323 N 
HETATM    9  C   UNL     1      43.418 -18.483 -12.234  1.00  0.00     0.267 C 
HETATM   10  O   UNL     1      44.050 -17.508 -12.641  1.00  0.00    -0.269 OA
ATOM     11  HN  UNL     1      44.294 -20.190 -12.021  1.00  0.00     0.169 HD
BRANCH   9  12
HETATM   12  C   UNL     1      42.387 -18.308 -11.091  1.00  0.00     0.205 C 
HETATM   13  C   UNL     1      42.644 -19.122  -9.819  1.00  0.00     0.091 C 
HETATM   14  C   UNL     1      41.964 -18.921  -8.502  1.00  0.00     0.036 C 
HETATM   15  C   UNL     1      40.611 -18.884  -8.363  1.00  0.00     0.003 C 
HETATM   16  C   UNL     1      39.626 -18.817  -9.425  1.00  0.00    -0.000 C 
HETATM   17  C   UNL     1      39.824 -18.663 -10.791  1.00  0.00    -0.000 C 
HETATM   18  C   UNL     1      40.958 -18.548 -11.615  1.00  0.00     0.028 C 
BRANCH  13  19
HETATM   19  O   UNL     1      43.245 -20.363  -9.982  1.00  0.00    -0.361 OA
ATOM     20  HO  UNL     1      42.907 -21.047  -9.416  1.00  0.00     0.217 HD
ENDBRANCH  13  19
BRANCH  12  21
HETATM   21  O   UNL     1      42.516 -16.980 -10.562  1.00  0.00    -0.371 OA
ATOM     22  HO  UNL     1      41.598 -16.756 -10.461  1.00  0.00     0.212 HD
ENDBRANCH  12  21
ENDBRANCH   9  12
ENDBRANCH   5   8
BRANCH   1  23
HETATM   23  C   UNL     1      41.046 -21.453 -13.712  1.00  0.00    -0.021 C 
HETATM   24  C   UNL     1      40.229 -22.088 -12.786  1.00  0.00     0.050 C 
HETATM   25  C   UNL     1      38.851 -21.876 -12.786  1.00  0.00     0.090 C 
HETATM   26  C   UNL     1      38.303 -20.926 -13.652  1.00  0.00     0.113 C 
HETATM   27  C   UNL     1      39.103 -20.343 -14.624  1.00  0.00     0.030 C 
HETATM   28  C   UNL     1      40.477 -20.551 -14.614  1.00  0.00     0.014 C 
BRANCH  25  29
HETATM   29  O   UNL     1      38.035 -22.556 -11.919  1.00  0.00    -0.359 OA
ATOM     30  HO  UNL     1      37.380 -23.164 -12.241  1.00  0.00     0.217 HD
ENDBRANCH  25  29
BRANCH  26  31
HETATM   31  S   UNL     1      36.651 -20.390 -13.386  1.00  0.00     0.140 S 
HETATM   32  O   UNL     1      35.769 -21.488 -13.780  1.00  0.00    -0.591 OA
HETATM   33  O   UNL     1      36.485 -19.205 -14.225  1.00  0.00    -0.591 OA
HETATM   34  O   UNL     1      36.517 -20.137 -11.935  1.00  0.00    -0.591 OA
ENDBRANCH  26  31
ENDBRANCH   1  23
TORSDOF 7
ENDMDL
MODEL 3
REMARK VINA RESULT:     -10.2      3.133      5.544
REMARK  7 active torsions:
REMARK  status: ('A' for Active; 'I' for Inactive)
REMARK    1  A    between atoms: C_1  and  C_31 
REMARK    2  A    between atoms: C_2  and  O_33 
REMARK    3  A    between atoms: S_5  and  C_24 
REMARK       I    between atoms: C_7  and  N_19 
REMARK    4  A    between atoms: C_7  and  C_21 
REMARK    5  A    between atoms: C_15  and  N_19 
REMARK    6  A    between atoms: C_21  and  O_25 
REMARK    7  A    between atoms: O_22  and  C_27 
ROOT
HETATM    1  C   UNL     1      41.619 -19.480 -10.542  1.00  0.00     0.002 C 
HETATM    2  C   UNL     1      40.942 -16.088 -10.937  1.00  0.00     0.050 C 
HETATM    3  C   UNL     1      40.831 -17.343 -10.112  1.00  0.00    -0.034 C 
HETATM    4  C   UNL     1      41.238 -17.405  -8.758  1.00  0.00     0.009 C 
HETATM    5  C   UNL     1      40.486 -18.595 -10.698  1.00  0.00     0.051 C 
HETATM    6  C   UNL     1      42.094 -19.629  -9.223  1.00  0.00     0.014 C 
HETATM    7  C   UNL     1      41.851 -18.596  -8.304  1.00  0.00     0.002 C 
ENDROOT
BRANCH   5   8
HETATM    8  N   UNL     1      39.252 -18.945 -11.246  1.00  0.00    -0.323 N 
HETATM    9  C   UNL     1      38.604 -19.163 -12.410  1.00  0.00     0.267 C 
HETATM   10  O   UNL     1      38.154 -18.226 -13.070  1.00  0.00    -0.269 OA
ATOM     11  HN  UNL     1      38.593 -19.089 -10.481  1.00  0.00     0.169 HD
BRANCH   9  12
HETATM   12  C   UNL     1      38.318 -20.620 -12.853  1.00  0.00     0.205 C 
HETATM   13  C   UNL     1      36.848 -20.980 -13.085  1.00  0.00     0.091 C 
HETATM   14  C   UNL     1      36.347 -22.213 -13.768  1.00  0.00     0.036 C 
HETATM   15  C   UNL     1      36.734 -23.467 -13.412  1.00  0.00     0.003 C 
HETATM   16  C   UNL     1      37.805 -23.826 -12.502  1.00  0.00    -0.000 C 
HETATM   17  C   UNL     1      38.739 -23.003 -11.886  1.00  0.00    -0.000 C 
HETATM   18  C   UNL     1      38.978 -21.617 -11.879  1.00  0.00     0.028 C 
BRANCH  13  19
HETATM   19  O   UNL     1      35.913 -20.337 -12.283  1.00  0.00    -0.361 OA
ATOM     20  HO  UNL     1      35.902 -19.391 -12.364  1.00  0.00     0.217 HD
ENDBRANCH  13  19
BRANCH  12  21
HETATM   21  O   UNL     1      38.828 -20.800 -14.182  1.00  0.00    -0.371 OA
ATOM     22  HO  UNL     1      39.120 -21.702 -14.124  1.00  0.00     0.212 HD
ENDBRANCH  12  21
ENDBRANCH   9  12
ENDBRANCH   5   8
BRANCH   1  23
HETATM   23  C   UNL     1      42.375 -19.951 -11.718  1.00  0.00    -0.021 C 
HETATM   24  C   UNL     1      42.667 -21.301 -11.870  1.00  0.00     0.050 C 
HETATM   25  C   UNL     1      43.404 -21.753 -12.964  1.00  0.00     0.090 C 
HETATM   26  C   UNL     1      43.750 -20.855 -13.976  1.00  0.00     0.113 C 
HETATM   27  C   UNL     1      43.522 -19.499 -13.797  1.00  0.00     0.030 C 
HETATM   28  C   UNL     1      42.781 -19.053 -12.708  1.00  0.00     0.014 C 
BRANCH  25  29
HETATM   29  O   UNL     1      43.753 -23.074 -13.078  1.00  0.00    -0.359 OA
ATOM     30  HO  UNL     1      44.296 -23.493 -12.421  1.00  0.00     0.217 HD
ENDBRANCH  25  29
BRANCH  26  31
HETATM   31  S   UNL     1      44.327 -21.489 -15.511  1.00  0.00     0.140 S 
HETATM   32  O   UNL     1      45.543 -22.253 -15.234  1.00  0.00    -0.591 OA
HETATM   33  O   UNL     1      44.576 -20.318 -16.348  1.00  0.00    -0.591 OA
HETATM   34  O   UNL     1      43.273 -22.392 -16.018  1.00  0.00    -0.591 OA
ENDBRANCH  26  31
ENDBRANCH   1  23
TORSDOF 7
ENDMDL
MODEL 4
REMARK VINA RESULT:     -10.1      1.700      5.116
REMARK  7 active torsions:
REMARK  status: ('A' for Active; 'I' for Inactive)
REMARK    1  A    between atoms: C_1  and  C_31 
REMARK    2  A    between atoms: C_2  and  O_33 
REMARK    3  A    between atoms: S_5  and  C_24 
REMARK       I    between atoms: C_7  and  N_19 
REMARK    4  A    between atoms: C_7  and  C_21 
REMARK    5  A    between atoms: C_15  and  N_19 
REMARK    6  A    between atoms: C_21  and  O_25 
REMARK    7  A    between atoms: O_22  and  C_27 
ROOT
HETATM    1  C   UNL     1      39.664 -22.256 -12.320  1.00  0.00     0.002 C 
HETATM    2  C   UNL     1      38.563 -21.081 -15.406  1.00  0.00     0.050 C 
HETATM    3  C   UNL     1      38.754 -22.229 -14.452  1.00  0.00    -0.034 C 
HETATM    4  C   UNL     1      37.697 -23.090 -14.072  1.00  0.00     0.009 C 
HETATM    5  C   UNL     1      39.968 -22.404 -13.726  1.00  0.00     0.051 C 
HETATM    6  C   UNL     1      38.635 -23.087 -11.832  1.00  0.00     0.014 C 
HETATM    7  C   UNL     1      37.668 -23.553 -12.736  1.00  0.00     0.002 C 
ENDROOT
BRANCH   5   8
HETATM    8  N   UNL     1      41.212 -22.745 -14.257  1.00  0.00    -0.323 N 
HETATM    9  C   UNL     1      42.069 -22.485 -15.268  1.00  0.00     0.267 C 
HETATM   10  O   UNL     1      41.927 -23.015 -16.370  1.00  0.00    -0.269 OA
ATOM     11  HN  UNL     1      41.631 -23.456 -13.658  1.00  0.00     0.169 HD
BRANCH   9  12
HETATM   12  C   UNL     1      43.314 -21.605 -14.994  1.00  0.00     0.205 C 
HETATM   13  C   UNL     1      43.044 -20.209 -14.425  1.00  0.00     0.091 C 
HETATM   14  C   UNL     1      44.067 -19.295 -13.829  1.00  0.00     0.036 C 
HETATM   15  C   UNL     1      45.219 -18.956 -14.467  1.00  0.00     0.003 C 
HETATM   16  C   UNL     1      45.753 -19.545 -15.680  1.00  0.00    -0.000 C 
HETATM   17  C   UNL     1      45.289 -20.642 -16.395  1.00  0.00    -0.000 C 
HETATM   18  C   UNL     1      44.200 -21.521 -16.253  1.00  0.00     0.028 C 
BRANCH  13  19
HETATM   19  O   UNL     1      41.870 -19.586 -14.830  1.00  0.00    -0.361 OA
ATOM     20  HO  UNL     1      41.601 -18.854 -14.288  1.00  0.00     0.217 HD
ENDBRANCH  13  19
BRANCH  12  21
HETATM   21  O   UNL     1      44.045 -22.179 -13.900  1.00  0.00    -0.371 OA
ATOM     22  HO  UNL     1      44.753 -22.595 -14.377  1.00  0.00     0.212 HD
ENDBRANCH  12  21
ENDBRANCH   9  12
ENDBRANCH   5   8
BRANCH   1  23
HETATM   23  C   UNL     1      40.205 -21.121 -11.547  1.00  0.00    -0.021 C 
HETATM   24  C   UNL     1      41.503 -21.163 -11.056  1.00  0.00     0.050 C 
HETATM   25  C   UNL     1      42.015 -20.108 -10.302  1.00  0.00     0.090 C 
HETATM   26  C   UNL     1      41.254 -18.948 -10.140  1.00  0.00     0.113 C 
HETATM   27  C   UNL     1      39.934 -18.929 -10.568  1.00  0.00     0.030 C 
HETATM   28  C   UNL     1      39.431 -19.980 -11.326  1.00  0.00     0.014 C 
BRANCH  25  29
HETATM   29  O   UNL     1      43.271 -20.178  -9.756  1.00  0.00    -0.359 OA
ATOM     30  HO  UNL     1      43.959 -20.679 -10.179  1.00  0.00     0.217 HD
ENDBRANCH  25  29
BRANCH  26  31
HETATM   31  S   UNL     1      42.038 -17.497  -9.532  1.00  0.00     0.140 S 
HETATM   32  O   UNL     1      42.092 -17.611  -8.075  1.00  0.00    -0.591 OA
HETATM   33  O   UNL     1      41.203 -16.385  -9.980  1.00  0.00    -0.591 OA
HETATM   34  O   UNL     1      43.409 -17.495 -10.085  1.00  0.00    -0.591 OA
ENDBRANCH  26  31
ENDBRANCH   1  23
TORSDOF 7
ENDMDL
MODEL 5
REMARK VINA RESULT:     -10.1      1.940      2.915
REMARK  7 active torsions:
REMARK  status: ('A' for Active; 'I' for Inactive)
REMARK    1  A    between atoms: C_1  and  C_31 
REMARK    2  A    between atoms: C_2  and  O_33 
REMARK    3  A    between atoms: S_5  and  C_24 
REMARK       I    between atoms: C_7  and  N_19 
REMARK    4  A    between atoms: C_7  and  C_21 
REMARK    5  A    between atoms: C_15  and  N_19 
REMARK    6  A    between atoms: C_21  and  O_25 
REMARK    7  A    between atoms: O_22  and  C_27 
ROOT
HETATM    1  C   UNL     1      42.998 -20.154 -14.677  1.00  0.00     0.002 C 
HETATM    2  C   UNL     1      44.090 -23.443 -14.350  1.00  0.00     0.050 C 
HETATM    3  C   UNL     1      43.899 -22.222 -15.210  1.00  0.00    -0.034 C 
HETATM    4  C   UNL     1      44.954 -21.634 -15.947  1.00  0.00     0.009 C 
HETATM    5  C   UNL     1      42.687 -21.471 -15.184  1.00  0.00     0.051 C 
HETATM    6  C   UNL     1      44.026 -19.469 -15.357  1.00  0.00     0.014 C 
HETATM    7  C   UNL     1      44.988 -20.223 -16.046  1.00  0.00     0.002 C 
ENDROOT
BRANCH   5   8
HETATM    8  N   UNL     1      41.440 -21.892 -15.646  1.00  0.00    -0.323 N 
HETATM    9  C   UNL     1      40.111 -21.777 -15.438  1.00  0.00     0.267 C 
HETATM   10  O   UNL     1      39.545 -22.449 -14.574  1.00  0.00    -0.269 OA
ATOM     11  HN  UNL     1      41.587 -22.520 -16.436  1.00  0.00     0.169 HD
BRANCH   9  12
HETATM   12  C   UNL     1      39.273 -20.880 -16.383  1.00  0.00     0.205 C 
HETATM   13  C   UNL     1      37.889 -20.468 -15.873  1.00  0.00     0.091 C 
HETATM   14  C   UNL     1      37.022 -19.403 -16.465  1.00  0.00     0.036 C 
HETATM   15  C   UNL     1      36.693 -19.362 -17.784  1.00  0.00     0.003 C 
HETATM   16  C   UNL     1      37.258 -20.166 -18.851  1.00  0.00    -0.000 C 
HETATM   17  C   UNL     1      38.320 -21.061 -18.801  1.00  0.00    -0.000 C 
HETATM   18  C   UNL     1      39.173 -21.520 -17.782  1.00  0.00     0.028 C 
BRANCH  13  19
HETATM   19  O   UNL     1      37.222 -21.382 -15.067  1.00  0.00    -0.361 OA
ATOM     20  HO  UNL     1      36.284 -21.249 -15.006  1.00  0.00     0.217 HD
ENDBRANCH  13  19
BRANCH  12  21
HETATM   21  O   UNL     1      39.900 -19.591 -16.461  1.00  0.00    -0.371 OA
ATOM     22  HO  UNL     1      39.129 -19.039 -16.513  1.00  0.00     0.212 HD
ENDBRANCH  12  21
ENDBRANCH   9  12
ENDBRANCH   5   8
BRANCH   1  23
HETATM   23  C   UNL     1      42.464 -19.701 -13.378  1.00  0.00    -0.021 C 
HETATM   24  C   UNL     1      43.152 -19.975 -12.203  1.00  0.00     0.050 C 
HETATM   25  C   UNL     1      42.643 -19.576 -10.968  1.00  0.00     0.090 C 
HETATM   26  C   UNL     1      41.489 -18.790 -10.924  1.00  0.00     0.113 C 
HETATM   27  C   UNL     1      40.762 -18.573 -12.085  1.00  0.00     0.030 C 
HETATM   28  C   UNL     1      41.278 -18.966 -13.315  1.00  0.00     0.014 C 
BRANCH  25  29
HETATM   29  O   UNL     1      43.285 -19.907  -9.802  1.00  0.00    -0.359 OA
ATOM     30  HO  UNL     1      43.445 -19.253  -9.131  1.00  0.00     0.217 HD
ENDBRANCH  25  29
BRANCH  26  31
HETATM   31  S   UNL     1      41.075 -17.975  -9.422  1.00  0.00     0.140 S 
HETATM   32  O   UNL     1      42.213 -17.132  -9.058  1.00  0.00    -0.591 OA
HETATM   33  O   UNL     1      40.832 -19.042  -8.453  1.00  0.00    -0.591 OA
HETATM   34  O   UNL     1      39.898 -17.129  -9.711  1.00  0.00    -0.591 OA
ENDBRANCH  26  31
ENDBRANCH   1  23
TORSDOF 7
ENDMDL
MODEL 6
REMARK VINA RESULT:     -10.0      4.608      8.649
REMARK  7 active torsions:
REMARK  status: ('A' for Active; 'I' for Inactive)
REMARK    1  A    between atoms: C_1  and  C_31 
REMARK    2  A    between atoms: C_2  and  O_33 
REMARK    3  A    between atoms: S_5  and  C_24 
REMARK       I    between atoms: C_7  and  N_19 
REMARK    4  A    between atoms: C_7  and  C_21 
REMARK    5  A    between atoms: C_15  and  N_19 
REMARK    6  A    between atoms: C_21  and  O_25 
REMARK    7  A    between atoms: O_22  and  C_27 
ROOT
HETATM    1  C   UNL     1      37.392 -19.610 -15.710  1.00  0.00     0.002 C 
HETATM    2  C   UNL     1      35.606 -21.940 -13.839  1.00  0.00     0.050 C 
HETATM    3  C   UNL     1      36.680 -20.887 -13.911  1.00  0.00    -0.034 C 
HETATM    4  C   UNL     1      36.720 -19.776 -13.035  1.00  0.00     0.009 C 
HETATM    5  C   UNL     1      37.613 -20.843 -14.988  1.00  0.00     0.051 C 
HETATM    6  C   UNL     1      37.432 -18.436 -14.931  1.00  0.00     0.014 C 
HETATM    7  C   UNL     1      37.143 -18.533 -13.562  1.00  0.00     0.002 C 
ENDROOT
BRANCH   5   8
HETATM    8  N   UNL     1      38.619 -21.771 -15.253  1.00  0.00    -0.323 N 
HETATM    9  C   UNL     1      39.678 -22.027 -16.052  1.00  0.00     0.267 C 
HETATM   10  O   UNL     1      39.523 -22.509 -17.174  1.00  0.00    -0.269 OA
ATOM     11  HN  UNL     1      38.518 -22.548 -14.599  1.00  0.00     0.169 HD
BRANCH   9  12
HETATM   12  C   UNL     1      41.109 -21.823 -15.496  1.00  0.00     0.205 C 
HETATM   13  C   UNL     1      42.234 -22.543 -16.245  1.00  0.00     0.091 C 
HETATM   14  C   UNL     1      43.699 -22.288 -16.077  1.00  0.00     0.036 C 
HETATM   15  C   UNL     1      44.319 -22.299 -14.866  1.00  0.00     0.003 C 
HETATM   16  C   UNL     1      43.688 -22.342 -13.561  1.00  0.00    -0.000 C 
HETATM   17  C   UNL     1      42.338 -22.267 -13.241  1.00  0.00    -0.000 C 
HETATM   18  C   UNL     1      41.154 -22.156 -13.991  1.00  0.00     0.028 C 
BRANCH  13  19
HETATM   19  O   UNL     1      41.918 -23.765 -16.823  1.00  0.00    -0.361 OA
ATOM     20  HO  UNL     1      42.632 -24.180 -17.293  1.00  0.00     0.217 HD
ENDBRANCH  13  19
BRANCH  12  21
HETATM   21  O   UNL     1      41.496 -20.459 -15.723  1.00  0.00    -0.371 OA
ATOM     22  HO  UNL     1      40.749 -20.013 -15.342  1.00  0.00     0.212 HD
ENDBRANCH  12  21
ENDBRANCH   9  12
ENDBRANCH   5   8
BRANCH   1  23
HETATM   23  C   UNL     1      36.886 -19.629 -17.097  1.00  0.00    -0.021 C 
HETATM   24  C   UNL     1      35.521 -19.577 -17.346  1.00  0.00     0.050 C 
HETATM   25  C   UNL     1      35.031 -19.622 -18.650  1.00  0.00     0.090 C 
HETATM   26  C   UNL     1      35.928 -19.600 -19.721  1.00  0.00     0.113 C 
HETATM   27  C   UNL     1      37.289 -19.722 -19.478  1.00  0.00     0.030 C 
HETATM   28  C   UNL     1      37.772 -19.669 -18.175  1.00  0.00     0.014 C 
BRANCH  25  29
HETATM   29  O   UNL     1      33.682 -19.642 -18.895  1.00  0.00    -0.359 OA
ATOM     30  HO  UNL     1      33.168 -20.424 -18.729  1.00  0.00     0.217 HD
ENDBRANCH  25  29
BRANCH  26  31
HETATM   31  S   UNL     1      35.315 -19.268 -21.335  1.00  0.00     0.140 S 
HETATM   32  O   UNL     1      34.747 -17.921 -21.313  1.00  0.00    -0.591 OA
HETATM   33  O   UNL     1      34.313 -20.299 -21.591  1.00  0.00    -0.591 OA
HETATM   34  O   UNL     1      36.480 -19.305 -22.244  1.00  0.00    -0.591 OA
ENDBRANCH  26  31
ENDBRANCH   1  23
TORSDOF 7
ENDMDL
MODEL 7
REMARK VINA RESULT:      -9.9      3.592      7.994
REMARK  7 active torsions:
REMARK  status: ('A' for Active; 'I' for Inactive)
REMARK    1  A    between atoms: C_1  and  C_31 
REMARK    2  A    between atoms: C_2  and  O_33 
REMARK    3  A    between atoms: S_5  and  C_24 
REMARK       I    between atoms: C_7  and  N_19 
REMARK    4  A    between atoms: C_7  and  C_21 
REMARK    5  A    between atoms: C_15  and  N_19 
REMARK    6  A    between atoms: C_21  and  O_25 
REMARK    7  A    between atoms: O_22  and  C_27 
ROOT
HETATM    1  C   UNL     1      37.728 -19.836 -14.536  1.00  0.00     0.002 C 
HETATM    2  C   UNL     1      39.005 -22.641 -12.918  1.00  0.00     0.050 C 
HETATM    3  C   UNL     1      38.431 -21.251 -12.840  1.00  0.00    -0.034 C 
HETATM    4  C   UNL     1      37.312 -20.932 -12.034  1.00  0.00     0.009 C 
HETATM    5  C   UNL     1      38.860 -20.215 -13.719  1.00  0.00     0.051 C 
HETATM    6  C   UNL     1      36.563 -19.477 -13.828  1.00  0.00     0.014 C 
HETATM    7  C   UNL     1      36.381 -19.992 -12.536  1.00  0.00     0.002 C 
ENDROOT
BRANCH   5   8
HETATM    8  N   UNL     1      40.115 -19.607 -13.737  1.00  0.00    -0.323 N 
HETATM    9  C   UNL     1      41.273 -19.487 -13.052  1.00  0.00     0.267 C 
HETATM   10  O   UNL     1      41.374 -18.700 -12.111  1.00  0.00    -0.269 OA
ATOM     11  HN  UNL     1      40.183 -19.040 -14.582  1.00  0.00     0.169 HD
BRANCH   9  12
HETATM   12  C   UNL     1      42.522 -20.263 -13.541  1.00  0.00     0.205 C 
HETATM   13  C   UNL     1      42.847 -20.148 -15.034  1.00  0.00     0.091 C 
HETATM   14  C   UNL     1      44.128 -20.566 -15.683  1.00  0.00     0.036 C 
HETATM   15  C   UNL     1      44.669 -21.804 -15.526  1.00  0.00     0.003 C 
HETATM   16  C   UNL     1      44.254 -22.826 -14.585  1.00  0.00    -0.000 C 
HETATM   17  C   UNL     1      43.308 -22.747 -13.570  1.00  0.00    -0.000 C 
HETATM   18  C   UNL     1      42.438 -21.741 -13.112  1.00  0.00     0.028 C 
BRANCH  13  19
HETATM   19  O   UNL     1      41.770 -20.016 -15.900  1.00  0.00    -0.361 OA
ATOM     20  HO  UNL     1      41.469 -20.829 -16.288  1.00  0.00     0.217 HD
ENDBRANCH  13  19
BRANCH  12  21
HETATM   21  O   UNL     1      43.690 -19.641 -12.986  1.00  0.00    -0.371 OA
ATOM     22  HO  UNL     1      43.290 -18.887 -12.569  1.00  0.00     0.212 HD
ENDBRANCH  12  21
ENDBRANCH   9  12
ENDBRANCH   5   8
BRANCH   1  23
HETATM   23  C   UNL     1      37.731 -20.086 -15.991  1.00  0.00    -0.021 C 
HETATM   24  C   UNL     1      38.615 -21.004 -16.542  1.00  0.00     0.050 C 
HETATM   25  C   UNL     1      38.644 -21.229 -17.918  1.00  0.00     0.090 C 
HETATM   26  C   UNL     1      37.695 -20.609 -18.734  1.00  0.00     0.113 C 
HETATM   27  C   UNL     1      36.858 -19.641 -18.199  1.00  0.00     0.030 C 
HETATM   28  C   UNL     1      36.827 -19.427 -16.826  1.00  0.00     0.014 C 
BRANCH  25  29
HETATM   29  O   UNL     1      39.563 -22.082 -18.472  1.00  0.00    -0.359 OA
ATOM     30  HO  UNL     1      40.413 -21.766 -18.756  1.00  0.00     0.217 HD
ENDBRANCH  25  29
BRANCH  26  31
HETATM   31  S   UNL     1      37.489 -21.185 -20.383  1.00  0.00     0.140 S 
HETATM   32  O   UNL     1      38.813 -21.206 -21.002  1.00  0.00    -0.591 OA
HETATM   33  O   UNL     1      36.584 -20.230 -21.019  1.00  0.00    -0.591 OA
HETATM   34  O   UNL     1      36.959 -22.561 -20.287  1.00  0.00    -0.591 OA
ENDBRANCH  26  31
ENDBRANCH   1  23
TORSDOF 7
ENDMDL
MODEL 8
REMARK VINA RESULT:      -9.9      1.868      5.039
REMARK  7 active torsions:
REMARK  status: ('A' for Active; 'I' for Inactive)
REMARK    1  A    between atoms: C_1  and  C_31 
REMARK    2  A    between atoms: C_2  and  O_33 
REMARK    3  A    between atoms: S_5  and  C_24 
REMARK       I    between atoms: C_7  and  N_19 
REMARK    4  A    between atoms: C_7  and  C_21 
REMARK    5  A    between atoms: C_15  and  N_19 
REMARK    6  A    between atoms: C_21  and  O_25 
REMARK    7  A    between atoms: O_22  and  C_27 
ROOT
HETATM    1  C   UNL     1      39.585 -21.792 -12.321  1.00  0.00     0.002 C 
HETATM    2  C   UNL     1      38.504 -21.453 -15.612  1.00  0.00     0.050 C 
HETATM    3  C   UNL     1      38.726 -22.326 -14.407  1.00  0.00    -0.034 C 
HETATM    4  C   UNL     1      37.703 -23.124 -13.843  1.00  0.00     0.009 C 
HETATM    5  C   UNL     1      39.929 -22.258 -13.646  1.00  0.00     0.051 C 
HETATM    6  C   UNL     1      38.585 -22.533 -11.659  1.00  0.00     0.014 C 
HETATM    7  C   UNL     1      37.663 -23.253 -12.434  1.00  0.00     0.002 C 
ENDROOT
BRANCH   5   8
HETATM    8  N   UNL     1      41.201 -22.651 -14.064  1.00  0.00    -0.323 N 
HETATM    9  C   UNL     1      42.108 -22.515 -15.054  1.00  0.00     0.267 C 
HETATM   10  O   UNL     1      42.026 -23.184 -16.085  1.00  0.00    -0.269 OA
ATOM     11  HN  UNL     1      41.590 -23.274 -13.357  1.00  0.00     0.169 HD
BRANCH   9  12
HETATM   12  C   UNL     1      43.334 -21.594 -14.834  1.00  0.00     0.205 C 
HETATM   13  C   UNL     1      43.032 -20.165 -14.372  1.00  0.00     0.091 C 
HETATM   14  C   UNL     1      44.031 -19.191 -13.835  1.00  0.00     0.036 C 
HETATM   15  C   UNL     1      45.184 -18.877 -14.485  1.00  0.00     0.003 C 
HETATM   16  C   UNL     1      45.742 -19.544 -15.645  1.00  0.00    -0.000 C 
HETATM   17  C   UNL     1      45.307 -20.699 -16.282  1.00  0.00    -0.000 C 
HETATM   18  C   UNL     1      44.232 -21.585 -16.087  1.00  0.00     0.028 C 
BRANCH  13  19
HETATM   19  O   UNL     1      41.852 -19.596 -14.833  1.00  0.00    -0.361 OA
ATOM     20  HO  UNL     1      41.063 -19.922 -14.418  1.00  0.00     0.217 HD
ENDBRANCH  13  19
BRANCH  12  21
HETATM   21  O   UNL     1      44.063 -22.072 -13.693  1.00  0.00    -0.371 OA
ATOM     22  HO  UNL     1      44.343 -21.244 -13.321  1.00  0.00     0.212 HD
ENDBRANCH  12  21
ENDBRANCH   9  12
ENDBRANCH   5   8
BRANCH   1  23
HETATM   23  C   UNL     1      40.052 -20.478 -11.839  1.00  0.00    -0.021 C 
HETATM   24  C   UNL     1      39.439 -19.311 -12.277  1.00  0.00     0.050 C 
HETATM   25  C   UNL     1      39.891 -18.063 -11.848  1.00  0.00     0.090 C 
HETATM   26  C   UNL     1      40.893 -17.993 -10.878  1.00  0.00     0.113 C 
HETATM   27  C   UNL     1      41.555 -19.149 -10.490  1.00  0.00     0.030 C 
HETATM   28  C   UNL     1      41.096 -20.391 -10.914  1.00  0.00     0.014 C 
BRANCH  25  29
HETATM   29  O   UNL     1      39.333 -16.909 -12.334  1.00  0.00    -0.359 OA
ATOM     30  HO  UNL     1      38.737 -16.929 -13.074  1.00  0.00     0.217 HD
ENDBRANCH  25  29
BRANCH  26  31
HETATM   31  S   UNL     1      41.184 -16.459 -10.069  1.00  0.00     0.140 S 
HETATM   32  O   UNL     1      41.814 -15.569 -11.042  1.00  0.00    -0.591 OA
HETATM   33  O   UNL     1      42.059 -16.773  -8.942  1.00  0.00    -0.591 OA
HETATM   34  O   UNL     1      39.859 -15.926  -9.687  1.00  0.00    -0.591 OA
ENDBRANCH  26  31
ENDBRANCH   1  23
TORSDOF 7
ENDMDL
MODEL 9
REMARK VINA RESULT:      -9.9      3.612      6.694
REMARK  7 active torsions:
REMARK  status: ('A' for Active; 'I' for Inactive)
REMARK    1  A    between atoms: C_1  and  C_31 
REMARK    2  A    between atoms: C_2  and  O_33 
REMARK    3  A    between atoms: S_5  and  C_24 
REMARK       I    between atoms: C_7  and  N_19 
REMARK    4  A    between atoms: C_7  and  C_21 
REMARK    5  A    between atoms: C_15  and  N_19 
REMARK    6  A    between atoms: C_21  and  O_25 
REMARK    7  A    between atoms: O_22  and  C_27 
ROOT
HETATM    1  C   UNL     1      40.869 -22.285 -16.207  1.00  0.00     0.002 C 
HETATM    2  C   UNL     1      42.589 -19.899 -14.346  1.00  0.00     0.050 C 
HETATM    3  C   UNL     1      42.419 -21.333 -14.770  1.00  0.00    -0.034 C 
HETATM    4  C   UNL     1      43.477 -22.099 -15.314  1.00  0.00     0.009 C 
HETATM    5  C   UNL     1      41.134 -21.949 -14.826  1.00  0.00     0.051 C 
HETATM    6  C   UNL     1      41.855 -23.068 -16.841  1.00  0.00     0.014 C 
HETATM    7  C   UNL     1      43.169 -23.012 -16.350  1.00  0.00     0.002 C 
ENDROOT
BRANCH   5   8
HETATM    8  N   UNL     1      40.313 -22.257 -13.742  1.00  0.00    -0.323 N 
HETATM    9  C   UNL     1      39.954 -21.857 -12.503  1.00  0.00     0.267 C 
HETATM   10  O   UNL     1      40.640 -22.142 -11.521  1.00  0.00    -0.269 OA
ATOM     11  HN  UNL     1      39.787 -23.101 -13.970  1.00  0.00     0.169 HD
BRANCH   9  12
HETATM   12  C   UNL     1      38.597 -21.135 -12.308  1.00  0.00     0.205 C 
HETATM   13  C   UNL     1      37.364 -21.852 -12.866  1.00  0.00     0.091 C 
HETATM   14  C   UNL     1      35.940 -21.503 -12.566  1.00  0.00     0.036 C 
HETATM   15  C   UNL     1      35.438 -20.247 -12.710  1.00  0.00     0.003 C 
HETATM   16  C   UNL     1      36.187 -19.030 -12.958  1.00  0.00    -0.000 C 
HETATM   17  C   UNL     1      37.563 -18.843 -12.992  1.00  0.00    -0.000 C 
HETATM   18  C   UNL     1      38.676 -19.689 -12.838  1.00  0.00     0.028 C 
BRANCH  13  19
HETATM   19  O   UNL     1      37.548 -22.612 -14.013  1.00  0.00    -0.361 OA
ATOM     20  HO  UNL     1      38.144 -23.345 -13.914  1.00  0.00     0.217 HD
ENDBRANCH  13  19
BRANCH  12  21
HETATM   21  O   UNL     1      38.274 -21.143 -10.909  1.00  0.00    -0.371 OA
ATOM     22  HO  UNL     1      37.731 -21.922 -10.873  1.00  0.00     0.212 HD
ENDBRANCH  12  21
ENDBRANCH   9  12
ENDBRANCH   5   8
BRANCH   1  23
HETATM   23  C   UNL     1      39.785 -21.614 -16.951  1.00  0.00    -0.021 C 
HETATM   24  C   UNL     1      39.452 -22.032 -18.233  1.00  0.00     0.050 C 
HETATM   25  C   UNL     1      38.448 -21.388 -18.955  1.00  0.00     0.090 C 
HETATM   26  C   UNL     1      37.692 -20.389 -18.337  1.00  0.00     0.113 C 
HETATM   27  C   UNL     1      38.066 -19.921 -17.085  1.00  0.00     0.030 C 
HETATM   28  C   UNL     1      39.062 -20.572 -16.367  1.00  0.00     0.014 C 
BRANCH  25  29
HETATM   29  O   UNL     1      38.166 -21.752 -20.246  1.00  0.00    -0.359 OA
ATOM     30  HO  UNL     1      38.854 -22.046 -20.832  1.00  0.00     0.217 HD
ENDBRANCH  25  29
BRANCH  26  31
HETATM   31  S   UNL     1      36.201 -19.858 -19.102  1.00  0.00     0.140 S 
HETATM   32  O   UNL     1      35.543 -21.048 -19.641  1.00  0.00    -0.591 OA
HETATM   33  O   UNL     1      36.609 -18.919 -20.144  1.00  0.00    -0.591 OA
HETATM   34  O   UNL     1      35.367 -19.266 -18.035  1.00  0.00    -0.591 OA
ENDBRANCH  26  31
ENDBRANCH   1  23
TORSDOF 7
ENDMDL
