REMARK  5 active torsions:
REMARK  status: ('A' for Active; 'I' for Inactive)
REMARK    1  A    between atoms: C_1  and  C_14 
REMARK    2  A    between atoms: C_1  and  C_15 
REMARK    3  A    between atoms: O_2  and  C_13 
REMARK    4  A    between atoms: C_6  and  C_13 
REMARK    5  A    between atoms: C_13  and  C_14 
ROOT
HETATM    1  C   UNL     1      37.438  25.115 -10.978  1.00  0.00     0.043 C 
ENDROOT
BRANCH   1   2
HETATM    2  C   UNL     1      36.149  25.680 -10.417  1.00  0.00     0.047 C 
BRANCH   2   3
HETATM    3  C   UNL     1      36.046  27.172 -10.671  1.00  0.00     0.219 C 
BRANCH   3   4
HETATM    4  O   UNL     1      34.688  27.521 -10.924  1.00  0.00    -0.385 OA
ATOM      5  HO  UNL     1      34.412  27.020 -11.683  1.00  0.00     0.210 HD
ENDBRANCH   3   4
BRANCH   3   6
HETATM    6  C   UNL     1      36.485  27.970  -9.462  1.00  0.00     0.203 C 
HETATM    7  O   UNL     1      35.863  27.737  -8.389  1.00  0.00    -0.646 OA
HETATM    8  O   UNL     1      37.392  28.806  -9.591  1.00  0.00    -0.646 OA
ENDBRANCH   3   6
ENDBRANCH   2   3
ENDBRANCH   1   2
BRANCH   1   9
HETATM    9  C   UNL     1      37.947  24.032 -10.080  1.00  0.00    -0.037 C 
HETATM   10  C   UNL     1      39.030  23.233 -10.323  1.00  0.00     0.083 C 
HETATM   11  C   UNL     1      39.097  22.314  -9.186  1.00  0.00     0.245 C 
HETATM   12  O   UNL     1      40.142  21.676  -8.927  1.00  0.00    -0.268 OA
HETATM   13  N   UNL     1      38.469  23.037  -8.183  1.00  0.00    -0.333 N 
HETATM   14  C   UNL     1      37.470  23.741  -8.830  1.00  0.00     0.098 C 
ATOM     15  HN  UNL     1      38.694  23.047  -7.188  1.00  0.00     0.168 HD
ENDBRANCH   1   9
TORSDOF 5
