MODEL 1
REMARK VINA RESULT:     -10.2      0.000      0.000
REMARK  6 active torsions:
REMARK  status: ('A' for Active; 'I' for Inactive)
REMARK    1  A    between atoms: C_2  and  C_3 
REMARK    2  A    between atoms: C_2  and  C_7 
REMARK    3  A    between atoms: C_8  and  C_22 
REMARK    4  A    between atoms: C_18  and  C_22 
REMARK    5  A    between atoms: C_19  and  O_20 
REMARK    6  A    between atoms: C_24  and  O_25 
ROOT
HETATM    1  C   UNL     1     -13.963  -7.549   9.468  1.00  0.00     0.088 C 
HETATM    2  C   UNL     1     -13.641  -7.897   6.986  1.00  0.00     0.017 C 
HETATM    3  C   UNL     1     -11.536  -7.758   9.183  1.00  0.00     0.094 C 
HETATM    4  C   UNL     1     -14.248  -7.290   8.141  1.00  0.00     0.032 C 
HETATM    5  C   UNL     1     -11.359  -8.428   7.939  1.00  0.00    -0.041 C 
HETATM    6  N   UNL     1     -12.651  -7.588   9.939  1.00  0.00    -0.375 N 
ATOM      7  HN  UNL     1     -12.517  -7.478  10.945  1.00  0.00     0.164 HD
HETATM    8  C   UNL     1     -12.316  -8.373   6.904  1.00  0.00     0.024 C 
ENDROOT
BRANCH   2   9
HETATM    9  C   UNL     1     -14.461  -7.970   5.728  1.00  0.00     0.195 C 
HETATM   10  O   UNL     1     -14.266  -8.900   4.941  1.00  0.00    -0.287 OA
BRANCH   9  11
HETATM   11  C   UNL     1     -15.493  -6.900   5.486  1.00  0.00     0.048 C 
HETATM   12  C   UNL     1     -15.048  -5.592   5.228  1.00  0.00     0.018 C 
HETATM   13  C   UNL     1     -15.599  -4.641   4.360  1.00  0.00     0.001 C 
HETATM   14  C   UNL     1     -16.785  -4.782   3.660  1.00  0.00     0.000 C 
HETATM   15  C   UNL     1     -17.860  -5.628   3.952  1.00  0.00     0.003 C 
HETATM   16  C   UNL     1     -17.896  -6.818   4.647  1.00  0.00     0.037 C 
HETATM   17  C   UNL     1     -16.914  -7.276   5.569  1.00  0.00     0.079 C 
BRANCH  17  18
HETATM   18  O   UNL     1     -17.294  -8.121   6.574  1.00  0.00    -0.360 OA
ATOM     19  HO  UNL     1     -17.033  -7.902   7.461  1.00  0.00     0.217 HD
ENDBRANCH  17  18
ENDBRANCH   9  11
ENDBRANCH   2   9
BRANCH   5  20
HETATM   20  C   UNL     1     -10.051  -9.173   7.681  1.00  0.00     0.046 C 
BRANCH  20  21
HETATM   21  C   UNL     1      -8.843  -8.267   7.504  1.00  0.00     0.010 A 
HETATM   22  C   UNL     1      -9.031  -6.835   7.275  1.00  0.00     0.118 A 
HETATM   23  N   UNL     1      -7.871  -5.997   7.189  1.00  0.00    -0.418 N 
HETATM   24  C   UNL     1      -6.519  -6.535   7.294  1.00  0.00     0.145 A 
ATOM     25  HN  UNL     1      -7.995  -4.995   7.049  1.00  0.00     0.153 HD
HETATM   26  C   UNL     1      -6.311  -8.001   7.534  1.00  0.00     0.136 A 
HETATM   27  C   UNL     1      -7.547  -8.828   7.698  1.00  0.00     0.039 A 
BRANCH  26  28
HETATM   28  O   UNL     1      -5.423  -8.529   6.555  1.00  0.00    -0.394 OA
ATOM     29  HO  UNL     1      -4.509  -8.416   6.790  1.00  0.00     0.210 HD
ENDBRANCH  26  28
ENDBRANCH  20  21
ENDBRANCH   5  20
TORSDOF 6
ENDMDL
MODEL 2
REMARK VINA RESULT:     -10.1      1.147      1.225
REMARK  6 active torsions:
REMARK  status: ('A' for Active; 'I' for Inactive)
REMARK    1  A    between atoms: C_2  and  C_3 
REMARK    2  A    between atoms: C_2  and  C_7 
REMARK    3  A    between atoms: C_8  and  C_22 
REMARK    4  A    between atoms: C_18  and  C_22 
REMARK    5  A    between atoms: C_19  and  O_20 
REMARK    6  A    between atoms: C_24  and  O_25 
ROOT
HETATM    1  C   UNL     1     -13.179  -6.758   9.594  1.00  0.00     0.088 C 
HETATM    2  C   UNL     1     -13.162  -7.577   7.204  1.00  0.00     0.017 C 
HETATM    3  C   UNL     1     -10.808  -7.121   9.082  1.00  0.00     0.094 C 
HETATM    4  C   UNL     1     -13.614  -6.739   8.283  1.00  0.00     0.032 C 
HETATM    5  C   UNL     1     -10.794  -8.018   7.976  1.00  0.00    -0.041 C 
HETATM    6  N   UNL     1     -11.821  -6.764   9.913  1.00  0.00    -0.375 N 
ATOM      7  HN  UNL     1     -11.566  -6.475  10.857  1.00  0.00     0.164 HD
HETATM    8  C   UNL     1     -11.866  -8.117   7.065  1.00  0.00     0.024 C 
ENDROOT
BRANCH   2   9
HETATM    9  C   UNL     1     -14.128  -7.848   6.084  1.00  0.00     0.195 C 
HETATM   10  O   UNL     1     -14.005  -8.886   5.428  1.00  0.00    -0.287 OA
BRANCH   9  11
HETATM   11  C   UNL     1     -15.210  -6.836   5.814  1.00  0.00     0.048 C 
HETATM   12  C   UNL     1     -14.830  -5.551   5.390  1.00  0.00     0.018 C 
HETATM   13  C   UNL     1     -15.475  -4.711   4.475  1.00  0.00     0.001 C 
HETATM   14  C   UNL     1     -16.704  -4.954   3.886  1.00  0.00     0.000 C 
HETATM   15  C   UNL     1     -17.726  -5.793   4.345  1.00  0.00     0.003 C 
HETATM   16  C   UNL     1     -17.670  -6.904   5.159  1.00  0.00     0.037 C 
HETATM   17  C   UNL     1     -16.608  -7.238   6.044  1.00  0.00     0.079 C 
BRANCH  17  18
HETATM   18  O   UNL     1     -16.884  -7.983   7.157  1.00  0.00    -0.360 OA
ATOM     19  HO  UNL     1     -16.875  -8.929   7.071  1.00  0.00     0.217 HD
ENDBRANCH  17  18
ENDBRANCH   9  11
ENDBRANCH   2   9
BRANCH   5  20
HETATM   20  C   UNL     1      -9.543  -8.854   7.719  1.00  0.00     0.046 C 
BRANCH  20  21
HETATM   21  C   UNL     1      -8.277  -8.035   7.520  1.00  0.00     0.010 A 
HETATM   22  C   UNL     1      -7.484  -7.624   8.678  1.00  0.00     0.118 A 
HETATM   23  N   UNL     1      -6.257  -6.919   8.452  1.00  0.00    -0.418 N 
HETATM   24  C   UNL     1      -5.795  -6.579   7.110  1.00  0.00     0.145 A 
ATOM     25  HN  UNL     1      -5.688  -6.646   9.253  1.00  0.00     0.153 HD
HETATM   26  C   UNL     1      -6.595  -6.999   5.913  1.00  0.00     0.136 A 
HETATM   27  C   UNL     1      -7.828  -7.802   6.188  1.00  0.00     0.039 A 
BRANCH  26  28
HETATM   28  O   UNL     1      -6.848  -5.872   5.081  1.00  0.00    -0.394 OA
ATOM     29  HO  UNL     1      -7.107  -5.103   5.574  1.00  0.00     0.210 HD
ENDBRANCH  26  28
ENDBRANCH  20  21
ENDBRANCH   5  20
TORSDOF 6
ENDMDL
MODEL 3
REMARK VINA RESULT:      -9.8      1.423      1.610
REMARK  6 active torsions:
REMARK  status: ('A' for Active; 'I' for Inactive)
REMARK    1  A    between atoms: C_2  and  C_3 
REMARK    2  A    between atoms: C_2  and  C_7 
REMARK    3  A    between atoms: C_8  and  C_22 
REMARK    4  A    between atoms: C_18  and  C_22 
REMARK    5  A    between atoms: C_19  and  O_20 
REMARK    6  A    between atoms: C_24  and  O_25 
ROOT
HETATM    1  C   UNL     1     -12.153  -6.201  10.011  1.00  0.00     0.088 C 
HETATM    2  C   UNL     1     -12.853  -7.693   8.097  1.00  0.00     0.017 C 
HETATM    3  C   UNL     1     -10.078  -6.642   8.781  1.00  0.00     0.094 C 
HETATM    4  C   UNL     1     -13.012  -6.584   8.998  1.00  0.00     0.032 C 
HETATM    5  C   UNL     1     -10.328  -7.828   8.033  1.00  0.00    -0.041 C 
HETATM    6  N   UNL     1     -10.780  -6.079   9.798  1.00  0.00    -0.375 N 
ATOM      7  HN  UNL     1     -10.256  -5.516  10.467  1.00  0.00     0.164 HD
HETATM    8  C   UNL     1     -11.626  -8.219   7.641  1.00  0.00     0.024 C 
ENDROOT
BRANCH   2   9
HETATM    9  C   UNL     1     -14.101  -8.308   7.526  1.00  0.00     0.195 C 
HETATM   10  O   UNL     1     -14.304  -9.513   7.696  1.00  0.00    -0.287 OA
BRANCH   9  11
HETATM   11  C   UNL     1     -15.055  -7.420   6.773  1.00  0.00     0.048 C 
HETATM   12  C   UNL     1     -14.527  -6.331   6.057  1.00  0.00     0.018 C 
HETATM   13  C   UNL     1     -14.953  -5.808   4.831  1.00  0.00     0.001 C 
HETATM   14  C   UNL     1     -16.078  -6.210   4.131  1.00  0.00     0.000 C 
HETATM   15  C   UNL     1     -17.214  -6.857   4.628  1.00  0.00     0.003 C 
HETATM   16  C   UNL     1     -17.368  -7.665   5.735  1.00  0.00     0.037 C 
HETATM   17  C   UNL     1     -16.495  -7.719   6.856  1.00  0.00     0.079 C 
BRANCH  17  18
HETATM   18  O   UNL     1     -17.002  -8.083   8.073  1.00  0.00    -0.360 OA
ATOM     19  HO  UNL     1     -17.753  -7.603   8.402  1.00  0.00     0.217 HD
ENDBRANCH  17  18
ENDBRANCH   9  11
ENDBRANCH   2   9
BRANCH   5  20
HETATM   20  C   UNL     1      -9.144  -8.671   7.568  1.00  0.00     0.046 C 
BRANCH  20  21
HETATM   21  C   UNL     1      -7.904  -7.865   7.214  1.00  0.00     0.010 A 
HETATM   22  C   UNL     1      -7.953  -6.892   6.124  1.00  0.00     0.118 A 
HETATM   23  N   UNL     1      -6.791  -6.093   5.865  1.00  0.00    -0.418 N 
HETATM   24  C   UNL     1      -5.562  -6.244   6.638  1.00  0.00     0.145 A 
ATOM     25  HN  UNL     1      -6.823  -5.399   5.120  1.00  0.00     0.153 HD
HETATM   26  C   UNL     1      -5.500  -7.234   7.763  1.00  0.00     0.136 A 
HETATM   27  C   UNL     1      -6.758  -7.990   8.051  1.00  0.00     0.039 A 
BRANCH  26  28
HETATM   28  O   UNL     1      -4.373  -8.087   7.594  1.00  0.00    -0.394 OA
ATOM     29  HO  UNL     1      -3.972  -8.333   8.419  1.00  0.00     0.210 HD
ENDBRANCH  26  28
ENDBRANCH  20  21
ENDBRANCH   5  20
TORSDOF 6
ENDMDL
MODEL 4
REMARK VINA RESULT:      -9.7      1.974      2.501
REMARK  6 active torsions:
REMARK  status: ('A' for Active; 'I' for Inactive)
REMARK    1  A    between atoms: C_2  and  C_3 
REMARK    2  A    between atoms: C_2  and  C_7 
REMARK    3  A    between atoms: C_8  and  C_22 
REMARK    4  A    between atoms: C_18  and  C_22 
REMARK    5  A    between atoms: C_19  and  O_20 
REMARK    6  A    between atoms: C_24  and  O_25 
ROOT
HETATM    1  C   UNL     1     -12.022 -10.154   6.474  1.00  0.00     0.088 C 
HETATM    2  C   UNL     1     -13.059  -8.300   7.842  1.00  0.00     0.017 C 
HETATM    3  C   UNL     1     -10.143  -9.170   7.707  1.00  0.00     0.094 C 
HETATM    4  C   UNL     1     -13.018  -9.618   7.268  1.00  0.00     0.032 C 
HETATM    5  C   UNL     1     -10.578  -7.866   8.079  1.00  0.00    -0.041 C 
HETATM    6  N   UNL     1     -10.676 -10.057   6.828  1.00  0.00    -0.375 N 
ATOM      7  HN  UNL     1     -10.033 -10.714   6.384  1.00  0.00     0.164 HD
HETATM    8  C   UNL     1     -11.941  -7.537   8.238  1.00  0.00     0.024 C 
ENDROOT
BRANCH   2   9
HETATM    9  C   UNL     1     -14.412  -7.703   8.115  1.00  0.00     0.195 C 
HETATM   10  O   UNL     1     -14.805  -7.624   9.282  1.00  0.00    -0.287 OA
BRANCH   9  11
HETATM   11  C   UNL     1     -15.229  -7.221   6.946  1.00  0.00     0.048 C 
HETATM   12  C   UNL     1     -14.679  -6.233   6.111  1.00  0.00     0.018 C 
HETATM   13  C   UNL     1     -14.810  -6.096   4.724  1.00  0.00     0.001 C 
HETATM   14  C   UNL     1     -15.624  -6.867   3.912  1.00  0.00     0.000 C 
HETATM   15  C   UNL     1     -16.751  -7.608   4.280  1.00  0.00     0.003 C 
HETATM   16  C   UNL     1     -17.097  -8.163   5.494  1.00  0.00     0.037 C 
HETATM   17  C   UNL     1     -16.577  -7.785   6.763  1.00  0.00     0.079 C 
BRANCH  17  18
HETATM   18  O   UNL     1     -17.351  -7.966   7.875  1.00  0.00    -0.360 OA
ATOM     19  HO  UNL     1     -18.092  -8.557   7.810  1.00  0.00     0.217 HD
ENDBRANCH  17  18
ENDBRANCH   9  11
ENDBRANCH   2   9
BRANCH   5  20
HETATM   20  C   UNL     1      -9.532  -6.800   8.394  1.00  0.00     0.046 C 
BRANCH  20  21
HETATM   21  C   UNL     1      -8.188  -7.028   7.720  1.00  0.00     0.010 A 
HETATM   22  C   UNL     1      -7.103  -7.678   8.455  1.00  0.00     0.118 A 
HETATM   23  N   UNL     1      -5.875  -7.947   7.768  1.00  0.00    -0.418 N 
HETATM   24  C   UNL     1      -5.669  -7.568   6.374  1.00  0.00     0.145 A 
ATOM     25  HN  UNL     1      -5.121  -8.418   8.268  1.00  0.00     0.153 HD
HETATM   26  C   UNL     1      -6.774  -6.906   5.606  1.00  0.00     0.136 A 
HETATM   27  C   UNL     1      -8.067  -6.715   6.335  1.00  0.00     0.039 A 
BRANCH  26  28
HETATM   28  O   UNL     1      -6.297  -5.704   5.011  1.00  0.00    -0.394 OA
ATOM     29  HO  UNL     1      -6.484  -4.936   5.536  1.00  0.00     0.210 HD
ENDBRANCH  26  28
ENDBRANCH  20  21
ENDBRANCH   5  20
TORSDOF 6
ENDMDL
MODEL 5
REMARK VINA RESULT:      -9.6      1.799      2.541
REMARK  6 active torsions:
REMARK  status: ('A' for Active; 'I' for Inactive)
REMARK    1  A    between atoms: C_2  and  C_3 
REMARK    2  A    between atoms: C_2  and  C_7 
REMARK    3  A    between atoms: C_8  and  C_22 
REMARK    4  A    between atoms: C_18  and  C_22 
REMARK    5  A    between atoms: C_19  and  O_20 
REMARK    6  A    between atoms: C_24  and  O_25 
ROOT
HETATM    1  C   UNL     1     -15.412  -8.315   9.065  1.00  0.00     0.088 C 
HETATM    2  C   UNL     1     -14.343  -7.796   6.835  1.00  0.00     0.017 C 
HETATM    3  C   UNL     1     -13.586  -6.768   9.601  1.00  0.00     0.094 C 
HETATM    4  C   UNL     1     -15.458  -8.030   7.714  1.00  0.00     0.032 C 
HETATM    5  C   UNL     1     -12.689  -6.847   8.497  1.00  0.00    -0.041 C 
HETATM    6  N   UNL     1     -14.631  -7.564   9.944  1.00  0.00    -0.375 N 
ATOM      7  HN  UNL     1     -14.866  -7.619  10.935  1.00  0.00     0.164 HD
HETATM    8  C   UNL     1     -13.108  -7.222   7.204  1.00  0.00     0.024 C 
ENDROOT
BRANCH   2   9
HETATM    9  C   UNL     1     -14.526  -8.120   5.379  1.00  0.00     0.195 C 
HETATM   10  O   UNL     1     -13.837  -9.010   4.874  1.00  0.00    -0.287 OA
BRANCH   9  11
HETATM   11  C   UNL     1     -15.552  -7.342   4.598  1.00  0.00     0.048 C 
HETATM   12  C   UNL     1     -16.597  -8.050   3.980  1.00  0.00     0.018 C 
HETATM   13  C   UNL     1     -17.934  -7.665   3.820  1.00  0.00     0.001 C 
HETATM   14  C   UNL     1     -18.460  -6.428   4.153  1.00  0.00     0.000 C 
HETATM   15  C   UNL     1     -17.779  -5.215   4.297  1.00  0.00     0.003 C 
HETATM   16  C   UNL     1     -16.462  -4.963   4.616  1.00  0.00     0.037 C 
HETATM   17  C   UNL     1     -15.384  -5.882   4.494  1.00  0.00     0.079 C 
BRANCH  17  18
HETATM   18  O   UNL     1     -14.122  -5.398   4.287  1.00  0.00    -0.360 OA
ATOM     19  HO  UNL     1     -13.814  -5.331   3.391  1.00  0.00     0.217 HD
ENDBRANCH  17  18
ENDBRANCH   9  11
ENDBRANCH   2   9
BRANCH   5  20
HETATM   20  C   UNL     1     -11.232  -6.437   8.699  1.00  0.00     0.046 C 
BRANCH  20  21
HETATM   21  C   UNL     1     -10.226  -7.366   8.037  1.00  0.00     0.010 A 
HETATM   22  C   UNL     1      -9.041  -6.812   7.383  1.00  0.00     0.118 A 
HETATM   23  N   UNL     1      -8.074  -7.717   6.836  1.00  0.00    -0.418 N 
HETATM   24  C   UNL     1      -8.253  -9.164   6.890  1.00  0.00     0.145 A 
ATOM     25  HN  UNL     1      -7.235  -7.339   6.396  1.00  0.00     0.153 HD
HETATM   26  C   UNL     1      -9.461  -9.747   7.562  1.00  0.00     0.136 A 
HETATM   27  C   UNL     1     -10.405  -8.771   8.189  1.00  0.00     0.039 A 
BRANCH  26  28
HETATM   28  O   UNL     1     -10.114 -10.654   6.680  1.00  0.00    -0.394 OA
ATOM     29  HO  UNL     1     -11.044 -10.479   6.597  1.00  0.00     0.210 HD
ENDBRANCH  26  28
ENDBRANCH  20  21
ENDBRANCH   5  20
TORSDOF 6
ENDMDL
MODEL 6
REMARK VINA RESULT:      -9.5      1.414      1.928
REMARK  6 active torsions:
REMARK  status: ('A' for Active; 'I' for Inactive)
REMARK    1  A    between atoms: C_2  and  C_3 
REMARK    2  A    between atoms: C_2  and  C_7 
REMARK    3  A    between atoms: C_8  and  C_22 
REMARK    4  A    between atoms: C_18  and  C_22 
REMARK    5  A    between atoms: C_19  and  O_20 
REMARK    6  A    between atoms: C_24  and  O_25 
ROOT
HETATM    1  C   UNL     1     -15.309  -7.937   8.438  1.00  0.00     0.088 C 
HETATM    2  C   UNL     1     -14.258  -8.228   6.158  1.00  0.00     0.017 C 
HETATM    3  C   UNL     1     -12.902  -8.086   8.882  1.00  0.00     0.094 C 
HETATM    4  C   UNL     1     -15.196  -7.657   7.089  1.00  0.00     0.032 C 
HETATM    5  C   UNL     1     -12.346  -8.727   7.737  1.00  0.00    -0.041 C 
HETATM    6  N   UNL     1     -14.194  -7.956   9.276  1.00  0.00    -0.375 N 
ATOM      7  HN  UNL     1     -14.367  -7.864  10.277  1.00  0.00     0.164 HD
HETATM    8  C   UNL     1     -12.955  -8.672   6.466  1.00  0.00     0.024 C 
ENDROOT
BRANCH   2   9
HETATM    9  C   UNL     1     -14.667  -8.293   4.713  1.00  0.00     0.195 C 
HETATM   10  O   UNL     1     -14.193  -9.179   3.997  1.00  0.00    -0.287 OA
BRANCH   9  11
HETATM   11  C   UNL     1     -15.647  -7.269   4.201  1.00  0.00     0.048 C 
HETATM   12  C   UNL     1     -16.792  -7.723   3.525  1.00  0.00     0.018 C 
HETATM   13  C   UNL     1     -18.087  -7.192   3.556  1.00  0.00     0.001 C 
HETATM   14  C   UNL     1     -18.462  -6.020   4.189  1.00  0.00     0.000 C 
HETATM   15  C   UNL     1     -17.651  -4.937   4.543  1.00  0.00     0.003 C 
HETATM   16  C   UNL     1     -16.299  -4.884   4.808  1.00  0.00     0.037 C 
HETATM   17  C   UNL     1     -15.331  -5.845   4.406  1.00  0.00     0.079 C 
BRANCH  17  18
HETATM   18  O   UNL     1     -14.039  -5.443   4.215  1.00  0.00    -0.360 OA
ATOM     19  HO  UNL     1     -13.594  -5.736   3.428  1.00  0.00     0.217 HD
ENDBRANCH  17  18
ENDBRANCH   9  11
ENDBRANCH   2   9
BRANCH   5  20
HETATM   20  C   UNL     1     -11.001  -9.437   7.868  1.00  0.00     0.046 C 
BRANCH  20  21
HETATM   21  C   UNL     1      -9.799  -8.554   7.573  1.00  0.00     0.010 A 
HETATM   22  C   UNL     1      -9.887  -7.109   7.778  1.00  0.00     0.118 A 
HETATM   23  N   UNL     1      -8.714  -6.314   7.563  1.00  0.00    -0.418 N 
HETATM   24  C   UNL     1      -7.452  -6.900   7.122  1.00  0.00     0.145 A 
ATOM     25  HN  UNL     1      -8.761  -5.307   7.724  1.00  0.00     0.153 HD
HETATM   26  C   UNL     1      -7.346  -8.381   6.913  1.00  0.00     0.136 A 
HETATM   27  C   UNL     1      -8.569  -9.184   7.224  1.00  0.00     0.039 A 
BRANCH  26  28
HETATM   28  O   UNL     1      -6.828  -8.650   5.615  1.00  0.00    -0.394 OA
ATOM     29  HO  UNL     1      -7.368  -9.258   5.124  1.00  0.00     0.210 HD
ENDBRANCH  26  28
ENDBRANCH  20  21
ENDBRANCH   5  20
TORSDOF 6
ENDMDL
MODEL 7
REMARK VINA RESULT:      -9.4      2.556      7.879
REMARK  6 active torsions:
REMARK  status: ('A' for Active; 'I' for Inactive)
REMARK    1  A    between atoms: C_2  and  C_3 
REMARK    2  A    between atoms: C_2  and  C_7 
REMARK    3  A    between atoms: C_8  and  C_22 
REMARK    4  A    between atoms: C_18  and  C_22 
REMARK    5  A    between atoms: C_19  and  O_20 
REMARK    6  A    between atoms: C_24  and  O_25 
ROOT
HETATM    1  C   UNL     1     -14.490  -7.937   9.684  1.00  0.00     0.088 C 
HETATM    2  C   UNL     1     -12.323  -7.401   8.499  1.00  0.00     0.017 C 
HETATM    3  C   UNL     1     -15.059  -7.996   7.299  1.00  0.00     0.094 C 
HETATM    4  C   UNL     1     -13.121  -8.036   9.514  1.00  0.00     0.032 C 
HETATM    5  C   UNL     1     -14.042  -7.240   6.650  1.00  0.00    -0.041 C 
HETATM    6  N   UNL     1     -15.372  -8.101   8.617  1.00  0.00    -0.375 N 
ATOM      7  HN  UNL     1     -16.342  -8.319   8.847  1.00  0.00     0.164 HD
HETATM    8  C   UNL     1     -12.749  -7.083   7.192  1.00  0.00     0.024 C 
ENDROOT
BRANCH   2   9
HETATM    9  C   UNL     1     -10.884  -7.114   8.825  1.00  0.00     0.195 C 
HETATM   10  O   UNL     1     -10.617  -6.518   9.872  1.00  0.00    -0.287 OA
BRANCH   9  11
HETATM   11  C   UNL     1      -9.827  -7.574   7.857  1.00  0.00     0.048 C 
HETATM   12  C   UNL     1      -9.085  -6.600   7.167  1.00  0.00     0.018 C 
HETATM   13  C   UNL     1      -7.734  -6.632   6.804  1.00  0.00     0.001 C 
HETATM   14  C   UNL     1      -6.882  -7.711   6.963  1.00  0.00     0.000 C 
HETATM   15  C   UNL     1      -7.222  -9.062   7.097  1.00  0.00     0.003 C 
HETATM   16  C   UNL     1      -8.378  -9.649   7.564  1.00  0.00     0.037 C 
HETATM   17  C   UNL     1      -9.653  -9.024   7.658  1.00  0.00     0.079 C 
BRANCH  17  18
HETATM   18  O   UNL     1     -10.777  -9.798   7.580  1.00  0.00    -0.360 OA
ATOM     19  HO  UNL     1     -11.274  -9.941   8.376  1.00  0.00     0.217 HD
ENDBRANCH  17  18
ENDBRANCH   9  11
ENDBRANCH   2   9
BRANCH   5  20
HETATM   20  C   UNL     1     -14.333  -6.638   5.278  1.00  0.00     0.046 C 
BRANCH  20  21
HETATM   21  C   UNL     1     -15.792  -6.720   4.857  1.00  0.00     0.010 A 
HETATM   22  C   UNL     1     -16.569  -5.494   4.678  1.00  0.00     0.118 A 
HETATM   23  N   UNL     1     -17.919  -5.603   4.207  1.00  0.00    -0.418 N 
HETATM   24  C   UNL     1     -18.541  -6.893   3.931  1.00  0.00     0.145 A 
ATOM     25  HN  UNL     1     -18.462  -4.751   4.060  1.00  0.00     0.153 HD
HETATM   26  C   UNL     1     -17.753  -8.158   4.105  1.00  0.00     0.136 A 
HETATM   27  C   UNL     1     -16.325  -7.997   4.521  1.00  0.00     0.039 A 
BRANCH  26  28
HETATM   28  O   UNL     1     -18.470  -9.062   4.939  1.00  0.00    -0.394 OA
ATOM     29  HO  UNL     1     -18.997  -8.619   5.593  1.00  0.00     0.210 HD
ENDBRANCH  26  28
ENDBRANCH  20  21
ENDBRANCH   5  20
TORSDOF 6
ENDMDL
MODEL 8
REMARK VINA RESULT:      -9.3      1.414      1.769
REMARK  6 active torsions:
REMARK  status: ('A' for Active; 'I' for Inactive)
REMARK    1  A    between atoms: C_2  and  C_3 
REMARK    2  A    between atoms: C_2  and  C_7 
REMARK    3  A    between atoms: C_8  and  C_22 
REMARK    4  A    between atoms: C_18  and  C_22 
REMARK    5  A    between atoms: C_19  and  O_20 
REMARK    6  A    between atoms: C_24  and  O_25 
ROOT
HETATM    1  C   UNL     1     -14.390  -8.274   9.913  1.00  0.00     0.088 C 
HETATM    2  C   UNL     1     -13.922  -7.534   7.542  1.00  0.00     0.017 C 
HETATM    3  C   UNL     1     -12.484  -6.742  10.108  1.00  0.00     0.094 C 
HETATM    4  C   UNL     1     -14.778  -7.870   8.649  1.00  0.00     0.032 C 
HETATM    5  C   UNL     1     -11.898  -6.702   8.811  1.00  0.00    -0.041 C 
HETATM    6  N   UNL     1     -13.409  -7.588  10.629  1.00  0.00    -0.375 N 
ATOM      7  HN  UNL     1     -13.385  -7.737  11.638  1.00  0.00     0.164 HD
HETATM    8  C   UNL     1     -12.633  -6.969   7.636  1.00  0.00     0.024 C 
ENDROOT
BRANCH   2   9
HETATM    9  C   UNL     1     -14.471  -7.730   6.156  1.00  0.00     0.195 C 
HETATM   10  O   UNL     1     -14.001  -8.625   5.449  1.00  0.00    -0.287 OA
BRANCH   9  11
HETATM   11  C   UNL     1     -15.579  -6.822   5.692  1.00  0.00     0.048 C 
HETATM   12  C   UNL     1     -15.267  -5.483   5.404  1.00  0.00     0.018 C 
HETATM   13  C   UNL     1     -15.795  -4.663   4.399  1.00  0.00     0.001 C 
HETATM   14  C   UNL     1     -16.836  -4.999   3.551  1.00  0.00     0.000 C 
HETATM   15  C   UNL     1     -17.829  -5.964   3.749  1.00  0.00     0.003 C 
HETATM   16  C   UNL     1     -17.821  -7.108   4.518  1.00  0.00     0.037 C 
HETATM   17  C   UNL     1     -16.939  -7.380   5.600  1.00  0.00     0.079 C 
BRANCH  17  18
HETATM   18  O   UNL     1     -17.358  -8.212   6.602  1.00  0.00    -0.360 OA
ATOM     19  HO  UNL     1     -17.274  -7.906   7.497  1.00  0.00     0.217 HD
ENDBRANCH  17  18
ENDBRANCH   9  11
ENDBRANCH   2   9
BRANCH   5  20
HETATM   20  C   UNL     1     -10.437  -6.281   8.673  1.00  0.00     0.046 C 
BRANCH  20  21
HETATM   21  C   UNL     1      -9.556  -7.305   7.975  1.00  0.00     0.010 A 
HETATM   22  C   UNL     1      -8.394  -6.864   7.205  1.00  0.00     0.118 A 
HETATM   23  N   UNL     1      -7.541  -7.857   6.622  1.00  0.00    -0.418 N 
HETATM   24  C   UNL     1      -7.814  -9.285   6.754  1.00  0.00     0.145 A 
ATOM     25  HN  UNL     1      -6.717  -7.558   6.100  1.00  0.00     0.153 HD
HETATM   26  C   UNL     1      -9.000  -9.752   7.545  1.00  0.00     0.136 A 
HETATM   27  C   UNL     1      -9.819  -8.687   8.203  1.00  0.00     0.039 A 
BRANCH  26  28
HETATM   28  O   UNL     1      -9.784 -10.642   6.760  1.00  0.00    -0.394 OA
ATOM     29  HO  UNL     1     -10.706 -10.411   6.753  1.00  0.00     0.210 HD
ENDBRANCH  26  28
ENDBRANCH  20  21
ENDBRANCH   5  20
TORSDOF 6
ENDMDL
MODEL 9
REMARK VINA RESULT:      -8.8      2.707      8.202
REMARK  6 active torsions:
REMARK  status: ('A' for Active; 'I' for Inactive)
REMARK    1  A    between atoms: C_2  and  C_3 
REMARK    2  A    between atoms: C_2  and  C_7 
REMARK    3  A    between atoms: C_8  and  C_22 
REMARK    4  A    between atoms: C_18  and  C_22 
REMARK    5  A    between atoms: C_19  and  O_20 
REMARK    6  A    between atoms: C_24  and  O_25 
ROOT
HETATM    1  C   UNL     1     -12.495 -10.238   7.020  1.00  0.00     0.088 C 
HETATM    2  C   UNL     1     -11.617  -7.953   7.644  1.00  0.00     0.017 C 
HETATM    3  C   UNL     1     -13.971  -8.669   5.848  1.00  0.00     0.094 C 
HETATM    4  C   UNL     1     -11.480  -9.334   7.266  1.00  0.00     0.032 C 
HETATM    5  C   UNL     1     -13.834  -7.433   6.542  1.00  0.00    -0.041 C 
HETATM    6  N   UNL     1     -13.572  -9.920   6.193  1.00  0.00    -0.375 N 
ATOM      7  HN  UNL     1     -14.110 -10.699   5.813  1.00  0.00     0.164 HD
HETATM    8  C   UNL     1     -12.675  -7.096   7.273  1.00  0.00     0.024 C 
ENDROOT
BRANCH   2   9
HETATM    9  C   UNL     1     -10.504  -7.338   8.445  1.00  0.00     0.195 C 
HETATM   10  O   UNL     1     -10.781  -6.710   9.471  1.00  0.00    -0.287 OA
BRANCH   9  11
HETATM   11  C   UNL     1      -9.090  -7.520   7.959  1.00  0.00     0.048 C 
HETATM   12  C   UNL     1      -8.410  -8.697   8.314  1.00  0.00     0.018 C 
HETATM   13  C   UNL     1      -7.496  -9.437   7.554  1.00  0.00     0.001 C 
HETATM   14  C   UNL     1      -6.995  -9.070   6.317  1.00  0.00     0.000 C 
HETATM   15  C   UNL     1      -6.926  -7.787   5.764  1.00  0.00     0.003 C 
HETATM   16  C   UNL     1      -7.690  -6.667   6.010  1.00  0.00     0.037 C 
HETATM   17  C   UNL     1      -8.484  -6.436   7.168  1.00  0.00     0.079 C 
BRANCH  17  18
HETATM   18  O   UNL     1      -8.716  -5.148   7.564  1.00  0.00    -0.360 OA
ATOM     19  HO  UNL     1      -9.561  -4.765   7.356  1.00  0.00     0.217 HD
ENDBRANCH  17  18
ENDBRANCH   9  11
ENDBRANCH   2   9
BRANCH   5  20
HETATM   20  C   UNL     1     -14.949  -6.396   6.431  1.00  0.00     0.046 C 
BRANCH  20  21
HETATM   21  C   UNL     1     -16.056  -6.773   5.459  1.00  0.00     0.010 A 
HETATM   22  C   UNL     1     -16.461  -5.833   4.415  1.00  0.00     0.118 A 
HETATM   23  N   UNL     1     -17.454  -6.248   3.467  1.00  0.00    -0.418 N 
HETATM   24  C   UNL     1     -18.085  -7.562   3.534  1.00  0.00     0.145 A 
ATOM     25  HN  UNL     1     -17.728  -5.606   2.724  1.00  0.00     0.153 HD
HETATM   26  C   UNL     1     -17.675  -8.538   4.596  1.00  0.00     0.136 A 
HETATM   27  C   UNL     1     -16.581  -8.097   5.515  1.00  0.00     0.039 A 
BRANCH  26  28
HETATM   28  O   UNL     1     -18.825  -9.003   5.295  1.00  0.00    -0.394 OA
ATOM     29  HO  UNL     1     -19.609  -8.511   5.079  1.00  0.00     0.210 HD
ENDBRANCH  26  28
ENDBRANCH  20  21
ENDBRANCH   5  20
TORSDOF 6
ENDMDL
