MODEL 1
REMARK VINA RESULT:     -11.6      0.000      0.000
REMARK  5 active torsions:
REMARK  status: ('A' for Active; 'I' for Inactive)
REMARK    1  A    between atoms: C_1  and  C_15 
REMARK    2  A    between atoms: C_4  and  C_12 
REMARK    3  A    between atoms: C_7  and  O_23 
REMARK    4  A    between atoms: O_9  and  C_21 
REMARK    5  A    between atoms: C_15  and  C_22 
ROOT
HETATM    1  C   UNL     1     -11.101  -6.696   8.902  1.00  0.00    -0.006 C 
HETATM    2  C   UNL     1     -12.061  -7.891   8.886  1.00  0.00    -0.005 C 
HETATM    3  C   UNL     1     -13.275  -7.533   9.713  1.00  0.00    -0.009 C 
HETATM    4  C   UNL     1     -14.065  -8.288   7.504  1.00  0.00     0.019 C 
HETATM    5  C   UNL     1     -14.506  -7.691   8.830  1.00  0.00     0.014 C 
HETATM    6  C   UNL     1     -11.602  -5.763   9.994  1.00  0.00     0.005 C 
HETATM    7  C   UNL     1     -13.094  -6.071  10.150  1.00  0.00     0.005 C 
HETATM    8  C   UNL     1     -12.534  -8.285   7.493  1.00  0.00     0.014 C 
ENDROOT
BRANCH   4   9
HETATM    9  C   UNL     1     -14.620  -7.585   6.275  1.00  0.00    -0.053 C 
HETATM   10  C   UNL     1     -14.992  -8.398   5.211  1.00  0.00     0.010 C 
HETATM   11  C   UNL     1     -15.725  -8.135   4.081  1.00  0.00     0.037 C 
HETATM   12  C   UNL     1     -16.611  -7.087   3.846  1.00  0.00     0.066 C 
HETATM   13  C   UNL     1     -16.511  -5.854   4.510  1.00  0.00     0.043 C 
HETATM   14  C   UNL     1     -15.286  -5.503   5.091  1.00  0.00    -0.059 C 
HETATM   15  C   UNL     1     -14.385  -4.596   4.264  1.00  0.00     0.048 C 
HETATM   16  C   UNL     1     -14.733  -6.195   6.171  1.00  0.00     0.014 C 
BRANCH  12  17
HETATM   17  O   UNL     1     -17.643  -7.267   2.965  1.00  0.00    -0.361 OA
ATOM     18  HO  UNL     1     -17.446  -7.265   2.036  1.00  0.00     0.217 HD
ENDBRANCH  12  17
ENDBRANCH   4   9
BRANCH   1  19
HETATM   19  C   UNL     1      -9.637  -7.108   8.883  1.00  0.00     0.046 C 
BRANCH  19  20
HETATM   20  C   UNL     1      -8.944  -7.390   7.580  1.00  0.00    -0.025 C 
HETATM   21  C   UNL     1      -8.620  -6.340   6.697  1.00  0.00     0.010 C 
HETATM   22  C   UNL     1      -7.560  -6.562   5.779  1.00  0.00     0.001 C 
HETATM   23  C   UNL     1      -6.767  -7.730   5.887  1.00  0.00     0.003 C 
HETATM   24  C   UNL     1      -7.319  -8.867   6.522  1.00  0.00     0.037 C 
HETATM   25  C   UNL     1      -8.536  -8.707   7.202  1.00  0.00     0.071 C 
BRANCH  25  26
HETATM   26  O   UNL     1      -9.356  -9.758   7.468  1.00  0.00    -0.360 OA
ATOM     27  HO  UNL     1     -10.138  -9.927   6.958  1.00  0.00     0.217 HD
ENDBRANCH  25  26
ENDBRANCH  19  20
ENDBRANCH   1  19
TORSDOF 5
ENDMDL
MODEL 2
REMARK VINA RESULT:     -11.2      1.305      1.615
REMARK  5 active torsions:
REMARK  status: ('A' for Active; 'I' for Inactive)
REMARK    1  A    between atoms: C_1  and  C_15 
REMARK    2  A    between atoms: C_4  and  C_12 
REMARK    3  A    between atoms: C_7  and  O_23 
REMARK    4  A    between atoms: O_9  and  C_21 
REMARK    5  A    between atoms: C_15  and  C_22 
ROOT
HETATM    1  C   UNL     1     -10.530  -7.505   7.880  1.00  0.00    -0.006 C 
HETATM    2  C   UNL     1     -11.717  -8.413   8.221  1.00  0.00    -0.005 C 
HETATM    3  C   UNL     1     -12.575  -7.704   9.245  1.00  0.00    -0.009 C 
HETATM    4  C   UNL     1     -14.033  -8.370   7.372  1.00  0.00     0.019 C 
HETATM    5  C   UNL     1     -13.986  -7.596   8.680  1.00  0.00     0.014 C 
HETATM    6  C   UNL     1     -10.517  -6.408   8.933  1.00  0.00     0.005 C 
HETATM    7  C   UNL     1     -11.956  -6.312   9.449  1.00  0.00     0.005 C 
HETATM    8  C   UNL     1     -12.593  -8.760   7.026  1.00  0.00     0.014 C 
ENDROOT
BRANCH   4   9
HETATM    9  C   UNL     1     -14.689  -7.628   6.219  1.00  0.00    -0.053 C 
HETATM   10  C   UNL     1     -15.132  -8.404   5.155  1.00  0.00     0.010 C 
HETATM   11  C   UNL     1     -15.953  -8.109   4.095  1.00  0.00     0.037 C 
HETATM   12  C   UNL     1     -16.867  -7.066   3.972  1.00  0.00     0.066 C 
HETATM   13  C   UNL     1     -16.732  -5.858   4.675  1.00  0.00     0.043 C 
HETATM   14  C   UNL     1     -15.470  -5.512   5.174  1.00  0.00    -0.059 C 
HETATM   15  C   UNL     1     -14.647  -4.558   4.318  1.00  0.00     0.048 C 
HETATM   16  C   UNL     1     -14.827  -6.237   6.180  1.00  0.00     0.014 C 
BRANCH  12  17
HETATM   17  O   UNL     1     -17.962  -7.226   3.165  1.00  0.00    -0.361 OA
ATOM     18  HO  UNL     1     -17.835  -7.619   2.309  1.00  0.00     0.217 HD
ENDBRANCH  12  17
ENDBRANCH   4   9
BRANCH   1  19
HETATM   19  C   UNL     1      -9.252  -8.279   7.591  1.00  0.00     0.046 C 
BRANCH  19  20
HETATM   20  C   UNL     1      -7.930  -7.567   7.530  1.00  0.00    -0.025 C 
HETATM   21  C   UNL     1      -6.980  -7.728   8.558  1.00  0.00     0.010 C 
HETATM   22  C   UNL     1      -5.619  -7.482   8.233  1.00  0.00     0.001 C 
HETATM   23  C   UNL     1      -5.245  -7.256   6.887  1.00  0.00     0.003 C 
HETATM   24  C   UNL     1      -6.221  -6.772   5.985  1.00  0.00     0.037 C 
HETATM   25  C   UNL     1      -7.555  -6.749   6.419  1.00  0.00     0.071 C 
BRANCH  25  26
HETATM   26  O   UNL     1      -8.485  -5.940   5.846  1.00  0.00    -0.360 OA
ATOM     27  HO  UNL     1      -9.363  -5.856   6.197  1.00  0.00     0.217 HD
ENDBRANCH  25  26
ENDBRANCH  19  20
ENDBRANCH   1  19
TORSDOF 5
ENDMDL
MODEL 3
REMARK VINA RESULT:     -11.2      0.987      1.467
REMARK  5 active torsions:
REMARK  status: ('A' for Active; 'I' for Inactive)
REMARK    1  A    between atoms: C_1  and  C_15 
REMARK    2  A    between atoms: C_4  and  C_12 
REMARK    3  A    between atoms: C_7  and  O_23 
REMARK    4  A    between atoms: O_9  and  C_21 
REMARK    5  A    between atoms: C_15  and  C_22 
ROOT
HETATM    1  C   UNL     1     -11.085  -6.827   8.964  1.00  0.00    -0.006 C 
HETATM    2  C   UNL     1     -12.070  -7.945   9.321  1.00  0.00    -0.005 C 
HETATM    3  C   UNL     1     -13.190  -7.344  10.140  1.00  0.00    -0.009 C 
HETATM    4  C   UNL     1     -14.206  -8.568   8.257  1.00  0.00     0.019 C 
HETATM    5  C   UNL     1     -14.504  -7.652   9.433  1.00  0.00     0.014 C 
HETATM    6  C   UNL     1     -11.456  -5.638   9.837  1.00  0.00     0.005 C 
HETATM    7  C   UNL     1     -12.933  -5.830  10.192  1.00  0.00     0.005 C 
HETATM    8  C   UNL     1     -12.683  -8.638   8.113  1.00  0.00     0.014 C 
ENDROOT
BRANCH   4   9
HETATM    9  C   UNL     1     -14.860  -8.155   6.948  1.00  0.00    -0.053 C 
HETATM   10  C   UNL     1     -16.191  -7.761   7.017  1.00  0.00     0.010 C 
HETATM   11  C   UNL     1     -16.997  -7.121   6.109  1.00  0.00     0.037 C 
HETATM   12  C   UNL     1     -16.623  -6.360   5.004  1.00  0.00     0.066 C 
HETATM   13  C   UNL     1     -15.402  -6.548   4.338  1.00  0.00     0.043 C 
HETATM   14  C   UNL     1     -14.734  -7.769   4.496  1.00  0.00    -0.059 C 
HETATM   15  C   UNL     1     -14.952  -8.800   3.397  1.00  0.00     0.048 C 
HETATM   16  C   UNL     1     -14.200  -8.189   5.716  1.00  0.00     0.014 C 
BRANCH  12  17
HETATM   17  O   UNL     1     -17.454  -5.364   4.565  1.00  0.00    -0.361 OA
ATOM     18  HO  UNL     1     -17.615  -5.292   3.632  1.00  0.00     0.217 HD
ENDBRANCH  12  17
ENDBRANCH   4   9
BRANCH   1  19
HETATM   19  C   UNL     1      -9.639  -7.298   8.918  1.00  0.00     0.046 C 
BRANCH  19  20
HETATM   20  C   UNL     1      -8.945  -7.491   7.598  1.00  0.00    -0.025 C 
HETATM   21  C   UNL     1      -8.637  -6.385   6.781  1.00  0.00     0.010 C 
HETATM   22  C   UNL     1      -7.575  -6.538   5.851  1.00  0.00     0.001 C 
HETATM   23  C   UNL     1      -6.767  -7.699   5.886  1.00  0.00     0.003 C 
HETATM   24  C   UNL     1      -7.303  -8.880   6.451  1.00  0.00     0.037 C 
HETATM   25  C   UNL     1      -8.521  -8.777   7.141  1.00  0.00     0.071 C 
BRANCH  25  26
HETATM   26  O   UNL     1      -9.327  -9.853   7.343  1.00  0.00    -0.360 OA
ATOM     27  HO  UNL     1      -9.850 -10.229   6.645  1.00  0.00     0.217 HD
ENDBRANCH  25  26
ENDBRANCH  19  20
ENDBRANCH   1  19
TORSDOF 5
ENDMDL
MODEL 4
REMARK VINA RESULT:     -10.5      1.994      7.764
REMARK  5 active torsions:
REMARK  status: ('A' for Active; 'I' for Inactive)
REMARK    1  A    between atoms: C_1  and  C_15 
REMARK    2  A    between atoms: C_4  and  C_12 
REMARK    3  A    between atoms: C_7  and  O_23 
REMARK    4  A    between atoms: O_9  and  C_21 
REMARK    5  A    between atoms: C_15  and  C_22 
ROOT
HETATM    1  C   UNL     1     -13.893  -7.333   5.944  1.00  0.00    -0.006 C 
HETATM    2  C   UNL     1     -13.499  -7.983   7.275  1.00  0.00    -0.005 C 
HETATM    3  C   UNL     1     -13.279  -9.459   7.033  1.00  0.00    -0.009 C 
HETATM    4  C   UNL     1     -11.267  -8.570   8.146  1.00  0.00     0.019 C 
HETATM    5  C   UNL     1     -11.866  -9.802   7.488  1.00  0.00     0.014 C 
HETATM    6  C   UNL     1     -14.214  -8.474   4.992  1.00  0.00     0.005 C 
HETATM    7  C   UNL     1     -13.441  -9.685   5.522  1.00  0.00     0.005 C 
HETATM    8  C   UNL     1     -12.232  -7.407   7.893  1.00  0.00     0.014 C 
ENDROOT
BRANCH   4   9
HETATM    9  C   UNL     1      -9.861  -8.222   7.684  1.00  0.00    -0.053 C 
HETATM   10  C   UNL     1      -9.529  -6.873   7.671  1.00  0.00     0.010 C 
HETATM   11  C   UNL     1      -8.319  -6.237   7.546  1.00  0.00     0.037 C 
HETATM   12  C   UNL     1      -7.043  -6.752   7.759  1.00  0.00     0.066 C 
HETATM   13  C   UNL     1      -6.751  -8.118   7.628  1.00  0.00     0.043 C 
HETATM   14  C   UNL     1      -7.617  -8.919   6.873  1.00  0.00    -0.059 C 
HETATM   15  C   UNL     1      -7.207  -9.176   5.430  1.00  0.00     0.048 C 
HETATM   16  C   UNL     1      -8.936  -9.178   7.254  1.00  0.00     0.014 C 
BRANCH  12  17
HETATM   17  O   UNL     1      -6.036  -5.908   8.146  1.00  0.00    -0.361 OA
ATOM     18  HO  UNL     1      -5.519  -6.144   8.907  1.00  0.00     0.217 HD
ENDBRANCH  12  17
ENDBRANCH   4   9
BRANCH   1  19
HETATM   19  C   UNL     1     -14.889  -6.194   6.109  1.00  0.00     0.046 C 
BRANCH  19  20
HETATM   20  C   UNL     1     -16.303  -6.345   5.625  1.00  0.00    -0.025 C 
HETATM   21  C   UNL     1     -16.886  -5.368   4.794  1.00  0.00     0.010 C 
HETATM   22  C   UNL     1     -17.970  -5.773   3.971  1.00  0.00     0.001 C 
HETATM   23  C   UNL     1     -18.314  -7.143   3.881  1.00  0.00     0.003 C 
HETATM   24  C   UNL     1     -17.959  -8.001   4.947  1.00  0.00     0.037 C 
HETATM   25  C   UNL     1     -17.096  -7.495   5.931  1.00  0.00     0.071 C 
BRANCH  25  26
HETATM   26  O   UNL     1     -17.027  -8.036   7.176  1.00  0.00    -0.360 OA
ATOM     27  HO  UNL     1     -17.260  -7.542   7.953  1.00  0.00     0.217 HD
ENDBRANCH  25  26
ENDBRANCH  19  20
ENDBRANCH   1  19
TORSDOF 5
ENDMDL
MODEL 5
REMARK VINA RESULT:      -9.7      1.776      7.473
REMARK  5 active torsions:
REMARK  status: ('A' for Active; 'I' for Inactive)
REMARK    1  A    between atoms: C_1  and  C_15 
REMARK    2  A    between atoms: C_4  and  C_12 
REMARK    3  A    between atoms: C_7  and  O_23 
REMARK    4  A    between atoms: O_9  and  C_21 
REMARK    5  A    between atoms: C_15  and  C_22 
ROOT
HETATM    1  C   UNL     1     -13.824  -7.383   6.027  1.00  0.00    -0.006 C 
HETATM    2  C   UNL     1     -13.551  -7.856   7.459  1.00  0.00    -0.005 C 
HETATM    3  C   UNL     1     -13.480  -9.366   7.452  1.00  0.00    -0.009 C 
HETATM    4  C   UNL     1     -11.427  -8.521   8.524  1.00  0.00     0.019 C 
HETATM    5  C   UNL     1     -12.129  -9.774   8.026  1.00  0.00     0.014 C 
HETATM    6  C   UNL     1     -14.230  -8.619   5.241  1.00  0.00     0.005 C 
HETATM    7  C   UNL     1     -13.611  -9.805   5.985  1.00  0.00     0.005 C 
HETATM    8  C   UNL     1     -12.253  -7.322   8.049  1.00  0.00     0.014 C 
ENDROOT
BRANCH   4   9
HETATM    9  C   UNL     1      -9.976  -8.391   8.089  1.00  0.00    -0.053 C 
HETATM   10  C   UNL     1      -9.433  -9.476   7.411  1.00  0.00     0.010 C 
HETATM   11  C   UNL     1      -8.273  -9.607   6.689  1.00  0.00     0.037 C 
HETATM   12  C   UNL     1      -7.487  -8.607   6.123  1.00  0.00     0.066 C 
HETATM   13  C   UNL     1      -7.456  -7.297   6.627  1.00  0.00     0.043 C 
HETATM   14  C   UNL     1      -7.871  -7.077   7.946  1.00  0.00    -0.059 C 
HETATM   15  C   UNL     1      -6.769  -7.002   8.994  1.00  0.00     0.048 C 
HETATM   16  C   UNL     1      -9.188  -7.271   8.369  1.00  0.00     0.014 C 
BRANCH  12  17
HETATM   17  O   UNL     1      -6.740  -8.891   5.010  1.00  0.00    -0.361 OA
ATOM     18  HO  UNL     1      -5.800  -8.976   5.110  1.00  0.00     0.217 HD
ENDBRANCH  12  17
ENDBRANCH   4   9
BRANCH   1  19
HETATM   19  C   UNL     1     -14.698  -6.138   5.968  1.00  0.00     0.046 C 
BRANCH  19  20
HETATM   20  C   UNL     1     -16.115  -6.227   5.475  1.00  0.00    -0.025 C 
HETATM   21  C   UNL     1     -16.620  -5.276   4.566  1.00  0.00     0.010 C 
HETATM   22  C   UNL     1     -17.721  -5.665   3.758  1.00  0.00     0.001 C 
HETATM   23  C   UNL     1     -18.159  -7.011   3.764  1.00  0.00     0.003 C 
HETATM   24  C   UNL     1     -17.874  -7.811   4.895  1.00  0.00     0.037 C 
HETATM   25  C   UNL     1     -16.988  -7.294   5.852  1.00  0.00     0.071 C 
BRANCH  25  26
HETATM   26  O   UNL     1     -16.969  -7.746   7.134  1.00  0.00    -0.360 OA
ATOM     27  HO  UNL     1     -17.765  -7.862   7.638  1.00  0.00     0.217 HD
ENDBRANCH  25  26
ENDBRANCH  19  20
ENDBRANCH   1  19
TORSDOF 5
ENDMDL
MODEL 6
REMARK VINA RESULT:      -9.6      1.861      7.451
REMARK  5 active torsions:
REMARK  status: ('A' for Active; 'I' for Inactive)
REMARK    1  A    between atoms: C_1  and  C_15 
REMARK    2  A    between atoms: C_4  and  C_12 
REMARK    3  A    between atoms: C_7  and  O_23 
REMARK    4  A    between atoms: O_9  and  C_21 
REMARK    5  A    between atoms: C_15  and  C_22 
ROOT
HETATM    1  C   UNL     1     -13.523  -8.915   6.296  1.00  0.00    -0.006 C 
HETATM    2  C   UNL     1     -13.262  -7.798   7.312  1.00  0.00    -0.005 C 
HETATM    3  C   UNL     1     -13.138  -8.426   8.682  1.00  0.00    -0.009 C 
HETATM    4  C   UNL     1     -11.138  -7.033   8.308  1.00  0.00     0.019 C 
HETATM    5  C   UNL     1     -11.785  -8.027   9.259  1.00  0.00     0.014 C 
HETATM    6  C   UNL     1     -13.869 -10.155   7.106  1.00  0.00     0.005 C 
HETATM    7  C   UNL     1     -13.223  -9.946   8.478  1.00  0.00     0.005 C 
HETATM    8  C   UNL     1     -11.996  -6.997   7.039  1.00  0.00     0.014 C 
ENDROOT
BRANCH   4   9
HETATM    9  C   UNL     1      -9.684  -7.327   7.975  1.00  0.00    -0.053 C 
HETATM   10  C   UNL     1      -9.106  -6.547   6.980  1.00  0.00     0.010 C 
HETATM   11  C   UNL     1      -7.798  -6.380   6.603  1.00  0.00     0.037 C 
HETATM   12  C   UNL     1      -6.644  -6.657   7.331  1.00  0.00     0.066 C 
HETATM   13  C   UNL     1      -6.609  -7.624   8.348  1.00  0.00     0.043 C 
HETATM   14  C   UNL     1      -7.596  -8.618   8.362  1.00  0.00    -0.059 C 
HETATM   15  C   UNL     1      -7.216  -9.950   7.731  1.00  0.00     0.048 C 
HETATM   16  C   UNL     1      -8.946  -8.343   8.589  1.00  0.00     0.014 C 
BRANCH  12  17
HETATM   17  O   UNL     1      -5.504  -5.940   7.079  1.00  0.00    -0.361 OA
ATOM     18  HO  UNL     1      -4.921  -5.754   7.805  1.00  0.00     0.217 HD
ENDBRANCH  12  17
ENDBRANCH   4   9
BRANCH   1  19
HETATM   19  C   UNL     1     -14.439  -8.484   5.160  1.00  0.00     0.046 C 
BRANCH  19  20
HETATM   20  C   UNL     1     -15.197  -7.189   5.245  1.00  0.00    -0.025 C 
HETATM   21  C   UNL     1     -14.628  -5.992   4.766  1.00  0.00     0.010 C 
HETATM   22  C   UNL     1     -15.518  -4.949   4.396  1.00  0.00     0.001 C 
HETATM   23  C   UNL     1     -16.912  -5.192   4.355  1.00  0.00     0.003 C 
HETATM   24  C   UNL     1     -17.440  -6.240   5.145  1.00  0.00     0.037 C 
HETATM   25  C   UNL     1     -16.531  -7.118   5.754  1.00  0.00     0.071 C 
BRANCH  25  26
HETATM   26  O   UNL     1     -16.867  -7.864   6.840  1.00  0.00    -0.360 OA
ATOM     27  HO  UNL     1     -17.507  -7.567   7.476  1.00  0.00     0.217 HD
ENDBRANCH  25  26
ENDBRANCH  19  20
ENDBRANCH   1  19
TORSDOF 5
ENDMDL
MODEL 7
REMARK VINA RESULT:      -9.4      1.646      7.079
REMARK  5 active torsions:
REMARK  status: ('A' for Active; 'I' for Inactive)
REMARK    1  A    between atoms: C_1  and  C_15 
REMARK    2  A    between atoms: C_4  and  C_12 
REMARK    3  A    between atoms: C_7  and  O_23 
REMARK    4  A    between atoms: O_9  and  C_21 
REMARK    5  A    between atoms: C_15  and  C_22 
ROOT
HETATM    1  C   UNL     1     -14.704  -7.954   8.404  1.00  0.00    -0.006 C 
HETATM    2  C   UNL     1     -13.805  -6.724   8.568  1.00  0.00    -0.005 C 
HETATM    3  C   UNL     1     -13.226  -6.747   9.965  1.00  0.00    -0.009 C 
HETATM    4  C   UNL     1     -11.354  -6.523   8.377  1.00  0.00     0.019 C 
HETATM    5  C   UNL     1     -11.707  -6.714   9.843  1.00  0.00     0.014 C 
HETATM    6  C   UNL     1     -14.905  -8.525   9.799  1.00  0.00     0.005 C 
HETATM    7  C   UNL     1     -13.698  -8.056  10.616  1.00  0.00     0.005 C 
HETATM    8  C   UNL     1     -12.652  -6.664   7.576  1.00  0.00     0.014 C 
ENDROOT
BRANCH   4   9
HETATM    9  C   UNL     1     -10.285  -7.467   7.853  1.00  0.00    -0.053 C 
HETATM   10  C   UNL     1      -9.176  -6.879   7.256  1.00  0.00     0.010 C 
HETATM   11  C   UNL     1      -7.955  -7.394   6.900  1.00  0.00     0.037 C 
HETATM   12  C   UNL     1      -7.338  -8.556   7.358  1.00  0.00     0.066 C 
HETATM   13  C   UNL     1      -8.066  -9.650   7.853  1.00  0.00     0.043 C 
HETATM   14  C   UNL     1      -9.416  -9.770   7.503  1.00  0.00    -0.059 C 
HETATM   15  C   UNL     1      -9.727 -10.696   6.334  1.00  0.00     0.048 C 
HETATM   16  C   UNL     1     -10.391  -8.860   7.917  1.00  0.00     0.014 C 
BRANCH  12  17
HETATM   17  O   UNL     1      -5.971  -8.631   7.364  1.00  0.00    -0.361 OA
ATOM     18  HO  UNL     1      -5.521  -8.704   6.531  1.00  0.00     0.217 HD
ENDBRANCH  12  17
ENDBRANCH   4   9
BRANCH   1  19
HETATM   19  C   UNL     1     -15.915  -7.693   7.520  1.00  0.00     0.046 C 
BRANCH  19  20
HETATM   20  C   UNL     1     -15.791  -7.753   6.024  1.00  0.00    -0.025 C 
HETATM   21  C   UNL     1     -14.690  -8.394   5.420  1.00  0.00     0.010 C 
HETATM   22  C   UNL     1     -14.860  -8.870   4.093  1.00  0.00     0.001 C 
HETATM   23  C   UNL     1     -16.141  -8.842   3.492  1.00  0.00     0.003 C 
HETATM   24  C   UNL     1     -17.093  -7.913   3.970  1.00  0.00     0.037 C 
HETATM   25  C   UNL     1     -16.792  -7.221   5.153  1.00  0.00     0.071 C 
BRANCH  25  26
HETATM   26  O   UNL     1     -17.388  -6.041   5.469  1.00  0.00    -0.360 OA
ATOM     27  HO  UNL     1     -17.192  -5.578   6.275  1.00  0.00     0.217 HD
ENDBRANCH  25  26
ENDBRANCH  19  20
ENDBRANCH   1  19
TORSDOF 5
ENDMDL
MODEL 8
REMARK VINA RESULT:      -9.4      1.878      7.815
REMARK  5 active torsions:
REMARK  status: ('A' for Active; 'I' for Inactive)
REMARK    1  A    between atoms: C_1  and  C_15 
REMARK    2  A    between atoms: C_4  and  C_12 
REMARK    3  A    between atoms: C_7  and  O_23 
REMARK    4  A    between atoms: O_9  and  C_21 
REMARK    5  A    between atoms: C_15  and  C_22 
ROOT
HETATM    1  C   UNL     1     -13.864  -7.572   6.211  1.00  0.00    -0.006 C 
HETATM    2  C   UNL     1     -13.397  -7.946   7.622  1.00  0.00    -0.005 C 
HETATM    3  C   UNL     1     -13.166  -9.439   7.663  1.00  0.00    -0.009 C 
HETATM    4  C   UNL     1     -11.118  -8.337   8.479  1.00  0.00     0.019 C 
HETATM    5  C   UNL     1     -11.728  -9.678   8.105  1.00  0.00     0.014 C 
HETATM    6  C   UNL     1     -14.213  -8.881   5.518  1.00  0.00     0.005 C 
HETATM    7  C   UNL     1     -13.397  -9.959   6.235  1.00  0.00     0.005 C 
HETATM    8  C   UNL     1     -12.111  -7.253   8.051  1.00  0.00     0.014 C 
ENDROOT
BRANCH   4   9
HETATM    9  C   UNL     1      -9.741  -8.079   7.888  1.00  0.00    -0.053 C 
HETATM   10  C   UNL     1      -9.374  -6.748   7.730  1.00  0.00     0.010 C 
HETATM   11  C   UNL     1      -8.160  -6.167   7.463  1.00  0.00     0.037 C 
HETATM   12  C   UNL     1      -6.886  -6.704   7.630  1.00  0.00     0.066 C 
HETATM   13  C   UNL     1      -6.642  -8.086   7.602  1.00  0.00     0.043 C 
HETATM   14  C   UNL     1      -7.583  -8.920   6.986  1.00  0.00    -0.059 C 
HETATM   15  C   UNL     1      -7.288  -9.317   5.546  1.00  0.00     0.048 C 
HETATM   16  C   UNL     1      -8.876  -9.100   7.481  1.00  0.00     0.014 C 
BRANCH  12  17
HETATM   17  O   UNL     1      -5.831  -5.864   7.867  1.00  0.00    -0.361 OA
ATOM     18  HO  UNL     1      -5.268  -5.633   7.137  1.00  0.00     0.217 HD
ENDBRANCH  12  17
ENDBRANCH   4   9
BRANCH   1  19
HETATM   19  C   UNL     1     -14.868  -6.429   6.198  1.00  0.00     0.046 C 
BRANCH  19  20
HETATM   20  C   UNL     1     -15.884  -6.322   5.096  1.00  0.00    -0.025 C 
HETATM   21  C   UNL     1     -16.733  -7.407   4.796  1.00  0.00     0.010 C 
HETATM   22  C   UNL     1     -17.963  -7.113   4.149  1.00  0.00     0.001 C 
HETATM   23  C   UNL     1     -18.369  -5.767   3.984  1.00  0.00     0.003 C 
HETATM   24  C   UNL     1     -17.379  -4.757   3.976  1.00  0.00     0.037 C 
HETATM   25  C   UNL     1     -16.076  -5.119   4.348  1.00  0.00     0.071 C 
BRANCH  25  26
HETATM   26  O   UNL     1     -14.992  -4.387   3.980  1.00  0.00    -0.360 OA
ATOM     27  HO  UNL     1     -14.817  -4.168   3.073  1.00  0.00     0.217 HD
ENDBRANCH  25  26
ENDBRANCH  19  20
ENDBRANCH   1  19
TORSDOF 5
ENDMDL
