MODEL 1
REMARK VINA RESULT:     -10.0      0.000      0.000
REMARK  4 active torsions:
REMARK  status: ('A' for Active; 'I' for Inactive)
REMARK    1  A    between atoms: C_3  and  C_11 
REMARK    2  A    between atoms: C_6  and  C_15 
REMARK    3  A    between atoms: C_6  and  C_32 
REMARK    4  A    between atoms: C_20  and  O_33 
ROOT
HETATM    1  C   UNL     1       7.434 -12.353  -6.805  1.00  0.00     0.069 C 
HETATM    2  C   UNL     1       4.901 -13.693 -10.984  1.00  0.00     0.010 C 
HETATM    3  C   UNL     1       5.233 -11.988  -7.786  1.00  0.00     0.026 C 
HETATM    4 CL   UNL     1       8.754 -14.296 -10.745  1.00  0.00    -0.083 Cl
HETATM    5  C   UNL     1       6.174 -11.722  -6.787  1.00  0.00    -0.002 C 
HETATM    6  O   UNL     1       8.789 -14.006  -7.797  1.00  0.00    -0.287 OA
HETATM    7  C   UNL     1       6.244 -13.571 -11.352  1.00  0.00    -0.030 C 
HETATM    8  C   UNL     1       4.531 -13.411  -9.667  1.00  0.00     0.013 C 
HETATM    9  C   UNL     1       7.212 -13.656 -10.332  1.00  0.00     0.055 C 
HETATM   10  C   UNL     1       7.757 -13.224  -7.861  1.00  0.00     0.185 C 
HETATM   11  C   UNL     1       6.851 -13.311  -9.014  1.00  0.00     0.046 C 
HETATM   12  C   UNL     1       5.507 -12.911  -8.803  1.00  0.00    -0.019 C 
ENDROOT
BRANCH   7  13
HETATM   13  C   UNL     1       6.664 -13.395 -12.792  1.00  0.00     0.097 C 
BRANCH  13  14
HETATM   14  C   UNL     1       5.596 -12.975 -13.774  1.00  0.00     0.014 C 
HETATM   15  N   UNL     1       5.584 -13.131 -15.118  1.00  0.00    -0.359 N 
HETATM   16  C   UNL     1       4.276 -13.366 -15.450  1.00  0.00     0.042 C 
ATOM     17  HN  UNL     1       6.382 -13.084 -15.752  1.00  0.00     0.166 HD
HETATM   18  C   UNL     1       3.491 -12.904 -14.418  1.00  0.00    -0.008 C 
HETATM   19  C   UNL     1       3.810 -14.238 -16.440  1.00  0.00     0.030 C 
HETATM   20  C   UNL     1       2.121 -12.729 -14.492  1.00  0.00     0.014 C 
HETATM   21  C   UNL     1       4.338 -12.592 -13.388  1.00  0.00     0.039 C 
HETATM   22  C   UNL     1       1.194 -12.973 -15.465  1.00  0.00     0.001 C 
HETATM   23  C   UNL     1       1.370 -13.810 -16.582  1.00  0.00     0.000 C 
HETATM   24  C   UNL     1       2.541 -14.444 -16.903  1.00  0.00     0.002 C 
ENDBRANCH  13  14
ENDBRANCH   7  13
BRANCH   5  25
HETATM   25  C   UNL     1       5.734 -10.789  -5.753  1.00  0.00     0.078 C 
HETATM   26  N   UNL     1       6.085  -9.474  -5.813  1.00  0.00    -0.349 N 
HETATM   27  C   UNL     1       5.049  -8.602  -5.771  1.00  0.00     0.180 C 
ATOM     28  HN  UNL     1       7.056  -9.168  -5.884  1.00  0.00     0.166 HD
HETATM   29  N   UNL     1       3.799  -8.918  -5.393  1.00  0.00    -0.359 N 
HETATM   30  C   UNL     1       3.637 -10.112  -4.775  1.00  0.00     0.127 C 
ATOM     31  HN  UNL     1       3.013  -8.292  -5.564  1.00  0.00     0.166 HD
HETATM   32  C   UNL     1       4.608 -11.101  -4.936  1.00  0.00     0.108 C 
BRANCH  32  33
HETATM   33  O   UNL     1       4.457 -12.347  -4.404  1.00  0.00    -0.357 OA
ATOM     34  HO  UNL     1       4.396 -13.111  -4.966  1.00  0.00     0.217 HD
ENDBRANCH  32  33
ENDBRANCH   5  25
TORSDOF 4
ENDMDL
MODEL 2
REMARK VINA RESULT:      -9.5      5.067      8.095
REMARK  4 active torsions:
REMARK  status: ('A' for Active; 'I' for Inactive)
REMARK    1  A    between atoms: C_3  and  C_11 
REMARK    2  A    between atoms: C_6  and  C_15 
REMARK    3  A    between atoms: C_6  and  C_32 
REMARK    4  A    between atoms: C_20  and  O_33 
ROOT
HETATM    1  C   UNL     1       6.061 -14.041 -12.012  1.00  0.00     0.069 C 
HETATM    2  C   UNL     1      10.602 -13.617 -14.221  1.00  0.00     0.010 C 
HETATM    3  C   UNL     1       7.038 -12.930 -13.947  1.00  0.00     0.026 C 
HETATM    4 CL   UNL     1      10.296 -15.145 -10.637  1.00  0.00    -0.083 Cl
HETATM    5  C   UNL     1       5.947 -13.161 -13.106  1.00  0.00    -0.002 C 
HETATM    6  O   UNL     1       7.390 -15.649 -10.915  1.00  0.00    -0.287 OA
HETATM    7  C   UNL     1      10.834 -13.722 -12.846  1.00  0.00    -0.030 C 
HETATM    8  C   UNL     1       9.285 -13.609 -14.687  1.00  0.00     0.013 C 
HETATM    9  C   UNL     1       9.819 -14.293 -12.053  1.00  0.00     0.055 C 
HETATM   10  C   UNL     1       7.297 -14.658 -11.745  1.00  0.00     0.185 C 
HETATM   11  C   UNL     1       8.484 -14.228 -12.497  1.00  0.00     0.046 C 
HETATM   12  C   UNL     1       8.255 -13.594 -13.745  1.00  0.00    -0.019 C 
ENDROOT
BRANCH   7  13
HETATM   13  C   UNL     1      12.136 -13.280 -12.221  1.00  0.00     0.097 C 
BRANCH  13  14
HETATM   14  C   UNL     1      12.767 -12.019 -12.762  1.00  0.00     0.014 C 
HETATM   15  N   UNL     1      13.733 -11.900 -13.703  1.00  0.00    -0.359 N 
HETATM   16  C   UNL     1      13.431 -10.761 -14.400  1.00  0.00     0.042 C 
ATOM     17  HN  UNL     1      14.521 -12.528 -13.859  1.00  0.00     0.166 HD
HETATM   18  C   UNL     1      12.602  -9.993 -13.612  1.00  0.00    -0.008 C 
HETATM   19  C   UNL     1      13.591 -10.556 -15.775  1.00  0.00     0.030 C 
HETATM   20  C   UNL     1      12.291  -8.668 -13.858  1.00  0.00     0.014 C 
HETATM   21  C   UNL     1      12.243 -10.771 -12.544  1.00  0.00     0.039 C 
HETATM   22  C   UNL     1      12.614  -7.798 -14.860  1.00  0.00     0.001 C 
HETATM   23  C   UNL     1      13.109  -8.148 -16.131  1.00  0.00     0.000 C 
HETATM   24  C   UNL     1      13.421  -9.424 -16.520  1.00  0.00     0.002 C 
ENDBRANCH  13  14
ENDBRANCH   7  13
BRANCH   5  25
HETATM   25  C   UNL     1       4.722 -12.452 -13.469  1.00  0.00     0.078 C 
HETATM   26  N   UNL     1       4.340 -12.354 -14.773  1.00  0.00    -0.349 N 
HETATM   27  C   UNL     1       3.089 -12.800 -15.038  1.00  0.00     0.180 C 
ATOM     28  HN  UNL     1       4.951 -11.974 -15.497  1.00  0.00     0.166 HD
HETATM   29  N   UNL     1       2.149 -13.036 -14.107  1.00  0.00    -0.359 N 
HETATM   30  C   UNL     1       2.391 -12.552 -12.867  1.00  0.00     0.127 C 
ATOM     31  HN  UNL     1       1.298 -13.554 -14.325  1.00  0.00     0.166 HD
HETATM   32  C   UNL     1       3.700 -12.241 -12.498  1.00  0.00     0.108 C 
BRANCH  32  33
HETATM   33  O   UNL     1       4.011 -11.828 -11.237  1.00  0.00    -0.357 OA
ATOM     34  HO  UNL     1       3.341 -11.764 -10.567  1.00  0.00     0.217 HD
ENDBRANCH  32  33
ENDBRANCH   5  25
TORSDOF 4
ENDMDL
MODEL 3
REMARK VINA RESULT:      -9.3      3.981      7.508
REMARK  4 active torsions:
REMARK  status: ('A' for Active; 'I' for Inactive)
REMARK    1  A    between atoms: C_3  and  C_11 
REMARK    2  A    between atoms: C_6  and  C_15 
REMARK    3  A    between atoms: C_6  and  C_32 
REMARK    4  A    between atoms: C_20  and  O_33 
ROOT
HETATM    1  C   UNL     1       4.872 -12.341 -10.284  1.00  0.00     0.069 C 
HETATM    2  C   UNL     1       8.860 -15.456 -10.535  1.00  0.00     0.010 C 
HETATM    3  C   UNL     1       6.108 -13.568 -11.987  1.00  0.00     0.026 C 
HETATM    4 CL   UNL     1       8.137 -13.453  -7.259  1.00  0.00    -0.083 Cl
HETATM    5  C   UNL     1       5.112 -12.653 -11.636  1.00  0.00    -0.002 C 
HETATM    6  O   UNL     1       5.339 -12.866  -8.034  1.00  0.00    -0.287 OA
HETATM    7  C   UNL     1       9.121 -14.557  -9.498  1.00  0.00    -0.030 C 
HETATM    8  C   UNL     1       7.680 -15.321 -11.270  1.00  0.00     0.013 C 
HETATM    9  C   UNL     1       8.023 -13.890  -8.919  1.00  0.00     0.055 C 
HETATM   10  C   UNL     1       5.672 -12.927  -9.285  1.00  0.00     0.185 C 
HETATM   11  C   UNL     1       6.855 -13.701  -9.684  1.00  0.00     0.046 C 
HETATM   12  C   UNL     1       6.864 -14.220 -11.004  1.00  0.00    -0.019 C 
ENDROOT
BRANCH   7  13
HETATM   13  C   UNL     1      10.518 -14.324  -8.976  1.00  0.00     0.097 C 
BRANCH  13  14
HETATM   14  C   UNL     1      11.462 -13.542  -9.858  1.00  0.00     0.014 C 
HETATM   15  N   UNL     1      11.953 -13.884 -11.072  1.00  0.00    -0.359 N 
HETATM   16  C   UNL     1      12.045 -12.712 -11.775  1.00  0.00     0.042 C 
ATOM     17  HN  UNL     1      12.202 -14.819 -11.395  1.00  0.00     0.166 HD
HETATM   18  C   UNL     1      12.056 -11.676 -10.868  1.00  0.00    -0.008 C 
HETATM   19  C   UNL     1      11.792 -12.536 -13.140  1.00  0.00     0.030 C 
HETATM   20  C   UNL     1      12.393 -10.370 -11.172  1.00  0.00     0.014 C 
HETATM   21  C   UNL     1      11.756 -12.220  -9.647  1.00  0.00     0.039 C 
HETATM   22  C   UNL     1      12.735  -9.734 -12.331  1.00  0.00     0.001 C 
HETATM   23  C   UNL     1      12.502 -10.210 -13.635  1.00  0.00     0.000 C 
HETATM   24  C   UNL     1      11.967 -11.436 -13.932  1.00  0.00     0.002 C 
ENDBRANCH  13  14
ENDBRANCH   7  13
BRANCH   5  25
HETATM   25  C   UNL     1       4.359 -12.096 -12.757  1.00  0.00     0.078 C 
HETATM   26  N   UNL     1       5.002 -11.672 -13.881  1.00  0.00    -0.349 N 
HETATM   27  C   UNL     1       4.565 -12.230 -15.035  1.00  0.00     0.180 C 
ATOM     28  HN  UNL     1       5.757 -10.986 -13.854  1.00  0.00     0.166 HD
HETATM   29  N   UNL     1       3.410 -12.903 -15.170  1.00  0.00    -0.359 N 
HETATM   30  C   UNL     1       2.522 -12.788 -14.155  1.00  0.00     0.127 C 
ATOM     31  HN  UNL     1       3.214 -13.471 -15.993  1.00  0.00     0.166 HD
HETATM   32  C   UNL     1       2.969 -12.378 -12.899  1.00  0.00     0.108 C 
BRANCH  32  33
HETATM   33  O   UNL     1       2.134 -12.325 -11.823  1.00  0.00    -0.357 OA
ATOM     34  HO  UNL     1       2.445 -12.550 -10.954  1.00  0.00     0.217 HD
ENDBRANCH  32  33
ENDBRANCH   5  25
TORSDOF 4
ENDMDL
MODEL 4
REMARK VINA RESULT:      -9.1      6.833     10.540
REMARK  4 active torsions:
REMARK  status: ('A' for Active; 'I' for Inactive)
REMARK    1  A    between atoms: C_3  and  C_11 
REMARK    2  A    between atoms: C_6  and  C_15 
REMARK    3  A    between atoms: C_6  and  C_32 
REMARK    4  A    between atoms: C_20  and  O_33 
ROOT
HETATM    1  C   UNL     1      11.193 -20.629 -14.373  1.00  0.00     0.069 C 
HETATM    2  C   UNL     1       9.324 -16.303 -16.236  1.00  0.00     0.010 C 
HETATM    3  C   UNL     1       9.305 -19.908 -15.733  1.00  0.00     0.026 C 
HETATM    4 CL   UNL     1      12.123 -16.221 -13.510  1.00  0.00    -0.083 Cl
HETATM    5  C   UNL     1       9.990 -20.914 -15.048  1.00  0.00    -0.002 C 
HETATM    6  O   UNL     1      12.890 -19.044 -13.969  1.00  0.00    -0.287 OA
HETATM    7  C   UNL     1       9.908 -15.989 -15.005  1.00  0.00    -0.030 C 
HETATM    8  C   UNL     1       9.327 -17.631 -16.668  1.00  0.00     0.013 C 
HETATM    9  C   UNL     1      10.875 -16.877 -14.494  1.00  0.00     0.055 C 
HETATM   10  C   UNL     1      11.683 -19.310 -14.358  1.00  0.00     0.185 C 
HETATM   11  C   UNL     1      10.837 -18.231 -14.885  1.00  0.00     0.046 C 
HETATM   12  C   UNL     1       9.816 -18.605 -15.796  1.00  0.00    -0.019 C 
ENDROOT
BRANCH   7  13
HETATM   13  C   UNL     1       9.556 -14.727 -14.254  1.00  0.00     0.097 C 
BRANCH  13  14
HETATM   14  C   UNL     1       8.098 -14.502 -13.931  1.00  0.00     0.014 C 
HETATM   15  N   UNL     1       7.297 -15.226 -13.115  1.00  0.00    -0.359 N 
HETATM   16  C   UNL     1       6.454 -14.320 -12.528  1.00  0.00     0.042 C 
ATOM     17  HN  UNL     1       7.318 -16.235 -12.968  1.00  0.00     0.166 HD
HETATM   18  C   UNL     1       6.443 -13.187 -13.309  1.00  0.00    -0.008 C 
HETATM   19  C   UNL     1       5.985 -14.350 -11.209  1.00  0.00     0.030 C 
HETATM   20  C   UNL     1       5.526 -12.159 -13.188  1.00  0.00     0.014 C 
HETATM   21  C   UNL     1       7.438 -13.340 -14.238  1.00  0.00     0.039 C 
HETATM   22  C   UNL     1       4.488 -11.922 -12.332  1.00  0.00     0.001 C 
HETATM   23  C   UNL     1       4.286 -12.546 -11.087  1.00  0.00     0.000 C 
HETATM   24  C   UNL     1       5.064 -13.556 -10.586  1.00  0.00     0.002 C 
ENDBRANCH  13  14
ENDBRANCH   7  13
BRANCH   5  25
HETATM   25  C   UNL     1       9.377 -22.239 -15.117  1.00  0.00     0.078 C 
HETATM   26  N   UNL     1       8.355 -22.573 -14.282  1.00  0.00    -0.349 N 
HETATM   27  C   UNL     1       7.232 -23.014 -14.899  1.00  0.00     0.180 C 
ATOM     28  HN  UNL     1       8.429 -22.498 -13.266  1.00  0.00     0.166 HD
HETATM   29  N   UNL     1       7.169 -23.404 -16.183  1.00  0.00    -0.359 N 
HETATM   30  C   UNL     1       8.350 -23.612 -16.810  1.00  0.00     0.127 C 
ATOM     31  HN  UNL     1       6.278 -23.537 -16.660  1.00  0.00     0.166 HD
HETATM   32  C   UNL     1       9.509 -23.029 -16.296  1.00  0.00     0.108 C 
BRANCH  32  33
HETATM   33  O   UNL     1      10.710 -23.138 -16.932  1.00  0.00    -0.357 OA
ATOM     34  HO  UNL     1      10.771 -23.038 -17.875  1.00  0.00     0.217 HD
ENDBRANCH  32  33
ENDBRANCH   5  25
TORSDOF 4
ENDMDL
MODEL 5
REMARK VINA RESULT:      -9.0      2.824      3.888
REMARK  4 active torsions:
REMARK  status: ('A' for Active; 'I' for Inactive)
REMARK    1  A    between atoms: C_3  and  C_11 
REMARK    2  A    between atoms: C_6  and  C_15 
REMARK    3  A    between atoms: C_6  and  C_32 
REMARK    4  A    between atoms: C_20  and  O_33 
ROOT
HETATM    1  C   UNL     1       9.455 -12.097  -7.387  1.00  0.00     0.069 C 
HETATM    2  C   UNL     1       9.422 -16.363 -10.121  1.00  0.00     0.010 C 
HETATM    3  C   UNL     1       8.301 -14.242  -7.384  1.00  0.00     0.026 C 
HETATM    4 CL   UNL     1      11.235 -13.177 -11.474  1.00  0.00    -0.083 Cl
HETATM    5  C   UNL     1       8.466 -12.955  -6.867  1.00  0.00    -0.002 C 
HETATM    6  O   UNL     1      11.322 -11.886  -8.810  1.00  0.00    -0.287 OA
HETATM    7  C   UNL     1       9.688 -15.319 -11.012  1.00  0.00    -0.030 C 
HETATM    8  C   UNL     1       9.195 -16.064  -8.776  1.00  0.00     0.013 C 
HETATM    9  C   UNL     1      10.195 -14.117 -10.479  1.00  0.00     0.055 C 
HETATM   10  C   UNL     1      10.252 -12.530  -8.462  1.00  0.00     0.185 C 
HETATM   11  C   UNL     1       9.912 -13.790  -9.138  1.00  0.00     0.046 C 
HETATM   12  C   UNL     1       9.136 -14.721  -8.402  1.00  0.00    -0.019 C 
ENDROOT
BRANCH   7  13
HETATM   13  C   UNL     1       9.484 -15.469 -12.501  1.00  0.00     0.097 C 
BRANCH  13  14
HETATM   14  C   UNL     1       8.187 -14.951 -13.074  1.00  0.00     0.014 C 
HETATM   15  N   UNL     1       6.924 -15.201 -12.654  1.00  0.00    -0.359 N 
HETATM   16  C   UNL     1       6.230 -14.039 -12.864  1.00  0.00     0.042 C 
ATOM     17  HN  UNL     1       6.566 -16.072 -12.264  1.00  0.00     0.166 HD
HETATM   18  C   UNL     1       6.923 -13.296 -13.793  1.00  0.00    -0.008 C 
HETATM   19  C   UNL     1       5.230 -13.505 -12.043  1.00  0.00     0.030 C 
HETATM   20  C   UNL     1       6.415 -12.190 -14.450  1.00  0.00     0.014 C 
HETATM   21  C   UNL     1       8.130 -13.918 -13.973  1.00  0.00     0.039 C 
HETATM   22  C   UNL     1       5.231 -11.513 -14.373  1.00  0.00     0.001 C 
HETATM   23  C   UNL     1       4.305 -11.586 -13.315  1.00  0.00     0.000 C 
HETATM   24  C   UNL     1       4.420 -12.422 -12.236  1.00  0.00     0.002 C 
ENDBRANCH  13  14
ENDBRANCH   7  13
BRANCH   5  25
HETATM   25  C   UNL     1       7.570 -12.609  -5.766  1.00  0.00     0.078 C 
HETATM   26  N   UNL     1       6.500 -11.793  -5.975  1.00  0.00    -0.349 N 
HETATM   27  C   UNL     1       5.306 -12.306  -5.592  1.00  0.00     0.180 C 
ATOM     28  HN  UNL     1       6.590 -10.864  -6.389  1.00  0.00     0.166 HD
HETATM   29  N   UNL     1       5.154 -13.375  -4.793  1.00  0.00    -0.359 N 
HETATM   30  C   UNL     1       6.257 -13.796  -4.130  1.00  0.00     0.127 C 
ATOM     31  HN  UNL     1       4.255 -13.845  -4.691  1.00  0.00     0.166 HD
HETATM   32  C   UNL     1       7.518 -13.426  -4.599  1.00  0.00     0.108 C 
BRANCH  32  33
HETATM   33  O   UNL     1       8.663 -13.888  -4.020  1.00  0.00    -0.357 OA
ATOM     34  HO  UNL     1       9.188 -14.555  -4.446  1.00  0.00     0.217 HD
ENDBRANCH  32  33
ENDBRANCH   5  25
TORSDOF 4
ENDMDL
MODEL 6
REMARK VINA RESULT:      -8.9      4.306      5.587
REMARK  4 active torsions:
REMARK  status: ('A' for Active; 'I' for Inactive)
REMARK    1  A    between atoms: C_3  and  C_11 
REMARK    2  A    between atoms: C_6  and  C_15 
REMARK    3  A    between atoms: C_6  and  C_32 
REMARK    4  A    between atoms: C_20  and  O_33 
ROOT
HETATM    1  C   UNL     1      11.984 -13.379  -9.527  1.00  0.00     0.069 C 
HETATM    2  C   UNL     1       9.379 -15.871 -13.087  1.00  0.00     0.010 C 
HETATM    3  C   UNL     1      10.458 -15.272  -9.663  1.00  0.00     0.026 C 
HETATM    4 CL   UNL     1      11.034 -12.429 -13.913  1.00  0.00    -0.083 Cl
HETATM    5  C   UNL     1      11.212 -14.377  -8.900  1.00  0.00    -0.002 C 
HETATM    6  O   UNL     1      12.829 -12.534 -11.559  1.00  0.00    -0.287 OA
HETATM    7  C   UNL     1       9.425 -14.533 -13.489  1.00  0.00    -0.030 C 
HETATM    8  C   UNL     1       9.968 -16.235 -11.874  1.00  0.00     0.013 C 
HETATM    9  C   UNL     1      10.441 -13.721 -12.946  1.00  0.00     0.055 C 
HETATM   10  C   UNL     1      11.961 -13.262 -10.929  1.00  0.00     0.185 C 
HETATM   11  C   UNL     1      10.991 -14.058 -11.693  1.00  0.00     0.046 C 
HETATM   12  C   UNL     1      10.482 -15.222 -11.063  1.00  0.00    -0.019 C 
ENDROOT
BRANCH   7  13
HETATM   13  C   UNL     1       8.453 -13.969 -14.497  1.00  0.00     0.097 C 
BRANCH  13  14
HETATM   14  C   UNL     1       7.271 -13.198 -13.959  1.00  0.00     0.014 C 
HETATM   15  N   UNL     1       6.432 -12.373 -14.627  1.00  0.00    -0.359 N 
HETATM   16  C   UNL     1       5.202 -12.555 -14.054  1.00  0.00     0.042 C 
ATOM     17  HN  UNL     1       6.668 -11.746 -15.397  1.00  0.00     0.166 HD
HETATM   18  C   UNL     1       5.396 -13.104 -12.806  1.00  0.00    -0.008 C 
HETATM   19  C   UNL     1       3.967 -12.558 -14.712  1.00  0.00     0.030 C 
HETATM   20  C   UNL     1       4.423 -13.194 -11.828  1.00  0.00     0.014 C 
HETATM   21  C   UNL     1       6.721 -13.444 -12.728  1.00  0.00     0.039 C 
HETATM   22  C   UNL     1       3.098 -12.863 -11.788  1.00  0.00     0.001 C 
HETATM   23  C   UNL     1       2.270 -12.630 -12.902  1.00  0.00     0.000 C 
HETATM   24  C   UNL     1       2.700 -12.621 -14.203  1.00  0.00     0.002 C 
ENDBRANCH  13  14
ENDBRANCH   7  13
BRANCH   5  25
HETATM   25  C   UNL     1      11.145 -14.582  -7.456  1.00  0.00     0.078 C 
HETATM   26  N   UNL     1      10.181 -13.969  -6.714  1.00  0.00    -0.349 N 
HETATM   27  C   UNL     1       9.425 -14.801  -5.958  1.00  0.00     0.180 C 
ATOM     28  HN  UNL     1      10.039 -12.958  -6.726  1.00  0.00     0.166 HD
HETATM   29  N   UNL     1       9.739 -16.077  -5.678  1.00  0.00    -0.359 N 
HETATM   30  C   UNL     1      11.007 -16.462  -5.954  1.00  0.00     0.127 C 
ATOM     31  HN  UNL     1       9.057 -16.722  -5.279  1.00  0.00     0.166 HD
HETATM   32  C   UNL     1      11.763 -15.722  -6.864  1.00  0.00     0.108 C 
BRANCH  32  33
HETATM   33  O   UNL     1      13.014 -16.110  -7.240  1.00  0.00    -0.357 OA
ATOM     34  HO  UNL     1      13.752 -15.517  -7.159  1.00  0.00     0.217 HD
ENDBRANCH  32  33
ENDBRANCH   5  25
TORSDOF 4
ENDMDL
MODEL 7
REMARK VINA RESULT:      -8.9      4.670      8.040
REMARK  4 active torsions:
REMARK  status: ('A' for Active; 'I' for Inactive)
REMARK    1  A    between atoms: C_3  and  C_11 
REMARK    2  A    between atoms: C_6  and  C_15 
REMARK    3  A    between atoms: C_6  and  C_32 
REMARK    4  A    between atoms: C_20  and  O_33 
ROOT
HETATM    1  C   UNL     1       6.367 -13.667 -12.042  1.00  0.00     0.069 C 
HETATM    2  C   UNL     1       8.521 -16.879 -15.316  1.00  0.00     0.010 C 
HETATM    3  C   UNL     1       5.982 -14.475 -14.308  1.00  0.00     0.026 C 
HETATM    4 CL   UNL     1      10.434 -15.788 -12.088  1.00  0.00    -0.083 Cl
HETATM    5  C   UNL     1       5.651 -13.619 -13.255  1.00  0.00    -0.002 C 
HETATM    6  O   UNL     1       7.976 -14.812 -10.755  1.00  0.00    -0.287 OA
HETATM    7  C   UNL     1       9.559 -16.315 -14.568  1.00  0.00    -0.030 C 
HETATM    8  C   UNL     1       7.210 -16.465 -15.075  1.00  0.00     0.013 C 
HETATM    9  C   UNL     1       9.234 -15.752 -13.318  1.00  0.00     0.055 C 
HETATM   10  C   UNL     1       7.450 -14.557 -11.912  1.00  0.00     0.185 C 
HETATM   11  C   UNL     1       7.924 -15.279 -13.100  1.00  0.00     0.046 C 
HETATM   12  C   UNL     1       7.005 -15.422 -14.171  1.00  0.00    -0.019 C 
ENDROOT
BRANCH   7  13
HETATM   13  C   UNL     1      10.990 -16.334 -15.049  1.00  0.00     0.097 C 
BRANCH  13  14
HETATM   14  C   UNL     1      11.663 -14.999 -15.261  1.00  0.00     0.014 C 
HETATM   15  N   UNL     1      11.090 -13.779 -15.380  1.00  0.00    -0.359 N 
HETATM   16  C   UNL     1      11.956 -12.905 -14.780  1.00  0.00     0.042 C 
ATOM     17  HN  UNL     1      10.199 -13.558 -15.825  1.00  0.00     0.166 HD
HETATM   18  C   UNL     1      13.193 -13.506 -14.728  1.00  0.00    -0.008 C 
HETATM   19  C   UNL     1      11.613 -11.784 -14.015  1.00  0.00     0.030 C 
HETATM   20  C   UNL     1      14.373 -12.850 -14.430  1.00  0.00     0.014 C 
HETATM   21  C   UNL     1      13.012 -14.811 -15.102  1.00  0.00     0.039 C 
HETATM   22  C   UNL     1      14.670 -11.563 -14.080  1.00  0.00     0.001 C 
HETATM   23  C   UNL     1      13.757 -10.608 -13.594  1.00  0.00     0.000 C 
HETATM   24  C   UNL     1      12.407 -10.809 -13.481  1.00  0.00     0.002 C 
ENDBRANCH  13  14
ENDBRANCH   7  13
BRANCH   5  25
HETATM   25  C   UNL     1       4.523 -12.727 -13.511  1.00  0.00     0.078 C 
HETATM   26  N   UNL     1       4.093 -12.503 -14.784  1.00  0.00    -0.349 N 
HETATM   27  C   UNL     1       2.779 -12.754 -14.996  1.00  0.00     0.180 C 
ATOM     28  HN  UNL     1       4.714 -12.172 -15.523  1.00  0.00     0.166 HD
HETATM   29  N   UNL     1       1.863 -12.909 -14.025  1.00  0.00    -0.359 N 
HETATM   30  C   UNL     1       2.235 -12.534 -12.779  1.00  0.00     0.127 C 
ATOM     31  HN  UNL     1       0.937 -13.289 -14.217  1.00  0.00     0.166 HD
HETATM   32  C   UNL     1       3.593 -12.430 -12.473  1.00  0.00     0.108 C 
BRANCH  32  33
HETATM   33  O   UNL     1       4.024 -12.137 -11.213  1.00  0.00    -0.357 OA
ATOM     34  HO  UNL     1       3.534 -11.540 -10.659  1.00  0.00     0.217 HD
ENDBRANCH  32  33
ENDBRANCH   5  25
TORSDOF 4
ENDMDL
MODEL 8
REMARK VINA RESULT:      -8.8      5.068      8.668
REMARK  4 active torsions:
REMARK  status: ('A' for Active; 'I' for Inactive)
REMARK    1  A    between atoms: C_3  and  C_11 
REMARK    2  A    between atoms: C_6  and  C_15 
REMARK    3  A    between atoms: C_6  and  C_32 
REMARK    4  A    between atoms: C_20  and  O_33 
ROOT
HETATM    1  C   UNL     1      10.867 -17.278 -13.296  1.00  0.00     0.069 C 
HETATM    2  C   UNL     1       8.266 -12.997 -14.058  1.00  0.00     0.010 C 
HETATM    3  C   UNL     1      10.247 -15.842 -15.164  1.00  0.00     0.026 C 
HETATM    4 CL   UNL     1       8.041 -14.847 -10.623  1.00  0.00    -0.083 Cl
HETATM    5  C   UNL     1      10.832 -17.015 -14.680  1.00  0.00    -0.002 C 
HETATM    6  O   UNL     1      10.488 -16.438 -11.127  1.00  0.00    -0.287 OA
HETATM    7  C   UNL     1       7.644 -13.659 -12.995  1.00  0.00    -0.030 C 
HETATM    8  C   UNL     1       9.361 -13.597 -14.682  1.00  0.00     0.013 C 
HETATM    9  C   UNL     1       8.399 -14.617 -12.289  1.00  0.00     0.055 C 
HETATM   10  C   UNL     1      10.271 -16.369 -12.403  1.00  0.00     0.185 C 
HETATM   11  C   UNL     1       9.465 -15.265 -12.943  1.00  0.00     0.046 C 
HETATM   12  C   UNL     1       9.717 -14.887 -14.286  1.00  0.00    -0.019 C 
ENDROOT
BRANCH   7  13
HETATM   13  C   UNL     1       6.227 -13.344 -12.579  1.00  0.00     0.097 C 
BRANCH  13  14
HETATM   14  C   UNL     1       5.251 -12.982 -13.673  1.00  0.00     0.014 C 
HETATM   15  N   UNL     1       5.387 -13.153 -15.009  1.00  0.00    -0.359 N 
HETATM   16  C   UNL     1       4.132 -13.449 -15.471  1.00  0.00     0.042 C 
ATOM     17  HN  UNL     1       6.244 -13.078 -15.556  1.00  0.00     0.166 HD
HETATM   18  C   UNL     1       3.223 -13.011 -14.534  1.00  0.00    -0.008 C 
HETATM   19  C   UNL     1       3.810 -14.352 -16.491  1.00  0.00     0.030 C 
HETATM   20  C   UNL     1       1.863 -12.898 -14.752  1.00  0.00     0.014 C 
HETATM   21  C   UNL     1       3.944 -12.651 -13.426  1.00  0.00     0.039 C 
HETATM   22  C   UNL     1       1.054 -13.193 -15.813  1.00  0.00     0.001 C 
HETATM   23  C   UNL     1       1.382 -14.034 -16.893  1.00  0.00     0.000 C 
HETATM   24  C   UNL     1       2.606 -14.618 -17.081  1.00  0.00     0.002 C 
ENDBRANCH  13  14
ENDBRANCH   7  13
BRANCH   5  25
HETATM   25  C   UNL     1      11.402 -17.891 -15.700  1.00  0.00     0.078 C 
HETATM   26  N   UNL     1      10.834 -17.975 -16.936  1.00  0.00    -0.349 N 
HETATM   27  C   UNL     1      11.674 -17.725 -17.969  1.00  0.00     0.180 C 
ATOM     28  HN  UNL     1       9.850 -18.209 -17.073  1.00  0.00     0.166 HD
HETATM   29  N   UNL     1      13.013 -17.698 -17.876  1.00  0.00    -0.359 N 
HETATM   30  C   UNL     1      13.551 -18.207 -16.743  1.00  0.00     0.127 C 
ATOM     31  HN  UNL     1      13.595 -17.314 -18.621  1.00  0.00     0.166 HD
HETATM   32  C   UNL     1      12.757 -18.321 -15.602  1.00  0.00     0.108 C 
BRANCH  32  33
HETATM   33  O   UNL     1      13.268 -18.750 -14.413  1.00  0.00    -0.357 OA
ATOM     34  HO  UNL     1      12.931 -18.414 -13.590  1.00  0.00     0.217 HD
ENDBRANCH  32  33
ENDBRANCH   5  25
TORSDOF 4
ENDMDL
MODEL 9
REMARK VINA RESULT:      -8.8      2.856      3.865
REMARK  4 active torsions:
REMARK  status: ('A' for Active; 'I' for Inactive)
REMARK    1  A    between atoms: C_3  and  C_11 
REMARK    2  A    between atoms: C_6  and  C_15 
REMARK    3  A    between atoms: C_6  and  C_32 
REMARK    4  A    between atoms: C_20  and  O_33 
ROOT
HETATM    1  C   UNL     1       9.698 -10.483  -7.557  1.00  0.00     0.069 C 
HETATM    2  C   UNL     1       9.068 -15.375  -8.719  1.00  0.00     0.010 C 
HETATM    3  C   UNL     1       8.183 -12.302  -6.981  1.00  0.00     0.026 C 
HETATM    4 CL   UNL     1      11.494 -13.152 -10.827  1.00  0.00    -0.083 Cl
HETATM    5  C   UNL     1       8.544 -10.954  -6.901  1.00  0.00    -0.002 C 
HETATM    6  O   UNL     1      11.653 -11.052  -8.744  1.00  0.00    -0.287 OA
HETATM    7  C   UNL     1       9.567 -14.753  -9.867  1.00  0.00    -0.030 C 
HETATM    8  C   UNL     1       8.819 -14.602  -7.583  1.00  0.00     0.013 C 
HETATM    9  C   UNL     1      10.247 -13.529  -9.704  1.00  0.00     0.055 C 
HETATM   10  C   UNL     1      10.467 -11.372  -8.330  1.00  0.00     0.185 C 
HETATM   11  C   UNL     1       9.949 -12.722  -8.588  1.00  0.00     0.046 C 
HETATM   12  C   UNL     1       8.978 -13.219  -7.681  1.00  0.00    -0.019 C 
ENDROOT
BRANCH   7  13
HETATM   13  C   UNL     1       9.427 -15.374 -11.236  1.00  0.00     0.097 C 
BRANCH  13  14
HETATM   14  C   UNL     1       8.224 -14.970 -12.056  1.00  0.00     0.014 C 
HETATM   15  N   UNL     1       6.914 -15.110 -11.749  1.00  0.00    -0.359 N 
HETATM   16  C   UNL     1       6.292 -14.009 -12.276  1.00  0.00     0.042 C 
ATOM     17  HN  UNL     1       6.480 -15.876 -11.234  1.00  0.00     0.166 HD
HETATM   18  C   UNL     1       7.115 -13.486 -13.247  1.00  0.00    -0.008 C 
HETATM   19  C   UNL     1       5.225 -13.303 -11.709  1.00  0.00     0.030 C 
HETATM   20  C   UNL     1       6.729 -12.535 -14.174  1.00  0.00     0.014 C 
HETATM   21  C   UNL     1       8.310 -14.147 -13.149  1.00  0.00     0.039 C 
HETATM   22  C   UNL     1       5.570 -11.842 -14.382  1.00  0.00     0.001 C 
HETATM   23  C   UNL     1       4.526 -11.681 -13.451  1.00  0.00     0.000 C 
HETATM   24  C   UNL     1       4.484 -12.274 -12.217  1.00  0.00     0.002 C 
ENDBRANCH  13  14
ENDBRANCH   7  13
BRANCH   5  25
HETATM   25  C   UNL     1       7.661 -10.123  -6.086  1.00  0.00     0.078 C 
HETATM   26  N   UNL     1       8.089  -9.619  -4.895  1.00  0.00    -0.349 N 
HETATM   27  C   UNL     1       7.983  -8.275  -4.771  1.00  0.00     0.180 C 
ATOM     28  HN  UNL     1       8.462 -10.211  -4.152  1.00  0.00     0.166 HD
HETATM   29  N   UNL     1       7.249  -7.488  -5.576  1.00  0.00    -0.359 N 
HETATM   30  C   UNL     1       6.367  -8.113  -6.391  1.00  0.00     0.127 C 
ATOM     31  HN  UNL     1       7.352  -6.474  -5.574  1.00  0.00     0.166 HD
HETATM   32  C   UNL     1       6.544  -9.466  -6.680  1.00  0.00     0.108 C 
BRANCH  32  33
HETATM   33  O   UNL     1       5.734 -10.124  -7.558  1.00  0.00    -0.357 OA
ATOM     34  HO  UNL     1       4.826 -10.302  -7.342  1.00  0.00     0.217 HD
ENDBRANCH  32  33
ENDBRANCH   5  25
TORSDOF 4
ENDMDL
