REMARK  1 active torsions:
REMARK  status: ('A' for Active; 'I' for Inactive)
REMARK    1  A    between atoms: C_21  and  C_23 
ROOT
HETATM    1  C   UNL     1      45.291 -20.299  29.720  1.00  0.00     0.082 C 
HETATM    2  C   UNL     1      39.264 -18.473  29.851  1.00  0.00     0.013 C 
HETATM    3  C   UNL     1      41.346 -20.361  27.627  1.00  0.00    -0.044 C 
HETATM    4  C   UNL     1      44.306 -20.999  30.444  1.00  0.00    -0.013 C 
HETATM    5  C   UNL     1      43.600 -20.474  28.322  1.00  0.00     0.063 C 
HETATM    6  C   UNL     1      39.192 -19.536  27.661  1.00  0.00    -0.043 C 
HETATM    7  C   UNL     1      42.731 -20.295  27.218  1.00  0.00     0.041 C 
HETATM    8  C   UNL     1      38.059 -18.807  27.357  1.00  0.00     0.015 C 
HETATM    9  C   UNL     1      45.615 -21.817  32.370  1.00  0.00     0.001 C 
HETATM   10  C   UNL     1      41.842 -20.630  30.091  1.00  0.00     0.056 C 
HETATM   11  C   UNL     1      38.275 -17.592  29.414  1.00  0.00     0.008 C 
HETATM   12  C   UNL     1      47.057 -20.031  31.399  1.00  0.00     0.003 C 
HETATM   13  O   UNL     1      44.924 -20.144  28.399  1.00  0.00    -0.314 OA
HETATM   14  C   UNL     1      44.468 -21.759  31.599  1.00  0.00     0.011 C 
HETATM   15  C   UNL     1      37.816 -17.650  28.095  1.00  0.00    -0.053 C 
HETATM   16  C   UNL     1      40.985 -20.158  28.970  1.00  0.00    -0.040 C 
HETATM   17  C   UNL     1      40.133 -20.260  26.750  1.00  0.00     0.078 C 
HETATM   18  C   UNL     1      46.785 -21.118  32.197  1.00  0.00     0.000 C 
HETATM   19  C   UNL     1      43.131 -21.238  29.530  1.00  0.00     0.083 C 
HETATM   20  C   UNL     1      46.405 -19.621  30.259  1.00  0.00     0.038 C 
HETATM   21  C   UNL     1      39.737 -19.431  28.967  1.00  0.00    -0.023 C 
ENDROOT
BRANCH  15  22
HETATM   22  C   UNL     1      37.093 -16.514  27.428  1.00  0.00     0.027 C 
HETATM   23  C   UNL     1      37.716 -15.624  26.353  1.00  0.00    -0.009 C 
HETATM   24  C   UNL     1      39.214 -15.843  26.118  1.00  0.00     0.010 C 
HETATM   25  C   UNL     1      37.397 -14.203  26.885  1.00  0.00     0.010 C 
HETATM   26  C   UNL     1      35.971 -14.548  27.388  1.00  0.00    -0.005 C 
HETATM   27  C   UNL     1      35.180 -13.428  28.075  1.00  0.00    -0.010 C 
HETATM   28  C   UNL     1      36.385 -15.596  28.430  1.00  0.00    -0.001 C 
HETATM   29  C   UNL     1      34.444 -12.685  26.948  1.00  0.00     0.011 C 
HETATM   30  C   UNL     1      34.042 -13.944  29.004  1.00  0.00    -0.014 C 
HETATM   31  C   UNL     1      34.375 -15.177  29.838  1.00  0.00     0.005 C 
HETATM   32  C   UNL     1      33.729 -12.777  29.941  1.00  0.00     0.010 C 
HETATM   33  C   UNL     1      35.141 -16.241  29.052  1.00  0.00     0.006 C 
ENDBRANCH  15  22
TORSDOF 1
