REMARK  4 active torsions:
REMARK  status: ('A' for Active; 'I' for Inactive)
REMARK    1  A    between atoms: C_4  and  O_11 
REMARK       I    between atoms: C_10  and  N_33 
REMARK    2  A    between atoms: C_10  and  C_36 
REMARK    3  A    between atoms: N_28  and  N_37 
REMARK    4  A    between atoms: C_30  and  C_36 
ROOT
HETATM    1  C   UNL     1      38.123 -19.711  25.422  1.00  0.00     0.010 C 
HETATM    2  C   UNL     1      35.344 -14.243  28.665  1.00  0.00     0.076 C 
HETATM    3  C   UNL     1      33.960 -15.622  30.042  1.00  0.00     0.004 C 
HETATM    4  C   UNL     1      38.169 -17.269  28.485  1.00  0.00     0.083 C 
HETATM    5  C   UNL     1      39.239 -18.994  27.391  1.00  0.00     0.095 C 
HETATM    6  C   UNL     1      39.704 -21.177  26.496  1.00  0.00     0.017 C 
HETATM    7  C   UNL     1      38.734 -20.954  25.526  1.00  0.00     0.002 C 
HETATM    8  C   UNL     1      34.220 -14.387  29.464  1.00  0.00     0.037 C 
HETATM    9  C   UNL     1      37.844 -16.590  27.280  1.00  0.00    -0.019 C 
HETATM   10  C   UNL     1      37.103 -15.414  27.379  1.00  0.00     0.025 C 
HETATM   11  C   UNL     1      36.196 -15.329  28.448  1.00  0.00     0.008 C 
HETATM   12  C   UNL     1      34.883 -16.660  29.936  1.00  0.00     0.012 C 
HETATM   13  O   UNL     1      39.119 -18.255  28.551  1.00  0.00    -0.309 OA
HETATM   14  C   UNL     1      37.245 -17.239  29.533  1.00  0.00     0.050 C 
HETATM   15  C   UNL     1      36.118 -16.422  29.343  1.00  0.00    -0.021 C 
HETATM   16  C   UNL     1      40.022 -20.151  27.388  1.00  0.00     0.032 C 
HETATM   17  C   UNL     1      38.043 -17.272  25.962  1.00  0.00     0.083 C 
HETATM   18  C   UNL     1      38.512 -18.666  26.244  1.00  0.00    -0.019 C 
ENDROOT
BRANCH  16  19
HETATM   19  C   UNL     1      41.120 -20.310  28.366  1.00  0.00     0.128 C 
HETATM   20  N   UNL     1      42.368 -20.046  28.010  1.00  0.00    -0.295 N 
ATOM     21  HN  UNL     1      42.387 -19.798  27.021  1.00  0.00     0.187 HD
BRANCH  19  22
HETATM   22  C   UNL     1      40.654 -20.801  29.714  1.00  0.00     0.268 C 
HETATM   23  O   UNL     1      40.177 -20.015  30.529  1.00  0.00    -0.266 OA
HETATM   24  N   UNL     1      40.773 -22.088  29.973  1.00  0.00    -0.365 N 
ATOM     25  HN2 UNL     1      40.458 -22.420  30.885  1.00  0.00     0.159 HD
ATOM     26  HN1 UNL     1      41.169 -22.741  29.296  1.00  0.00     0.159 HD
ENDBRANCH  19  22
BRANCH  20  27
HETATM   27  N   UNL     1      43.512 -19.996  28.459  1.00  0.00    -0.308 N 
HETATM   28  C   UNL     1      44.250 -20.246  29.476  1.00  0.00     0.012 C 
HETATM   29  C   UNL     1      45.078 -19.212  30.199  1.00  0.00     0.086 C 
HETATM   30  C   UNL     1      44.548 -21.666  29.927  1.00  0.00     0.057 C 
HETATM   31  C   UNL     1      46.020 -19.909  31.206  1.00  0.00     0.126 C 
HETATM   32  C   UNL     1      45.135 -20.714  32.163  1.00  0.00     0.033 C 
HETATM   33  O   UNL     1      46.806 -20.841  30.420  1.00  0.00    -0.385 OA
HETATM   34  C   UNL     1      44.269 -21.723  31.422  1.00  0.00     0.015 C 
HETATM   35  C   UNL     1      46.063 -21.838  29.705  1.00  0.00     0.178 C 
ATOM     36  HN  UNL     1      44.110 -19.598  27.735  1.00  0.00     0.186 HD
ENDBRANCH  20  27
ENDBRANCH  16  19
BRANCH   2  37
HETATM   37  O   UNL     1      35.639 -13.030  28.147  1.00  0.00    -0.360 OA
ATOM     38  HO  UNL     1      36.409 -12.931  27.600  1.00  0.00     0.217 HD
ENDBRANCH   2  37
TORSDOF 4
