MODEL 1
REMARK VINA RESULT:      -8.9      0.000      0.000
REMARK  7 active torsions:
REMARK  status: ('A' for Active; 'I' for Inactive)
REMARK    1  A    between atoms: C_3  and  C_8 
REMARK    2  A    between atoms: C_3  and  C_15 
REMARK    3  A    between atoms: C_5  and  C_18 
REMARK    4  A    between atoms: P_6  and  C_16 
REMARK    5  A    between atoms: P_6  and  O_21 
REMARK    6  A    between atoms: C_11  and  O_21 
REMARK    7  A    between atoms: O_24  and  C_31 
ROOT
HETATM    1  C   UNL     1      39.553 -18.027  27.724  1.00  0.00     0.030 C 
HETATM    2  C   UNL     1      39.006 -17.132  26.814  1.00  0.00    -0.052 C 
HETATM    3  C   UNL     1      38.439 -17.643  25.646  1.00  0.00     0.022 C 
HETATM    4  C   UNL     1      39.194 -19.369  27.667  1.00  0.00     0.093 C 
HETATM    5  C   UNL     1      37.932 -18.936  25.670  1.00  0.00     0.000 C 
HETATM    6  C   UNL     1      38.226 -19.767  26.750  1.00  0.00     0.095 C 
ENDROOT
BRANCH   4   7
HETATM    7  P   UNL     1      40.014 -20.569  28.652  1.00  0.00     0.288 P 
HETATM    8  O   UNL     1      40.515 -19.909  29.872  1.00  0.00    -0.643 OA
HETATM    9  O   UNL     1      39.103 -21.718  28.818  1.00  0.00    -0.643 OA
BRANCH   7  10
HETATM   10  O   UNL     1      41.195 -21.022  27.709  1.00  0.00    -0.295 OA
BRANCH  10  11
HETATM   11  C   UNL     1      42.416 -21.656  28.026  1.00  0.00     0.211 A 
HETATM   12  C   UNL     1      42.437 -22.210  29.452  1.00  0.00     0.080 A 
HETATM   13  C   UNL     1      43.543 -21.465  30.146  1.00  0.00    -0.041 A 
HETATM   14  C   UNL     1      44.031 -21.661  31.429  1.00  0.00     0.016 C 
HETATM   15  C   UNL     1      44.234 -20.648  29.261  1.00  0.00     0.021 A 
HETATM   16  C   UNL     1      45.371 -21.353  31.670  1.00  0.00    -0.040 C 
HETATM   17  C   UNL     1      46.062 -20.547  30.759  1.00  0.00     0.041 C 
HETATM   18  C   UNL     1      46.121 -21.887  32.867  1.00  0.00     0.050 C 
HETATM   19 CL   UNL     1      47.800 -20.460  30.883  1.00  0.00    -0.084 Cl
HETATM   20  C   UNL     1      45.473 -20.113  29.579  1.00  0.00     0.040 C 
HETATM   21  C   UNL     1      43.594 -20.715  27.937  1.00  0.00     0.189 A 
HETATM   22  O   UNL     1      43.924 -20.129  26.911  1.00  0.00    -0.289 OA
ENDBRANCH  10  11
ENDBRANCH   7  10
ENDBRANCH   4   7
BRANCH   6  23
HETATM   23  O   UNL     1      37.534 -20.918  26.897  1.00  0.00    -0.359 OA
ATOM     24  HO  UNL     1      37.578 -21.432  27.695  1.00  0.00     0.217 HD
ENDBRANCH   6  23
BRANCH   2  25
HETATM   25  C   UNL     1      39.026 -15.647  27.065  1.00  0.00     0.077 C 
BRANCH  25  26
HETATM   26  C   UNL     1      37.759 -15.196  27.741  1.00  0.00    -0.054 A 
HETATM   27  C   UNL     1      37.183 -13.985  27.406  1.00  0.00     0.007 A 
HETATM   28  C   UNL     1      35.946 -13.649  27.907  1.00  0.00     0.001 A 
HETATM   29  C   UNL     1      35.271 -14.520  28.750  1.00  0.00     0.000 A 
HETATM   30  C   UNL     1      35.895 -15.674  29.169  1.00  0.00     0.001 A 
HETATM   31  C   UNL     1      37.125 -16.025  28.645  1.00  0.00     0.007 A 
ENDBRANCH  25  26
ENDBRANCH   2  25
BRANCH   5  32
HETATM   32  C   UNL     1      37.107 -19.513  24.547  1.00  0.00    -0.075 C 
HETATM   33  C   UNL     1      37.760 -20.537  23.643  1.00  0.00     0.044 C 
HETATM   34  C   UNL     1      36.135 -18.535  23.914  1.00  0.00     0.044 C 
ENDBRANCH   5  32
TORSDOF 7
ENDMDL
MODEL 2
REMARK VINA RESULT:      -8.7      3.222      5.603
REMARK  7 active torsions:
REMARK  status: ('A' for Active; 'I' for Inactive)
REMARK    1  A    between atoms: C_3  and  C_8 
REMARK    2  A    between atoms: C_3  and  C_15 
REMARK    3  A    between atoms: C_5  and  C_18 
REMARK    4  A    between atoms: P_6  and  C_16 
REMARK    5  A    between atoms: P_6  and  O_21 
REMARK    6  A    between atoms: C_11  and  O_21 
REMARK    7  A    between atoms: O_24  and  C_31 
ROOT
HETATM    1  C   UNL     1      39.649 -17.078  26.833  1.00  0.00     0.030 C 
HETATM    2  C   UNL     1      39.260 -15.945  26.131  1.00  0.00    -0.052 C 
HETATM    3  C   UNL     1      38.070 -15.317  26.501  1.00  0.00     0.022 C 
HETATM    4  C   UNL     1      39.102 -17.332  28.085  1.00  0.00     0.093 C 
HETATM    5  C   UNL     1      37.634 -15.451  27.813  1.00  0.00     0.000 C 
HETATM    6  C   UNL     1      38.237 -16.396  28.642  1.00  0.00     0.095 C 
ENDROOT
BRANCH   4   7
HETATM    7  P   UNL     1      39.401 -18.851  28.913  1.00  0.00     0.288 P 
HETATM    8  O   UNL     1      39.436 -18.593  30.364  1.00  0.00    -0.643 OA
HETATM    9  O   UNL     1      38.424 -19.839  28.415  1.00  0.00    -0.643 OA
BRANCH   7  10
HETATM   10  O   UNL     1      40.821 -19.257  28.360  1.00  0.00    -0.295 OA
BRANCH  10  11
HETATM   11  C   UNL     1      41.394 -20.536  28.183  1.00  0.00     0.211 A 
HETATM   12  C   UNL     1      40.837 -21.264  26.958  1.00  0.00     0.080 A 
HETATM   13  C   UNL     1      40.171 -22.496  27.503  1.00  0.00    -0.041 A 
HETATM   14  C   UNL     1      39.593 -23.539  26.794  1.00  0.00     0.016 C 
HETATM   15  C   UNL     1      40.387 -22.625  28.869  1.00  0.00     0.021 A 
HETATM   16  C   UNL     1      39.597 -24.806  27.381  1.00  0.00    -0.040 C 
HETATM   17  C   UNL     1      39.838 -24.923  28.755  1.00  0.00     0.041 C 
HETATM   18  C   UNL     1      39.383 -26.068  26.582  1.00  0.00     0.050 C 
HETATM   19 CL   UNL     1      40.184 -26.505  29.403  1.00  0.00    -0.084 Cl
HETATM   20  C   UNL     1      40.154 -23.818  29.534  1.00  0.00     0.040 C 
HETATM   21  C   UNL     1      41.132 -21.452  29.354  1.00  0.00     0.189 A 
HETATM   22  O   UNL     1      41.500 -21.216  30.501  1.00  0.00    -0.289 OA
ENDBRANCH  10  11
ENDBRANCH   7  10
ENDBRANCH   4   7
BRANCH   6  23
HETATM   23  O   UNL     1      37.994 -16.350  29.970  1.00  0.00    -0.359 OA
ATOM     24  HO  UNL     1      37.129 -16.163  30.316  1.00  0.00     0.217 HD
ENDBRANCH   6  23
BRANCH   2  25
HETATM   25  C   UNL     1      40.085 -15.403  24.994  1.00  0.00     0.077 C 
BRANCH  25  26
HETATM   26  C   UNL     1      39.928 -16.250  23.760  1.00  0.00    -0.054 A 
HETATM   27  C   UNL     1      40.901 -17.169  23.414  1.00  0.00     0.007 A 
HETATM   28  C   UNL     1      40.681 -18.049  22.379  1.00  0.00     0.001 A 
HETATM   29  C   UNL     1      39.485 -18.019  21.676  1.00  0.00     0.000 A 
HETATM   30  C   UNL     1      38.565 -17.031  21.950  1.00  0.00     0.001 A 
HETATM   31  C   UNL     1      38.773 -16.166  23.007  1.00  0.00     0.007 A 
ENDBRANCH  25  26
ENDBRANCH   2  25
BRANCH   5  32
HETATM   32  C   UNL     1      36.492 -14.648  28.382  1.00  0.00    -0.075 C 
HETATM   33  C   UNL     1      35.371 -15.399  29.069  1.00  0.00     0.044 C 
HETATM   34  C   UNL     1      36.121 -13.420  27.571  1.00  0.00     0.044 C 
ENDBRANCH   5  32
TORSDOF 7
ENDMDL
MODEL 3
REMARK VINA RESULT:      -8.6      1.955      3.894
REMARK  7 active torsions:
REMARK  status: ('A' for Active; 'I' for Inactive)
REMARK    1  A    between atoms: C_3  and  C_8 
REMARK    2  A    between atoms: C_3  and  C_15 
REMARK    3  A    between atoms: C_5  and  C_18 
REMARK    4  A    between atoms: P_6  and  C_16 
REMARK    5  A    between atoms: P_6  and  O_21 
REMARK    6  A    between atoms: C_11  and  O_21 
REMARK    7  A    between atoms: O_24  and  C_31 
ROOT
HETATM    1  C   UNL     1      38.701 -18.777  25.958  1.00  0.00     0.030 C 
HETATM    2  C   UNL     1      38.057 -17.767  25.256  1.00  0.00    -0.052 C 
HETATM    3  C   UNL     1      37.294 -16.847  25.976  1.00  0.00     0.022 C 
HETATM    4  C   UNL     1      38.906 -18.640  27.326  1.00  0.00     0.093 C 
HETATM    5  C   UNL     1      37.632 -16.604  27.302  1.00  0.00     0.000 C 
HETATM    6  C   UNL     1      38.534 -17.451  27.945  1.00  0.00     0.095 C 
ENDROOT
BRANCH   4   7
HETATM    7  P   UNL     1      39.520 -19.974  28.288  1.00  0.00     0.288 P 
HETATM    8  O   UNL     1      40.171 -19.422  29.490  1.00  0.00    -0.643 OA
HETATM    9  O   UNL     1      38.418 -20.936  28.484  1.00  0.00    -0.643 OA
BRANCH   7  10
HETATM   10  O   UNL     1      40.567 -20.634  27.310  1.00  0.00    -0.295 OA
BRANCH  10  11
HETATM   11  C   UNL     1      41.740 -21.367  27.597  1.00  0.00     0.211 A 
HETATM   12  C   UNL     1      41.725 -21.970  29.003  1.00  0.00     0.080 A 
HETATM   13  C   UNL     1      42.885 -21.333  29.715  1.00  0.00    -0.041 A 
HETATM   14  C   UNL     1      43.362 -21.610  30.988  1.00  0.00     0.016 C 
HETATM   15  C   UNL     1      43.632 -20.539  28.855  1.00  0.00     0.021 A 
HETATM   16  C   UNL     1      44.722 -21.410  31.232  1.00  0.00    -0.040 C 
HETATM   17  C   UNL     1      45.468 -20.625  30.344  1.00  0.00     0.041 C 
HETATM   18  C   UNL     1      45.435 -22.038  32.404  1.00  0.00     0.050 C 
HETATM   19 CL   UNL     1      47.208 -20.669  30.461  1.00  0.00    -0.084 Cl
HETATM   20  C   UNL     1      44.907 -20.107  29.184  1.00  0.00     0.040 C 
HETATM   21  C   UNL     1      42.983 -20.512  27.534  1.00  0.00     0.189 A 
HETATM   22  O   UNL     1      43.352 -19.916  26.526  1.00  0.00    -0.289 OA
ENDBRANCH  10  11
ENDBRANCH   7  10
ENDBRANCH   4   7
BRANCH   6  23
HETATM   23  O   UNL     1      39.052 -17.073  29.134  1.00  0.00    -0.359 OA
ATOM     24  HO  UNL     1      38.565 -16.531  29.744  1.00  0.00     0.217 HD
ENDBRANCH   6  23
BRANCH   2  25
HETATM   25  C   UNL     1      38.164 -17.660  23.758  1.00  0.00     0.077 C 
BRANCH  25  26
HETATM   26  C   UNL     1      39.426 -16.945  23.355  1.00  0.00    -0.054 A 
HETATM   27  C   UNL     1      40.111 -17.325  22.216  1.00  0.00     0.007 A 
HETATM   28  C   UNL     1      41.170 -16.571  21.765  1.00  0.00     0.001 A 
HETATM   29  C   UNL     1      41.558 -15.427  22.449  1.00  0.00     0.000 A 
HETATM   30  C   UNL     1      40.946 -15.114  23.642  1.00  0.00     0.001 A 
HETATM   31  C   UNL     1      39.865 -15.855  24.080  1.00  0.00     0.007 A 
ENDBRANCH  25  26
ENDBRANCH   2  25
BRANCH   5  32
HETATM   32  C   UNL     1      37.026 -15.484  28.109  1.00  0.00    -0.075 C 
HETATM   33  C   UNL     1      35.836 -15.807  28.987  1.00  0.00     0.044 C 
HETATM   34  C   UNL     1      37.046 -14.131  27.421  1.00  0.00     0.044 C 
ENDBRANCH   5  32
TORSDOF 7
ENDMDL
MODEL 4
REMARK VINA RESULT:      -8.6      1.232      3.910
REMARK  7 active torsions:
REMARK  status: ('A' for Active; 'I' for Inactive)
REMARK    1  A    between atoms: C_3  and  C_8 
REMARK    2  A    between atoms: C_3  and  C_15 
REMARK    3  A    between atoms: C_5  and  C_18 
REMARK    4  A    between atoms: P_6  and  C_16 
REMARK    5  A    between atoms: P_6  and  O_21 
REMARK    6  A    between atoms: C_11  and  O_21 
REMARK    7  A    between atoms: O_24  and  C_31 
ROOT
HETATM    1  C   UNL     1      38.619 -19.508  26.153  1.00  0.00     0.030 C 
HETATM    2  C   UNL     1      37.817 -18.640  25.423  1.00  0.00    -0.052 C 
HETATM    3  C   UNL     1      37.121 -17.647  26.113  1.00  0.00     0.022 C 
HETATM    4  C   UNL     1      39.022 -19.155  27.436  1.00  0.00     0.093 C 
HETATM    5  C   UNL     1      37.643 -17.192  27.318  1.00  0.00     0.000 C 
HETATM    6  C   UNL     1      38.680 -17.898  27.925  1.00  0.00     0.095 C 
ENDROOT
BRANCH   4   7
HETATM    7  P   UNL     1      39.854 -20.303  28.471  1.00  0.00     0.288 P 
HETATM    8  O   UNL     1      40.306 -19.596  29.684  1.00  0.00    -0.643 OA
HETATM    9  O   UNL     1      38.973 -21.474  28.647  1.00  0.00    -0.643 OA
BRANCH   7  10
HETATM   10  O   UNL     1      41.069 -20.745  27.568  1.00  0.00    -0.295 OA
BRANCH  10  11
HETATM   11  C   UNL     1      42.241 -21.456  27.909  1.00  0.00     0.211 A 
HETATM   12  C   UNL     1      42.217 -21.970  29.350  1.00  0.00     0.080 A 
HETATM   13  C   UNL     1      43.371 -21.286  30.029  1.00  0.00    -0.041 A 
HETATM   14  C   UNL     1      43.838 -21.481  31.320  1.00  0.00     0.016 C 
HETATM   15  C   UNL     1      44.122 -20.546  29.126  1.00  0.00     0.021 A 
HETATM   16  C   UNL     1      45.197 -21.263  31.560  1.00  0.00    -0.040 C 
HETATM   17  C   UNL     1      45.947 -20.534  30.631  1.00  0.00     0.041 C 
HETATM   18  C   UNL     1      45.902 -21.815  32.775  1.00  0.00     0.050 C 
HETATM   19 CL   UNL     1      47.686 -20.567  30.762  1.00  0.00    -0.084 Cl
HETATM   20  C   UNL     1      45.394 -20.091  29.437  1.00  0.00     0.040 C 
HETATM   21  C   UNL     1      43.483 -20.604  27.801  1.00  0.00     0.189 A 
HETATM   22  O   UNL     1      43.858 -20.071  26.761  1.00  0.00    -0.289 OA
ENDBRANCH  10  11
ENDBRANCH   7  10
ENDBRANCH   4   7
BRANCH   6  23
HETATM   23  O   UNL     1      39.351 -17.324  28.948  1.00  0.00    -0.359 OA
ATOM     24  HO  UNL     1      39.756 -17.839  29.635  1.00  0.00     0.217 HD
ENDBRANCH   6  23
BRANCH   2  25
HETATM   25  C   UNL     1      37.687 -18.761  23.928  1.00  0.00     0.077 C 
BRANCH  25  26
HETATM   26  C   UNL     1      36.363 -19.366  23.547  1.00  0.00    -0.054 A 
HETATM   27  C   UNL     1      35.584 -18.780  22.567  1.00  0.00     0.007 A 
HETATM   28  C   UNL     1      34.454 -19.419  22.111  1.00  0.00     0.001 A 
HETATM   29  C   UNL     1      34.089 -20.654  22.630  1.00  0.00     0.000 A 
HETATM   30  C   UNL     1      34.805 -21.182  23.682  1.00  0.00     0.001 A 
HETATM   31  C   UNL     1      35.954 -20.553  24.121  1.00  0.00     0.007 A 
ENDBRANCH  25  26
ENDBRANCH   2  25
BRANCH   5  32
HETATM   32  C   UNL     1      37.103 -15.983  28.039  1.00  0.00    -0.075 C 
HETATM   33  C   UNL     1      36.034 -16.202  29.089  1.00  0.00     0.044 C 
HETATM   34  C   UNL     1      37.001 -14.733  27.184  1.00  0.00     0.044 C 
ENDBRANCH   5  32
TORSDOF 7
ENDMDL
MODEL 5
REMARK VINA RESULT:      -8.6      2.736      3.934
REMARK  7 active torsions:
REMARK  status: ('A' for Active; 'I' for Inactive)
REMARK    1  A    between atoms: C_3  and  C_8 
REMARK    2  A    between atoms: C_3  and  C_15 
REMARK    3  A    between atoms: C_5  and  C_18 
REMARK    4  A    between atoms: P_6  and  C_16 
REMARK    5  A    between atoms: P_6  and  O_21 
REMARK    6  A    between atoms: C_11  and  O_21 
REMARK    7  A    between atoms: O_24  and  C_31 
ROOT
HETATM    1  C   UNL     1      37.603 -18.652  26.866  1.00  0.00     0.030 C 
HETATM    2  C   UNL     1      38.400 -17.570  27.215  1.00  0.00    -0.052 C 
HETATM    3  C   UNL     1      39.400 -17.175  26.326  1.00  0.00     0.022 C 
HETATM    4  C   UNL     1      37.537 -19.057  25.538  1.00  0.00     0.093 C 
HETATM    5  C   UNL     1      39.226 -17.445  24.974  1.00  0.00     0.000 C 
HETATM    6  C   UNL     1      38.209 -18.312  24.574  1.00  0.00     0.095 C 
ENDROOT
BRANCH   4   7
HETATM    7  P   UNL     1      36.716 -20.541  25.083  1.00  0.00     0.288 P 
HETATM    8  O   UNL     1      36.153 -21.155  26.300  1.00  0.00    -0.643 OA
HETATM    9  O   UNL     1      35.788 -20.225  23.981  1.00  0.00    -0.643 OA
BRANCH   7  10
HETATM   10  O   UNL     1      37.895 -21.404  24.488  1.00  0.00    -0.295 OA
BRANCH  10  11
HETATM   11  C   UNL     1      38.998 -22.002  25.135  1.00  0.00     0.211 A 
HETATM   12  C   UNL     1      38.713 -22.323  26.604  1.00  0.00     0.080 A 
HETATM   13  C   UNL     1      39.698 -21.498  27.384  1.00  0.00    -0.041 A 
HETATM   14  C   UNL     1      39.915 -21.497  28.754  1.00  0.00     0.016 C 
HETATM   15  C   UNL     1      40.588 -20.845  26.543  1.00  0.00     0.021 A 
HETATM   16  C   UNL     1      41.197 -21.180  29.209  1.00  0.00    -0.040 C 
HETATM   17  C   UNL     1      42.092 -20.542  28.343  1.00  0.00     0.041 C 
HETATM   18  C   UNL     1      41.672 -21.531  30.598  1.00  0.00     0.050 C 
HETATM   19 CL   UNL     1      43.774 -20.468  28.798  1.00  0.00    -0.084 Cl
HETATM   20  C   UNL     1      41.766 -20.289  27.017  1.00  0.00     0.040 C 
HETATM   21  C   UNL     1      40.216 -21.109  25.143  1.00  0.00     0.189 A 
HETATM   22  O   UNL     1      40.768 -20.699  24.127  1.00  0.00    -0.289 OA
ENDBRANCH  10  11
ENDBRANCH   7  10
ENDBRANCH   4   7
BRANCH   6  23
HETATM   23  O   UNL     1      37.880 -18.374  23.266  1.00  0.00    -0.359 OA
ATOM     24  HO  UNL     1      38.525 -18.558  22.593  1.00  0.00     0.217 HD
ENDBRANCH   6  23
BRANCH   2  25
HETATM   25  C   UNL     1      38.207 -16.839  28.517  1.00  0.00     0.077 C 
BRANCH  25  26
HETATM   26  C   UNL     1      37.163 -15.763  28.384  1.00  0.00    -0.054 A 
HETATM   27  C   UNL     1      35.984 -15.841  29.101  1.00  0.00     0.007 A 
HETATM   28  C   UNL     1      35.105 -14.782  29.100  1.00  0.00     0.001 A 
HETATM   29  C   UNL     1      35.395 -13.631  28.380  1.00  0.00     0.000 A 
HETATM   30  C   UNL     1      36.516 -13.600  27.580  1.00  0.00     0.001 A 
HETATM   31  C   UNL     1      37.412 -14.652  27.603  1.00  0.00     0.007 A 
ENDBRANCH  25  26
ENDBRANCH   2  25
BRANCH   5  32
HETATM   32  C   UNL     1      40.124 -16.879  23.903  1.00  0.00    -0.075 C 
HETATM   33  C   UNL     1      41.327 -17.696  23.483  1.00  0.00     0.044 C 
HETATM   34  C   UNL     1      40.280 -15.370  23.945  1.00  0.00     0.044 C 
ENDBRANCH   5  32
TORSDOF 7
ENDMDL
MODEL 6
REMARK VINA RESULT:      -8.6      1.350      3.795
REMARK  7 active torsions:
REMARK  status: ('A' for Active; 'I' for Inactive)
REMARK    1  A    between atoms: C_3  and  C_8 
REMARK    2  A    between atoms: C_3  and  C_15 
REMARK    3  A    between atoms: C_5  and  C_18 
REMARK    4  A    between atoms: P_6  and  C_16 
REMARK    5  A    between atoms: P_6  and  O_21 
REMARK    6  A    between atoms: C_11  and  O_21 
REMARK    7  A    between atoms: O_24  and  C_31 
ROOT
HETATM    1  C   UNL     1      40.230 -19.037  26.797  1.00  0.00     0.030 C 
HETATM    2  C   UNL     1      39.787 -17.873  26.183  1.00  0.00    -0.052 C 
HETATM    3  C   UNL     1      38.768 -17.148  26.801  1.00  0.00     0.022 C 
HETATM    4  C   UNL     1      39.963 -19.246  28.145  1.00  0.00     0.093 C 
HETATM    5  C   UNL     1      38.633 -17.247  28.181  1.00  0.00     0.000 C 
HETATM    6  C   UNL     1      39.328 -18.241  28.868  1.00  0.00     0.095 C 
ENDROOT
BRANCH   4   7
HETATM    7  P   UNL     1      40.315 -20.787  28.910  1.00  0.00     0.288 P 
HETATM    8  O   UNL     1      40.893 -20.526  30.241  1.00  0.00    -0.643 OA
HETATM    9  O   UNL     1      39.096 -21.616  28.841  1.00  0.00    -0.643 OA
BRANCH   7  10
HETATM   10  O   UNL     1      41.378 -21.411  27.926  1.00  0.00    -0.295 OA
BRANCH  10  11
HETATM   11  C   UNL     1      42.675 -21.906  28.186  1.00  0.00     0.211 A 
HETATM   12  C   UNL     1      42.789 -22.551  29.570  1.00  0.00     0.080 A 
HETATM   13  C   UNL     1      43.805 -21.722  30.306  1.00  0.00    -0.041 A 
HETATM   14  C   UNL     1      44.335 -21.945  31.568  1.00  0.00     0.016 C 
HETATM   15  C   UNL     1      44.373 -20.765  29.476  1.00  0.00     0.021 A 
HETATM   16  C   UNL     1      45.630 -21.488  31.819  1.00  0.00    -0.040 C 
HETATM   17  C   UNL     1      46.199 -20.540  30.962  1.00  0.00     0.041 C 
HETATM   18  C   UNL     1      46.461 -22.005  32.969  1.00  0.00     0.050 C 
HETATM   19 CL   UNL     1      47.915 -20.242  31.078  1.00  0.00    -0.084 Cl
HETATM   20  C   UNL     1      45.540 -20.102  29.822  1.00  0.00     0.040 C 
HETATM   21  C   UNL     1      43.724 -20.820  28.156  1.00  0.00     0.189 A 
HETATM   22  O   UNL     1      43.960 -20.127  27.172  1.00  0.00    -0.289 OA
ENDBRANCH  10  11
ENDBRANCH   7  10
ENDBRANCH   4   7
BRANCH   6  23
HETATM   23  O   UNL     1      39.397 -18.177  30.216  1.00  0.00    -0.359 OA
ATOM     24  HO  UNL     1      38.877 -18.745  30.773  1.00  0.00     0.217 HD
ENDBRANCH   6  23
BRANCH   2  25
HETATM   25  C   UNL     1      40.374 -17.401  24.879  1.00  0.00     0.077 C 
BRANCH  25  26
HETATM   26  C   UNL     1      39.482 -17.760  23.722  1.00  0.00    -0.054 A 
HETATM   27  C   UNL     1      38.949 -19.031  23.619  1.00  0.00     0.007 A 
HETATM   28  C   UNL     1      38.010 -19.309  22.652  1.00  0.00     0.001 A 
HETATM   29  C   UNL     1      37.595 -18.318  21.773  1.00  0.00     0.000 A 
HETATM   30  C   UNL     1      38.208 -17.086  21.807  1.00  0.00     0.001 A 
HETATM   31  C   UNL     1      39.130 -16.798  22.796  1.00  0.00     0.007 A 
ENDBRANCH  25  26
ENDBRANCH   2  25
BRANCH   5  32
HETATM   32  C   UNL     1      37.720 -16.351  28.980  1.00  0.00    -0.075 C 
HETATM   33  C   UNL     1      36.478 -16.967  29.588  1.00  0.00     0.044 C 
HETATM   34  C   UNL     1      37.616 -14.930  28.456  1.00  0.00     0.044 C 
ENDBRANCH   5  32
TORSDOF 7
ENDMDL
MODEL 7
REMARK VINA RESULT:      -8.3      4.526      6.527
REMARK  7 active torsions:
REMARK  status: ('A' for Active; 'I' for Inactive)
REMARK    1  A    between atoms: C_3  and  C_8 
REMARK    2  A    between atoms: C_3  and  C_15 
REMARK    3  A    between atoms: C_5  and  C_18 
REMARK    4  A    between atoms: P_6  and  C_16 
REMARK    5  A    between atoms: P_6  and  O_21 
REMARK    6  A    between atoms: C_11  and  O_21 
REMARK    7  A    between atoms: O_24  and  C_31 
ROOT
HETATM    1  C   UNL     1      42.394 -20.479  27.838  1.00  0.00     0.030 C 
HETATM    2  C   UNL     1      43.518 -20.892  27.134  1.00  0.00    -0.052 C 
HETATM    3  C   UNL     1      43.419 -22.041  26.349  1.00  0.00     0.022 C 
HETATM    4  C   UNL     1      41.140 -20.946  27.464  1.00  0.00     0.093 C 
HETATM    5  C   UNL     1      42.172 -22.390  25.846  1.00  0.00     0.000 C 
HETATM    6  C   UNL     1      41.033 -21.752  26.335  1.00  0.00     0.095 C 
ENDROOT
BRANCH   4   7
HETATM    7  P   UNL     1      39.722 -20.623  28.448  1.00  0.00     0.288 P 
HETATM    8  O   UNL     1      40.149 -19.895  29.657  1.00  0.00    -0.643 OA
HETATM    9  O   UNL     1      38.707 -19.987  27.585  1.00  0.00    -0.643 OA
BRANCH   7  10
HETATM   10  O   UNL     1      39.218 -22.078  28.792  1.00  0.00    -0.295 OA
BRANCH  10  11
HETATM   11  C   UNL     1      39.801 -23.070  29.611  1.00  0.00     0.211 A 
HETATM   12  C   UNL     1      41.000 -22.545  30.404  1.00  0.00     0.080 A 
HETATM   13  C   UNL     1      42.171 -23.358  29.927  1.00  0.00    -0.041 A 
HETATM   14  C   UNL     1      43.475 -23.336  30.401  1.00  0.00     0.016 C 
HETATM   15  C   UNL     1      41.769 -24.361  29.056  1.00  0.00     0.021 A 
HETATM   16  C   UNL     1      44.223 -24.511  30.300  1.00  0.00    -0.040 C 
HETATM   17  C   UNL     1      43.794 -25.523  29.435  1.00  0.00     0.041 C 
HETATM   18  C   UNL     1      45.469 -24.749  31.119  1.00  0.00     0.050 C 
HETATM   19 CL   UNL     1      44.528 -27.100  29.575  1.00  0.00    -0.084 Cl
HETATM   20  C   UNL     1      42.599 -25.423  28.734  1.00  0.00     0.040 C 
HETATM   21  C   UNL     1      40.322 -24.242  28.815  1.00  0.00     0.189 A 
HETATM   22  O   UNL     1      39.617 -24.950  28.101  1.00  0.00    -0.289 OA
ENDBRANCH  10  11
ENDBRANCH   7  10
ENDBRANCH   4   7
BRANCH   6  23
HETATM   23  O   UNL     1      39.864 -21.905  25.674  1.00  0.00    -0.359 OA
ATOM     24  HO  UNL     1      39.537 -22.761  25.423  1.00  0.00     0.217 HD
ENDBRANCH   6  23
BRANCH   2  25
HETATM   25  C   UNL     1      44.817 -20.134  27.214  1.00  0.00     0.077 C 
BRANCH  25  26
HETATM   26  C   UNL     1      45.508 -20.381  28.528  1.00  0.00    -0.054 A 
HETATM   27  C   UNL     1      45.088 -19.729  29.672  1.00  0.00     0.007 A 
HETATM   28  C   UNL     1      45.614 -20.075  30.895  1.00  0.00     0.001 A 
HETATM   29  C   UNL     1      46.570 -21.077  30.989  1.00  0.00     0.000 A 
HETATM   30  C   UNL     1      47.066 -21.647  29.837  1.00  0.00     0.001 A 
HETATM   31  C   UNL     1      46.518 -21.320  28.612  1.00  0.00     0.007 A 
ENDBRANCH  25  26
ENDBRANCH   2  25
BRANCH   5  32
HETATM   32  C   UNL     1      41.979 -23.475  24.816  1.00  0.00    -0.075 C 
HETATM   33  C   UNL     1      41.562 -24.847  25.303  1.00  0.00     0.044 C 
HETATM   34  C   UNL     1      42.940 -23.408  23.643  1.00  0.00     0.044 C 
ENDBRANCH   5  32
TORSDOF 7
ENDMDL
MODEL 8
REMARK VINA RESULT:      -8.2      3.382      6.136
REMARK  7 active torsions:
REMARK  status: ('A' for Active; 'I' for Inactive)
REMARK    1  A    between atoms: C_3  and  C_8 
REMARK    2  A    between atoms: C_3  and  C_15 
REMARK    3  A    between atoms: C_5  and  C_18 
REMARK    4  A    between atoms: P_6  and  C_16 
REMARK    5  A    between atoms: P_6  and  O_21 
REMARK    6  A    between atoms: C_11  and  O_21 
REMARK    7  A    between atoms: O_24  and  C_31 
ROOT
HETATM    1  C   UNL     1      39.950 -18.090  25.143  1.00  0.00     0.030 C 
HETATM    2  C   UNL     1      40.222 -19.044  24.171  1.00  0.00    -0.052 C 
HETATM    3  C   UNL     1      39.167 -19.828  23.704  1.00  0.00     0.022 C 
HETATM    4  C   UNL     1      38.642 -17.664  25.340  1.00  0.00     0.093 C 
HETATM    5  C   UNL     1      37.881 -19.304  23.759  1.00  0.00     0.000 C 
HETATM    6  C   UNL     1      37.644 -18.146  24.498  1.00  0.00     0.095 C 
ENDROOT
BRANCH   4   7
HETATM    7  P   UNL     1      38.221 -16.624  26.691  1.00  0.00     0.288 P 
HETATM    8  O   UNL     1      39.467 -16.162  27.330  1.00  0.00    -0.643 OA
HETATM    9  O   UNL     1      37.281 -15.599  26.197  1.00  0.00    -0.643 OA
BRANCH   7  10
HETATM   10  O   UNL     1      37.416 -17.605  27.627  1.00  0.00    -0.295 OA
BRANCH  10  11
HETATM   11  C   UNL     1      37.873 -18.674  28.428  1.00  0.00     0.211 A 
HETATM   12  C   UNL     1      39.317 -18.481  28.896  1.00  0.00     0.080 A 
HETATM   13  C   UNL     1      40.080 -19.630  28.298  1.00  0.00    -0.041 A 
HETATM   14  C   UNL     1      41.411 -19.966  28.495  1.00  0.00     0.016 C 
HETATM   15  C   UNL     1      39.231 -20.519  27.653  1.00  0.00     0.021 A 
HETATM   16  C   UNL     1      41.764 -21.313  28.391  1.00  0.00    -0.040 C 
HETATM   17  C   UNL     1      40.889 -22.203  27.759  1.00  0.00     0.041 C 
HETATM   18  C   UNL     1      43.048 -21.859  28.968  1.00  0.00     0.050 C 
HETATM   19 CL   UNL     1      41.173 -23.914  27.942  1.00  0.00    -0.084 Cl
HETATM   20  C   UNL     1      39.642 -21.796  27.305  1.00  0.00     0.040 C 
HETATM   21  C   UNL     1      37.857 -19.993  27.694  1.00  0.00     0.189 A 
HETATM   22  O   UNL     1      36.842 -20.502  27.227  1.00  0.00    -0.289 OA
ENDBRANCH  10  11
ENDBRANCH   7  10
ENDBRANCH   4   7
BRANCH   6  23
HETATM   23  O   UNL     1      36.467 -17.502  24.344  1.00  0.00    -0.359 OA
ATOM     24  HO  UNL     1      35.913 -17.285  25.085  1.00  0.00     0.217 HD
ENDBRANCH   6  23
BRANCH   2  25
HETATM   25  C   UNL     1      41.615 -19.243  23.634  1.00  0.00     0.077 C 
BRANCH  25  26
HETATM   26  C   UNL     1      42.310 -20.376  24.340  1.00  0.00    -0.054 A 
HETATM   27  C   UNL     1      41.882 -21.678  24.162  1.00  0.00     0.007 A 
HETATM   28  C   UNL     1      42.614 -22.721  24.680  1.00  0.00     0.001 A 
HETATM   29  C   UNL     1      43.785 -22.474  25.384  1.00  0.00     0.000 A 
HETATM   30  C   UNL     1      44.149 -21.174  25.654  1.00  0.00     0.001 A 
HETATM   31  C   UNL     1      43.429 -20.127  25.110  1.00  0.00     0.007 A 
ENDBRANCH  25  26
ENDBRANCH   2  25
BRANCH   5  32
HETATM   32  C   UNL     1      36.700 -19.962  23.090  1.00  0.00    -0.075 C 
HETATM   33  C   UNL     1      35.939 -21.012  23.870  1.00  0.00     0.044 C 
HETATM   34  C   UNL     1      36.861 -20.175  21.596  1.00  0.00     0.044 C 
ENDBRANCH   5  32
TORSDOF 7
ENDMDL
MODEL 9
REMARK VINA RESULT:      -8.2      4.085      8.587
REMARK  7 active torsions:
REMARK  status: ('A' for Active; 'I' for Inactive)
REMARK    1  A    between atoms: C_3  and  C_8 
REMARK    2  A    between atoms: C_3  and  C_15 
REMARK    3  A    between atoms: C_5  and  C_18 
REMARK    4  A    between atoms: P_6  and  C_16 
REMARK    5  A    between atoms: P_6  and  O_21 
REMARK    6  A    between atoms: C_11  and  O_21 
REMARK    7  A    between atoms: O_24  and  C_31 
ROOT
HETATM    1  C   UNL     1      41.180 -22.760  27.554  1.00  0.00     0.030 C 
HETATM    2  C   UNL     1      41.208 -23.868  26.717  1.00  0.00    -0.052 C 
HETATM    3  C   UNL     1      41.810 -25.035  27.189  1.00  0.00     0.022 C 
HETATM    4  C   UNL     1      41.372 -22.927  28.920  1.00  0.00     0.093 C 
HETATM    5  C   UNL     1      41.836 -25.256  28.561  1.00  0.00     0.000 C 
HETATM    6  C   UNL     1      41.505 -24.216  29.428  1.00  0.00     0.095 C 
ENDROOT
BRANCH   4   7
HETATM    7  P   UNL     1      41.556 -21.542  29.985  1.00  0.00     0.288 P 
HETATM    8  O   UNL     1      40.586 -21.670  31.088  1.00  0.00    -0.643 OA
HETATM    9  O   UNL     1      42.985 -21.428  30.336  1.00  0.00    -0.643 OA
BRANCH   7  10
HETATM   10  O   UNL     1      41.196 -20.340  29.030  1.00  0.00    -0.295 OA
BRANCH  10  11
HETATM   11  C   UNL     1      39.941 -19.910  28.545  1.00  0.00     0.211 A 
HETATM   12  C   UNL     1      39.938 -19.701  27.029  1.00  0.00     0.080 A 
HETATM   13  C   UNL     1      39.639 -18.241  26.835  1.00  0.00    -0.041 A 
HETATM   14  C   UNL     1      39.434 -17.562  25.643  1.00  0.00     0.016 C 
HETATM   15  C   UNL     1      39.348 -17.620  28.042  1.00  0.00     0.021 A 
HETATM   16  C   UNL     1      38.598 -16.444  25.666  1.00  0.00    -0.040 C 
HETATM   17  C   UNL     1      38.295 -15.841  26.892  1.00  0.00     0.041 C 
HETATM   18  C   UNL     1      37.975 -15.874  24.414  1.00  0.00     0.050 C 
HETATM   19 CL   UNL     1      36.993 -14.681  26.945  1.00  0.00    -0.084 Cl
HETATM   20  C   UNL     1      38.739 -16.376  28.094  1.00  0.00     0.040 C 
HETATM   21  C   UNL     1      39.516 -18.588  29.139  1.00  0.00     0.189 A 
HETATM   22  O   UNL     1      39.350 -18.401  30.340  1.00  0.00    -0.289 OA
ENDBRANCH  10  11
ENDBRANCH   7  10
ENDBRANCH   4   7
BRANCH   6  23
HETATM   23  O   UNL     1      41.283 -24.496  30.731  1.00  0.00    -0.359 OA
ATOM     24  HO  UNL     1      40.888 -23.864  31.321  1.00  0.00     0.217 HD
ENDBRANCH   6  23
BRANCH   2  25
HETATM   25  C   UNL     1      40.617 -23.822  25.333  1.00  0.00     0.077 C 
BRANCH  25  26
HETATM   26  C   UNL     1      39.640 -24.947  25.124  1.00  0.00    -0.054 A 
HETATM   27  C   UNL     1      38.422 -24.944  25.777  1.00  0.00     0.007 A 
HETATM   28  C   UNL     1      37.469 -25.887  25.464  1.00  0.00     0.001 A 
HETATM   29  C   UNL     1      37.725 -26.846  24.493  1.00  0.00     0.000 A 
HETATM   30  C   UNL     1      38.977 -26.914  23.924  1.00  0.00     0.001 A 
HETATM   31  C   UNL     1      39.924 -25.951  24.219  1.00  0.00     0.007 A 
ENDBRANCH  25  26
ENDBRANCH   2  25
BRANCH   5  32
HETATM   32  C   UNL     1      42.257 -26.569  29.171  1.00  0.00    -0.075 C 
HETATM   33  C   UNL     1      43.708 -26.980  29.033  1.00  0.00     0.044 C 
HETATM   34  C   UNL     1      41.207 -27.662  29.101  1.00  0.00     0.044 C 
ENDBRANCH   5  32
TORSDOF 7
ENDMDL
