MODEL 1
REMARK VINA RESULT:      -8.1      0.000      0.000
REMARK  4 active torsions:
REMARK  status: ('A' for Active; 'I' for Inactive)
REMARK    1  A    between atoms: C_4  and  N_18 
REMARK    2  A    between atoms: C_7  and  O_13 
REMARK    3  A    between atoms: C_8  and  C_12 
REMARK    4  A    between atoms: C_8  and  N_18 
ROOT
HETATM    1  C   UNL     1     -34.134   4.407  -1.329  1.00  0.00     0.043 C 
HETATM    2  C   UNL     1     -36.431   5.177  -2.066  1.00  0.00     0.278 C 
HETATM    3  C   UNL     1     -35.134   7.214  -1.490  1.00  0.00     0.100 C 
HETATM    4  C   UNL     1     -35.282   4.239  -2.074  1.00  0.00     0.134 C 
HETATM    5  N   UNL     1     -36.220   6.517  -1.969  1.00  0.00    -0.331 N 
ATOM      6  HN  UNL     1     -36.988   7.098  -2.304  1.00  0.00     0.168 HD
HETATM    7  C   UNL     1     -33.838   6.791  -1.682  1.00  0.00    -0.025 C 
HETATM    8  C   UNL     1     -33.416   5.558  -1.115  1.00  0.00     0.013 C 
HETATM    9  O   UNL     1     -37.546   4.742  -2.362  1.00  0.00    -0.265 OA
ENDROOT
BRANCH   7  10
HETATM   10  C   UNL     1     -32.872   7.619  -2.468  1.00  0.00     0.160 C 
BRANCH  10  11
HETATM   11  N   UNL     1     -33.300   8.980  -2.761  1.00  0.00    -0.386 N 
ATOM     12  HN  UNL     1     -33.336   9.648  -1.991  1.00  0.00     0.160 HD
BRANCH  11  13
HETATM   13  C   UNL     1     -33.660   9.418  -4.020  1.00  0.00     0.030 C 
HETATM   14  C   UNL     1     -32.851   9.208  -5.140  1.00  0.00     0.046 C 
HETATM   15  C   UNL     1     -33.408   9.436  -6.386  1.00  0.00     0.089 C 
HETATM   16  N   UNL     1     -34.671   9.860  -6.548  1.00  0.00    -0.375 N 
HETATM   17  C   UNL     1     -35.376  10.228  -5.462  1.00  0.00     0.089 C 
ATOM     18  HN  UNL     1     -35.089   9.904  -7.477  1.00  0.00     0.164 HD
HETATM   19  C   UNL     1     -34.875  10.106  -4.187  1.00  0.00     0.046 C 
ENDBRANCH  11  13
ENDBRANCH  10  11
ENDBRANCH   7  10
BRANCH   4  20
HETATM   20  O   UNL     1     -35.367   3.178  -2.928  1.00  0.00    -0.356 OA
ATOM     21  HO  UNL     1     -34.601   2.631  -3.060  1.00  0.00     0.218 HD
ENDBRANCH   4  20
TORSDOF 4
ENDMDL
MODEL 2
REMARK VINA RESULT:      -8.1      1.317      1.909
REMARK  4 active torsions:
REMARK  status: ('A' for Active; 'I' for Inactive)
REMARK    1  A    between atoms: C_4  and  N_18 
REMARK    2  A    between atoms: C_7  and  O_13 
REMARK    3  A    between atoms: C_8  and  C_12 
REMARK    4  A    between atoms: C_8  and  N_18 
ROOT
HETATM    1  C   UNL     1     -34.304   6.472  -0.670  1.00  0.00     0.043 C 
HETATM    2  C   UNL     1     -36.385   6.176  -2.083  1.00  0.00     0.278 C 
HETATM    3  C   UNL     1     -35.981   8.617  -1.889  1.00  0.00     0.100 C 
HETATM    4  C   UNL     1     -35.067   5.742  -1.558  1.00  0.00     0.134 C 
HETATM    5  N   UNL     1     -36.615   7.487  -2.355  1.00  0.00    -0.331 N 
ATOM      6  HN  UNL     1     -37.379   7.663  -3.008  1.00  0.00     0.168 HD
HETATM    7  C   UNL     1     -34.625   8.666  -1.660  1.00  0.00    -0.025 C 
HETATM    8  C   UNL     1     -34.056   7.822  -0.668  1.00  0.00     0.013 C 
HETATM    9  O   UNL     1     -37.177   5.312  -2.466  1.00  0.00    -0.265 OA
ENDROOT
BRANCH   7  10
HETATM   10  C   UNL     1     -33.752   9.601  -2.433  1.00  0.00     0.160 C 
BRANCH  10  11
HETATM   11  N   UNL     1     -34.400  10.307  -3.530  1.00  0.00    -0.386 N 
ATOM     12  HN  UNL     1     -34.991  11.107  -3.304  1.00  0.00     0.160 HD
BRANCH  11  13
HETATM   13  C   UNL     1     -34.259   9.957  -4.858  1.00  0.00     0.030 C 
HETATM   14  C   UNL     1     -35.302  10.099  -5.779  1.00  0.00     0.046 C 
HETATM   15  C   UNL     1     -34.992   9.981  -7.122  1.00  0.00     0.089 C 
HETATM   16  N   UNL     1     -33.750   9.724  -7.559  1.00  0.00    -0.375 N 
HETATM   17  C   UNL     1     -32.797   9.413  -6.660  1.00  0.00     0.089 C 
ATOM     18  HN  UNL     1     -33.531   9.762  -8.554  1.00  0.00     0.164 HD
HETATM   19  C   UNL     1     -33.034   9.433  -5.306  1.00  0.00     0.046 C 
ENDBRANCH  11  13
ENDBRANCH  10  11
ENDBRANCH   7  10
BRANCH   4  20
HETATM   20  O   UNL     1     -34.572   4.568  -2.046  1.00  0.00    -0.356 OA
ATOM     21  HO  UNL     1     -33.857   4.594  -2.671  1.00  0.00     0.218 HD
ENDBRANCH   4  20
TORSDOF 4
ENDMDL
MODEL 3
REMARK VINA RESULT:      -8.0      2.169      2.929
REMARK  4 active torsions:
REMARK  status: ('A' for Active; 'I' for Inactive)
REMARK    1  A    between atoms: C_4  and  N_18 
REMARK    2  A    between atoms: C_7  and  O_13 
REMARK    3  A    between atoms: C_8  and  C_12 
REMARK    4  A    between atoms: C_8  and  N_18 
ROOT
HETATM    1  C   UNL     1     -35.196   4.667  -1.552  1.00  0.00     0.043 C 
HETATM    2  C   UNL     1     -33.062   3.473  -2.213  1.00  0.00     0.278 C 
HETATM    3  C   UNL     1     -32.581   5.907  -2.281  1.00  0.00     0.100 C 
HETATM    4  C   UNL     1     -34.357   3.574  -1.494  1.00  0.00     0.134 C 
HETATM    5  N   UNL     1     -32.270   4.568  -2.352  1.00  0.00    -0.331 N 
ATOM      6  HN  UNL     1     -31.287   4.366  -2.538  1.00  0.00     0.168 HD
HETATM    7  C   UNL     1     -33.509   6.407  -1.395  1.00  0.00    -0.025 C 
HETATM    8  C   UNL     1     -34.866   5.999  -1.504  1.00  0.00     0.013 C 
HETATM    9  O   UNL     1     -32.629   2.351  -2.485  1.00  0.00    -0.265 OA
ENDROOT
BRANCH   7  10
HETATM   10  C   UNL     1     -33.105   7.378  -0.333  1.00  0.00     0.160 C 
BRANCH  10  11
HETATM   11  N   UNL     1     -33.045   8.774  -0.745  1.00  0.00    -0.386 N 
ATOM     12  HN  UNL     1     -32.295   9.354  -0.369  1.00  0.00     0.160 HD
BRANCH  11  13
HETATM   13  C   UNL     1     -33.945   9.358  -1.614  1.00  0.00     0.030 C 
HETATM   14  C   UNL     1     -33.591   9.723  -2.916  1.00  0.00     0.046 C 
HETATM   15  C   UNL     1     -34.612  10.045  -3.792  1.00  0.00     0.089 C 
HETATM   16  N   UNL     1     -35.905  10.035  -3.432  1.00  0.00    -0.375 N 
HETATM   17  C   UNL     1     -36.216   9.857  -2.134  1.00  0.00     0.089 C 
ATOM     18  HN  UNL     1     -36.639  10.160  -4.129  1.00  0.00     0.164 HD
HETATM   19  C   UNL     1     -35.259   9.604  -1.180  1.00  0.00     0.046 C 
ENDBRANCH  11  13
ENDBRANCH  10  11
ENDBRANCH   7  10
BRANCH   4  20
HETATM   20  O   UNL     1     -34.688   2.528  -0.684  1.00  0.00    -0.356 OA
ATOM     21  HO  UNL     1     -35.175   1.799  -1.049  1.00  0.00     0.218 HD
ENDBRANCH   4  20
TORSDOF 4
ENDMDL
MODEL 4
REMARK VINA RESULT:      -7.9      2.955      5.916
REMARK  4 active torsions:
REMARK  status: ('A' for Active; 'I' for Inactive)
REMARK    1  A    between atoms: C_4  and  N_18 
REMARK    2  A    between atoms: C_7  and  O_13 
REMARK    3  A    between atoms: C_8  and  C_12 
REMARK    4  A    between atoms: C_8  and  N_18 
ROOT
HETATM    1  C   UNL     1     -35.320  10.236  -4.158  1.00  0.00     0.043 C 
HETATM    2  C   UNL     1     -32.986   9.458  -4.759  1.00  0.00     0.278 C 
HETATM    3  C   UNL     1     -33.425   8.707  -2.435  1.00  0.00     0.100 C 
HETATM    4  C   UNL     1     -34.385   9.829  -5.086  1.00  0.00     0.134 C 
HETATM    5  N   UNL     1     -32.705   8.799  -3.604  1.00  0.00    -0.331 N 
ATOM      6  HN  UNL     1     -31.820   8.292  -3.604  1.00  0.00     0.168 HD
HETATM    7  C   UNL     1     -34.798   8.630  -2.413  1.00  0.00    -0.025 C 
HETATM    8  C   UNL     1     -35.565   9.719  -2.910  1.00  0.00     0.013 C 
HETATM    9  O   UNL     1     -32.129   9.566  -5.640  1.00  0.00    -0.265 OA
ENDROOT
BRANCH   7  10
HETATM   10  C   UNL     1     -35.489   7.423  -1.865  1.00  0.00     0.160 C 
BRANCH  10  11
HETATM   11  N   UNL     1     -34.666   6.544  -1.045  1.00  0.00    -0.386 N 
ATOM     12  HN  UNL     1     -34.387   6.871  -0.120  1.00  0.00     0.160 HD
BRANCH  11  13
HETATM   13  C   UNL     1     -34.241   5.293  -1.447  1.00  0.00     0.030 C 
HETATM   14  C   UNL     1     -35.134   4.239  -1.664  1.00  0.00     0.046 C 
HETATM   15  C   UNL     1     -34.655   3.118  -2.318  1.00  0.00     0.089 C 
HETATM   16  N   UNL     1     -33.382   3.006  -2.727  1.00  0.00    -0.375 N 
HETATM   17  C   UNL     1     -32.496   3.948  -2.354  1.00  0.00     0.089 C 
ATOM     18  HN  UNL     1     -33.091   2.222  -3.310  1.00  0.00     0.164 HD
HETATM   19  C   UNL     1     -32.868   5.062  -1.639  1.00  0.00     0.046 C 
ENDBRANCH  11  13
ENDBRANCH  10  11
ENDBRANCH   7  10
BRANCH   4  20
HETATM   20  O   UNL     1     -34.763   9.692  -6.390  1.00  0.00    -0.356 OA
ATOM     21  HO  UNL     1     -35.195   8.890  -6.663  1.00  0.00     0.218 HD
ENDBRANCH   4  20
TORSDOF 4
ENDMDL
MODEL 5
REMARK VINA RESULT:      -7.8      3.271      4.474
REMARK  4 active torsions:
REMARK  status: ('A' for Active; 'I' for Inactive)
REMARK    1  A    between atoms: C_4  and  N_18 
REMARK    2  A    between atoms: C_7  and  O_13 
REMARK    3  A    between atoms: C_8  and  C_12 
REMARK    4  A    between atoms: C_8  and  N_18 
ROOT
HETATM    1  C   UNL     1     -37.845   3.700  -1.887  1.00  0.00     0.043 C 
HETATM    2  C   UNL     1     -37.395   2.023  -0.044  1.00  0.00     0.278 C 
HETATM    3  C   UNL     1     -35.244   2.398  -1.224  1.00  0.00     0.100 C 
HETATM    4  C   UNL     1     -38.122   3.167  -0.646  1.00  0.00     0.134 C 
HETATM    5  N   UNL     1     -36.057   1.883  -0.241  1.00  0.00    -0.331 N 
ATOM      6  HN  UNL     1     -35.580   1.303   0.450  1.00  0.00     0.168 HD
HETATM    7  C   UNL     1     -35.421   3.658  -1.749  1.00  0.00    -0.025 C 
HETATM    8  C   UNL     1     -36.620   3.958  -2.451  1.00  0.00     0.013 C 
HETATM    9  O   UNL     1     -37.975   1.336   0.800  1.00  0.00    -0.265 OA
ENDROOT
BRANCH   7  10
HETATM   10  C   UNL     1     -34.366   4.706  -1.597  1.00  0.00     0.160 C 
BRANCH  10  11
HETATM   11  N   UNL     1     -34.627   5.722  -0.586  1.00  0.00    -0.386 N 
ATOM     12  HN  UNL     1     -34.683   5.426   0.389  1.00  0.00     0.160 HD
BRANCH  11  13
HETATM   13  C   UNL     1     -34.802   7.062  -0.870  1.00  0.00     0.030 C 
HETATM   14  C   UNL     1     -35.882   7.527  -1.626  1.00  0.00     0.046 C 
HETATM   15  C   UNL     1     -36.123   8.889  -1.630  1.00  0.00     0.089 C 
HETATM   16  N   UNL     1     -35.357   9.762  -0.957  1.00  0.00    -0.375 N 
HETATM   17  C   UNL     1     -34.222   9.321  -0.384  1.00  0.00     0.089 C 
ATOM     18  HN  UNL     1     -35.630  10.741  -0.882  1.00  0.00     0.164 HD
HETATM   19  C   UNL     1     -33.864   7.994  -0.393  1.00  0.00     0.046 C 
ENDBRANCH  11  13
ENDBRANCH  10  11
ENDBRANCH   7  10
BRANCH   4  20
HETATM   20  O   UNL     1     -39.085   3.750   0.125  1.00  0.00    -0.356 OA
ATOM     21  HO  UNL     1     -39.737   4.302  -0.292  1.00  0.00     0.218 HD
ENDBRANCH   4  20
TORSDOF 4
ENDMDL
MODEL 6
REMARK VINA RESULT:      -7.7      1.716      2.560
REMARK  4 active torsions:
REMARK  status: ('A' for Active; 'I' for Inactive)
REMARK    1  A    between atoms: C_4  and  N_18 
REMARK    2  A    between atoms: C_7  and  O_13 
REMARK    3  A    between atoms: C_8  and  C_12 
REMARK    4  A    between atoms: C_8  and  N_18 
ROOT
HETATM    1  C   UNL     1     -34.438   6.333  -1.505  1.00  0.00     0.043 C 
HETATM    2  C   UNL     1     -35.987   8.324  -1.278  1.00  0.00     0.278 C 
HETATM    3  C   UNL     1     -33.727   9.218  -1.780  1.00  0.00     0.100 C 
HETATM    4  C   UNL     1     -35.688   6.908  -1.605  1.00  0.00     0.134 C 
HETATM    5  N   UNL     1     -35.084   9.298  -1.566  1.00  0.00    -0.331 N 
ATOM      6  HN  UNL     1     -35.474  10.238  -1.634  1.00  0.00     0.168 HD
HETATM    7  C   UNL     1     -33.141   8.162  -2.440  1.00  0.00    -0.025 C 
HETATM    8  C   UNL     1     -33.226   6.858  -1.879  1.00  0.00     0.013 C 
HETATM    9  O   UNL     1     -37.138   8.619  -0.947  1.00  0.00    -0.265 OA
ENDROOT
BRANCH   7  10
HETATM   10  C   UNL     1     -32.411   8.373  -3.727  1.00  0.00     0.160 C 
BRANCH  10  11
HETATM   11  N   UNL     1     -32.755   9.588  -4.454  1.00  0.00    -0.386 N 
ATOM     12  HN  UNL     1     -32.336  10.466  -4.148  1.00  0.00     0.160 HD
BRANCH  11  13
HETATM   13  C   UNL     1     -33.614   9.620  -5.534  1.00  0.00     0.030 C 
HETATM   14  C   UNL     1     -34.948  10.023  -5.412  1.00  0.00     0.046 C 
HETATM   15  C   UNL     1     -35.648  10.281  -6.576  1.00  0.00     0.089 C 
HETATM   16  N   UNL     1     -35.104  10.144  -7.796  1.00  0.00    -0.375 N 
HETATM   17  C   UNL     1     -33.883   9.587  -7.902  1.00  0.00     0.089 C 
ATOM     18  HN  UNL     1     -35.606  10.456  -8.626  1.00  0.00     0.164 HD
HETATM   19  C   UNL     1     -33.142   9.231  -6.800  1.00  0.00     0.046 C 
ENDBRANCH  11  13
ENDBRANCH  10  11
ENDBRANCH   7  10
BRANCH   4  20
HETATM   20  O   UNL     1     -36.722   6.162  -2.089  1.00  0.00    -0.356 OA
ATOM     21  HO  UNL     1     -37.207   6.481  -2.842  1.00  0.00     0.218 HD
ENDBRANCH   4  20
TORSDOF 4
ENDMDL
MODEL 7
REMARK VINA RESULT:      -7.6      3.259      6.340
REMARK  4 active torsions:
REMARK  status: ('A' for Active; 'I' for Inactive)
REMARK    1  A    between atoms: C_4  and  N_18 
REMARK    2  A    between atoms: C_7  and  O_13 
REMARK    3  A    between atoms: C_8  and  C_12 
REMARK    4  A    between atoms: C_8  and  N_18 
ROOT
HETATM    1  C   UNL     1     -35.433  10.325  -6.270  1.00  0.00     0.043 C 
HETATM    2  C   UNL     1     -32.940  10.178  -6.691  1.00  0.00     0.278 C 
HETATM    3  C   UNL     1     -33.255  10.298  -4.231  1.00  0.00     0.100 C 
HETATM    4  C   UNL     1     -34.360   9.914  -7.032  1.00  0.00     0.134 C 
HETATM    5  N   UNL     1     -32.532  10.153  -5.394  1.00  0.00    -0.331 N 
ATOM      6  HN  UNL     1     -31.532  10.004  -5.262  1.00  0.00     0.168 HD
HETATM    7  C   UNL     1     -34.527   9.794  -4.081  1.00  0.00    -0.025 C 
HETATM    8  C   UNL     1     -35.574  10.288  -4.905  1.00  0.00     0.013 C 
HETATM    9  O   UNL     1     -32.112  10.205  -7.604  1.00  0.00    -0.265 OA
ENDROOT
BRANCH   7  10
HETATM   10  C   UNL     1     -34.817   8.744  -3.057  1.00  0.00     0.160 C 
BRANCH  10  11
HETATM   11  N   UNL     1     -33.728   8.440  -2.138  1.00  0.00    -0.386 N 
ATOM     12  HN  UNL     1     -33.025   9.160  -1.972  1.00  0.00     0.160 HD
BRANCH  11  13
HETATM   13  C   UNL     1     -33.592   7.235  -1.479  1.00  0.00     0.030 C 
HETATM   14  C   UNL     1     -34.449   6.156  -1.718  1.00  0.00     0.046 C 
HETATM   15  C   UNL     1     -34.077   4.920  -1.222  1.00  0.00     0.089 C 
HETATM   16  N   UNL     1     -32.949   4.731  -0.519  1.00  0.00    -0.375 N 
HETATM   17  C   UNL     1     -32.230   5.805  -0.146  1.00  0.00     0.089 C 
ATOM     18  HN  UNL     1     -32.644   3.790  -0.271  1.00  0.00     0.164 HD
HETATM   19  C   UNL     1     -32.566   7.081  -0.532  1.00  0.00     0.046 C 
ENDBRANCH  11  13
ENDBRANCH  10  11
ENDBRANCH   7  10
BRANCH   4  20
HETATM   20  O   UNL     1     -34.589   9.164  -8.148  1.00  0.00    -0.356 OA
ATOM     21  HO  UNL     1     -35.483   9.047  -8.450  1.00  0.00     0.218 HD
ENDBRANCH   4  20
TORSDOF 4
ENDMDL
MODEL 8
REMARK VINA RESULT:      -7.5      2.382      3.195
REMARK  4 active torsions:
REMARK  status: ('A' for Active; 'I' for Inactive)
REMARK    1  A    between atoms: C_4  and  N_18 
REMARK    2  A    between atoms: C_7  and  O_13 
REMARK    3  A    between atoms: C_8  and  C_12 
REMARK    4  A    between atoms: C_8  and  N_18 
ROOT
HETATM    1  C   UNL     1     -33.559   8.896  -0.045  1.00  0.00     0.043 C 
HETATM    2  C   UNL     1     -33.641   6.387  -0.378  1.00  0.00     0.278 C 
HETATM    3  C   UNL     1     -35.763   7.307  -1.279  1.00  0.00     0.100 C 
HETATM    4  C   UNL     1     -32.933   7.684  -0.248  1.00  0.00     0.134 C 
HETATM    5  N   UNL     1     -34.838   6.322  -1.019  1.00  0.00    -0.331 N 
ATOM      6  HN  UNL     1     -35.091   5.395  -1.363  1.00  0.00     0.168 HD
HETATM    7  C   UNL     1     -35.403   8.597  -1.597  1.00  0.00    -0.025 C 
HETATM    8  C   UNL     1     -34.698   9.378  -0.642  1.00  0.00     0.013 C 
HETATM    9  O   UNL     1     -33.032   5.354  -0.090  1.00  0.00    -0.265 OA
ENDROOT
BRANCH   7  10
HETATM   10  C   UNL     1     -35.756   9.184  -2.926  1.00  0.00     0.160 C 
BRANCH  10  11
HETATM   11  N   UNL     1     -34.816  10.167  -3.450  1.00  0.00    -0.386 N 
ATOM     12  HN  UNL     1     -34.502  10.911  -2.827  1.00  0.00     0.160 HD
BRANCH  11  13
HETATM   13  C   UNL     1     -34.325  10.149  -4.740  1.00  0.00     0.030 C 
HETATM   14  C   UNL     1     -32.954  10.112  -5.014  1.00  0.00     0.046 C 
HETATM   15  C   UNL     1     -32.567   9.824  -6.310  1.00  0.00     0.089 C 
HETATM   16  N   UNL     1     -33.449   9.601  -7.297  1.00  0.00    -0.375 N 
HETATM   17  C   UNL     1     -34.756   9.815  -7.060  1.00  0.00     0.089 C 
ATOM     18  HN  UNL     1     -33.134   9.274  -8.211  1.00  0.00     0.164 HD
HETATM   19  C   UNL     1     -35.226  10.175  -5.819  1.00  0.00     0.046 C 
ENDBRANCH  11  13
ENDBRANCH  10  11
ENDBRANCH   7  10
BRANCH   4  20
HETATM   20  O   UNL     1     -31.578   7.657  -0.402  1.00  0.00    -0.356 OA
ATOM     21  HO  UNL     1     -31.154   6.831  -0.604  1.00  0.00     0.218 HD
ENDBRANCH   4  20
TORSDOF 4
ENDMDL
MODEL 9
REMARK VINA RESULT:      -7.4      3.136      5.744
REMARK  4 active torsions:
REMARK  status: ('A' for Active; 'I' for Inactive)
REMARK    1  A    between atoms: C_4  and  N_18 
REMARK    2  A    between atoms: C_7  and  O_13 
REMARK    3  A    between atoms: C_8  and  C_12 
REMARK    4  A    between atoms: C_8  and  N_18 
ROOT
HETATM    1  C   UNL     1     -32.576   8.923  -5.386  1.00  0.00     0.043 C 
HETATM    2  C   UNL     1     -34.717   9.927  -6.292  1.00  0.00     0.278 C 
HETATM    3  C   UNL     1     -35.179   9.217  -3.959  1.00  0.00     0.100 C 
HETATM    4  C   UNL     1     -33.241   9.796  -6.222  1.00  0.00     0.134 C 
HETATM    5  N   UNL     1     -35.468   9.815  -5.165  1.00  0.00    -0.331 N 
ATOM      6  HN  UNL     1     -36.394  10.240  -5.222  1.00  0.00     0.168 HD
HETATM    7  C   UNL     1     -33.925   9.254  -3.395  1.00  0.00    -0.025 C 
HETATM    8  C   UNL     1     -32.839   8.635  -4.070  1.00  0.00     0.013 C 
HETATM    9  O   UNL     1     -35.219  10.349  -7.336  1.00  0.00    -0.265 OA
ENDROOT
BRANCH   7  10
HETATM   10  C   UNL     1     -33.697   9.928  -2.079  1.00  0.00     0.160 C 
BRANCH  10  11
HETATM   11  N   UNL     1     -33.306   9.052  -0.982  1.00  0.00    -0.386 N 
ATOM     12  HN  UNL     1     -32.637   9.407  -0.299  1.00  0.00     0.160 HD
BRANCH  11  13
HETATM   13  C   UNL     1     -33.790   7.770  -0.813  1.00  0.00     0.030 C 
HETATM   14  C   UNL     1     -35.149   7.508  -0.610  1.00  0.00     0.046 C 
HETATM   15  C   UNL     1     -35.573   6.197  -0.721  1.00  0.00     0.089 C 
HETATM   16  N   UNL     1     -34.734   5.185  -0.996  1.00  0.00    -0.375 N 
HETATM   17  C   UNL     1     -33.410   5.426  -1.011  1.00  0.00     0.089 C 
ATOM     18  HN  UNL     1     -35.094   4.251  -1.189  1.00  0.00     0.164 HD
HETATM   19  C   UNL     1     -32.893   6.688  -0.837  1.00  0.00     0.046 C 
ENDBRANCH  11  13
ENDBRANCH  10  11
ENDBRANCH   7  10
BRANCH   4  20
HETATM   20  O   UNL     1     -32.515  10.647  -7.002  1.00  0.00    -0.356 OA
ATOM     21  HO  UNL     1     -31.694  10.991  -6.669  1.00  0.00     0.218 HD
ENDBRANCH   4  20
TORSDOF 4
ENDMDL
