MODEL 1
REMARK VINA RESULT:     -10.9      0.000      0.000
REMARK  4 active torsions:
REMARK  status: ('A' for Active; 'I' for Inactive)
REMARK    1  A    between atoms: C_5  and  O_28 
REMARK    2  A    between atoms: C_11  and  C_26 
REMARK    3  A    between atoms: C_14  and  N_17 
REMARK    4  A    between atoms: N_17  and  C_27 
ROOT
HETATM    1  C   UNL     1      -0.397  13.649  26.910  1.00  0.00     0.012 C 
HETATM    2  C   UNL     1      -3.412  14.277  26.719  1.00  0.00     0.030 C 
HETATM    3  C   UNL     1      -1.615  15.787  27.460  1.00  0.00     0.029 C 
HETATM    4  C   UNL     1      -2.883  15.567  26.901  1.00  0.00     0.028 C 
HETATM    5  C   UNL     1      -2.713  13.133  26.380  1.00  0.00     0.014 C 
HETATM    6  C   UNL     1      -0.514  14.935  27.434  1.00  0.00     0.003 C 
HETATM    7  C   UNL     1      -1.357  12.949  26.159  1.00  0.00    -0.025 C 
ENDROOT
BRANCH   4   8
HETATM    8  N   UNL     1      -3.616  16.639  26.443  1.00  0.00    -0.384 N 
ATOM      9  HN  UNL     1      -3.953  17.268  27.172  1.00  0.00     0.160 HD
BRANCH   8  10
HETATM   10  C   UNL     1      -3.987  17.020  25.088  1.00  0.00     0.094 C 
HETATM   11  C   UNL     1      -3.001  16.632  23.995  1.00  0.00     0.026 C 
HETATM   12  C   UNL     1      -3.087  17.732  22.951  1.00  0.00     0.003 C 
HETATM   13  C   UNL     1      -3.440  19.009  23.723  1.00  0.00     0.016 C 
HETATM   14  C   UNL     1      -4.236  18.527  24.949  1.00  0.00     0.001 C 
HETATM   15  C   UNL     1      -3.759  19.295  26.169  1.00  0.00     0.042 C 
HETATM   16  C   UNL     1      -5.676  18.742  24.661  1.00  0.00    -0.015 C 
HETATM   17  C   UNL     1      -4.635  19.601  27.262  1.00  0.00    -0.026 C 
HETATM   18  C   UNL     1      -5.896  20.144  27.385  1.00  0.00    -0.004 C 
HETATM   19  C   UNL     1      -6.905  20.119  26.419  1.00  0.00    -0.001 C 
HETATM   20  C   UNL     1      -6.711  19.410  25.228  1.00  0.00    -0.003 C 
ENDBRANCH   8  10
ENDBRANCH   4   8
BRANCH   7  21
HETATM   21  C   UNL     1      -0.897  11.906  25.220  1.00  0.00    -0.017 C 
HETATM   22  C   UNL     1      -1.433  10.591  25.255  1.00  0.00     0.013 C 
HETATM   23  C   UNL     1      -0.745   9.556  24.617  1.00  0.00     0.004 C 
HETATM   24  C   UNL     1       0.490   9.808  24.010  1.00  0.00     0.037 C 
HETATM   25  C   UNL     1       0.989  11.123  23.998  1.00  0.00     0.072 C 
HETATM   26  C   UNL     1       0.094  12.183  24.237  1.00  0.00    -0.018 C 
HETATM   27  C   UNL     1       0.173  13.485  23.481  1.00  0.00     0.052 C 
BRANCH  25  28
HETATM   28  O   UNL     1       2.309  11.327  24.045  1.00  0.00    -0.360 OA
ATOM     29  HO  UNL     1       2.844  10.801  24.628  1.00  0.00     0.217 HD
ENDBRANCH  25  28
ENDBRANCH   7  21
TORSDOF 4
ENDMDL
MODEL 2
REMARK VINA RESULT:     -10.8      1.464      3.146
REMARK  4 active torsions:
REMARK  status: ('A' for Active; 'I' for Inactive)
REMARK    1  A    between atoms: C_5  and  O_28 
REMARK    2  A    between atoms: C_11  and  C_26 
REMARK    3  A    between atoms: C_14  and  N_17 
REMARK    4  A    between atoms: N_17  and  C_27 
ROOT
HETATM    1  C   UNL     1      -0.598  15.640  27.797  1.00  0.00     0.012 C 
HETATM    2  C   UNL     1      -3.637  15.519  28.315  1.00  0.00     0.030 C 
HETATM    3  C   UNL     1      -2.239  17.531  28.085  1.00  0.00     0.029 C 
HETATM    4  C   UNL     1      -3.477  16.877  27.990  1.00  0.00     0.028 C 
HETATM    5  C   UNL     1      -2.723  14.501  28.106  1.00  0.00     0.014 C 
HETATM    6  C   UNL     1      -0.970  16.972  27.972  1.00  0.00     0.003 C 
HETATM    7  C   UNL     1      -1.448  14.546  27.564  1.00  0.00    -0.025 C 
ENDROOT
BRANCH   4   8
HETATM    8  N   UNL     1      -4.566  17.558  27.494  1.00  0.00    -0.384 N 
ATOM      9  HN  UNL     1      -5.387  16.979  27.317  1.00  0.00     0.160 HD
BRANCH   8  10
HETATM   10  C   UNL     1      -4.736  18.970  27.180  1.00  0.00     0.094 C 
HETATM   11  C   UNL     1      -5.782  19.711  28.000  1.00  0.00     0.026 C 
HETATM   12  C   UNL     1      -6.374  20.755  27.069  1.00  0.00     0.003 C 
HETATM   13  C   UNL     1      -6.294  20.149  25.663  1.00  0.00     0.016 C 
HETATM   14  C   UNL     1      -5.078  19.206  25.704  1.00  0.00     0.001 C 
HETATM   15  C   UNL     1      -5.442  17.915  24.993  1.00  0.00     0.042 C 
HETATM   16  C   UNL     1      -3.941  19.915  25.065  1.00  0.00    -0.015 C 
HETATM   17  C   UNL     1      -4.465  17.138  24.285  1.00  0.00    -0.026 C 
HETATM   18  C   UNL     1      -3.491  17.408  23.348  1.00  0.00    -0.004 C 
HETATM   19  C   UNL     1      -2.842  18.630  23.157  1.00  0.00    -0.001 C 
HETATM   20  C   UNL     1      -3.092  19.694  24.030  1.00  0.00    -0.003 C 
ENDBRANCH   8  10
ENDBRANCH   4   8
BRANCH   7  21
HETATM   21  C   UNL     1      -0.911  13.374  26.843  1.00  0.00    -0.017 C 
HETATM   22  C   UNL     1      -0.860  12.091  27.453  1.00  0.00     0.013 C 
HETATM   23  C   UNL     1      -0.040  11.105  26.900  1.00  0.00     0.004 C 
HETATM   24  C   UNL     1       0.769  11.406  25.798  1.00  0.00     0.037 C 
HETATM   25  C   UNL     1       0.692  12.687  25.225  1.00  0.00     0.072 C 
HETATM   26  C   UNL     1      -0.434  13.483  25.508  1.00  0.00    -0.018 C 
HETATM   27  C   UNL     1      -1.088  14.349  24.461  1.00  0.00     0.052 C 
BRANCH  25  28
HETATM   28  O   UNL     1       1.782  13.228  24.671  1.00  0.00    -0.360 OA
ATOM     29  HO  UNL     1       2.086  14.077  24.968  1.00  0.00     0.217 HD
ENDBRANCH  25  28
ENDBRANCH   7  21
TORSDOF 4
ENDMDL
MODEL 3
REMARK VINA RESULT:     -10.6      2.698      8.169
REMARK  4 active torsions:
REMARK  status: ('A' for Active; 'I' for Inactive)
REMARK    1  A    between atoms: C_5  and  O_28 
REMARK    2  A    between atoms: C_11  and  C_26 
REMARK    3  A    between atoms: C_14  and  N_17 
REMARK    4  A    between atoms: N_17  and  C_27 
ROOT
HETATM    1  C   UNL     1      -1.668  18.282  27.757  1.00  0.00     0.012 C 
HETATM    2  C   UNL     1      -1.820  15.833  25.886  1.00  0.00     0.030 C 
HETATM    3  C   UNL     1      -0.603  16.012  28.018  1.00  0.00     0.029 C 
HETATM    4  C   UNL     1      -1.261  15.253  27.039  1.00  0.00     0.028 C 
HETATM    5  C   UNL     1      -2.430  17.071  25.792  1.00  0.00     0.014 C 
HETATM    6  C   UNL     1      -0.812  17.350  28.341  1.00  0.00     0.003 C 
HETATM    7  C   UNL     1      -2.628  18.043  26.761  1.00  0.00    -0.025 C 
ENDROOT
BRANCH   4   8
HETATM    8  N   UNL     1      -1.436  13.902  27.234  1.00  0.00    -0.384 N 
ATOM      9  HN  UNL     1      -1.004  13.533  28.082  1.00  0.00     0.160 HD
BRANCH   8  10
HETATM   10  C   UNL     1      -2.139  12.913  26.428  1.00  0.00     0.094 C 
HETATM   11  C   UNL     1      -3.493  12.465  26.959  1.00  0.00     0.026 C 
HETATM   12  C   UNL     1      -3.634  11.008  26.553  1.00  0.00     0.003 C 
HETATM   13  C   UNL     1      -2.210  10.443  26.535  1.00  0.00     0.016 C 
HETATM   14  C   UNL     1      -1.308  11.644  26.200  1.00  0.00     0.001 C 
HETATM   15  C   UNL     1      -0.084  11.598  27.098  1.00  0.00     0.042 C 
HETATM   16  C   UNL     1      -0.967  11.559  24.757  1.00  0.00    -0.015 C 
HETATM   17  C   UNL     1       1.190  12.095  26.668  1.00  0.00    -0.026 C 
HETATM   18  C   UNL     1       1.977  11.934  25.547  1.00  0.00    -0.004 C 
HETATM   19  C   UNL     1       1.534  11.601  24.265  1.00  0.00    -0.001 C 
HETATM   20  C   UNL     1       0.163  11.499  24.008  1.00  0.00    -0.003 C 
ENDBRANCH   8  10
ENDBRANCH   4   8
BRANCH   7  21
HETATM   21  C   UNL     1      -3.798  18.941  26.676  1.00  0.00    -0.017 C 
HETATM   22  C   UNL     1      -4.546  19.293  27.832  1.00  0.00     0.013 C 
HETATM   23  C   UNL     1      -5.824  19.834  27.679  1.00  0.00     0.004 C 
HETATM   24  C   UNL     1      -6.381  19.963  26.402  1.00  0.00     0.037 C 
HETATM   25  C   UNL     1      -5.611  19.601  25.283  1.00  0.00     0.072 C 
HETATM   26  C   UNL     1      -4.215  19.495  25.434  1.00  0.00    -0.018 C 
HETATM   27  C   UNL     1      -3.255  19.965  24.370  1.00  0.00     0.052 C 
BRANCH  25  28
HETATM   28  O   UNL     1      -6.216  19.101  24.201  1.00  0.00    -0.360 OA
ATOM     29  HO  UNL     1      -6.767  18.332  24.286  1.00  0.00     0.217 HD
ENDBRANCH  25  28
ENDBRANCH   7  21
TORSDOF 4
ENDMDL
MODEL 4
REMARK VINA RESULT:     -10.5      3.093      8.500
REMARK  4 active torsions:
REMARK  status: ('A' for Active; 'I' for Inactive)
REMARK    1  A    between atoms: C_5  and  O_28 
REMARK    2  A    between atoms: C_11  and  C_26 
REMARK    3  A    between atoms: C_14  and  N_17 
REMARK    4  A    between atoms: N_17  and  C_27 
ROOT
HETATM    1  C   UNL     1      -1.832  18.278  28.129  1.00  0.00     0.012 C 
HETATM    2  C   UNL     1      -1.903  16.024  26.023  1.00  0.00     0.030 C 
HETATM    3  C   UNL     1      -0.494  16.143  28.038  1.00  0.00     0.029 C 
HETATM    4  C   UNL     1      -1.162  15.408  27.047  1.00  0.00     0.028 C 
HETATM    5  C   UNL     1      -2.656  17.180  26.124  1.00  0.00     0.014 C 
HETATM    6  C   UNL     1      -0.818  17.406  28.524  1.00  0.00     0.003 C 
HETATM    7  C   UNL     1      -2.859  18.020  27.208  1.00  0.00    -0.025 C 
ENDROOT
BRANCH   4   8
HETATM    8  N   UNL     1      -1.161  14.032  27.108  1.00  0.00    -0.384 N 
ATOM      9  HN  UNL     1      -0.515  13.635  27.791  1.00  0.00     0.160 HD
BRANCH   8  10
HETATM   10  C   UNL     1      -1.931  13.052  26.355  1.00  0.00     0.094 C 
HETATM   11  C   UNL     1      -3.294  12.694  26.932  1.00  0.00     0.026 C 
HETATM   12  C   UNL     1      -3.518  11.233  26.586  1.00  0.00     0.003 C 
HETATM   13  C   UNL     1      -2.125  10.595  26.559  1.00  0.00     0.016 C 
HETATM   14  C   UNL     1      -1.171  11.734  26.158  1.00  0.00     0.001 C 
HETATM   15  C   UNL     1       0.069  11.659  27.031  1.00  0.00     0.042 C 
HETATM   16  C   UNL     1      -0.869  11.578  24.713  1.00  0.00    -0.015 C 
HETATM   17  C   UNL     1       1.357  12.073  26.555  1.00  0.00    -0.026 C 
HETATM   18  C   UNL     1       2.108  11.830  25.425  1.00  0.00    -0.004 C 
HETATM   19  C   UNL     1       1.619  11.472  24.167  1.00  0.00    -0.001 C 
HETATM   20  C   UNL     1       0.238  11.432  23.943  1.00  0.00    -0.003 C 
ENDBRANCH   8  10
ENDBRANCH   4   8
BRANCH   7  21
HETATM   21  C   UNL     1      -4.126  18.769  27.333  1.00  0.00    -0.017 C 
HETATM   22  C   UNL     1      -4.669  19.491  26.236  1.00  0.00     0.013 C 
HETATM   23  C   UNL     1      -5.648  20.459  26.473  1.00  0.00     0.004 C 
HETATM   24  C   UNL     1      -6.035  20.755  27.785  1.00  0.00     0.037 C 
HETATM   25  C   UNL     1      -5.472  20.021  28.844  1.00  0.00     0.072 C 
HETATM   26  C   UNL     1      -4.855  18.789  28.554  1.00  0.00    -0.018 C 
HETATM   27  C   UNL     1      -4.993  17.590  29.458  1.00  0.00     0.052 C 
BRANCH  25  28
HETATM   28  O   UNL     1      -5.282  20.612  30.028  1.00  0.00    -0.360 OA
ATOM     29  HO  UNL     1      -6.024  20.983  30.490  1.00  0.00     0.217 HD
ENDBRANCH  25  28
ENDBRANCH   7  21
TORSDOF 4
ENDMDL
MODEL 5
REMARK VINA RESULT:     -10.5      2.902      7.180
REMARK  4 active torsions:
REMARK  status: ('A' for Active; 'I' for Inactive)
REMARK    1  A    between atoms: C_5  and  O_28 
REMARK    2  A    between atoms: C_11  and  C_26 
REMARK    3  A    between atoms: C_14  and  N_17 
REMARK    4  A    between atoms: N_17  and  C_27 
ROOT
HETATM    1  C   UNL     1      -1.622  17.344  27.446  1.00  0.00     0.012 C 
HETATM    2  C   UNL     1      -1.895  15.753  24.817  1.00  0.00     0.030 C 
HETATM    3  C   UNL     1      -0.860  14.999  26.919  1.00  0.00     0.029 C 
HETATM    4  C   UNL     1      -1.513  14.733  25.707  1.00  0.00     0.028 C 
HETATM    5  C   UNL     1      -2.344  17.019  25.148  1.00  0.00     0.014 C 
HETATM    6  C   UNL     1      -0.938  16.154  27.692  1.00  0.00     0.003 C 
HETATM    7  C   UNL     1      -2.511  17.608  26.392  1.00  0.00    -0.025 C 
ENDROOT
BRANCH   4   8
HETATM    8  N   UNL     1      -1.864  13.438  25.397  1.00  0.00    -0.384 N 
ATOM      9  HN  UNL     1      -1.986  13.255  24.401  1.00  0.00     0.160 HD
BRANCH   8  10
HETATM   10  C   UNL     1      -2.090  12.287  26.261  1.00  0.00     0.094 C 
HETATM   11  C   UNL     1      -1.903  10.923  25.611  1.00  0.00     0.026 C 
HETATM   12  C   UNL     1      -2.907  10.004  26.285  1.00  0.00     0.003 C 
HETATM   13  C   UNL     1      -4.094  10.896  26.668  1.00  0.00     0.016 C 
HETATM   14  C   UNL     1      -3.487  12.293  26.892  1.00  0.00     0.001 C 
HETATM   15  C   UNL     1      -4.396  13.325  26.249  1.00  0.00     0.042 C 
HETATM   16  C   UNL     1      -3.341  12.487  28.357  1.00  0.00    -0.015 C 
HETATM   17  C   UNL     1      -4.529  14.651  26.778  1.00  0.00    -0.026 C 
HETATM   18  C   UNL     1      -4.761  15.191  28.025  1.00  0.00    -0.004 C 
HETATM   19  C   UNL     1      -4.457  14.597  29.252  1.00  0.00    -0.001 C 
HETATM   20  C   UNL     1      -3.766  13.380  29.285  1.00  0.00    -0.003 C 
ENDBRANCH   8  10
ENDBRANCH   4   8
BRANCH   7  21
HETATM   21  C   UNL     1      -3.554  18.635  26.587  1.00  0.00    -0.017 C 
HETATM   22  C   UNL     1      -4.148  18.854  27.859  1.00  0.00     0.013 C 
HETATM   23  C   UNL     1      -5.351  19.559  27.938  1.00  0.00     0.004 C 
HETATM   24  C   UNL     1      -5.992  19.983  26.769  1.00  0.00     0.037 C 
HETATM   25  C   UNL     1      -5.374  19.745  25.528  1.00  0.00     0.072 C 
HETATM   26  C   UNL     1      -3.997  19.452  25.509  1.00  0.00    -0.018 C 
HETATM   27  C   UNL     1      -3.076  19.994  24.445  1.00  0.00     0.052 C 
BRANCH  25  28
HETATM   28  O   UNL     1      -6.129  19.524  24.447  1.00  0.00    -0.360 OA
ATOM     29  HO  UNL     1      -6.873  20.089  24.273  1.00  0.00     0.217 HD
ENDBRANCH  25  28
ENDBRANCH   7  21
TORSDOF 4
ENDMDL
MODEL 6
REMARK VINA RESULT:     -10.3      2.813      7.533
REMARK  4 active torsions:
REMARK  status: ('A' for Active; 'I' for Inactive)
REMARK    1  A    between atoms: C_5  and  O_28 
REMARK    2  A    between atoms: C_11  and  C_26 
REMARK    3  A    between atoms: C_14  and  N_17 
REMARK    4  A    between atoms: N_17  and  C_27 
ROOT
HETATM    1  C   UNL     1      -3.601  16.806  28.144  1.00  0.00     0.012 C 
HETATM    2  C   UNL     1      -1.359  14.696  27.938  1.00  0.00     0.030 C 
HETATM    3  C   UNL     1      -3.568  14.432  28.992  1.00  0.00     0.029 C 
HETATM    4  C   UNL     1      -2.439  13.897  28.353  1.00  0.00     0.028 C 
HETATM    5  C   UNL     1      -1.423  15.986  27.443  1.00  0.00     0.014 C 
HETATM    6  C   UNL     1      -4.085  15.718  28.870  1.00  0.00     0.003 C 
HETATM    7  C   UNL     1      -2.518  16.814  27.250  1.00  0.00    -0.025 C 
ENDROOT
BRANCH   4   8
HETATM    8  N   UNL     1      -2.406  12.554  28.050  1.00  0.00    -0.384 N 
ATOM      9  HN  UNL     1      -2.059  11.955  28.799  1.00  0.00     0.160 HD
BRANCH   8  10
HETATM   10  C   UNL     1      -2.785  11.850  26.833  1.00  0.00     0.094 C 
HETATM   11  C   UNL     1      -3.915  10.840  26.976  1.00  0.00     0.026 C 
HETATM   12  C   UNL     1      -3.604   9.729  25.987  1.00  0.00     0.003 C 
HETATM   13  C   UNL     1      -2.075   9.675  25.893  1.00  0.00     0.016 C 
HETATM   14  C   UNL     1      -1.605  11.111  26.190  1.00  0.00     0.001 C 
HETATM   15  C   UNL     1      -0.404  11.046  27.117  1.00  0.00     0.042 C 
HETATM   16  C   UNL     1      -1.296  11.758  24.891  1.00  0.00    -0.015 C 
HETATM   17  C   UNL     1       0.637  12.031  27.077  1.00  0.00    -0.026 C 
HETATM   18  C   UNL     1       1.403  12.607  26.086  1.00  0.00    -0.004 C 
HETATM   19  C   UNL     1       1.051  12.743  24.741  1.00  0.00    -0.001 C 
HETATM   20  C   UNL     1      -0.226  12.362  24.315  1.00  0.00    -0.003 C 
ENDBRANCH   8  10
ENDBRANCH   4   8
BRANCH   7  21
HETATM   21  C   UNL     1      -2.500  17.821  26.170  1.00  0.00    -0.017 C 
HETATM   22  C   UNL     1      -2.175  19.180  26.432  1.00  0.00     0.013 C 
HETATM   23  C   UNL     1      -2.508  20.155  25.489  1.00  0.00     0.004 C 
HETATM   24  C   UNL     1      -3.212  19.798  24.333  1.00  0.00     0.037 C 
HETATM   25  C   UNL     1      -3.517  18.444  24.111  1.00  0.00     0.072 C 
HETATM   26  C   UNL     1      -2.797  17.467  24.825  1.00  0.00    -0.018 C 
HETATM   27  C   UNL     1      -2.356  16.172  24.190  1.00  0.00     0.052 C 
BRANCH  25  28
HETATM   28  O   UNL     1      -4.641  18.119  23.464  1.00  0.00    -0.360 OA
ATOM     29  HO  UNL     1      -4.596  17.841  22.557  1.00  0.00     0.217 HD
ENDBRANCH  25  28
ENDBRANCH   7  21
TORSDOF 4
ENDMDL
MODEL 7
REMARK VINA RESULT:     -10.3      1.460      3.043
REMARK  4 active torsions:
REMARK  status: ('A' for Active; 'I' for Inactive)
REMARK    1  A    between atoms: C_5  and  O_28 
REMARK    2  A    between atoms: C_11  and  C_26 
REMARK    3  A    between atoms: C_14  and  N_17 
REMARK    4  A    between atoms: N_17  and  C_27 
ROOT
HETATM    1  C   UNL     1      -0.630  12.537  27.424  1.00  0.00     0.012 C 
HETATM    2  C   UNL     1      -2.902  14.523  26.781  1.00  0.00     0.030 C 
HETATM    3  C   UNL     1      -0.603  15.057  27.478  1.00  0.00     0.029 C 
HETATM    4  C   UNL     1      -1.794  15.389  26.816  1.00  0.00     0.028 C 
HETATM    5  C   UNL     1      -2.875  13.142  26.714  1.00  0.00     0.014 C 
HETATM    6  C   UNL     1      -0.087  13.787  27.719  1.00  0.00     0.003 C 
HETATM    7  C   UNL     1      -1.795  12.272  26.687  1.00  0.00    -0.025 C 
ENDROOT
BRANCH   4   8
HETATM    8  N   UNL     1      -1.871  16.568  26.110  1.00  0.00    -0.384 N 
ATOM      9  HN  UNL     1      -1.469  16.532  25.173  1.00  0.00     0.160 HD
BRANCH   8  10
HETATM   10  C   UNL     1      -2.433  17.859  26.484  1.00  0.00     0.094 C 
HETATM   11  C   UNL     1      -3.023  17.945  27.885  1.00  0.00     0.026 C 
HETATM   12  C   UNL     1      -4.189  18.914  27.783  1.00  0.00     0.003 C 
HETATM   13  C   UNL     1      -4.733  18.758  26.358  1.00  0.00     0.016 C 
HETATM   14  C   UNL     1      -3.521  18.329  25.512  1.00  0.00     0.001 C 
HETATM   15  C   UNL     1      -3.956  17.222  24.569  1.00  0.00     0.042 C 
HETATM   16  C   UNL     1      -3.026  19.533  24.798  1.00  0.00    -0.015 C 
HETATM   17  C   UNL     1      -3.359  17.050  23.276  1.00  0.00    -0.026 C 
HETATM   18  C   UNL     1      -3.074  17.878  22.211  1.00  0.00    -0.004 C 
HETATM   19  C   UNL     1      -2.851  19.255  22.270  1.00  0.00    -0.001 C 
HETATM   20  C   UNL     1      -2.806  19.901  23.510  1.00  0.00    -0.003 C 
ENDBRANCH   8  10
ENDBRANCH   4   8
BRANCH   7  21
HETATM   21  C   UNL     1      -1.910  10.976  25.987  1.00  0.00    -0.017 C 
HETATM   22  C   UNL     1      -3.041  10.136  26.168  1.00  0.00     0.013 C 
HETATM   23  C   UNL     1      -2.962   8.794  25.789  1.00  0.00     0.004 C 
HETATM   24  C   UNL     1      -1.758   8.276  25.300  1.00  0.00     0.037 C 
HETATM   25  C   UNL     1      -0.660   9.139  25.138  1.00  0.00     0.072 C 
HETATM   26  C   UNL     1      -0.896  10.526  25.097  1.00  0.00    -0.018 C 
HETATM   27  C   UNL     1      -0.150  11.439  24.157  1.00  0.00     0.052 C 
BRANCH  25  28
HETATM   28  O   UNL     1       0.580   8.667  25.307  1.00  0.00    -0.360 OA
ATOM     29  HO  UNL     1       1.304   9.275  25.392  1.00  0.00     0.217 HD
ENDBRANCH  25  28
ENDBRANCH   7  21
TORSDOF 4
ENDMDL
MODEL 8
REMARK VINA RESULT:     -10.3      1.045      1.326
REMARK  4 active torsions:
REMARK  status: ('A' for Active; 'I' for Inactive)
REMARK    1  A    between atoms: C_5  and  O_28 
REMARK    2  A    between atoms: C_11  and  C_26 
REMARK    3  A    between atoms: C_14  and  N_17 
REMARK    4  A    between atoms: N_17  and  C_27 
ROOT
HETATM    1  C   UNL     1      -1.465  12.925  27.677  1.00  0.00     0.012 C 
HETATM    2  C   UNL     1      -4.226  14.180  27.110  1.00  0.00     0.030 C 
HETATM    3  C   UNL     1      -2.200  15.325  27.913  1.00  0.00     0.029 C 
HETATM    4  C   UNL     1      -3.432  15.334  27.241  1.00  0.00     0.028 C 
HETATM    5  C   UNL     1      -3.782  12.880  26.946  1.00  0.00     0.014 C 
HETATM    6  C   UNL     1      -1.327  14.254  28.077  1.00  0.00     0.003 C 
HETATM    7  C   UNL     1      -2.491  12.380  26.888  1.00  0.00    -0.025 C 
ENDROOT
BRANCH   4   8
HETATM    8  N   UNL     1      -3.856  16.486  26.619  1.00  0.00    -0.384 N 
ATOM      9  HN  UNL     1      -4.038  17.269  27.248  1.00  0.00     0.160 HD
BRANCH   8  10
HETATM   10  C   UNL     1      -4.088  16.770  25.210  1.00  0.00     0.094 C 
HETATM   11  C   UNL     1      -3.020  16.267  24.248  1.00  0.00     0.026 C 
HETATM   12  C   UNL     1      -2.969  17.282  23.119  1.00  0.00     0.003 C 
HETATM   13  C   UNL     1      -3.344  18.626  23.755  1.00  0.00     0.016 C 
HETATM   14  C   UNL     1      -4.266  18.268  24.934  1.00  0.00     0.001 C 
HETATM   15  C   UNL     1      -3.874  19.115  26.131  1.00  0.00     0.042 C 
HETATM   16  C   UNL     1      -5.664  18.502  24.495  1.00  0.00    -0.015 C 
HETATM   17  C   UNL     1      -4.834  19.533  27.110  1.00  0.00    -0.026 C 
HETATM   18  C   UNL     1      -6.080  20.122  27.072  1.00  0.00    -0.004 C 
HETATM   19  C   UNL     1      -6.996  20.051  26.020  1.00  0.00    -0.001 C 
HETATM   20  C   UNL     1      -6.722  19.245  24.911  1.00  0.00    -0.003 C 
ENDBRANCH   8  10
ENDBRANCH   4   8
BRANCH   7  21
HETATM   21  C   UNL     1      -2.204  11.168  26.094  1.00  0.00    -0.017 C 
HETATM   22  C   UNL     1      -3.073  10.044  26.120  1.00  0.00     0.013 C 
HETATM   23  C   UNL     1      -2.607   8.811  25.658  1.00  0.00     0.004 C 
HETATM   24  C   UNL     1      -1.279   8.678  25.239  1.00  0.00     0.037 C 
HETATM   25  C   UNL     1      -0.449   9.813  25.230  1.00  0.00     0.072 C 
HETATM   26  C   UNL     1      -1.051  11.085  25.264  1.00  0.00    -0.018 C 
HETATM   27  C   UNL     1      -0.524  12.244  24.456  1.00  0.00     0.052 C 
BRANCH  25  28
HETATM   28  O   UNL     1       0.859   9.675  25.471  1.00  0.00    -0.360 OA
ATOM     29  HO  UNL     1       1.150   9.063  26.136  1.00  0.00     0.217 HD
ENDBRANCH  25  28
ENDBRANCH   7  21
TORSDOF 4
ENDMDL
MODEL 9
REMARK VINA RESULT:     -10.3      3.109      7.682
REMARK  4 active torsions:
REMARK  status: ('A' for Active; 'I' for Inactive)
REMARK    1  A    between atoms: C_5  and  O_28 
REMARK    2  A    between atoms: C_11  and  C_26 
REMARK    3  A    between atoms: C_14  and  N_17 
REMARK    4  A    between atoms: N_17  and  C_27 
ROOT
HETATM    1  C   UNL     1      -2.337  18.079  28.073  1.00  0.00     0.012 C 
HETATM    2  C   UNL     1      -2.180  16.902  25.224  1.00  0.00     0.030 C 
HETATM    3  C   UNL     1      -1.015  16.101  27.239  1.00  0.00     0.029 C 
HETATM    4  C   UNL     1      -1.568  15.878  25.969  1.00  0.00     0.028 C 
HETATM    5  C   UNL     1      -2.930  17.954  25.719  1.00  0.00     0.014 C 
HETATM    6  C   UNL     1      -1.383  17.066  28.171  1.00  0.00     0.003 C 
HETATM    7  C   UNL     1      -3.252  18.282  27.027  1.00  0.00    -0.025 C 
ENDROOT
BRANCH   4   8
HETATM    8  N   UNL     1      -1.585  14.602  25.452  1.00  0.00    -0.384 N 
ATOM      9  HN  UNL     1      -1.710  14.552  24.441  1.00  0.00     0.160 HD
BRANCH   8  10
HETATM   10  C   UNL     1      -1.455  13.312  26.115  1.00  0.00     0.094 C 
HETATM   11  C   UNL     1      -0.858  12.192  25.275  1.00  0.00     0.026 C 
HETATM   12  C   UNL     1      -1.538  10.917  25.743  1.00  0.00     0.003 C 
HETATM   13  C   UNL     1      -2.942  11.337  26.191  1.00  0.00     0.016 C 
HETATM   14  C   UNL     1      -2.792  12.795  26.661  1.00  0.00     0.001 C 
HETATM   15  C   UNL     1      -3.968  13.598  26.134  1.00  0.00     0.042 C 
HETATM   16  C   UNL     1      -2.721  12.782  28.144  1.00  0.00    -0.015 C 
HETATM   17  C   UNL     1      -4.502  14.719  26.852  1.00  0.00    -0.026 C 
HETATM   18  C   UNL     1      -4.895  14.952  28.153  1.00  0.00    -0.004 C 
HETATM   19  C   UNL     1      -4.433  14.284  29.289  1.00  0.00    -0.001 C 
HETATM   20  C   UNL     1      -3.404  13.343  29.173  1.00  0.00    -0.003 C 
ENDBRANCH   8  10
ENDBRANCH   4   8
BRANCH   7  21
HETATM   21  C   UNL     1      -4.518  18.983  27.321  1.00  0.00    -0.017 C 
HETATM   22  C   UNL     1      -5.290  19.580  26.289  1.00  0.00     0.013 C 
HETATM   23  C   UNL     1      -6.267  20.521  26.624  1.00  0.00     0.004 C 
HETATM   24  C   UNL     1      -6.431  20.914  27.956  1.00  0.00     0.037 C 
HETATM   25  C   UNL     1      -5.646  20.301  28.950  1.00  0.00     0.072 C 
HETATM   26  C   UNL     1      -5.018  19.077  28.650  1.00  0.00    -0.018 C 
HETATM   27  C   UNL     1      -4.922  17.958  29.655  1.00  0.00     0.052 C 
BRANCH  25  28
HETATM   28  O   UNL     1      -5.284  21.003  30.029  1.00  0.00    -0.360 OA
ATOM     29  HO  UNL     1      -5.478  20.663  30.894  1.00  0.00     0.217 HD
ENDBRANCH  25  28
ENDBRANCH   7  21
TORSDOF 4
ENDMDL
