MODEL 1
REMARK VINA RESULT:      -8.4      0.000      0.000
REMARK  3 active torsions:
REMARK  status: ('A' for Active; 'I' for Inactive)
REMARK    1  A    between atoms: N_3  and  C_12 
REMARK    2  A    between atoms: N_3  and  N_15 
REMARK    3  A    between atoms: C_7  and  C_11 
ROOT
HETATM    1  C   UNL     1      19.978  13.386  66.348  1.00  0.00     0.020 C 
HETATM    2  C   UNL     1      19.621  15.265  70.686  1.00  0.00     0.032 C 
HETATM    3  C   UNL     1      19.139  12.982  65.135  1.00  0.00     0.013 C 
HETATM    4  C   UNL     1      19.340  13.006  67.665  1.00  0.00    -0.065 C 
HETATM    5  C   UNL     1      18.579  11.749  67.847  1.00  0.00     0.036 C 
HETATM    6  C   UNL     1      18.025  11.155  66.554  1.00  0.00     0.008 C 
HETATM    7  C   UNL     1      17.928  12.105  65.363  1.00  0.00    -0.018 C 
HETATM    8  C   UNL     1      20.243  16.328  70.025  1.00  0.00     0.048 C 
HETATM    9  C   UNL     1      20.173  14.902  66.477  1.00  0.00     0.048 C 
HETATM   10  C   UNL     1      20.212  16.390  68.625  1.00  0.00     0.039 C 
HETATM   11  C   UNL     1      19.158  14.166  69.961  1.00  0.00     0.014 C 
HETATM   12  C   UNL     1      19.411  14.106  68.591  1.00  0.00    -0.027 C 
HETATM   13  C   UNL     1      16.712  12.995  65.606  1.00  0.00     0.010 C 
HETATM   14  C   UNL     1      19.894  15.239  67.925  1.00  0.00    -0.045 C 
ENDROOT
BRANCH   8  15
HETATM   15  N   UNL     1      20.959  17.278  70.775  1.00  0.00    -0.301 N 
ATOM     16  HN  UNL     1      21.746  16.999  71.362  1.00  0.00     0.187 HD
BRANCH  15  17
HETATM   17  N   UNL     1      20.593  18.509  70.698  1.00  0.00    -0.309 N 
HETATM   18  C   UNL     1      21.500  19.414  70.321  1.00  0.00     0.136 C 
ATOM     19  HN  UNL     1      19.636  18.786  70.920  1.00  0.00     0.186 HD
BRANCH  18  20
HETATM   20  C   UNL     1      22.324  19.002  69.166  1.00  0.00     0.049 C 
HETATM   21  N   UNL     1      23.355  18.122  69.243  1.00  0.00    -0.365 N 
HETATM   22  C   UNL     1      23.722  17.788  67.966  1.00  0.00     0.088 C 
ATOM     23  HN  UNL     1      23.781  17.771  70.101  1.00  0.00     0.165 HD
HETATM   24  C   UNL     1      23.086  18.652  67.112  1.00  0.00     0.019 C 
HETATM   25  C   UNL     1      22.251  19.471  67.869  1.00  0.00     0.032 C 
ENDBRANCH  18  20
ENDBRANCH  15  17
ENDBRANCH   8  15
TORSDOF 3
ENDMDL
MODEL 2
REMARK VINA RESULT:      -8.3      2.532      7.178
REMARK  3 active torsions:
REMARK  status: ('A' for Active; 'I' for Inactive)
REMARK    1  A    between atoms: N_3  and  C_12 
REMARK    2  A    between atoms: N_3  and  N_15 
REMARK    3  A    between atoms: C_7  and  C_11 
ROOT
HETATM    1  C   UNL     1      21.802  18.216  70.483  1.00  0.00     0.020 C 
HETATM    2  C   UNL     1      20.291  14.891  67.460  1.00  0.00     0.032 C 
HETATM    3  C   UNL     1      21.841  19.730  70.690  1.00  0.00     0.013 C 
HETATM    4  C   UNL     1      22.099  17.804  69.060  1.00  0.00    -0.065 C 
HETATM    5  C   UNL     1      23.099  18.503  68.220  1.00  0.00     0.036 C 
HETATM    6  C   UNL     1      23.393  19.937  68.656  1.00  0.00     0.008 C 
HETATM    7  C   UNL     1      22.353  20.594  69.560  1.00  0.00    -0.018 C 
HETATM    8  C   UNL     1      19.395  14.672  68.511  1.00  0.00     0.048 C 
HETATM    9  C   UNL     1      20.422  17.600  70.747  1.00  0.00     0.048 C 
HETATM   10  C   UNL     1      19.203  15.666  69.480  1.00  0.00     0.039 C 
HETATM   11  C   UNL     1      21.144  15.995  67.488  1.00  0.00     0.014 C 
HETATM   12  C   UNL     1      21.152  16.814  68.617  1.00  0.00    -0.027 C 
HETATM   13  C   UNL     1      21.180  20.988  68.668  1.00  0.00     0.010 C 
HETATM   14  C   UNL     1      20.150  16.671  69.584  1.00  0.00    -0.045 C 
ENDROOT
BRANCH   8  15
HETATM   15  N   UNL     1      18.759  13.423  68.621  1.00  0.00    -0.301 N 
ATOM     16  HN  UNL     1      19.298  12.570  68.773  1.00  0.00     0.187 HD
BRANCH  15  17
HETATM   17  N   UNL     1      17.476  13.388  68.524  1.00  0.00    -0.309 N 
HETATM   18  C   UNL     1      16.936  13.402  67.302  1.00  0.00     0.136 C 
ATOM     19  HN  UNL     1      16.888  13.350  69.357  1.00  0.00     0.186 HD
BRANCH  18  20
HETATM   20  C   UNL     1      17.596  12.500  66.336  1.00  0.00     0.049 C 
HETATM   21  N   UNL     1      18.469  12.914  65.383  1.00  0.00    -0.365 N 
HETATM   22  C   UNL     1      19.066  11.804  64.845  1.00  0.00     0.088 C 
ATOM     23  HN  UNL     1      18.649  13.882  65.114  1.00  0.00     0.165 HD
HETATM   24  C   UNL     1      18.377  10.706  65.290  1.00  0.00     0.019 C 
HETATM   25  C   UNL     1      17.399  11.141  66.182  1.00  0.00     0.032 C 
ENDBRANCH  18  20
ENDBRANCH  15  17
ENDBRANCH   8  15
TORSDOF 3
ENDMDL
MODEL 3
REMARK VINA RESULT:      -8.1      2.654      6.707
REMARK  3 active torsions:
REMARK  status: ('A' for Active; 'I' for Inactive)
REMARK    1  A    between atoms: N_3  and  C_12 
REMARK    2  A    between atoms: N_3  and  N_15 
REMARK    3  A    between atoms: C_7  and  C_11 
ROOT
HETATM    1  C   UNL     1      21.411  17.541  67.386  1.00  0.00     0.020 C 
HETATM    2  C   UNL     1      19.052  14.587  70.247  1.00  0.00     0.032 C 
HETATM    3  C   UNL     1      22.811  18.084  67.102  1.00  0.00     0.013 C 
HETATM    4  C   UNL     1      21.096  17.453  68.862  1.00  0.00    -0.065 C 
HETATM    5  C   UNL     1      21.561  18.466  69.837  1.00  0.00     0.036 C 
HETATM    6  C   UNL     1      22.783  19.261  69.383  1.00  0.00     0.008 C 
HETATM    7  C   UNL     1      23.610  18.644  68.258  1.00  0.00    -0.018 C 
HETATM    8  C   UNL     1      18.988  13.855  69.058  1.00  0.00     0.048 C 
HETATM    9  C   UNL     1      21.203  16.102  66.896  1.00  0.00     0.048 C 
HETATM   10  C   UNL     1      19.876  14.148  68.014  1.00  0.00     0.039 C 
HETATM   11  C   UNL     1      19.844  15.734  70.321  1.00  0.00     0.014 C 
HETATM   12  C   UNL     1      20.488  16.185  69.169  1.00  0.00    -0.027 C 
HETATM   13  C   UNL     1      24.433  17.520  68.880  1.00  0.00     0.010 C 
HETATM   14  C   UNL     1      20.537  15.364  68.037  1.00  0.00    -0.045 C 
ENDROOT
BRANCH   8  15
HETATM   15  N   UNL     1      17.978  12.890  68.900  1.00  0.00    -0.301 N 
ATOM     16  HN  UNL     1      18.136  11.917  69.161  1.00  0.00     0.187 HD
BRANCH  15  17
HETATM   17  N   UNL     1      16.849  13.272  68.416  1.00  0.00    -0.309 N 
HETATM   18  C   UNL     1      16.779  13.532  67.107  1.00  0.00     0.136 C 
ATOM     19  HN  UNL     1      16.029  13.372  69.014  1.00  0.00     0.186 HD
BRANCH  18  20
HETATM   20  C   UNL     1      17.445  12.528  66.253  1.00  0.00     0.049 C 
HETATM   21  N   UNL     1      18.436  12.817  65.371  1.00  0.00    -0.365 N 
HETATM   22  C   UNL     1      18.981  11.634  64.945  1.00  0.00     0.088 C 
ATOM     23  HN  UNL     1      18.725  13.750  65.078  1.00  0.00     0.165 HD
HETATM   24  C   UNL     1      18.159  10.622  65.370  1.00  0.00     0.019 C 
HETATM   25  C   UNL     1      17.144  11.184  66.142  1.00  0.00     0.032 C 
ENDBRANCH  18  20
ENDBRANCH  15  17
ENDBRANCH   8  15
TORSDOF 3
ENDMDL
MODEL 4
REMARK VINA RESULT:      -7.3      3.354      6.866
REMARK  3 active torsions:
REMARK  status: ('A' for Active; 'I' for Inactive)
REMARK    1  A    between atoms: N_3  and  C_12 
REMARK    2  A    between atoms: N_3  and  N_15 
REMARK    3  A    between atoms: C_7  and  C_11 
ROOT
HETATM    1  C   UNL     1      20.761  17.048  67.933  1.00  0.00     0.020 C 
HETATM    2  C   UNL     1      20.056  15.337  72.298  1.00  0.00     0.032 C 
HETATM    3  C   UNL     1      21.868  17.446  66.958  1.00  0.00     0.013 C 
HETATM    4  C   UNL     1      21.027  17.501  69.351  1.00  0.00    -0.065 C 
HETATM    5  C   UNL     1      21.673  18.796  69.665  1.00  0.00     0.036 C 
HETATM    6  C   UNL     1      22.519  19.368  68.530  1.00  0.00     0.008 C 
HETATM    7  C   UNL     1      22.950  18.383  67.446  1.00  0.00    -0.018 C 
HETATM    8  C   UNL     1      19.661  14.225  71.549  1.00  0.00     0.048 C 
HETATM    9  C   UNL     1      20.590  15.530  68.075  1.00  0.00     0.048 C 
HETATM   10  C   UNL     1      20.052  14.117  70.207  1.00  0.00     0.039 C 
HETATM   11  C   UNL     1      20.653  16.429  71.667  1.00  0.00     0.014 C 
HETATM   12  C   UNL     1      20.758  16.431  70.276  1.00  0.00    -0.027 C 
HETATM   13  C   UNL     1      24.093  17.557  68.031  1.00  0.00     0.010 C 
HETATM   14  C   UNL     1      20.500  15.256  69.561  1.00  0.00    -0.045 C 
ENDROOT
BRANCH   8  15
HETATM   15  N   UNL     1      18.809  13.272  72.132  1.00  0.00    -0.301 N 
ATOM     16  HN  UNL     1      19.168  12.372  72.453  1.00  0.00     0.187 HD
BRANCH  15  17
HETATM   17  N   UNL     1      17.562  13.568  72.250  1.00  0.00    -0.309 N 
HETATM   18  C   UNL     1      16.949  13.266  73.398  1.00  0.00     0.136 C 
ATOM     19  HN  UNL     1      17.057  14.019  71.488  1.00  0.00     0.186 HD
BRANCH  18  20
HETATM   20  C   UNL     1      17.722  13.610  74.608  1.00  0.00     0.049 C 
HETATM   21  N   UNL     1      18.849  12.962  75.000  1.00  0.00    -0.365 N 
HETATM   22  C   UNL     1      19.431  13.693  76.002  1.00  0.00     0.088 C 
ATOM     23  HN  UNL     1      19.201  12.084  74.616  1.00  0.00     0.165 HD
HETATM   24  C   UNL     1      18.531  14.651  76.393  1.00  0.00     0.019 C 
HETATM   25  C   UNL     1      17.417  14.562  75.561  1.00  0.00     0.032 C 
ENDBRANCH  18  20
ENDBRANCH  15  17
ENDBRANCH   8  15
TORSDOF 3
ENDMDL
MODEL 5
REMARK VINA RESULT:      -7.2      1.352      3.021
REMARK  3 active torsions:
REMARK  status: ('A' for Active; 'I' for Inactive)
REMARK    1  A    between atoms: N_3  and  C_12 
REMARK    2  A    between atoms: N_3  and  N_15 
REMARK    3  A    between atoms: C_7  and  C_11 
ROOT
HETATM    1  C   UNL     1      18.317  14.006  68.016  1.00  0.00     0.020 C 
HETATM    2  C   UNL     1      22.442  15.877  66.616  1.00  0.00     0.032 C 
HETATM    3  C   UNL     1      17.564  12.679  68.109  1.00  0.00     0.013 C 
HETATM    4  C   UNL     1      19.065  14.174  66.713  1.00  0.00    -0.065 C 
HETATM    5  C   UNL     1      18.531  13.691  65.420  1.00  0.00     0.036 C 
HETATM    6  C   UNL     1      17.497  12.574  65.545  1.00  0.00     0.008 C 
HETATM    7  C   UNL     1      17.479  11.816  66.870  1.00  0.00    -0.018 C 
HETATM    8  C   UNL     1      22.591  16.002  68.000  1.00  0.00     0.048 C 
HETATM    9  C   UNL     1      19.417  14.158  69.075  1.00  0.00     0.048 C 
HETATM   10  C   UNL     1      21.787  15.238  68.857  1.00  0.00     0.039 C 
HETATM   11  C   UNL     1      21.365  15.162  66.090  1.00  0.00     0.014 C 
HETATM   12  C   UNL     1      20.397  14.662  66.961  1.00  0.00    -0.027 C 
HETATM   13  C   UNL     1      18.670  10.862  66.849  1.00  0.00     0.010 C 
HETATM   14  C   UNL     1      20.639  14.662  68.340  1.00  0.00    -0.045 C 
ENDROOT
BRANCH   8  15
HETATM   15  N   UNL     1      23.492  16.953  68.511  1.00  0.00    -0.301 N 
ATOM     16  HN  UNL     1      23.727  16.975  69.503  1.00  0.00     0.187 HD
BRANCH  15  17
HETATM   17  N   UNL     1      24.011  17.795  67.688  1.00  0.00    -0.309 N 
HETATM   18  C   UNL     1      23.254  18.812  67.266  1.00  0.00     0.136 C 
ATOM     19  HN  UNL     1      24.973  17.689  67.366  1.00  0.00     0.186 HD
BRANCH  18  20
HETATM   20  C   UNL     1      22.480  19.476  68.335  1.00  0.00     0.049 C 
HETATM   21  N   UNL     1      21.375  18.944  68.918  1.00  0.00    -0.365 N 
HETATM   22  C   UNL     1      21.071  19.701  70.019  1.00  0.00     0.088 C 
ATOM     23  HN  UNL     1      20.863  18.124  68.593  1.00  0.00     0.165 HD
HETATM   24  C   UNL     1      21.836  20.838  69.964  1.00  0.00     0.019 C 
HETATM   25  C   UNL     1      22.682  20.737  68.862  1.00  0.00     0.032 C 
ENDBRANCH  18  20
ENDBRANCH  15  17
ENDBRANCH   8  15
TORSDOF 3
ENDMDL
MODEL 6
REMARK VINA RESULT:      -6.9      3.456      6.895
REMARK  3 active torsions:
REMARK  status: ('A' for Active; 'I' for Inactive)
REMARK    1  A    between atoms: N_3  and  C_12 
REMARK    2  A    between atoms: N_3  and  N_15 
REMARK    3  A    between atoms: C_7  and  C_11 
ROOT
HETATM    1  C   UNL     1      22.784  17.911  69.616  1.00  0.00     0.020 C 
HETATM    2  C   UNL     1      20.553  13.749  70.043  1.00  0.00     0.032 C 
HETATM    3  C   UNL     1      22.919  19.117  68.687  1.00  0.00     0.013 C 
HETATM    4  C   UNL     1      22.759  16.592  68.876  1.00  0.00    -0.065 C 
HETATM    5  C   UNL     1      23.583  16.339  67.671  1.00  0.00     0.036 C 
HETATM    6  C   UNL     1      24.012  17.601  66.928  1.00  0.00     0.008 C 
HETATM    7  C   UNL     1      23.211  18.866  67.225  1.00  0.00    -0.018 C 
HETATM    8  C   UNL     1      19.892  14.468  71.043  1.00  0.00     0.048 C 
HETATM    9  C   UNL     1      21.470  17.894  70.408  1.00  0.00     0.048 C 
HETATM   10  C   UNL     1      19.944  15.869  71.041  1.00  0.00     0.039 C 
HETATM   11  C   UNL     1      21.430  14.402  69.176  1.00  0.00     0.014 C 
HETATM   12  C   UNL     1      21.706  15.753  69.385  1.00  0.00    -0.027 C 
HETATM   13  C   UNL     1      21.889  18.738  66.472  1.00  0.00     0.010 C 
HETATM   14  C   UNL     1      20.926  16.488  70.286  1.00  0.00    -0.045 C 
ENDROOT
BRANCH   8  15
HETATM   15  N   UNL     1      19.251  13.770  72.081  1.00  0.00    -0.301 N 
ATOM     16  HN  UNL     1      19.789  13.277  72.794  1.00  0.00     0.187 HD
BRANCH  15  17
HETATM   17  N   UNL     1      17.964  13.771  72.104  1.00  0.00    -0.309 N 
HETATM   18  C   UNL     1      17.353  13.231  73.163  1.00  0.00     0.136 C 
ATOM     19  HN  UNL     1      17.426  14.173  71.337  1.00  0.00     0.186 HD
BRANCH  18  20
HETATM   20  C   UNL     1      17.938  13.617  74.463  1.00  0.00     0.049 C 
HETATM   21  N   UNL     1      19.170  13.235  74.886  1.00  0.00    -0.365 N 
HETATM   22  C   UNL     1      19.481  13.968  76.002  1.00  0.00     0.088 C 
ATOM     23  HN  UNL     1      19.761  12.527  74.450  1.00  0.00     0.165 HD
HETATM   24  C   UNL     1      18.339  14.612  76.405  1.00  0.00     0.019 C 
HETATM   25  C   UNL     1      17.338  14.341  75.475  1.00  0.00     0.032 C 
ENDBRANCH  18  20
ENDBRANCH  15  17
ENDBRANCH   8  15
TORSDOF 3
ENDMDL
MODEL 7
REMARK VINA RESULT:      -6.7      1.232      2.223
REMARK  3 active torsions:
REMARK  status: ('A' for Active; 'I' for Inactive)
REMARK    1  A    between atoms: N_3  and  C_12 
REMARK    2  A    between atoms: N_3  and  N_15 
REMARK    3  A    between atoms: C_7  and  C_11 
ROOT
HETATM    1  C   UNL     1      19.742  12.841  65.917  1.00  0.00     0.020 C 
HETATM    2  C   UNL     1      20.894  15.996  69.264  1.00  0.00     0.032 C 
HETATM    3  C   UNL     1      18.625  12.471  64.942  1.00  0.00     0.013 C 
HETATM    4  C   UNL     1      19.230  13.235  67.284  1.00  0.00    -0.065 C 
HETATM    5  C   UNL     1      18.066  12.574  67.919  1.00  0.00     0.036 C 
HETATM    6  C   UNL     1      17.116  11.894  66.936  1.00  0.00     0.008 C 
HETATM    7  C   UNL     1      17.218  12.341  65.480  1.00  0.00    -0.018 C 
HETATM    8  C   UNL     1      21.776  16.397  68.256  1.00  0.00     0.048 C 
HETATM    9  C   UNL     1      20.553  14.068  65.480  1.00  0.00     0.048 C 
HETATM   10  C   UNL     1      21.543  16.002  66.931  1.00  0.00     0.039 C 
HETATM   11  C   UNL     1      19.913  15.040  68.995  1.00  0.00     0.014 C 
HETATM   12  C   UNL     1      19.892  14.429  67.742  1.00  0.00    -0.027 C 
HETATM   13  C   UNL     1      16.525  13.696  65.385  1.00  0.00     0.010 C 
HETATM   14  C   UNL     1      20.676  14.947  66.705  1.00  0.00    -0.045 C 
ENDROOT
BRANCH   8  15
HETATM   15  N   UNL     1      22.927  17.125  68.602  1.00  0.00    -0.301 N 
ATOM     16  HN  UNL     1      23.289  17.116  69.556  1.00  0.00     0.187 HD
BRANCH  15  17
HETATM   17  N   UNL     1      23.511  17.805  67.678  1.00  0.00    -0.309 N 
HETATM   18  C   UNL     1      22.945  18.949  67.283  1.00  0.00     0.136 C 
ATOM     19  HN  UNL     1      24.383  17.480  67.260  1.00  0.00     0.186 HD
BRANCH  18  20
HETATM   20  C   UNL     1      22.465  19.802  68.389  1.00  0.00     0.049 C 
HETATM   21  N   UNL     1      21.429  19.480  69.205  1.00  0.00    -0.365 N 
HETATM   22  C   UNL     1      21.425  20.362  70.253  1.00  0.00     0.088 C 
ATOM     23  HN  UNL     1      20.769  18.715  69.062  1.00  0.00     0.165 HD
HETATM   24  C   UNL     1      22.300  21.373  69.948  1.00  0.00     0.019 C 
HETATM   25  C   UNL     1      22.913  21.062  68.736  1.00  0.00     0.032 C 
ENDBRANCH  18  20
ENDBRANCH  15  17
ENDBRANCH   8  15
TORSDOF 3
ENDMDL
MODEL 8
REMARK VINA RESULT:      -6.6      4.744      7.226
REMARK  3 active torsions:
REMARK  status: ('A' for Active; 'I' for Inactive)
REMARK    1  A    between atoms: N_3  and  C_12 
REMARK    2  A    between atoms: N_3  and  N_15 
REMARK    3  A    between atoms: C_7  and  C_11 
ROOT
HETATM    1  C   UNL     1      21.068  14.079  69.828  1.00  0.00     0.020 C 
HETATM    2  C   UNL     1      17.167  13.320  72.412  1.00  0.00     0.032 C 
HETATM    3  C   UNL     1      21.669  15.042  68.805  1.00  0.00     0.013 C 
HETATM    4  C   UNL     1      19.615  13.760  69.562  1.00  0.00    -0.065 C 
HETATM    5  C   UNL     1      19.071  13.605  68.193  1.00  0.00     0.036 C 
HETATM    6  C   UNL     1      19.891  14.299  67.109  1.00  0.00     0.008 C 
HETATM    7  C   UNL     1      20.850  15.389  67.581  1.00  0.00    -0.018 C 
HETATM    8  C   UNL     1      18.047  13.698  73.431  1.00  0.00     0.048 C 
HETATM    9  C   UNL     1      21.050  14.639  71.256  1.00  0.00     0.048 C 
HETATM   10  C   UNL     1      19.226  14.386  73.110  1.00  0.00     0.039 C 
HETATM   11  C   UNL     1      17.552  13.437  71.076  1.00  0.00     0.014 C 
HETATM   12  C   UNL     1      18.854  13.842  70.782  1.00  0.00    -0.027 C 
HETATM   13  C   UNL     1      20.003  16.621  67.886  1.00  0.00     0.010 C 
HETATM   14  C   UNL     1      19.665  14.358  71.798  1.00  0.00    -0.045 C 
ENDROOT
BRANCH   8  15
HETATM   15  N   UNL     1      17.774  13.309  74.753  1.00  0.00    -0.301 N 
ATOM     16  HN  UNL     1      17.289  12.434  74.955  1.00  0.00     0.187 HD
BRANCH  15  17
HETATM   17  N   UNL     1      18.154  14.089  75.703  1.00  0.00    -0.309 N 
HETATM   18  C   UNL     1      18.193  13.598  76.945  1.00  0.00     0.136 C 
ATOM     19  HN  UNL     1      18.419  15.056  75.513  1.00  0.00     0.186 HD
BRANCH  18  20
HETATM   20  C   UNL     1      18.798  12.255  77.048  1.00  0.00     0.049 C 
HETATM   21  N   UNL     1      20.029  11.936  76.570  1.00  0.00    -0.365 N 
HETATM   22  C   UNL     1      20.363  10.699  77.054  1.00  0.00     0.088 C 
ATOM     23  HN  UNL     1      20.603  12.516  75.958  1.00  0.00     0.165 HD
HETATM   24  C   UNL     1      19.237  10.156  77.619  1.00  0.00     0.019 C 
HETATM   25  C   UNL     1      18.221  11.108  77.558  1.00  0.00     0.032 C 
ENDBRANCH  18  20
ENDBRANCH  15  17
ENDBRANCH   8  15
TORSDOF 3
ENDMDL
MODEL 9
REMARK VINA RESULT:      -6.5      4.639      8.554
REMARK  3 active torsions:
REMARK  status: ('A' for Active; 'I' for Inactive)
REMARK    1  A    between atoms: N_3  and  C_12 
REMARK    2  A    between atoms: N_3  and  N_15 
REMARK    3  A    between atoms: C_7  and  C_11 
ROOT
HETATM    1  C   UNL     1      19.479  13.822  69.423  1.00  0.00     0.020 C 
HETATM    2  C   UNL     1      17.094  13.160  65.379  1.00  0.00     0.032 C 
HETATM    3  C   UNL     1      20.081  14.917  70.303  1.00  0.00     0.013 C 
HETATM    4  C   UNL     1      19.727  14.041  67.948  1.00  0.00    -0.065 C 
HETATM    5  C   UNL     1      20.995  14.605  67.430  1.00  0.00     0.036 C 
HETATM    6  C   UNL     1      21.778  15.431  68.447  1.00  0.00     0.008 C 
HETATM    7  C   UNL     1      20.993  15.935  69.656  1.00  0.00    -0.018 C 
HETATM    8  C   UNL     1      16.087  12.841  66.295  1.00  0.00     0.048 C 
HETATM    9  C   UNL     1      17.949  13.739  69.513  1.00  0.00     0.048 C 
HETATM   10  C   UNL     1      16.204  13.256  67.629  1.00  0.00     0.039 C 
HETATM   11  C   UNL     1      18.301  13.699  65.827  1.00  0.00     0.014 C 
HETATM   12  C   UNL     1      18.518  13.823  67.199  1.00  0.00    -0.027 C 
HETATM   13  C   UNL     1      20.154  17.116  69.176  1.00  0.00     0.010 C 
HETATM   14  C   UNL     1      17.451  13.645  68.087  1.00  0.00    -0.045 C 
ENDROOT
BRANCH   8  15
HETATM   15  N   UNL     1      15.010  12.039  65.879  1.00  0.00    -0.301 N 
ATOM     16  HN  UNL     1      14.448  12.293  65.066  1.00  0.00     0.187 HD
BRANCH  15  17
HETATM   17  N   UNL     1      14.755  10.974  66.555  1.00  0.00    -0.309 N 
HETATM   18  C   UNL     1      13.559  10.873  67.144  1.00  0.00     0.136 C 
ATOM     19  HN  UNL     1      15.445  10.228  66.638  1.00  0.00     0.186 HD
BRANCH  18  20
HETATM   20  C   UNL     1      12.426  11.281  66.289  1.00  0.00     0.049 C 
HETATM   21  N   UNL     1      11.551  12.270  66.606  1.00  0.00    -0.365 N 
HETATM   22  C   UNL     1      10.799  12.542  65.494  1.00  0.00     0.088 C 
ATOM     23  HN  UNL     1      11.470  12.731  67.513  1.00  0.00     0.165 HD
HETATM   24  C   UNL     1      11.039  11.551  64.578  1.00  0.00     0.019 C 
HETATM   25  C   UNL     1      12.018  10.708  65.100  1.00  0.00     0.032 C 
ENDBRANCH  18  20
ENDBRANCH  15  17
ENDBRANCH   8  15
TORSDOF 3
ENDMDL
