REMARK  1 active torsions:
REMARK  status: ('A' for Active; 'I' for Inactive)
REMARK    1  A    between atoms: C_5  and  C_10 
ROOT
HETATM    1  C   UNL     1      21.186  15.519  66.734  1.00  0.00     0.005 C 
HETATM    2  C   UNL     1      19.371  16.276  69.139  1.00  0.00     0.010 C 
HETATM    3  C   UNL     1      21.362  17.658  68.168  1.00  0.00    -0.006 C 
HETATM    4  C   UNL     1      20.812  20.129  68.612  1.00  0.00    -0.006 C 
HETATM    5  C   UNL     1      18.021  13.429  67.095  1.00  0.00     0.087 C 
HETATM    6  C   UNL     1      21.398  21.553  68.574  1.00  0.00     0.006 C 
HETATM    7  C   UNL     1      19.353  14.976  68.367  1.00  0.00    -0.009 C 
HETATM    8  C   UNL     1      20.710  19.727  70.100  1.00  0.00    -0.009 C 
HETATM    9  C   UNL     1      23.184  19.236  68.674  1.00  0.00     0.010 C 
HETATM   10  C   UNL     1      17.940  14.384  68.296  1.00  0.00     0.020 C 
HETATM   11  C   UNL     1      21.420  17.032  66.762  1.00  0.00     0.006 C 
HETATM   12  C   UNL     1      19.977  17.642  68.850  1.00  0.00    -0.009 C 
HETATM   13  C   UNL     1      23.163  20.279  69.795  1.00  0.00    -0.014 C 
HETATM   14  C   UNL     1      22.796  21.625  69.180  1.00  0.00     0.005 C 
HETATM   15  C   UNL     1      22.061  19.903  70.799  1.00  0.00     0.009 C 
HETATM   16  C   UNL     1      20.187  18.294  70.234  1.00  0.00     0.010 C 
HETATM   17  C   UNL     1      21.815  19.136  67.991  1.00  0.00    -0.005 C 
HETATM   18  C   UNL     1      19.068  14.025  66.155  1.00  0.00     0.020 C 
HETATM   19  C   UNL     1      19.703  15.194  66.896  1.00  0.00    -0.010 C 
ENDROOT
BRANCH   5  20
HETATM   20  C   UNL     1      16.677  13.269  66.422  1.00  0.00     0.177 C 
HETATM   21  O   UNL     1      15.663  13.217  67.159  1.00  0.00    -0.648 OA
HETATM   22  O   UNL     1      16.584  13.371  65.175  1.00  0.00    -0.648 OA
ENDBRANCH   5  20
TORSDOF 1
