REMARK  2 active torsions:
REMARK  status: ('A' for Active; 'I' for Inactive)
REMARK    1  A    between atoms: S_3  and  O_7 
REMARK    2  A    between atoms: C_5  and  O_7 
ROOT
HETATM    1  C   UNL     1      16.290   3.921  12.402  1.00  0.00     0.000 C 
HETATM    2  C   UNL     1      18.190   2.999  11.231  1.00  0.00     0.038 C 
HETATM    3  C   UNL     1      17.607   3.415  10.031  1.00  0.00     0.092 C 
HETATM    4  C   UNL     1      15.875   4.550  11.244  1.00  0.00     0.003 C 
HETATM    5  C   UNL     1      16.593   4.361  10.073  1.00  0.00     0.038 C 
HETATM    6  C   UNL     1      17.486   3.222  12.408  1.00  0.00     0.003 C 
ENDROOT
BRANCH   3   7
HETATM    7  O   UNL     1      18.018   2.976   8.785  1.00  0.00    -0.214 OA
BRANCH   7   8
HETATM    8  S   UNL     1      19.233   2.061   8.558  1.00  0.00     0.257 S 
HETATM    9  O   UNL     1      19.000   0.756   9.224  1.00  0.00    -0.572 OA
HETATM   10  O   UNL     1      19.433   1.879   7.104  1.00  0.00    -0.572 OA
HETATM   11  O   UNL     1      20.413   2.719   9.157  1.00  0.00    -0.572 OA
ENDBRANCH   7   8
ENDBRANCH   3   7
TORSDOF 2
