REMARK  5 active torsions:
REMARK  status: ('A' for Active; 'I' for Inactive)
REMARK    1  A    between atoms: N_2  and  C_8 
REMARK       I    between atoms: N_2  and  C_23 
REMARK    2  A    between atoms: C_6  and  C_20 
REMARK    3  A    between atoms: O_10  and  C_20 
REMARK    4  A    between atoms: N_14  and  C_20 
REMARK    5  A    between atoms: C_20  and  O_21 
ROOT
HETATM    1  C   UNL     1      32.543  14.645  62.002  1.00  0.00    -0.055 C 
HETATM    2  C   UNL     1      34.481  13.490  59.777  1.00  0.00     0.032 C 
HETATM    3  C   UNL     1      32.307  14.522  59.196  1.00  0.00     0.167 C 
HETATM    4  C   UNL     1      32.959  13.334  59.886  1.00  0.00     0.109 C 
HETATM    5  O   UNL     1      32.260  14.502  57.933  1.00  0.00    -0.292 OA
HETATM    6  C   UNL     1      31.913  15.689  61.301  1.00  0.00     0.043 C 
HETATM    7  C   UNL     1      31.821  15.613  59.901  1.00  0.00     0.081 C 
HETATM    8  C   UNL     1      32.548  13.279  61.371  1.00  0.00     0.061 C 
HETATM    9  C   UNL     1      33.381  14.868  63.224  1.00  0.00     0.046 C 
ENDROOT
BRANCH   4  10
HETATM   10  C   UNL     1      32.570  11.984  59.246  1.00  0.00     0.346 C 
BRANCH  10  11
HETATM   11  O   UNL     1      31.213  11.866  59.187  1.00  0.00    -0.343 OA
ATOM     12  HO  UNL     1      30.974  11.035  58.793  1.00  0.00     0.215 HD
ENDBRANCH  10  11
BRANCH  10  13
HETATM   13  N   UNL     1      33.180  11.761  57.990  1.00  0.00    -0.020 N 
ATOM     14  HN3 UNL     1      32.986  12.533  57.352  1.00  0.00     0.281 HD
ATOM     15  HN2 UNL     1      34.194  11.849  58.060  1.00  0.00     0.281 HD
ATOM     16  HN1 UNL     1      32.923  10.869  57.567  1.00  0.00     0.281 HD
ENDBRANCH  10  13
BRANCH  10  17
HETATM   17  O   UNL     1      33.064  10.951  60.052  1.00  0.00    -0.343 OA
ATOM     18  HO  UNL     1      32.825  10.120  59.658  1.00  0.00     0.215 HD
ENDBRANCH  10  17
ENDBRANCH   4  10
BRANCH   6  19
HETATM   19  N   UNL     1      31.318  16.774  61.907  1.00  0.00    -0.301 N 
HETATM   20  C   UNL     1      31.290  17.418  63.087  1.00  0.00     0.288 C 
HETATM   21  O   UNL     1      31.247  18.652  63.097  1.00  0.00    -0.629 OA
HETATM   22  O   UNL     1      31.208  16.753  64.143  1.00  0.00    -0.629 OA
ATOM     23  HN  UNL     1      30.697  17.240  61.246  1.00  0.00     0.172 HD
ENDBRANCH   6  19
TORSDOF 5
