REMARK  0 active torsions:
REMARK  status: ('A' for Active; 'I' for Inactive)
ROOT
HETATM    1  C   UNL     1      -8.795  17.112  -5.909  1.00  0.00     0.084 C 
HETATM    2  C   UNL     1      -6.532  17.350  -4.015  1.00  0.00     0.007 C 
HETATM    3  N   UNL     1      -9.060  19.473  -5.700  1.00  0.00    -0.355 N 
ATOM      4  HN  UNL     1      -9.431  20.422  -5.650  1.00  0.00     0.162 HD
HETATM    5  C   UNL     1      -7.684  19.014  -5.326  1.00  0.00     0.093 C 
HETATM    6  C   UNL     1      -7.810  18.198  -4.028  1.00  0.00     0.009 C 
HETATM    7  C   UNL     1      -7.448  17.791  -6.221  1.00  0.00     0.022 C 
HETATM    8  C   UNL     1      -9.753  18.279  -6.149  1.00  0.00     0.222 C 
HETATM    9  O   UNL     1     -10.963  18.149  -6.154  1.00  0.00    -0.273 OA
HETATM   10  C   UNL     1      -8.825  17.071  -4.368  1.00  0.00     0.021 C 
HETATM   11  C   UNL     1      -6.237  17.160  -5.498  1.00  0.00     0.008 C 
ENDROOT
TORSDOF 0
