MODEL 1
REMARK VINA RESULT:     -10.9      0.000      0.000
REMARK  5 active torsions:
REMARK  status: ('A' for Active; 'I' for Inactive)
REMARK    1  A    between atoms: C_1  and  C_11 
REMARK    2  A    between atoms: C_5  and  O_31 
REMARK    3  A    between atoms: O_6  and  C_13 
REMARK    4  A    between atoms: C_11  and  O_17 
REMARK    5  A    between atoms: C_12  and  O_26 
ROOT
HETATM    1  C   UNL     1     -28.110 -10.917 -22.878  1.00  0.00     0.084 C 
HETATM    2  C   UNL     1     -26.804 -11.212 -22.207  1.00  0.00    -0.046 C 
HETATM    3  C   UNL     1     -24.726 -10.741 -21.127  1.00  0.00     0.098 C 
HETATM    4  C   UNL     1     -26.049 -10.383 -21.398  1.00  0.00     0.046 C 
HETATM    5  C   UNL     1     -28.731 -12.318 -22.923  1.00  0.00     0.117 C 
HETATM    6  C   UNL     1     -24.310 -12.065 -21.198  1.00  0.00     0.115 C 
HETATM    7  C   UNL     1     -24.988 -12.918 -22.247  1.00  0.00     0.129 C 
HETATM    8  C   UNL     1     -27.548 -13.299 -22.999  1.00  0.00     0.083 C 
HETATM    9  C   UNL     1     -24.204 -12.706 -23.524  1.00  0.00     0.058 C 
HETATM   10  C   UNL     1     -26.421 -12.533 -22.403  1.00  0.00    -0.030 C 
ENDROOT
BRANCH   5  11
HETATM   11  C   UNL     1     -29.512 -12.496 -21.660  1.00  0.00     0.128 C 
HETATM   12  C   UNL     1     -30.930 -12.112 -21.723  1.00  0.00     0.194 C 
HETATM   13  O   UNL     1     -31.218 -11.063 -22.252  1.00  0.00    -0.289 OA
HETATM   14  C   UNL     1     -31.953 -12.982 -21.036  1.00  0.00     0.051 C 
HETATM   15  C   UNL     1     -33.184 -12.133 -20.670  1.00  0.00     0.061 C 
HETATM   16  C   UNL     1     -31.328 -13.501 -19.740  1.00  0.00     0.049 C 
HETATM   17  C   UNL     1     -32.293 -14.129 -21.901  1.00  0.00    -0.008 C 
HETATM   18  C   UNL     1     -34.135 -11.997 -21.836  1.00  0.00    -0.046 C 
HETATM   19  C   UNL     1     -34.366 -13.115 -22.638  1.00  0.00    -0.030 C 
HETATM   20  C   UNL     1     -34.763 -10.791 -22.142  1.00  0.00     0.008 C 
HETATM   21  C   UNL     1     -35.513 -13.136 -23.445  1.00  0.00     0.012 C 
HETATM   22  C   UNL     1     -33.417 -14.183 -22.663  1.00  0.00     0.009 C 
HETATM   23  C   UNL     1     -36.046 -11.913 -23.864  1.00  0.00     0.001 C 
HETATM   24  C   UNL     1     -35.666 -10.736 -23.205  1.00  0.00     0.001 C 
HETATM   25  C   UNL     1     -29.858 -13.135 -19.579  1.00  0.00     0.177 C 
HETATM   26  O   UNL     1     -29.186 -13.542 -20.776  1.00  0.00    -0.348 OA
ENDBRANCH   5  11
BRANCH   5  27
HETATM   27  O   UNL     1     -29.555 -12.453 -24.082  1.00  0.00    -0.382 OA
ATOM     28  HO  UNL     1     -30.234 -11.790 -24.113  1.00  0.00     0.211 HD
ENDBRANCH   5  27
BRANCH   7  29
HETATM   29  O   UNL     1     -24.891 -14.296 -21.900  1.00  0.00    -0.379 OA
ATOM     30  HO  UNL     1     -24.275 -14.412 -21.185  1.00  0.00     0.211 HD
ENDBRANCH   7  29
BRANCH   3  31
HETATM   31  O   UNL     1     -23.767  -9.777 -21.093  1.00  0.00    -0.358 OA
ATOM     32  HO  UNL     1     -23.938  -8.933 -21.493  1.00  0.00     0.217 HD
ENDBRANCH   3  31
BRANCH   6  33
HETATM   33  O   UNL     1     -23.108 -12.403 -20.798  1.00  0.00    -0.359 OA
ATOM     34  HO  UNL     1     -22.682 -13.172 -21.157  1.00  0.00     0.217 HD
ENDBRANCH   6  33
TORSDOF 5
ENDMDL
MODEL 2
REMARK VINA RESULT:      -9.1      3.329      6.950
REMARK  5 active torsions:
REMARK  status: ('A' for Active; 'I' for Inactive)
REMARK    1  A    between atoms: C_1  and  C_11 
REMARK    2  A    between atoms: C_5  and  O_31 
REMARK    3  A    between atoms: O_6  and  C_13 
REMARK    4  A    between atoms: C_11  and  O_17 
REMARK    5  A    between atoms: C_12  and  O_26 
ROOT
HETATM    1  C   UNL     1     -29.618 -17.488 -21.302  1.00  0.00     0.084 C 
HETATM    2  C   UNL     1     -28.292 -17.724 -21.958  1.00  0.00    -0.046 C 
HETATM    3  C   UNL     1     -26.718 -18.734 -23.444  1.00  0.00     0.098 C 
HETATM    4  C   UNL     1     -28.030 -18.347 -23.164  1.00  0.00     0.046 C 
HETATM    5  C   UNL     1     -29.326 -16.201 -20.522  1.00  0.00     0.117 C 
HETATM    6  C   UNL     1     -25.638 -18.102 -22.839  1.00  0.00     0.115 C 
HETATM    7  C   UNL     1     -25.860 -17.617 -21.424  1.00  0.00     0.129 C 
HETATM    8  C   UNL     1     -27.823 -16.243 -20.190  1.00  0.00     0.083 C 
HETATM    9  C   UNL     1     -25.547 -18.796 -20.528  1.00  0.00     0.058 C 
HETATM   10  C   UNL     1     -27.259 -17.134 -21.240  1.00  0.00    -0.030 C 
ENDROOT
BRANCH   5  11
HETATM   11  C   UNL     1     -29.657 -15.054 -21.422  1.00  0.00     0.128 C 
HETATM   12  C   UNL     1     -28.699 -13.939 -21.418  1.00  0.00     0.194 C 
HETATM   13  O   UNL     1     -28.291 -13.536 -20.354  1.00  0.00    -0.289 OA
HETATM   14  C   UNL     1     -28.347 -13.276 -22.727  1.00  0.00     0.051 C 
HETATM   15  C   UNL     1     -27.894 -11.829 -22.462  1.00  0.00     0.061 C 
HETATM   16  C   UNL     1     -29.614 -13.230 -23.582  1.00  0.00     0.049 C 
HETATM   17  C   UNL     1     -27.320 -14.072 -23.428  1.00  0.00    -0.008 C 
HETATM   18  C   UNL     1     -26.434 -11.762 -22.077  1.00  0.00    -0.046 C 
HETATM   19  C   UNL     1     -25.531 -12.583 -22.752  1.00  0.00    -0.030 C 
HETATM   20  C   UNL     1     -25.975 -10.929 -21.058  1.00  0.00     0.008 C 
HETATM   21  C   UNL     1     -24.167 -12.259 -22.708  1.00  0.00     0.012 C 
HETATM   22  C   UNL     1     -25.998 -13.754 -23.426  1.00  0.00     0.009 C 
HETATM   23  C   UNL     1     -23.696 -11.544 -21.602  1.00  0.00     0.001 C 
HETATM   24  C   UNL     1     -24.609 -10.876 -20.776  1.00  0.00     0.001 C 
HETATM   25  C   UNL     1     -30.796 -13.968 -22.967  1.00  0.00     0.177 C 
HETATM   26  O   UNL     1     -30.345 -15.285 -22.629  1.00  0.00    -0.348 OA
ENDBRANCH   5  11
BRANCH   5  27
HETATM   27  O   UNL     1     -30.092 -16.172 -19.317  1.00  0.00    -0.382 OA
ATOM     28  HO  UNL     1     -29.611 -16.533 -18.582  1.00  0.00     0.211 HD
ENDBRANCH   5  27
BRANCH   7  29
HETATM   29  O   UNL     1     -24.941 -16.575 -21.110  1.00  0.00    -0.379 OA
ATOM     30  HO  UNL     1     -24.965 -15.903 -21.781  1.00  0.00     0.211 HD
ENDBRANCH   7  29
BRANCH   3  31
HETATM   31  O   UNL     1     -26.489 -19.921 -24.066  1.00  0.00    -0.358 OA
ATOM     32  HO  UNL     1     -26.284 -19.931 -24.994  1.00  0.00     0.217 HD
ENDBRANCH   3  31
BRANCH   6  33
HETATM   33  O   UNL     1     -24.414 -18.374 -23.223  1.00  0.00    -0.359 OA
ATOM     34  HO  UNL     1     -23.680 -18.192 -22.647  1.00  0.00     0.217 HD
ENDBRANCH   6  33
TORSDOF 5
ENDMDL
MODEL 3
REMARK VINA RESULT:      -8.9      4.063      5.693
REMARK  5 active torsions:
REMARK  status: ('A' for Active; 'I' for Inactive)
REMARK    1  A    between atoms: C_1  and  C_11 
REMARK    2  A    between atoms: C_5  and  O_31 
REMARK    3  A    between atoms: O_6  and  C_13 
REMARK    4  A    between atoms: C_11  and  O_17 
REMARK    5  A    between atoms: C_12  and  O_26 
ROOT
HETATM    1  C   UNL     1     -28.476 -18.214 -22.716  1.00  0.00     0.084 C 
HETATM    2  C   UNL     1     -27.035 -18.552 -22.946  1.00  0.00    -0.046 C 
HETATM    3  C   UNL     1     -25.142 -19.479 -24.069  1.00  0.00     0.098 C 
HETATM    4  C   UNL     1     -26.416 -18.911 -24.129  1.00  0.00     0.046 C 
HETATM    5  C   UNL     1     -28.357 -17.235 -21.542  1.00  0.00     0.117 C 
HETATM    6  C   UNL     1     -24.299 -19.240 -22.989  1.00  0.00     0.115 C 
HETATM    7  C   UNL     1     -24.973 -19.070 -21.646  1.00  0.00     0.129 C 
HETATM    8  C   UNL     1     -27.095 -17.659 -20.769  1.00  0.00     0.083 C 
HETATM    9  C   UNL     1     -25.138 -20.466 -21.085  1.00  0.00     0.058 C 
HETATM   10  C   UNL     1     -26.282 -18.371 -21.792  1.00  0.00    -0.030 C 
ENDROOT
BRANCH   5  11
HETATM   11  C   UNL     1     -28.211 -15.865 -22.122  1.00  0.00     0.128 C 
HETATM   12  C   UNL     1     -29.445 -15.070 -22.209  1.00  0.00     0.194 C 
HETATM   13  O   UNL     1     -30.444 -15.604 -22.633  1.00  0.00    -0.289 OA
HETATM   14  C   UNL     1     -29.393 -13.602 -21.866  1.00  0.00     0.051 C 
HETATM   15  C   UNL     1     -30.526 -12.864 -22.601  1.00  0.00     0.061 C 
HETATM   16  C   UNL     1     -28.059 -13.052 -22.374  1.00  0.00     0.049 C 
HETATM   17  C   UNL     1     -29.460 -13.429 -20.401  1.00  0.00    -0.008 C 
HETATM   18  C   UNL     1     -31.833 -12.956 -21.847  1.00  0.00    -0.046 C 
HETATM   19  C   UNL     1     -31.808 -12.833 -20.458  1.00  0.00    -0.030 C 
HETATM   20  C   UNL     1     -33.047 -13.183 -22.494  1.00  0.00     0.008 C 
HETATM   21  C   UNL     1     -33.000 -12.511 -19.792  1.00  0.00     0.012 C 
HETATM   22  C   UNL     1     -30.597 -13.083 -19.741  1.00  0.00     0.009 C 
HETATM   23  C   UNL     1     -34.209 -12.878 -20.391  1.00  0.00     0.001 C 
HETATM   24  C   UNL     1     -34.228 -13.214 -21.750  1.00  0.00     0.001 C 
HETATM   25  C   UNL     1     -27.126 -14.122 -22.927  1.00  0.00     0.177 C 
HETATM   26  O   UNL     1     -27.016 -15.145 -21.931  1.00  0.00    -0.348 OA
ENDBRANCH   5  11
BRANCH   5  27
HETATM   27  O   UNL     1     -29.505 -17.337 -20.699  1.00  0.00    -0.382 OA
ATOM     28  HO  UNL     1     -29.730 -18.241 -20.514  1.00  0.00     0.211 HD
ENDBRANCH   5  27
BRANCH   7  29
HETATM   29  O   UNL     1     -24.129 -18.341 -20.760  1.00  0.00    -0.379 OA
ATOM     30  HO  UNL     1     -23.216 -18.494 -20.976  1.00  0.00     0.211 HD
ENDBRANCH   7  29
BRANCH   3  31
HETATM   31  O   UNL     1     -24.827 -20.506 -24.903  1.00  0.00    -0.358 OA
ATOM     32  HO  UNL     1     -23.929 -20.813 -24.947  1.00  0.00     0.217 HD
ENDBRANCH   3  31
BRANCH   6  33
HETATM   33  O   UNL     1     -23.055 -19.657 -23.017  1.00  0.00    -0.359 OA
ATOM     34  HO  UNL     1     -22.469 -19.370 -23.707  1.00  0.00     0.217 HD
ENDBRANCH   6  33
TORSDOF 5
ENDMDL
MODEL 4
REMARK VINA RESULT:      -8.5      3.123      4.082
REMARK  5 active torsions:
REMARK  status: ('A' for Active; 'I' for Inactive)
REMARK    1  A    between atoms: C_1  and  C_11 
REMARK    2  A    between atoms: C_5  and  O_31 
REMARK    3  A    between atoms: O_6  and  C_13 
REMARK    4  A    between atoms: C_11  and  O_17 
REMARK    5  A    between atoms: C_12  and  O_26 
ROOT
HETATM    1  C   UNL     1     -29.412 -12.581 -21.369  1.00  0.00     0.084 C 
HETATM    2  C   UNL     1     -29.265 -14.014 -20.959  1.00  0.00    -0.046 C 
HETATM    3  C   UNL     1     -28.386 -15.883 -19.758  1.00  0.00     0.098 C 
HETATM    4  C   UNL     1     -28.697 -14.523 -19.805  1.00  0.00     0.046 C 
HETATM    5  C   UNL     1     -30.685 -12.657 -22.220  1.00  0.00     0.117 C 
HETATM    6  C   UNL     1     -29.050 -16.801 -20.564  1.00  0.00     0.115 C 
HETATM    7  C   UNL     1     -29.475 -16.301 -21.927  1.00  0.00     0.129 C 
HETATM    8  C   UNL     1     -30.707 -14.076 -22.818  1.00  0.00     0.083 C 
HETATM    9  C   UNL     1     -28.283 -16.512 -22.836  1.00  0.00     0.058 C 
HETATM   10  C   UNL     1     -29.881 -14.867 -21.866  1.00  0.00    -0.030 C 
ENDROOT
BRANCH   5  11
HETATM   11  C   UNL     1     -31.844 -12.430 -21.303  1.00  0.00     0.128 C 
HETATM   12  C   UNL     1     -33.003 -11.744 -21.892  1.00  0.00     0.194 C 
HETATM   13  O   UNL     1     -32.806 -10.763 -22.573  1.00  0.00    -0.289 OA
HETATM   14  C   UNL     1     -34.390 -12.222 -21.542  1.00  0.00     0.051 C 
HETATM   15  C   UNL     1     -35.388 -11.061 -21.703  1.00  0.00     0.061 C 
HETATM   16  C   UNL     1     -34.381 -12.641 -20.071  1.00  0.00     0.049 C 
HETATM   17  C   UNL     1     -34.741 -13.390 -22.374  1.00  0.00    -0.008 C 
HETATM   18  C   UNL     1     -35.842 -10.910 -23.136  1.00  0.00    -0.046 C 
HETATM   19  C   UNL     1     -36.105 -12.064 -23.875  1.00  0.00    -0.030 C 
HETATM   20  C   UNL     1     -35.980  -9.662 -23.742  1.00  0.00     0.008 C 
HETATM   21  C   UNL     1     -36.894 -11.956 -25.029  1.00  0.00     0.012 C 
HETATM   22  C   UNL     1     -35.532 -13.312 -23.476  1.00  0.00     0.009 C 
HETATM   23  C   UNL     1     -36.905 -10.734 -25.707  1.00  0.00     0.001 C 
HETATM   24  C   UNL     1     -36.445  -9.582 -25.056  1.00  0.00     0.001 C 
HETATM   25  C   UNL     1     -32.998 -12.605 -19.432  1.00  0.00     0.177 C 
HETATM   26  O   UNL     1     -32.120 -13.356 -20.278  1.00  0.00    -0.348 OA
ENDBRANCH   5  11
BRANCH   5  27
HETATM   27  O   UNL     1     -30.636 -11.686 -23.266  1.00  0.00    -0.382 OA
ATOM     28  HO  UNL     1     -31.111 -10.895 -23.038  1.00  0.00     0.211 HD
ENDBRANCH   5  27
BRANCH   7  29
HETATM   29  O   UNL     1     -30.550 -17.090 -22.428  1.00  0.00    -0.379 OA
ATOM     30  HO  UNL     1     -30.232 -17.698 -23.085  1.00  0.00     0.211 HD
ENDBRANCH   7  29
BRANCH   3  31
HETATM   31  O   UNL     1     -27.233 -16.285 -19.159  1.00  0.00    -0.358 OA
ATOM     32  HO  UNL     1     -27.067 -16.045 -18.255  1.00  0.00     0.217 HD
ENDBRANCH   3  31
BRANCH   6  33
HETATM   33  O   UNL     1     -28.852 -18.087 -20.403  1.00  0.00    -0.359 OA
ATOM     34  HO  UNL     1     -28.871 -18.469 -19.534  1.00  0.00     0.217 HD
ENDBRANCH   6  33
TORSDOF 5
ENDMDL
