REMARK  4 active torsions:
REMARK  status: ('A' for Active; 'I' for Inactive)
REMARK    1  A    between atoms: C_1  and  O_32 
REMARK    2  A    between atoms: C_2  and  O_35 
REMARK    3  A    between atoms: O_3  and  C_34 
REMARK    4  A    between atoms: C_15  and  C_16 
ROOT
HETATM    1  C   UNL     1     -31.357 -12.262 -20.046  1.00  0.00     0.162 C 
HETATM    2  C   UNL     1     -35.323 -12.065 -22.558  1.00  0.00     0.018 C 
HETATM    3  N   UNL     1     -32.724 -12.625 -20.412  1.00  0.00    -0.371 N 
ATOM      4  HN  UNL     1     -33.382 -13.000 -19.728  1.00  0.00     0.161 HD
HETATM    5  N   UNL     1     -32.213 -12.927 -22.626  1.00  0.00    -0.340 N 
ATOM      6  HN  UNL     1     -32.476 -13.601 -23.345  1.00  0.00     0.167 HD
HETATM    7  C   UNL     1     -29.974 -12.768 -23.445  1.00  0.00     0.118 C 
HETATM    8  C   UNL     1     -33.071 -12.437 -21.705  1.00  0.00     0.112 C 
HETATM    9  C   UNL     1     -33.948 -10.231 -21.854  1.00  0.00     0.015 C 
HETATM   10  C   UNL     1     -35.987 -10.224 -24.032  1.00  0.00     0.116 C 
HETATM   11  C   UNL     1     -28.332 -11.179 -22.864  1.00  0.00     0.091 C 
HETATM   12  C   UNL     1     -30.728 -11.654 -21.265  1.00  0.00    -0.009 C 
HETATM   13  N   UNL     1     -28.907 -12.004 -23.776  1.00  0.00    -0.360 N 
ATOM     14  HN  UNL     1     -28.530 -12.049 -24.723  1.00  0.00     0.165 HD
HETATM   15  C   UNL     1     -34.346  -9.165 -22.618  1.00  0.00     0.004 C 
HETATM   16  C   UNL     1     -30.951 -12.418 -22.486  1.00  0.00     0.057 C 
HETATM   17  C   UNL     1     -30.078 -10.445 -21.216  1.00  0.00     0.068 C 
HETATM   18  C   UNL     1     -29.165 -10.105 -22.251  1.00  0.00     0.199 C 
HETATM   19  C   UNL     1     -36.260 -11.297 -23.219  1.00  0.00     0.043 C 
HETATM   20  F   UNL     1     -36.432 -10.235 -25.295  1.00  0.00    -0.206 F 
HETATM   21  O   UNL     1     -29.084  -8.965 -22.729  1.00  0.00    -0.286 OA
HETATM   22  C   UNL     1     -35.240  -9.134 -23.657  1.00  0.00     0.042 C 
HETATM   23  C   UNL     1     -34.123 -11.579 -22.065  1.00  0.00     0.008 C 
ENDROOT
BRANCH  11  24
HETATM   24  C   UNL     1     -26.968 -11.365 -22.451  1.00  0.00     0.009 C 
HETATM   25  C   UNL     1     -26.269 -12.603 -22.688  1.00  0.00     0.076 C 
HETATM   26  C   UNL     1     -25.093 -12.928 -21.945  1.00  0.00     0.072 C 
HETATM   27  C   UNL     1     -24.456 -11.946 -21.223  1.00  0.00     0.080 C 
HETATM   28  C   UNL     1     -24.706 -10.477 -21.632  1.00  0.00     0.106 C 
HETATM   29  C   UNL     1     -26.214 -10.251 -21.790  1.00  0.00     0.088 C 
HETATM   30  C   UNL     1     -23.969 -10.181 -22.915  1.00  0.00     0.053 C 
BRANCH  25  31
HETATM   31  O   UNL     1     -26.650 -13.351 -23.689  1.00  0.00    -0.360 OA
ATOM     32  HO  UNL     1     -26.189 -14.167 -23.845  1.00  0.00     0.217 HD
ENDBRANCH  25  31
BRANCH  27  33
HETATM   33  O   UNL     1     -23.142 -12.218 -20.870  1.00  0.00    -0.362 OA
ATOM     34  HO  UNL     1     -22.702 -11.540 -20.371  1.00  0.00     0.217 HD
ENDBRANCH  27  33
BRANCH  28  35
HETATM   35  O   UNL     1     -24.211  -9.623 -20.605  1.00  0.00    -0.383 OA
ATOM     36  HO  UNL     1     -24.365  -8.720 -20.856  1.00  0.00     0.211 HD
ENDBRANCH  28  35
ENDBRANCH  11  24
TORSDOF 4
