REMARK  5 active torsions:
REMARK  status: ('A' for Active; 'I' for Inactive)
REMARK    1  A    between atoms: C_1  and  C_11 
REMARK    2  A    between atoms: C_5  and  O_31 
REMARK    3  A    between atoms: O_6  and  C_13 
REMARK    4  A    between atoms: C_11  and  O_17 
REMARK    5  A    between atoms: C_12  and  O_26 
ROOT
HETATM    1  C   UNL     1     -28.347 -10.510 -23.073  1.00  0.00     0.084 C 
HETATM    2  C   UNL     1     -27.049 -10.799 -22.384  1.00  0.00    -0.046 C 
HETATM    3  C   UNL     1     -25.018 -10.321 -21.221  1.00  0.00     0.098 C 
HETATM    4  C   UNL     1     -26.345  -9.994 -21.507  1.00  0.00     0.046 C 
HETATM    5  C   UNL     1     -28.916 -11.926 -23.217  1.00  0.00     0.117 C 
HETATM    6  C   UNL     1     -24.553 -11.624 -21.357  1.00  0.00     0.115 C 
HETATM    7  C   UNL     1     -25.172 -12.436 -22.473  1.00  0.00     0.129 C 
HETATM    8  C   UNL     1     -27.696 -12.860 -23.317  1.00  0.00     0.083 C 
HETATM    9  C   UNL     1     -24.363 -12.121 -23.713  1.00  0.00     0.058 C 
HETATM   10  C   UNL     1     -26.613 -12.092 -22.646  1.00  0.00    -0.030 C 
ENDROOT
BRANCH   5  11
HETATM   11  C   UNL     1     -29.722 -12.206 -21.989  1.00  0.00     0.128 C 
HETATM   12  C   UNL     1     -31.108 -11.716 -22.006  1.00  0.00     0.194 C 
HETATM   13  O   UNL     1     -31.315 -10.591 -22.399  1.00  0.00    -0.289 OA
HETATM   14  C   UNL     1     -32.198 -12.591 -21.438  1.00  0.00     0.051 C 
HETATM   15  C   UNL     1     -33.370 -11.709 -20.970  1.00  0.00     0.061 C 
HETATM   16  C   UNL     1     -31.627 -13.312 -20.216  1.00  0.00     0.049 C 
HETATM   17  C   UNL     1     -32.608 -13.592 -22.442  1.00  0.00    -0.008 C 
HETATM   18  C   UNL     1     -34.296 -11.359 -22.112  1.00  0.00    -0.046 C 
HETATM   19  C   UNL     1     -34.596 -12.347 -23.050  1.00  0.00    -0.030 C 
HETATM   20  C   UNL     1     -34.833 -10.082 -22.265  1.00  0.00     0.008 C 
HETATM   21  C   UNL     1     -35.732 -12.184 -23.856  1.00  0.00     0.012 C 
HETATM   22  C   UNL     1     -33.724 -13.469 -23.208  1.00  0.00     0.009 C 
HETATM   23  C   UNL     1     -36.172 -10.883 -24.118  1.00  0.00     0.001 C 
HETATM   24  C   UNL     1     -35.718  -9.829 -23.315  1.00  0.00     0.001 C 
HETATM   25  C   UNL     1     -30.137 -13.076 -20.006  1.00  0.00     0.177 C 
HETATM   26  O   UNL     1     -29.481 -13.376 -21.243  1.00  0.00    -0.348 OA
ENDBRANCH   5  11
BRANCH   5  27
HETATM   27  O   UNL     1     -29.704 -12.021 -24.404  1.00  0.00    -0.382 OA
ATOM     28  HO  UNL     1     -29.192 -11.843 -25.184  1.00  0.00     0.211 HD
ENDBRANCH   5  27
BRANCH   7  29
HETATM   29  O   UNL     1     -25.034 -13.828 -22.204  1.00  0.00    -0.379 OA
ATOM     30  HO  UNL     1     -25.423 -14.338 -22.905  1.00  0.00     0.211 HD
ENDBRANCH   7  29
BRANCH   3  31
HETATM   31  O   UNL     1     -24.095  -9.329 -21.104  1.00  0.00    -0.358 OA
ATOM     32  HO  UNL     1     -23.192  -9.551 -20.909  1.00  0.00     0.217 HD
ENDBRANCH   3  31
BRANCH   6  33
HETATM   33  O   UNL     1     -23.350 -11.943 -20.944  1.00  0.00    -0.359 OA
ATOM     34  HO  UNL     1     -23.032 -12.833 -21.037  1.00  0.00     0.217 HD
ENDBRANCH   6  33
TORSDOF 5
