REMARK  1 active torsions:
REMARK  status: ('A' for Active; 'I' for Inactive)
REMARK    1  A    between atoms: C_22  and  C_24 
ROOT
HETATM    1  O   UNL     1      23.727  61.800  19.136  1.00  0.00    -0.268 OA
HETATM    2  N   UNL     1      23.514  60.816  23.019  1.00  0.00    -0.362 N 
ATOM      3  HN  UNL     1      23.323  60.478  23.962  1.00  0.00     0.162 HD
HETATM    4  C   UNL     1      26.052  61.020  20.379  1.00  0.00     0.019 C 
HETATM    5  C   UNL     1      23.644  61.294  20.248  1.00  0.00     0.255 C 
HETATM    6  C   UNL     1      24.662  60.477  22.355  1.00  0.00     0.045 C 
HETATM    7  C   UNL     1      27.194  60.269  20.444  1.00  0.00     0.001 C 
HETATM    8  C   UNL     1      24.820  60.906  21.011  1.00  0.00     0.058 C 
HETATM    9  N   UNL     1      22.460  61.190  20.915  1.00  0.00    -0.330 N 
ATOM     10  HN  UNL     1      21.603  60.817  20.507  1.00  0.00     0.165 HD
HETATM   11  C   UNL     1      23.028  63.132  22.337  1.00  0.00     0.064 C 
HETATM   12  C   UNL     1      27.534  59.358  21.438  1.00  0.00     0.000 C 
HETATM   13  C   UNL     1      25.635  59.719  22.989  1.00  0.00     0.030 C 
HETATM   14  C   UNL     1      26.785  59.143  22.571  1.00  0.00     0.002 C 
HETATM   15  C   UNL     1      22.573  61.687  22.312  1.00  0.00     0.111 C 
ENDROOT
BRANCH  15  16
HETATM   16  C   UNL     1      21.193  61.459  22.906  1.00  0.00     0.008 C 
HETATM   17  C   UNL     1      20.877  62.083  24.274  1.00  0.00     0.019 C 
HETATM   18  C   UNL     1      19.439  61.535  24.421  1.00  0.00    -0.010 C 
HETATM   19  C   UNL     1      18.984  61.354  22.977  1.00  0.00    -0.009 C 
HETATM   20  C   UNL     1      19.695  60.203  25.137  1.00  0.00     0.005 C 
HETATM   21  C   UNL     1      19.338  59.942  22.573  1.00  0.00     0.010 C 
HETATM   22  C   UNL     1      20.042  62.087  22.125  1.00  0.00     0.019 C 
HETATM   23  C   UNL     1      20.840  59.955  22.964  1.00  0.00    -0.001 C 
HETATM   24  C   UNL     1      20.845  59.489  24.435  1.00  0.00     0.006 C 
ENDBRANCH  15  16
TORSDOF 1
