MODEL 1
REMARK VINA RESULT:      -8.7      0.000      0.000
REMARK  0 active torsions:
REMARK  status: ('A' for Active; 'I' for Inactive)
ROOT
HETATM    1  C   UNL     1      24.567  61.649  22.160  1.00  0.00    -0.001 C 
HETATM    2  C   UNL     1      23.116  61.157  22.152  1.00  0.00    -0.026 C 
HETATM    3  C   UNL     1      19.462  60.443  24.044  1.00  0.00     0.047 C 
HETATM    4  C   UNL     1      22.212  62.371  22.496  1.00  0.00     0.076 C 
HETATM    5  C   UNL     1      24.581  62.579  20.947  1.00  0.00    -0.005 C 
HETATM    6  C   UNL     1      26.274  60.354  19.467  1.00  0.00     0.005 C 
HETATM    7  O   UNL     1      19.667  62.611  22.327  1.00  0.00    -0.326 OA
HETATM    8  C   UNL     1      25.468  61.045  18.357  1.00  0.00     0.001 C 
HETATM    9  C   UNL     1      21.147  59.406  25.054  1.00  0.00     0.096 C 
HETATM   10  C   UNL     1      26.525  61.183  20.742  1.00  0.00    -0.014 C 
HETATM   11  C   UNL     1      22.921  59.983  23.131  1.00  0.00     0.051 C 
HETATM   12  C   UNL     1      25.648  60.611  21.868  1.00  0.00     0.010 C 
HETATM   13  C   UNL     1      20.791  61.950  22.734  1.00  0.00     0.066 C 
HETATM   14  C   UNL     1      24.063  61.616  18.581  1.00  0.00     0.005 C 
HETATM   15  N   UNL     1      19.815  59.725  25.154  1.00  0.00    -0.365 N 
ATOM     16  HN  UNL     1      19.195  59.470  25.922  1.00  0.00     0.165 HD
HETATM   17  C   UNL     1      18.277  60.973  23.527  1.00  0.00     0.055 C 
HETATM   18  C   UNL     1      23.567  61.996  19.980  1.00  0.00    -0.009 C 
HETATM   19  C   UNL     1      22.847  60.816  20.670  1.00  0.00     0.015 C 
HETATM   20  C   UNL     1      21.652  60.060  23.945  1.00  0.00    -0.027 C 
HETATM   21  C   UNL     1      26.035  62.605  20.495  1.00  0.00     0.010 C 
HETATM   22  C   UNL     1      18.434  61.936  22.461  1.00  0.00     0.144 C 
HETATM   23  C   UNL     1      20.647  60.849  23.505  1.00  0.00     0.028 C 
ENDROOT
TORSDOF 0
ENDMDL
MODEL 2
REMARK VINA RESULT:      -8.4      3.641      5.991
REMARK  0 active torsions:
REMARK  status: ('A' for Active; 'I' for Inactive)
ROOT
HETATM    1  C   UNL     1      23.172  63.914  19.826  1.00  0.00    -0.001 C 
HETATM    2  C   UNL     1      24.426  63.226  20.377  1.00  0.00    -0.026 C 
HETATM    3  C   UNL     1      26.508  59.832  21.635  1.00  0.00     0.047 C 
HETATM    4  C   UNL     1      24.912  62.217  19.303  1.00  0.00     0.076 C 
HETATM    5  C   UNL     1      23.755  64.731  18.672  1.00  0.00    -0.005 C 
HETATM    6  C   UNL     1      23.292  67.293  20.469  1.00  0.00     0.005 C 
HETATM    7  O   UNL     1      27.119  60.923  19.160  1.00  0.00    -0.326 OA
HETATM    8  C   UNL     1      24.522  67.625  19.611  1.00  0.00     0.001 C 
HETATM    9  C   UNL     1      24.620  60.127  22.769  1.00  0.00     0.096 C 
HETATM   10  C   UNL     1      22.334  66.228  19.901  1.00  0.00    -0.014 C 
HETATM   11  C   UNL     1      24.138  62.549  21.731  1.00  0.00     0.051 C 
HETATM   12  C   UNL     1      22.497  64.942  20.729  1.00  0.00     0.010 C 
HETATM   13  C   UNL     1      26.002  61.331  19.832  1.00  0.00     0.066 C 
HETATM   14  C   UNL     1      25.538  66.566  19.167  1.00  0.00     0.005 C 
HETATM   15  N   UNL     1      25.660  59.258  22.543  1.00  0.00    -0.365 N 
ATOM     16  HN  UNL     1      25.779  58.343  22.976  1.00  0.00     0.165 HD
HETATM   17  C   UNL     1      27.744  59.505  21.072  1.00  0.00     0.055 C 
HETATM   18  C   UNL     1      25.168  65.081  19.099  1.00  0.00    -0.009 C 
HETATM   19  C   UNL     1      25.478  64.355  20.428  1.00  0.00     0.015 C 
HETATM   20  C   UNL     1      24.754  61.180  21.882  1.00  0.00    -0.027 C 
HETATM   21  C   UNL     1      22.781  65.886  18.485  1.00  0.00     0.010 C 
HETATM   22  C   UNL     1      28.125  60.274  19.908  1.00  0.00     0.144 C 
HETATM   23  C   UNL     1      25.780  60.837  21.072  1.00  0.00     0.028 C 
ENDROOT
TORSDOF 0
ENDMDL
MODEL 3
REMARK VINA RESULT:      -8.3      2.867      6.376
REMARK  0 active torsions:
REMARK  status: ('A' for Active; 'I' for Inactive)
ROOT
HETATM    1  C   UNL     1      22.302  62.393  22.555  1.00  0.00    -0.001 C 
HETATM    2  C   UNL     1      23.313  61.497  21.833  1.00  0.00    -0.026 C 
HETATM    3  C   UNL     1      27.151  60.697  20.394  1.00  0.00     0.047 C 
HETATM    4  C   UNL     1      24.425  61.134  22.854  1.00  0.00     0.076 C 
HETATM    5  C   UNL     1      21.690  61.415  23.559  1.00  0.00    -0.005 C 
HETATM    6  C   UNL     1      19.092  61.446  21.754  1.00  0.00     0.005 C 
HETATM    7  O   UNL     1      26.291  59.387  22.682  1.00  0.00    -0.326 OA
HETATM    8  C   UNL     1      19.126  60.044  22.378  1.00  0.00     0.001 C 
HETATM    9  C   UNL     1      26.328  62.594  19.580  1.00  0.00     0.096 C 
HETATM   10  C   UNL     1      19.845  62.551  22.521  1.00  0.00    -0.014 C 
HETATM   11  C   UNL     1      23.874  62.192  20.577  1.00  0.00     0.051 C 
HETATM   12  C   UNL     1      21.119  62.899  21.734  1.00  0.00     0.010 C 
HETATM   13  C   UNL     1      25.580  60.444  22.188  1.00  0.00     0.066 C 
HETATM   14  C   UNL     1      20.431  59.303  22.693  1.00  0.00     0.005 C 
HETATM   15  N   UNL     1      27.457  61.816  19.667  1.00  0.00    -0.365 N 
ATOM     16  HN  UNL     1      28.366  62.034  19.260  1.00  0.00     0.165 HD
HETATM   17  C   UNL     1      27.817  59.524  20.756  1.00  0.00     0.055 C 
HETATM   18  C   UNL     1      21.752  60.056  22.886  1.00  0.00    -0.009 C 
HETATM   19  C   UNL     1      22.528  60.196  21.557  1.00  0.00     0.015 C 
HETATM   20  C   UNL     1      25.361  62.019  20.386  1.00  0.00    -0.027 C 
HETATM   21  C   UNL     1      20.307  61.979  23.855  1.00  0.00     0.010 C 
HETATM   22  C   UNL     1      27.194  58.748  21.805  1.00  0.00     0.144 C 
HETATM   23  C   UNL     1      25.984  61.006  21.027  1.00  0.00     0.028 C 
ENDROOT
TORSDOF 0
ENDMDL
MODEL 4
REMARK VINA RESULT:      -7.6      4.837      6.607
REMARK  0 active torsions:
REMARK  status: ('A' for Active; 'I' for Inactive)
ROOT
HETATM    1  C   UNL     1      24.709  63.788  19.047  1.00  0.00    -0.001 C 
HETATM    2  C   UNL     1      24.031  65.031  19.634  1.00  0.00    -0.026 C 
HETATM    3  C   UNL     1      22.847  69.028  19.408  1.00  0.00     0.047 C 
HETATM    4  C   UNL     1      22.847  65.399  18.702  1.00  0.00     0.076 C 
HETATM    5  C   UNL     1      23.628  62.726  19.252  1.00  0.00    -0.005 C 
HETATM    6  C   UNL     1      25.453  61.547  21.551  1.00  0.00     0.005 C 
HETATM    7  O   UNL     1      20.928  67.054  19.077  1.00  0.00    -0.326 OA
HETATM    8  C   UNL     1      24.014  61.233  21.985  1.00  0.00     0.001 C 
HETATM    9  C   UNL     1      25.039  68.786  19.138  1.00  0.00     0.096 C 
HETATM   10  C   UNL     1      25.679  61.754  20.040  1.00  0.00    -0.014 C 
HETATM   11  C   UNL     1      25.036  66.188  19.793  1.00  0.00     0.051 C 
HETATM   12  C   UNL     1      25.928  63.251  19.792  1.00  0.00     0.010 C 
HETATM   13  C   UNL     1      22.255  66.730  19.063  1.00  0.00     0.066 C 
HETATM   14  C   UNL     1      22.829  62.152  21.666  1.00  0.00     0.005 C 
HETATM   15  N   UNL     1      24.000  69.682  19.068  1.00  0.00    -0.365 N 
ATOM     16  HN  UNL     1      24.075  70.666  18.808  1.00  0.00     0.165 HD
HETATM   17  C   UNL     1      21.510  69.387  19.600  1.00  0.00     0.055 C 
HETATM   18  C   UNL     1      22.879  63.148  20.502  1.00  0.00    -0.009 C 
HETATM   19  C   UNL     1      23.411  64.527  20.955  1.00  0.00     0.015 C 
HETATM   20  C   UNL     1      24.497  67.536  19.379  1.00  0.00    -0.027 C 
HETATM   21  C   UNL     1      24.387  61.407  19.310  1.00  0.00     0.010 C 
HETATM   22  C   UNL     1      20.569  68.291  19.655  1.00  0.00     0.144 C 
HETATM   23  C   UNL     1      23.159  67.705  19.308  1.00  0.00     0.028 C 
ENDROOT
TORSDOF 0
ENDMDL
MODEL 5
REMARK VINA RESULT:      -7.4      3.762      5.470
REMARK  0 active torsions:
REMARK  status: ('A' for Active; 'I' for Inactive)
ROOT
HETATM    1  C   UNL     1      20.641  65.399  20.033  1.00  0.00    -0.001 C 
HETATM    2  C   UNL     1      20.926  64.436  21.190  1.00  0.00    -0.026 C 
HETATM    3  C   UNL     1      20.723  60.664  22.972  1.00  0.00     0.047 C 
HETATM    4  C   UNL     1      21.842  63.309  20.642  1.00  0.00     0.076 C 
HETATM    5  C   UNL     1      22.022  66.014  19.801  1.00  0.00    -0.005 C 
HETATM    6  C   UNL     1      20.883  68.657  21.114  1.00  0.00     0.005 C 
HETATM    7  O   UNL     1      23.144  61.503  21.909  1.00  0.00    -0.326 OA
HETATM    8  C   UNL     1      22.378  68.650  21.467  1.00  0.00     0.001 C 
HETATM    9  C   UNL     1      18.714  61.450  22.440  1.00  0.00     0.096 C 
HETATM   10  C   UNL     1      20.474  67.850  19.867  1.00  0.00    -0.014 C 
HETATM   11  C   UNL     1      19.617  63.888  21.792  1.00  0.00     0.051 C 
HETATM   12  C   UNL     1      19.731  66.587  20.333  1.00  0.00     0.010 C 
HETATM   13  C   UNL     1      21.998  62.194  21.635  1.00  0.00     0.066 C 
HETATM   14  C   UNL     1      23.168  67.360  21.717  1.00  0.00     0.005 C 
HETATM   15  N   UNL     1      19.396  60.344  22.887  1.00  0.00    -0.365 N 
ATOM     16  HN  UNL     1      18.983  59.440  23.115  1.00  0.00     0.165 HD
HETATM   17  C   UNL     1      21.882  60.025  23.420  1.00  0.00     0.055 C 
HETATM   18  C   UNL     1      22.697  66.012  21.160  1.00  0.00    -0.009 C 
HETATM   19  C   UNL     1      21.788  65.268  22.164  1.00  0.00     0.015 C 
HETATM   20  C   UNL     1      19.651  62.413  22.108  1.00  0.00    -0.027 C 
HETATM   21  C   UNL     1      21.741  67.370  19.169  1.00  0.00     0.010 C 
HETATM   22  C   UNL     1      23.129  60.643  23.030  1.00  0.00     0.144 C 
HETATM   23  C   UNL     1      20.851  61.804  22.236  1.00  0.00     0.028 C 
ENDROOT
TORSDOF 0
ENDMDL
MODEL 6
REMARK VINA RESULT:      -7.1      2.788      4.326
REMARK  0 active torsions:
REMARK  status: ('A' for Active; 'I' for Inactive)
ROOT
HETATM    1  C   UNL     1      23.054  64.605  19.288  1.00  0.00    -0.001 C 
HETATM    2  C   UNL     1      22.829  63.875  20.617  1.00  0.00    -0.026 C 
HETATM    3  C   UNL     1      20.784  61.123  23.001  1.00  0.00     0.047 C 
HETATM    4  C   UNL     1      23.056  62.361  20.359  1.00  0.00     0.076 C 
HETATM    5  C   UNL     1      24.556  64.404  19.082  1.00  0.00    -0.005 C 
HETATM    6  C   UNL     1      24.897  67.465  19.804  1.00  0.00     0.005 C 
HETATM    7  O   UNL     1      23.292  60.439  22.036  1.00  0.00    -0.326 OA
HETATM    8  C   UNL     1      26.191  66.795  20.289  1.00  0.00     0.001 C 
HETATM    9  C   UNL     1      19.431  62.670  22.158  1.00  0.00     0.096 C 
HETATM   10  C   UNL     1      24.131  66.735  18.684  1.00  0.00    -0.014 C 
HETATM   11  C   UNL     1      21.425  64.170  21.181  1.00  0.00     0.051 C 
HETATM   12  C   UNL     1      22.861  66.119  19.292  1.00  0.00     0.010 C 
HETATM   13  C   UNL     1      22.643  61.533  21.541  1.00  0.00     0.066 C 
HETATM   14  C   UNL     1      26.235  65.362  20.831  1.00  0.00     0.005 C 
HETATM   15  N   UNL     1      19.473  61.485  22.850  1.00  0.00    -0.365 N 
ATOM     16  HN  UNL     1      18.666  60.965  23.194  1.00  0.00     0.165 HD
HETATM   17  C   UNL     1      21.472  60.100  23.658  1.00  0.00     0.055 C 
HETATM   18  C   UNL     1      25.150  64.339  20.477  1.00  0.00    -0.009 C 
HETATM   19  C   UNL     1      23.997  64.350  21.506  1.00  0.00     0.015 C 
HETATM   20  C   UNL     1      20.721  62.963  21.751  1.00  0.00    -0.027 C 
HETATM   21  C   UNL     1      24.985  65.569  18.200  1.00  0.00     0.010 C 
HETATM   22  C   UNL     1      22.858  59.937  23.283  1.00  0.00     0.144 C 
HETATM   23  C   UNL     1      21.458  61.883  22.092  1.00  0.00     0.028 C 
ENDROOT
TORSDOF 0
ENDMDL
MODEL 7
REMARK VINA RESULT:      -7.0      4.019      5.920
REMARK  0 active torsions:
REMARK  status: ('A' for Active; 'I' for Inactive)
ROOT
HETATM    1  C   UNL     1      20.883  65.411  20.027  1.00  0.00    -0.001 C 
HETATM    2  C   UNL     1      21.758  64.602  20.991  1.00  0.00    -0.026 C 
HETATM    3  C   UNL     1      23.176  60.983  22.517  1.00  0.00     0.047 C 
HETATM    4  C   UNL     1      22.755  63.778  20.133  1.00  0.00     0.076 C 
HETATM    5  C   UNL     1      21.898  66.396  19.446  1.00  0.00    -0.005 C 
HETATM    6  C   UNL     1      20.488  68.624  21.194  1.00  0.00     0.005 C 
HETATM    7  O   UNL     1      24.831  62.464  20.857  1.00  0.00    -0.326 OA
HETATM    8  C   UNL     1      21.957  69.063  21.099  1.00  0.00     0.001 C 
HETATM    9  C   UNL     1      20.962  61.135  22.636  1.00  0.00     0.096 C 
HETATM   10  C   UNL     1      19.980  67.701  20.069  1.00  0.00    -0.014 C 
HETATM   11  C   UNL     1      20.897  63.712  21.908  1.00  0.00     0.051 C 
HETATM   12  C   UNL     1      19.801  66.289  20.650  1.00  0.00     0.010 C 
HETATM   13  C   UNL     1      23.508  62.784  20.967  1.00  0.00     0.066 C 
HETATM   14  C   UNL     1      23.121  68.066  21.031  1.00  0.00     0.005 C 
HETATM   15  N   UNL     1      22.031  60.287  22.798  1.00  0.00    -0.365 N 
ATOM     16  HN  UNL     1      21.981  59.308  23.079  1.00  0.00     0.165 HD
HETATM   17  C   UNL     1      24.547  60.722  22.572  1.00  0.00     0.055 C 
HETATM   18  C   UNL     1      22.914  66.626  20.551  1.00  0.00    -0.009 C 
HETATM   19  C   UNL     1      22.592  65.674  21.725  1.00  0.00     0.015 C 
HETATM   20  C   UNL     1      21.444  62.320  22.109  1.00  0.00    -0.027 C 
HETATM   21  C   UNL     1      21.068  67.594  19.007  1.00  0.00     0.010 C 
HETATM   22  C   UNL     1      25.393  61.667  21.879  1.00  0.00     0.144 C 
HETATM   23  C   UNL     1      22.750  62.091  21.848  1.00  0.00     0.028 C 
ENDROOT
TORSDOF 0
ENDMDL
MODEL 8
REMARK VINA RESULT:      -7.0      4.082      5.331
REMARK  0 active torsions:
REMARK  status: ('A' for Active; 'I' for Inactive)
ROOT
HETATM    1  C   UNL     1      24.041  64.068  19.919  1.00  0.00    -0.001 C 
HETATM    2  C   UNL     1      22.930  64.763  20.714  1.00  0.00    -0.026 C 
HETATM    3  C   UNL     1      20.350  67.975  21.395  1.00  0.00     0.047 C 
HETATM    4  C   UNL     1      21.726  64.959  19.756  1.00  0.00     0.076 C 
HETATM    5  C   UNL     1      23.427  62.689  19.679  1.00  0.00    -0.005 C 
HETATM    6  C   UNL     1      25.483  61.584  21.814  1.00  0.00     0.005 C 
HETATM    7  O   UNL     1      19.317  65.654  20.284  1.00  0.00    -0.326 OA
HETATM    8  C   UNL     1      24.250  60.677  21.942  1.00  0.00     0.001 C 
HETATM    9  C   UNL     1      22.482  68.600  21.382  1.00  0.00     0.096 C 
HETATM   10  C   UNL     1      25.664  62.299  20.460  1.00  0.00    -0.014 C 
HETATM   11  C   UNL     1      23.426  66.093  21.315  1.00  0.00     0.051 C 
HETATM   12  C   UNL     1      25.347  63.790  20.657  1.00  0.00     0.010 C 
HETATM   13  C   UNL     1      20.668  65.830  20.371  1.00  0.00     0.066 C 
HETATM   14  C   UNL     1      22.819  61.179  21.715  1.00  0.00     0.005 C 
HETATM   15  N   UNL     1      21.188  69.058  21.407  1.00  0.00    -0.365 N 
ATOM     16  HN  UNL     1      20.900  70.035  21.432  1.00  0.00     0.165 HD
HETATM   17  C   UNL     1      18.971  67.774  21.486  1.00  0.00     0.055 C 
HETATM   18  C   UNL     1      22.534  62.431  20.878  1.00  0.00    -0.009 C 
HETATM   19  C   UNL     1      22.498  63.705  21.752  1.00  0.00     0.015 C 
HETATM   20  C   UNL     1      22.438  67.229  21.203  1.00  0.00    -0.027 C 
HETATM   21  C   UNL     1      24.620  61.761  19.490  1.00  0.00     0.010 C 
HETATM   22  C   UNL     1      18.504  66.457  21.114  1.00  0.00     0.144 C 
HETATM   23  C   UNL     1      21.135  66.937  20.992  1.00  0.00     0.028 C 
ENDROOT
TORSDOF 0
ENDMDL
MODEL 9
REMARK VINA RESULT:      -7.0      1.555      3.064
REMARK  0 active torsions:
REMARK  status: ('A' for Active; 'I' for Inactive)
ROOT
HETATM    1  C   UNL     1      22.559  62.032  19.894  1.00  0.00    -0.001 C 
HETATM    2  C   UNL     1      22.128  61.902  21.360  1.00  0.00    -0.026 C 
HETATM    3  C   UNL     1      19.359  60.845  24.301  1.00  0.00     0.047 C 
HETATM    4  C   UNL     1      21.888  60.395  21.641  1.00  0.00     0.076 C 
HETATM    5  C   UNL     1      23.929  61.355  19.918  1.00  0.00    -0.005 C 
HETATM    6  C   UNL     1      25.179  64.246  19.619  1.00  0.00     0.005 C 
HETATM    7  O   UNL     1      21.541  59.188  23.874  1.00  0.00    -0.326 OA
HETATM    8  C   UNL     1      26.213  63.447  20.425  1.00  0.00     0.001 C 
HETATM    9  C   UNL     1      18.532  62.322  22.862  1.00  0.00     0.096 C 
HETATM   10  C   UNL     1      24.224  63.423  18.732  1.00  0.00    -0.014 C 
HETATM   11  C   UNL     1      20.881  62.760  21.650  1.00  0.00     0.051 C 
HETATM   12  C   UNL     1      22.830  63.443  19.378  1.00  0.00     0.010 C 
HETATM   13  C   UNL     1      21.249  60.180  22.983  1.00  0.00     0.066 C 
HETATM   14  C   UNL     1      25.825  62.340  21.413  1.00  0.00     0.005 C 
HETATM   15  N   UNL     1      18.217  61.489  23.908  1.00  0.00    -0.365 N 
ATOM     16  HN  UNL     1      17.292  61.372  24.321  1.00  0.00     0.165 HD
HETATM   17  C   UNL     1      19.710  59.962  25.325  1.00  0.00     0.055 C 
HETATM   18  C   UNL     1      24.481  61.610  21.309  1.00  0.00    -0.009 C 
HETATM   19  C   UNL     1      23.389  62.303  22.155  1.00  0.00     0.015 C 
HETATM   20  C   UNL     1      19.848  62.077  22.513  1.00  0.00    -0.027 C 
HETATM   21  C   UNL     1      24.685  61.971  18.749  1.00  0.00     0.010 C 
HETATM   22  C   UNL     1      20.981  59.293  25.167  1.00  0.00     0.144 C 
HETATM   23  C   UNL     1      20.227  61.020  23.265  1.00  0.00     0.028 C 
ENDROOT
TORSDOF 0
ENDMDL
