REMARK  2 active torsions:
REMARK  status: ('A' for Active; 'I' for Inactive)
REMARK    1  A    between atoms: C_9  and  C_12 
REMARK    2  A    between atoms: O_13  and  C_27 
ROOT
HETATM    1  O   UNL     1       3.319  10.902  19.589  1.00  0.00    -0.268 OA
HETATM    2  C   UNL     1      11.601   8.750  15.291  1.00  0.00     0.052 C 
HETATM    3  C   UNL     1       9.601  10.034  15.969  1.00  0.00     0.098 C 
HETATM    4  C   UNL     1       7.474   8.218  17.028  1.00  0.00     0.016 C 
HETATM    5  C   UNL     1       8.049   7.599  15.913  1.00  0.00     0.080 C 
HETATM    6  C   UNL     1       5.865   8.131  18.829  1.00  0.00    -0.008 C 
HETATM    7  C   UNL     1       4.056   9.926  19.735  1.00  0.00     0.254 C 
HETATM    8  C   UNL     1       3.624   8.597  19.385  1.00  0.00     0.041 C 
HETATM    9  C   UNL     1       7.778   9.536  17.411  1.00  0.00     0.046 C 
HETATM   10  C   UNL     1      10.135   8.819  15.647  1.00  0.00    -0.012 C 
HETATM   11  N   UNL     1       5.370  10.135  20.040  1.00  0.00    -0.322 N 
ATOM     12  HN  UNL     1       5.679  10.764  20.781  1.00  0.00     0.169 HD
HETATM   13  C   UNL     1       4.617   7.642  19.239  1.00  0.00     0.028 C 
HETATM   14  C   UNL     1       9.406   7.634  15.604  1.00  0.00     0.095 C 
HETATM   15  N   UNL     1       8.476  10.341  16.581  1.00  0.00    -0.365 N 
ATOM     16  HN  UNL     1       8.097  11.273  16.413  1.00  0.00     0.165 HD
HETATM   17  C   UNL     1       6.578   7.498  17.814  1.00  0.00     0.029 C 
HETATM   18  C   UNL     1       7.278  10.066  18.598  1.00  0.00     0.060 C 
HETATM   19  C   UNL     1       6.236   9.417  19.253  1.00  0.00     0.047 C 
HETATM   20 CL   UNL     1       7.016   6.755  14.790  1.00  0.00    -0.080 Cl
ENDROOT
BRANCH   8  21
HETATM   21  C   UNL     1       2.212   8.221  19.063  1.00  0.00     0.225 C 
HETATM   22  C   UNL     1       1.453   7.510  20.187  1.00  0.00     0.054 C 
HETATM   23  C   UNL     1      -0.001   7.709  19.721  1.00  0.00     0.112 C 
HETATM   24  C   UNL     1      -0.955   7.941  20.884  1.00  0.00     0.224 C 
HETATM   25  C   UNL     1       0.004   9.047  18.984  1.00  0.00     0.217 C 
HETATM   26  O   UNL     1      -1.766   7.165  21.346  1.00  0.00    -0.273 OA
HETATM   27  N   UNL     1      -0.983   9.271  21.153  1.00  0.00    -0.359 N 
HETATM   28  C   UNL     1      -0.641  10.035  19.952  1.00  0.00     0.156 C 
ATOM     29  HN  UNL     1      -1.209   9.679  22.060  1.00  0.00     0.162 HD
HETATM   30  N   UNL     1       1.411   9.410  18.774  1.00  0.00    -0.060 N 
ATOM     31  HN2 UNL     1       1.698  10.226  19.314  1.00  0.00     0.278 HD
ATOM     32  HN1 UNL     1       1.590   9.797  17.847  1.00  0.00     0.278 HD
ENDBRANCH   8  21
BRANCH  14  33
HETATM   33  O   UNL     1      10.002   6.535  15.134  1.00  0.00    -0.358 OA
ATOM     34  HO  UNL     1      10.928   6.559  14.923  1.00  0.00     0.217 HD
ENDBRANCH  14  33
TORSDOF 2
