MODEL 1
REMARK VINA RESULT:      -8.1      0.000      0.000
REMARK  4 active torsions:
REMARK  status: ('A' for Active; 'I' for Inactive)
REMARK    1  A    between atoms: C_5  and  O_6 
REMARK    2  A    between atoms: C_5  and  O_10 
REMARK    3  A    between atoms: O_8  and  C_20 
REMARK    4  A    between atoms: C_12  and  C_14 
ROOT
HETATM    1  C   UNL     1      52.506  43.854  55.753  1.00  0.00    -0.044 C 
HETATM    2  C   UNL     1      52.110  42.548  53.859  1.00  0.00    -0.003 C 
HETATM    3  C   UNL     1      50.412  42.662  55.810  1.00  0.00     0.013 C 
HETATM    4  C   UNL     1      53.567  42.927  53.838  1.00  0.00     0.229 C 
HETATM    5  C   UNL     1      53.404  40.824  52.832  1.00  0.00     0.365 C 
HETATM    6  C   UNL     1      51.044  44.138  57.609  1.00  0.00     0.041 C 
HETATM    7  C   UNL     1      50.124  43.251  57.039  1.00  0.00     0.019 C 
HETATM    8  C   UNL     1      52.139  44.595  56.862  1.00  0.00     0.026 C 
HETATM    9  C   UNL     1      53.857  43.662  55.130  1.00  0.00     0.077 C 
HETATM   10  N   UNL     1      54.240  41.670  53.636  1.00  0.00    -0.006 N 
ATOM     11  HN1 UNL     1      54.513  41.228  54.514  1.00  0.00     0.284 HD
ATOM     12  HN2 UNL     1      55.173  41.786  53.242  1.00  0.00     0.284 HD
HETATM   13  C   UNL     1      51.981  41.415  52.888  1.00  0.00     0.243 C 
HETATM   14  C   UNL     1      51.557  43.031  55.138  1.00  0.00    -0.023 C 
ENDROOT
BRANCH   5  15
HETATM   15  O   UNL     1      53.265  39.627  53.438  1.00  0.00    -0.341 OA
ATOM     16  HO  UNL     1      53.907  39.492  54.125  1.00  0.00     0.215 HD
ENDBRANCH   5  15
BRANCH   5  17
HETATM   17  O   UNL     1      53.939  40.718  51.606  1.00  0.00    -0.341 OA
ATOM     18  HO  UNL     1      53.467  40.102  51.058  1.00  0.00     0.215 HD
ENDBRANCH   5  17
BRANCH  13  19
HETATM   19  O   UNL     1      51.578  41.904  51.611  1.00  0.00    -0.384 OA
ATOM     20  HO  UNL     1      52.329  42.241  51.138  1.00  0.00     0.210 HD
ENDBRANCH  13  19
BRANCH   6  21
HETATM   21  C   UNL     1      50.943  44.572  59.041  1.00  0.00     0.209 C 
HETATM   22  O   UNL     1      49.860  45.066  59.446  1.00  0.00    -0.644 OA
HETATM   23  O   UNL     1      51.891  44.270  59.798  1.00  0.00    -0.644 OA
ENDBRANCH   6  21
TORSDOF 4
ENDMDL
MODEL 2
REMARK VINA RESULT:      -7.2      1.255      1.508
REMARK  4 active torsions:
REMARK  status: ('A' for Active; 'I' for Inactive)
REMARK    1  A    between atoms: C_5  and  O_6 
REMARK    2  A    between atoms: C_5  and  O_10 
REMARK    3  A    between atoms: O_8  and  C_20 
REMARK    4  A    between atoms: C_12  and  C_14 
ROOT
HETATM    1  C   UNL     1      53.114  42.941  54.808  1.00  0.00    -0.044 C 
HETATM    2  C   UNL     1      52.475  42.103  52.725  1.00  0.00    -0.003 C 
HETATM    3  C   UNL     1      50.729  42.726  54.532  1.00  0.00     0.013 C 
HETATM    4  C   UNL     1      53.950  41.842  52.872  1.00  0.00     0.229 C 
HETATM    5  C   UNL     1      53.088  40.103  51.573  1.00  0.00     0.365 C 
HETATM    6  C   UNL     1      51.662  43.628  56.563  1.00  0.00     0.041 C 
HETATM    7  C   UNL     1      50.546  43.262  55.804  1.00  0.00     0.019 C 
HETATM    8  C   UNL     1      52.936  43.658  55.977  1.00  0.00     0.026 C 
HETATM    9  C   UNL     1      54.341  42.265  54.274  1.00  0.00     0.077 C 
HETATM   10  N   UNL     1      54.081  40.445  52.551  1.00  0.00    -0.006 N 
ATOM     11  HN1 UNL     1      54.036  39.849  53.378  1.00  0.00     0.284 HD
ATOM     12  HN2 UNL     1      55.024  40.200  52.252  1.00  0.00     0.284 HD
HETATM   13  C   UNL     1      52.029  41.223  51.597  1.00  0.00     0.243 C 
HETATM   14  C   UNL     1      52.003  42.648  54.011  1.00  0.00    -0.023 C 
ENDROOT
BRANCH   5  15
HETATM   15  O   UNL     1      52.401  39.020  51.992  1.00  0.00    -0.341 OA
ATOM     16  HO  UNL     1      52.580  38.808  52.901  1.00  0.00     0.215 HD
ENDBRANCH   5  15
BRANCH   5  17
HETATM   17  O   UNL     1      53.688  39.901  50.391  1.00  0.00    -0.341 OA
ATOM     18  HO  UNL     1      54.542  40.315  50.343  1.00  0.00     0.215 HD
ENDBRANCH   5  17
BRANCH  13  19
HETATM   19  O   UNL     1      52.026  41.954  50.374  1.00  0.00    -0.384 OA
ATOM     20  HO  UNL     1      52.445  42.798  50.496  1.00  0.00     0.210 HD
ENDBRANCH  13  19
BRANCH   6  21
HETATM   21  C   UNL     1      51.559  43.927  58.029  1.00  0.00     0.209 C 
HETATM   22  O   UNL     1      51.638  45.124  58.407  1.00  0.00    -0.644 OA
HETATM   23  O   UNL     1      51.238  42.983  58.785  1.00  0.00    -0.644 OA
ENDBRANCH   6  21
TORSDOF 4
ENDMDL
MODEL 3
REMARK VINA RESULT:      -7.2      2.425      6.544
REMARK  4 active torsions:
REMARK  status: ('A' for Active; 'I' for Inactive)
REMARK    1  A    between atoms: C_5  and  O_6 
REMARK    2  A    between atoms: C_5  and  O_10 
REMARK    3  A    between atoms: O_8  and  C_20 
REMARK    4  A    between atoms: C_12  and  C_14 
ROOT
HETATM    1  C   UNL     1      52.028  41.938  52.311  1.00  0.00    -0.044 C 
HETATM    2  C   UNL     1      52.915  42.942  54.223  1.00  0.00    -0.003 C 
HETATM    3  C   UNL     1      54.149  41.023  53.001  1.00  0.00     0.013 C 
HETATM    4  C   UNL     1      51.470  43.357  54.136  1.00  0.00     0.229 C 
HETATM    5  C   UNL     1      52.003  43.255  56.408  1.00  0.00     0.365 C 
HETATM    6  C   UNL     1      53.041  40.216  51.018  1.00  0.00     0.041 C 
HETATM    7  C   UNL     1      54.125  40.171  51.900  1.00  0.00     0.019 C 
HETATM    8  C   UNL     1      52.095  41.247  51.115  1.00  0.00     0.026 C 
HETATM    9  C   UNL     1      50.858  42.604  52.972  1.00  0.00     0.077 C 
HETATM   10  N   UNL     1      50.954  43.064  55.448  1.00  0.00    -0.006 N 
ATOM     11  HN1 UNL     1      50.538  42.134  55.505  1.00  0.00     0.284 HD
ATOM     12  HN2 UNL     1      50.119  43.606  55.669  1.00  0.00     0.284 HD
HETATM   13  C   UNL     1      53.332  43.258  55.628  1.00  0.00     0.243 C 
HETATM   14  C   UNL     1      53.146  41.957  53.152  1.00  0.00    -0.023 C 
ENDROOT
BRANCH   5  15
HETATM   15  O   UNL     1      52.104  42.157  57.185  1.00  0.00    -0.341 OA
ATOM     16  HO  UNL     1      51.825  42.319  58.079  1.00  0.00     0.215 HD
ENDBRANCH   5  15
BRANCH   5  17
HETATM   17  O   UNL     1      51.749  44.363  57.120  1.00  0.00    -0.341 OA
ATOM     18  HO  UNL     1      50.858  44.670  57.007  1.00  0.00     0.215 HD
ENDBRANCH   5  17
BRANCH  13  19
HETATM   19  O   UNL     1      53.956  44.538  55.679  1.00  0.00    -0.384 OA
ATOM     20  HO  UNL     1      54.044  44.823  56.581  1.00  0.00     0.210 HD
ENDBRANCH  13  19
BRANCH   6  21
HETATM   21  C   UNL     1      52.804  39.143  49.998  1.00  0.00     0.209 C 
HETATM   22  O   UNL     1      51.621  38.784  49.764  1.00  0.00    -0.644 OA
HETATM   23  O   UNL     1      53.786  38.775  49.316  1.00  0.00    -0.644 OA
ENDBRANCH   6  21
TORSDOF 4
ENDMDL
MODEL 4
REMARK VINA RESULT:      -7.2      3.437      7.399
REMARK  4 active torsions:
REMARK  status: ('A' for Active; 'I' for Inactive)
REMARK    1  A    between atoms: C_5  and  O_6 
REMARK    2  A    between atoms: C_5  and  O_10 
REMARK    3  A    between atoms: O_8  and  C_20 
REMARK    4  A    between atoms: C_12  and  C_14 
ROOT
HETATM    1  C   UNL     1      52.333  40.891  50.881  1.00  0.00    -0.044 C 
HETATM    2  C   UNL     1      53.780  41.378  52.648  1.00  0.00    -0.003 C 
HETATM    3  C   UNL     1      54.278  39.470  50.972  1.00  0.00     0.013 C 
HETATM    4  C   UNL     1      52.481  42.084  52.933  1.00  0.00     0.229 C 
HETATM    5  C   UNL     1      53.405  41.516  55.002  1.00  0.00     0.365 C 
HETATM    6  C   UNL     1      52.651  39.229  49.208  1.00  0.00     0.041 C 
HETATM    7  C   UNL     1      53.846  38.826  49.815  1.00  0.00     0.019 C 
HETATM    8  C   UNL     1      52.006  40.401  49.630  1.00  0.00     0.026 C 
HETATM    9  C   UNL     1      51.498  41.665  51.858  1.00  0.00     0.077 C 
HETATM   10  N   UNL     1      52.174  41.696  54.285  1.00  0.00    -0.006 N 
ATOM     11  HN1 UNL     1      51.574  40.872  54.328  1.00  0.00     0.284 HD
ATOM     12  HN2 UNL     1      51.545  42.353  54.747  1.00  0.00     0.284 HD
HETATM   13  C   UNL     1      54.522  41.375  53.950  1.00  0.00     0.243 C 
HETATM   14  C   UNL     1      53.566  40.550  51.447  1.00  0.00    -0.023 C 
ENDROOT
BRANCH   5  15
HETATM   15  O   UNL     1      53.397  40.311  55.608  1.00  0.00    -0.341 OA
ATOM     16  HO  UNL     1      53.160  39.609  55.014  1.00  0.00     0.215 HD
ENDBRANCH   5  15
BRANCH   5  17
HETATM   17  O   UNL     1      53.555  42.525  55.873  1.00  0.00    -0.341 OA
ATOM     18  HO  UNL     1      53.321  43.365  55.498  1.00  0.00     0.215 HD
ENDBRANCH   5  17
BRANCH  13  19
HETATM   19  O   UNL     1      55.422  42.479  54.005  1.00  0.00    -0.384 OA
ATOM     20  HO  UNL     1      55.297  42.963  54.813  1.00  0.00     0.210 HD
ENDBRANCH  13  19
BRANCH   6  21
HETATM   21  C   UNL     1      51.981  38.402  48.152  1.00  0.00     0.209 C 
HETATM   22  O   UNL     1      51.924  37.156  48.308  1.00  0.00    -0.644 OA
HETATM   23  O   UNL     1      51.371  39.014  47.248  1.00  0.00    -0.644 OA
ENDBRANCH   6  21
TORSDOF 4
ENDMDL
MODEL 5
REMARK VINA RESULT:      -6.9      1.794      6.301
REMARK  4 active torsions:
REMARK  status: ('A' for Active; 'I' for Inactive)
REMARK    1  A    between atoms: C_5  and  O_6 
REMARK    2  A    between atoms: C_5  and  O_10 
REMARK    3  A    between atoms: O_8  and  C_20 
REMARK    4  A    between atoms: C_12  and  C_14 
ROOT
HETATM    1  C   UNL     1      51.058  42.996  55.170  1.00  0.00    -0.044 C 
HETATM    2  C   UNL     1      51.396  44.141  57.176  1.00  0.00    -0.003 C 
HETATM    3  C   UNL     1      53.355  43.606  55.571  1.00  0.00     0.013 C 
HETATM    4  C   UNL     1      50.021  43.530  57.243  1.00  0.00     0.229 C 
HETATM    5  C   UNL     1      50.843  43.574  59.429  1.00  0.00     0.365 C 
HETATM    6  C   UNL     1      52.713  42.473  53.542  1.00  0.00     0.041 C 
HETATM    7  C   UNL     1      53.703  43.054  54.341  1.00  0.00     0.019 C 
HETATM    8  C   UNL     1      51.358  42.634  53.870  1.00  0.00     0.026 C 
HETATM    9  C   UNL     1      49.850  42.678  56.001  1.00  0.00     0.077 C 
HETATM   10  N   UNL     1      50.016  42.845  58.509  1.00  0.00    -0.006 N 
ATOM     11  HN1 UNL     1      50.293  41.867  58.426  1.00  0.00     0.284 HD
ATOM     12  HN2 UNL     1      49.073  42.694  58.868  1.00  0.00     0.284 HD
HETATM   13  C   UNL     1      51.732  44.511  58.589  1.00  0.00     0.243 C 
HETATM   14  C   UNL     1      52.027  43.649  55.938  1.00  0.00    -0.023 C 
ENDROOT
BRANCH   5  15
HETATM   15  O   UNL     1      51.732  42.732  59.995  1.00  0.00    -0.341 OA
ATOM     16  HO  UNL     1      52.048  42.075  59.386  1.00  0.00     0.215 HD
ENDBRANCH   5  15
BRANCH   5  17
HETATM   17  O   UNL     1      50.062  44.178  60.337  1.00  0.00    -0.341 OA
ATOM     18  HO  UNL     1      50.347  45.063  60.528  1.00  0.00     0.215 HD
ENDBRANCH   5  17
BRANCH  13  19
HETATM   19  O   UNL     1      51.409  45.878  58.829  1.00  0.00    -0.384 OA
ATOM     20  HO  UNL     1      50.607  45.941  59.334  1.00  0.00     0.210 HD
ENDBRANCH  13  19
BRANCH   6  21
HETATM   21  C   UNL     1      53.051  41.609  52.365  1.00  0.00     0.209 C 
HETATM   22  O   UNL     1      54.016  40.809  52.461  1.00  0.00    -0.644 OA
HETATM   23  O   UNL     1      52.251  41.614  51.402  1.00  0.00    -0.644 OA
ENDBRANCH   6  21
TORSDOF 4
ENDMDL
MODEL 6
REMARK VINA RESULT:      -6.6      2.350      6.489
REMARK  4 active torsions:
REMARK  status: ('A' for Active; 'I' for Inactive)
REMARK    1  A    between atoms: C_5  and  O_6 
REMARK    2  A    between atoms: C_5  and  O_10 
REMARK    3  A    between atoms: O_8  and  C_20 
REMARK    4  A    between atoms: C_12  and  C_14 
ROOT
HETATM    1  C   UNL     1      53.452  40.778  53.149  1.00  0.00    -0.044 C 
HETATM    2  C   UNL     1      52.223  42.009  54.707  1.00  0.00    -0.003 C 
HETATM    3  C   UNL     1      51.273  41.446  52.366  1.00  0.00     0.013 C 
HETATM    4  C   UNL     1      53.649  41.982  55.191  1.00  0.00     0.229 C 
HETATM    5  C   UNL     1      52.739  44.016  55.893  1.00  0.00     0.365 C 
HETATM    6  C   UNL     1      52.726  40.108  50.985  1.00  0.00     0.041 C 
HETATM    7  C   UNL     1      51.509  40.770  51.171  1.00  0.00     0.019 C 
HETATM    8  C   UNL     1      53.611  39.940  52.060  1.00  0.00     0.026 C 
HETATM    9  C   UNL     1      54.472  41.298  54.118  1.00  0.00     0.077 C 
HETATM   10  N   UNL     1      53.942  43.367  55.455  1.00  0.00    -0.006 N 
ATOM     11  HN1 UNL     1      54.370  43.835  54.656  1.00  0.00     0.284 HD
ATOM     12  HN2 UNL     1      54.711  43.484  56.115  1.00  0.00     0.284 HD
HETATM   13  C   UNL     1      51.564  43.108  55.482  1.00  0.00     0.243 C 
HETATM   14  C   UNL     1      52.207  41.374  53.376  1.00  0.00    -0.023 C 
ENDROOT
BRANCH   5  15
HETATM   15  O   UNL     1      52.540  45.130  55.158  1.00  0.00    -0.341 OA
ATOM     16  HO  UNL     1      51.720  45.560  55.368  1.00  0.00     0.215 HD
ENDBRANCH   5  15
BRANCH   5  17
HETATM   17  O   UNL     1      52.836  44.280  57.205  1.00  0.00    -0.341 OA
ATOM     18  HO  UNL     1      52.234  44.959  57.483  1.00  0.00     0.215 HD
ENDBRANCH   5  17
BRANCH  13  19
HETATM   19  O   UNL     1      50.902  42.575  56.627  1.00  0.00    -0.384 OA
ATOM     20  HO  UNL     1      50.229  41.961  56.359  1.00  0.00     0.210 HD
ENDBRANCH  13  19
BRANCH   6  21
HETATM   21  C   UNL     1      53.165  39.621  49.636  1.00  0.00     0.209 C 
HETATM   22  O   UNL     1      54.200  38.911  49.559  1.00  0.00    -0.644 OA
HETATM   23  O   UNL     1      52.387  39.815  48.676  1.00  0.00    -0.644 OA
ENDBRANCH   6  21
TORSDOF 4
ENDMDL
MODEL 7
REMARK VINA RESULT:      -6.5      4.552      6.513
REMARK  4 active torsions:
REMARK  status: ('A' for Active; 'I' for Inactive)
REMARK    1  A    between atoms: C_5  and  O_6 
REMARK    2  A    between atoms: C_5  and  O_10 
REMARK    3  A    between atoms: O_8  and  C_20 
REMARK    4  A    between atoms: C_12  and  C_14 
ROOT
HETATM    1  C   UNL     1      53.516  39.648  50.527  1.00  0.00    -0.044 C 
HETATM    2  C   UNL     1      51.750  39.137  49.088  1.00  0.00    -0.003 C 
HETATM    3  C   UNL     1      51.345  40.233  51.397  1.00  0.00     0.013 C 
HETATM    4  C   UNL     1      52.963  38.404  48.577  1.00  0.00     0.229 C 
HETATM    5  C   UNL     1      51.108  37.087  48.045  1.00  0.00     0.365 C 
HETATM    6  C   UNL     1      53.350  40.712  52.649  1.00  0.00     0.041 C 
HETATM    7  C   UNL     1      51.957  40.756  52.534  1.00  0.00     0.019 C 
HETATM    8  C   UNL     1      54.137  40.345  51.548  1.00  0.00     0.026 C 
HETATM    9  C   UNL     1      54.076  38.628  49.581  1.00  0.00     0.077 C 
HETATM   10  N   UNL     1      52.496  37.052  48.411  1.00  0.00    -0.006 N 
ATOM     11  HN1 UNL     1      52.668  36.475  49.235  1.00  0.00     0.284 HD
ATOM     12  HN2 UNL     1      53.061  36.522  47.748  1.00  0.00     0.284 HD
HETATM   13  C   UNL     1      50.582  38.489  48.408  1.00  0.00     0.243 C 
HETATM   14  C   UNL     1      52.131  39.762  50.367  1.00  0.00    -0.023 C 
ENDROOT
BRANCH   5  15
HETATM   15  O   UNL     1      50.409  36.274  48.863  1.00  0.00    -0.341 OA
ATOM     16  HO  UNL     1      49.654  35.890  48.434  1.00  0.00     0.215 HD
ENDBRANCH   5  15
BRANCH   5  17
HETATM   17  O   UNL     1      50.987  36.740  46.755  1.00  0.00    -0.341 OA
ATOM     18  HO  UNL     1      50.204  36.229  46.589  1.00  0.00     0.215 HD
ENDBRANCH   5  17
BRANCH  13  19
HETATM   19  O   UNL     1      50.225  39.223  47.240  1.00  0.00    -0.384 OA
ATOM     20  HO  UNL     1      50.673  40.060  47.229  1.00  0.00     0.210 HD
ENDBRANCH  13  19
BRANCH   6  21
HETATM   21  C   UNL     1      54.047  40.978  53.950  1.00  0.00     0.209 C 
HETATM   22  O   UNL     1      54.940  41.863  53.985  1.00  0.00    -0.644 OA
HETATM   23  O   UNL     1      53.589  40.416  54.969  1.00  0.00    -0.644 OA
ENDBRANCH   6  21
TORSDOF 4
ENDMDL
MODEL 8
REMARK VINA RESULT:      -6.4      3.338      7.332
REMARK  4 active torsions:
REMARK  status: ('A' for Active; 'I' for Inactive)
REMARK    1  A    between atoms: C_5  and  O_6 
REMARK    2  A    between atoms: C_5  and  O_10 
REMARK    3  A    between atoms: O_8  and  C_20 
REMARK    4  A    between atoms: C_12  and  C_14 
ROOT
HETATM    1  C   UNL     1      53.322  39.866  50.845  1.00  0.00    -0.044 C 
HETATM    2  C   UNL     1      53.144  40.399  53.112  1.00  0.00    -0.003 C 
HETATM    3  C   UNL     1      51.321  39.024  51.893  1.00  0.00     0.013 C 
HETATM    4  C   UNL     1      54.225  41.275  52.536  1.00  0.00     0.229 C 
HETATM    5  C   UNL     1      53.212  42.497  54.249  1.00  0.00     0.365 C 
HETATM    6  C   UNL     1      51.791  38.562  49.573  1.00  0.00     0.041 C 
HETATM    7  C   UNL     1      50.958  38.425  50.688  1.00  0.00     0.019 C 
HETATM    8  C   UNL     1      53.075  39.110  49.714  1.00  0.00     0.026 C 
HETATM    9  C   UNL     1      54.252  41.026  51.041  1.00  0.00     0.077 C 
HETATM   10  N   UNL     1      53.857  42.597  52.971  1.00  0.00    -0.006 N 
ATOM     11  HN1 UNL     1      53.286  43.089  52.283  1.00  0.00     0.284 HD
ATOM     12  HN2 UNL     1      54.649  43.239  52.982  1.00  0.00     0.284 HD
HETATM   13  C   UNL     1      52.784  41.027  54.424  1.00  0.00     0.243 C 
HETATM   14  C   UNL     1      52.537  39.666  51.985  1.00  0.00    -0.023 C 
ENDROOT
BRANCH   5  15
HETATM   15  O   UNL     1      52.036  43.158  54.210  1.00  0.00    -0.341 OA
ATOM     16  HO  UNL     1      51.416  42.831  54.850  1.00  0.00     0.215 HD
ENDBRANCH   5  15
BRANCH   5  17
HETATM   17  O   UNL     1      54.036  42.975  55.194  1.00  0.00    -0.341 OA
ATOM     18  HO  UNL     1      53.608  43.605  55.762  1.00  0.00     0.215 HD
ENDBRANCH   5  17
BRANCH  13  19
HETATM   19  O   UNL     1      53.506  40.403  55.482  1.00  0.00    -0.384 OA
ATOM     20  HO  UNL     1      53.096  39.579  55.717  1.00  0.00     0.210 HD
ENDBRANCH  13  19
BRANCH   6  21
HETATM   21  C   UNL     1      51.330  38.207  48.191  1.00  0.00     0.209 C 
HETATM   22  O   UNL     1      50.522  37.253  48.052  1.00  0.00    -0.644 OA
HETATM   23  O   UNL     1      51.649  38.983  47.264  1.00  0.00    -0.644 OA
ENDBRANCH   6  21
TORSDOF 4
ENDMDL
MODEL 9
REMARK VINA RESULT:      -6.3      2.210      6.361
REMARK  4 active torsions:
REMARK  status: ('A' for Active; 'I' for Inactive)
REMARK    1  A    between atoms: C_5  and  O_6 
REMARK    2  A    between atoms: C_5  and  O_10 
REMARK    3  A    between atoms: O_8  and  C_20 
REMARK    4  A    between atoms: C_12  and  C_14 
ROOT
HETATM    1  C   UNL     1      52.530  44.342  55.985  1.00  0.00    -0.044 C 
HETATM    2  C   UNL     1      51.043  44.208  57.779  1.00  0.00    -0.003 C 
HETATM    3  C   UNL     1      51.177  42.347  55.985  1.00  0.00     0.013 C 
HETATM    4  C   UNL     1      51.538  45.629  57.721  1.00  0.00     0.229 C 
HETATM    5  C   UNL     1      49.352  45.712  58.543  1.00  0.00     0.365 C 
HETATM    6  C   UNL     1      52.845  42.709  54.283  1.00  0.00     0.041 C 
HETATM    7  C   UNL     1      51.841  41.912  54.841  1.00  0.00     0.019 C 
HETATM    8  C   UNL     1      53.328  43.827  54.980  1.00  0.00     0.026 C 
HETATM    9  C   UNL     1      52.400  45.751  56.481  1.00  0.00     0.077 C 
HETATM   10  N   UNL     1      50.328  46.410  57.755  1.00  0.00    -0.006 N 
ATOM     11  HN1 UNL     1      49.986  46.640  56.822  1.00  0.00     0.284 HD
ATOM     12  HN2 UNL     1      50.488  47.362  58.084  1.00  0.00     0.284 HD
HETATM   13  C   UNL     1      49.825  44.249  58.652  1.00  0.00     0.243 C 
HETATM   14  C   UNL     1      51.583  43.514  56.596  1.00  0.00    -0.023 C 
ENDROOT
BRANCH   5  15
HETATM   15  O   UNL     1      48.202  45.613  57.845  1.00  0.00    -0.341 OA
ATOM     16  HO  UNL     1      47.601  46.324  58.035  1.00  0.00     0.215 HD
ENDBRANCH   5  15
BRANCH   5  17
HETATM   17  O   UNL     1      49.189  46.356  59.709  1.00  0.00    -0.341 OA
ATOM     18  HO  UNL     1      50.015  46.623  60.094  1.00  0.00     0.215 HD
ENDBRANCH   5  17
BRANCH  13  19
HETATM   19  O   UNL     1      50.172  43.920  59.995  1.00  0.00    -0.384 OA
ATOM     20  HO  UNL     1      51.061  44.198  60.181  1.00  0.00     0.210 HD
ENDBRANCH  13  19
BRANCH   6  21
HETATM   21  C   UNL     1      53.387  42.454  52.908  1.00  0.00     0.209 C 
HETATM   22  O   UNL     1      54.595  42.128  52.787  1.00  0.00    -0.644 OA
HETATM   23  O   UNL     1      52.565  42.423  51.965  1.00  0.00    -0.644 OA
ENDBRANCH   6  21
TORSDOF 4
ENDMDL
