REMARK  1 active torsions:
REMARK  status: ('A' for Active; 'I' for Inactive)
REMARK    1  A    between atoms: N_15  and  C_38 
ROOT
HETATM    1  C   UNL     1     -39.075 -17.232 -14.563  1.00  0.00     0.029 C 
HETATM    2  C   UNL     1     -34.962 -14.181 -14.658  1.00  0.00     0.047 C 
HETATM    3  C   UNL     1     -35.379 -13.139 -11.693  1.00  0.00     0.052 C 
HETATM    4  C   UNL     1     -34.892 -14.438 -11.560  1.00  0.00     0.122 C 
HETATM    5  C   UNL     1     -39.277 -19.125 -16.103  1.00  0.00     0.254 C 
HETATM    6  C   UNL     1     -34.914 -16.329 -11.734  1.00  0.00     0.150 C 
HETATM    7  C   UNL     1     -39.716 -16.888 -16.896  1.00  0.00     0.258 C 
HETATM    8  O   UNL     1     -39.170 -20.328 -16.347  1.00  0.00    -0.268 OA
HETATM    9  N   UNL     1     -34.574 -15.494 -10.714  1.00  0.00    -0.265 N 
HETATM   10  C   UNL     1     -34.406 -15.190 -13.898  1.00  0.00     0.103 C 
HETATM   11  C   UNL     1     -39.568 -19.549 -13.601  1.00  0.00     0.064 C 
HETATM   12  O   UNL     1     -40.397 -16.193 -17.657  1.00  0.00    -0.267 OA
HETATM   13  C   UNL     1     -35.592 -19.913 -11.816  1.00  0.00     0.050 C 
HETATM   14  C   UNL     1     -36.036 -13.395 -14.116  1.00  0.00     0.033 C 
HETATM   15  N   UNL     1     -37.101 -20.103 -13.739  1.00  0.00    -0.376 N 
ATOM     16  HN  UNL     1     -36.879 -20.395 -14.691  1.00  0.00     0.161 HD
HETATM   17  C   UNL     1     -39.167 -16.352 -15.666  1.00  0.00     0.034 C 
HETATM   18  C   UNL     1     -38.405 -20.403 -13.136  1.00  0.00     0.126 C 
HETATM   19  C   UNL     1     -36.186 -19.411 -12.971  1.00  0.00     0.101 C 
HETATM   20  N   UNL     1     -35.801 -18.130 -13.156  1.00  0.00    -0.340 N 
ATOM     21  HN  UNL     1     -35.894 -17.583 -14.012  1.00  0.00     0.167 HD
HETATM   22  C   UNL     1     -35.133 -18.808 -11.104  1.00  0.00     0.037 C 
HETATM   23  C   UNL     1     -38.344 -14.113 -14.827  1.00  0.00     0.089 C 
HETATM   24  N   UNL     1     -34.751 -15.324 -12.587  1.00  0.00    -0.291 N 
HETATM   25  C   UNL     1     -35.263 -17.709 -11.974  1.00  0.00     0.079 C 
HETATM   26  C   UNL     1     -38.776 -14.977 -15.725  1.00  0.00     0.034 C 
HETATM   27  C   UNL     1     -39.290 -18.604 -14.741  1.00  0.00     0.013 C 
HETATM   28  N   UNL     1     -37.250 -13.295 -14.793  1.00  0.00    -0.366 N 
ATOM     29  HN  UNL     1     -37.338 -12.458 -15.369  1.00  0.00     0.165 HD
HETATM   30  C   UNL     1     -35.876 -12.684 -12.908  1.00  0.00     0.033 C 
HETATM   31  N   UNL     1     -39.428 -18.227 -17.137  1.00  0.00    -0.289 N 
ATOM     32  HN  UNL     1     -39.326 -18.551 -18.099  1.00  0.00     0.172 HD
ENDROOT
BRANCH   9  33
HETATM   33  C   UNL     1     -33.557 -15.919  -9.843  1.00  0.00     0.115 C 
HETATM   34  N   UNL     1     -33.367 -17.229  -9.628  1.00  0.00    -0.338 N 
HETATM   35  C   UNL     1     -33.483 -17.790  -8.430  1.00  0.00     0.181 C 
ATOM     36  HN  UNL     1     -33.122 -17.822 -10.421  1.00  0.00     0.168 HD
HETATM   37  N   UNL     1     -33.263 -17.257  -7.240  1.00  0.00    -0.362 N 
HETATM   38  C   UNL     1     -32.978 -15.995  -6.927  1.00  0.00     0.089 C 
ATOM     39  HN  UNL     1     -33.320 -17.903  -6.452  1.00  0.00     0.165 HD
HETATM   40  C   UNL     1     -32.639 -14.989  -7.742  1.00  0.00     0.021 C 
HETATM   41  C   UNL     1     -32.820 -14.947  -9.146  1.00  0.00     0.050 C 
ENDBRANCH   9  33
TORSDOF 1
