REMARK  0 active torsions:
REMARK  status: ('A' for Active; 'I' for Inactive)
ROOT
HETATM    1  C   UNL     1      14.019   9.802   8.702  1.00  0.00     0.667 C 
HETATM    2  C   UNL     1      16.469  10.332  12.789  1.00  0.00    -0.023 C 
HETATM    3  C   UNL     1      18.771   8.968  13.498  1.00  0.00    -0.022 C 
HETATM    4  O   UNL     1      17.206  12.036  14.275  1.00  0.00    -0.288 OA
HETATM    5  C   UNL     1      15.052  10.325  12.312  1.00  0.00     0.064 C 
HETATM    6  N   UNL     1      15.115   9.537   7.962  1.00  0.00    -0.227 N 
ATOM      7  HN  UNL     1      15.004   8.774   7.294  1.00  0.00     0.177 HD
HETATM    8  N   UNL     1      12.843   9.755   8.093  1.00  0.00    -0.235 N 
ATOM      9  HN1 UNL     1      12.014   9.955   8.653  1.00  0.00     0.174 HD
ATOM     10  HN2 UNL     1      12.797   9.698   7.076  1.00  0.00     0.174 HD
HETATM   11  C   UNL     1      17.204  10.821  13.981  1.00  0.00     0.174 C 
HETATM   12  C   UNL     1      17.141  10.428   9.254  1.00  0.00     0.027 C 
HETATM   13  C   UNL     1      17.415  10.067  11.665  1.00  0.00     0.028 C 
HETATM   14  N   UNL     1      14.081   9.879  10.083  1.00  0.00    -0.222 N 
ATOM     15  HN  UNL     1      13.300   9.519  10.631  1.00  0.00     0.178 HD
HETATM   16  C   UNL     1      16.411  10.152   7.961  1.00  0.00     0.138 C 
HETATM   17  C   UNL     1      15.228  10.458  10.784  1.00  0.00     0.108 C 
HETATM   18  C   UNL     1      18.288   9.921  14.391  1.00  0.00     0.051 C 
HETATM   19  C   UNL     1      16.538   9.683  10.473  1.00  0.00     0.019 C 
HETATM   20  C   UNL     1      18.464   9.056  12.070  1.00  0.00     0.036 C 
ENDROOT
TORSDOF 0
