MODEL 1
REMARK VINA RESULT:      -8.7      0.000      0.000
REMARK  7 active torsions:
REMARK  status: ('A' for Active; 'I' for Inactive)
REMARK    1  A    between atoms: C_1  and  C_4 
REMARK    2  A    between atoms: C_2  and  O_7 
REMARK    3  A    between atoms: C_6  and  C_15 
REMARK    4  A    between atoms: C_9  and  C_26 
REMARK    5  A    between atoms: O_11  and  C_26 
REMARK    6  A    between atoms: O_18  and  C_26 
REMARK    7  A    between atoms: O_23  and  C_26 
ROOT
HETATM    1  C   UNL     1      15.902   3.551 113.059  1.00  0.00     0.048 C 
HETATM    2  C   UNL     1      15.283   4.865 112.605  1.00  0.00     0.131 C 
HETATM    3  C   UNL     1      17.355   3.866 113.389  1.00  0.00     0.012 C 
HETATM    4  C   UNL     1      17.625   5.291 112.934  1.00  0.00     0.009 C 
HETATM    5  C   UNL     1      16.458   5.647 112.027  1.00  0.00     0.024 C 
ENDROOT
BRANCH   1   6
HETATM    6  C   UNL     1      15.241   2.811 114.193  1.00  0.00    -0.051 C 
HETATM    7  C   UNL     1      14.177   3.364 114.882  1.00  0.00     0.008 C 
HETATM    8  C   UNL     1      13.661   2.762 116.008  1.00  0.00     0.016 C 
HETATM    9  C   UNL     1      14.268   1.621 116.504  1.00  0.00     0.033 C 
HETATM   10  C   UNL     1      15.166   0.942 115.703  1.00  0.00     0.016 C 
HETATM   11  C   UNL     1      15.676   1.555 114.575  1.00  0.00     0.008 C 
BRANCH   9  12
HETATM   12  C   UNL     1      13.748   0.989 117.807  1.00  0.00     0.307 C 
BRANCH  12  13
HETATM   13  O   UNL     1      14.686   1.270 118.791  1.00  0.00    -0.340 OA
ATOM     14  HO  UNL     1      14.654   0.553 119.413  1.00  0.00     0.216 HD
ENDBRANCH  12  13
BRANCH  12  15
HETATM   15  O   UNL     1      12.487   1.432 118.099  1.00  0.00    -0.340 OA
ATOM     16  HO  UNL     1      12.516   2.246 118.588  1.00  0.00     0.216 HD
ENDBRANCH  12  15
BRANCH  12  17
HETATM   17  O   UNL     1      13.655  -0.342 117.762  1.00  0.00    -0.340 OA
ATOM     18  HO  UNL     1      13.310  -0.730 118.557  1.00  0.00     0.216 HD
ENDBRANCH  12  17
ENDBRANCH   9  12
ENDBRANCH   1   6
BRANCH   2  19
HETATM   19  O   UNL     1      14.264   4.683 111.636  1.00  0.00    -0.394 OA
ATOM     20  HO  UNL     1      14.208   5.408 111.024  1.00  0.00     0.210 HD
ENDBRANCH   2  19
BRANCH   5  21
HETATM   21  C   UNL     1      16.130   7.143 112.127  1.00  0.00     0.032 C 
HETATM   22  C   UNL     1      17.210   7.792 112.951  1.00  0.00    -0.040 C 
HETATM   23  C   UNL     1      16.796   7.947 114.259  1.00  0.00     0.005 C 
HETATM   24  C   UNL     1      18.440   8.280 112.584  1.00  0.00     0.008 C 
HETATM   25  C   UNL     1      15.362   7.777 114.316  1.00  0.00     0.105 C 
HETATM   26  C   UNL     1      17.748   8.084 115.251  1.00  0.00     0.014 C 
HETATM   27  F   UNL     1      14.616   8.437 115.160  1.00  0.00    -0.210 F 
HETATM   28  C   UNL     1      14.861   7.313 112.967  1.00  0.00     0.081 C 
HETATM   29  C   UNL     1      19.051   8.361 114.890  1.00  0.00     0.001 C 
HETATM   30  C   UNL     1      19.352   8.581 113.570  1.00  0.00     0.001 C 
ENDBRANCH   5  21
TORSDOF 7
ENDMDL
MODEL 2
REMARK VINA RESULT:      -7.9      2.635      4.062
REMARK  7 active torsions:
REMARK  status: ('A' for Active; 'I' for Inactive)
REMARK    1  A    between atoms: C_1  and  C_4 
REMARK    2  A    between atoms: C_2  and  O_7 
REMARK    3  A    between atoms: C_6  and  C_15 
REMARK    4  A    between atoms: C_9  and  C_26 
REMARK    5  A    between atoms: O_11  and  C_26 
REMARK    6  A    between atoms: O_18  and  C_26 
REMARK    7  A    between atoms: O_23  and  C_26 
ROOT
HETATM    1  C   UNL     1      16.517   1.427 115.171  1.00  0.00     0.048 C 
HETATM    2  C   UNL     1      15.922   2.070 113.927  1.00  0.00     0.131 C 
HETATM    3  C   UNL     1      16.147   2.341 116.331  1.00  0.00     0.012 C 
HETATM    4  C   UNL     1      15.528   3.598 115.740  1.00  0.00     0.009 C 
HETATM    5  C   UNL     1      15.882   3.558 114.262  1.00  0.00     0.024 C 
ENDROOT
BRANCH   1   6
HETATM    6  C   UNL     1      16.151  -0.003 115.473  1.00  0.00    -0.051 C 
HETATM    7  C   UNL     1      16.845  -1.054 114.901  1.00  0.00     0.008 C 
HETATM    8  C   UNL     1      16.428  -2.357 115.056  1.00  0.00     0.016 C 
HETATM    9  C   UNL     1      15.248  -2.615 115.733  1.00  0.00     0.033 C 
HETATM   10  C   UNL     1      14.685  -1.610 116.496  1.00  0.00     0.016 C 
HETATM   11  C   UNL     1      15.112  -0.306 116.334  1.00  0.00     0.008 C 
BRANCH   9  12
HETATM   12  C   UNL     1      14.734  -4.060 115.840  1.00  0.00     0.307 C 
BRANCH  12  13
HETATM   13  O   UNL     1      13.525  -4.007 116.519  1.00  0.00    -0.340 OA
ATOM     14  HO  UNL     1      13.710  -4.221 117.425  1.00  0.00     0.216 HD
ENDBRANCH  12  13
BRANCH  12  15
HETATM   15  O   UNL     1      14.653  -4.646 114.606  1.00  0.00    -0.340 OA
ATOM     16  HO  UNL     1      14.387  -4.017 113.946  1.00  0.00     0.216 HD
ENDBRANCH  12  15
BRANCH  12  17
HETATM   17  O   UNL     1      15.522  -4.861 116.562  1.00  0.00    -0.340 OA
ATOM     18  HO  UNL     1      16.340  -5.081 116.134  1.00  0.00     0.216 HD
ENDBRANCH  12  17
ENDBRANCH   9  12
ENDBRANCH   1   6
BRANCH   2  19
HETATM   19  O   UNL     1      16.695   1.830 112.763  1.00  0.00    -0.394 OA
ATOM     20  HO  UNL     1      16.674   2.557 112.152  1.00  0.00     0.210 HD
ENDBRANCH   2  19
BRANCH   5  21
HETATM   21  C   UNL     1      14.775   4.208 113.422  1.00  0.00     0.032 C 
HETATM   22  C   UNL     1      15.427   5.203 112.500  1.00  0.00    -0.040 C 
HETATM   23  C   UNL     1      15.333   6.480 113.019  1.00  0.00     0.005 C 
HETATM   24  C   UNL     1      16.001   5.032 111.265  1.00  0.00     0.008 C 
HETATM   25  C   UNL     1      14.339   6.483 114.068  1.00  0.00     0.105 C 
HETATM   26  C   UNL     1      16.227   7.443 112.594  1.00  0.00     0.014 C 
HETATM   27  F   UNL     1      13.579   7.518 114.304  1.00  0.00    -0.210 F 
HETATM   28  C   UNL     1      13.898   5.063 114.342  1.00  0.00     0.081 C 
HETATM   29  C   UNL     1      16.984   7.198 111.465  1.00  0.00     0.001 C 
HETATM   30  C   UNL     1      16.768   6.051 110.746  1.00  0.00     0.001 C 
ENDBRANCH   5  21
TORSDOF 7
ENDMDL
MODEL 3
REMARK VINA RESULT:      -7.6      3.083      4.356
REMARK  7 active torsions:
REMARK  status: ('A' for Active; 'I' for Inactive)
REMARK    1  A    between atoms: C_1  and  C_4 
REMARK    2  A    between atoms: C_2  and  O_7 
REMARK    3  A    between atoms: C_6  and  C_15 
REMARK    4  A    between atoms: C_9  and  C_26 
REMARK    5  A    between atoms: O_11  and  C_26 
REMARK    6  A    between atoms: O_18  and  C_26 
REMARK    7  A    between atoms: O_23  and  C_26 
ROOT
HETATM    1  C   UNL     1      16.040   6.755 112.526  1.00  0.00     0.048 C 
HETATM    2  C   UNL     1      17.245   7.481 113.107  1.00  0.00     0.131 C 
HETATM    3  C   UNL     1      16.503   6.174 111.198  1.00  0.00     0.012 C 
HETATM    4  C   UNL     1      17.890   6.731 110.917  1.00  0.00     0.009 C 
HETATM    5  C   UNL     1      18.054   7.894 111.882  1.00  0.00     0.024 C 
ENDROOT
BRANCH   1   6
HETATM    6  C   UNL     1      15.373   5.702 113.372  1.00  0.00    -0.051 C 
HETATM    7  C   UNL     1      15.253   5.856 114.741  1.00  0.00     0.008 C 
HETATM    8  C   UNL     1      14.777   4.839 115.538  1.00  0.00     0.016 C 
HETATM    9  C   UNL     1      14.485   3.611 114.968  1.00  0.00     0.033 C 
HETATM   10  C   UNL     1      14.379   3.524 113.594  1.00  0.00     0.016 C 
HETATM   11  C   UNL     1      14.858   4.551 112.803  1.00  0.00     0.008 C 
BRANCH   9  12
HETATM   12  C   UNL     1      14.031   2.446 115.864  1.00  0.00     0.307 C 
BRANCH  12  13
HETATM   13  O   UNL     1      12.796   2.801 116.388  1.00  0.00    -0.340 OA
ATOM     14  HO  UNL     1      12.138   2.422 115.819  1.00  0.00     0.216 HD
ENDBRANCH  12  13
BRANCH  12  15
HETATM   15  O   UNL     1      14.023   1.267 115.171  1.00  0.00    -0.340 OA
ATOM     16  HO  UNL     1      14.838   0.794 115.291  1.00  0.00     0.216 HD
ENDBRANCH  12  15
BRANCH  12  17
HETATM   17  O   UNL     1      14.826   2.234 116.917  1.00  0.00    -0.340 OA
ATOM     18  HO  UNL     1      15.214   1.368 116.935  1.00  0.00     0.216 HD
ENDBRANCH  12  17
ENDBRANCH   9  12
ENDBRANCH   1   6
BRANCH   2  19
HETATM   19  O   UNL     1      16.882   8.610 113.883  1.00  0.00    -0.394 OA
ATOM     20  HO  UNL     1      17.624   9.002 114.329  1.00  0.00     0.210 HD
ENDBRANCH   2  19
BRANCH   5  21
HETATM   21  C   UNL     1      19.521   8.043 112.306  1.00  0.00     0.032 C 
HETATM   22  C   UNL     1      20.102   9.199 111.536  1.00  0.00    -0.040 C 
HETATM   23  C   UNL     1      20.805   8.746 110.437  1.00  0.00     0.005 C 
HETATM   24  C   UNL     1      20.087  10.545 111.802  1.00  0.00     0.008 C 
HETATM   25  C   UNL     1      21.055   7.331 110.595  1.00  0.00     0.105 C 
HETATM   26  C   UNL     1      21.019   9.607 109.378  1.00  0.00     0.014 C 
HETATM   27  F   UNL     1      22.140   6.761 110.145  1.00  0.00    -0.210 F 
HETATM   28  C   UNL     1      20.304   6.825 111.806  1.00  0.00     0.081 C 
HETATM   29  C   UNL     1      20.796  10.957 109.560  1.00  0.00     0.001 C 
HETATM   30  C   UNL     1      20.456  11.420 110.805  1.00  0.00     0.001 C 
ENDBRANCH   5  21
TORSDOF 7
ENDMDL
MODEL 4
REMARK VINA RESULT:      -7.5      3.592      5.043
REMARK  7 active torsions:
REMARK  status: ('A' for Active; 'I' for Inactive)
REMARK    1  A    between atoms: C_1  and  C_4 
REMARK    2  A    between atoms: C_2  and  O_7 
REMARK    3  A    between atoms: C_6  and  C_15 
REMARK    4  A    between atoms: C_9  and  C_26 
REMARK    5  A    between atoms: O_11  and  C_26 
REMARK    6  A    between atoms: O_18  and  C_26 
REMARK    7  A    between atoms: O_23  and  C_26 
ROOT
HETATM    1  C   UNL     1      16.817   7.003 112.381  1.00  0.00     0.048 C 
HETATM    2  C   UNL     1      18.079   7.707 112.861  1.00  0.00     0.131 C 
HETATM    3  C   UNL     1      17.144   6.460 110.997  1.00  0.00     0.012 C 
HETATM    4  C   UNL     1      18.500   7.020 110.597  1.00  0.00     0.009 C 
HETATM    5  C   UNL     1      18.766   8.154 111.575  1.00  0.00     0.024 C 
ENDROOT
BRANCH   1   6
HETATM    6  C   UNL     1      16.230   5.928 113.258  1.00  0.00    -0.051 C 
HETATM    7  C   UNL     1      16.915   4.751 113.500  1.00  0.00     0.008 C 
HETATM    8  C   UNL     1      16.328   3.706 114.179  1.00  0.00     0.016 C 
HETATM    9  C   UNL     1      15.000   3.806 114.558  1.00  0.00     0.033 C 
HETATM   10  C   UNL     1      14.391   5.045 114.530  1.00  0.00     0.016 C 
HETATM   11  C   UNL     1      14.990   6.087 113.848  1.00  0.00     0.008 C 
BRANCH   9  12
HETATM   12  C   UNL     1      14.315   2.611 115.243  1.00  0.00     0.307 C 
BRANCH  12  13
HETATM   13  O   UNL     1      13.937   1.735 114.236  1.00  0.00    -0.340 OA
ATOM     14  HO  UNL     1      13.866   2.246 113.439  1.00  0.00     0.216 HD
ENDBRANCH  12  13
BRANCH  12  15
HETATM   15  O   UNL     1      15.130   2.053 116.189  1.00  0.00    -0.340 OA
ATOM     16  HO  UNL     1      14.722   2.074 117.047  1.00  0.00     0.216 HD
ENDBRANCH  12  15
BRANCH  12  17
HETATM   17  O   UNL     1      13.190   2.932 115.888  1.00  0.00    -0.340 OA
ATOM     18  HO  UNL     1      13.329   3.216 116.783  1.00  0.00     0.216 HD
ENDBRANCH  12  17
ENDBRANCH   9  12
ENDBRANCH   1   6
BRANCH   2  19
HETATM   19  O   UNL     1      17.800   8.815 113.702  1.00  0.00    -0.394 OA
ATOM     20  HO  UNL     1      16.975   9.236 113.491  1.00  0.00     0.210 HD
ENDBRANCH   2  19
BRANCH   5  21
HETATM   21  C   UNL     1      20.268   8.286 111.856  1.00  0.00     0.032 C 
HETATM   22  C   UNL     1      20.895   8.971 110.672  1.00  0.00    -0.040 C 
HETATM   23  C   UNL     1      21.467   8.045 109.822  1.00  0.00     0.005 C 
HETATM   24  C   UNL     1      21.026  10.306 110.381  1.00  0.00     0.008 C 
HETATM   25  C   UNL     1      21.594   6.787 110.522  1.00  0.00     0.105 C 
HETATM   26  C   UNL     1      21.680   8.391 108.501  1.00  0.00     0.014 C 
HETATM   27  F   UNL     1      22.583   5.964 110.301  1.00  0.00    -0.210 F 
HETATM   28  C   UNL     1      20.893   6.887 111.857  1.00  0.00     0.081 C 
HETATM   29  C   UNL     1      21.599   9.720 108.139  1.00  0.00     0.001 C 
HETATM   30  C   UNL     1      21.400  10.671 109.107  1.00  0.00     0.001 C 
ENDBRANCH   5  21
TORSDOF 7
ENDMDL
MODEL 5
REMARK VINA RESULT:      -7.2      3.576      4.624
REMARK  7 active torsions:
REMARK  status: ('A' for Active; 'I' for Inactive)
REMARK    1  A    between atoms: C_1  and  C_4 
REMARK    2  A    between atoms: C_2  and  O_7 
REMARK    3  A    between atoms: C_6  and  C_15 
REMARK    4  A    between atoms: C_9  and  C_26 
REMARK    5  A    between atoms: O_11  and  C_26 
REMARK    6  A    between atoms: O_18  and  C_26 
REMARK    7  A    between atoms: O_23  and  C_26 
ROOT
HETATM    1  C   UNL     1      16.399   3.508 116.337  1.00  0.00     0.048 C 
HETATM    2  C   UNL     1      15.124   4.033 115.692  1.00  0.00     0.131 C 
HETATM    3  C   UNL     1      17.492   3.662 115.288  1.00  0.00     0.012 C 
HETATM    4  C   UNL     1      16.819   4.073 113.988  1.00  0.00     0.009 C 
HETATM    5  C   UNL     1      15.340   3.794 114.201  1.00  0.00     0.024 C 
ENDROOT
BRANCH   1   6
HETATM    6  C   UNL     1      16.825   4.109 117.652  1.00  0.00    -0.051 C 
HETATM    7  C   UNL     1      17.167   3.307 118.726  1.00  0.00     0.008 C 
HETATM    8  C   UNL     1      17.418   3.842 119.969  1.00  0.00     0.016 C 
HETATM    9  C   UNL     1      17.249   5.202 120.168  1.00  0.00     0.033 C 
HETATM   10  C   UNL     1      17.140   6.027 119.065  1.00  0.00     0.016 C 
HETATM   11  C   UNL     1      16.890   5.480 117.822  1.00  0.00     0.008 C 
BRANCH   9  12
HETATM   12  C   UNL     1      17.447   5.795 121.573  1.00  0.00     0.307 C 
BRANCH  12  13
HETATM   13  O   UNL     1      18.270   4.918 122.266  1.00  0.00    -0.340 OA
ATOM     14  HO  UNL     1      18.169   4.067 121.858  1.00  0.00     0.216 HD
ENDBRANCH  12  13
BRANCH  12  15
HETATM   15  O   UNL     1      17.930   7.073 121.505  1.00  0.00    -0.340 OA
ATOM     16  HO  UNL     1      18.704   7.117 120.957  1.00  0.00     0.216 HD
ENDBRANCH  12  15
BRANCH  12  17
HETATM   17  O   UNL     1      16.322   5.878 122.287  1.00  0.00    -0.340 OA
ATOM     18  HO  UNL     1      16.411   6.383 123.086  1.00  0.00     0.216 HD
ENDBRANCH  12  17
ENDBRANCH   9  12
ENDBRANCH   1   6
BRANCH   2  19
HETATM   19  O   UNL     1      13.963   3.364 116.153  1.00  0.00    -0.394 OA
ATOM     20  HO  UNL     1      13.162   3.734 115.799  1.00  0.00     0.210 HD
ENDBRANCH   2  19
BRANCH   5  21
HETATM   21  C   UNL     1      14.482   4.804 113.426  1.00  0.00     0.032 C 
HETATM   22  C   UNL     1      15.391   5.549 112.487  1.00  0.00    -0.040 C 
HETATM   23  C   UNL     1      15.756   6.767 113.028  1.00  0.00     0.005 C 
HETATM   24  C   UNL     1      15.820   5.232 111.222  1.00  0.00     0.008 C 
HETATM   25  C   UNL     1      14.867   7.072 114.126  1.00  0.00     0.105 C 
HETATM   26  C   UNL     1      16.903   7.385 112.571  1.00  0.00     0.014 C 
HETATM   27  F   UNL     1      14.512   8.295 114.414  1.00  0.00    -0.210 F 
HETATM   28  C   UNL     1      13.985   5.876 114.401  1.00  0.00     0.081 C 
HETATM   29  C   UNL     1      17.484   6.935 111.402  1.00  0.00     0.001 C 
HETATM   30  C   UNL     1      16.862   5.950 110.679  1.00  0.00     0.001 C 
ENDBRANCH   5  21
TORSDOF 7
ENDMDL
MODEL 6
REMARK VINA RESULT:      -7.1      4.499      6.107
REMARK  7 active torsions:
REMARK  status: ('A' for Active; 'I' for Inactive)
REMARK    1  A    between atoms: C_1  and  C_4 
REMARK    2  A    between atoms: C_2  and  O_7 
REMARK    3  A    between atoms: C_6  and  C_15 
REMARK    4  A    between atoms: C_9  and  C_26 
REMARK    5  A    between atoms: O_11  and  C_26 
REMARK    6  A    between atoms: O_18  and  C_26 
REMARK    7  A    between atoms: O_23  and  C_26 
ROOT
HETATM    1  C   UNL     1      17.928   7.703 111.888  1.00  0.00     0.048 C 
HETATM    2  C   UNL     1      19.302   8.270 112.212  1.00  0.00     0.131 C 
HETATM    3  C   UNL     1      18.118   6.824 110.660  1.00  0.00     0.012 C 
HETATM    4  C   UNL     1      19.535   7.046 110.157  1.00  0.00     0.009 C 
HETATM    5  C   UNL     1      20.015   8.303 110.864  1.00  0.00     0.024 C 
ENDROOT
BRANCH   1   6
HETATM    6  C   UNL     1      17.195   6.959 112.975  1.00  0.00    -0.051 C 
HETATM    7  C   UNL     1      16.088   7.508 113.595  1.00  0.00     0.008 C 
HETATM    8  C   UNL     1      15.501   6.903 114.683  1.00  0.00     0.016 C 
HETATM    9  C   UNL     1      16.077   5.762 115.216  1.00  0.00     0.033 C 
HETATM   10  C   UNL     1      17.026   5.087 114.473  1.00  0.00     0.016 C 
HETATM   11  C   UNL     1      17.608   5.703 113.382  1.00  0.00     0.008 C 
BRANCH   9  12
HETATM   12  C   UNL     1      15.475   5.126 116.481  1.00  0.00     0.307 C 
BRANCH  12  13
HETATM   13  O   UNL     1      15.133   6.170 117.330  1.00  0.00    -0.340 OA
ATOM     14  HO  UNL     1      14.756   5.778 118.108  1.00  0.00     0.216 HD
ENDBRANCH  12  13
BRANCH  12  15
HETATM   15  O   UNL     1      14.430   4.301 116.167  1.00  0.00    -0.340 OA
ATOM     16  HO  UNL     1      14.732   3.417 115.997  1.00  0.00     0.216 HD
ENDBRANCH  12  15
BRANCH  12  17
HETATM   17  O   UNL     1      16.334   4.367 117.165  1.00  0.00    -0.340 OA
ATOM     18  HO  UNL     1      16.177   3.435 117.076  1.00  0.00     0.216 HD
ENDBRANCH  12  17
ENDBRANCH   9  12
ENDBRANCH   1   6
BRANCH   2  19
HETATM   19  O   UNL     1      19.238   9.565 112.787  1.00  0.00    -0.394 OA
ATOM     20  HO  UNL     1      19.185  10.253 112.134  1.00  0.00     0.210 HD
ENDBRANCH   2  19
BRANCH   5  21
HETATM   21  C   UNL     1      21.527   8.236 111.122  1.00  0.00     0.032 C 
HETATM   22  C   UNL     1      22.222   8.411 109.798  1.00  0.00    -0.040 C 
HETATM   23  C   UNL     1      22.587   7.185 109.276  1.00  0.00     0.005 C 
HETATM   24  C   UNL     1      22.581   9.551 109.123  1.00  0.00     0.008 C 
HETATM   25  C   UNL     1      22.511   6.193 110.324  1.00  0.00     0.105 C 
HETATM   26  C   UNL     1      22.809   7.077 107.917  1.00  0.00     0.014 C 
HETATM   27  F   UNL     1      23.328   5.175 110.379  1.00  0.00    -0.210 F 
HETATM   28  C   UNL     1      21.889   6.812 111.554  1.00  0.00     0.081 C 
HETATM   29  C   UNL     1      22.955   8.229 107.171  1.00  0.00     0.001 C 
HETATM   30  C   UNL     1      22.966   9.444 107.805  1.00  0.00     0.001 C 
ENDBRANCH   5  21
TORSDOF 7
ENDMDL
MODEL 7
REMARK VINA RESULT:      -7.0      4.149      8.047
REMARK  7 active torsions:
REMARK  status: ('A' for Active; 'I' for Inactive)
REMARK    1  A    between atoms: C_1  and  C_4 
REMARK    2  A    between atoms: C_2  and  O_7 
REMARK    3  A    between atoms: C_6  and  C_15 
REMARK    4  A    between atoms: C_9  and  C_26 
REMARK    5  A    between atoms: O_11  and  C_26 
REMARK    6  A    between atoms: O_18  and  C_26 
REMARK    7  A    between atoms: O_23  and  C_26 
ROOT
HETATM    1  C   UNL     1      19.142   6.943 113.589  1.00  0.00     0.048 C 
HETATM    2  C   UNL     1      17.731   7.496 113.452  1.00  0.00     0.131 C 
HETATM    3  C   UNL     1      18.982   5.493 114.027  1.00  0.00     0.012 C 
HETATM    4  C   UNL     1      17.510   5.274 114.340  1.00  0.00     0.009 C 
HETATM    5  C   UNL     1      16.912   6.668 114.437  1.00  0.00     0.024 C 
ENDROOT
BRANCH   1   6
HETATM    6  C   UNL     1      20.062   7.048 112.400  1.00  0.00    -0.051 C 
HETATM    7  C   UNL     1      19.565   7.282 111.131  1.00  0.00     0.008 C 
HETATM    8  C   UNL     1      20.380   7.236 110.022  1.00  0.00     0.016 C 
HETATM    9  C   UNL     1      21.707   6.873 110.171  1.00  0.00     0.033 C 
HETATM   10  C   UNL     1      22.257   6.868 111.438  1.00  0.00     0.016 C 
HETATM   11  C   UNL     1      21.431   6.916 112.544  1.00  0.00     0.008 C 
BRANCH   9  12
HETATM   12  C   UNL     1      22.603   6.740 108.928  1.00  0.00     0.307 C 
BRANCH  12  13
HETATM   13  O   UNL     1      23.328   5.566 109.079  1.00  0.00    -0.340 OA
ATOM     14  HO  UNL     1      22.806   4.870 108.699  1.00  0.00     0.216 HD
ENDBRANCH  12  13
BRANCH  12  15
HETATM   15  O   UNL     1      21.860   6.789 107.780  1.00  0.00    -0.340 OA
ATOM     16  HO  UNL     1      22.376   7.119 107.053  1.00  0.00     0.216 HD
ENDBRANCH  12  15
BRANCH  12  17
HETATM   17  O   UNL     1      23.507   7.714 108.808  1.00  0.00    -0.340 OA
ATOM     18  HO  UNL     1      23.152   8.585 108.936  1.00  0.00     0.216 HD
ENDBRANCH  12  17
ENDBRANCH   9  12
ENDBRANCH   1   6
BRANCH   2  19
HETATM   19  O   UNL     1      17.653   8.878 113.759  1.00  0.00    -0.394 OA
ATOM     20  HO  UNL     1      17.352   9.400 113.025  1.00  0.00     0.210 HD
ENDBRANCH   2  19
BRANCH   5  21
HETATM   21  C   UNL     1      15.453   6.666 113.962  1.00  0.00     0.032 C 
HETATM   22  C   UNL     1      14.915   5.272 114.150  1.00  0.00    -0.040 C 
HETATM   23  C   UNL     1      14.962   4.570 112.961  1.00  0.00     0.005 C 
HETATM   24  C   UNL     1      14.357   4.672 115.251  1.00  0.00     0.008 C 
HETATM   25  C   UNL     1      15.162   5.504 111.876  1.00  0.00     0.105 C 
HETATM   26  C   UNL     1      14.956   3.189 112.999  1.00  0.00     0.014 C 
HETATM   27  F   UNL     1      14.646   5.316 110.692  1.00  0.00    -0.210 F 
HETATM   28  C   UNL     1      15.430   6.879 112.445  1.00  0.00     0.081 C 
HETATM   29  C   UNL     1      14.607   2.556 114.175  1.00  0.00     0.001 C 
HETATM   30  C   UNL     1      14.190   3.306 115.245  1.00  0.00     0.001 C 
ENDBRANCH   5  21
TORSDOF 7
ENDMDL
MODEL 8
REMARK VINA RESULT:      -7.0      1.408      2.000
REMARK  7 active torsions:
REMARK  status: ('A' for Active; 'I' for Inactive)
REMARK    1  A    between atoms: C_1  and  C_4 
REMARK    2  A    between atoms: C_2  and  O_7 
REMARK    3  A    between atoms: C_6  and  C_15 
REMARK    4  A    between atoms: C_9  and  C_26 
REMARK    5  A    between atoms: O_11  and  C_26 
REMARK    6  A    between atoms: O_18  and  C_26 
REMARK    7  A    between atoms: O_23  and  C_26 
ROOT
HETATM    1  C   UNL     1      14.573   4.149 113.154  1.00  0.00     0.048 C 
HETATM    2  C   UNL     1      14.555   5.614 113.566  1.00  0.00     0.131 C 
HETATM    3  C   UNL     1      15.678   4.021 112.114  1.00  0.00     0.012 C 
HETATM    4  C   UNL     1      16.150   5.427 111.778  1.00  0.00     0.009 C 
HETATM    5  C   UNL     1      15.080   6.350 112.337  1.00  0.00     0.024 C 
ENDROOT
BRANCH   1   6
HETATM    6  C   UNL     1      14.727   3.111 114.235  1.00  0.00    -0.051 C 
HETATM    7  C   UNL     1      15.659   2.095 114.123  1.00  0.00     0.008 C 
HETATM    8  C   UNL     1      15.709   1.064 115.033  1.00  0.00     0.016 C 
HETATM    9  C   UNL     1      14.758   1.000 116.038  1.00  0.00     0.033 C 
HETATM   10  C   UNL     1      13.985   2.116 116.293  1.00  0.00     0.016 C 
HETATM   11  C   UNL     1      13.944   3.146 115.374  1.00  0.00     0.008 C 
BRANCH   9  12
HETATM   12  C   UNL     1      14.758  -0.193 117.009  1.00  0.00     0.307 C 
BRANCH  12  13
HETATM   13  O   UNL     1      13.642  -0.049 117.820  1.00  0.00    -0.340 OA
ATOM     14  HO  UNL     1      13.074  -0.788 117.639  1.00  0.00     0.216 HD
ENDBRANCH  12  13
BRANCH  12  15
HETATM   15  O   UNL     1      14.802  -1.380 116.330  1.00  0.00    -0.340 OA
ATOM     16  HO  UNL     1      15.157  -1.261 115.457  1.00  0.00     0.216 HD
ENDBRANCH  12  15
BRANCH  12  17
HETATM   17  O   UNL     1      15.808  -0.217 117.834  1.00  0.00    -0.340 OA
ATOM     18  HO  UNL     1      16.480   0.417 117.617  1.00  0.00     0.216 HD
ENDBRANCH  12  17
ENDBRANCH   9  12
ENDBRANCH   1   6
BRANCH   2  19
HETATM   19  O   UNL     1      13.258   6.067 113.917  1.00  0.00    -0.394 OA
ATOM     20  HO  UNL     1      13.219   6.418 114.799  1.00  0.00     0.210 HD
ENDBRANCH   2  19
BRANCH   5  21
HETATM   21  C   UNL     1      15.696   7.676 112.802  1.00  0.00     0.032 C 
HETATM   22  C   UNL     1      17.192   7.511 112.792  1.00  0.00    -0.040 C 
HETATM   23  C   UNL     1      17.658   7.225 114.061  1.00  0.00     0.005 C 
HETATM   24  C   UNL     1      18.100   7.666 111.774  1.00  0.00     0.008 C 
HETATM   25  C   UNL     1      16.622   7.538 115.018  1.00  0.00     0.105 C 
HETATM   26  C   UNL     1      18.883   6.602 114.199  1.00  0.00     0.014 C 
HETATM   27  F   UNL     1      16.892   7.985 116.214  1.00  0.00    -0.210 F 
HETATM   28  C   UNL     1      15.350   7.887 114.280  1.00  0.00     0.081 C 
HETATM   29  C   UNL     1      19.732   6.551 113.112  1.00  0.00     0.001 C 
HETATM   30  C   UNL     1      19.381   7.196 111.953  1.00  0.00     0.001 C 
ENDBRANCH   5  21
TORSDOF 7
ENDMDL
MODEL 9
REMARK VINA RESULT:      -6.9      3.332      7.911
REMARK  7 active torsions:
REMARK  status: ('A' for Active; 'I' for Inactive)
REMARK    1  A    between atoms: C_1  and  C_4 
REMARK    2  A    between atoms: C_2  and  O_7 
REMARK    3  A    between atoms: C_6  and  C_15 
REMARK    4  A    between atoms: C_9  and  C_26 
REMARK    5  A    between atoms: O_11  and  C_26 
REMARK    6  A    between atoms: O_18  and  C_26 
REMARK    7  A    between atoms: O_23  and  C_26 
ROOT
HETATM    1  C   UNL     1      16.322   6.226 113.972  1.00  0.00     0.048 C 
HETATM    2  C   UNL     1      15.225   5.246 113.581  1.00  0.00     0.131 C 
HETATM    3  C   UNL     1      17.170   5.510 115.014  1.00  0.00     0.012 C 
HETATM    4  C   UNL     1      16.454   4.218 115.373  1.00  0.00     0.009 C 
HETATM    5  C   UNL     1      15.046   4.378 114.823  1.00  0.00     0.024 C 
ENDROOT
BRANCH   1   6
HETATM    6  C   UNL     1      17.183   6.798 112.876  1.00  0.00    -0.051 C 
HETATM    7  C   UNL     1      17.051   6.370 111.567  1.00  0.00     0.008 C 
HETATM    8  C   UNL     1      17.927   6.779 110.587  1.00  0.00     0.016 C 
HETATM    9  C   UNL     1      19.008   7.572 110.933  1.00  0.00     0.033 C 
HETATM   10  C   UNL     1      19.014   8.186 112.170  1.00  0.00     0.016 C 
HETATM   11  C   UNL     1      18.129   7.770 113.146  1.00  0.00     0.008 C 
BRANCH   9  12
HETATM   12  C   UNL     1      20.036   7.965 109.858  1.00  0.00     0.307 C 
BRANCH  12  13
HETATM   13  O   UNL     1      20.898   8.882 110.444  1.00  0.00    -0.340 OA
ATOM     14  HO  UNL     1      20.783   9.702 109.978  1.00  0.00     0.216 HD
ENDBRANCH  12  13
BRANCH  12  15
HETATM   15  O   UNL     1      20.663   6.860 109.350  1.00  0.00    -0.340 OA
ATOM     16  HO  UNL     1      21.410   7.105 108.818  1.00  0.00     0.216 HD
ENDBRANCH  12  15
BRANCH  12  17
HETATM   17  O   UNL     1      19.504   8.588 108.804  1.00  0.00    -0.340 OA
ATOM     18  HO  UNL     1      20.070   8.603 108.042  1.00  0.00     0.216 HD
ENDBRANCH  12  17
ENDBRANCH   9  12
ENDBRANCH   1   6
BRANCH   2  19
HETATM   19  O   UNL     1      14.013   5.892 113.232  1.00  0.00    -0.394 OA
ATOM     20  HO  UNL     1      13.712   6.495 113.902  1.00  0.00     0.210 HD
ENDBRANCH   2  19
BRANCH   5  21
HETATM   21  C   UNL     1      14.479   3.022 114.380  1.00  0.00     0.032 C 
HETATM   22  C   UNL     1      14.563   2.088 115.557  1.00  0.00    -0.040 C 
HETATM   23  C   UNL     1      15.683   1.284 115.461  1.00  0.00     0.005 C 
HETATM   24  C   UNL     1      13.697   1.892 116.604  1.00  0.00     0.008 C 
HETATM   25  C   UNL     1      16.188   1.351 114.108  1.00  0.00     0.105 C 
HETATM   26  C   UNL     1      16.190   0.703 116.607  1.00  0.00     0.014 C 
HETATM   27  F   UNL     1      16.760   0.332 113.528  1.00  0.00    -0.210 F 
HETATM   28  C   UNL     1      15.426   2.409 113.343  1.00  0.00     0.081 C 
HETATM   29  C   UNL     1      15.414   0.691 117.748  1.00  0.00     0.001 C 
HETATM   30  C   UNL     1      14.130   1.171 117.694  1.00  0.00     0.001 C 
ENDBRANCH   5  21
TORSDOF 7
ENDMDL
