REMARK  9 active torsions:
REMARK  status: ('A' for Active; 'I' for Inactive)
REMARK    1  A    between atoms: C_1  and  C_39 
REMARK    2  A    between atoms: O_2  and  C_9 
REMARK    3  A    between atoms: C_10  and  C_39 
REMARK    4  A    between atoms: C_14  and  C_41 
REMARK    5  A    between atoms: N_18  and  C_32 
REMARK    6  A    between atoms: S_24  and  C_46 
REMARK    7  A    between atoms: C_26  and  O_37 
REMARK    8  A    between atoms: C_36  and  C_39 
REMARK    9  A    between atoms: C_36  and  C_41 
ROOT
HETATM    1  C   UNL     1     -34.024  26.689  19.010  1.00  0.00     0.036 C 
ENDROOT
BRANCH   1   2
HETATM    2  C   UNL     1     -34.585  26.427  17.743  1.00  0.00    -0.006 C 
HETATM    3  C   UNL     1     -35.238  27.433  17.042  1.00  0.00     0.017 C 
HETATM    4  C   UNL     1     -36.110  27.096  16.014  1.00  0.00     0.049 C 
HETATM    5  C   UNL     1     -36.158  25.770  15.582  1.00  0.00     0.098 C 
HETATM    6  N   UNL     1     -35.351  24.847  16.148  1.00  0.00    -0.352 N 
HETATM    7  C   UNL     1     -34.562  25.162  17.186  1.00  0.00     0.102 C 
ATOM      8  HN  UNL     1     -35.341  23.896  15.781  1.00  0.00     0.166 HD
BRANCH   5   9
HETATM    9  N   UNL     1     -36.970  25.407  14.569  1.00  0.00    -0.385 N 
ATOM     10  HN2 UNL     1     -37.005  24.438  14.253  1.00  0.00     0.157 HD
ATOM     11  HN1 UNL     1     -37.580  26.104  14.141  1.00  0.00     0.157 HD
ENDBRANCH   5   9
ENDBRANCH   1   2
BRANCH   1  12
HETATM   12  C   UNL     1     -34.856  26.466  20.137  1.00  0.00    -0.021 C 
HETATM   13  C   UNL     1     -34.437  26.015  21.393  1.00  0.00     0.020 C 
HETATM   14  C   UNL     1     -35.203  26.352  22.504  1.00  0.00    -0.042 C 
HETATM   15  C   UNL     1     -35.745  27.599  22.667  1.00  0.00     0.018 C 
HETATM   16  C   UNL     1     -35.590  25.578  23.751  1.00  0.00     0.065 C 
HETATM   17  C   UNL     1     -36.235  28.403  21.678  1.00  0.00     0.016 C 
HETATM   18  C   UNL     1     -35.964  27.837  23.977  1.00  0.00     0.176 C 
HETATM   19  C   UNL     1     -36.717  27.914  20.476  1.00  0.00     0.002 C 
HETATM   20  C   UNL     1     -36.223  26.714  19.971  1.00  0.00     0.012 C 
HETATM   21  C   UNL     1     -36.248  26.636  24.641  1.00  0.00     0.068 C 
HETATM   22  O   UNL     1     -35.936  28.933  24.542  1.00  0.00    -0.291 OA
HETATM   23  C   UNL     1     -37.672  26.521  24.681  1.00  0.00    -0.002 C 
HETATM   24  C   UNL     1     -35.586  26.605  25.942  1.00  0.00     0.034 C 
HETATM   25  C   UNL     1     -38.362  26.183  25.830  1.00  0.00     0.037 C 
HETATM   26  C   UNL     1     -37.590  25.714  26.876  1.00  0.00     0.098 C 
HETATM   27  C   UNL     1     -36.335  26.265  27.064  1.00  0.00     0.096 C 
BRANCH  26  28
HETATM   28  O   UNL     1     -38.060  24.791  27.717  1.00  0.00    -0.358 OA
ATOM     29  HO  UNL     1     -37.529  24.469  28.436  1.00  0.00     0.217 HD
ENDBRANCH  26  28
BRANCH  27  30
HETATM   30  O   UNL     1     -35.936  26.522  28.330  1.00  0.00    -0.358 OA
ATOM     31  HO  UNL     1     -35.074  26.900  28.459  1.00  0.00     0.217 HD
ENDBRANCH  27  30
ENDBRANCH   1  12
BRANCH   1  32
HETATM   32  C   UNL     1     -32.704  27.321  18.990  1.00  0.00     0.186 C 
HETATM   33  O   UNL     1     -32.573  28.488  19.310  1.00  0.00    -0.287 OA
BRANCH  32  34
HETATM   34  C   UNL     1     -31.554  26.552  18.418  1.00  0.00    -0.024 C 
HETATM   35  C   UNL     1     -31.106  25.365  19.266  1.00  0.00     0.048 C 
BRANCH  34  36
HETATM   36  C   UNL     1     -30.491  27.260  17.593  1.00  0.00     0.052 C 
HETATM   37  C   UNL     1     -29.301  27.806  18.318  1.00  0.00    -0.043 C 
HETATM   38  C   UNL     1     -29.251  28.693  19.379  1.00  0.00     0.010 C 
HETATM   39  C   UNL     1     -28.142  27.319  17.745  1.00  0.00    -0.050 C 
HETATM   40  C   UNL     1     -28.012  28.987  19.945  1.00  0.00     0.027 C 
HETATM   41  C   UNL     1     -26.853  28.421  19.423  1.00  0.00     0.081 C 
HETATM   42  C   UNL     1     -26.909  27.526  18.351  1.00  0.00     0.034 C 
HETATM   43  C   UNL     1     -28.430  26.496  16.534  1.00  0.00     0.040 C 
HETATM   44  C   UNL     1     -29.933  26.274  16.566  1.00  0.00     0.019 C 
BRANCH  41  45
HETATM   45  S   UNL     1     -25.318  28.836  20.172  1.00  0.00     0.137 S 
HETATM   46  O   UNL     1     -25.114  27.826  21.198  1.00  0.00    -0.591 OA
HETATM   47  O   UNL     1     -24.284  28.858  19.153  1.00  0.00    -0.591 OA
HETATM   48  O   UNL     1     -25.475  30.146  20.780  1.00  0.00    -0.591 OA
ENDBRANCH  41  45
ENDBRANCH  34  36
ENDBRANCH  32  34
ENDBRANCH   1  32
TORSDOF 9
