REMARK  5 active torsions:
REMARK  status: ('A' for Active; 'I' for Inactive)
REMARK    1  A    between atoms: C_1  and  C_23 
REMARK       I    between atoms: C_1  and  N_24 
REMARK    2  A    between atoms: C_3  and  C_28 
REMARK    3  A    between atoms: O_6  and  C_34 
REMARK    4  A    between atoms: C_11  and  C_26 
REMARK    5  A    between atoms: C_14  and  O_15 
ROOT
HETATM    1  C   UNL     1     -47.894  -1.470   9.968  1.00  0.00     0.255 C 
HETATM    2  C   UNL     1     -47.242   2.110  10.599  1.00  0.00     0.035 C 
HETATM    3  C   UNL     1     -46.785   0.721  10.143  1.00  0.00     0.121 C 
HETATM    4  C   UNL     1     -46.205   2.009   8.077  1.00  0.00    -0.047 C 
HETATM    5  C   UNL     1     -44.098   1.510   7.084  1.00  0.00     0.099 C 
HETATM    6  C   UNL     1     -47.467   2.815   8.141  1.00  0.00     0.044 C 
HETATM    7  C   UNL     1     -49.411   1.879   9.332  1.00  0.00     0.025 C 
HETATM    8  C   UNL     1     -45.081   2.467   7.377  1.00  0.00     0.047 C 
HETATM    9  C   UNL     1     -48.149   2.729   9.521  1.00  0.00    -0.006 C 
HETATM   10  N   UNL     1     -47.979  -0.121   9.977  1.00  0.00    -0.339 N 
HETATM   11  O   UNL     1     -47.532  -2.088   8.975  1.00  0.00    -0.267 OA
HETATM   12  C   UNL     1     -49.316   0.454   9.832  1.00  0.00     0.127 C 
HETATM   13  C   UNL     1     -44.423   0.143   7.239  1.00  0.00     0.099 C 
HETATM   14  C   UNL     1     -46.065   0.818   8.821  1.00  0.00    -0.026 C 
HETATM   15  C   UNL     1     -45.272  -0.208   8.301  1.00  0.00     0.049 C 
ENDROOT
BRANCH   1  16
HETATM   16  C   UNL     1     -48.229  -2.224  11.201  1.00  0.00     0.043 C 
HETATM   17  C   UNL     1     -47.192  -2.815  11.946  1.00  0.00    -0.004 C 
HETATM   18  C   UNL     1     -47.049  -4.205  11.981  1.00  0.00    -0.050 C 
HETATM   19  C   UNL     1     -45.733  -4.861  11.660  1.00  0.00     0.049 C 
HETATM   20  C   UNL     1     -48.116  -5.033  12.301  1.00  0.00     0.007 C 
HETATM   21  C   UNL     1     -49.412  -4.668  12.453  1.00  0.00     0.001 C 
HETATM   22  C   UNL     1     -50.055  -3.482  12.199  1.00  0.00     0.001 C 
HETATM   23  C   UNL     1     -49.553  -2.350  11.602  1.00  0.00     0.018 C 
BRANCH  17  24
HETATM   24  C   UNL     1     -46.272  -1.986  12.612  1.00  0.00    -0.024 A 
HETATM   25  C   UNL     1     -46.646  -1.303  13.781  1.00  0.00     0.013 A 
HETATM   26  C   UNL     1     -45.742  -0.457  14.407  1.00  0.00     0.008 A 
HETATM   27  C   UNL     1     -44.430  -0.380  13.935  1.00  0.00    -0.053 A 
HETATM   28  C   UNL     1     -44.078  -1.016  12.750  1.00  0.00     0.008 A 
HETATM   29  C   UNL     1     -44.988  -1.816  12.082  1.00  0.00     0.013 A 
BRANCH  27  30
HETATM   30  C   UNL     1     -43.414   0.360  14.701  1.00  0.00     0.027 A 
HETATM   31  C   UNL     1     -41.988   0.015  14.567  1.00  0.00    -0.000 A 
HETATM   32  C   UNL     1     -42.673   1.494  14.142  1.00  0.00    -0.000 A 
HETATM   33  C   UNL     1     -41.308   1.310  14.717  1.00  0.00     0.011 A 
ENDBRANCH  27  30
ENDBRANCH  17  24
ENDBRANCH   1  16
BRANCH  13  34
HETATM   34  O   UNL     1     -44.042  -0.754   6.303  1.00  0.00    -0.358 OA
ATOM     35  HO  UNL     1     -44.260  -1.673   6.407  1.00  0.00     0.217 HD
ENDBRANCH  13  34
BRANCH   5  36
HETATM   36  O   UNL     1     -42.825   1.900   6.783  1.00  0.00    -0.358 OA
ATOM     37  HO  UNL     1     -42.159   1.252   6.585  1.00  0.00     0.217 HD
ENDBRANCH   5  36
TORSDOF 5
