MODEL 1
REMARK VINA RESULT:      -5.3      0.000      0.000
REMARK  2 active torsions:
REMARK  status: ('A' for Active; 'I' for Inactive)
REMARK    1  A    between atoms: C_1  and  O_5 
REMARK    2  A    between atoms: C_9  and  O_11 
ROOT
HETATM    1  C   UNL     1      21.346  15.803  13.725  1.00  0.00     0.204 C 
HETATM    2  N   UNL     1      21.979  15.331  11.086  1.00  0.00    -0.331 N 
ATOM      3  HN  UNL     1      22.261  15.394  10.108  1.00  0.00     0.168 HD
HETATM    4  C   UNL     1      20.664  15.625  11.436  1.00  0.00     0.126 C 
HETATM    5  O   UNL     1      23.618  13.941  11.834  1.00  0.00    -0.269 OA
HETATM    6  C   UNL     1      22.647  15.435  13.374  1.00  0.00     0.085 C 
HETATM    7  C   UNL     1      20.306  15.393  12.736  1.00  0.00     0.091 C 
HETATM    8  C   UNL     1      22.914  14.954  12.039  1.00  0.00     0.244 C 
ENDROOT
BRANCH   1   9
HETATM    9  O   UNL     1      20.958  15.487  15.003  1.00  0.00    -0.385 OA
ATOM     10  HO  UNL     1      20.601  16.202  15.516  1.00  0.00     0.210 HD
ENDBRANCH   1   9
BRANCH   7  11
HETATM   11  O   UNL     1      19.060  15.192  13.140  1.00  0.00    -0.361 OA
ATOM     12  HO  UNL     1      18.658  14.339  13.022  1.00  0.00     0.217 HD
ENDBRANCH   7  11
TORSDOF 2
ENDMDL
MODEL 2
REMARK VINA RESULT:      -5.2      2.060      3.232
REMARK  2 active torsions:
REMARK  status: ('A' for Active; 'I' for Inactive)
REMARK    1  A    between atoms: C_1  and  O_5 
REMARK    2  A    between atoms: C_9  and  O_11 
ROOT
HETATM    1  C   UNL     1      22.112  16.096  14.178  1.00  0.00     0.204 C 
HETATM    2  N   UNL     1      20.892  17.463  12.122  1.00  0.00    -0.331 N 
ATOM      3  HN  UNL     1      20.615  17.867  11.227  1.00  0.00     0.168 HD
HETATM    4  C   UNL     1      21.878  18.093  12.876  1.00  0.00     0.126 C 
HETATM    5  O   UNL     1      19.029  16.224  12.537  1.00  0.00    -0.269 OA
HETATM    6  C   UNL     1      21.070  15.499  13.463  1.00  0.00     0.085 C 
HETATM    7  C   UNL     1      22.113  17.588  14.127  1.00  0.00     0.091 C 
HETATM    8  C   UNL     1      20.277  16.299  12.561  1.00  0.00     0.244 C 
ENDROOT
BRANCH   1   9
HETATM    9  O   UNL     1      22.287  15.651  15.465  1.00  0.00    -0.385 OA
ATOM     10  HO  UNL     1      22.642  16.283  16.077  1.00  0.00     0.210 HD
ENDBRANCH   1   9
BRANCH   7  11
HETATM   11  O   UNL     1      22.659  18.278  15.117  1.00  0.00    -0.361 OA
ATOM     12  HO  UNL     1      23.605  18.339  15.183  1.00  0.00     0.217 HD
ENDBRANCH   7  11
TORSDOF 2
ENDMDL
MODEL 3
REMARK VINA RESULT:      -5.2      1.718      2.276
REMARK  2 active torsions:
REMARK  status: ('A' for Active; 'I' for Inactive)
REMARK    1  A    between atoms: C_1  and  O_5 
REMARK    2  A    between atoms: C_9  and  O_11 
ROOT
HETATM    1  C   UNL     1      22.324  15.729  12.600  1.00  0.00     0.204 C 
HETATM    2  N   UNL     1      20.096  16.298  11.084  1.00  0.00    -0.331 N 
ATOM      3  HN  UNL     1      19.372  16.728  10.508  1.00  0.00     0.168 HD
HETATM    4  C   UNL     1      20.042  16.445  12.467  1.00  0.00     0.126 C 
HETATM    5  O   UNL     1      20.815  14.715   9.616  1.00  0.00    -0.269 OA
HETATM    6  C   UNL     1      22.344  15.513  11.219  1.00  0.00     0.085 C 
HETATM    7  C   UNL     1      20.957  15.735  13.198  1.00  0.00     0.091 C 
HETATM    8  C   UNL     1      21.111  15.577  10.471  1.00  0.00     0.244 C 
ENDROOT
BRANCH   1   9
HETATM    9  O   UNL     1      23.178  14.950  13.340  1.00  0.00    -0.385 OA
ATOM     10  HO  UNL     1      22.963  14.026  13.384  1.00  0.00     0.210 HD
ENDBRANCH   1   9
BRANCH   7  11
HETATM   11  O   UNL     1      20.796  15.405  14.471  1.00  0.00    -0.361 OA
ATOM     12  HO  UNL     1      20.006  15.668  14.930  1.00  0.00     0.217 HD
ENDBRANCH   7  11
TORSDOF 2
ENDMDL
MODEL 4
REMARK VINA RESULT:      -5.1      1.270      2.310
REMARK  2 active torsions:
REMARK  status: ('A' for Active; 'I' for Inactive)
REMARK    1  A    between atoms: C_1  and  O_5 
REMARK    2  A    between atoms: C_9  and  O_11 
ROOT
HETATM    1  C   UNL     1      20.409  15.601  12.877  1.00  0.00     0.204 C 
HETATM    2  N   UNL     1      23.057  14.893  12.612  1.00  0.00    -0.331 N 
ATOM      3  HN  UNL     1      23.959  14.416  12.594  1.00  0.00     0.168 HD
HETATM    4  C   UNL     1      22.616  15.471  13.798  1.00  0.00     0.126 C 
HETATM    5  O   UNL     1      22.842  15.315  10.386  1.00  0.00    -0.269 OA
HETATM    6  C   UNL     1      20.876  15.089  11.664  1.00  0.00     0.085 C 
HETATM    7  C   UNL     1      21.468  16.214  13.732  1.00  0.00     0.091 C 
HETATM    8  C   UNL     1      22.297  14.952  11.451  1.00  0.00     0.244 C 
ENDROOT
BRANCH   1   9
HETATM    9  O   UNL     1      19.310  16.420  12.798  1.00  0.00    -0.385 OA
ATOM     10  HO  UNL     1      18.893  16.472  11.946  1.00  0.00     0.210 HD
ENDBRANCH   1   9
BRANCH   7  11
HETATM   11  O   UNL     1      21.144  17.161  14.600  1.00  0.00    -0.361 OA
ATOM     12  HO  UNL     1      20.565  16.957  15.325  1.00  0.00     0.217 HD
ENDBRANCH   7  11
TORSDOF 2
ENDMDL
MODEL 5
REMARK VINA RESULT:      -4.9      1.963      3.126
REMARK  2 active torsions:
REMARK  status: ('A' for Active; 'I' for Inactive)
REMARK    1  A    between atoms: C_1  and  O_5 
REMARK    2  A    between atoms: C_9  and  O_11 
ROOT
HETATM    1  C   UNL     1      20.373  15.462  12.883  1.00  0.00     0.204 C 
HETATM    2  N   UNL     1      22.246  17.471  12.682  1.00  0.00    -0.331 N 
ATOM      3  HN  UNL     1      23.044  18.063  12.449  1.00  0.00     0.168 HD
HETATM    4  C   UNL     1      22.388  16.494  13.664  1.00  0.00     0.126 C 
HETATM    5  O   UNL     1      20.578  18.812  11.911  1.00  0.00    -0.269 OA
HETATM    6  C   UNL     1      20.200  16.487  11.949  1.00  0.00     0.085 C 
HETATM    7  C   UNL     1      21.254  15.823  14.032  1.00  0.00     0.091 C 
HETATM    8  C   UNL     1      21.045  17.656  12.013  1.00  0.00     0.244 C 
ENDROOT
BRANCH   1   9
HETATM    9  O   UNL     1      19.225  14.849  13.319  1.00  0.00    -0.385 OA
ATOM     10  HO  UNL     1      19.343  14.141  13.940  1.00  0.00     0.210 HD
ENDBRANCH   1   9
BRANCH   7  11
HETATM   11  O   UNL     1      21.099  15.208  15.196  1.00  0.00    -0.361 OA
ATOM     12  HO  UNL     1      21.244  14.271  15.257  1.00  0.00     0.217 HD
ENDBRANCH   7  11
TORSDOF 2
ENDMDL
MODEL 6
REMARK VINA RESULT:      -4.9      2.170      2.476
REMARK  2 active torsions:
REMARK  status: ('A' for Active; 'I' for Inactive)
REMARK    1  A    between atoms: C_1  and  O_5 
REMARK    2  A    between atoms: C_9  and  O_11 
ROOT
HETATM    1  C   UNL     1      20.106  15.494  12.495  1.00  0.00     0.204 C 
HETATM    2  N   UNL     1      21.056  16.896  10.323  1.00  0.00    -0.331 N 
ATOM      3  HN  UNL     1      21.602  17.446   9.660  1.00  0.00     0.168 HD
HETATM    4  C   UNL     1      20.288  17.550  11.281  1.00  0.00     0.126 C 
HETATM    5  O   UNL     1      20.924  14.956   9.141  1.00  0.00    -0.269 OA
HETATM    6  C   UNL     1      20.814  14.829  11.490  1.00  0.00     0.085 C 
HETATM    7  C   UNL     1      19.471  16.770  12.054  1.00  0.00     0.091 C 
HETATM    8  C   UNL     1      21.094  15.510  10.249  1.00  0.00     0.244 C 
ENDROOT
BRANCH   1   9
HETATM    9  O   UNL     1      19.219  14.727  13.209  1.00  0.00    -0.385 OA
ATOM     10  HO  UNL     1      18.859  13.976  12.753  1.00  0.00     0.210 HD
ENDBRANCH   1   9
BRANCH   7  11
HETATM   11  O   UNL     1      18.391  17.216  12.679  1.00  0.00    -0.361 OA
ATOM     12  HO  UNL     1      17.733  16.600  12.982  1.00  0.00     0.217 HD
ENDBRANCH   7  11
TORSDOF 2
ENDMDL
MODEL 7
REMARK VINA RESULT:      -4.9      1.725      2.462
REMARK  2 active torsions:
REMARK  status: ('A' for Active; 'I' for Inactive)
REMARK    1  A    between atoms: C_1  and  O_5 
REMARK    2  A    between atoms: C_9  and  O_11 
ROOT
HETATM    1  C   UNL     1      21.134  15.524  11.617  1.00  0.00     0.204 C 
HETATM    2  N   UNL     1      23.447  15.196  13.076  1.00  0.00    -0.331 N 
ATOM      3  HN  UNL     1      24.234  14.841  13.619  1.00  0.00     0.168 HD
HETATM    4  C   UNL     1      22.263  15.525  13.729  1.00  0.00     0.126 C 
HETATM    5  O   UNL     1      24.585  15.927  11.246  1.00  0.00    -0.269 OA
HETATM    6  C   UNL     1      22.342  15.267  10.963  1.00  0.00     0.085 C 
HETATM    7  C   UNL     1      21.289  16.122  12.975  1.00  0.00     0.091 C 
HETATM    8  C   UNL     1      23.580  15.339  11.702  1.00  0.00     0.244 C 
ENDROOT
BRANCH   1   9
HETATM    9  O   UNL     1      20.191  16.205  10.887  1.00  0.00    -0.385 OA
ATOM     10  HO  UNL     1      20.099  17.128  11.089  1.00  0.00     0.210 HD
ENDBRANCH   1   9
BRANCH   7  11
HETATM   11  O   UNL     1      20.321  16.878  13.474  1.00  0.00    -0.361 OA
ATOM     12  HO  UNL     1      20.073  17.680  13.029  1.00  0.00     0.217 HD
ENDBRANCH   7  11
TORSDOF 2
ENDMDL
MODEL 8
REMARK VINA RESULT:      -4.8      1.710      2.735
REMARK  2 active torsions:
REMARK  status: ('A' for Active; 'I' for Inactive)
REMARK    1  A    between atoms: C_1  and  O_5 
REMARK    2  A    between atoms: C_9  and  O_11 
ROOT
HETATM    1  C   UNL     1      20.908  16.389  11.790  1.00  0.00     0.204 C 
HETATM    2  N   UNL     1      23.009  15.085  13.001  1.00  0.00    -0.331 N 
ATOM      3  HN  UNL     1      23.916  14.788  13.363  1.00  0.00     0.168 HD
HETATM    4  C   UNL     1      22.656  14.755  11.696  1.00  0.00     0.126 C 
HETATM    5  O   UNL     1      21.929  15.394  14.980  1.00  0.00    -0.269 OA
HETATM    6  C   UNL     1      21.223  16.661  13.124  1.00  0.00     0.085 C 
HETATM    7  C   UNL     1      21.378  15.057  11.309  1.00  0.00     0.091 C 
HETATM    8  C   UNL     1      22.155  15.808  13.822  1.00  0.00     0.244 C 
ENDROOT
BRANCH   1   9
HETATM    9  O   UNL     1      19.602  16.608  11.426  1.00  0.00    -0.385 OA
ATOM     10  HO  UNL     1      19.464  16.902  10.535  1.00  0.00     0.210 HD
ENDBRANCH   1   9
BRANCH   7  11
HETATM   11  O   UNL     1      20.740  14.455  10.316  1.00  0.00    -0.361 OA
ATOM     12  HO  UNL     1      21.227  14.155   9.556  1.00  0.00     0.217 HD
ENDBRANCH   7  11
TORSDOF 2
ENDMDL
MODEL 9
REMARK VINA RESULT:      -4.8      1.681      3.665
REMARK  2 active torsions:
REMARK  status: ('A' for Active; 'I' for Inactive)
REMARK    1  A    between atoms: C_1  and  O_5 
REMARK    2  A    between atoms: C_9  and  O_11 
ROOT
HETATM    1  C   UNL     1      22.187  15.957  11.317  1.00  0.00     0.204 C 
HETATM    2  N   UNL     1      20.797  16.685  13.581  1.00  0.00    -0.331 N 
ATOM      3  HN  UNL     1      20.343  17.179  14.349  1.00  0.00     0.168 HD
HETATM    4  C   UNL     1      22.151  16.376  13.675  1.00  0.00     0.126 C 
HETATM    5  O   UNL     1      18.952  15.760  12.622  1.00  0.00    -0.269 OA
HETATM    6  C   UNL     1      20.813  16.197  11.246  1.00  0.00     0.085 C 
HETATM    7  C   UNL     1      22.675  15.595  12.681  1.00  0.00     0.091 C 
HETATM    8  C   UNL     1      20.051  16.336  12.464  1.00  0.00     0.244 C 
ENDROOT
BRANCH   1   9
HETATM    9  O   UNL     1      22.696  15.101  10.372  1.00  0.00    -0.385 OA
ATOM     10  HO  UNL     1      22.222  15.063   9.550  1.00  0.00     0.210 HD
ENDBRANCH   1   9
BRANCH   7  11
HETATM   11  O   UNL     1      23.768  14.858  12.812  1.00  0.00    -0.361 OA
ATOM     12  HO  UNL     1      23.779  13.967  12.480  1.00  0.00     0.217 HD
ENDBRANCH   7  11
TORSDOF 2
ENDMDL
