REMARK  9 active torsions:
REMARK  status: ('A' for Active; 'I' for Inactive)
REMARK    1  A    between atoms: O_1  and  C_3 
REMARK    2  A    between atoms: C_8  and  O_22 
REMARK    3  A    between atoms: O_9  and  C_31 
REMARK    4  A    between atoms: C_11  and  C_21 
REMARK    5  A    between atoms: C_13  and  C_35 
REMARK    6  A    between atoms: C_14  and  C_19 
REMARK    7  A    between atoms: C_14  and  C_32 
REMARK    8  A    between atoms: C_28  and  C_35 
REMARK    9  A    between atoms: C_32  and  C_33 
ROOT
HETATM    1  C   UNL     1     -16.234   7.244  -6.101  1.00  0.00     0.080 C 
HETATM    2  C   UNL     1     -16.447   7.290  -3.313  1.00  0.00    -0.035 C 
HETATM    3  C   UNL     1     -16.651   6.093  -5.387  1.00  0.00     0.052 C 
HETATM    4  C   UNL     1     -15.984   8.436  -4.008  1.00  0.00     0.014 C 
HETATM    5  C   UNL     1     -16.976   6.211  -4.029  1.00  0.00     0.030 C 
HETATM    6  C   UNL     1     -15.985   8.437  -5.410  1.00  0.00     0.038 C 
ENDROOT
BRANCH   3   7
HETATM    7  C   UNL     1     -16.610   4.734  -6.004  1.00  0.00     0.235 C 
HETATM    8  O   UNL     1     -17.590   4.015  -6.058  1.00  0.00    -0.283 OA
BRANCH   7   9
HETATM    9  C   UNL     1     -15.222   4.246  -6.427  1.00  0.00     0.228 C 
HETATM   10  O   UNL     1     -14.241   4.966  -6.194  1.00  0.00    -0.284 OA
BRANCH   9  11
HETATM   11  C   UNL     1     -15.084   2.969  -7.115  1.00  0.00    -0.008 C 
HETATM   12  C   UNL     1     -16.045   2.600  -8.219  1.00  0.00     0.052 C 
HETATM   13  C   UNL     1     -13.950   2.203  -6.869  1.00  0.00     0.012 C 
BRANCH  13  14
HETATM   14  C   UNL     1     -12.640   2.539  -6.898  1.00  0.00     0.012 C 
BRANCH  14  15
HETATM   15  C   UNL     1     -11.482   1.881  -6.405  1.00  0.00    -0.036 C 
HETATM   16  C   UNL     1     -10.247   2.445  -6.764  1.00  0.00     0.011 C 
HETATM   17  C   UNL     1      -9.006   2.170  -6.238  1.00  0.00     0.004 C 
HETATM   18  C   UNL     1      -8.618   1.434  -5.145  1.00  0.00     0.036 C 
HETATM   19  C   UNL     1      -9.453   0.679  -4.319  1.00  0.00     0.065 C 
HETATM   20  C   UNL     1     -10.682   0.162  -4.739  1.00  0.00     0.037 C 
HETATM   21  C   UNL     1     -11.557   0.732  -5.627  1.00  0.00     0.014 C 
BRANCH  19  22
HETATM   22  O   UNL     1      -9.092   0.533  -3.009  1.00  0.00    -0.361 OA
ATOM     23  HO  UNL     1      -9.660   0.019  -2.447  1.00  0.00     0.217 HD
ENDBRANCH  19  22
ENDBRANCH  14  15
ENDBRANCH  13  14
ENDBRANCH   9  11
ENDBRANCH   7   9
ENDBRANCH   3   7
BRANCH   1  24
HETATM   24  O   UNL     1     -16.107   7.199  -7.466  1.00  0.00    -0.360 OA
ATOM     25  HO  UNL     1     -15.827   7.971  -7.945  1.00  0.00     0.217 HD
ENDBRANCH   1  24
BRANCH   2  26
HETATM   26  C   UNL     1     -16.279   7.117  -1.844  1.00  0.00     0.019 C 
HETATM   27  C   UNL     1     -16.708   7.763  -0.726  1.00  0.00    -0.049 C 
HETATM   28  C   UNL     1     -17.215   9.118  -0.568  1.00  0.00    -0.059 C 
HETATM   29  C   UNL     1     -16.517   6.961   0.540  1.00  0.00     0.076 C 
HETATM   30  C   UNL     1     -17.186   9.786   0.658  1.00  0.00    -0.017 C 
HETATM   31  C   UNL     1     -17.796   9.852  -1.733  1.00  0.00     0.048 C 
HETATM   32  C   UNL     1     -17.119   9.089   1.907  1.00  0.00     0.065 C 
HETATM   33  C   UNL     1     -16.993   7.567   1.862  1.00  0.00     0.061 C 
HETATM   34  C   UNL     1     -18.406   7.004   2.132  1.00  0.00     0.046 C 
BRANCH  33  35
HETATM   35  O   UNL     1     -15.995   7.231   2.833  1.00  0.00    -0.390 OA
ATOM     36  HO  UNL     1     -15.126   7.577   2.667  1.00  0.00     0.210 HD
ENDBRANCH  33  35
ENDBRANCH   2  26
TORSDOF 9
