MODEL 1
REMARK VINA RESULT:     -12.3      0.000      0.000
REMARK  7 active torsions:
REMARK  status: ('A' for Active; 'I' for Inactive)
REMARK    1  A    between atoms: N_2  and  C_23 
REMARK    2  A    between atoms: C_7  and  O_11 
REMARK    3  A    between atoms: C_8  and  C_10 
REMARK    4  A    between atoms: C_8  and  C_16 
REMARK    5  A    between atoms: C_19  and  O_25 
REMARK    6  A    between atoms: C_19  and  C_27 
REMARK    7  A    between atoms: O_28  and  C_31 
ROOT
HETATM    1  N   UNL     1      41.269  10.509 -24.501  1.00  0.00    -0.366 N 
HETATM    2  C   UNL     1      41.211   9.546 -23.397  1.00  0.00     0.207 C 
HETATM    3  C   UNL     1      40.723  12.508 -23.162  1.00  0.00     0.181 C 
HETATM    4  C   UNL     1      39.784  11.415 -22.688  1.00  0.00     0.066 C 
HETATM    5  O   UNL     1      40.845  10.042 -21.043  1.00  0.00    -0.290 OA
HETATM    6  C   UNL     1      41.654  11.882 -24.186  1.00  0.00     0.160 C 
HETATM    7  C   UNL     1      40.575  10.249 -22.221  1.00  0.00     0.183 C 
ENDROOT
BRANCH   4   8
HETATM    8  C   UNL     1      38.501  11.301 -22.928  1.00  0.00    -0.103 C 
BRANCH   8   9
HETATM    9  C   UNL     1      37.248  10.801 -23.407  1.00  0.00     0.011 C 
HETATM   10  C   UNL     1      36.115  11.259 -22.747  1.00  0.00     0.020 C 
HETATM   11  C   UNL     1      34.796  11.283 -23.099  1.00  0.00     0.004 C 
HETATM   12  C   UNL     1      34.107  10.408 -23.902  1.00  0.00     0.037 C 
HETATM   13  C   UNL     1      34.729   9.340 -24.542  1.00  0.00     0.074 C 
HETATM   14  C   UNL     1      36.038   9.261 -25.004  1.00  0.00    -0.000 C 
HETATM   15  C   UNL     1      37.124   9.926 -24.481  1.00  0.00     0.032 C 
BRANCH  13  16
HETATM   16  O   UNL     1      33.928   8.234 -24.691  1.00  0.00    -0.360 OA
ATOM     17  HO  UNL     1      33.018   8.437 -24.872  1.00  0.00     0.217 HD
ENDBRANCH  13  16
BRANCH  14  18
HETATM   18  C   UNL     1      36.273   8.410 -26.247  1.00  0.00     0.205 C 
BRANCH  18  19
HETATM   19  O   UNL     1      35.565   9.003 -27.347  1.00  0.00    -0.396 OA
ATOM     20  HO  UNL     1      35.714   9.942 -27.329  1.00  0.00     0.209 HD
ENDBRANCH  18  19
ENDBRANCH  14  18
ENDBRANCH   8   9
ENDBRANCH   4   8
BRANCH   3  21
HETATM   21  O   UNL     1      41.503  12.984 -22.075  1.00  0.00    -0.389 OA
ATOM     22  HO  UNL     1      42.180  12.353 -21.860  1.00  0.00     0.210 HD
ENDBRANCH   3  21
BRANCH   1  23
HETATM   23  C   UNL     1      41.671  10.024 -25.734  1.00  0.00     0.099 C 
HETATM   24  C   UNL     1      40.767  10.283 -26.892  1.00  0.00     0.271 C 
HETATM   25  O   UNL     1      39.582  10.542 -26.711  1.00  0.00    -0.266 OA
HETATM   26  N   UNL     1      41.289  10.223 -28.138  1.00  0.00    -0.332 N 
HETATM   27  C   UNL     1      42.281   9.567 -28.744  1.00  0.00     0.091 C 
ATOM     28  HN  UNL     1      40.796  10.840 -28.784  1.00  0.00     0.168 HD
HETATM   29  C   UNL     1      43.441   9.040 -28.269  1.00  0.00     0.017 C 
HETATM   30  C   UNL     1      43.712   9.037 -26.883  1.00  0.00     0.004 C 
HETATM   31  C   UNL     1      42.841   9.334 -25.879  1.00  0.00     0.035 C 
ENDBRANCH   1  23
TORSDOF 7
ENDMDL
MODEL 2
REMARK VINA RESULT:     -11.3      1.079      1.335
REMARK  7 active torsions:
REMARK  status: ('A' for Active; 'I' for Inactive)
REMARK    1  A    between atoms: N_2  and  C_23 
REMARK    2  A    between atoms: C_7  and  O_11 
REMARK    3  A    between atoms: C_8  and  C_10 
REMARK    4  A    between atoms: C_8  and  C_16 
REMARK    5  A    between atoms: C_19  and  O_25 
REMARK    6  A    between atoms: C_19  and  C_27 
REMARK    7  A    between atoms: O_28  and  C_31 
ROOT
HETATM    1  N   UNL     1      41.276  10.596 -24.538  1.00  0.00    -0.366 N 
HETATM    2  C   UNL     1      41.001   9.610 -23.488  1.00  0.00     0.207 C 
HETATM    3  C   UNL     1      41.147  12.592 -23.092  1.00  0.00     0.181 C 
HETATM    4  C   UNL     1      39.992  11.698 -22.681  1.00  0.00     0.066 C 
HETATM    5  O   UNL     1      40.718  10.046 -21.111  1.00  0.00    -0.290 OA
HETATM    6  C   UNL     1      41.938  11.838 -24.148  1.00  0.00     0.160 C 
HETATM    7  C   UNL     1      40.513  10.368 -22.277  1.00  0.00     0.183 C 
ENDROOT
BRANCH   4   8
HETATM    8  C   UNL     1      38.718  11.872 -22.928  1.00  0.00    -0.103 C 
BRANCH   8   9
HETATM    9  C   UNL     1      37.367  11.625 -23.334  1.00  0.00     0.011 C 
HETATM   10  C   UNL     1      36.669  12.718 -23.832  1.00  0.00     0.020 C 
HETATM   11  C   UNL     1      35.541  12.815 -24.595  1.00  0.00     0.004 C 
HETATM   12  C   UNL     1      34.462  11.967 -24.641  1.00  0.00     0.037 C 
HETATM   13  C   UNL     1      34.407  10.793 -23.895  1.00  0.00     0.074 C 
HETATM   14  C   UNL     1      35.461   9.974 -23.506  1.00  0.00    -0.000 C 
HETATM   15  C   UNL     1      36.756  10.377 -23.273  1.00  0.00     0.032 C 
BRANCH  13  16
HETATM   16  O   UNL     1      33.142  10.448 -23.487  1.00  0.00    -0.360 OA
ATOM     17  HO  UNL     1      32.751  11.063 -22.876  1.00  0.00     0.217 HD
ENDBRANCH  13  16
BRANCH  14  18
HETATM   18  C   UNL     1      35.162   8.484 -23.393  1.00  0.00     0.205 C 
BRANCH  18  19
HETATM   19  O   UNL     1      34.414   8.080 -24.551  1.00  0.00    -0.396 OA
ATOM     20  HO  UNL     1      33.650   8.639 -24.627  1.00  0.00     0.209 HD
ENDBRANCH  18  19
ENDBRANCH  14  18
ENDBRANCH   8   9
ENDBRANCH   4   8
BRANCH   3  21
HETATM   21  O   UNL     1      41.996  12.833 -21.980  1.00  0.00    -0.389 OA
ATOM     22  HO  UNL     1      42.887  12.580 -22.190  1.00  0.00     0.210 HD
ENDBRANCH   3  21
BRANCH   1  23
HETATM   23  C   UNL     1      41.582  10.103 -25.795  1.00  0.00     0.099 C 
HETATM   24  C   UNL     1      40.588  10.349 -26.880  1.00  0.00     0.271 C 
HETATM   25  O   UNL     1      39.421  10.605 -26.608  1.00  0.00    -0.266 OA
HETATM   26  N   UNL     1      41.011  10.283 -28.164  1.00  0.00    -0.332 N 
HETATM   27  C   UNL     1      41.956   9.626 -28.840  1.00  0.00     0.091 C 
ATOM     28  HN  UNL     1      40.466  10.893 -28.773  1.00  0.00     0.168 HD
HETATM   29  C   UNL     1      43.152   9.108 -28.454  1.00  0.00     0.017 C 
HETATM   30  C   UNL     1      43.531   9.117 -27.094  1.00  0.00     0.004 C 
HETATM   31  C   UNL     1      42.740   9.417 -26.027  1.00  0.00     0.035 C 
ENDBRANCH   1  23
TORSDOF 7
ENDMDL
MODEL 3
REMARK VINA RESULT:     -11.1      1.708      2.189
REMARK  7 active torsions:
REMARK  status: ('A' for Active; 'I' for Inactive)
REMARK    1  A    between atoms: N_2  and  C_23 
REMARK    2  A    between atoms: C_7  and  O_11 
REMARK    3  A    between atoms: C_8  and  C_10 
REMARK    4  A    between atoms: C_8  and  C_16 
REMARK    5  A    between atoms: C_19  and  O_25 
REMARK    6  A    between atoms: C_19  and  C_27 
REMARK    7  A    between atoms: O_28  and  C_31 
ROOT
HETATM    1  N   UNL     1      41.241  10.541 -24.423  1.00  0.00    -0.366 N 
HETATM    2  C   UNL     1      41.289   9.557 -23.336  1.00  0.00     0.207 C 
HETATM    3  C   UNL     1      40.778  12.506 -23.004  1.00  0.00     0.181 C 
HETATM    4  C   UNL     1      39.898  11.389 -22.476  1.00  0.00     0.066 C 
HETATM    5  O   UNL     1      41.113  10.004 -20.951  1.00  0.00    -0.290 OA
HETATM    6  C   UNL     1      41.630  11.915 -24.115  1.00  0.00     0.160 C 
HETATM    7  C   UNL     1      40.743  10.228 -22.099  1.00  0.00     0.183 C 
ENDROOT
BRANCH   4   8
HETATM    8  C   UNL     1      38.602  11.259 -22.610  1.00  0.00    -0.103 C 
BRANCH   8   9
HETATM    9  C   UNL     1      37.253  11.474 -23.037  1.00  0.00     0.011 C 
HETATM   10  C   UNL     1      36.392  10.390 -22.912  1.00  0.00     0.020 C 
HETATM   11  C   UNL     1      35.030  10.299 -22.891  1.00  0.00     0.004 C 
HETATM   12  C   UNL     1      34.108  11.098 -23.521  1.00  0.00     0.037 C 
HETATM   13  C   UNL     1      34.477  12.210 -24.272  1.00  0.00     0.074 C 
HETATM   14  C   UNL     1      35.574  13.044 -24.088  1.00  0.00    -0.000 C 
HETATM   15  C   UNL     1      36.781  12.685 -23.533  1.00  0.00     0.032 C 
BRANCH  13  16
HETATM   16  O   UNL     1      33.649  12.465 -25.337  1.00  0.00    -0.360 OA
ATOM     17  HO  UNL     1      33.676  11.802 -26.017  1.00  0.00     0.217 HD
ENDBRANCH  13  16
BRANCH  14  18
HETATM   18  C   UNL     1      35.392  14.507 -24.475  1.00  0.00     0.205 C 
BRANCH  18  19
HETATM   19  O   UNL     1      35.241  14.586 -25.902  1.00  0.00    -0.396 OA
ATOM     20  HO  UNL     1      36.093  14.459 -26.302  1.00  0.00     0.209 HD
ENDBRANCH  18  19
ENDBRANCH  14  18
ENDBRANCH   8   9
ENDBRANCH   4   8
BRANCH   3  21
HETATM   21  O   UNL     1      41.639  12.975 -21.977  1.00  0.00    -0.389 OA
ATOM     22  HO  UNL     1      42.004  12.240 -21.497  1.00  0.00     0.210 HD
ENDBRANCH   3  21
BRANCH   1  23
HETATM   23  C   UNL     1      41.545  10.085 -25.694  1.00  0.00     0.099 C 
HETATM   24  C   UNL     1      40.554  10.370 -26.773  1.00  0.00     0.271 C 
HETATM   25  O   UNL     1      39.388  10.626 -26.494  1.00  0.00    -0.266 OA
HETATM   26  N   UNL     1      40.978  10.340 -28.057  1.00  0.00    -0.332 N 
HETATM   27  C   UNL     1      41.920   9.699 -28.752  1.00  0.00     0.091 C 
ATOM     28  HN  UNL     1      40.438  10.972 -28.648  1.00  0.00     0.168 HD
HETATM   29  C   UNL     1      43.112   9.161 -28.381  1.00  0.00     0.017 C 
HETATM   30  C   UNL     1      43.489   9.125 -27.021  1.00  0.00     0.004 C 
HETATM   31  C   UNL     1      42.699   9.398 -25.946  1.00  0.00     0.035 C 
ENDBRANCH   1  23
TORSDOF 7
ENDMDL
MODEL 4
REMARK VINA RESULT:     -10.5      2.103      6.529
REMARK  7 active torsions:
REMARK  status: ('A' for Active; 'I' for Inactive)
REMARK    1  A    between atoms: N_2  and  C_23 
REMARK    2  A    between atoms: C_7  and  O_11 
REMARK    3  A    between atoms: C_8  and  C_10 
REMARK    4  A    between atoms: C_8  and  C_16 
REMARK    5  A    between atoms: C_19  and  O_25 
REMARK    6  A    between atoms: C_19  and  C_27 
REMARK    7  A    between atoms: O_28  and  C_31 
ROOT
HETATM    1  N   UNL     1      38.955  11.117 -23.110  1.00  0.00    -0.366 N 
HETATM    2  C   UNL     1      39.662  12.400 -23.189  1.00  0.00     0.207 C 
HETATM    3  C   UNL     1      40.781   9.855 -22.031  1.00  0.00     0.181 C 
HETATM    4  C   UNL     1      41.433  10.701 -23.108  1.00  0.00     0.066 C 
HETATM    5  O   UNL     1      41.869  12.910 -22.301  1.00  0.00    -0.290 OA
HETATM    6  C   UNL     1      39.305  10.214 -22.017  1.00  0.00     0.160 C 
HETATM    7  C   UNL     1      41.114  12.132 -22.876  1.00  0.00     0.183 C 
ENDROOT
BRANCH   4   8
HETATM    8  C   UNL     1      41.919  10.301 -24.257  1.00  0.00    -0.103 C 
BRANCH   8   9
HETATM    9  C   UNL     1      42.069  10.071 -25.661  1.00  0.00     0.011 C 
HETATM   10  C   UNL     1      40.967  10.375 -26.451  1.00  0.00     0.020 C 
HETATM   11  C   UNL     1      40.836  10.604 -27.791  1.00  0.00     0.004 C 
HETATM   12  C   UNL     1      41.572  10.083 -28.827  1.00  0.00     0.037 C 
HETATM   13  C   UNL     1      42.653   9.232 -28.616  1.00  0.00     0.074 C 
HETATM   14  C   UNL     1      43.529   9.210 -27.537  1.00  0.00    -0.000 C 
HETATM   15  C   UNL     1      43.237   9.594 -26.247  1.00  0.00     0.032 C 
BRANCH  13  16
HETATM   16  O   UNL     1      42.826   8.292 -29.602  1.00  0.00    -0.360 OA
ATOM     17  HO  UNL     1      43.563   7.711 -29.457  1.00  0.00     0.217 HD
ENDBRANCH  13  16
BRANCH  14  18
HETATM   18  C   UNL     1      44.963   8.785 -27.830  1.00  0.00     0.205 C 
BRANCH  18  19
HETATM   19  O   UNL     1      45.012   7.350 -27.882  1.00  0.00    -0.396 OA
ATOM     20  HO  UNL     1      44.429   7.053 -28.572  1.00  0.00     0.209 HD
ENDBRANCH  18  19
ENDBRANCH  14  18
ENDBRANCH   8   9
ENDBRANCH   4   8
BRANCH   3  21
HETATM   21  O   UNL     1      41.334  10.171 -20.762  1.00  0.00    -0.389 OA
ATOM     22  HO  UNL     1      40.957   9.610 -20.094  1.00  0.00     0.210 HD
ENDBRANCH   3  21
BRANCH   1  23
HETATM   23  C   UNL     1      37.634  11.104 -23.522  1.00  0.00     0.099 C 
HETATM   24  C   UNL     1      37.341  10.474 -24.842  1.00  0.00     0.271 C 
HETATM   25  O   UNL     1      38.227  10.343 -25.679  1.00  0.00    -0.266 OA
HETATM   26  N   UNL     1      36.078  10.056 -25.086  1.00  0.00    -0.332 N 
HETATM   27  C   UNL     1      34.848  10.409 -24.705  1.00  0.00     0.091 C 
ATOM     28  HN  UNL     1      36.060   9.264 -25.729  1.00  0.00     0.168 HD
HETATM   29  C   UNL     1      34.391  11.029 -23.585  1.00  0.00     0.017 C 
HETATM   30  C   UNL     1      35.294  11.528 -22.621  1.00  0.00     0.004 C 
HETATM   31  C   UNL     1      36.644  11.650 -22.754  1.00  0.00     0.035 C 
ENDBRANCH   1  23
TORSDOF 7
ENDMDL
MODEL 5
REMARK VINA RESULT:      -9.9      1.489      1.971
REMARK  7 active torsions:
REMARK  status: ('A' for Active; 'I' for Inactive)
REMARK    1  A    between atoms: N_2  and  C_23 
REMARK    2  A    between atoms: C_7  and  O_11 
REMARK    3  A    between atoms: C_8  and  C_10 
REMARK    4  A    between atoms: C_8  and  C_16 
REMARK    5  A    between atoms: C_19  and  O_25 
REMARK    6  A    between atoms: C_19  and  C_27 
REMARK    7  A    between atoms: O_28  and  C_31 
ROOT
HETATM    1  N   UNL     1      41.347  10.756 -24.814  1.00  0.00    -0.366 N 
HETATM    2  C   UNL     1      41.058   9.640 -23.907  1.00  0.00     0.207 C 
HETATM    3  C   UNL     1      41.183  12.545 -23.123  1.00  0.00     0.181 C 
HETATM    4  C   UNL     1      40.025  11.603 -22.853  1.00  0.00     0.066 C 
HETATM    5  O   UNL     1      40.730   9.762 -21.499  1.00  0.00    -0.290 OA
HETATM    6  C   UNL     1      41.996  11.938 -24.253  1.00  0.00     0.160 C 
HETATM    7  C   UNL     1      40.544  10.232 -22.617  1.00  0.00     0.183 C 
ENDROOT
BRANCH   4   8
HETATM    8  C   UNL     1      38.754  11.804 -23.099  1.00  0.00    -0.103 C 
BRANCH   8   9
HETATM    9  C   UNL     1      37.383  11.571 -23.439  1.00  0.00     0.011 C 
HETATM   10  C   UNL     1      36.665  12.679 -23.872  1.00  0.00     0.020 C 
HETATM   11  C   UNL     1      35.498  12.797 -24.571  1.00  0.00     0.004 C 
HETATM   12  C   UNL     1      34.414  11.954 -24.581  1.00  0.00     0.037 C 
HETATM   13  C   UNL     1      34.394  10.762 -23.863  1.00  0.00     0.074 C 
HETATM   14  C   UNL     1      35.464   9.931 -23.550  1.00  0.00    -0.000 C 
HETATM   15  C   UNL     1      36.772  10.324 -23.376  1.00  0.00     0.032 C 
BRANCH  13  16
HETATM   16  O   UNL     1      33.151  10.411 -23.397  1.00  0.00    -0.360 OA
ATOM     17  HO  UNL     1      32.804  11.001 -22.738  1.00  0.00     0.217 HD
ENDBRANCH  13  16
BRANCH  14  18
HETATM   18  C   UNL     1      35.165   8.439 -23.459  1.00  0.00     0.205 C 
BRANCH  18  19
HETATM   19  O   UNL     1      34.380   8.060 -24.601  1.00  0.00    -0.396 OA
ATOM     20  HO  UNL     1      33.632   7.557 -24.299  1.00  0.00     0.209 HD
ENDBRANCH  18  19
ENDBRANCH  14  18
ENDBRANCH   8   9
ENDBRANCH   4   8
BRANCH   3  21
HETATM   21  O   UNL     1      42.010  12.641 -21.973  1.00  0.00    -0.389 OA
ATOM     22  HO  UNL     1      42.331  11.780 -21.730  1.00  0.00     0.210 HD
ENDBRANCH   3  21
BRANCH   1  23
HETATM   23  C   UNL     1      41.678  10.432 -26.119  1.00  0.00     0.099 C 
HETATM   24  C   UNL     1      42.937   9.661 -26.328  1.00  0.00     0.271 C 
HETATM   25  O   UNL     1      43.816   9.662 -25.474  1.00  0.00    -0.266 OA
HETATM   26  N   UNL     1      43.080   8.966 -27.480  1.00  0.00    -0.332 N 
HETATM   27  C   UNL     1      42.647   9.075 -28.738  1.00  0.00     0.091 C 
ATOM     28  HN  UNL     1      43.672   8.145 -27.355  1.00  0.00     0.168 HD
HETATM   29  C   UNL     1      41.541   9.661 -29.268  1.00  0.00     0.017 C 
HETATM   30  C   UNL     1      40.666  10.409 -28.451  1.00  0.00     0.004 C 
HETATM   31  C   UNL     1      40.886  10.807 -27.167  1.00  0.00     0.035 C 
ENDBRANCH   1  23
TORSDOF 7
ENDMDL
