MODEL 1
REMARK VINA RESULT:      -8.9      0.000      0.000
REMARK  1 active torsions:
REMARK  status: ('A' for Active; 'I' for Inactive)
REMARK    1  A    between atoms: C_2  and  N_14 
ROOT
HETATM    1  C   UNL     1      21.480  94.064  44.185  1.00  0.00     0.071 C 
HETATM    2  C   UNL     1      23.200  91.473  43.909  1.00  0.00     0.002 C 
HETATM    3  O   UNL     1      22.670  96.966  45.505  1.00  0.00    -0.246 OA
HETATM    4  C   UNL     1      22.030  91.160  43.232  1.00  0.00     0.000 C 
HETATM    5  C   UNL     1      23.507  92.642  44.562  1.00  0.00     0.032 C 
HETATM    6  C   UNL     1      22.841  93.861  44.373  1.00  0.00     0.063 C 
HETATM    7  C   UNL     1      22.458  95.957  44.866  1.00  0.00     0.332 C 
HETATM    8  N   UNL     1      21.228  95.378  44.594  1.00  0.00    -0.262 N 
HETATM    9  N   UNL     1      23.413  95.097  44.431  1.00  0.00    -0.306 N 
ATOM     10  HN  UNL     1      24.377  95.332  44.192  1.00  0.00     0.171 HD
HETATM   11  C   UNL     1      20.883  91.908  43.094  1.00  0.00     0.002 C 
HETATM   12  C   UNL     1      20.567  93.166  43.594  1.00  0.00     0.032 C 
ENDROOT
BRANCH   8  13
HETATM   13  C   UNL     1      19.970  96.007  44.662  1.00  0.00     0.044 C 
HETATM   14  C   UNL     1      19.781  97.271  44.097  1.00  0.00     0.030 C 
HETATM   15  C   UNL     1      18.582  97.963  44.064  1.00  0.00     0.002 C 
HETATM   16  C   UNL     1      17.320  97.578  44.451  1.00  0.00     0.000 C 
HETATM   17  C   UNL     1      16.792  96.445  45.046  1.00  0.00     0.000 C 
HETATM   18  C   UNL     1      17.611  95.394  45.450  1.00  0.00     0.002 C 
HETATM   19  C   UNL     1      18.989  95.349  45.392  1.00  0.00     0.030 C 
ENDBRANCH   8  13
TORSDOF 1
ENDMDL
MODEL 2
REMARK VINA RESULT:      -8.9      0.304      1.420
REMARK  1 active torsions:
REMARK  status: ('A' for Active; 'I' for Inactive)
REMARK    1  A    between atoms: C_2  and  N_14 
ROOT
HETATM    1  C   UNL     1      21.316  93.847  44.114  1.00  0.00     0.071 C 
HETATM    2  C   UNL     1      23.145  91.336  43.802  1.00  0.00     0.002 C 
HETATM    3  O   UNL     1      22.371  96.767  45.505  1.00  0.00    -0.246 OA
HETATM    4  C   UNL     1      21.994  90.988  43.107  1.00  0.00     0.000 C 
HETATM    5  C   UNL     1      23.397  92.503  44.481  1.00  0.00     0.032 C 
HETATM    6  C   UNL     1      22.682  93.696  44.311  1.00  0.00     0.063 C 
HETATM    7  C   UNL     1      22.208  95.764  44.843  1.00  0.00     0.332 C 
HETATM    8  N   UNL     1      21.006  95.140  44.548  1.00  0.00    -0.262 N 
HETATM    9  N   UNL     1      23.202  94.954  44.400  1.00  0.00    -0.306 N 
ATOM     10  HN  UNL     1      24.157  95.233  44.175  1.00  0.00     0.171 HD
HETATM   11  C   UNL     1      20.819  91.691  42.973  1.00  0.00     0.002 C 
HETATM   12  C   UNL     1      20.446  92.924  43.496  1.00  0.00     0.032 C 
ENDROOT
BRANCH   8  13
HETATM   13  C   UNL     1      19.721  95.715  44.616  1.00  0.00     0.044 C 
HETATM   14  C   UNL     1      18.671  95.023  45.225  1.00  0.00     0.030 C 
HETATM   15  C   UNL     1      17.383  95.506  45.391  1.00  0.00     0.002 C 
HETATM   16  C   UNL     1      16.855  96.746  45.120  1.00  0.00     0.000 C 
HETATM   17  C   UNL     1      17.351  97.908  44.554  1.00  0.00     0.000 C 
HETATM   18  C   UNL     1      18.646  97.969  44.050  1.00  0.00     0.002 C 
HETATM   19  C   UNL     1      19.554  96.933  43.972  1.00  0.00     0.030 C 
ENDBRANCH   8  13
TORSDOF 1
ENDMDL
MODEL 3
REMARK VINA RESULT:      -8.9      2.461      5.709
REMARK  1 active torsions:
REMARK  status: ('A' for Active; 'I' for Inactive)
REMARK    1  A    between atoms: C_2  and  N_14 
ROOT
HETATM    1  C   UNL     1      20.869  94.857  44.147  1.00  0.00     0.071 C 
HETATM    2  C   UNL     1      21.160  97.869  44.914  1.00  0.00     0.002 C 
HETATM    3  O   UNL     1      17.936  93.458  43.136  1.00  0.00    -0.246 OA
HETATM    4  C   UNL     1      22.467  97.404  44.924  1.00  0.00     0.000 C 
HETATM    5  C   UNL     1      20.015  97.156  44.650  1.00  0.00     0.032 C 
HETATM    6  C   UNL     1      19.980  95.913  44.003  1.00  0.00     0.063 C 
HETATM    7  C   UNL     1      18.936  94.129  43.290  1.00  0.00     0.332 C 
HETATM    8  N   UNL     1      20.162  93.707  43.780  1.00  0.00    -0.262 N 
HETATM    9  N   UNL     1      18.993  95.479  43.168  1.00  0.00    -0.306 N 
ATOM     10  HN  UNL     1      18.409  96.059  42.566  1.00  0.00     0.171 HD
HETATM   11  C   UNL     1      22.931  96.123  44.729  1.00  0.00     0.002 C 
HETATM   12  C   UNL     1      22.237  94.944  44.482  1.00  0.00     0.032 C 
ENDROOT
BRANCH   8  13
HETATM   13  C   UNL     1      20.630  92.380  43.844  1.00  0.00     0.044 C 
HETATM   14  C   UNL     1      21.190  91.885  45.024  1.00  0.00     0.030 C 
HETATM   15  C   UNL     1      21.639  90.589  45.216  1.00  0.00     0.002 C 
HETATM   16  C   UNL     1      21.562  89.489  44.396  1.00  0.00     0.000 C 
HETATM   17  C   UNL     1      21.093  89.267  43.113  1.00  0.00     0.000 C 
HETATM   18  C   UNL     1      20.608  90.312  42.332  1.00  0.00     0.002 C 
HETATM   19  C   UNL     1      20.587  91.652  42.662  1.00  0.00     0.030 C 
ENDBRANCH   8  13
TORSDOF 1
ENDMDL
MODEL 4
REMARK VINA RESULT:      -8.8      2.089      2.855
REMARK  1 active torsions:
REMARK  status: ('A' for Active; 'I' for Inactive)
REMARK    1  A    between atoms: C_2  and  N_14 
ROOT
HETATM    1  C   UNL     1      21.065  93.377  44.022  1.00  0.00     0.071 C 
HETATM    2  C   UNL     1      23.398  91.380  43.462  1.00  0.00     0.002 C 
HETATM    3  O   UNL     1      17.831  92.765  43.156  1.00  0.00    -0.246 OA
HETATM    4  C   UNL     1      23.991  92.362  44.244  1.00  0.00     0.000 C 
HETATM    5  C   UNL     1      22.097  91.325  43.026  1.00  0.00     0.032 C 
HETATM    6  C   UNL     1      21.039  92.064  43.572  1.00  0.00     0.063 C 
HETATM    7  C   UNL     1      18.961  92.746  43.597  1.00  0.00     0.332 C 
HETATM    8  N   UNL     1      19.745  93.836  43.943  1.00  0.00    -0.262 N 
HETATM    9  N   UNL     1      19.746  91.643  43.679  1.00  0.00    -0.306 N 
ATOM     10  HN  UNL     1      19.429  90.681  43.797  1.00  0.00     0.171 HD
HETATM   11  C   UNL     1      23.448  93.531  44.724  1.00  0.00     0.002 C 
HETATM   12  C   UNL     1      22.175  94.065  44.556  1.00  0.00     0.032 C 
ENDROOT
BRANCH   8  13
HETATM   13  C   UNL     1      19.295  95.142  44.217  1.00  0.00     0.044 C 
HETATM   14  C   UNL     1      19.918  96.243  43.623  1.00  0.00     0.030 C 
HETATM   15  C   UNL     1      19.534  97.564  43.783  1.00  0.00     0.002 C 
HETATM   16  C   UNL     1      18.449  98.104  44.433  1.00  0.00     0.000 C 
HETATM   17  C   UNL     1      17.414  97.582  45.189  1.00  0.00     0.000 C 
HETATM   18  C   UNL     1      17.352  96.225  45.488  1.00  0.00     0.002 C 
HETATM   19  C   UNL     1      18.287  95.262  45.164  1.00  0.00     0.030 C 
ENDBRANCH   8  13
TORSDOF 1
ENDMDL
MODEL 5
REMARK VINA RESULT:      -8.7      0.927      5.285
REMARK  1 active torsions:
REMARK  status: ('A' for Active; 'I' for Inactive)
REMARK    1  A    between atoms: C_2  and  N_14 
ROOT
HETATM    1  C   UNL     1      19.868  95.525  44.745  1.00  0.00     0.071 C 
HETATM    2  C   UNL     1      17.839  97.851  45.218  1.00  0.00     0.002 C 
HETATM    3  O   UNL     1      23.222  96.005  44.426  1.00  0.00    -0.246 OA
HETATM    4  C   UNL     1      17.064  96.709  45.362  1.00  0.00     0.000 C 
HETATM    5  C   UNL     1      19.177  97.926  44.916  1.00  0.00     0.032 C 
HETATM    6  C   UNL     1      20.085  96.865  45.038  1.00  0.00     0.063 C 
HETATM    7  C   UNL     1      22.061  95.965  44.776  1.00  0.00     0.332 C 
HETATM    8  N   UNL     1      21.130  94.980  44.485  1.00  0.00    -0.262 N 
HETATM    9  N   UNL     1      21.398  96.978  45.389  1.00  0.00    -0.306 N 
ATOM     10  HN  UNL     1      21.805  97.689  45.997  1.00  0.00     0.171 HD
HETATM   11  C   UNL     1      17.422  95.392  45.188  1.00  0.00     0.002 C 
HETATM   12  C   UNL     1      18.639  94.835  44.812  1.00  0.00     0.032 C 
ENDROOT
BRANCH   8  13
HETATM   13  C   UNL     1      21.403  93.665  44.061  1.00  0.00     0.044 C 
HETATM   14  C   UNL     1      22.677  93.118  44.235  1.00  0.00     0.030 C 
HETATM   15  C   UNL     1      23.046  91.825  43.901  1.00  0.00     0.002 C 
HETATM   16  C   UNL     1      22.289  90.773  43.443  1.00  0.00     0.000 C 
HETATM   17  C   UNL     1      20.959  90.614  43.097  1.00  0.00     0.000 C 
HETATM   18  C   UNL     1      20.075  91.689  43.117  1.00  0.00     0.002 C 
HETATM   19  C   UNL     1      20.380  93.006  43.393  1.00  0.00     0.030 C 
ENDBRANCH   8  13
TORSDOF 1
ENDMDL
MODEL 6
REMARK VINA RESULT:      -8.4      2.354      3.826
REMARK  1 active torsions:
REMARK  status: ('A' for Active; 'I' for Inactive)
REMARK    1  A    between atoms: C_2  and  N_14 
ROOT
HETATM    1  C   UNL     1      20.979  92.621  43.946  1.00  0.00     0.071 C 
HETATM    2  C   UNL     1      20.901  89.557  43.351  1.00  0.00     0.002 C 
HETATM    3  O   UNL     1      18.634  94.807  42.808  1.00  0.00    -0.246 OA
HETATM    4  C   UNL     1      21.939  89.684  44.264  1.00  0.00     0.000 C 
HETATM    5  C   UNL     1      20.117  90.555  42.824  1.00  0.00     0.032 C 
HETATM    6  C   UNL     1      19.987  91.840  43.368  1.00  0.00     0.063 C 
HETATM    7  C   UNL     1      19.254  93.900  43.320  1.00  0.00     0.332 C 
HETATM    8  N   UNL     1      20.545  93.945  43.824  1.00  0.00    -0.262 N 
HETATM    9  N   UNL     1      18.857  92.603  43.345  1.00  0.00    -0.306 N 
ATOM     10  HN  UNL     1      17.895  92.263  43.347  1.00  0.00     0.171 HD
HETATM   11  C   UNL     1      22.468  90.827  44.818  1.00  0.00     0.002 C 
HETATM   12  C   UNL     1      22.131  92.161  44.619  1.00  0.00     0.032 C 
ENDROOT
BRANCH   8  13
HETATM   13  C   UNL     1      21.263  95.099  44.195  1.00  0.00     0.044 C 
HETATM   14  C   UNL     1      22.635  95.027  44.445  1.00  0.00     0.030 C 
HETATM   15  C   UNL     1      23.448  96.100  44.771  1.00  0.00     0.002 C 
HETATM   16  C   UNL     1      23.169  97.445  44.825  1.00  0.00     0.000 C 
HETATM   17  C   UNL     1      22.026  98.205  44.649  1.00  0.00     0.000 C 
HETATM   18  C   UNL     1      20.792  97.608  44.409  1.00  0.00     0.002 C 
HETATM   19  C   UNL     1      20.518  96.256  44.384  1.00  0.00     0.030 C 
ENDBRANCH   8  13
TORSDOF 1
ENDMDL
MODEL 7
REMARK VINA RESULT:      -8.2      2.379      3.673
REMARK  1 active torsions:
REMARK  status: ('A' for Active; 'I' for Inactive)
REMARK    1  A    between atoms: C_2  and  N_14 
ROOT
HETATM    1  C   UNL     1      20.582  92.674  43.875  1.00  0.00     0.071 C 
HETATM    2  C   UNL     1      20.993  89.609  43.444  1.00  0.00     0.002 C 
HETATM    3  O   UNL     1      17.743  94.324  42.982  1.00  0.00    -0.246 OA
HETATM    4  C   UNL     1      22.101  89.983  44.192  1.00  0.00     0.000 C 
HETATM    5  C   UNL     1      19.975  90.412  42.989  1.00  0.00     0.032 C 
HETATM    6  C   UNL     1      19.684  91.690  43.484  1.00  0.00     0.063 C 
HETATM    7  C   UNL     1      18.583  93.579  43.443  1.00  0.00     0.332 C 
HETATM    8  N   UNL     1      19.899  93.888  43.753  1.00  0.00    -0.262 N 
HETATM    9  N   UNL     1      18.439  92.238  43.587  1.00  0.00    -0.306 N 
ATOM     10  HN  UNL     1      17.566  91.735  43.743  1.00  0.00     0.171 HD
HETATM   11  C   UNL     1      22.479  91.238  44.610  1.00  0.00     0.002 C 
HETATM   12  C   UNL     1      21.878  92.474  44.397  1.00  0.00     0.032 C 
ENDROOT
BRANCH   8  13
HETATM   13  C   UNL     1      20.433  95.175  43.962  1.00  0.00     0.044 C 
HETATM   14  C   UNL     1      19.657  96.310  43.715  1.00  0.00     0.030 C 
HETATM   15  C   UNL     1      20.060  97.618  43.927  1.00  0.00     0.002 C 
HETATM   16  C   UNL     1      21.208  98.115  44.498  1.00  0.00     0.000 C 
HETATM   17  C   UNL     1      22.366  97.546  44.999  1.00  0.00     0.000 C 
HETATM   18  C   UNL     1      22.585  96.174  44.928  1.00  0.00     0.002 C 
HETATM   19  C   UNL     1      21.772  95.236  44.324  1.00  0.00     0.030 C 
ENDBRANCH   8  13
TORSDOF 1
ENDMDL
MODEL 8
REMARK VINA RESULT:      -8.2      1.574      2.255
REMARK  1 active torsions:
REMARK  status: ('A' for Active; 'I' for Inactive)
REMARK    1  A    between atoms: C_2  and  N_14 
ROOT
HETATM    1  C   UNL     1      21.706  92.840  44.069  1.00  0.00     0.071 C 
HETATM    2  C   UNL     1      21.667  89.720  43.940  1.00  0.00     0.002 C 
HETATM    3  O   UNL     1      24.254  94.623  45.448  1.00  0.00    -0.246 OA
HETATM    4  C   UNL     1      20.565  90.090  43.183  1.00  0.00     0.000 C 
HETATM    5  C   UNL     1      22.546  90.542  44.604  1.00  0.00     0.032 C 
HETATM    6  C   UNL     1      22.699  91.913  44.357  1.00  0.00     0.063 C 
HETATM    7  C   UNL     1      23.544  93.880  44.803  1.00  0.00     0.332 C 
HETATM    8  N   UNL     1      22.220  94.084  44.448  1.00  0.00    -0.262 N 
HETATM    9  N   UNL     1      23.867  92.612  44.446  1.00  0.00    -0.306 N 
ATOM     10  HN  UNL     1      24.805  92.249  44.276  1.00  0.00     0.171 HD
HETATM   11  C   UNL     1      20.054  91.347  42.955  1.00  0.00     0.002 C 
HETATM   12  C   UNL     1      20.478  92.587  43.420  1.00  0.00     0.032 C 
ENDROOT
BRANCH   8  13
HETATM   13  C   UNL     1      21.538  95.316  44.419  1.00  0.00     0.044 C 
HETATM   14  C   UNL     1      22.203  96.499  44.752  1.00  0.00     0.030 C 
HETATM   15  C   UNL     1      21.648  97.768  44.715  1.00  0.00     0.002 C 
HETATM   16  C   UNL     1      20.418  98.190  44.269  1.00  0.00     0.000 C 
HETATM   17  C   UNL     1      19.297  97.550  43.771  1.00  0.00     0.000 C 
HETATM   18  C   UNL     1      19.232  96.163  43.695  1.00  0.00     0.002 C 
HETATM   19  C   UNL     1      20.179  95.264  44.141  1.00  0.00     0.030 C 
ENDBRANCH   8  13
TORSDOF 1
ENDMDL
MODEL 9
REMARK VINA RESULT:      -8.1      2.093      6.003
REMARK  1 active torsions:
REMARK  status: ('A' for Active; 'I' for Inactive)
REMARK    1  A    between atoms: C_2  and  N_14 
ROOT
HETATM    1  C   UNL     1      19.302  95.257  44.236  1.00  0.00     0.071 C 
HETATM    2  C   UNL     1      17.203  97.434  45.011  1.00  0.00     0.002 C 
HETATM    3  O   UNL     1      18.456  92.121  43.223  1.00  0.00    -0.246 OA
HETATM    4  C   UNL     1      18.407  98.126  45.019  1.00  0.00     0.000 C 
HETATM    5  C   UNL     1      17.001  96.102  44.745  1.00  0.00     0.032 C 
HETATM    6  C   UNL     1      17.921  95.268  44.096  1.00  0.00     0.063 C 
HETATM    7  C   UNL     1      18.596  93.316  43.378  1.00  0.00     0.332 C 
HETATM    8  N   UNL     1      19.715  93.973  43.866  1.00  0.00    -0.262 N 
HETATM    9  N   UNL     1      17.608  94.237  43.260  1.00  0.00    -0.306 N 
ATOM     10  HN  UNL     1      16.786  94.171  42.659  1.00  0.00     0.171 HD
HETATM   11  C   UNL     1      19.681  97.647  44.820  1.00  0.00     0.002 C 
HETATM   12  C   UNL     1      20.125  96.353  44.570  1.00  0.00     0.032 C 
ENDROOT
BRANCH   8  13
HETATM   13  C   UNL     1      21.028  93.466  43.926  1.00  0.00     0.044 C 
HETATM   14  C   UNL     1      22.067  94.255  44.427  1.00  0.00     0.030 C 
HETATM   15  C   UNL     1      23.382  93.847  44.575  1.00  0.00     0.002 C 
HETATM   16  C   UNL     1      23.960  92.614  44.388  1.00  0.00     0.000 C 
HETATM   17  C   UNL     1      23.500  91.386  43.945  1.00  0.00     0.000 C 
HETATM   18  C   UNL     1      22.190  91.222  43.506  1.00  0.00     0.002 C 
HETATM   19  C   UNL     1      21.230  92.205  43.380  1.00  0.00     0.030 C 
ENDBRANCH   8  13
TORSDOF 1
ENDMDL
