MODEL 1
REMARK VINA RESULT:      -5.4      0.000      0.000
REMARK  4 active torsions:
REMARK  status: ('A' for Active; 'I' for Inactive)
REMARK    1  A    between atoms: C_1  and  C_7 
REMARK       I    between atoms: C_2  and  N_8 
REMARK    2  A    between atoms: C_5  and  C_6 
REMARK    3  A    between atoms: C_5  and  N_8 
REMARK    4  A    between atoms: C_6  and  C_7 
ROOT
HETATM    1  C   UNL     1      54.164  43.070  54.519  1.00  0.00     0.126 C 
ENDROOT
BRANCH   1   2
HETATM    2  C   UNL     1      54.486  42.020  55.562  1.00  0.00     0.030 C 
BRANCH   2   3
HETATM    3  C   UNL     1      53.335  41.519  56.410  1.00  0.00     0.114 C 
BRANCH   3   4
HETATM    4  C   UNL     1      52.629  40.308  55.795  1.00  0.00     0.172 C 
HETATM    5  O   UNL     1      52.201  40.442  54.634  1.00  0.00    -0.648 OA
HETATM    6  O   UNL     1      52.545  39.280  56.484  1.00  0.00    -0.648 OA
ENDBRANCH   3   4
ENDBRANCH   2   3
ENDBRANCH   1   2
BRANCH   1   7
HETATM    7  N   UNL     1      54.717  42.729  53.216  1.00  0.00    -0.335 N 
HETATM    8  C   UNL     1      56.012  42.510  52.888  1.00  0.00     0.283 C 
HETATM    9  O   UNL     1      56.257  41.314  52.568  1.00  0.00    -0.630 OA
HETATM   10  O   UNL     1      56.837  43.426  52.979  1.00  0.00    -0.630 OA
ATOM     11  HN  UNL     1      54.044  42.644  52.454  1.00  0.00     0.165 HD
ENDBRANCH   1   7
TORSDOF 4
ENDMDL
MODEL 2
REMARK VINA RESULT:      -5.3      1.528      4.404
REMARK  4 active torsions:
REMARK  status: ('A' for Active; 'I' for Inactive)
REMARK    1  A    between atoms: C_1  and  C_7 
REMARK       I    between atoms: C_2  and  N_8 
REMARK    2  A    between atoms: C_5  and  C_6 
REMARK    3  A    between atoms: C_5  and  N_8 
REMARK    4  A    between atoms: C_6  and  C_7 
ROOT
HETATM    1  C   UNL     1      53.644  41.980  56.848  1.00  0.00     0.126 C 
ENDROOT
BRANCH   1   2
HETATM    2  C   UNL     1      54.735  41.898  55.800  1.00  0.00     0.030 C 
BRANCH   2   3
HETATM    3  C   UNL     1      54.724  42.952  54.713  1.00  0.00     0.114 C 
BRANCH   3   4
HETATM    4  C   UNL     1      55.502  42.525  53.465  1.00  0.00     0.172 C 
HETATM    5  O   UNL     1      55.087  41.515  52.867  1.00  0.00    -0.648 OA
HETATM    6  O   UNL     1      56.476  43.217  53.130  1.00  0.00    -0.648 OA
ENDBRANCH   3   4
ENDBRANCH   2   3
ENDBRANCH   1   2
BRANCH   1   7
HETATM    7  N   UNL     1      52.637  40.944  56.667  1.00  0.00    -0.335 N 
HETATM    8  C   UNL     1      52.476  40.110  55.612  1.00  0.00     0.283 C 
HETATM    9  O   UNL     1      52.716  38.901  55.883  1.00  0.00    -0.630 OA
HETATM   10  O   UNL     1      52.181  40.566  54.502  1.00  0.00    -0.630 OA
ATOM     11  HN  UNL     1      51.969  40.833  57.430  1.00  0.00     0.165 HD
ENDBRANCH   1   7
TORSDOF 4
ENDMDL
MODEL 3
REMARK VINA RESULT:      -5.1      1.552      2.095
REMARK  4 active torsions:
REMARK  status: ('A' for Active; 'I' for Inactive)
REMARK    1  A    between atoms: C_1  and  C_7 
REMARK       I    between atoms: C_2  and  N_8 
REMARK    2  A    between atoms: C_5  and  C_6 
REMARK    3  A    between atoms: C_5  and  N_8 
REMARK    4  A    between atoms: C_6  and  C_7 
ROOT
HETATM    1  C   UNL     1      54.747  42.465  53.190  1.00  0.00     0.126 C 
ENDROOT
BRANCH   1   2
HETATM    2  C   UNL     1      54.427  43.079  54.538  1.00  0.00     0.030 C 
BRANCH   2   3
HETATM    3  C   UNL     1      54.751  42.252  55.764  1.00  0.00     0.114 C 
BRANCH   3   4
HETATM    4  C   UNL     1      53.510  41.609  56.390  1.00  0.00     0.172 C 
HETATM    5  O   UNL     1      53.266  40.433  56.065  1.00  0.00    -0.648 OA
HETATM    6  O   UNL     1      52.847  42.294  57.184  1.00  0.00    -0.648 OA
ENDBRANCH   3   4
ENDBRANCH   2   3
ENDBRANCH   1   2
BRANCH   1   7
HETATM    7  N   UNL     1      56.080  41.881  53.162  1.00  0.00    -0.335 N 
HETATM    8  C   UNL     1      56.716  41.297  52.118  1.00  0.00     0.283 C 
HETATM    9  O   UNL     1      57.714  41.950  51.706  1.00  0.00    -0.630 OA
HETATM   10  O   UNL     1      56.267  40.256  51.624  1.00  0.00    -0.630 OA
ATOM     11  HN  UNL     1      56.601  41.914  54.039  1.00  0.00     0.165 HD
ENDBRANCH   1   7
TORSDOF 4
ENDMDL
MODEL 4
REMARK VINA RESULT:      -5.0      1.345      1.865
REMARK  4 active torsions:
REMARK  status: ('A' for Active; 'I' for Inactive)
REMARK    1  A    between atoms: C_1  and  C_7 
REMARK       I    between atoms: C_2  and  N_8 
REMARK    2  A    between atoms: C_5  and  C_6 
REMARK    3  A    between atoms: C_5  and  N_8 
REMARK    4  A    between atoms: C_6  and  C_7 
ROOT
HETATM    1  C   UNL     1      54.565  41.914  56.291  1.00  0.00     0.126 C 
ENDROOT
BRANCH   1   2
HETATM    2  C   UNL     1      53.313  41.958  57.142  1.00  0.00     0.030 C 
BRANCH   2   3
HETATM    3  C   UNL     1      52.508  40.680  57.249  1.00  0.00     0.114 C 
BRANCH   3   4
HETATM    4  C   UNL     1      52.398  39.935  55.916  1.00  0.00     0.172 C 
HETATM    5  O   UNL     1      52.655  38.718  55.932  1.00  0.00    -0.648 OA
HETATM    6  O   UNL     1      52.049  40.589  54.920  1.00  0.00    -0.648 OA
ENDBRANCH   3   4
ENDBRANCH   2   3
ENDBRANCH   1   2
BRANCH   1   7
HETATM    7  N   UNL     1      54.454  42.766  55.116  1.00  0.00    -0.335 N 
HETATM    8  C   UNL     1      54.876  42.510  53.854  1.00  0.00     0.283 C 
HETATM    9  O   UNL     1      53.935  42.372  53.026  1.00  0.00    -0.630 OA
HETATM   10  O   UNL     1      56.083  42.374  53.621  1.00  0.00    -0.630 OA
ATOM     11  HN  UNL     1      54.003  43.669  55.260  1.00  0.00     0.165 HD
ENDBRANCH   1   7
TORSDOF 4
ENDMDL
MODEL 5
REMARK VINA RESULT:      -4.7      2.466      4.535
REMARK  4 active torsions:
REMARK  status: ('A' for Active; 'I' for Inactive)
REMARK    1  A    between atoms: C_1  and  C_7 
REMARK       I    between atoms: C_2  and  N_8 
REMARK    2  A    between atoms: C_5  and  C_6 
REMARK    3  A    between atoms: C_5  and  N_8 
REMARK    4  A    between atoms: C_6  and  C_7 
ROOT
HETATM    1  C   UNL     1      53.805  41.602  56.001  1.00  0.00     0.126 C 
ENDROOT
BRANCH   1   2
HETATM    2  C   UNL     1      53.783  42.040  54.551  1.00  0.00     0.030 C 
BRANCH   2   3
HETATM    3  C   UNL     1      54.758  43.126  54.146  1.00  0.00     0.114 C 
BRANCH   3   4
HETATM    4  C   UNL     1      55.849  42.619  53.199  1.00  0.00     0.172 C 
HETATM    5  O   UNL     1      55.714  41.462  52.760  1.00  0.00    -0.648 OA
HETATM    6  O   UNL     1      56.778  43.395  52.925  1.00  0.00    -0.648 OA
ENDBRANCH   3   4
ENDBRANCH   2   3
ENDBRANCH   1   2
BRANCH   1   7
HETATM    7  N   UNL     1      54.957  42.137  56.712  1.00  0.00    -0.335 N 
HETATM    8  C   UNL     1      55.628  41.585  57.752  1.00  0.00     0.283 C 
HETATM    9  O   UNL     1      56.805  41.232  57.462  1.00  0.00    -0.630 OA
HETATM   10  O   UNL     1      55.059  41.415  58.835  1.00  0.00    -0.630 OA
ATOM     11  HN  UNL     1      55.302  43.040  56.389  1.00  0.00     0.165 HD
ENDBRANCH   1   7
TORSDOF 4
ENDMDL
MODEL 6
REMARK VINA RESULT:      -4.6      1.787      5.102
REMARK  4 active torsions:
REMARK  status: ('A' for Active; 'I' for Inactive)
REMARK    1  A    between atoms: C_1  and  C_7 
REMARK       I    between atoms: C_2  and  N_8 
REMARK    2  A    between atoms: C_5  and  C_6 
REMARK    3  A    between atoms: C_5  and  N_8 
REMARK    4  A    between atoms: C_6  and  C_7 
ROOT
HETATM    1  C   UNL     1      54.060  41.844  56.468  1.00  0.00     0.126 C 
ENDROOT
BRANCH   1   2
HETATM    2  C   UNL     1      53.922  41.960  54.964  1.00  0.00     0.030 C 
BRANCH   2   3
HETATM    3  C   UNL     1      54.666  43.095  54.292  1.00  0.00     0.114 C 
BRANCH   3   4
HETATM    4  C   UNL     1      55.705  42.605  53.280  1.00  0.00     0.172 C 
HETATM    5  O   UNL     1      56.640  43.383  53.018  1.00  0.00    -0.648 OA
HETATM    6  O   UNL     1      55.552  41.469  52.804  1.00  0.00    -0.648 OA
ENDBRANCH   3   4
ENDBRANCH   2   3
ENDBRANCH   1   2
BRANCH   1   7
HETATM    7  N   UNL     1      52.822  41.403  57.095  1.00  0.00    -0.335 N 
HETATM    8  C   UNL     1      52.500  40.161  57.528  1.00  0.00     0.283 C 
HETATM    9  O   UNL     1      52.389  40.076  58.782  1.00  0.00    -0.630 OA
HETATM   10  O   UNL     1      52.402  39.231  56.720  1.00  0.00    -0.630 OA
ATOM     11  HN  UNL     1      52.108  42.119  57.225  1.00  0.00     0.165 HD
ENDBRANCH   1   7
TORSDOF 4
ENDMDL
MODEL 7
REMARK VINA RESULT:      -4.6      2.030      2.177
REMARK  4 active torsions:
REMARK  status: ('A' for Active; 'I' for Inactive)
REMARK    1  A    between atoms: C_1  and  C_7 
REMARK       I    between atoms: C_2  and  N_8 
REMARK    2  A    between atoms: C_5  and  C_6 
REMARK    3  A    between atoms: C_5  and  N_8 
REMARK    4  A    between atoms: C_6  and  C_7 
ROOT
HETATM    1  C   UNL     1      54.242  43.026  54.494  1.00  0.00     0.126 C 
ENDROOT
BRANCH   1   2
HETATM    2  C   UNL     1      53.927  41.786  55.305  1.00  0.00     0.030 C 
BRANCH   2   3
HETATM    3  C   UNL     1      53.698  41.976  56.790  1.00  0.00     0.114 C 
BRANCH   3   4
HETATM    4  C   UNL     1      54.919  41.592  57.631  1.00  0.00     0.172 C 
HETATM    5  O   UNL     1      56.024  41.628  57.060  1.00  0.00    -0.648 OA
HETATM    6  O   UNL     1      54.726  41.289  58.819  1.00  0.00    -0.648 OA
ENDBRANCH   3   4
ENDBRANCH   2   3
ENDBRANCH   1   2
BRANCH   1   7
HETATM    7  N   UNL     1      54.777  42.695  53.181  1.00  0.00    -0.335 N 
HETATM    8  C   UNL     1      56.068  42.475  52.834  1.00  0.00     0.283 C 
HETATM    9  O   UNL     1      56.304  41.282  52.499  1.00  0.00    -0.630 OA
HETATM   10  O   UNL     1      56.896  43.389  52.922  1.00  0.00    -0.630 OA
ATOM     11  HN  UNL     1      54.094  42.620  52.427  1.00  0.00     0.165 HD
ENDBRANCH   1   7
TORSDOF 4
ENDMDL
MODEL 8
REMARK VINA RESULT:      -4.4      3.504      4.719
REMARK  4 active torsions:
REMARK  status: ('A' for Active; 'I' for Inactive)
REMARK    1  A    between atoms: C_1  and  C_7 
REMARK       I    between atoms: C_2  and  N_8 
REMARK    2  A    between atoms: C_5  and  C_6 
REMARK    3  A    between atoms: C_5  and  N_8 
REMARK    4  A    between atoms: C_6  and  C_7 
ROOT
HETATM    1  C   UNL     1      53.302  41.577  57.498  1.00  0.00     0.126 C 
ENDROOT
BRANCH   1   2
HETATM    2  C   UNL     1      53.463  41.432  58.997  1.00  0.00     0.030 C 
BRANCH   2   3
HETATM    3  C   UNL     1      52.291  40.854  59.762  1.00  0.00     0.114 C 
BRANCH   3   4
HETATM    4  C   UNL     1      51.012  41.680  59.600  1.00  0.00     0.172 C 
HETATM    5  O   UNL     1      51.060  42.863  59.982  1.00  0.00    -0.648 OA
HETATM    6  O   UNL     1      50.028  41.122  59.090  1.00  0.00    -0.648 OA
ENDBRANCH   3   4
ENDBRANCH   2   3
ENDBRANCH   1   2
BRANCH   1   7
HETATM    7  N   UNL     1      52.364  40.606  56.956  1.00  0.00    -0.335 N 
HETATM    8  C   UNL     1      52.414  39.972  55.759  1.00  0.00     0.283 C 
HETATM    9  O   UNL     1      52.621  38.731  55.854  1.00  0.00    -0.630 OA
HETATM   10  O   UNL     1      52.322  40.621  54.712  1.00  0.00    -0.630 OA
ATOM     11  HN  UNL     1      51.569  40.373  57.550  1.00  0.00     0.165 HD
ENDBRANCH   1   7
TORSDOF 4
ENDMDL
MODEL 9
REMARK VINA RESULT:      -4.4      2.017      2.638
REMARK  4 active torsions:
REMARK  status: ('A' for Active; 'I' for Inactive)
REMARK    1  A    between atoms: C_1  and  C_7 
REMARK       I    between atoms: C_2  and  N_8 
REMARK    2  A    between atoms: C_5  and  C_6 
REMARK    3  A    between atoms: C_5  and  N_8 
REMARK    4  A    between atoms: C_6  and  C_7 
ROOT
HETATM    1  C   UNL     1      55.002  41.850  57.422  1.00  0.00     0.126 C 
ENDROOT
BRANCH   1   2
HETATM    2  C   UNL     1      53.862  41.277  58.239  1.00  0.00     0.030 C 
BRANCH   2   3
HETATM    3  C   UNL     1      52.495  41.248  57.586  1.00  0.00     0.114 C 
BRANCH   3   4
HETATM    4  C   UNL     1      52.072  39.840  57.159  1.00  0.00     0.172 C 
HETATM    5  O   UNL     1      51.121  39.330  57.779  1.00  0.00    -0.648 OA
HETATM    6  O   UNL     1      52.692  39.314  56.221  1.00  0.00    -0.648 OA
ENDBRANCH   3   4
ENDBRANCH   2   3
ENDBRANCH   1   2
BRANCH   1   7
HETATM    7  N   UNL     1      54.781  41.689  55.993  1.00  0.00    -0.335 N 
HETATM    8  C   UNL     1      54.693  42.653  55.046  1.00  0.00     0.283 C 
HETATM    9  O   UNL     1      55.652  42.646  54.227  1.00  0.00    -0.630 OA
HETATM   10  O   UNL     1      53.765  43.470  55.080  1.00  0.00    -0.630 OA
ATOM     11  HN  UNL     1      54.680  40.729  55.662  1.00  0.00     0.165 HD
ENDBRANCH   1   7
TORSDOF 4
ENDMDL
