MODEL 1
REMARK VINA RESULT:     -11.8      0.000      0.000
REMARK  1 active torsions:
REMARK  status: ('A' for Active; 'I' for Inactive)
REMARK    1  A    between atoms: C_17  and  O_20 
ROOT
HETATM    1  C   UNL     1     -21.289   2.347  -9.432  1.00  0.00     0.005 C 
HETATM    2  C   UNL     1     -21.923  -1.929 -10.065  1.00  0.00     0.173 C 
HETATM    3  C   UNL     1     -23.471   0.954  -1.693  1.00  0.00    -0.025 C 
HETATM    4  C   UNL     1     -20.474   0.885  -4.501  1.00  0.00     0.030 C 
HETATM    5  C   UNL     1     -22.968   0.823  -8.697  1.00  0.00     0.015 C 
HETATM    6  C   UNL     1     -22.207  -0.317  -3.285  1.00  0.00    -0.027 C 
HETATM    7  N   UNL     1     -22.110   2.068  -3.265  1.00  0.00    -0.355 N 
ATOM      8  HN  UNL     1     -21.622   2.959  -3.349  1.00  0.00     0.166 HD
HETATM    9  C   UNL     1     -21.613   0.133  -8.575  1.00  0.00    -0.024 C 
HETATM   10  C   UNL     1     -21.342  -0.720  -6.194  1.00  0.00    -0.044 C 
HETATM   11  C   UNL     1     -24.215   1.099  -0.539  1.00  0.00     0.046 C 
HETATM   12  C   UNL     1     -22.101   0.500 -10.871  1.00  0.00     0.012 C 
HETATM   13  C   UNL     1     -21.386  -0.502  -9.948  1.00  0.00     0.019 C 
HETATM   14  C   UNL     1     -21.418  -1.053  -7.651  1.00  0.00     0.057 C 
HETATM   15  C   UNL     1     -22.229  -1.496  -5.487  1.00  0.00    -0.048 C 
HETATM   16  C   UNL     1     -22.787  -0.369  -1.893  1.00  0.00     0.082 C 
HETATM   17  C   UNL     1     -25.409   1.812  -0.489  1.00  0.00     0.066 C 
HETATM   18  C   UNL     1     -21.606   0.873  -3.690  1.00  0.00     0.039 C 
HETATM   19  C   UNL     1     -20.672   1.333  -8.465  1.00  0.00     0.011 C 
HETATM   20  C   UNL     1     -22.937  -2.499  -6.378  1.00  0.00     0.071 C 
HETATM   21  C   UNL     1     -22.463  -1.374  -4.140  1.00  0.00     0.017 C 
HETATM   22  C   UNL     1     -22.656  -1.970  -7.790  1.00  0.00     0.135 C 
HETATM   23  C   UNL     1     -22.545   1.628  -9.932  1.00  0.00    -0.013 C 
HETATM   24  C   UNL     1     -25.711   2.454  -2.868  1.00  0.00     0.005 C 
HETATM   25  C   UNL     1     -26.113   2.202  -1.604  1.00  0.00     0.036 C 
HETATM   26  C   UNL     1     -20.438   0.182  -5.695  1.00  0.00     0.010 C 
HETATM   27  C   UNL     1     -24.420   2.531  -3.385  1.00  0.00     0.030 C 
HETATM   28  C   UNL     1     -23.343   1.921  -2.716  1.00  0.00     0.039 C 
HETATM   29  O   UNL     1     -22.340  -2.733  -8.955  1.00  0.00    -0.384 OA
ENDROOT
BRANCH  17  30
HETATM   30  O   UNL     1     -25.836   2.213   0.736  1.00  0.00    -0.361 OA
ATOM     31  HO  UNL     1     -25.214   2.152   1.451  1.00  0.00     0.217 HD
ENDBRANCH  17  30
TORSDOF 1
ENDMDL
MODEL 2
REMARK VINA RESULT:     -11.6      3.288      5.048
REMARK  1 active torsions:
REMARK  status: ('A' for Active; 'I' for Inactive)
REMARK    1  A    between atoms: C_17  and  O_20 
ROOT
HETATM    1  C   UNL     1     -21.816  -2.457  -9.485  1.00  0.00     0.005 C 
HETATM    2  C   UNL     1     -21.151   1.827 -10.032  1.00  0.00     0.173 C 
HETATM    3  C   UNL     1     -19.707  -1.222  -1.700  1.00  0.00    -0.025 C 
HETATM    4  C   UNL     1     -22.674  -1.083  -4.537  1.00  0.00     0.030 C 
HETATM    5  C   UNL     1     -20.136  -0.957  -8.704  1.00  0.00     0.015 C 
HETATM    6  C   UNL     1     -20.948   0.086  -3.281  1.00  0.00    -0.027 C 
HETATM    7  N   UNL     1     -21.057  -2.298  -3.306  1.00  0.00    -0.355 N 
ATOM      8  HN  UNL     1     -21.550  -3.185  -3.412  1.00  0.00     0.166 HD
HETATM    9  C   UNL     1     -21.488  -0.261  -8.583  1.00  0.00    -0.024 C 
HETATM   10  C   UNL     1     -21.779   0.549  -6.190  1.00  0.00    -0.044 C 
HETATM   11  C   UNL     1     -18.976  -1.392  -0.541  1.00  0.00     0.046 C 
HETATM   12  C   UNL     1     -20.978  -0.587 -10.881  1.00  0.00     0.012 C 
HETATM   13  C   UNL     1     -21.698   0.401  -9.946  1.00  0.00     0.019 C 
HETATM   14  C   UNL     1     -21.686   0.908  -7.640  1.00  0.00     0.057 C 
HETATM   15  C   UNL     1     -20.895   1.306  -5.459  1.00  0.00    -0.048 C 
HETATM   16  C   UNL     1     -20.382   0.109  -1.881  1.00  0.00     0.082 C 
HETATM   17  C   UNL     1     -17.787  -2.114  -0.492  1.00  0.00     0.066 C 
HETATM   18  C   UNL     1     -21.550  -1.092  -3.714  1.00  0.00     0.039 C 
HETATM   19  C   UNL     1     -22.437  -1.458  -8.506  1.00  0.00     0.011 C 
HETATM   20  C   UNL     1     -20.172   2.321  -6.324  1.00  0.00     0.071 C 
HETATM   21  C   UNL     1     -20.676   1.157  -4.113  1.00  0.00     0.017 C 
HETATM   22  C   UNL     1     -20.441   1.821  -7.748  1.00  0.00     0.135 C 
HETATM   23  C   UNL     1     -20.551  -1.736  -9.959  1.00  0.00    -0.013 C 
HETATM   24  C   UNL     1     -17.464  -2.712  -2.879  1.00  0.00     0.005 C 
HETATM   25  C   UNL     1     -17.073  -2.486  -1.607  1.00  0.00     0.036 C 
HETATM   26  C   UNL     1     -22.694  -0.357  -5.717  1.00  0.00     0.010 C 
HETATM   27  C   UNL     1     -18.749  -2.773  -3.411  1.00  0.00     0.030 C 
HETATM   28  C   UNL     1     -19.830  -2.169  -2.742  1.00  0.00     0.039 C 
HETATM   29  O   UNL     1     -20.741   2.607  -8.902  1.00  0.00    -0.384 OA
ENDROOT
BRANCH  17  30
HETATM   30  O   UNL     1     -17.374  -2.540   0.730  1.00  0.00    -0.361 OA
ATOM     31  HO  UNL     1     -18.049  -2.733   1.369  1.00  0.00     0.217 HD
ENDBRANCH  17  30
TORSDOF 1
ENDMDL
MODEL 3
REMARK VINA RESULT:      -9.8      2.099      7.500
REMARK  1 active torsions:
REMARK  status: ('A' for Active; 'I' for Inactive)
REMARK    1  A    between atoms: C_17  and  O_20 
ROOT
HETATM    1  C   UNL     1     -25.580   1.124  -2.683  1.00  0.00     0.005 C 
HETATM    2  C   UNL     1     -21.657   1.228  -0.763  1.00  0.00     0.173 C 
HETATM    3  C   UNL     1     -21.576  -0.960  -9.481  1.00  0.00    -0.025 C 
HETATM    4  C   UNL     1     -23.236  -2.200  -5.934  1.00  0.00     0.030 C 
HETATM    5  C   UNL     1     -23.452   1.949  -3.370  1.00  0.00     0.015 C 
HETATM    6  C   UNL     1     -21.256  -1.504  -7.168  1.00  0.00    -0.027 C 
HETATM    7  N   UNL     1     -23.445  -1.181  -8.060  1.00  0.00    -0.355 N 
ATOM      8  HN  UNL     1     -24.438  -1.405  -8.140  1.00  0.00     0.166 HD
HETATM    9  C   UNL     1     -23.241   0.605  -2.679  1.00  0.00    -0.024 C 
HETATM   10  C   UNL     1     -21.935  -0.920  -4.240  1.00  0.00    -0.044 C 
HETATM   11  C   UNL     1     -21.161  -0.850 -10.793  1.00  0.00     0.046 C 
HETATM   12  C   UNL     1     -24.012   2.192  -1.088  1.00  0.00     0.012 C 
HETATM   13  C   UNL     1     -23.098   0.958  -1.198  1.00  0.00     0.019 C 
HETATM   14  C   UNL     1     -21.988  -0.213  -2.923  1.00  0.00     0.057 C 
HETATM   15  C   UNL     1     -20.754  -0.632  -4.882  1.00  0.00    -0.048 C 
HETATM   16  C   UNL     1     -20.654  -1.683  -8.540  1.00  0.00     0.082 C 
HETATM   17  C   UNL     1     -21.402   0.277 -11.574  1.00  0.00     0.066 C 
HETATM   18  C   UNL     1     -22.639  -1.618  -7.050  1.00  0.00     0.039 C 
HETATM   19  C   UNL     1     -24.611  -0.047  -2.864  1.00  0.00     0.011 C 
HETATM   20  C   UNL     1     -19.843   0.230  -4.028  1.00  0.00     0.071 C 
HETATM   21  C   UNL     1     -20.436  -1.057  -6.148  1.00  0.00     0.017 C 
HETATM   22  C   UNL     1     -20.784   0.758  -2.939  1.00  0.00     0.135 C 
HETATM   23  C   UNL     1     -24.644   2.319  -2.478  1.00  0.00    -0.013 C 
HETATM   24  C   UNL     1     -22.505   1.791  -9.946  1.00  0.00     0.005 C 
HETATM   25  C   UNL     1     -21.814   1.486 -11.064  1.00  0.00     0.036 C 
HETATM   26  C   UNL     1     -22.920  -1.780  -4.651  1.00  0.00     0.010 C 
HETATM   27  C   UNL     1     -23.136   0.944  -9.038  1.00  0.00     0.030 C 
HETATM   28  C   UNL     1     -22.763  -0.410  -8.944  1.00  0.00     0.039 C 
HETATM   29  O   UNL     1     -20.500   0.914  -1.548  1.00  0.00    -0.384 OA
ENDROOT
BRANCH  17  30
HETATM   30  O   UNL     1     -21.304   0.126 -12.920  1.00  0.00    -0.361 OA
ATOM     31  HO  UNL     1     -21.695   0.803 -13.459  1.00  0.00     0.217 HD
ENDBRANCH  17  30
TORSDOF 1
ENDMDL
MODEL 4
REMARK VINA RESULT:      -9.7      2.783      7.598
REMARK  1 active torsions:
REMARK  status: ('A' for Active; 'I' for Inactive)
REMARK    1  A    between atoms: C_17  and  O_20 
ROOT
HETATM    1  C   UNL     1     -17.736  -1.479  -2.689  1.00  0.00     0.005 C 
HETATM    2  C   UNL     1     -21.711  -1.475  -0.877  1.00  0.00     0.173 C 
HETATM    3  C   UNL     1     -21.458   0.990  -9.518  1.00  0.00    -0.025 C 
HETATM    4  C   UNL     1     -19.847   2.044  -5.890  1.00  0.00     0.030 C 
HETATM    5  C   UNL     1     -19.877  -2.189  -3.459  1.00  0.00     0.015 C 
HETATM    6  C   UNL     1     -21.819   1.473  -7.198  1.00  0.00    -0.027 C 
HETATM    7  N   UNL     1     -19.622   1.085  -8.042  1.00  0.00    -0.355 N 
ATOM      8  HN  UNL     1     -18.619   1.269  -8.089  1.00  0.00     0.166 HD
HETATM    9  C   UNL     1     -20.050  -0.860  -2.730  1.00  0.00    -0.024 C 
HETATM   10  C   UNL     1     -21.247   0.768  -4.274  1.00  0.00    -0.044 C 
HETATM   11  C   UNL     1     -21.841   0.939 -10.844  1.00  0.00     0.046 C 
HETATM   12  C   UNL     1     -19.391  -2.528  -1.172  1.00  0.00     0.012 C 
HETATM   13  C   UNL     1     -20.249  -1.254  -1.266  1.00  0.00     0.019 C 
HETATM   14  C   UNL     1     -21.260   0.018  -2.980  1.00  0.00     0.057 C 
HETATM   15  C   UNL     1     -22.421   0.552  -4.956  1.00  0.00    -0.048 C 
HETATM   16  C   UNL     1     -22.375   1.722  -8.579  1.00  0.00     0.082 C 
HETATM   17  C   UNL     1     -21.627  -0.171 -11.654  1.00  0.00     0.066 C 
HETATM   18  C   UNL     1     -20.437   1.524  -7.040  1.00  0.00     0.039 C 
HETATM   19  C   UNL     1     -18.649  -0.262  -2.857  1.00  0.00     0.011 C 
HETATM   20  C   UNL     1     -23.390  -0.297  -4.155  1.00  0.00     0.071 C 
HETATM   21  C   UNL     1     -22.686   1.030  -6.215  1.00  0.00     0.017 C 
HETATM   22  C   UNL     1     -22.503  -0.900  -3.059  1.00  0.00     0.135 C 
HETATM   23  C   UNL     1     -18.726  -2.638  -2.549  1.00  0.00    -0.013 C 
HETATM   24  C   UNL     1     -20.633  -1.782 -10.049  1.00  0.00     0.005 C 
HETATM   25  C   UNL     1     -21.280  -1.412 -11.174  1.00  0.00     0.036 C 
HETATM   26  C   UNL     1     -20.215   1.598  -4.630  1.00  0.00     0.010 C 
HETATM   27  C   UNL     1     -19.993  -0.992  -9.097  1.00  0.00     0.030 C 
HETATM   28  C   UNL     1     -20.311   0.373  -8.969  1.00  0.00     0.039 C 
HETATM   29  O   UNL     1     -22.832  -1.086  -1.682  1.00  0.00    -0.384 OA
ENDROOT
BRANCH  17  30
HETATM   30  O   UNL     1     -21.680   0.027 -12.997  1.00  0.00    -0.361 OA
ATOM     31  HO  UNL     1     -20.953  -0.304 -13.511  1.00  0.00     0.217 HD
ENDBRANCH  17  30
TORSDOF 1
ENDMDL
MODEL 5
REMARK VINA RESULT:      -9.0      3.236      5.328
REMARK  1 active torsions:
REMARK  status: ('A' for Active; 'I' for Inactive)
REMARK    1  A    between atoms: C_17  and  O_20 
ROOT
HETATM    1  C   UNL     1     -21.952   0.819  -5.450  1.00  0.00     0.005 C 
HETATM    2  C   UNL     1     -19.592  -1.844  -2.915  1.00  0.00     0.173 C 
HETATM    3  C   UNL     1     -26.964   1.555   0.947  1.00  0.00    -0.025 C 
HETATM    4  C   UNL     1     -23.509   2.799  -0.893  1.00  0.00     0.030 C 
HETATM    5  C   UNL     1     -22.536  -0.908  -3.915  1.00  0.00     0.015 C 
HETATM    6  C   UNL     1     -24.581   1.365   0.755  1.00  0.00    -0.027 C 
HETATM    7  N   UNL     1     -25.858   2.510  -0.904  1.00  0.00    -0.355 N 
ATOM      8  HN  UNL     1     -26.012   3.264  -1.574  1.00  0.00     0.166 HD
HETATM    9  C   UNL     1     -21.414  -0.081  -3.296  1.00  0.00    -0.024 C 
HETATM   10  C   UNL     1     -22.157   0.711  -0.996  1.00  0.00    -0.044 C 
HETATM   11  C   UNL     1     -28.157   1.486   1.639  1.00  0.00     0.046 C 
HETATM   12  C   UNL     1     -20.580  -1.230  -5.201  1.00  0.00     0.012 C 
HETATM   13  C   UNL     1     -20.131  -0.732  -3.816  1.00  0.00     0.019 C 
HETATM   14  C   UNL     1     -21.174  -0.082  -1.799  1.00  0.00     0.057 C 
HETATM   15  C   UNL     1     -22.666  -0.061   0.020  1.00  0.00    -0.048 C 
HETATM   16  C   UNL     1     -25.705   1.435   1.760  1.00  0.00     0.082 C 
HETATM   17  C   UNL     1     -29.295   0.867   1.131  1.00  0.00     0.066 C 
HETATM   18  C   UNL     1     -24.648   2.212  -0.348  1.00  0.00     0.039 C 
HETATM   19  C   UNL     1     -21.581   1.250  -4.029  1.00  0.00     0.011 C 
HETATM   20  C   UNL     1     -22.017  -1.431   0.068  1.00  0.00     0.071 C 
HETATM   21  C   UNL     1     -23.654   0.347   0.882  1.00  0.00     0.017 C 
HETATM   22  C   UNL     1     -21.325  -1.537  -1.296  1.00  0.00     0.135 C 
HETATM   23  C   UNL     1     -22.014  -0.707  -5.344  1.00  0.00    -0.013 C 
HETATM   24  C   UNL     1     -28.454  -0.043  -1.020  1.00  0.00     0.005 C 
HETATM   25  C   UNL     1     -29.286   0.029   0.041  1.00  0.00     0.036 C 
HETATM   26  C   UNL     1     -22.406   2.037  -1.244  1.00  0.00     0.010 C 
HETATM   27  C   UNL     1     -27.426   0.817  -1.397  1.00  0.00     0.030 C 
HETATM   28  C   UNL     1     -26.831   1.677  -0.455  1.00  0.00     0.039 C 
HETATM   29  O   UNL     1     -20.039  -2.090  -1.575  1.00  0.00    -0.384 OA
ENDROOT
BRANCH  17  30
HETATM   30  O   UNL     1     -30.482   1.194   1.704  1.00  0.00    -0.361 OA
ATOM     31  HO  UNL     1     -30.511   1.215   2.653  1.00  0.00     0.217 HD
ENDBRANCH  17  30
TORSDOF 1
ENDMDL
