REMARK  7 active torsions:
REMARK  status: ('A' for Active; 'I' for Inactive)
REMARK    1  A    between atoms: C_1  and  C_19 
REMARK    2  A    between atoms: O_2  and  C_33 
REMARK    3  A    between atoms: C_4  and  C_27 
REMARK    4  A    between atoms: C_6  and  N_13 
REMARK    5  A    between atoms: N_9  and  C_19 
REMARK    6  A    between atoms: N_9  and  C_27 
REMARK    7  A    between atoms: C_16  and  C_24 
ROOT
HETATM    1  N   UNL     1      13.190  28.592  23.299  1.00  0.00    -0.063 N 
ATOM      2  HN1 UNL     1      12.928  27.613  23.418  1.00  0.00     0.278 HD
ATOM      3  HN2 UNL     1      13.145  28.664  22.283  1.00  0.00     0.278 HD
ENDROOT
BRANCH   1   4
HETATM    4  C   UNL     1      14.560  28.810  23.763  1.00  0.00     0.271 C 
BRANCH   4   5
HETATM    5  C   UNL     1      15.502  28.095  22.835  1.00  0.00    -0.032 C 
HETATM    6  C   UNL     1      15.126  26.864  22.308  1.00  0.00     0.010 C 
HETATM    7  C   UNL     1      15.703  26.412  21.125  1.00  0.00     0.013 C 
HETATM    8  C   UNL     1      16.687  27.184  20.508  1.00  0.00    -0.024 C 
HETATM    9  C   UNL     1      17.077  26.956  19.190  1.00  0.00     0.044 C 
HETATM   10  C   UNL     1      17.297  28.248  21.238  1.00  0.00    -0.023 C 
HETATM   11  C   UNL     1      18.005  27.784  18.583  1.00  0.00     0.060 C 
HETATM   12  C   UNL     1      18.679  28.758  19.352  1.00  0.00     0.092 C 
HETATM   13  C   UNL     1      18.482  28.793  20.731  1.00  0.00     0.051 C 
HETATM   14  C   UNL     1      16.693  28.681  22.413  1.00  0.00     0.021 C 
BRANCH  11  15
HETATM   15  N   UNL     1      18.106  27.861  17.214  1.00  0.00    -0.397 N 
ATOM     16  HN2 UNL     1      17.619  27.158  16.659  1.00  0.00     0.156 HD
ATOM     17  HN1 UNL     1      18.790  28.471  16.767  1.00  0.00     0.156 HD
ENDBRANCH  11  15
BRANCH  12  18
HETATM   18  O   UNL     1      19.823  29.286  18.840  1.00  0.00    -0.358 OA
ATOM     19  HO  UNL     1      20.276  29.941  19.357  1.00  0.00     0.217 HD
ENDBRANCH  12  18
ENDBRANCH   4   5
ENDBRANCH   1   4
BRANCH   1  20
HETATM   20  C   UNL     1      12.187  29.465  23.915  1.00  0.00     0.219 C 
HETATM   21  C   UNL     1      11.004  28.733  24.517  1.00  0.00     0.045 C 
BRANCH  20  22
HETATM   22  C   UNL     1      11.896  30.656  23.029  1.00  0.00     0.023 A 
HETATM   23  C   UNL     1      12.854  31.617  22.754  1.00  0.00     0.014 A 
HETATM   24  C   UNL     1      12.368  32.573  21.830  1.00  0.00     0.017 A 
HETATM   25  C   UNL     1      11.014  32.299  21.565  1.00  0.00     0.025 A 
HETATM   26  C   UNL     1      10.654  31.050  22.329  1.00  0.00     0.191 A 
HETATM   27  O   UNL     1       9.562  30.494  22.361  1.00  0.00    -0.287 OA
BRANCH  25  28
HETATM   28  C   UNL     1      10.110  33.238  20.801  1.00  0.00    -0.022 C 
HETATM   29  C   UNL     1       9.472  32.871  19.614  1.00  0.00     0.012 C 
HETATM   30  C   UNL     1       9.084  33.845  18.698  1.00  0.00     0.001 C 
HETATM   31  C   UNL     1       9.379  35.181  18.955  1.00  0.00     0.000 C 
HETATM   32  C   UNL     1       9.845  35.553  20.211  1.00  0.00     0.001 C 
HETATM   33  C   UNL     1      10.010  34.573  21.194  1.00  0.00     0.012 C 
ENDBRANCH  25  28
ENDBRANCH  20  22
ENDBRANCH   1  20
TORSDOF 7
