MODEL 1
REMARK VINA RESULT:     -10.3      0.000      0.000
REMARK  9 active torsions:
REMARK  status: ('A' for Active; 'I' for Inactive)
REMARK    1  A    between atoms: O_3  and  C_22 
REMARK    2  A    between atoms: O_5  and  C_22 
REMARK    3  A    between atoms: C_11  and  N_12 
REMARK    4  A    between atoms: N_12  and  C_30 
REMARK    5  A    between atoms: C_16  and  C_22 
REMARK    6  A    between atoms: C_22  and  C_30 
REMARK    7  A    between atoms: O_25  and  C_29 
REMARK    8  A    between atoms: C_28  and  CA_37 
REMARK    9  A    between atoms: C_29  and  O_33 
ROOT
HETATM    1  C   UNL     1      -2.811  14.283  27.894  1.00  0.00     0.213 C 
ENDROOT
BRANCH   1   2
HETATM    2  O   UNL     1      -3.084  14.111  29.219  1.00  0.00    -0.360 OA
ATOM      3  HO  UNL     1      -3.359  14.977  29.496  1.00  0.00     0.213 HD
ENDBRANCH   1   2
BRANCH   1   4
HETATM    4  O   UNL     1      -4.062  14.399  27.329  1.00  0.00    -0.360 OA
ATOM      5  HO  UNL     1      -3.875  14.714  26.453  1.00  0.00     0.213 HD
ENDBRANCH   1   4
BRANCH   1   6
HETATM    6  C   UNL     1      -1.995  13.177  27.336  1.00  0.00     0.006 C 
HETATM    7  C   UNL     1      -0.812  13.538  26.706  1.00  0.00     0.025 C 
HETATM    8  C   UNL     1      -0.090  12.568  26.024  1.00  0.00    -0.021 C 
HETATM    9  C   UNL     1       0.885  12.887  25.085  1.00  0.00     0.049 C 
HETATM   10  C   UNL     1      -0.218  11.238  26.456  1.00  0.00    -0.010 C 
HETATM   11  CA  UNL     1       2.065  12.169  25.206  1.00  0.00     0.110 C 
HETATM   12  N   UNL     1       2.064  10.965  25.854  1.00  0.00    -0.360 N 
HETATM   13  C   UNL     1       0.874  10.393  26.176  1.00  0.00     0.100 C 
ATOM     14  HN  UNL     1       2.942  10.503  26.091  1.00  0.00     0.165 HD
HETATM   15  C   UNL     1      -1.451  10.870  26.999  1.00  0.00     0.014 C 
HETATM   16  C   UNL     1      -2.373  11.839  27.376  1.00  0.00     0.013 C 
BRANCH  11  17
HETATM   17  C   UNL     1       3.370  12.900  25.094  1.00  0.00     0.226 C 
HETATM   18  O   UNL     1       3.386  14.128  24.937  1.00  0.00    -0.643 OA
HETATM   19  OXT UNL     1       4.424  12.207  25.337  1.00  0.00    -0.643 OA
ENDBRANCH  11  17
ENDBRANCH   1   6
BRANCH   1  20
HETATM   20  C   UNL     1      -1.992  15.553  27.657  1.00  0.00     0.306 C 
BRANCH  20  21
HETATM   21  N   UNL     1      -2.853  16.605  27.152  1.00  0.00    -0.065 N 
ATOM     22  HN2 UNL     1      -3.010  17.315  27.867  1.00  0.00     0.277 HD
ATOM     23  HN1 UNL     1      -3.807  16.264  27.037  1.00  0.00     0.277 HD
BRANCH  21  24
HETATM   24  C   UNL     1      -2.371  17.221  25.911  1.00  0.00     0.190 C 
HETATM   25  C   UNL     1      -2.692  18.709  26.027  1.00  0.00     0.039 C 
HETATM   26  C   UNL     1      -4.015  19.179  25.488  1.00  0.00     0.001 C 
HETATM   27  C   UNL     1      -4.994  19.866  26.409  1.00  0.00     0.073 C 
HETATM   28  C   UNL     1      -4.753  18.206  24.598  1.00  0.00    -0.031 C 
HETATM   29  C   UNL     1      -6.361  19.714  25.776  1.00  0.00     0.160 C 
HETATM   30  C   UNL     1      -6.213  18.619  24.712  1.00  0.00     0.078 C 
HETATM   31  C   UNL     1      -4.552  16.745  24.988  1.00  0.00     0.016 C 
HETATM   32  C   UNL     1      -4.014  18.277  23.252  1.00  0.00     0.010 C 
HETATM   33  C   UNL     1      -3.059  16.544  24.713  1.00  0.00     0.017 C 
HETATM   34  C   UNL     1      -2.835  17.334  23.423  1.00  0.00     0.007 C 
BRANCH  29  35
HETATM   35  O   UNL     1      -7.296  19.348  26.742  1.00  0.00    -0.365 OA
ATOM     36  HO  UNL     1      -8.153  19.688  26.510  1.00  0.00     0.213 HD
ENDBRANCH  29  35
BRANCH  29  37
HETATM   37  O   UNL     1      -6.816  20.897  25.186  1.00  0.00    -0.365 OA
ATOM     38  HO  UNL     1      -7.639  20.783  24.725  1.00  0.00     0.213 HD
ENDBRANCH  29  37
ENDBRANCH  21  24
ENDBRANCH  20  21
ENDBRANCH   1  20
TORSDOF 9
ENDMDL
MODEL 2
REMARK VINA RESULT:      -9.7      1.950      2.581
REMARK  9 active torsions:
REMARK  status: ('A' for Active; 'I' for Inactive)
REMARK    1  A    between atoms: O_3  and  C_22 
REMARK    2  A    between atoms: O_5  and  C_22 
REMARK    3  A    between atoms: C_11  and  N_12 
REMARK    4  A    between atoms: N_12  and  C_30 
REMARK    5  A    between atoms: C_16  and  C_22 
REMARK    6  A    between atoms: C_22  and  C_30 
REMARK    7  A    between atoms: O_25  and  C_29 
REMARK    8  A    between atoms: C_28  and  CA_37 
REMARK    9  A    between atoms: C_29  and  O_33 
ROOT
HETATM    1  C   UNL     1      -3.847  14.182  28.066  1.00  0.00     0.213 C 
ENDROOT
BRANCH   1   2
HETATM    2  O   UNL     1      -4.096  14.072  29.403  1.00  0.00    -0.360 OA
ATOM      3  HO  UNL     1      -3.794  14.904  29.748  1.00  0.00     0.213 HD
ENDBRANCH   1   2
BRANCH   1   4
HETATM    4  O   UNL     1      -4.835  13.407  27.500  1.00  0.00    -0.360 OA
ATOM      5  HO  UNL     1      -5.151  12.892  28.232  1.00  0.00     0.213 HD
ENDBRANCH   1   4
BRANCH   1   6
HETATM    6  C   UNL     1      -2.470  13.763  27.711  1.00  0.00     0.006 C 
HETATM    7  C   UNL     1      -2.295  12.424  27.386  1.00  0.00     0.025 C 
HETATM    8  C   UNL     1      -1.008  11.938  27.204  1.00  0.00    -0.021 C 
HETATM    9  C   UNL     1      -0.711  10.580  27.234  1.00  0.00     0.049 C 
HETATM   10  C   UNL     1      -0.024  12.846  26.777  1.00  0.00    -0.010 C 
HETATM   11  CA  UNL     1       0.118  10.144  26.212  1.00  0.00     0.110 C 
HETATM   12  N   UNL     1       0.927  11.037  25.566  1.00  0.00    -0.360 N 
HETATM   13  C   UNL     1       1.064  12.288  26.077  1.00  0.00     0.100 C 
ATOM     14  HN  UNL     1       1.420  10.768  24.715  1.00  0.00     0.165 HD
HETATM   15  C   UNL     1      -0.167  14.170  27.197  1.00  0.00     0.014 C 
HETATM   16  C   UNL     1      -1.370  14.615  27.730  1.00  0.00     0.013 C 
BRANCH  11  17
HETATM   17  C   UNL     1      -0.223   8.868  25.500  1.00  0.00     0.226 C 
HETATM   18  O   UNL     1      -0.792   7.950  26.103  1.00  0.00    -0.643 OA
HETATM   19  OXT UNL     1      -0.042   8.871  24.228  1.00  0.00    -0.643 OA
ENDBRANCH  11  17
ENDBRANCH   1   6
BRANCH   1  20
HETATM   20  C   UNL     1      -3.965  15.634  27.599  1.00  0.00     0.306 C 
BRANCH  20  21
HETATM   21  N   UNL     1      -4.123  15.674  26.158  1.00  0.00    -0.065 N 
ATOM     22  HN2 UNL     1      -5.094  15.862  25.908  1.00  0.00     0.277 HD
ATOM     23  HN1 UNL     1      -4.021  14.741  25.760  1.00  0.00     0.277 HD
BRANCH  21  24
HETATM   24  C   UNL     1      -3.226  16.621  25.489  1.00  0.00     0.190 C 
HETATM   25  C   UNL     1      -3.072  17.802  26.445  1.00  0.00     0.039 C 
HETATM   26  C   UNL     1      -4.034  18.948  26.295  1.00  0.00     0.001 C 
HETATM   27  C   UNL     1      -4.911  19.342  27.459  1.00  0.00     0.073 C 
HETATM   28  C   UNL     1      -4.844  18.972  25.019  1.00  0.00    -0.031 C 
HETATM   29  C   UNL     1      -6.093  20.086  26.876  1.00  0.00     0.160 C 
HETATM   30  C   UNL     1      -6.086  19.776  25.374  1.00  0.00     0.078 C 
HETATM   31  C   UNL     1      -5.205  17.585  24.496  1.00  0.00     0.016 C 
HETATM   32  C   UNL     1      -3.861  19.468  23.947  1.00  0.00     0.010 C 
HETATM   33  C   UNL     1      -3.830  17.015  24.131  1.00  0.00     0.017 C 
HETATM   34  C   UNL     1      -3.106  18.218  23.526  1.00  0.00     0.007 C 
BRANCH  29  35
HETATM   35  O   UNL     1      -7.274  19.646  27.471  1.00  0.00    -0.365 OA
ATOM     36  HO  UNL     1      -7.649  18.936  26.963  1.00  0.00     0.213 HD
ENDBRANCH  29  35
BRANCH  29  37
HETATM   37  O   UNL     1      -6.016  21.467  27.080  1.00  0.00    -0.365 OA
ATOM     38  HO  UNL     1      -6.401  21.965  26.369  1.00  0.00     0.213 HD
ENDBRANCH  29  37
ENDBRANCH  21  24
ENDBRANCH  20  21
ENDBRANCH   1  20
TORSDOF 9
ENDMDL
MODEL 3
REMARK VINA RESULT:      -9.5      2.205      3.327
REMARK  9 active torsions:
REMARK  status: ('A' for Active; 'I' for Inactive)
REMARK    1  A    between atoms: O_3  and  C_22 
REMARK    2  A    between atoms: O_5  and  C_22 
REMARK    3  A    between atoms: C_11  and  N_12 
REMARK    4  A    between atoms: N_12  and  C_30 
REMARK    5  A    between atoms: C_16  and  C_22 
REMARK    6  A    between atoms: C_22  and  C_30 
REMARK    7  A    between atoms: O_25  and  C_29 
REMARK    8  A    between atoms: C_28  and  CA_37 
REMARK    9  A    between atoms: C_29  and  O_33 
ROOT
HETATM    1  C   UNL     1      -1.722  17.104  28.169  1.00  0.00     0.213 C 
ENDROOT
BRANCH   1   2
HETATM    2  O   UNL     1      -1.417  17.822  27.051  1.00  0.00    -0.360 OA
ATOM      3  HO  UNL     1      -0.913  17.207  26.530  1.00  0.00     0.213 HD
ENDBRANCH   1   2
BRANCH   1   4
HETATM    4  O   UNL     1      -0.752  17.495  29.066  1.00  0.00    -0.360 OA
ATOM      5  HO  UNL     1      -0.768  18.442  29.000  1.00  0.00     0.213 HD
ENDBRANCH   1   4
BRANCH   1   6
HETATM    6  C   UNL     1      -1.756  15.643  27.912  1.00  0.00     0.006 C 
HETATM    7  C   UNL     1      -0.683  15.114  27.208  1.00  0.00     0.025 C 
HETATM    8  C   UNL     1      -0.735  13.789  26.796  1.00  0.00    -0.021 C 
HETATM    9  C   UNL     1       0.098  13.282  25.805  1.00  0.00     0.049 C 
HETATM   10  C   UNL     1      -1.518  12.903  27.555  1.00  0.00    -0.010 C 
HETATM   11  CA  UNL     1       0.679  12.060  26.104  1.00  0.00     0.110 C 
HETATM   12  N   UNL     1       0.103  11.245  27.039  1.00  0.00    -0.360 N 
HETATM   13  C   UNL     1      -1.139  11.547  27.499  1.00  0.00     0.100 C 
ATOM     14  HN  UNL     1       0.597  10.422  27.385  1.00  0.00     0.165 HD
HETATM   15  C   UNL     1      -2.648  13.438  28.176  1.00  0.00     0.014 C 
HETATM   16  C   UNL     1      -2.805  14.813  28.294  1.00  0.00     0.013 C 
BRANCH  11  17
HETATM   17  C   UNL     1       2.135  11.859  25.806  1.00  0.00     0.226 C 
HETATM   18  O   UNL     1       2.720  12.615  25.019  1.00  0.00    -0.643 OA
HETATM   19  OXT UNL     1       2.742  10.990  26.532  1.00  0.00    -0.643 OA
ENDBRANCH  11  17
ENDBRANCH   1   6
BRANCH   1  20
HETATM   20  C   UNL     1      -3.116  17.458  28.692  1.00  0.00     0.306 C 
BRANCH  20  21
HETATM   21  N   UNL     1      -3.469  18.801  28.274  1.00  0.00    -0.065 N 
ATOM     22  HN2 UNL     1      -2.827  19.134  27.554  1.00  0.00     0.277 HD
ATOM     23  HN1 UNL     1      -3.263  19.473  29.012  1.00  0.00     0.277 HD
BRANCH  21  24
HETATM   24  C   UNL     1      -4.859  18.936  27.828  1.00  0.00     0.190 C 
HETATM   25  C   UNL     1      -5.246  17.581  27.239  1.00  0.00     0.039 C 
HETATM   26  C   UNL     1      -5.025  17.374  25.766  1.00  0.00     0.001 C 
HETATM   27  C   UNL     1      -4.126  16.256  25.297  1.00  0.00     0.073 C 
HETATM   28  C   UNL     1      -4.751  18.618  24.954  1.00  0.00    -0.031 C 
HETATM   29  C   UNL     1      -3.667  16.627  23.904  1.00  0.00     0.160 C 
HETATM   30  C   UNL     1      -3.984  18.118  23.739  1.00  0.00     0.078 C 
HETATM   31  C   UNL     1      -3.965  19.684  25.712  1.00  0.00     0.016 C 
HETATM   32  C   UNL     1      -6.125  19.290  24.801  1.00  0.00     0.010 C 
HETATM   33  C   UNL     1      -4.953  20.087  26.811  1.00  0.00     0.017 C 
HETATM   34  C   UNL     1      -6.299  20.082  26.086  1.00  0.00     0.007 C 
BRANCH  29  35
HETATM   35  O   UNL     1      -2.299  16.391  23.773  1.00  0.00    -0.365 OA
ATOM     36  HO  UNL     1      -1.843  16.679  24.555  1.00  0.00     0.213 HD
ENDBRANCH  29  35
BRANCH  29  37
HETATM   37  O   UNL     1      -4.311  15.886  22.908  1.00  0.00    -0.365 OA
ATOM     38  HO  UNL     1      -5.245  16.057  22.871  1.00  0.00     0.213 HD
ENDBRANCH  29  37
ENDBRANCH  21  24
ENDBRANCH  20  21
ENDBRANCH   1  20
TORSDOF 9
ENDMDL
MODEL 4
REMARK VINA RESULT:      -9.5      1.528      2.024
REMARK  9 active torsions:
REMARK  status: ('A' for Active; 'I' for Inactive)
REMARK    1  A    between atoms: O_3  and  C_22 
REMARK    2  A    between atoms: O_5  and  C_22 
REMARK    3  A    between atoms: C_11  and  N_12 
REMARK    4  A    between atoms: N_12  and  C_30 
REMARK    5  A    between atoms: C_16  and  C_22 
REMARK    6  A    between atoms: C_22  and  C_30 
REMARK    7  A    between atoms: O_25  and  C_29 
REMARK    8  A    between atoms: C_28  and  CA_37 
REMARK    9  A    between atoms: C_29  and  O_33 
ROOT
HETATM    1  C   UNL     1      -2.524  15.112  27.385  1.00  0.00     0.213 C 
ENDROOT
BRANCH   1   2
HETATM    2  O   UNL     1      -2.507  15.466  28.702  1.00  0.00    -0.360 OA
ATOM      3  HO  UNL     1      -3.120  14.858  29.098  1.00  0.00     0.213 HD
ENDBRANCH   1   2
BRANCH   1   4
HETATM    4  O   UNL     1      -3.870  15.026  27.103  1.00  0.00    -0.360 OA
ATOM      5  HO  UNL     1      -3.882  14.772  26.188  1.00  0.00     0.213 HD
ENDBRANCH   1   4
BRANCH   1   6
HETATM    6  C   UNL     1      -1.770  13.862  27.125  1.00  0.00     0.006 C 
HETATM    7  C   UNL     1      -0.590  13.990  26.404  1.00  0.00     0.025 C 
HETATM    8  C   UNL     1       0.073  12.843  25.990  1.00  0.00    -0.021 C 
HETATM    9  C   UNL     1       1.035  12.860  24.985  1.00  0.00     0.049 C 
HETATM   10  C   UNL     1      -0.098  11.679  26.757  1.00  0.00    -0.010 C 
HETATM   11  CA  UNL     1       2.187  12.145  25.272  1.00  0.00     0.110 C 
HETATM   12  N   UNL     1       2.154  11.152  26.213  1.00  0.00    -0.360 N 
HETATM   13  C   UNL     1       0.951  10.741  26.692  1.00  0.00     0.100 C 
ATOM     14  HN  UNL     1       3.018  10.728  26.549  1.00  0.00     0.165 HD
HETATM   15  C   UNL     1      -1.329  11.524  27.396  1.00  0.00     0.014 C 
HETATM   16  C   UNL     1      -2.201  12.599  27.520  1.00  0.00     0.013 C 
BRANCH  11  17
HETATM   17  C   UNL     1       3.518  12.759  24.952  1.00  0.00     0.226 C 
HETATM   18  O   UNL     1       3.618  13.982  24.794  1.00  0.00    -0.643 OA
HETATM   19  OXT UNL     1       4.531  11.972  25.024  1.00  0.00    -0.643 OA
ENDBRANCH  11  17
ENDBRANCH   1   6
BRANCH   1  20
HETATM   20  C   UNL     1      -1.857  16.179  26.516  1.00  0.00     0.306 C 
BRANCH  20  21
HETATM   21  N   UNL     1      -2.767  16.595  25.466  1.00  0.00    -0.065 N 
ATOM     22  HN2 UNL     1      -3.705  16.236  25.641  1.00  0.00     0.277 HD
ATOM     23  HN1 UNL     1      -2.556  16.109  24.595  1.00  0.00     0.277 HD
BRANCH  21  24
HETATM   24  C   UNL     1      -2.800  18.045  25.252  1.00  0.00     0.190 C 
HETATM   25  C   UNL     1      -2.587  18.679  26.625  1.00  0.00     0.039 C 
HETATM   26  C   UNL     1      -3.809  18.994  27.442  1.00  0.00     0.001 C 
HETATM   27  C   UNL     1      -3.975  18.369  28.807  1.00  0.00     0.073 C 
HETATM   28  C   UNL     1      -5.129  18.957  26.706  1.00  0.00    -0.031 C 
HETATM   29  C   UNL     1      -5.455  18.405  29.121  1.00  0.00     0.160 C 
HETATM   30  C   UNL     1      -6.162  18.686  27.789  1.00  0.00     0.078 C 
HETATM   31  C   UNL     1      -5.186  17.905  25.602  1.00  0.00     0.016 C 
HETATM   32  C   UNL     1      -5.156  20.264  25.897  1.00  0.00     0.010 C 
HETATM   33  C   UNL     1      -4.144  18.429  24.609  1.00  0.00     0.017 C 
HETATM   34  C   UNL     1      -4.365  19.942  24.640  1.00  0.00     0.007 C 
BRANCH  29  35
HETATM   35  O   UNL     1      -5.859  17.181  29.652  1.00  0.00    -0.365 OA
ATOM     36  HO  UNL     1      -5.552  17.097  30.547  1.00  0.00     0.213 HD
ENDBRANCH  29  35
BRANCH  29  37
HETATM   37  O   UNL     1      -5.784  19.391  30.056  1.00  0.00    -0.365 OA
ATOM     38  HO  UNL     1      -5.610  20.269  29.739  1.00  0.00     0.213 HD
ENDBRANCH  29  37
ENDBRANCH  21  24
ENDBRANCH  20  21
ENDBRANCH   1  20
TORSDOF 9
ENDMDL
MODEL 5
REMARK VINA RESULT:      -9.4      3.934      8.816
REMARK  9 active torsions:
REMARK  status: ('A' for Active; 'I' for Inactive)
REMARK    1  A    between atoms: O_3  and  C_22 
REMARK    2  A    between atoms: O_5  and  C_22 
REMARK    3  A    between atoms: C_11  and  N_12 
REMARK    4  A    between atoms: N_12  and  C_30 
REMARK    5  A    between atoms: C_16  and  C_22 
REMARK    6  A    between atoms: C_22  and  C_30 
REMARK    7  A    between atoms: O_25  and  C_29 
REMARK    8  A    between atoms: C_28  and  CA_37 
REMARK    9  A    between atoms: C_29  and  O_33 
ROOT
HETATM    1  C   UNL     1      -5.530  19.348  25.414  1.00  0.00     0.213 C 
ENDROOT
BRANCH   1   2
HETATM    2  O   UNL     1      -4.640  20.208  24.840  1.00  0.00    -0.360 OA
ATOM      3  HO  UNL     1      -4.713  20.986  25.379  1.00  0.00     0.213 HD
ENDBRANCH   1   2
BRANCH   1   4
HETATM    4  O   UNL     1      -6.554  19.298  24.495  1.00  0.00    -0.360 OA
ATOM      5  HO  UNL     1      -6.937  20.166  24.551  1.00  0.00     0.213 HD
ENDBRANCH   1   4
BRANCH   1   6
HETATM    6  C   UNL     1      -5.950  19.789  26.766  1.00  0.00     0.006 C 
HETATM    7  C   UNL     1      -6.646  18.861  27.530  1.00  0.00     0.025 C 
HETATM    8  C   UNL     1      -7.206  19.266  28.734  1.00  0.00    -0.021 C 
HETATM    9  C   UNL     1      -8.198  18.535  29.379  1.00  0.00     0.049 C 
HETATM   10  C   UNL     1      -6.597  20.339  29.407  1.00  0.00    -0.010 C 
HETATM   11  CA  UNL     1      -8.004  18.369  30.742  1.00  0.00     0.110 C 
HETATM   12  N   UNL     1      -7.202  19.241  31.424  1.00  0.00    -0.360 N 
HETATM   13  C   UNL     1      -6.783  20.374  30.803  1.00  0.00     0.100 C 
ATOM     14  HN  UNL     1      -6.922  19.044  32.386  1.00  0.00     0.165 HD
HETATM   15  C   UNL     1      -5.987  21.312  28.613  1.00  0.00     0.014 C 
HETATM   16  C   UNL     1      -5.725  21.065  27.271  1.00  0.00     0.013 C 
BRANCH  11  17
HETATM   17  C   UNL     1      -8.238  17.016  31.346  1.00  0.00     0.226 C 
HETATM   18  O   UNL     1      -8.909  16.903  32.380  1.00  0.00    -0.643 OA
HETATM   19  OXT UNL     1      -7.853  16.013  30.642  1.00  0.00    -0.643 OA
ENDBRANCH  11  17
ENDBRANCH   1   6
BRANCH   1  20
HETATM   20  C   UNL     1      -4.913  17.962  25.611  1.00  0.00     0.306 C 
BRANCH  20  21
HETATM   21  N   UNL     1      -3.832  18.039  26.574  1.00  0.00    -0.065 N 
ATOM     22  HN2 UNL     1      -4.176  17.851  27.516  1.00  0.00     0.277 HD
ATOM     23  HN1 UNL     1      -3.524  19.004  26.693  1.00  0.00     0.277 HD
BRANCH  21  24
HETATM   24  C   UNL     1      -2.694  17.170  26.258  1.00  0.00     0.190 C 
HETATM   25  C   UNL     1      -3.290  15.819  25.868  1.00  0.00     0.039 C 
HETATM   26  C   UNL     1      -3.481  14.802  26.958  1.00  0.00     0.001 C 
HETATM   27  C   UNL     1      -4.862  14.262  27.241  1.00  0.00     0.073 C 
HETATM   28  C   UNL     1      -2.771  15.085  28.262  1.00  0.00    -0.031 C 
HETATM   29  C   UNL     1      -4.838  13.738  28.660  1.00  0.00     0.160 C 
HETATM   30  C   UNL     1      -3.579  14.328  29.306  1.00  0.00     0.078 C 
HETATM   31  C   UNL     1      -2.676  16.570  28.598  1.00  0.00     0.016 C 
HETATM   32  C   UNL     1      -1.302  14.729  27.988  1.00  0.00     0.010 C 
HETATM   33  C   UNL     1      -1.764  17.091  27.482  1.00  0.00     0.017 C 
HETATM   34  C   UNL     1      -0.733  15.973  27.327  1.00  0.00     0.007 C 
BRANCH  29  35
HETATM   35  O   UNL     1      -5.985  14.146  29.339  1.00  0.00    -0.365 OA
ATOM     36  HO  UNL     1      -6.151  15.067  29.173  1.00  0.00     0.213 HD
ENDBRANCH  29  35
BRANCH  29  37
HETATM   37  O   UNL     1      -4.798  12.342  28.719  1.00  0.00    -0.365 OA
ATOM     38  HO  UNL     1      -5.454  11.980  29.303  1.00  0.00     0.213 HD
ENDBRANCH  29  37
ENDBRANCH  21  24
ENDBRANCH  20  21
ENDBRANCH   1  20
TORSDOF 9
ENDMDL
MODEL 6
REMARK VINA RESULT:      -9.3      3.149      4.903
REMARK  9 active torsions:
REMARK  status: ('A' for Active; 'I' for Inactive)
REMARK    1  A    between atoms: O_3  and  C_22 
REMARK    2  A    between atoms: O_5  and  C_22 
REMARK    3  A    between atoms: C_11  and  N_12 
REMARK    4  A    between atoms: N_12  and  C_30 
REMARK    5  A    between atoms: C_16  and  C_22 
REMARK    6  A    between atoms: C_22  and  C_30 
REMARK    7  A    between atoms: O_25  and  C_29 
REMARK    8  A    between atoms: C_28  and  CA_37 
REMARK    9  A    between atoms: C_29  and  O_33 
ROOT
HETATM    1  C   UNL     1      -1.780  17.302  27.849  1.00  0.00     0.213 C 
ENDROOT
BRANCH   1   2
HETATM    2  O   UNL     1      -1.835  17.822  26.589  1.00  0.00    -0.360 OA
ATOM      3  HO  UNL     1      -1.142  17.358  26.133  1.00  0.00     0.213 HD
ENDBRANCH   1   2
BRANCH   1   4
HETATM    4  O   UNL     1      -0.753  18.009  28.434  1.00  0.00    -0.360 OA
ATOM      5  HO  UNL     1      -0.623  17.558  29.259  1.00  0.00     0.213 HD
ENDBRANCH   1   4
BRANCH   1   6
HETATM    6  C   UNL     1      -1.580  15.833  27.846  1.00  0.00     0.006 C 
HETATM    7  C   UNL     1      -2.723  15.052  27.958  1.00  0.00     0.025 C 
HETATM    8  C   UNL     1      -2.588  13.681  28.126  1.00  0.00    -0.021 C 
HETATM    9  C   UNL     1      -3.624  12.881  28.596  1.00  0.00     0.049 C 
HETATM   10  C   UNL     1      -1.433  13.073  27.608  1.00  0.00    -0.010 C 
HETATM   11  CA  UNL     1      -3.820  11.707  27.887  1.00  0.00     0.110 C 
HETATM   12  N   UNL     1      -2.799  11.187  27.140  1.00  0.00    -0.360 N 
HETATM   13  C   UNL     1      -1.553  11.709  27.276  1.00  0.00     0.100 C 
ATOM     14  HN  UNL     1      -2.972  10.420  26.490  1.00  0.00     0.165 HD
HETATM   15  C   UNL     1      -0.270  13.845  27.594  1.00  0.00     0.014 C 
HETATM   16  C   UNL     1      -0.333  15.220  27.784  1.00  0.00     0.013 C 
BRANCH  11  17
HETATM   17  C   UNL     1      -5.220  11.300  27.535  1.00  0.00     0.226 C 
HETATM   18  O   UNL     1      -5.653  10.193  27.881  1.00  0.00    -0.643 OA
HETATM   19  OXT UNL     1      -5.959  12.217  27.023  1.00  0.00    -0.643 OA
ENDBRANCH  11  17
ENDBRANCH   1   6
BRANCH   1  20
HETATM   20  C   UNL     1      -3.092  17.533  28.601  1.00  0.00     0.306 C 
BRANCH  20  21
HETATM   21  N   UNL     1      -3.532  18.902  28.410  1.00  0.00    -0.065 N 
ATOM     22  HN2 UNL     1      -2.986  19.356  27.678  1.00  0.00     0.277 HD
ATOM     23  HN1 UNL     1      -3.267  19.479  29.207  1.00  0.00     0.277 HD
BRANCH  21  24
HETATM   24  C   UNL     1      -4.967  19.029  28.136  1.00  0.00     0.190 C 
HETATM   25  C   UNL     1      -5.368  17.759  27.388  1.00  0.00     0.039 C 
HETATM   26  C   UNL     1      -5.303  17.786  25.887  1.00  0.00     0.001 C 
HETATM   27  C   UNL     1      -4.421  16.800  25.160  1.00  0.00     0.073 C 
HETATM   28  C   UNL     1      -5.165  19.151  25.252  1.00  0.00    -0.031 C 
HETATM   29  C   UNL     1      -4.133  17.399  23.800  1.00  0.00     0.160 C 
HETATM   30  C   UNL     1      -4.520  18.879  23.902  1.00  0.00     0.078 C 
HETATM   31  C   UNL     1      -4.339  20.131  26.080  1.00  0.00     0.016 C 
HETATM   32  C   UNL     1      -6.571  19.765  25.348  1.00  0.00     0.010 C 
HETATM   33  C   UNL     1      -5.214  20.313  27.325  1.00  0.00     0.017 C 
HETATM   34  C   UNL     1      -6.631  20.346  26.751  1.00  0.00     0.007 C 
BRANCH  29  35
HETATM   35  O   UNL     1      -2.780  17.257  23.494  1.00  0.00    -0.365 OA
ATOM     36  HO  UNL     1      -2.270  17.197  24.293  1.00  0.00     0.213 HD
ENDBRANCH  29  35
BRANCH  29  37
HETATM   37  O   UNL     1      -4.856  16.783  22.775  1.00  0.00    -0.365 OA
ATOM     38  HO  UNL     1      -4.860  15.836  22.846  1.00  0.00     0.213 HD
ENDBRANCH  29  37
ENDBRANCH  21  24
ENDBRANCH  20  21
ENDBRANCH   1  20
TORSDOF 9
ENDMDL
MODEL 7
REMARK VINA RESULT:      -9.3      3.570      5.754
REMARK  9 active torsions:
REMARK  status: ('A' for Active; 'I' for Inactive)
REMARK    1  A    between atoms: O_3  and  C_22 
REMARK    2  A    between atoms: O_5  and  C_22 
REMARK    3  A    between atoms: C_11  and  N_12 
REMARK    4  A    between atoms: N_12  and  C_30 
REMARK    5  A    between atoms: C_16  and  C_22 
REMARK    6  A    between atoms: C_22  and  C_30 
REMARK    7  A    between atoms: O_25  and  C_29 
REMARK    8  A    between atoms: C_28  and  CA_37 
REMARK    9  A    between atoms: C_29  and  O_33 
ROOT
HETATM    1  C   UNL     1      -4.132  17.587  24.131  1.00  0.00     0.213 C 
ENDROOT
BRANCH   1   2
HETATM    2  O   UNL     1      -5.236  16.934  23.666  1.00  0.00    -0.360 OA
ATOM      3  HO  UNL     1      -5.667  17.592  23.134  1.00  0.00     0.213 HD
ENDBRANCH   1   2
BRANCH   1   4
HETATM    4  O   UNL     1      -3.366  17.751  22.998  1.00  0.00    -0.360 OA
ATOM      5  HO  UNL     1      -2.843  16.958  22.975  1.00  0.00     0.213 HD
ENDBRANCH   1   4
BRANCH   1   6
HETATM    6  C   UNL     1      -3.452  16.844  25.220  1.00  0.00     0.006 C 
HETATM    7  C   UNL     1      -4.116  15.731  25.718  1.00  0.00     0.025 C 
HETATM    8  C   UNL     1      -3.611  15.094  26.843  1.00  0.00    -0.021 C 
HETATM    9  C   UNL     1      -4.373  14.221  27.612  1.00  0.00     0.049 C 
HETATM   10  C   UNL     1      -2.229  15.187  27.078  1.00  0.00    -0.010 C 
HETATM   11  CA  UNL     1      -3.733  13.042  27.958  1.00  0.00     0.110 C 
HETATM   12  N   UNL     1      -2.367  12.985  27.957  1.00  0.00    -0.360 N 
HETATM   13  C   UNL     1      -1.662  14.139  27.828  1.00  0.00     0.100 C 
ATOM     14  HN  UNL     1      -1.885  12.091  28.052  1.00  0.00     0.165 HD
HETATM   15  C   UNL     1      -1.599  16.359  26.655  1.00  0.00     0.014 C 
HETATM   16  C   UNL     1      -2.237  17.227  25.778  1.00  0.00     0.013 C 
BRANCH  11  17
HETATM   17  C   UNL     1      -4.486  11.749  27.840  1.00  0.00     0.226 C 
HETATM   18  O   UNL     1      -3.975  10.782  27.261  1.00  0.00    -0.643 OA
HETATM   19  OXT UNL     1      -5.580  11.674  28.509  1.00  0.00    -0.643 OA
ENDBRANCH  11  17
ENDBRANCH   1   6
BRANCH   1  20
HETATM   20  C   UNL     1      -4.503  18.943  24.732  1.00  0.00     0.306 C 
BRANCH  20  21
HETATM   21  N   UNL     1      -5.193  18.748  25.993  1.00  0.00    -0.065 N 
ATOM     22  HN2 UNL     1      -5.110  17.780  26.302  1.00  0.00     0.277 HD
ATOM     23  HN1 UNL     1      -6.202  18.801  25.862  1.00  0.00     0.277 HD
BRANCH  21  24
HETATM   24  C   UNL     1      -4.761  19.665  27.053  1.00  0.00     0.190 C 
HETATM   25  C   UNL     1      -4.452  18.792  28.267  1.00  0.00     0.039 C 
HETATM   26  C   UNL     1      -5.567  18.540  29.243  1.00  0.00     0.001 C 
HETATM   27  C   UNL     1      -6.006  17.123  29.524  1.00  0.00     0.073 C 
HETATM   28  C   UNL     1      -6.782  19.429  29.109  1.00  0.00    -0.031 C 
HETATM   29  C   UNL     1      -7.419  17.207  30.060  1.00  0.00     0.160 C 
HETATM   30  C   UNL     1      -7.916  18.617  29.717  1.00  0.00     0.078 C 
HETATM   31  C   UNL     1      -7.090  19.832  27.671  1.00  0.00     0.016 C 
HETATM   32  C   UNL     1      -6.349  20.769  29.726  1.00  0.00     0.010 C 
HETATM   33  C   UNL     1      -5.875  20.694  27.314  1.00  0.00     0.017 C 
HETATM   34  C   UNL     1      -5.617  21.480  28.600  1.00  0.00     0.007 C 
BRANCH  29  35
HETATM   35  O   UNL     1      -8.217  16.237  29.455  1.00  0.00    -0.365 OA
ATOM     36  HO  UNL     1      -9.131  16.494  29.498  1.00  0.00     0.213 HD
ENDBRANCH  29  35
BRANCH  29  37
HETATM   37  O   UNL     1      -7.487  16.997  31.440  1.00  0.00    -0.365 OA
ATOM     38  HO  UNL     1      -8.335  16.673  31.720  1.00  0.00     0.213 HD
ENDBRANCH  29  37
ENDBRANCH  21  24
ENDBRANCH  20  21
ENDBRANCH   1  20
TORSDOF 9
ENDMDL
MODEL 8
REMARK VINA RESULT:      -9.3      4.779      9.567
REMARK  9 active torsions:
REMARK  status: ('A' for Active; 'I' for Inactive)
REMARK    1  A    between atoms: O_3  and  C_22 
REMARK    2  A    between atoms: O_5  and  C_22 
REMARK    3  A    between atoms: C_11  and  N_12 
REMARK    4  A    between atoms: N_12  and  C_30 
REMARK    5  A    between atoms: C_16  and  C_22 
REMARK    6  A    between atoms: C_22  and  C_30 
REMARK    7  A    between atoms: O_25  and  C_29 
REMARK    8  A    between atoms: C_28  and  CA_37 
REMARK    9  A    between atoms: C_29  and  O_33 
ROOT
HETATM    1  C   UNL     1      -5.279  19.619  29.092  1.00  0.00     0.213 C 
ENDROOT
BRANCH   1   2
HETATM    2  O   UNL     1      -4.124  18.906  28.959  1.00  0.00    -0.360 OA
ATOM      3  HO  UNL     1      -3.772  18.898  29.841  1.00  0.00     0.213 HD
ENDBRANCH   1   2
BRANCH   1   4
HETATM    4  O   UNL     1      -4.862  20.775  29.715  1.00  0.00    -0.360 OA
ATOM      5  HO  UNL     1      -4.351  21.209  29.042  1.00  0.00     0.213 HD
ENDBRANCH   1   4
BRANCH   1   6
HETATM    6  C   UNL     1      -6.322  18.873  29.837  1.00  0.00     0.006 C 
HETATM    7  C   UNL     1      -7.007  19.579  30.817  1.00  0.00     0.025 C 
HETATM    8  C   UNL     1      -7.877  18.895  31.655  1.00  0.00    -0.021 C 
HETATM    9  C   UNL     1      -8.321  19.424  32.862  1.00  0.00     0.049 C 
HETATM   10  C   UNL     1      -8.474  17.724  31.158  1.00  0.00    -0.010 C 
HETATM   11  CA  UNL     1      -9.681  19.291  33.090  1.00  0.00     0.110 C 
HETATM   12  N   UNL     1     -10.388  18.322  32.432  1.00  0.00    -0.360 N 
HETATM   13  C   UNL     1      -9.710  17.373  31.734  1.00  0.00     0.100 C 
ATOM     14  HN  UNL     1     -11.408  18.312  32.464  1.00  0.00     0.165 HD
HETATM   15  C   UNL     1      -7.726  16.978  30.245  1.00  0.00     0.014 C 
HETATM   16  C   UNL     1      -6.606  17.526  29.634  1.00  0.00     0.013 C 
BRANCH  11  17
HETATM   17  C   UNL     1     -10.443  20.465  33.629  1.00  0.00     0.226 C 
HETATM   18  O   UNL     1     -10.078  21.618  33.366  1.00  0.00    -0.643 OA
HETATM   19  OXT UNL     1     -11.553  20.193  34.215  1.00  0.00    -0.643 OA
ENDBRANCH  11  17
ENDBRANCH   1   6
BRANCH   1  20
HETATM   20  C   UNL     1      -5.897  19.933  27.729  1.00  0.00     0.306 C 
BRANCH  20  21
HETATM   21  N   UNL     1      -4.881  20.461  26.839  1.00  0.00    -0.065 N 
ATOM     22  HN2 UNL     1      -3.951  20.318  27.232  1.00  0.00     0.277 HD
ATOM     23  HN1 UNL     1      -4.908  21.480  26.828  1.00  0.00     0.277 HD
BRANCH  21  24
HETATM   24  C   UNL     1      -4.953  19.928  25.475  1.00  0.00     0.190 C 
HETATM   25  C   UNL     1      -5.475  18.500  25.607  1.00  0.00     0.039 C 
HETATM   26  C   UNL     1      -4.461  17.399  25.748  1.00  0.00     0.001 C 
HETATM   27  C   UNL     1      -4.487  16.512  26.969  1.00  0.00     0.073 C 
HETATM   28  C   UNL     1      -3.032  17.766  25.420  1.00  0.00    -0.031 C 
HETATM   29  C   UNL     1      -3.101  15.920  27.103  1.00  0.00     0.160 C 
HETATM   30  C   UNL     1      -2.193  16.765  26.200  1.00  0.00     0.078 C 
HETATM   31  C   UNL     1      -2.670  19.203  25.783  1.00  0.00     0.016 C 
HETATM   32  C   UNL     1      -2.987  17.809  23.884  1.00  0.00     0.010 C 
HETATM   33  C   UNL     1      -3.559  20.007  24.829  1.00  0.00     0.017 C 
HETATM   34  C   UNL     1      -3.498  19.196  23.534  1.00  0.00     0.007 C 
BRANCH  29  35
HETATM   35  O   UNL     1      -2.681  15.982  28.431  1.00  0.00    -0.365 OA
ATOM     36  HO  UNL     1      -2.337  15.140  28.703  1.00  0.00     0.213 HD
ENDBRANCH  29  35
BRANCH  29  37
HETATM   37  O   UNL     1      -3.048  14.578  26.715  1.00  0.00    -0.365 OA
ATOM     38  HO  UNL     1      -3.854  14.281  26.309  1.00  0.00     0.213 HD
ENDBRANCH  29  37
ENDBRANCH  21  24
ENDBRANCH  20  21
ENDBRANCH   1  20
TORSDOF 9
ENDMDL
MODEL 9
REMARK VINA RESULT:      -9.1      2.285      9.398
REMARK  9 active torsions:
REMARK  status: ('A' for Active; 'I' for Inactive)
REMARK    1  A    between atoms: O_3  and  C_22 
REMARK    2  A    between atoms: O_5  and  C_22 
REMARK    3  A    between atoms: C_11  and  N_12 
REMARK    4  A    between atoms: N_12  and  C_30 
REMARK    5  A    between atoms: C_16  and  C_22 
REMARK    6  A    between atoms: C_22  and  C_30 
REMARK    7  A    between atoms: O_25  and  C_29 
REMARK    8  A    between atoms: C_28  and  CA_37 
REMARK    9  A    between atoms: C_29  and  O_33 
ROOT
HETATM    1  C   UNL     1      -1.091  14.894  27.128  1.00  0.00     0.213 C 
ENDROOT
BRANCH   1   2
HETATM    2  O   UNL     1      -1.688  13.925  27.879  1.00  0.00    -0.360 OA
ATOM      3  HO  UNL     1      -2.612  14.044  27.691  1.00  0.00     0.213 HD
ENDBRANCH   1   2
BRANCH   1   4
HETATM    4  O   UNL     1      -0.062  15.325  27.936  1.00  0.00    -0.360 OA
ATOM      5  HO  UNL     1       0.392  15.954  27.389  1.00  0.00     0.213 HD
ENDBRANCH   1   4
BRANCH   1   6
HETATM    6  C   UNL     1      -2.037  15.964  26.729  1.00  0.00     0.006 C 
HETATM    7  C   UNL     1      -2.862  16.464  27.728  1.00  0.00     0.025 C 
HETATM    8  C   UNL     1      -3.876  17.347  27.383  1.00  0.00    -0.021 C 
HETATM    9  C   UNL     1      -4.950  17.615  28.225  1.00  0.00     0.049 C 
HETATM   10  C   UNL     1      -3.690  18.136  26.236  1.00  0.00    -0.010 C 
HETATM   11  CA  UNL     1      -5.268  18.958  28.351  1.00  0.00     0.110 C 
HETATM   12  N   UNL     1      -4.885  19.841  27.379  1.00  0.00    -0.360 N 
HETATM   13  C   UNL     1      -4.391  19.358  26.210  1.00  0.00     0.100 C 
ATOM     14  HN  UNL     1      -4.968  20.847  27.530  1.00  0.00     0.165 HD
HETATM   15  C   UNL     1      -2.936  17.574  25.203  1.00  0.00     0.014 C 
HETATM   16  C   UNL     1      -2.161  16.443  25.429  1.00  0.00     0.013 C 
BRANCH  11  17
HETATM   17  C   UNL     1      -5.562  19.507  29.716  1.00  0.00     0.226 C 
HETATM   18  O   UNL     1      -5.545  20.728  29.914  1.00  0.00    -0.643 OA
HETATM   19  OXT UNL     1      -5.983  18.658  30.583  1.00  0.00    -0.643 OA
ENDBRANCH  11  17
ENDBRANCH   1   6
BRANCH   1  20
HETATM   20  C   UNL     1      -0.546  14.322  25.818  1.00  0.00     0.306 C 
BRANCH  20  21
HETATM   21  N   UNL     1       0.415  13.274  26.102  1.00  0.00    -0.065 N 
ATOM     22  HN2 UNL     1       0.334  12.966  27.071  1.00  0.00     0.277 HD
ATOM     23  HN1 UNL     1       1.362  13.651  26.121  1.00  0.00     0.277 HD
BRANCH  21  24
HETATM   24  C   UNL     1       0.333  12.131  25.188  1.00  0.00     0.190 C 
HETATM   25  C   UNL     1       0.875  10.932  25.963  1.00  0.00     0.039 C 
HETATM   26  C   UNL     1       2.345  10.636  25.847  1.00  0.00     0.001 C 
HETATM   27  C   UNL     1       3.203  10.623  27.090  1.00  0.00     0.073 C 
HETATM   28  C   UNL     1       3.079  11.344  24.732  1.00  0.00    -0.031 C 
HETATM   29  C   UNL     1       4.627  10.856  26.633  1.00  0.00     0.160 C 
HETATM   30  C   UNL     1       4.527  11.385  25.197  1.00  0.00     0.078 C 
HETATM   31  C   UNL     1       2.546  12.743  24.439  1.00  0.00     0.016 C 
HETATM   32  C   UNL     1       2.678  10.581  23.460  1.00  0.00     0.010 C 
HETATM   33  C   UNL     1       1.138  12.444  23.915  1.00  0.00     0.017 C 
HETATM   34  C   UNL     1       1.344  11.191  23.063  1.00  0.00     0.007 C 
BRANCH  29  35
HETATM   35  O   UNL     1       5.249  11.786  27.465  1.00  0.00    -0.365 OA
ATOM     36  HO  UNL     1       4.717  12.570  27.531  1.00  0.00     0.213 HD
ENDBRANCH  29  35
BRANCH  29  37
HETATM   37  O   UNL     1       5.400   9.692  26.663  1.00  0.00    -0.365 OA
ATOM     38  HO  UNL     1       5.311   9.213  27.479  1.00  0.00     0.213 HD
ENDBRANCH  29  37
ENDBRANCH  21  24
ENDBRANCH  20  21
ENDBRANCH   1  20
TORSDOF 9
ENDMDL
