MODEL 1
REMARK VINA RESULT:      -9.5      0.000      0.000
REMARK  6 active torsions:
REMARK  status: ('A' for Active; 'I' for Inactive)
REMARK    1  A    between atoms: C_2  and  C_27 
REMARK    2  A    between atoms: C_7  and  C_16 
REMARK    3  A    between atoms: C_10  and  O_23 
REMARK    4  A    between atoms: O_11  and  C_21 
REMARK    5  A    between atoms: C_13  and  C_26 
REMARK    6  A    between atoms: C_22  and  C_27 
ROOT
HETATM    1  C   UNL     1     139.599 145.938-269.346  1.00  0.00     0.020 C 
HETATM    2  C   UNL     1     137.218 146.150-269.177  1.00  0.00    -0.036 C 
HETATM    3  C   UNL     1     138.484 146.494-268.723  1.00  0.00     0.047 C 
HETATM    4  C   UNL     1     137.078 145.100-270.087  1.00  0.00     0.020 C 
HETATM    5  C   UNL     1     139.404 145.288-270.569  1.00  0.00     0.013 C 
HETATM    6  C   UNL     1     138.108 145.089-271.045  1.00  0.00    -0.025 C 
ENDROOT
BRANCH   2   7
HETATM    7  C   UNL     1     136.038 147.006-268.895  1.00  0.00     0.079 C 
BRANCH   7   8
HETATM    8  C   UNL     1     136.106 148.035-269.994  1.00  0.00    -0.036 C 
HETATM    9  C   UNL     1     135.709 147.722-271.275  1.00  0.00     0.095 C 
HETATM   10  N   UNL     1     135.399 148.638-272.197  1.00  0.00    -0.372 N 
HETATM   11  C   UNL     1     135.686 149.902-271.888  1.00  0.00     0.124 C 
ATOM     12  HN  UNL     1     134.967 148.384-273.085  1.00  0.00     0.164 HD
HETATM   13  C   UNL     1     136.183 150.308-270.634  1.00  0.00     0.081 C 
HETATM   14  C   UNL     1     136.506 149.334-269.705  1.00  0.00     0.046 C 
BRANCH  13  15
HETATM   15  O   UNL     1     136.346 151.620-270.411  1.00  0.00    -0.359 OA
ATOM     16  HO  UNL     1     137.187 151.919-270.086  1.00  0.00     0.217 HD
ENDBRANCH  13  15
ENDBRANCH   7   8
ENDBRANCH   2   7
BRANCH   3  17
HETATM   17  C   UNL     1     138.616 147.566-267.728  1.00  0.00     0.209 C 
HETATM   18  O   UNL     1     139.412 148.506-268.037  1.00  0.00    -0.644 OA
HETATM   19  O   UNL     1     138.048 147.488-266.634  1.00  0.00    -0.644 OA
ENDBRANCH   3  17
BRANCH   6  20
HETATM   20  C   UNL     1     137.795 145.062-272.409  1.00  0.00    -0.023 C 
HETATM   21  C   UNL     1     137.206 143.943-273.007  1.00  0.00     0.048 C 
HETATM   22  C   UNL     1     136.484 144.107-274.197  1.00  0.00     0.066 C 
HETATM   23  C   UNL     1     136.420 145.353-274.802  1.00  0.00     0.036 C 
HETATM   24  C   UNL     1     137.271 146.353-274.364  1.00  0.00     0.004 C 
HETATM   25  C   UNL     1     137.990 146.196-273.186  1.00  0.00     0.012 C 
BRANCH  22  26
HETATM   26  O   UNL     1     135.864 143.051-274.786  1.00  0.00    -0.361 OA
ATOM     27  HO  UNL     1     135.598 143.089-275.697  1.00  0.00     0.217 HD
ENDBRANCH  22  26
ENDBRANCH   6  20
TORSDOF 6
ENDMDL
MODEL 2
REMARK VINA RESULT:      -9.1      2.282      5.851
REMARK  6 active torsions:
REMARK  status: ('A' for Active; 'I' for Inactive)
REMARK    1  A    between atoms: C_2  and  C_27 
REMARK    2  A    between atoms: C_7  and  C_16 
REMARK    3  A    between atoms: C_10  and  O_23 
REMARK    4  A    between atoms: O_11  and  C_21 
REMARK    5  A    between atoms: C_13  and  C_26 
REMARK    6  A    between atoms: C_22  and  C_27 
ROOT
HETATM    1  C   UNL     1     139.124 144.015-272.576  1.00  0.00     0.020 C 
HETATM    2  C   UNL     1     137.272 145.410-273.183  1.00  0.00    -0.036 C 
HETATM    3  C   UNL     1     138.049 144.285-273.422  1.00  0.00     0.047 C 
HETATM    4  C   UNL     1     137.705 146.358-272.253  1.00  0.00     0.020 C 
HETATM    5  C   UNL     1     139.197 144.722-271.372  1.00  0.00     0.013 C 
HETATM    6  C   UNL     1     138.298 145.760-271.126  1.00  0.00    -0.025 C 
ENDROOT
BRANCH   2   7
HETATM    7  C   UNL     1     135.893 145.525-273.723  1.00  0.00     0.079 C 
BRANCH   7   8
HETATM    8  C   UNL     1     136.019 146.656-274.711  1.00  0.00    -0.036 C 
HETATM    9  C   UNL     1     136.930 146.591-275.741  1.00  0.00     0.095 C 
HETATM   10  N   UNL     1     136.861 147.352-276.838  1.00  0.00    -0.372 N 
HETATM   11  C   UNL     1     135.969 148.341-276.811  1.00  0.00     0.124 C 
ATOM     12  HN  UNL     1     137.456 147.184-277.649  1.00  0.00     0.164 HD
HETATM   13  C   UNL     1     135.056 148.544-275.757  1.00  0.00     0.081 C 
HETATM   14  C   UNL     1     135.163 147.747-274.630  1.00  0.00     0.046 C 
BRANCH  13  15
HETATM   15  O   UNL     1     134.145 149.518-275.886  1.00  0.00    -0.359 OA
ATOM     16  HO  UNL     1     134.276 150.168-276.566  1.00  0.00     0.217 HD
ENDBRANCH  13  15
ENDBRANCH   7   8
ENDBRANCH   2   7
BRANCH   3  17
HETATM   17  C   UNL     1     137.611 143.320-274.438  1.00  0.00     0.209 C 
HETATM   18  O   UNL     1     136.708 142.508-274.070  1.00  0.00    -0.644 OA
HETATM   19  O   UNL     1     138.164 143.267-275.541  1.00  0.00    -0.644 OA
ENDBRANCH   3  17
BRANCH   6  20
HETATM   20  C   UNL     1     137.851 146.090-269.841  1.00  0.00    -0.023 C 
HETATM   21  C   UNL     1     138.721 146.571-268.859  1.00  0.00     0.048 C 
HETATM   22  C   UNL     1     138.202 147.324-267.797  1.00  0.00     0.066 C 
HETATM   23  C   UNL     1     136.834 147.524-267.694  1.00  0.00     0.036 C 
HETATM   24  C   UNL     1     135.987 146.773-268.490  1.00  0.00     0.004 C 
HETATM   25  C   UNL     1     136.496 146.023-269.543  1.00  0.00     0.012 C 
BRANCH  22  26
HETATM   26  O   UNL     1     139.022 147.844-266.846  1.00  0.00    -0.361 OA
ATOM     27  HO  UNL     1     139.918 148.082-267.053  1.00  0.00     0.217 HD
ENDBRANCH  22  26
ENDBRANCH   6  20
TORSDOF 6
ENDMDL
MODEL 3
REMARK VINA RESULT:      -8.6      2.088      3.388
REMARK  6 active torsions:
REMARK  status: ('A' for Active; 'I' for Inactive)
REMARK    1  A    between atoms: C_2  and  C_27 
REMARK    2  A    between atoms: C_7  and  C_16 
REMARK    3  A    between atoms: C_10  and  O_23 
REMARK    4  A    between atoms: O_11  and  C_21 
REMARK    5  A    between atoms: C_13  and  C_26 
REMARK    6  A    between atoms: C_22  and  C_27 
ROOT
HETATM    1  C   UNL     1     139.511 146.948-268.438  1.00  0.00     0.020 C 
HETATM    2  C   UNL     1     137.310 146.167-268.974  1.00  0.00    -0.036 C 
HETATM    3  C   UNL     1     138.129 147.070-268.310  1.00  0.00     0.047 C 
HETATM    4  C   UNL     1     137.875 145.037-269.567  1.00  0.00     0.020 C 
HETATM    5  C   UNL     1     140.000 146.110-269.444  1.00  0.00     0.013 C 
HETATM    6  C   UNL     1     139.111 145.321-270.176  1.00  0.00    -0.025 C 
ENDROOT
BRANCH   2   7
HETATM    7  C   UNL     1     135.887 146.482-269.259  1.00  0.00     0.079 C 
BRANCH   7   8
HETATM    8  C   UNL     1     135.835 146.434-270.765  1.00  0.00    -0.036 C 
HETATM    9  C   UNL     1     136.434 147.415-271.521  1.00  0.00     0.095 C 
HETATM   10  N   UNL     1     136.745 147.268-272.812  1.00  0.00    -0.372 N 
HETATM   11  C   UNL     1     136.261 146.181-273.412  1.00  0.00     0.124 C 
ATOM     12  HN  UNL     1     137.319 147.948-273.309  1.00  0.00     0.164 HD
HETATM   13  C   UNL     1     135.554 145.165-272.739  1.00  0.00     0.081 C 
HETATM   14  C   UNL     1     135.237 145.354-271.404  1.00  0.00     0.046 C 
BRANCH  13  15
HETATM   15  O   UNL     1     135.198 144.075-273.432  1.00  0.00    -0.359 OA
ATOM     16  HO  UNL     1     134.600 143.459-273.024  1.00  0.00     0.217 HD
ENDBRANCH  13  15
ENDBRANCH   7   8
ENDBRANCH   2   7
BRANCH   3  17
HETATM   17  C   UNL     1     137.519 148.229-267.646  1.00  0.00     0.209 C 
HETATM   18  O   UNL     1     137.363 149.258-268.372  1.00  0.00    -0.644 OA
HETATM   19  O   UNL     1     137.267 148.207-266.437  1.00  0.00    -0.644 OA
ENDBRANCH   3  17
BRANCH   6  20
HETATM   20  C   UNL     1     139.330 144.970-271.513  1.00  0.00    -0.023 C 
HETATM   21  C   UNL     1     140.431 145.448-272.229  1.00  0.00     0.048 C 
HETATM   22  C   UNL     1     140.880 144.732-273.348  1.00  0.00     0.066 C 
HETATM   23  C   UNL     1     140.191 143.607-273.771  1.00  0.00     0.036 C 
HETATM   24  C   UNL     1     138.938 143.352-273.243  1.00  0.00     0.004 C 
HETATM   25  C   UNL     1     138.487 144.059-272.135  1.00  0.00     0.012 C 
BRANCH  22  26
HETATM   26  O   UNL     1     141.972 145.143-274.044  1.00  0.00    -0.361 OA
ATOM     27  HO  UNL     1     142.659 144.529-274.279  1.00  0.00     0.217 HD
ENDBRANCH  22  26
ENDBRANCH   6  20
TORSDOF 6
ENDMDL
MODEL 4
REMARK VINA RESULT:      -8.3      1.952      2.428
REMARK  6 active torsions:
REMARK  status: ('A' for Active; 'I' for Inactive)
REMARK    1  A    between atoms: C_2  and  C_27 
REMARK    2  A    between atoms: C_7  and  C_16 
REMARK    3  A    between atoms: C_10  and  O_23 
REMARK    4  A    between atoms: O_11  and  C_21 
REMARK    5  A    between atoms: C_13  and  C_26 
REMARK    6  A    between atoms: C_22  and  C_27 
ROOT
HETATM    1  C   UNL     1     139.498 147.006-268.364  1.00  0.00     0.020 C 
HETATM    2  C   UNL     1     137.235 146.444-268.919  1.00  0.00    -0.036 C 
HETATM    3  C   UNL     1     138.133 147.254-268.237  1.00  0.00     0.047 C 
HETATM    4  C   UNL     1     137.694 145.277-269.533  1.00  0.00     0.020 C 
HETATM    5  C   UNL     1     139.909 146.144-269.386  1.00  0.00     0.013 C 
HETATM    6  C   UNL     1     138.954 145.456-270.134  1.00  0.00    -0.025 C 
ENDROOT
BRANCH   2   7
HETATM    7  C   UNL     1     135.848 146.896-269.202  1.00  0.00     0.079 C 
BRANCH   7   8
HETATM    8  C   UNL     1     136.002 147.636-270.506  1.00  0.00    -0.036 C 
HETATM    9  C   UNL     1     136.167 146.950-271.688  1.00  0.00     0.095 C 
HETATM   10  N   UNL     1     135.951 147.489-272.891  1.00  0.00    -0.372 N 
HETATM   11  C   UNL     1     135.757 148.807-272.918  1.00  0.00     0.124 C 
ATOM     12  HN  UNL     1     135.934 146.924-273.740  1.00  0.00     0.164 HD
HETATM   13  C   UNL     1     135.666 149.608-271.763  1.00  0.00     0.081 C 
HETATM   14  C   UNL     1     135.908 149.022-270.533  1.00  0.00     0.046 C 
BRANCH  13  15
HETATM   15  O   UNL     1     135.377 150.908-271.915  1.00  0.00    -0.359 OA
ATOM     16  HO  UNL     1     135.893 151.414-272.531  1.00  0.00     0.217 HD
ENDBRANCH  13  15
ENDBRANCH   7   8
ENDBRANCH   2   7
BRANCH   3  17
HETATM   17  C   UNL     1     137.631 148.452-267.552  1.00  0.00     0.209 C 
HETATM   18  O   UNL     1     137.195 148.269-266.374  1.00  0.00    -0.644 OA
HETATM   19  O   UNL     1     137.566 149.536-268.140  1.00  0.00    -0.644 OA
ENDBRANCH   3  17
BRANCH   6  20
HETATM   20  C   UNL     1     139.143 145.111-271.477  1.00  0.00    -0.023 C 
HETATM   21  C   UNL     1     140.314 145.444-272.165  1.00  0.00     0.048 C 
HETATM   22  C   UNL     1     140.676 144.701-273.296  1.00  0.00     0.066 C 
HETATM   23  C   UNL     1     139.841 143.696-273.760  1.00  0.00     0.036 C 
HETATM   24  C   UNL     1     138.555 143.610-273.256  1.00  0.00     0.004 C 
HETATM   25  C   UNL     1     138.190 144.346-272.136  1.00  0.00     0.012 C 
BRANCH  22  26
HETATM   26  O   UNL     1     141.828 144.968-273.966  1.00  0.00    -0.361 OA
ATOM     27  HO  UNL     1     141.815 145.458-274.780  1.00  0.00     0.217 HD
ENDBRANCH  22  26
ENDBRANCH   6  20
TORSDOF 6
ENDMDL
MODEL 5
REMARK VINA RESULT:      -8.3      1.861      5.640
REMARK  6 active torsions:
REMARK  status: ('A' for Active; 'I' for Inactive)
REMARK    1  A    between atoms: C_2  and  C_27 
REMARK    2  A    between atoms: C_7  and  C_16 
REMARK    3  A    between atoms: C_10  and  O_23 
REMARK    4  A    between atoms: O_11  and  C_21 
REMARK    5  A    between atoms: C_13  and  C_26 
REMARK    6  A    between atoms: C_22  and  C_27 
ROOT
HETATM    1  C   UNL     1     136.843 146.825-273.588  1.00  0.00     0.020 C 
HETATM    2  C   UNL     1     136.031 145.963-271.505  1.00  0.00    -0.036 C 
HETATM    3  C   UNL     1     136.796 145.796-272.651  1.00  0.00     0.047 C 
HETATM    4  C   UNL     1     135.158 147.050-271.416  1.00  0.00     0.020 C 
HETATM    5  C   UNL     1     136.353 148.077-273.204  1.00  0.00     0.013 C 
HETATM    6  C   UNL     1     135.708 148.218-271.974  1.00  0.00    -0.025 C 
ENDROOT
BRANCH   2   7
HETATM    7  C   UNL     1     136.276 145.149-270.287  1.00  0.00     0.079 C 
BRANCH   7   8
HETATM    8  C   UNL     1     137.032 146.104-269.399  1.00  0.00    -0.036 C 
HETATM    9  C   UNL     1     136.379 146.832-268.431  1.00  0.00     0.095 C 
HETATM   10  N   UNL     1     136.996 147.405-267.394  1.00  0.00    -0.372 N 
HETATM   11  C   UNL     1     138.328 147.416-267.436  1.00  0.00     0.124 C 
ATOM     12  HN  UNL     1     136.478 147.810-266.615  1.00  0.00     0.164 HD
HETATM   13  C   UNL     1     139.084 146.776-268.438  1.00  0.00     0.081 C 
HETATM   14  C   UNL     1     138.414 146.203-269.506  1.00  0.00     0.046 C 
BRANCH  13  15
HETATM   15  O   UNL     1     140.419 146.779-268.323  1.00  0.00    -0.359 OA
ATOM     16  HO  UNL     1     140.866 147.617-268.289  1.00  0.00     0.217 HD
ENDBRANCH  13  15
ENDBRANCH   7   8
ENDBRANCH   2   7
BRANCH   3  17
HETATM   17  C   UNL     1     137.673 144.622-272.755  1.00  0.00     0.209 C 
HETATM   18  O   UNL     1     138.914 144.853-272.623  1.00  0.00    -0.644 OA
HETATM   19  O   UNL     1     137.215 143.512-273.042  1.00  0.00    -0.644 OA
ENDBRANCH   3  17
BRANCH   6  20
HETATM   20  C   UNL     1     135.750 149.400-271.225  1.00  0.00    -0.023 C 
HETATM   21  C   UNL     1     136.652 149.572-270.171  1.00  0.00     0.048 C 
HETATM   22  C   UNL     1     137.000 150.871-269.777  1.00  0.00     0.066 C 
HETATM   23  C   UNL     1     136.399 151.963-270.383  1.00  0.00     0.036 C 
HETATM   24  C   UNL     1     135.290 151.756-271.184  1.00  0.00     0.004 C 
HETATM   25  C   UNL     1     134.939 150.470-271.577  1.00  0.00     0.012 C 
BRANCH  22  26
HETATM   26  O   UNL     1     137.905 151.078-268.784  1.00  0.00    -0.361 OA
ATOM     27  HO  UNL     1     138.392 151.892-268.732  1.00  0.00     0.217 HD
ENDBRANCH  22  26
ENDBRANCH   6  20
TORSDOF 6
ENDMDL
MODEL 6
REMARK VINA RESULT:      -8.3      1.689      3.490
REMARK  6 active torsions:
REMARK  status: ('A' for Active; 'I' for Inactive)
REMARK    1  A    between atoms: C_2  and  C_27 
REMARK    2  A    between atoms: C_7  and  C_16 
REMARK    3  A    between atoms: C_10  and  O_23 
REMARK    4  A    between atoms: O_11  and  C_21 
REMARK    5  A    between atoms: C_13  and  C_26 
REMARK    6  A    between atoms: C_22  and  C_27 
ROOT
HETATM    1  C   UNL     1     136.532 147.042-268.946  1.00  0.00     0.020 C 
HETATM    2  C   UNL     1     136.093 147.994-271.101  1.00  0.00    -0.036 C 
HETATM    3  C   UNL     1     136.391 148.167-269.756  1.00  0.00     0.047 C 
HETATM    4  C   UNL     1     135.724 146.730-271.564  1.00  0.00     0.020 C 
HETATM    5  C   UNL     1     136.646 145.798-269.575  1.00  0.00     0.013 C 
HETATM    6  C   UNL     1     136.469 145.704-270.955  1.00  0.00    -0.025 C 
ENDROOT
BRANCH   2   7
HETATM    7  C   UNL     1     136.368 149.062-272.096  1.00  0.00     0.079 C 
BRANCH   7   8
HETATM    8  C   UNL     1     135.882 148.446-273.383  1.00  0.00    -0.036 C 
HETATM    9  C   UNL     1     134.800 148.974-274.050  1.00  0.00     0.095 C 
HETATM   10  N   UNL     1     134.534 148.731-275.337  1.00  0.00    -0.372 N 
HETATM   11  C   UNL     1     135.260 147.775-275.916  1.00  0.00     0.124 C 
ATOM     12  HN  UNL     1     133.817 149.248-275.846  1.00  0.00     0.164 HD
HETATM   13  C   UNL     1     136.329 147.112-275.282  1.00  0.00     0.081 C 
HETATM   14  C   UNL     1     136.570 147.377-273.945  1.00  0.00     0.046 C 
BRANCH  13  15
HETATM   15  O   UNL     1     137.044 146.234-275.998  1.00  0.00    -0.359 OA
ATOM     16  HO  UNL     1     137.010 145.318-275.749  1.00  0.00     0.217 HD
ENDBRANCH  13  15
ENDBRANCH   7   8
ENDBRANCH   2   7
BRANCH   3  17
HETATM   17  C   UNL     1     136.730 149.511-269.270  1.00  0.00     0.209 C 
HETATM   18  O   UNL     1     137.845 149.613-268.674  1.00  0.00    -0.644 OA
HETATM   19  O   UNL     1     135.924 150.441-269.367  1.00  0.00    -0.644 OA
ENDBRANCH   3  17
BRANCH   6  20
HETATM   20  C   UNL     1     137.136 144.760-271.745  1.00  0.00    -0.023 C 
HETATM   21  C   UNL     1     136.476 144.037-272.743  1.00  0.00     0.048 C 
HETATM   22  C   UNL     1     137.222 143.490-273.796  1.00  0.00     0.066 C 
HETATM   23  C   UNL     1     138.603 143.611-273.801  1.00  0.00     0.036 C 
HETATM   24  C   UNL     1     139.241 144.044-272.651  1.00  0.00     0.004 C 
HETATM   25  C   UNL     1     138.506 144.585-271.603  1.00  0.00     0.012 C 
BRANCH  22  26
HETATM   26  O   UNL     1     136.612 142.816-274.805  1.00  0.00    -0.361 OA
ATOM     27  HO  UNL     1     137.095 142.195-275.338  1.00  0.00     0.217 HD
ENDBRANCH  22  26
ENDBRANCH   6  20
TORSDOF 6
ENDMDL
MODEL 7
REMARK VINA RESULT:      -8.3      1.798      5.655
REMARK  6 active torsions:
REMARK  status: ('A' for Active; 'I' for Inactive)
REMARK    1  A    between atoms: C_2  and  C_27 
REMARK    2  A    between atoms: C_7  and  C_16 
REMARK    3  A    between atoms: C_10  and  O_23 
REMARK    4  A    between atoms: O_11  and  C_21 
REMARK    5  A    between atoms: C_13  and  C_26 
REMARK    6  A    between atoms: C_22  and  C_27 
ROOT
HETATM    1  C   UNL     1     134.780 144.232-271.810  1.00  0.00     0.020 C 
HETATM    2  C   UNL     1     137.038 144.698-272.463  1.00  0.00    -0.036 C 
HETATM    3  C   UNL     1     135.768 144.245-272.792  1.00  0.00     0.047 C 
HETATM    4  C   UNL     1     137.361 144.919-271.123  1.00  0.00     0.020 C 
HETATM    5  C   UNL     1     135.030 144.935-270.628  1.00  0.00     0.013 C 
HETATM    6  C   UNL     1     136.291 145.489-270.408  1.00  0.00    -0.025 C 
ENDROOT
BRANCH   2   7
HETATM    7  C   UNL     1     137.987 145.163-273.507  1.00  0.00     0.079 C 
BRANCH   7   8
HETATM    8  C   UNL     1     137.265 146.341-274.108  1.00  0.00    -0.036 C 
HETATM    9  C   UNL     1     137.072 146.430-275.467  1.00  0.00     0.095 C 
HETATM   10  N   UNL     1     136.158 147.222-276.035  1.00  0.00    -0.372 N 
HETATM   11  C   UNL     1     135.557 148.096-275.229  1.00  0.00     0.124 C 
ATOM     12  HN  UNL     1     135.933 147.160-277.028  1.00  0.00     0.164 HD
HETATM   13  C   UNL     1     135.759 148.143-273.836  1.00  0.00     0.081 C 
HETATM   14  C   UNL     1     136.723 147.318-273.281  1.00  0.00     0.046 C 
BRANCH  13  15
HETATM   15  O   UNL     1     135.027 149.006-273.117  1.00  0.00    -0.359 OA
ATOM     16  HO  UNL     1     134.278 148.670-272.640  1.00  0.00     0.217 HD
ENDBRANCH  13  15
ENDBRANCH   7   8
ENDBRANCH   2   7
BRANCH   3  17
HETATM   17  C   UNL     1     135.455 143.967-274.200  1.00  0.00     0.209 C 
HETATM   18  O   UNL     1     136.140 143.046-274.743  1.00  0.00    -0.644 OA
HETATM   19  O   UNL     1     134.639 144.659-274.816  1.00  0.00    -0.644 OA
ENDBRANCH   3  17
BRANCH   6  20
HETATM   20  C   UNL     1     136.489 146.662-269.669  1.00  0.00    -0.023 C 
HETATM   21  C   UNL     1     137.326 146.694-268.550  1.00  0.00     0.048 C 
HETATM   22  C   UNL     1     137.872 147.919-268.143  1.00  0.00     0.066 C 
HETATM   23  C   UNL     1     137.524 149.086-268.804  1.00  0.00     0.036 C 
HETATM   24  C   UNL     1     136.458 149.062-269.687  1.00  0.00     0.004 C 
HETATM   25  C   UNL     1     135.912 147.851-270.093  1.00  0.00     0.012 C 
BRANCH  22  26
HETATM   26  O   UNL     1     138.723 147.985-267.085  1.00  0.00    -0.361 OA
ATOM     27  HO  UNL     1     138.866 147.229-266.528  1.00  0.00     0.217 HD
ENDBRANCH  22  26
ENDBRANCH   6  20
TORSDOF 6
ENDMDL
MODEL 8
REMARK VINA RESULT:      -8.1      2.331      5.801
REMARK  6 active torsions:
REMARK  status: ('A' for Active; 'I' for Inactive)
REMARK    1  A    between atoms: C_2  and  C_27 
REMARK    2  A    between atoms: C_7  and  C_16 
REMARK    3  A    between atoms: C_10  and  O_23 
REMARK    4  A    between atoms: O_11  and  C_21 
REMARK    5  A    between atoms: C_13  and  C_26 
REMARK    6  A    between atoms: C_22  and  C_27 
ROOT
HETATM    1  C   UNL     1     138.743 143.501-273.018  1.00  0.00     0.020 C 
HETATM    2  C   UNL     1     137.244 145.345-273.328  1.00  0.00    -0.036 C 
HETATM    3  C   UNL     1     137.583 144.023-273.586  1.00  0.00     0.047 C 
HETATM    4  C   UNL     1     138.170 146.179-272.700  1.00  0.00     0.020 C 
HETATM    5  C   UNL     1     139.356 144.235-271.998  1.00  0.00     0.013 C 
HETATM    6  C   UNL     1     138.884 145.511-271.688  1.00  0.00    -0.025 C 
ENDROOT
BRANCH   2   7
HETATM    7  C   UNL     1     135.853 145.833-273.502  1.00  0.00     0.079 C 
BRANCH   7   8
HETATM    8  C   UNL     1     135.982 146.793-274.657  1.00  0.00    -0.036 C 
HETATM    9  C   UNL     1     136.923 146.589-275.639  1.00  0.00     0.095 C 
HETATM   10  N   UNL     1     136.870 147.160-276.845  1.00  0.00    -0.372 N 
HETATM   11  C   UNL     1     135.955 148.116-277.002  1.00  0.00     0.124 C 
ATOM     12  HN  UNL     1     137.492 146.880-277.603  1.00  0.00     0.164 HD
HETATM   13  C   UNL     1     135.007 148.461-276.018  1.00  0.00     0.081 C 
HETATM   14  C   UNL     1     135.098 147.860-274.774  1.00  0.00     0.046 C 
BRANCH  13  15
HETATM   15  O   UNL     1     134.078 149.376-276.326  1.00  0.00    -0.359 OA
ATOM     16  HO  UNL     1     134.128 149.799-277.175  1.00  0.00     0.217 HD
ENDBRANCH  13  15
ENDBRANCH   7   8
ENDBRANCH   2   7
BRANCH   3  17
HETATM   17  C   UNL     1     136.622 143.167-274.293  1.00  0.00     0.209 C 
HETATM   18  O   UNL     1     136.929 142.868-275.487  1.00  0.00    -0.644 OA
HETATM   19  O   UNL     1     135.551 142.850-273.767  1.00  0.00    -0.644 OA
ENDBRANCH   3  17
BRANCH   6  20
HETATM   20  C   UNL     1     138.941 146.050-270.398  1.00  0.00    -0.023 C 
HETATM   21  C   UNL     1     137.884 146.793-269.863  1.00  0.00     0.048 C 
HETATM   22  C   UNL     1     137.757 146.896-268.471  1.00  0.00     0.066 C 
HETATM   23  C   UNL     1     138.712 146.324-267.646  1.00  0.00     0.036 C 
HETATM   24  C   UNL     1     139.899 145.881-268.203  1.00  0.00     0.004 C 
HETATM   25  C   UNL     1     140.031 145.779-269.583  1.00  0.00     0.012 C 
BRANCH  22  26
HETATM   26  O   UNL     1     136.720 147.575-267.915  1.00  0.00    -0.361 OA
ATOM     27  HO  UNL     1     135.894 147.141-267.736  1.00  0.00     0.217 HD
ENDBRANCH  22  26
ENDBRANCH   6  20
TORSDOF 6
ENDMDL
MODEL 9
REMARK VINA RESULT:      -8.0      2.022      5.982
REMARK  6 active torsions:
REMARK  status: ('A' for Active; 'I' for Inactive)
REMARK    1  A    between atoms: C_2  and  C_27 
REMARK    2  A    between atoms: C_7  and  C_16 
REMARK    3  A    between atoms: C_10  and  O_23 
REMARK    4  A    between atoms: O_11  and  C_21 
REMARK    5  A    between atoms: C_13  and  C_26 
REMARK    6  A    between atoms: C_22  and  C_27 
ROOT
HETATM    1  C   UNL     1     135.460 144.400-271.402  1.00  0.00     0.020 C 
HETATM    2  C   UNL     1     137.143 145.320-272.839  1.00  0.00    -0.036 C 
HETATM    3  C   UNL     1     136.184 144.348-272.592  1.00  0.00     0.047 C 
HETATM    4  C   UNL     1     137.518 146.190-271.812  1.00  0.00     0.020 C 
HETATM    5  C   UNL     1     135.530 145.576-270.650  1.00  0.00     0.013 C 
HETATM    6  C   UNL     1     136.421 146.583-271.024  1.00  0.00    -0.025 C 
ENDROOT
BRANCH   2   7
HETATM    7  C   UNL     1     137.619 145.604-274.217  1.00  0.00     0.079 C 
BRANCH   7   8
HETATM    8  C   UNL     1     136.581 146.569-274.731  1.00  0.00    -0.036 C 
HETATM    9  C   UNL     1     136.852 147.916-274.809  1.00  0.00     0.095 C 
HETATM   10  N   UNL     1     136.154 148.767-275.567  1.00  0.00    -0.372 N 
HETATM   11  C   UNL     1     135.032 148.291-276.105  1.00  0.00     0.124 C 
ATOM     12  HN  UNL     1     136.463 149.727-275.724  1.00  0.00     0.164 HD
HETATM   13  C   UNL     1     134.625 146.946-276.002  1.00  0.00     0.081 C 
HETATM   14  C   UNL     1     135.362 146.093-275.199  1.00  0.00     0.046 C 
BRANCH  13  15
HETATM   15  O   UNL     1     133.524 146.565-276.664  1.00  0.00    -0.359 OA
ATOM     16  HO  UNL     1     133.240 147.090-277.403  1.00  0.00     0.217 HD
ENDBRANCH  13  15
ENDBRANCH   7   8
ENDBRANCH   2   7
BRANCH   3  17
HETATM   17  C   UNL     1     135.834 143.406-273.663  1.00  0.00     0.209 C 
HETATM   18  O   UNL     1     134.592 143.197-273.825  1.00  0.00    -0.644 OA
HETATM   19  O   UNL     1     136.712 142.805-274.289  1.00  0.00    -0.644 OA
ENDBRANCH   3  17
BRANCH   6  20
HETATM   20  C   UNL     1     136.169 147.942-270.803  1.00  0.00    -0.023 C 
HETATM   21  C   UNL     1     136.486 148.562-269.592  1.00  0.00     0.048 C 
HETATM   22  C   UNL     1     136.676 149.951-269.565  1.00  0.00     0.066 C 
HETATM   23  C   UNL     1     136.480 150.698-270.716  1.00  0.00     0.036 C 
HETATM   24  C   UNL     1     135.860 150.104-271.802  1.00  0.00     0.004 C 
HETATM   25  C   UNL     1     135.668 148.728-271.833  1.00  0.00     0.012 C 
BRANCH  22  26
HETATM   26  O   UNL     1     137.026 150.584-268.415  1.00  0.00    -0.361 OA
ATOM     27  HO  UNL     1     137.817 151.108-268.369  1.00  0.00     0.217 HD
ENDBRANCH  22  26
ENDBRANCH   6  20
TORSDOF 6
ENDMDL
