MODEL 1
REMARK VINA RESULT:      -7.3      0.000      0.000
REMARK  4 active torsions:
REMARK  status: ('A' for Active; 'I' for Inactive)
REMARK    1  A    between atoms: C_2  and  O_8 
REMARK    2  A    between atoms: C_2  and  O_10 
REMARK    3  A    between atoms: O_4  and  C_6 
REMARK    4  A    between atoms: N_12  and  C_26 
ROOT
HETATM    1  C   UNL     1      -3.467  30.529   7.187  1.00  0.00     0.046 C 
HETATM    2  C   UNL     1      -4.155  27.456   6.578  1.00  0.00     0.203 C 
HETATM    3  C   UNL     1      -4.162  28.221   7.882  1.00  0.00     0.015 C 
HETATM    4  C   UNL     1      -7.576  28.357  10.729  1.00  0.00     0.081 C 
HETATM    5  C   UNL     1      -6.607  28.552   9.746  1.00  0.00     0.063 C 
HETATM    6  N   UNL     1      -5.077  30.245   8.848  1.00  0.00    -0.341 N 
ATOM      7  HN  UNL     1      -4.722  31.100   9.278  1.00  0.00     0.167 HD
HETATM    8  C   UNL     1      -4.248  29.628   7.947  1.00  0.00     0.043 C 
HETATM    9  N   UNL     1      -2.487  28.996   5.567  1.00  0.00    -0.393 N 
ATOM     10  HN  UNL     1      -1.568  28.680   5.258  1.00  0.00     0.159 HD
HETATM   11  C   UNL     1      -3.654  28.158   5.322  1.00  0.00     0.192 C 
HETATM   12  C   UNL     1      -2.603  30.177   6.192  1.00  0.00     0.085 C 
HETATM   13  N   UNL     1      -7.253  30.812   9.237  1.00  0.00    -0.351 N 
ATOM     14  HN  UNL     1      -7.576  31.137   8.326  1.00  0.00     0.166 HD
HETATM   15  C   UNL     1      -8.236  29.322  11.464  1.00  0.00     0.039 C 
HETATM   16  C   UNL     1      -4.406  27.383   9.113  1.00  0.00     0.100 C 
HETATM   17  C   UNL     1      -5.886  27.355   9.336  1.00  0.00     0.024 C 
HETATM   18  C   UNL     1      -8.294  30.664  11.374  1.00  0.00     0.020 C 
HETATM   19  C   UNL     1      -6.332  29.841   9.237  1.00  0.00     0.120 C 
HETATM   20  C   UNL     1      -7.794  31.399  10.314  1.00  0.00     0.090 C 
ENDROOT
BRANCH   2  21
HETATM   21  O   UNL     1      -5.435  26.941   6.328  1.00  0.00    -0.360 OA
ATOM     22  HO  UNL     1      -5.385  25.997   6.227  1.00  0.00     0.213 HD
ENDBRANCH   2  21
BRANCH   2  23
HETATM   23  O   UNL     1      -3.287  26.379   6.683  1.00  0.00    -0.360 OA
ATOM     24  HO  UNL     1      -3.668  25.625   6.248  1.00  0.00     0.213 HD
ENDBRANCH   2  23
BRANCH  17  25
HETATM   25  N   UNL     1      -6.609  26.419   8.791  1.00  0.00    -0.401 N 
ATOM     26  HN2 UNL     1      -6.735  25.528   9.271  1.00  0.00     0.156 HD
ATOM     27  HN1 UNL     1      -6.751  26.498   7.784  1.00  0.00     0.156 HD
ENDBRANCH  17  25
BRANCH   4  28
HETATM   28  O   UNL     1      -7.850  27.065  11.001  1.00  0.00    -0.360 OA
ATOM     29  HO  UNL     1      -8.441  26.930  11.733  1.00  0.00     0.217 HD
ENDBRANCH   4  28
TORSDOF 4
ENDMDL
MODEL 2
REMARK VINA RESULT:      -7.2      2.567      3.713
REMARK  4 active torsions:
REMARK  status: ('A' for Active; 'I' for Inactive)
REMARK    1  A    between atoms: C_2  and  O_8 
REMARK    2  A    between atoms: C_2  and  O_10 
REMARK    3  A    between atoms: O_4  and  C_6 
REMARK    4  A    between atoms: N_12  and  C_26 
ROOT
HETATM    1  C   UNL     1      -5.883  27.426   7.923  1.00  0.00     0.046 C 
HETATM    2  C   UNL     1      -4.308  29.867   6.562  1.00  0.00     0.203 C 
HETATM    3  C   UNL     1      -5.746  29.764   7.021  1.00  0.00     0.015 C 
HETATM    4  C   UNL     1      -7.761  32.655   9.732  1.00  0.00     0.081 C 
HETATM    5  C   UNL     1      -7.090  31.603   9.111  1.00  0.00     0.063 C 
HETATM    6  N   UNL     1      -7.035  29.155   8.979  1.00  0.00    -0.341 N 
ATOM      7  HN  UNL     1      -7.750  28.470   9.225  1.00  0.00     0.167 HD
HETATM    8  C   UNL     1      -6.185  28.807   7.961  1.00  0.00     0.043 C 
HETATM    9  N   UNL     1      -4.132  27.411   6.229  1.00  0.00    -0.393 N 
ATOM     10  HN  UNL     1      -3.940  26.995   5.318  1.00  0.00     0.159 HD
HETATM   11  C   UNL     1      -3.430  28.624   6.627  1.00  0.00     0.192 C 
HETATM   12  C   UNL     1      -5.026  26.832   7.043  1.00  0.00     0.085 C 
HETATM   13  N   UNL     1      -7.117  30.154  11.029  1.00  0.00    -0.351 N 
ATOM     14  HN  UNL     1      -6.289  29.790  11.500  1.00  0.00     0.166 HD
HETATM   15  C   UNL     1      -8.589  32.592  10.836  1.00  0.00     0.039 C 
HETATM   16  C   UNL     1      -6.615  30.945   6.670  1.00  0.00     0.100 C 
HETATM   17  C   UNL     1      -6.516  31.913   7.809  1.00  0.00     0.024 C 
HETATM   18  C   UNL     1      -8.869  31.612  11.717  1.00  0.00     0.020 C 
HETATM   19  C   UNL     1      -7.031  30.322   9.705  1.00  0.00     0.120 C 
HETATM   20  C   UNL     1      -8.183  30.415  11.800  1.00  0.00     0.090 C 
ENDROOT
BRANCH   2  21
HETATM   21  O   UNL     1      -3.669  30.909   7.249  1.00  0.00    -0.360 OA
ATOM     22  HO  UNL     1      -3.256  30.568   8.033  1.00  0.00     0.213 HD
ENDBRANCH   2  21
BRANCH   2  23
HETATM   23  O   UNL     1      -4.280  30.181   5.211  1.00  0.00    -0.360 OA
ATOM     24  HO  UNL     1      -3.887  31.038   5.096  1.00  0.00     0.213 HD
ENDBRANCH   2  23
BRANCH  17  25
HETATM   25  N   UNL     1      -5.595  32.833   7.802  1.00  0.00    -0.401 N 
ATOM     26  HN2 UNL     1      -5.539  33.494   7.027  1.00  0.00     0.156 HD
ATOM     27  HN1 UNL     1      -4.789  32.658   8.402  1.00  0.00     0.156 HD
ENDBRANCH  17  25
BRANCH   4  28
HETATM   28  O   UNL     1      -7.598  33.856   9.139  1.00  0.00    -0.360 OA
ATOM     29  HO  UNL     1      -6.773  33.962   8.679  1.00  0.00     0.217 HD
ENDBRANCH   4  28
TORSDOF 4
ENDMDL
MODEL 3
REMARK VINA RESULT:      -7.2      1.101      1.217
REMARK  4 active torsions:
REMARK  status: ('A' for Active; 'I' for Inactive)
REMARK    1  A    between atoms: C_2  and  O_8 
REMARK    2  A    between atoms: C_2  and  O_10 
REMARK    3  A    between atoms: O_4  and  C_6 
REMARK    4  A    between atoms: N_12  and  C_26 
ROOT
HETATM    1  C   UNL     1      -2.691  30.782   7.747  1.00  0.00     0.046 C 
HETATM    2  C   UNL     1      -3.051  27.998   6.194  1.00  0.00     0.203 C 
HETATM    3  C   UNL     1      -3.260  28.340   7.652  1.00  0.00     0.015 C 
HETATM    4  C   UNL     1      -6.957  27.459   9.962  1.00  0.00     0.081 C 
HETATM    5  C   UNL     1      -5.909  27.984   9.207  1.00  0.00     0.063 C 
HETATM    6  N   UNL     1      -4.438  29.939   9.038  1.00  0.00    -0.341 N 
ATOM      7  HN  UNL     1      -4.204  30.644   9.738  1.00  0.00     0.167 HD
HETATM    8  C   UNL     1      -3.469  29.658   8.110  1.00  0.00     0.043 C 
HETATM    9  N   UNL     1      -1.419  29.848   5.891  1.00  0.00    -0.393 N 
ATOM     10  HN  UNL     1      -0.449  29.683   5.623  1.00  0.00     0.159 HD
HETATM   11  C   UNL     1      -2.479  29.065   5.269  1.00  0.00     0.192 C 
HETATM   12  C   UNL     1      -1.699  30.783   6.810  1.00  0.00     0.085 C 
HETATM   13  N   UNL     1      -6.683  30.259   9.296  1.00  0.00    -0.351 N 
ATOM     14  HN  UNL     1      -6.934  30.824   8.485  1.00  0.00     0.166 HD
HETATM   15  C   UNL     1      -7.769  28.128  10.855  1.00  0.00     0.039 C 
HETATM   16  C   UNL     1      -3.563  27.164   8.547  1.00  0.00     0.100 C 
HETATM   17  C   UNL     1      -5.051  26.999   8.563  1.00  0.00     0.024 C 
HETATM   18  C   UNL     1      -7.929  29.433  11.150  1.00  0.00     0.020 C 
HETATM   19  C   UNL     1      -5.690  29.378   9.132  1.00  0.00     0.120 C 
HETATM   20  C   UNL     1      -7.383  30.473  10.419  1.00  0.00     0.090 C 
ENDROOT
BRANCH   2  21
HETATM   21  O   UNL     1      -4.249  27.519   5.646  1.00  0.00    -0.360 OA
ATOM     22  HO  UNL     1      -4.547  28.110   4.965  1.00  0.00     0.213 HD
ENDBRANCH   2  21
BRANCH   2  23
HETATM   23  O   UNL     1      -2.111  26.982   6.092  1.00  0.00    -0.360 OA
ATOM     24  HO  UNL     1      -1.257  27.319   6.335  1.00  0.00     0.213 HD
ENDBRANCH   2  23
BRANCH  17  25
HETATM   25  N   UNL     1      -5.630  26.233   7.684  1.00  0.00    -0.401 N 
ATOM     26  HN2 UNL     1      -5.200  25.348   7.417  1.00  0.00     0.156 HD
ATOM     27  HN1 UNL     1      -6.312  26.690   7.079  1.00  0.00     0.156 HD
ENDBRANCH  17  25
BRANCH   4  28
HETATM   28  O   UNL     1      -7.150  26.132   9.812  1.00  0.00    -0.360 OA
ATOM     29  HO  UNL     1      -6.351  25.619   9.765  1.00  0.00     0.217 HD
ENDBRANCH   4  28
TORSDOF 4
ENDMDL
MODEL 4
REMARK VINA RESULT:      -7.1      2.542      4.266
REMARK  4 active torsions:
REMARK  status: ('A' for Active; 'I' for Inactive)
REMARK    1  A    between atoms: C_2  and  O_8 
REMARK    2  A    between atoms: C_2  and  O_10 
REMARK    3  A    between atoms: O_4  and  C_6 
REMARK    4  A    between atoms: N_12  and  C_26 
ROOT
HETATM    1  C   UNL     1      -7.199  27.662   9.682  1.00  0.00     0.046 C 
HETATM    2  C   UNL     1      -4.894  29.100   7.977  1.00  0.00     0.203 C 
HETATM    3  C   UNL     1      -6.335  29.498   8.205  1.00  0.00     0.015 C 
HETATM    4  C   UNL     1      -7.673  33.487   9.645  1.00  0.00     0.081 C 
HETATM    5  C   UNL     1      -7.276  32.163   9.457  1.00  0.00     0.063 C 
HETATM    6  N   UNL     1      -7.901  29.859  10.017  1.00  0.00    -0.341 N 
ATOM      7  HN  UNL     1      -8.798  29.481  10.322  1.00  0.00     0.167 HD
HETATM    8  C   UNL     1      -7.102  29.017   9.288  1.00  0.00     0.043 C 
HETATM    9  N   UNL     1      -5.389  26.697   8.369  1.00  0.00    -0.393 N 
ATOM     10  HN  UNL     1      -5.247  25.985   7.652  1.00  0.00     0.159 HD
HETATM   11  C   UNL     1      -4.409  27.764   8.524  1.00  0.00     0.192 C 
HETATM   12  C   UNL     1      -6.474  26.635   9.153  1.00  0.00     0.085 C 
HETATM   13  N   UNL     1      -7.868  31.433  11.670  1.00  0.00    -0.351 N 
ATOM     14  HN  UNL     1      -7.218  31.043  12.351  1.00  0.00     0.166 HD
HETATM   15  C   UNL     1      -8.573  33.972  10.573  1.00  0.00     0.039 C 
HETATM   16  C   UNL     1      -6.804  30.687   7.405  1.00  0.00     0.100 C 
HETATM   17  C   UNL     1      -6.531  31.905   8.232  1.00  0.00     0.024 C 
HETATM   18  C   UNL     1      -9.190  33.414  11.632  1.00  0.00     0.020 C 
HETATM   19  C   UNL     1      -7.629  31.157  10.383  1.00  0.00     0.120 C 
HETATM   20  C   UNL     1      -8.877  32.172  12.154  1.00  0.00     0.090 C 
ENDROOT
BRANCH   2  21
HETATM   21  O   UNL     1      -4.047  30.115   8.444  1.00  0.00    -0.360 OA
ATOM     22  HO  UNL     1      -4.021  30.825   7.812  1.00  0.00     0.213 HD
ENDBRANCH   2  21
BRANCH   2  23
HETATM   23  O   UNL     1      -4.667  28.963   6.615  1.00  0.00    -0.360 OA
ATOM     24  HO  UNL     1      -5.356  28.432   6.234  1.00  0.00     0.213 HD
ENDBRANCH   2  23
BRANCH  17  25
HETATM   25  N   UNL     1      -5.391  32.524   8.122  1.00  0.00    -0.401 N 
ATOM     26  HN2 UNL     1      -4.986  32.685   7.201  1.00  0.00     0.156 HD
ATOM     27  HN1 UNL     1      -4.812  32.539   8.962  1.00  0.00     0.156 HD
ENDBRANCH  17  25
BRANCH   4  28
HETATM   28  O   UNL     1      -7.130  34.366   8.779  1.00  0.00    -0.360 OA
ATOM     29  HO  UNL     1      -7.684  35.109   8.568  1.00  0.00     0.217 HD
ENDBRANCH   4  28
TORSDOF 4
ENDMDL
MODEL 5
REMARK VINA RESULT:      -6.9      3.929      7.454
REMARK  4 active torsions:
REMARK  status: ('A' for Active; 'I' for Inactive)
REMARK    1  A    between atoms: C_2  and  O_8 
REMARK    2  A    between atoms: C_2  and  O_10 
REMARK    3  A    between atoms: O_4  and  C_6 
REMARK    4  A    between atoms: N_12  and  C_26 
ROOT
HETATM    1  C   UNL     1      -9.823  32.953  13.279  1.00  0.00     0.046 C 
HETATM    2  C   UNL     1      -9.087  34.888  10.829  1.00  0.00     0.203 C 
HETATM    3  C   UNL     1      -8.273  33.804  11.498  1.00  0.00     0.015 C 
HETATM    4  C   UNL     1      -6.271  30.451   9.370  1.00  0.00     0.081 C 
HETATM    5  C   UNL     1      -7.098  31.320  10.080  1.00  0.00     0.063 C 
HETATM    6  N   UNL     1      -8.441  31.471  12.127  1.00  0.00    -0.341 N 
ATOM      7  HN  UNL     1      -8.393  30.918  12.983  1.00  0.00     0.167 HD
HETATM    8  C   UNL     1      -8.853  32.771  12.265  1.00  0.00     0.043 C 
HETATM    9  N   UNL     1     -10.443  35.273  12.876  1.00  0.00    -0.393 N 
ATOM     10  HN  UNL     1     -10.453  36.168  13.365  1.00  0.00     0.159 HD
HETATM   11  C   UNL     1     -10.444  35.252  11.419  1.00  0.00     0.192 C 
HETATM   12  C   UNL     1     -10.430  34.135  13.584  1.00  0.00     0.085 C 
HETATM   13  N   UNL     1      -8.641  29.623  10.803  1.00  0.00    -0.351 N 
ATOM     14  HN  UNL     1      -9.635  29.602  10.579  1.00  0.00     0.166 HD
HETATM   15  C   UNL     1      -6.137  29.088   9.540  1.00  0.00     0.039 C 
HETATM   16  C   UNL     1      -6.843  33.697  11.029  1.00  0.00     0.100 C 
HETATM   17  C   UNL     1      -6.833  32.738   9.879  1.00  0.00     0.024 C 
HETATM   18  C   UNL     1      -6.822  28.182  10.265  1.00  0.00     0.020 C 
HETATM   19  C   UNL     1      -8.085  30.829  10.964  1.00  0.00     0.120 C 
HETATM   20  C   UNL     1      -8.021  28.438  10.906  1.00  0.00     0.090 C 
ENDROOT
BRANCH   2  21
HETATM   21  O   UNL     1      -9.251  34.583   9.471  1.00  0.00    -0.360 OA
ATOM     22  HO  UNL     1      -9.780  35.254   9.054  1.00  0.00     0.213 HD
ENDBRANCH   2  21
BRANCH   2  23
HETATM   23  O   UNL     1      -8.399  36.091  10.904  1.00  0.00    -0.360 OA
ATOM     24  HO  UNL     1      -7.484  35.942  10.697  1.00  0.00     0.213 HD
ENDBRANCH   2  23
BRANCH  17  25
HETATM   25  N   UNL     1      -6.996  33.176   8.664  1.00  0.00    -0.401 N 
ATOM     26  HN2 UNL     1      -7.062  32.517   7.888  1.00  0.00     0.156 HD
ATOM     27  HN1 UNL     1      -6.736  34.150   8.506  1.00  0.00     0.156 HD
ENDBRANCH  17  25
BRANCH   4  28
HETATM   28  O   UNL     1      -5.492  31.047   8.444  1.00  0.00    -0.360 OA
ATOM     29  HO  UNL     1      -4.930  31.735   8.781  1.00  0.00     0.217 HD
ENDBRANCH   4  28
TORSDOF 4
ENDMDL
MODEL 6
REMARK VINA RESULT:      -6.8      2.472      3.597
REMARK  4 active torsions:
REMARK  status: ('A' for Active; 'I' for Inactive)
REMARK    1  A    between atoms: C_2  and  O_8 
REMARK    2  A    between atoms: C_2  and  O_10 
REMARK    3  A    between atoms: O_4  and  C_6 
REMARK    4  A    between atoms: N_12  and  C_26 
ROOT
HETATM    1  C   UNL     1      -3.682  32.986   8.380  1.00  0.00     0.046 C 
HETATM    2  C   UNL     1      -1.576  31.053   6.925  1.00  0.00     0.203 C 
HETATM    3  C   UNL     1      -2.443  30.817   8.141  1.00  0.00     0.015 C 
HETATM    4  C   UNL     1      -5.165  27.341   8.682  1.00  0.00     0.081 C 
HETATM    5  C   UNL     1      -4.538  28.561   8.428  1.00  0.00     0.063 C 
HETATM    6  N   UNL     1      -4.759  30.970   8.832  1.00  0.00    -0.341 N 
ATOM      7  HN  UNL     1      -5.302  31.467   9.539  1.00  0.00     0.167 HD
HETATM    8  C   UNL     1      -3.601  31.574   8.417  1.00  0.00     0.043 C 
HETATM    9  N   UNL     1      -1.573  33.513   7.280  1.00  0.00    -0.393 N 
ATOM     10  HN  UNL     1      -0.718  34.039   7.457  1.00  0.00     0.159 HD
HETATM   11  C   UNL     1      -1.564  32.440   6.294  1.00  0.00     0.192 C 
HETATM   12  C   UNL     1      -2.688  33.820   7.957  1.00  0.00     0.085 C 
HETATM   13  N   UNL     1      -6.573  29.797   8.095  1.00  0.00    -0.351 N 
ATOM     14  HN  UNL     1      -6.831  30.280   7.235  1.00  0.00     0.166 HD
HETATM   15  C   UNL     1      -6.458  27.134   9.118  1.00  0.00     0.039 C 
HETATM   16  C   UNL     1      -2.191  29.517   8.863  1.00  0.00     0.100 C 
HETATM   17  C   UNL     1      -3.094  28.494   8.248  1.00  0.00     0.024 C 
HETATM   18  C   UNL     1      -7.518  27.953   9.269  1.00  0.00     0.020 C 
HETATM   19  C   UNL     1      -5.272  29.768   8.403  1.00  0.00     0.120 C 
HETATM   20  C   UNL     1      -7.574  29.254   8.804  1.00  0.00     0.090 C 
ENDROOT
BRANCH   2  21
HETATM   21  O   UNL     1      -1.884  30.109   5.936  1.00  0.00    -0.360 OA
ATOM     22  HO  UNL     1      -2.298  29.353   6.335  1.00  0.00     0.213 HD
ENDBRANCH   2  21
BRANCH   2  23
HETATM   23  O   UNL     1      -0.244  30.873   7.270  1.00  0.00    -0.360 OA
ATOM     24  HO  UNL     1      -0.020  29.954   7.189  1.00  0.00     0.213 HD
ENDBRANCH   2  23
BRANCH  17  25
HETATM   25  N   UNL     1      -2.684  27.787   7.235  1.00  0.00    -0.401 N 
ATOM     26  HN2 UNL     1      -3.322  27.576   6.468  1.00  0.00     0.156 HD
ATOM     27  HN1 UNL     1      -1.853  27.218   7.399  1.00  0.00     0.156 HD
ENDBRANCH  17  25
BRANCH   4  28
HETATM   28  O   UNL     1      -4.379  26.258   8.513  1.00  0.00    -0.360 OA
ATOM     29  HO  UNL     1      -4.225  26.018   7.606  1.00  0.00     0.217 HD
ENDBRANCH   4  28
TORSDOF 4
ENDMDL
MODEL 7
REMARK VINA RESULT:      -6.6      1.762      2.122
REMARK  4 active torsions:
REMARK  status: ('A' for Active; 'I' for Inactive)
REMARK    1  A    between atoms: C_2  and  O_8 
REMARK    2  A    between atoms: C_2  and  O_10 
REMARK    3  A    between atoms: O_4  and  C_6 
REMARK    4  A    between atoms: N_12  and  C_26 
ROOT
HETATM    1  C   UNL     1      -3.490  32.990   7.926  1.00  0.00     0.046 C 
HETATM    2  C   UNL     1      -3.341  30.140   6.463  1.00  0.00     0.203 C 
HETATM    3  C   UNL     1      -3.631  30.485   7.907  1.00  0.00     0.015 C 
HETATM    4  C   UNL     1      -7.162  29.053  10.200  1.00  0.00     0.081 C 
HETATM    5  C   UNL     1      -6.206  29.727   9.441  1.00  0.00     0.063 C 
HETATM    6  N   UNL     1      -5.090  31.900   9.224  1.00  0.00    -0.341 N 
ATOM      7  HN  UNL     1      -4.992  32.656   9.903  1.00  0.00     0.167 HD
HETATM    8  C   UNL     1      -4.071  31.761   8.317  1.00  0.00     0.043 C 
HETATM    9  N   UNL     1      -2.045  32.232   6.118  1.00  0.00    -0.393 N 
ATOM     10  HN  UNL     1      -1.056  32.228   5.867  1.00  0.00     0.159 HD
HETATM   11  C   UNL     1      -2.944  31.260   5.510  1.00  0.00     0.192 C 
HETATM   12  C   UNL     1      -2.497  33.133   7.002  1.00  0.00     0.085 C 
HETATM   13  N   UNL     1      -7.361  31.837   9.444  1.00  0.00    -0.351 N 
ATOM     14  HN  UNL     1      -7.690  32.325   8.612  1.00  0.00     0.166 HD
HETATM   15  C   UNL     1      -8.093  29.601  11.060  1.00  0.00     0.039 C 
HETATM   16  C   UNL     1      -3.743  29.303   8.837  1.00  0.00     0.100 C 
HETATM   17  C   UNL     1      -5.181  28.885   8.840  1.00  0.00     0.024 C 
HETATM   18  C   UNL     1      -8.479  30.867  11.309  1.00  0.00     0.020 C 
HETATM   19  C   UNL     1      -6.228  31.135   9.321  1.00  0.00     0.120 C 
HETATM   20  C   UNL     1      -8.107  31.962  10.551  1.00  0.00     0.090 C 
ENDROOT
BRANCH   2  21
HETATM   21  O   UNL     1      -4.429  29.445   5.917  1.00  0.00    -0.360 OA
ATOM     22  HO  UNL     1      -4.670  29.834   5.085  1.00  0.00     0.213 HD
ENDBRANCH   2  21
BRANCH   2  23
HETATM   23  O   UNL     1      -2.239  29.298   6.406  1.00  0.00    -0.360 OA
ATOM     24  HO  UNL     1      -2.530  28.396   6.477  1.00  0.00     0.213 HD
ENDBRANCH   2  23
BRANCH  17  25
HETATM   25  N   UNL     1      -5.605  28.004   7.981  1.00  0.00    -0.401 N 
ATOM     26  HN2 UNL     1      -6.553  28.068   7.610  1.00  0.00     0.156 HD
ATOM     27  HN1 UNL     1      -5.090  27.124   7.958  1.00  0.00     0.156 HD
ENDBRANCH  17  25
BRANCH   4  28
HETATM   28  O   UNL     1      -7.122  27.710  10.092  1.00  0.00    -0.360 OA
ATOM     29  HO  UNL     1      -6.517  27.282  10.688  1.00  0.00     0.217 HD
ENDBRANCH   4  28
TORSDOF 4
ENDMDL
MODEL 8
REMARK VINA RESULT:      -6.6      2.736      5.711
REMARK  4 active torsions:
REMARK  status: ('A' for Active; 'I' for Inactive)
REMARK    1  A    between atoms: C_2  and  O_8 
REMARK    2  A    between atoms: C_2  and  O_10 
REMARK    3  A    between atoms: O_4  and  C_6 
REMARK    4  A    between atoms: N_12  and  C_26 
ROOT
HETATM    1  C   UNL     1      -5.675  29.314   7.704  1.00  0.00     0.046 C 
HETATM    2  C   UNL     1      -3.349  27.120   7.436  1.00  0.00     0.203 C 
HETATM    3  C   UNL     1      -3.563  28.416   6.686  1.00  0.00     0.015 C 
HETATM    4  C   UNL     1      -0.512  31.619   6.227  1.00  0.00     0.081 C 
HETATM    5  C   UNL     1      -1.560  30.769   6.578  1.00  0.00     0.063 C 
HETATM    6  N   UNL     1      -3.953  30.769   7.112  1.00  0.00    -0.341 N 
ATOM      7  HN  UNL     1      -4.671  31.463   6.899  1.00  0.00     0.167 HD
HETATM    8  C   UNL     1      -4.369  29.464   7.180  1.00  0.00     0.043 C 
HETATM    9  N   UNL     1      -5.773  26.891   7.934  1.00  0.00    -0.393 N 
ATOM     10  HN  UNL     1      -6.328  26.103   7.599  1.00  0.00     0.159 HD
HETATM   11  C   UNL     1      -4.418  26.660   8.418  1.00  0.00     0.192 C 
HETATM   12  C   UNL     1      -6.302  28.122   7.922  1.00  0.00     0.085 C 
HETATM   13  N   UNL     1      -2.594  32.307   8.109  1.00  0.00    -0.351 N 
ATOM     14  HN  UNL     1      -2.738  32.136   9.104  1.00  0.00     0.166 HD
HETATM   15  C   UNL     1      -0.474  32.995   6.326  1.00  0.00     0.039 C 
HETATM   16  C   UNL     1      -2.608  28.660   5.545  1.00  0.00     0.100 C 
HETATM   17  C   UNL     1      -1.433  29.396   6.109  1.00  0.00     0.024 C 
HETATM   18  C   UNL     1      -1.292  33.896   6.905  1.00  0.00     0.020 C 
HETATM   19  C   UNL     1      -2.678  31.247   7.297  1.00  0.00     0.120 C 
HETATM   20  C   UNL     1      -2.341  33.573   7.746  1.00  0.00     0.090 C 
ENDROOT
BRANCH   2  21
HETATM   21  O   UNL     1      -2.113  27.158   8.096  1.00  0.00    -0.360 OA
ATOM     22  HO  UNL     1      -1.941  28.041   8.402  1.00  0.00     0.213 HD
ENDBRANCH   2  21
BRANCH   2  23
HETATM   23  O   UNL     1      -3.305  26.070   6.531  1.00  0.00    -0.360 OA
ATOM     24  HO  UNL     1      -2.404  25.794   6.413  1.00  0.00     0.213 HD
ENDBRANCH   2  23
BRANCH  17  25
HETATM   25  N   UNL     1      -0.410  28.734   6.570  1.00  0.00    -0.401 N 
ATOM     26  HN2 UNL     1      -0.053  27.927   6.059  1.00  0.00     0.156 HD
ATOM     27  HN1 UNL     1      -0.214  28.856   7.563  1.00  0.00     0.156 HD
ENDBRANCH  17  25
BRANCH   4  28
HETATM   28  O   UNL     1       0.560  30.999   5.691  1.00  0.00    -0.360 OA
ATOM     29  HO  UNL     1       1.314  31.561   5.551  1.00  0.00     0.217 HD
ENDBRANCH   4  28
TORSDOF 4
ENDMDL
MODEL 9
REMARK VINA RESULT:      -6.5      2.801      5.061
REMARK  4 active torsions:
REMARK  status: ('A' for Active; 'I' for Inactive)
REMARK    1  A    between atoms: C_2  and  O_8 
REMARK    2  A    between atoms: C_2  and  O_10 
REMARK    3  A    between atoms: O_4  and  C_6 
REMARK    4  A    between atoms: N_12  and  C_26 
ROOT
HETATM    1  C   UNL     1      -8.127  29.229  11.086  1.00  0.00     0.046 C 
HETATM    2  C   UNL     1      -5.989  28.509   8.805  1.00  0.00     0.203 C 
HETATM    3  C   UNL     1      -6.989  29.640   8.887  1.00  0.00     0.015 C 
HETATM    4  C   UNL     1      -6.002  33.945   8.366  1.00  0.00     0.081 C 
HETATM    5  C   UNL     1      -6.291  32.651   8.797  1.00  0.00     0.063 C 
HETATM    6  N   UNL     1      -7.679  31.409  10.392  1.00  0.00    -0.341 N 
ATOM      7  HN  UNL     1      -8.530  31.693  10.879  1.00  0.00     0.167 HD
HETATM    8  C   UNL     1      -7.560  30.074  10.103  1.00  0.00     0.043 C 
HETATM    9  N   UNL     1      -7.355  27.060  10.292  1.00  0.00    -0.393 N 
ATOM     10  HN  UNL     1      -7.740  26.167   9.983  1.00  0.00     0.159 HD
HETATM   11  C   UNL     1      -6.007  27.438   9.889  1.00  0.00     0.192 C 
HETATM   12  C   UNL     1      -8.098  27.866  11.063  1.00  0.00     0.085 C 
HETATM   13  N   UNL     1      -6.513  33.230  11.120  1.00  0.00    -0.351 N 
ATOM     14  HN  UNL     1      -5.939  32.855  11.875  1.00  0.00     0.166 HD
HETATM   15  C   UNL     1      -6.308  35.132   9.001  1.00  0.00     0.039 C 
HETATM   16  C   UNL     1      -7.091  30.494   7.648  1.00  0.00     0.100 C 
HETATM   17  C   UNL     1      -6.100  31.606   7.801  1.00  0.00     0.024 C 
HETATM   18  C   UNL     1      -6.791  35.420  10.225  1.00  0.00     0.020 C 
HETATM   19  C   UNL     1      -6.780  32.407  10.100  1.00  0.00     0.120 C 
HETATM   20  C   UNL     1      -6.923  34.500  11.250  1.00  0.00     0.090 C 
ENDROOT
BRANCH   2  21
HETATM   21  O   UNL     1      -4.693  29.033   8.708  1.00  0.00    -0.360 OA
ATOM     22  HO  UNL     1      -4.148  28.665   9.394  1.00  0.00     0.213 HD
ENDBRANCH   2  21
BRANCH   2  23
HETATM   23  O   UNL     1      -6.227  27.770   7.655  1.00  0.00    -0.360 OA
ATOM     24  HO  UNL     1      -7.159  27.762   7.474  1.00  0.00     0.213 HD
ENDBRANCH   2  23
BRANCH  17  25
HETATM   25  N   UNL     1      -4.882  31.457   7.364  1.00  0.00    -0.401 N 
ATOM     26  HN2 UNL     1      -4.281  32.271   7.244  1.00  0.00     0.156 HD
ATOM     27  HN1 UNL     1      -4.693  30.585   6.869  1.00  0.00     0.156 HD
ENDBRANCH  17  25
BRANCH   4  28
HETATM   28  O   UNL     1      -5.390  34.016   7.166  1.00  0.00    -0.360 OA
ATOM     29  HO  UNL     1      -5.594  33.302   6.574  1.00  0.00     0.217 HD
ENDBRANCH   4  28
TORSDOF 4
ENDMDL
