MODEL 1
REMARK VINA RESULT:      -5.4      0.000      0.000
REMARK  0 active torsions:
REMARK  status: ('A' for Active; 'I' for Inactive)
ROOT
HETATM    1  C   UNL     1      -0.483  31.653  25.983  1.00  0.00     0.001 C 
HETATM    2  C   UNL     1      -1.199  32.818  25.828  1.00  0.00     0.012 C 
HETATM    3  C   UNL     1      -0.703  31.928  23.019  1.00  0.00     0.012 C 
HETATM    4  C   UNL     1      -1.372  35.943  24.010  1.00  0.00     0.001 C 
HETATM    5  C   UNL     1      -0.828  33.271  23.429  1.00  0.00    -0.026 C 
HETATM    6  C   UNL     1      -1.835  34.944  24.857  1.00  0.00     0.012 C 
HETATM    7  C   UNL     1      -0.222  30.650  25.074  1.00  0.00     0.000 C 
HETATM    8  C   UNL     1      -0.649  35.612  22.860  1.00  0.00     0.001 C 
HETATM    9  C   UNL     1      -0.465  30.782  23.701  1.00  0.00     0.001 C 
HETATM   10  C   UNL     1      -1.349  33.632  24.696  1.00  0.00    -0.026 C 
HETATM   11  C   UNL     1      -0.464  34.276  22.517  1.00  0.00     0.012 C 
ENDROOT
TORSDOF 0
ENDMDL
MODEL 2
REMARK VINA RESULT:      -5.2      1.107      3.986
REMARK  0 active torsions:
REMARK  status: ('A' for Active; 'I' for Inactive)
ROOT
HETATM    1  C   UNL     1      -1.652  33.997  24.441  1.00  0.00     0.001 C 
HETATM    2  C   UNL     1      -1.136  33.217  25.452  1.00  0.00     0.012 C 
HETATM    3  C   UNL     1       0.206  32.159  23.000  1.00  0.00     0.012 C 
HETATM    4  C   UNL     1      -0.343  29.826  26.436  1.00  0.00     0.001 C 
HETATM    5  C   UNL     1      -0.104  31.394  24.145  1.00  0.00    -0.026 C 
HETATM    6  C   UNL     1      -0.333  31.211  26.545  1.00  0.00     0.012 C 
HETATM    7  C   UNL     1      -1.208  34.175  23.149  1.00  0.00     0.000 C 
HETATM    8  C   UNL     1      -0.218  29.217  25.184  1.00  0.00     0.001 C 
HETATM    9  C   UNL     1      -0.234  33.360  22.557  1.00  0.00     0.001 C 
HETATM   10  C   UNL     1      -0.463  31.988  25.379  1.00  0.00    -0.026 C 
HETATM   11  C   UNL     1       0.003  29.997  24.052  1.00  0.00     0.012 C 
ENDROOT
TORSDOF 0
ENDMDL
MODEL 3
REMARK VINA RESULT:      -5.2      0.665      4.296
REMARK  0 active torsions:
REMARK  status: ('A' for Active; 'I' for Inactive)
ROOT
HETATM    1  C   UNL     1      -0.325  34.257  22.500  1.00  0.00     0.001 C 
HETATM    2  C   UNL     1      -0.493  32.894  22.597  1.00  0.00     0.012 C 
HETATM    3  C   UNL     1      -1.589  33.916  25.183  1.00  0.00     0.012 C 
HETATM    4  C   UNL     1      -0.084  30.029  24.770  1.00  0.00     0.001 C 
HETATM    5  C   UNL     1      -0.973  32.659  25.008  1.00  0.00    -0.026 C 
HETATM    6  C   UNL     1      -0.531  30.711  23.645  1.00  0.00     0.012 C 
HETATM    7  C   UNL     1      -0.891  35.271  23.242  1.00  0.00     0.000 C 
HETATM    8  C   UNL     1      -0.093  30.651  26.021  1.00  0.00     0.001 C 
HETATM    9  C   UNL     1      -1.591  35.045  24.435  1.00  0.00     0.001 C 
HETATM   10  C   UNL     1      -0.738  32.101  23.728  1.00  0.00    -0.026 C 
HETATM   11  C   UNL     1      -0.630  31.928  26.157  1.00  0.00     0.012 C 
ENDROOT
TORSDOF 0
ENDMDL
MODEL 4
REMARK VINA RESULT:      -5.0      1.027      2.591
REMARK  0 active torsions:
REMARK  status: ('A' for Active; 'I' for Inactive)
ROOT
HETATM    1  C   UNL     1      -0.185  29.660  24.456  1.00  0.00     0.001 C 
HETATM    2  C   UNL     1       0.150  30.748  23.683  1.00  0.00     0.012 C 
HETATM    3  C   UNL     1      -0.582  31.963  26.314  1.00  0.00     0.012 C 
HETATM    4  C   UNL     1      -0.855  34.088  22.714  1.00  0.00     0.001 C 
HETATM    5  C   UNL     1      -0.753  32.588  25.061  1.00  0.00    -0.026 C 
HETATM    6  C   UNL     1       0.005  32.999  22.801  1.00  0.00     0.012 C 
HETATM    7  C   UNL     1      -0.324  29.558  25.824  1.00  0.00     0.000 C 
HETATM    8  C   UNL     1      -1.656  34.441  23.804  1.00  0.00     0.001 C 
HETATM    9  C   UNL     1      -0.375  30.673  26.671  1.00  0.00     0.001 C 
HETATM   10  C   UNL     1      -0.130  32.108  23.883  1.00  0.00    -0.026 C 
HETATM   11  C   UNL     1      -1.532  33.756  25.008  1.00  0.00     0.012 C 
ENDROOT
TORSDOF 0
ENDMDL
MODEL 5
REMARK VINA RESULT:      -4.8      1.377      3.044
REMARK  0 active torsions:
REMARK  status: ('A' for Active; 'I' for Inactive)
ROOT
HETATM    1  C   UNL     1      -0.486  29.563  26.208  1.00  0.00     0.001 C 
HETATM    2  C   UNL     1       0.188  30.201  25.191  1.00  0.00     0.012 C 
HETATM    3  C   UNL     1      -1.158  32.438  26.644  1.00  0.00     0.012 C 
HETATM    4  C   UNL     1      -0.093  32.714  22.602  1.00  0.00     0.001 C 
HETATM    5  C   UNL     1      -0.872  32.429  25.263  1.00  0.00    -0.026 C 
HETATM    6  C   UNL     1       0.571  31.811  23.423  1.00  0.00     0.012 C 
HETATM    7  C   UNL     1      -1.040  30.080  27.359  1.00  0.00     0.000 C 
HETATM    8  C   UNL     1      -1.139  33.490  23.109  1.00  0.00     0.001 C 
HETATM    9  C   UNL     1      -1.217  31.454  27.571  1.00  0.00     0.001 C 
HETATM   10  C   UNL     1       0.017  31.495  24.678  1.00  0.00    -0.026 C 
HETATM   11  C   UNL     1      -1.462  33.422  24.462  1.00  0.00     0.012 C 
ENDROOT
TORSDOF 0
ENDMDL
MODEL 6
REMARK VINA RESULT:      -4.7      9.414     10.045
REMARK  0 active torsions:
REMARK  status: ('A' for Active; 'I' for Inactive)
ROOT
HETATM    1  C   UNL     1       9.049  34.554  26.585  1.00  0.00     0.001 C 
HETATM    2  C   UNL     1       9.203  35.251  27.763  1.00  0.00     0.012 C 
HETATM    3  C   UNL     1       6.735  33.632  28.229  1.00  0.00     0.012 C 
HETATM    4  C   UNL     1       7.475  37.221  30.260  1.00  0.00     0.001 C 
HETATM    5  C   UNL     1       6.990  34.897  28.799  1.00  0.00    -0.026 C 
HETATM    6  C   UNL     1       8.540  36.506  29.725  1.00  0.00     0.012 C 
HETATM    7  C   UNL     1       8.273  33.450  26.309  1.00  0.00     0.000 C 
HETATM    8  C   UNL     1       6.164  36.770  30.081  1.00  0.00     0.001 C 
HETATM    9  C   UNL     1       7.281  32.977  27.178  1.00  0.00     0.001 C 
HETATM   10  C   UNL     1       8.277  35.487  28.790  1.00  0.00    -0.026 C 
HETATM   11  C   UNL     1       5.928  35.557  29.439  1.00  0.00     0.012 C 
ENDROOT
TORSDOF 0
ENDMDL
MODEL 7
REMARK VINA RESULT:      -4.6      1.470      4.008
REMARK  0 active torsions:
REMARK  status: ('A' for Active; 'I' for Inactive)
ROOT
HETATM    1  C   UNL     1      -1.293  33.269  23.618  1.00  0.00     0.001 C 
HETATM    2  C   UNL     1      -1.301  33.226  24.994  1.00  0.00     0.012 C 
HETATM    3  C   UNL     1       0.680  31.118  24.243  1.00  0.00     0.012 C 
HETATM    4  C   UNL     1      -1.421  31.025  27.865  1.00  0.00     0.001 C 
HETATM    5  C   UNL     1      -0.134  31.087  25.394  1.00  0.00    -0.026 C 
HETATM    6  C   UNL     1      -1.253  32.236  27.204  1.00  0.00     0.012 C 
HETATM    7  C   UNL     1      -0.385  32.746  22.724  1.00  0.00     0.000 C 
HETATM    8  C   UNL     1      -0.934  29.842  27.303  1.00  0.00     0.001 C 
HETATM    9  C   UNL     1       0.611  31.832  23.094  1.00  0.00     0.001 C 
HETATM   10  C   UNL     1      -0.833  32.227  25.860  1.00  0.00    -0.026 C 
HETATM   11  C   UNL     1      -0.203  29.885  26.119  1.00  0.00     0.012 C 
ENDROOT
TORSDOF 0
ENDMDL
MODEL 8
REMARK VINA RESULT:      -4.6      1.348      4.613
REMARK  0 active torsions:
REMARK  status: ('A' for Active; 'I' for Inactive)
ROOT
HETATM    1  C   UNL     1       0.369  31.901  23.305  1.00  0.00     0.001 C 
HETATM    2  C   UNL     1       0.049  30.781  24.039  1.00  0.00     0.012 C 
HETATM    3  C   UNL     1      -1.364  32.984  25.481  1.00  0.00     0.012 C 
HETATM    4  C   UNL     1      -0.212  29.438  27.390  1.00  0.00     0.001 C 
HETATM    5  C   UNL     1      -0.857  31.817  26.089  1.00  0.00    -0.026 C 
HETATM    6  C   UNL     1      -0.388  29.445  26.011  1.00  0.00     0.012 C 
HETATM    7  C   UNL     1      -0.210  33.151  23.306  1.00  0.00     0.000 C 
HETATM    8  C   UNL     1      -0.372  30.614  28.127  1.00  0.00     0.001 C 
HETATM    9  C   UNL     1      -1.123  33.569  24.284  1.00  0.00     0.001 C 
HETATM   10  C   UNL     1      -0.465  30.681  25.340  1.00  0.00    -0.026 C 
HETATM   11  C   UNL     1      -0.792  31.779  27.492  1.00  0.00     0.012 C 
ENDROOT
TORSDOF 0
ENDMDL
MODEL 9
REMARK VINA RESULT:      -4.5      9.284     10.209
REMARK  0 active torsions:
REMARK  status: ('A' for Active; 'I' for Inactive)
ROOT
HETATM    1  C   UNL     1       5.476  36.051  29.676  1.00  0.00     0.001 C 
HETATM    2  C   UNL     1       5.812  34.833  29.128  1.00  0.00     0.012 C 
HETATM    3  C   UNL     1       8.458  36.145  29.579  1.00  0.00     0.012 C 
HETATM    4  C   UNL     1       7.893  33.192  26.663  1.00  0.00     0.001 C 
HETATM    5  C   UNL     1       8.179  35.226  28.547  1.00  0.00    -0.026 C 
HETATM    6  C   UNL     1       7.025  33.257  27.747  1.00  0.00     0.012 C 
HETATM    7  C   UNL     1       6.261  36.961  30.351  1.00  0.00     0.000 C 
HETATM    8  C   UNL     1       8.917  34.132  26.524  1.00  0.00     0.001 C 
HETATM    9  C   UNL     1       7.660  36.887  30.383  1.00  0.00     0.001 C 
HETATM   10  C   UNL     1       7.018  34.415  28.546  1.00  0.00    -0.026 C 
HETATM   11  C   UNL     1       9.123  35.087  27.515  1.00  0.00     0.012 C 
ENDROOT
TORSDOF 0
ENDMDL
