REMARK  2 active torsions:
REMARK  status: ('A' for Active; 'I' for Inactive)
REMARK    1  A    between atoms: C_2  and  O_13 
REMARK    2  A    between atoms: C_6  and  O_9 
ROOT
HETATM    1  C   UNL     1      -1.130  37.580  25.817  1.00  0.00     0.089 C 
HETATM    2  C   UNL     1      -0.732  33.053  24.663  1.00  0.00     0.126 C 
HETATM    3  C   UNL     1      -1.017  37.338  24.474  1.00  0.00     0.028 C 
HETATM    4  C   UNL     1      -1.166  35.390  25.602  1.00  0.00     0.020 C 
HETATM    5  C   UNL     1       0.091  33.801  23.607  1.00  0.00     0.068 C 
HETATM    6  C   UNL     1      -0.677  35.063  23.143  1.00  0.00     0.155 C 
HETATM    7  C   UNL     1      -0.867  35.960  24.344  1.00  0.00    -0.006 C 
HETATM    8  C   UNL     1      -1.110  33.912  25.876  1.00  0.00     0.089 C 
HETATM    9  N   UNL     1      -1.263  36.414  26.484  1.00  0.00    -0.369 N 
ATOM     10  HN  UNL     1      -1.412  36.319  27.489  1.00  0.00     0.165 HD
ENDROOT
BRANCH   2  11
HETATM   11  O   UNL     1       0.094  31.995  25.141  1.00  0.00    -0.395 OA
ATOM     12  HO  UNL     1      -0.416  31.532  25.795  1.00  0.00     0.210 HD
ENDBRANCH   2  11
BRANCH   6  13
HETATM   13  O   UNL     1       0.144  35.735  22.197  1.00  0.00    -0.391 OA
ATOM     14  HO  UNL     1      -0.327  36.509  21.912  1.00  0.00     0.210 HD
ENDBRANCH   6  13
TORSDOF 2
