REMARK  2 active torsions:
REMARK  status: ('A' for Active; 'I' for Inactive)
REMARK    1  A    between atoms: O_3  and  C_10 
REMARK    2  A    between atoms: C_8  and  O_17 
ROOT
HETATM    1  C   UNL     1       8.222  19.766  42.380  1.00  0.00     0.157 C 
HETATM    2  C   UNL     1      10.371  22.327  40.850  1.00  0.00     0.073 C 
HETATM    3  C   UNL     1       9.621  15.992  45.085  1.00  0.00     0.268 C 
HETATM    4  C   UNL     1      10.954  18.693  43.037  1.00  0.00     0.070 C 
HETATM    5  O   UNL     1       9.303  14.558  41.869  1.00  0.00    -0.265 OA
HETATM    6  C   UNL     1      11.649  21.948  41.273  1.00  0.00     0.068 C 
HETATM    7  O   UNL     1       9.452  15.572  46.211  1.00  0.00    -0.265 OA
HETATM    8  C   UNL     1       9.377  21.355  40.872  1.00  0.00     0.076 C 
HETATM    9  N   UNL     1       8.470  18.746  43.375  1.00  0.00    -0.407 N 
ATOM     10  HN  UNL     1       7.770  18.593  44.101  1.00  0.00     0.154 HD
HETATM   11  C   UNL     1      10.753  19.926  42.196  1.00  0.00    -0.043 C 
HETATM   12  C   UNL     1       9.511  16.859  42.326  1.00  0.00     0.143 C 
HETATM   13  C   UNL     1       9.483  15.427  42.708  1.00  0.00     0.268 C 
HETATM   14  C   UNL     1      11.848  20.708  41.875  1.00  0.00     0.044 C 
HETATM   15  C   UNL     1       9.871  17.440  44.808  1.00  0.00     0.143 C 
HETATM   16  C   UNL     1       9.481  20.330  41.803  1.00  0.00    -0.001 C 
HETATM   17  O   UNL     1       9.646  15.145  44.017  1.00  0.00    -0.245 OA
HETATM   18  C   UNL     1       9.674  17.928  43.386  1.00  0.00     0.047 C 
ENDROOT
BRANCH   6  19
HETATM   19  O   UNL     1      12.464  22.982  41.689  1.00  0.00    -0.361 OA
ATOM     20  HO  UNL     1      13.332  22.725  41.976  1.00  0.00     0.217 HD
ENDBRANCH   6  19
BRANCH   8  21
HETATM   21  O   UNL     1       8.209  21.521  40.209  1.00  0.00    -0.360 OA
ATOM     22  HO  UNL     1       7.530  20.857  40.224  1.00  0.00     0.217 HD
ENDBRANCH   8  21
TORSDOF 2
