REMARK  5 active torsions:
REMARK  status: ('A' for Active; 'I' for Inactive)
REMARK    1  A    between atoms: C_5  and  O_23 
REMARK    2  A    between atoms: C_8  and  O_38 
REMARK    3  A    between atoms: C_18  and  O_41 
REMARK    4  A    between atoms: C_22  and  C_36 
REMARK    5  A    between atoms: C_26  and  C_27 
ROOT
HETATM    1  C   UNL     1      17.217   9.899   7.920  1.00  0.00     0.148 C 
HETATM    2  C   UNL     1      18.180   9.809   9.104  1.00  0.00     0.040 C 
HETATM    3  C   UNL     1      19.320   4.634   8.215  1.00  0.00     0.098 C 
HETATM    4  O   UNL     1      15.329  11.295   8.224  1.00  0.00    -0.290 OA
HETATM    5  C   UNL     1      17.043   4.078   7.846  1.00  0.00     0.049 C 
HETATM    6  C   UNL     1      17.045   6.140   9.164  1.00  0.00     0.039 C 
HETATM    7  C   UNL     1      15.816  10.186   8.400  1.00  0.00     0.183 C 
HETATM    8  C   UNL     1      18.302   3.700   8.328  1.00  0.00     0.099 C 
HETATM    9  C   UNL     1      19.424   5.653   9.153  1.00  0.00     0.041 C 
HETATM   10  N   UNL     1      17.234   8.705   7.059  1.00  0.00    -0.401 N 
ATOM     11  HN  UNL     1      17.952   8.558   6.349  1.00  0.00     0.154 HD
HETATM   12  C   UNL     1      15.171   9.079   9.035  1.00  0.00     0.036 C 
HETATM   13  N   UNL     1      15.993   6.880   9.621  1.00  0.00    -0.357 N 
ATOM     14  HN  UNL     1      15.497   6.729  10.499  1.00  0.00     0.166 HD
HETATM   15  C   UNL     1      15.721   7.836   8.727  1.00  0.00     0.046 C 
HETATM   16  C   UNL     1      16.153   7.740   7.287  1.00  0.00     0.132 C 
HETATM   17  C   UNL     1      16.819   5.465   7.957  1.00  0.00    -0.026 C 
HETATM   18  C   UNL     1      18.321   6.268   9.694  1.00  0.00     0.033 C 
HETATM   19  C   UNL     1      16.395   6.321   6.819  1.00  0.00     0.072 C 
ENDROOT
BRANCH  12  20
HETATM   20  C   UNL     1      14.129   9.256   9.895  1.00  0.00     0.018 C 
HETATM   21  C   UNL     1      14.246   9.470  11.246  1.00  0.00     0.012 C 
BRANCH  21  22
HETATM   22  C   UNL     1      15.472   9.599  11.904  1.00  0.00    -0.034 C 
HETATM   23  C   UNL     1      16.077   8.499  12.508  1.00  0.00     0.014 C 
HETATM   24  C   UNL     1      17.383   8.572  12.958  1.00  0.00     0.033 C 
HETATM   25  C   UNL     1      18.095   9.762  12.829  1.00  0.00     0.061 C 
HETATM   26  N   UNL     1      19.464   9.829  12.970  1.00  0.00    -0.345 N 
HETATM   27  C   UNL     1      17.379  10.933  12.519  1.00  0.00     0.060 C 
HETATM   28  C   UNL     1      19.941  11.048  13.382  1.00  0.00     0.102 C 
HETATM   29  C   UNL     1      20.353   8.729  12.545  1.00  0.00     0.156 C 
HETATM   30  C   UNL     1      21.245  11.193  13.920  1.00  0.00     0.110 C 
HETATM   31  C   UNL     1      19.268  12.196  12.940  1.00  0.00     0.131 C 
HETATM   32  C   UNL     1      21.931  12.360  13.678  1.00  0.00     0.130 C 
HETATM   33  N   UNL     1      21.366  13.389  13.000  1.00  0.00    -0.329 N 
HETATM   34  C   UNL     1      20.071  13.334  12.515  1.00  0.00     0.274 C 
ATOM     35  HN  UNL     1      21.915  14.234  12.842  1.00  0.00     0.168 HD
HETATM   36  O   UNL     1      19.686  14.140  11.671  1.00  0.00    -0.266 OA
HETATM   37  N   UNL     1      17.940  12.149  12.726  1.00  0.00    -0.348 N 
ATOM     38  HN  UNL     1      17.376  12.999  12.720  1.00  0.00     0.166 HD
HETATM   39  C   UNL     1      16.107  10.827  11.959  1.00  0.00     0.043 C 
BRANCH  30  40
HETATM   40  O   UNL     1      21.813  10.209  14.651  1.00  0.00    -0.357 OA
ATOM     41  HO  UNL     1      21.339   9.403  14.818  1.00  0.00     0.217 HD
ENDBRANCH  30  40
ENDBRANCH  21  22
ENDBRANCH  12  20
BRANCH   8  42
HETATM   42  O   UNL     1      18.525   2.515   8.969  1.00  0.00    -0.358 OA
ATOM     43  HO  UNL     1      17.827   1.875   9.046  1.00  0.00     0.217 HD
ENDBRANCH   8  42
BRANCH   3  44
HETATM   44  O   UNL     1      20.123   4.606   7.137  1.00  0.00    -0.358 OA
ATOM     45  HO  UNL     1      20.821   5.246   7.060  1.00  0.00     0.217 HD
ENDBRANCH   3  44
TORSDOF 5
