MODEL 1
REMARK VINA RESULT:     -10.0      0.000      0.000
REMARK  6 active torsions:
REMARK  status: ('A' for Active; 'I' for Inactive)
REMARK    1  A    between atoms: C_3  and  O_21 
REMARK    2  A    between atoms: C_5  and  C_14 
REMARK    3  A    between atoms: C_5  and  C_29 
REMARK    4  A    between atoms: C_5  and  C_32 
REMARK    5  A    between atoms: O_17  and  C_32 
REMARK    6  A    between atoms: C_23  and  N_35 
ROOT
HETATM    1  C   UNL     1      15.111   2.216  -2.651  1.00  0.00     0.156 C 
HETATM    2  O   UNL     1      16.510   2.282  -0.755  1.00  0.00    -0.352 OA
HETATM    3  C   UNL     1      17.095   2.304  -4.177  1.00  0.00     0.040 C 
HETATM    4  C   UNL     1      16.449   1.587  -3.015  1.00  0.00     0.074 C 
HETATM    5  C   UNL     1      15.133   2.170  -1.122  1.00  0.00     0.160 C 
HETATM    6  C   UNL     1      17.221   1.505  -1.717  1.00  0.00     0.267 C 
HETATM    7  C   UNL     1      18.604   2.372  -4.119  1.00  0.00     0.115 C 
HETATM    8  C   UNL     1      19.163   1.400  -3.093  1.00  0.00     0.196 C 
HETATM    9  O   UNL     1      18.597   1.838  -1.842  1.00  0.00    -0.359 OA
ENDROOT
BRANCH   5  10
HETATM   10  C   UNL     1      14.368   3.393  -0.642  1.00  0.00     0.049 C 
BRANCH  10  11
HETATM   11  C   UNL     1      14.741   4.691  -1.336  1.00  0.00     0.028 C 
HETATM   12  C   UNL     1      15.356   5.697  -0.410  1.00  0.00    -0.047 C 
HETATM   13  C   UNL     1      16.576   5.577   0.197  1.00  0.00     0.008 C 
HETATM   14  C   UNL     1      14.548   6.812  -0.370  1.00  0.00    -0.051 C 
HETATM   15  C   UNL     1      17.099   6.388   1.170  1.00  0.00     0.001 C 
HETATM   16  C   UNL     1      16.514   7.376   1.925  1.00  0.00     0.000 C 
HETATM   17  C   UNL     1      15.283   7.924   1.722  1.00  0.00     0.001 C 
HETATM   18  C   UNL     1      14.451   7.721   0.657  1.00  0.00     0.007 C 
HETATM   19  C   UNL     1      13.678   6.857  -1.600  1.00  0.00     0.040 C 
HETATM   20  C   UNL     1      13.568   5.398  -2.016  1.00  0.00     0.014 C 
ENDBRANCH  10  11
BRANCH  10  21
HETATM   21  C   UNL     1      12.871   3.197  -0.493  1.00  0.00     0.172 C 
BRANCH  21  22
HETATM   22  O   UNL     1      12.648   1.993   0.243  1.00  0.00    -0.400 OA
ATOM     23  HO  UNL     1      12.155   1.396  -0.306  1.00  0.00     0.209 HD
ENDBRANCH  21  22
ENDBRANCH  10  21
ENDBRANCH   5  10
BRANCH   1  24
HETATM   24  O   UNL     1      13.997   1.491  -3.136  1.00  0.00    -0.392 OA
ATOM     25  HO  UNL     1      14.085   1.225  -4.044  1.00  0.00     0.210 HD
ENDBRANCH   1  24
BRANCH   7  26
HETATM   26  N   UNL     1      19.232   2.396  -5.442  1.00  0.00    -0.334 N 
HETATM   27  C   UNL     1      18.616   2.273  -6.632  1.00  0.00     0.184 C 
HETATM   28  N   UNL     1      19.535   2.035  -7.571  1.00  0.00    -0.350 N 
HETATM   29  C   UNL     1      20.758   2.260  -7.027  1.00  0.00     0.060 C 
ATOM     30  HN  UNL     1      19.351   1.737  -8.529  1.00  0.00     0.166 HD
HETATM   31  C   UNL     1      22.055   2.138  -7.529  1.00  0.00     0.032 C 
HETATM   32  C   UNL     1      20.553   2.615  -5.701  1.00  0.00     0.062 C 
HETATM   33  C   UNL     1      23.129   2.373  -6.683  1.00  0.00     0.002 C 
HETATM   34  C   UNL     1      22.911   2.857  -5.402  1.00  0.00     0.002 C 
HETATM   35  C   UNL     1      21.626   3.011  -4.909  1.00  0.00     0.032 C 
ENDBRANCH   7  26
TORSDOF 6
ENDMDL
MODEL 2
REMARK VINA RESULT:      -9.7      3.585      8.323
REMARK  6 active torsions:
REMARK  status: ('A' for Active; 'I' for Inactive)
REMARK    1  A    between atoms: C_3  and  O_21 
REMARK    2  A    between atoms: C_5  and  C_14 
REMARK    3  A    between atoms: C_5  and  C_29 
REMARK    4  A    between atoms: C_5  and  C_32 
REMARK    5  A    between atoms: O_17  and  C_32 
REMARK    6  A    between atoms: C_23  and  N_35 
ROOT
HETATM    1  C   UNL     1      16.576   2.410  -2.339  1.00  0.00     0.156 C 
HETATM    2  O   UNL     1      14.224   2.314  -2.465  1.00  0.00    -0.352 OA
HETATM    3  C   UNL     1      16.460   4.397  -0.818  1.00  0.00     0.040 C 
HETATM    4  C   UNL     1      15.998   2.977  -1.049  1.00  0.00     0.074 C 
HETATM    5  C   UNL     1      15.394   1.623  -2.908  1.00  0.00     0.160 C 
HETATM    6  C   UNL     1      14.510   2.721  -1.129  1.00  0.00     0.267 C 
HETATM    7  C   UNL     1      15.441   5.293  -0.151  1.00  0.00     0.115 C 
HETATM    8  C   UNL     1      14.309   4.484   0.461  1.00  0.00     0.196 C 
HETATM    9  O   UNL     1      13.713   3.800  -0.659  1.00  0.00    -0.359 OA
ENDROOT
BRANCH   5  10
HETATM   10  C   UNL     1      15.506   1.711  -4.422  1.00  0.00     0.049 C 
BRANCH  10  11
HETATM   11  C   UNL     1      15.091   3.044  -5.015  1.00  0.00     0.028 C 
HETATM   12  C   UNL     1      13.895   2.941  -5.915  1.00  0.00    -0.047 C 
HETATM   13  C   UNL     1      12.624   2.632  -5.515  1.00  0.00     0.008 C 
HETATM   14  C   UNL     1      14.263   3.328  -7.185  1.00  0.00    -0.051 C 
HETATM   15  C   UNL     1      11.545   2.368  -6.318  1.00  0.00     0.001 C 
HETATM   16  C   UNL     1      11.468   2.146  -7.672  1.00  0.00     0.000 C 
HETATM   17  C   UNL     1      12.464   2.346  -8.581  1.00  0.00     0.001 C 
HETATM   18  C   UNL     1      13.675   2.942  -8.365  1.00  0.00     0.007 C 
HETATM   19  C   UNL     1      15.503   4.184  -7.118  1.00  0.00     0.040 C 
HETATM   20  C   UNL     1      16.182   3.733  -5.835  1.00  0.00     0.014 C 
ENDBRANCH  10  11
BRANCH  10  21
HETATM   21  C   UNL     1      16.798   1.166  -5.003  1.00  0.00     0.172 C 
BRANCH  21  22
HETATM   22  O   UNL     1      16.481   0.041  -5.823  1.00  0.00    -0.400 OA
ATOM     23  HO  UNL     1      17.227  -0.546  -5.825  1.00  0.00     0.209 HD
ENDBRANCH  21  22
ENDBRANCH  10  21
ENDBRANCH   5  10
BRANCH   1  24
HETATM   24  O   UNL     1      17.674   1.544  -2.132  1.00  0.00    -0.392 OA
ATOM     25  HO  UNL     1      18.375   1.936  -1.625  1.00  0.00     0.210 HD
ENDBRANCH   1  24
BRANCH   7  26
HETATM   26  N   UNL     1      16.046   6.343   0.672  1.00  0.00    -0.334 N 
HETATM   27  C   UNL     1      17.333   6.431   1.051  1.00  0.00     0.184 C 
HETATM   28  N   UNL     1      17.434   7.335   2.030  1.00  0.00    -0.350 N 
HETATM   29  C   UNL     1      16.257   8.008   2.101  1.00  0.00     0.060 C 
ATOM     30  HN  UNL     1      18.250   7.491   2.620  1.00  0.00     0.166 HD
HETATM   31  C   UNL     1      15.794   9.019   2.945  1.00  0.00     0.032 C 
HETATM   32  C   UNL     1      15.416   7.457   1.144  1.00  0.00     0.062 C 
HETATM   33  C   UNL     1      14.484   9.458   2.814  1.00  0.00     0.002 C 
HETATM   34  C   UNL     1      13.699   8.997   1.768  1.00  0.00     0.002 C 
HETATM   35  C   UNL     1      14.164   8.016   0.908  1.00  0.00     0.032 C 
ENDBRANCH   7  26
TORSDOF 6
ENDMDL
MODEL 3
REMARK VINA RESULT:      -9.4      2.523      8.497
REMARK  6 active torsions:
REMARK  status: ('A' for Active; 'I' for Inactive)
REMARK    1  A    between atoms: C_3  and  O_21 
REMARK    2  A    between atoms: C_5  and  C_14 
REMARK    3  A    between atoms: C_5  and  C_29 
REMARK    4  A    between atoms: C_5  and  C_32 
REMARK    5  A    between atoms: O_17  and  C_32 
REMARK    6  A    between atoms: C_23  and  N_35 
ROOT
HETATM    1  C   UNL     1      18.334   2.340  -2.238  1.00  0.00     0.156 C 
HETATM    2  O   UNL     1      16.963   1.406  -3.912  1.00  0.00    -0.352 OA
HETATM    3  C   UNL     1      16.566   4.017  -1.660  1.00  0.00     0.040 C 
HETATM    4  C   UNL     1      16.878   2.551  -1.845  1.00  0.00     0.074 C 
HETATM    5  C   UNL     1      18.233   1.226  -3.282  1.00  0.00     0.160 C 
HETATM    6  C   UNL     1      16.071   1.779  -2.865  1.00  0.00     0.267 C 
HETATM    7  C   UNL     1      15.170   4.424  -2.073  1.00  0.00     0.115 C 
HETATM    8  C   UNL     1      14.270   3.213  -2.251  1.00  0.00     0.196 C 
HETATM    9  O   UNL     1      14.898   2.453  -3.302  1.00  0.00    -0.359 OA
ENDROOT
BRANCH   5  10
HETATM   10  C   UNL     1      19.350   1.472  -4.284  1.00  0.00     0.049 C 
BRANCH  10  11
HETATM   11  C   UNL     1      20.751   1.270  -3.738  1.00  0.00     0.028 C 
HETATM   12  C   UNL     1      21.797   2.018  -4.511  1.00  0.00    -0.047 C 
HETATM   13  C   UNL     1      21.925   3.379  -4.563  1.00  0.00     0.008 C 
HETATM   14  C   UNL     1      22.676   1.110  -5.058  1.00  0.00    -0.051 C 
HETATM   15  C   UNL     1      22.755   4.102  -5.379  1.00  0.00     0.001 C 
HETATM   16  C   UNL     1      23.506   3.714  -6.463  1.00  0.00     0.000 C 
HETATM   17  C   UNL     1      23.756   2.434  -6.856  1.00  0.00     0.001 C 
HETATM   18  C   UNL     1      23.446   1.285  -6.183  1.00  0.00     0.007 C 
HETATM   19  C   UNL     1      22.611  -0.187  -4.293  1.00  0.00     0.040 C 
HETATM   20  C   UNL     1      21.208  -0.188  -3.705  1.00  0.00     0.014 C 
ENDBRANCH  10  11
BRANCH  10  21
HETATM   21  C   UNL     1      19.137   0.845  -5.650  1.00  0.00     0.172 C 
BRANCH  21  22
HETATM   22  O   UNL     1      18.329  -0.321  -5.487  1.00  0.00    -0.400 OA
ATOM     23  HO  UNL     1      18.795  -0.930  -4.927  1.00  0.00     0.209 HD
ENDBRANCH  21  22
ENDBRANCH  10  21
ENDBRANCH   5  10
BRANCH   1  24
HETATM   24  O   UNL     1      19.152   1.918  -1.164  1.00  0.00    -0.392 OA
ATOM     25  HO  UNL     1      18.710   1.336  -0.557  1.00  0.00     0.210 HD
ENDBRANCH   1  24
BRANCH   7  26
HETATM   26  N   UNL     1      14.644   5.551  -1.300  1.00  0.00    -0.334 N 
HETATM   27  C   UNL     1      13.538   6.269  -1.566  1.00  0.00     0.184 C 
HETATM   28  N   UNL     1      13.559   7.384  -0.830  1.00  0.00    -0.350 N 
HETATM   29  C   UNL     1      14.546   7.258   0.093  1.00  0.00     0.060 C 
ATOM     30  HN  UNL     1      12.942   8.188  -0.942  1.00  0.00     0.166 HD
HETATM   31  C   UNL     1      15.032   8.114   1.083  1.00  0.00     0.032 C 
HETATM   32  C   UNL     1      15.154   6.030  -0.128  1.00  0.00     0.062 C 
HETATM   33  C   UNL     1      16.129   7.719   1.835  1.00  0.00     0.002 C 
HETATM   34  C   UNL     1      16.641   6.438   1.697  1.00  0.00     0.002 C 
HETATM   35  C   UNL     1      16.142   5.572   0.737  1.00  0.00     0.032 C 
ENDBRANCH   7  26
TORSDOF 6
ENDMDL
MODEL 4
REMARK VINA RESULT:      -9.2      4.315      8.394
REMARK  6 active torsions:
REMARK  status: ('A' for Active; 'I' for Inactive)
REMARK    1  A    between atoms: C_3  and  O_21 
REMARK    2  A    between atoms: C_5  and  C_14 
REMARK    3  A    between atoms: C_5  and  C_29 
REMARK    4  A    between atoms: C_5  and  C_32 
REMARK    5  A    between atoms: O_17  and  C_32 
REMARK    6  A    between atoms: C_23  and  N_35 
ROOT
HETATM    1  C   UNL     1      14.471   3.786  -4.184  1.00  0.00     0.156 C 
HETATM    2  O   UNL     1      12.581   2.849  -3.134  1.00  0.00    -0.352 OA
HETATM    3  C   UNL     1      15.182   4.874  -2.043  1.00  0.00     0.040 C 
HETATM    4  C   UNL     1      14.791   3.576  -2.710  1.00  0.00     0.074 C 
HETATM    5  C   UNL     1      13.262   2.872  -4.390  1.00  0.00     0.160 C 
HETATM    6  C   UNL     1      13.610   2.817  -2.147  1.00  0.00     0.267 C 
HETATM    7  C   UNL     1      14.742   5.001  -0.602  1.00  0.00     0.115 C 
HETATM    8  C   UNL     1      14.316   3.658  -0.033  1.00  0.00     0.196 C 
HETATM    9  O   UNL     1      13.204   3.257  -0.858  1.00  0.00    -0.359 OA
ENDROOT
BRANCH   5  10
HETATM   10  C   UNL     1      12.389   3.541  -5.440  1.00  0.00     0.049 C 
BRANCH  10  11
HETATM   11  C   UNL     1      12.528   2.972  -6.840  1.00  0.00     0.028 C 
HETATM   12  C   UNL     1      13.041   1.562  -6.854  1.00  0.00    -0.047 C 
HETATM   13  C   UNL     1      12.368   0.467  -6.388  1.00  0.00     0.008 C 
HETATM   14  C   UNL     1      14.245   1.537  -7.523  1.00  0.00    -0.051 C 
HETATM   15  C   UNL     1      12.861  -0.803  -6.232  1.00  0.00     0.001 C 
HETATM   16  C   UNL     1      14.148  -1.279  -6.296  1.00  0.00     0.000 C 
HETATM   17  C   UNL     1      15.239  -0.598  -6.746  1.00  0.00     0.001 C 
HETATM   18  C   UNL     1      15.259   0.624  -7.358  1.00  0.00     0.007 C 
HETATM   19  C   UNL     1      14.355   2.743  -8.421  1.00  0.00     0.040 C 
HETATM   20  C   UNL     1      13.456   3.772  -7.754  1.00  0.00     0.014 C 
ENDBRANCH  10  11
BRANCH  10  21
HETATM   21  C   UNL     1      10.949   3.777  -5.024  1.00  0.00     0.172 C 
BRANCH  21  22
HETATM   22  O   UNL     1      10.921   4.876  -4.111  1.00  0.00    -0.400 OA
ATOM     23  HO  UNL     1      10.051   4.929  -3.736  1.00  0.00     0.209 HD
ENDBRANCH  21  22
ENDBRANCH  10  21
ENDBRANCH   5  10
BRANCH   1  24
HETATM   24  O   UNL     1      15.520   3.396  -5.050  1.00  0.00    -0.392 OA
ATOM     25  HO  UNL     1      16.229   4.027  -5.093  1.00  0.00     0.210 HD
ENDBRANCH   1  24
BRANCH   7  26
HETATM   26  N   UNL     1      15.644   5.824   0.206  1.00  0.00    -0.334 N 
HETATM   27  C   UNL     1      16.945   5.592   0.456  1.00  0.00     0.184 C 
HETATM   28  N   UNL     1      17.338   6.376   1.464  1.00  0.00    -0.350 N 
HETATM   29  C   UNL     1      16.361   7.291   1.688  1.00  0.00     0.060 C 
ATOM     30  HN  UNL     1      18.218   6.300   1.975  1.00  0.00     0.166 HD
HETATM   31  C   UNL     1      16.222   8.317   2.624  1.00  0.00     0.032 C 
HETATM   32  C   UNL     1      15.334   7.015   0.796  1.00  0.00     0.062 C 
HETATM   33  C   UNL     1      15.043   9.050   2.649  1.00  0.00     0.002 C 
HETATM   34  C   UNL     1      14.084   8.855   1.668  1.00  0.00     0.002 C 
HETATM   35  C   UNL     1      14.231   7.859   0.716  1.00  0.00     0.032 C 
ENDBRANCH   7  26
TORSDOF 6
ENDMDL
MODEL 5
REMARK VINA RESULT:      -8.9      2.605      8.359
REMARK  6 active torsions:
REMARK  status: ('A' for Active; 'I' for Inactive)
REMARK    1  A    between atoms: C_3  and  O_21 
REMARK    2  A    between atoms: C_5  and  C_14 
REMARK    3  A    between atoms: C_5  and  C_29 
REMARK    4  A    between atoms: C_5  and  C_32 
REMARK    5  A    between atoms: O_17  and  C_32 
REMARK    6  A    between atoms: C_23  and  N_35 
ROOT
HETATM    1  C   UNL     1      17.720   2.154  -2.800  1.00  0.00     0.156 C 
HETATM    2  O   UNL     1      16.117   1.305  -4.305  1.00  0.00    -0.352 OA
HETATM    3  C   UNL     1      16.135   3.940  -2.045  1.00  0.00     0.040 C 
HETATM    4  C   UNL     1      16.332   2.457  -2.251  1.00  0.00     0.074 C 
HETATM    5  C   UNL     1      17.435   1.047  -3.817  1.00  0.00     0.160 C 
HETATM    6  C   UNL     1      15.371   1.735  -3.168  1.00  0.00     0.267 C 
HETATM    7  C   UNL     1      14.729   4.433  -2.306  1.00  0.00     0.115 C 
HETATM    8  C   UNL     1      13.742   3.280  -2.372  1.00  0.00     0.196 C 
HETATM    9  O   UNL     1      14.202   2.480  -3.479  1.00  0.00    -0.359 OA
ENDROOT
BRANCH   5  10
HETATM   10  C   UNL     1      18.447   1.221  -4.938  1.00  0.00     0.049 C 
BRANCH  10  11
HETATM   11  C   UNL     1      19.667   0.323  -4.841  1.00  0.00     0.028 C 
HETATM   12  C   UNL     1      20.960   1.080  -4.898  1.00  0.00    -0.047 C 
HETATM   13  C   UNL     1      21.418   1.943  -3.940  1.00  0.00     0.008 C 
HETATM   14  C   UNL     1      21.664   0.670  -6.009  1.00  0.00    -0.051 C 
HETATM   15  C   UNL     1      22.506   2.773  -4.027  1.00  0.00     0.001 C 
HETATM   16  C   UNL     1      23.288   3.118  -5.103  1.00  0.00     0.000 C 
HETATM   17  C   UNL     1      23.275   2.528  -6.332  1.00  0.00     0.001 C 
HETATM   18  C   UNL     1      22.605   1.395  -6.700  1.00  0.00     0.007 C 
HETATM   19  C   UNL     1      21.180  -0.689  -6.446  1.00  0.00     0.040 C 
HETATM   20  C   UNL     1      19.750  -0.744  -5.932  1.00  0.00     0.014 C 
ENDBRANCH  10  11
BRANCH  10  21
HETATM   21  C   UNL     1      17.855   1.286  -6.334  1.00  0.00     0.172 C 
BRANCH  21  22
HETATM   22  O   UNL     1      17.576   2.652  -6.640  1.00  0.00    -0.400 OA
ATOM     23  HO  UNL     1      17.605   3.150  -5.832  1.00  0.00     0.209 HD
ENDBRANCH  21  22
ENDBRANCH  10  21
ENDBRANCH   5  10
BRANCH   1  24
HETATM   24  O   UNL     1      18.625   1.684  -1.820  1.00  0.00    -0.392 OA
ATOM     25  HO  UNL     1      18.197   1.294  -1.066  1.00  0.00     0.210 HD
ENDBRANCH   1  24
BRANCH   7  26
HETATM   26  N   UNL     1      14.363   5.592  -1.488  1.00  0.00    -0.334 N 
HETATM   27  C   UNL     1      13.347   6.446  -1.706  1.00  0.00     0.184 C 
HETATM   28  N   UNL     1      13.521   7.528  -0.941  1.00  0.00    -0.350 N 
HETATM   29  C   UNL     1      14.507   7.256  -0.049  1.00  0.00     0.060 C 
ATOM     30  HN  UNL     1      13.005   8.404  -1.015  1.00  0.00     0.166 HD
HETATM   31  C   UNL     1      15.116   8.016   0.951  1.00  0.00     0.032 C 
HETATM   32  C   UNL     1      14.955   5.970  -0.318  1.00  0.00     0.062 C 
HETATM   33  C   UNL     1      16.174   7.469   1.663  1.00  0.00     0.002 C 
HETATM   34  C   UNL     1      16.521   6.140   1.477  1.00  0.00     0.002 C 
HETATM   35  C   UNL     1      15.899   5.370   0.508  1.00  0.00     0.032 C 
ENDBRANCH   7  26
TORSDOF 6
ENDMDL
MODEL 6
REMARK VINA RESULT:      -8.6      4.043      8.648
REMARK  6 active torsions:
REMARK  status: ('A' for Active; 'I' for Inactive)
REMARK    1  A    between atoms: C_3  and  O_21 
REMARK    2  A    between atoms: C_5  and  C_14 
REMARK    3  A    between atoms: C_5  and  C_29 
REMARK    4  A    between atoms: C_5  and  C_32 
REMARK    5  A    between atoms: O_17  and  C_32 
REMARK    6  A    between atoms: C_23  and  N_35 
ROOT
HETATM    1  C   UNL     1      14.695   2.902  -1.120  1.00  0.00     0.156 C 
HETATM    2  O   UNL     1      13.584   4.075  -2.836  1.00  0.00    -0.352 OA
HETATM    3  C   UNL     1      15.367   5.050  -0.022  1.00  0.00     0.040 C 
HETATM    4  C   UNL     1      14.216   4.236  -0.563  1.00  0.00     0.074 C 
HETATM    5  C   UNL     1      13.838   2.746  -2.378  1.00  0.00     0.160 C 
HETATM    6  C   UNL     1      13.369   4.847  -1.657  1.00  0.00     0.267 C 
HETATM    7  C   UNL     1      15.227   6.545  -0.207  1.00  0.00     0.115 C 
HETATM    8  C   UNL     1      13.803   6.925  -0.576  1.00  0.00     0.196 C 
HETATM    9  O   UNL     1      13.564   6.245  -1.824  1.00  0.00    -0.359 OA
ENDROOT
BRANCH   5  10
HETATM   10  C   UNL     1      14.691   2.001  -3.392  1.00  0.00     0.049 C 
BRANCH  10  11
HETATM   11  C   UNL     1      13.914   1.132  -4.363  1.00  0.00     0.028 C 
HETATM   12  C   UNL     1      13.994   1.617  -5.780  1.00  0.00    -0.047 C 
HETATM   13  C   UNL     1      15.120   1.618  -6.557  1.00  0.00     0.008 C 
HETATM   14  C   UNL     1      12.726   1.944  -6.208  1.00  0.00    -0.051 C 
HETATM   15  C   UNL     1      15.274   2.198  -7.789  1.00  0.00     0.001 C 
HETATM   16  C   UNL     1      14.465   3.071  -8.477  1.00  0.00     0.000 C 
HETATM   17  C   UNL     1      13.184   3.407  -8.157  1.00  0.00     0.001 C 
HETATM   18  C   UNL     1      12.396   2.844  -7.192  1.00  0.00     0.007 C 
HETATM   19  C   UNL     1      11.702   1.234  -5.358  1.00  0.00     0.040 C 
HETATM   20  C   UNL     1      12.425   1.007  -4.039  1.00  0.00     0.014 C 
ENDBRANCH  10  11
BRANCH  10  21
HETATM   21  C   UNL     1      15.772   2.833  -4.057  1.00  0.00     0.172 C 
BRANCH  21  22
HETATM   22  O   UNL     1      17.043   2.320  -3.656  1.00  0.00    -0.400 OA
ATOM     23  HO  UNL     1      17.649   2.427  -4.379  1.00  0.00     0.209 HD
ENDBRANCH  21  22
ENDBRANCH  10  21
ENDBRANCH   5  10
BRANCH   1  24
HETATM   24  O   UNL     1      14.469   1.813  -0.247  1.00  0.00    -0.392 OA
ATOM     25  HO  UNL     1      14.535   2.044   0.672  1.00  0.00     0.210 HD
ENDBRANCH   1  24
BRANCH   7  26
HETATM   26  N   UNL     1      15.885   7.321   0.846  1.00  0.00    -0.334 N 
HETATM   27  C   UNL     1      17.180   7.264   1.204  1.00  0.00     0.184 C 
HETATM   28  N   UNL     1      17.330   7.875   2.382  1.00  0.00    -0.350 N 
HETATM   29  C   UNL     1      16.182   8.545   2.656  1.00  0.00     0.060 C 
ATOM     30  HN  UNL     1      18.161   7.844   2.973  1.00  0.00     0.166 HD
HETATM   31  C   UNL     1      15.771   9.315   3.745  1.00  0.00     0.032 C 
HETATM   32  C   UNL     1      15.306   8.293   1.609  1.00  0.00     0.062 C 
HETATM   33  C   UNL     1      14.478   9.817   3.765  1.00  0.00     0.002 C 
HETATM   34  C   UNL     1      13.660   9.672   2.656  1.00  0.00     0.002 C 
HETATM   35  C   UNL     1      14.074   8.936   1.557  1.00  0.00     0.032 C 
ENDBRANCH   7  26
TORSDOF 6
ENDMDL
MODEL 7
REMARK VINA RESULT:      -8.4      3.780      7.992
REMARK  6 active torsions:
REMARK  status: ('A' for Active; 'I' for Inactive)
REMARK    1  A    between atoms: C_3  and  O_21 
REMARK    2  A    between atoms: C_5  and  C_14 
REMARK    3  A    between atoms: C_5  and  C_29 
REMARK    4  A    between atoms: C_5  and  C_32 
REMARK    5  A    between atoms: O_17  and  C_32 
REMARK    6  A    between atoms: C_23  and  N_35 
ROOT
HETATM    1  C   UNL     1      16.762   2.956  -5.133  1.00  0.00     0.156 C 
HETATM    2  O   UNL     1      15.694   0.986  -4.401  1.00  0.00    -0.352 OA
HETATM    3  C   UNL     1      15.633   4.291  -3.340  1.00  0.00     0.040 C 
HETATM    4  C   UNL     1      16.485   3.081  -3.641  1.00  0.00     0.074 C 
HETATM    5  C   UNL     1      16.646   1.447  -5.362  1.00  0.00     0.160 C 
HETATM    6  C   UNL     1      15.968   1.726  -3.213  1.00  0.00     0.267 C 
HETATM    7  C   UNL     1      14.663   4.112  -2.194  1.00  0.00     0.115 C 
HETATM    8  C   UNL     1      15.004   2.884  -1.367  1.00  0.00     0.196 C 
HETATM    9  O   UNL     1      14.885   1.786  -2.294  1.00  0.00    -0.359 OA
ENDROOT
BRANCH   5  10
HETATM   10  C   UNL     1      16.095   1.265  -6.767  1.00  0.00     0.049 C 
BRANCH  10  11
HETATM   11  C   UNL     1      15.388   2.480  -7.337  1.00  0.00     0.028 C 
HETATM   12  C   UNL     1      13.911   2.480  -7.071  1.00  0.00    -0.047 C 
HETATM   13  C   UNL     1      13.325   2.615  -5.842  1.00  0.00     0.008 C 
HETATM   14  C   UNL     1      13.245   2.447  -8.276  1.00  0.00    -0.051 C 
HETATM   15  C   UNL     1      11.999   2.457  -5.537  1.00  0.00     0.001 C 
HETATM   16  C   UNL     1      10.961   1.948  -6.281  1.00  0.00     0.000 C 
HETATM   17  C   UNL     1      10.988   1.662  -7.613  1.00  0.00     0.001 C 
HETATM   18  C   UNL     1      11.981   1.958  -8.504  1.00  0.00     0.007 C 
HETATM   19  C   UNL     1      14.152   2.942  -9.374  1.00  0.00     0.040 C 
HETATM   20  C   UNL     1      15.548   2.648  -8.848  1.00  0.00     0.014 C 
ENDBRANCH  10  11
BRANCH  10  21
HETATM   21  C   UNL     1      17.044   0.602  -7.748  1.00  0.00     0.172 C 
BRANCH  21  22
HETATM   22  O   UNL     1      18.382   0.922  -7.364  1.00  0.00    -0.400 OA
ATOM     23  HO  UNL     1      18.719   1.570  -7.970  1.00  0.00     0.209 HD
ENDBRANCH  21  22
ENDBRANCH  10  21
ENDBRANCH   5  10
BRANCH   1  24
HETATM   24  O   UNL     1      18.051   3.400  -5.507  1.00  0.00    -0.392 OA
ATOM     25  HO  UNL     1      18.572   3.710  -4.776  1.00  0.00     0.210 HD
ENDBRANCH   1  24
BRANCH   7  26
HETATM   26  N   UNL     1      14.385   5.357  -1.474  1.00  0.00    -0.334 N 
HETATM   27  C   UNL     1      13.370   6.211  -1.696  1.00  0.00     0.184 C 
HETATM   28  N   UNL     1      13.624   7.359  -1.064  1.00  0.00    -0.350 N 
HETATM   29  C   UNL     1      14.674   7.154  -0.229  1.00  0.00     0.060 C 
ATOM     30  HN  UNL     1      13.118   8.236  -1.186  1.00  0.00     0.166 HD
HETATM   31  C   UNL     1      15.376   7.996   0.635  1.00  0.00     0.032 C 
HETATM   32  C   UNL     1      15.077   5.836  -0.400  1.00  0.00     0.062 C 
HETATM   33  C   UNL     1      16.479   7.498   1.313  1.00  0.00     0.002 C 
HETATM   34  C   UNL     1      16.788   6.148   1.238  1.00  0.00     0.002 C 
HETATM   35  C   UNL     1      16.075   5.300   0.407  1.00  0.00     0.032 C 
ENDBRANCH   7  26
TORSDOF 6
ENDMDL
MODEL 8
REMARK VINA RESULT:      -8.4      4.320      8.534
REMARK  6 active torsions:
REMARK  status: ('A' for Active; 'I' for Inactive)
REMARK    1  A    between atoms: C_3  and  O_21 
REMARK    2  A    between atoms: C_5  and  C_14 
REMARK    3  A    between atoms: C_5  and  C_29 
REMARK    4  A    between atoms: C_5  and  C_32 
REMARK    5  A    between atoms: O_17  and  C_32 
REMARK    6  A    between atoms: C_23  and  N_35 
ROOT
HETATM    1  C   UNL     1      18.311   0.386  -5.146  1.00  0.00     0.156 C 
HETATM    2  O   UNL     1      18.815   2.670  -4.854  1.00  0.00    -0.352 OA
HETATM    3  C   UNL     1      15.884   0.916  -5.475  1.00  0.00     0.040 C 
HETATM    4  C   UNL     1      17.295   1.210  -5.927  1.00  0.00     0.074 C 
HETATM    5  C   UNL     1      19.444   1.389  -4.925  1.00  0.00     0.160 C 
HETATM    6  C   UNL     1      17.784   2.639  -5.838  1.00  0.00     0.267 C 
HETATM    7  C   UNL     1      14.948   2.103  -5.511  1.00  0.00     0.115 C 
HETATM    8  C   UNL     1      15.532   3.244  -6.327  1.00  0.00     0.196 C 
HETATM    9  O   UNL     1      16.748   3.591  -5.636  1.00  0.00    -0.359 OA
ENDROOT
BRANCH   5  10
HETATM   10  C   UNL     1      20.070   1.043  -3.583  1.00  0.00     0.049 C 
BRANCH  10  11
HETATM   11  C   UNL     1      21.571   0.824  -3.617  1.00  0.00     0.028 C 
HETATM   12  C   UNL     1      22.282   1.764  -4.544  1.00  0.00    -0.047 C 
HETATM   13  C   UNL     1      22.402   3.115  -4.367  1.00  0.00     0.008 C 
HETATM   14  C   UNL     1      22.896   1.028  -5.534  1.00  0.00    -0.051 C 
HETATM   15  C   UNL     1      22.896   4.026  -5.264  1.00  0.00     0.001 C 
HETATM   16  C   UNL     1      23.206   3.896  -6.596  1.00  0.00     0.000 C 
HETATM   17  C   UNL     1      23.282   2.730  -7.297  1.00  0.00     0.001 C 
HETATM   18  C   UNL     1      23.217   1.458  -6.799  1.00  0.00     0.007 C 
HETATM   19  C   UNL     1      23.090  -0.392  -5.068  1.00  0.00     0.040 C 
HETATM   20  C   UNL     1      21.990  -0.586  -4.037  1.00  0.00     0.014 C 
ENDBRANCH  10  11
BRANCH  10  21
HETATM   21  C   UNL     1      19.611   1.903  -2.419  1.00  0.00     0.172 C 
BRANCH  21  22
HETATM   22  O   UNL     1      18.246   1.588  -2.140  1.00  0.00    -0.400 OA
ATOM     23  HO  UNL     1      18.216   1.078  -1.340  1.00  0.00     0.209 HD
ENDBRANCH  21  22
ENDBRANCH  10  21
ENDBRANCH   5  10
BRANCH   1  24
HETATM   24  O   UNL     1      18.794  -0.736  -5.859  1.00  0.00    -0.392 OA
ATOM     25  HO  UNL     1      18.236  -0.993  -6.584  1.00  0.00     0.210 HD
ENDBRANCH   1  24
BRANCH   7  26
HETATM   26  N   UNL     1      13.555   1.731  -5.766  1.00  0.00    -0.334 N 
HETATM   27  C   UNL     1      13.112   0.593  -6.330  1.00  0.00     0.184 C 
HETATM   28  N   UNL     1      11.830   0.750  -6.672  1.00  0.00    -0.350 N 
HETATM   29  C   UNL     1      11.381   1.894  -6.097  1.00  0.00     0.060 C 
ATOM     30  HN  UNL     1      11.285   0.121  -7.261  1.00  0.00     0.166 HD
HETATM   31  C   UNL     1      10.153   2.557  -6.139  1.00  0.00     0.032 C 
HETATM   32  C   UNL     1      12.452   2.452  -5.412  1.00  0.00     0.062 C 
HETATM   33  C   UNL     1      10.024   3.778  -5.492  1.00  0.00     0.002 C 
HETATM   34  C   UNL     1      11.057   4.256  -4.701  1.00  0.00     0.002 C 
HETATM   35  C   UNL     1      12.268   3.587  -4.629  1.00  0.00     0.032 C 
ENDBRANCH   7  26
TORSDOF 6
ENDMDL
MODEL 9
REMARK VINA RESULT:      -8.3      3.573      8.186
REMARK  6 active torsions:
REMARK  status: ('A' for Active; 'I' for Inactive)
REMARK    1  A    between atoms: C_3  and  O_21 
REMARK    2  A    between atoms: C_5  and  C_14 
REMARK    3  A    between atoms: C_5  and  C_29 
REMARK    4  A    between atoms: C_5  and  C_32 
REMARK    5  A    between atoms: O_17  and  C_32 
REMARK    6  A    between atoms: C_23  and  N_35 
ROOT
HETATM    1  C   UNL     1      16.888   2.363  -2.940  1.00  0.00     0.156 C 
HETATM    2  O   UNL     1      14.563   2.326  -3.326  1.00  0.00    -0.352 OA
HETATM    3  C   UNL     1      16.627   4.190  -1.247  1.00  0.00     0.040 C 
HETATM    4  C   UNL     1      16.179   2.810  -1.669  1.00  0.00     0.074 C 
HETATM    5  C   UNL     1      15.767   1.660  -3.709  1.00  0.00     0.160 C 
HETATM    6  C   UNL     1      14.706   2.592  -1.932  1.00  0.00     0.267 C 
HETATM    7  C   UNL     1      15.549   5.035  -0.605  1.00  0.00     0.115 C 
HETATM    8  C   UNL     1      14.351   4.192  -0.203  1.00  0.00     0.196 C 
HETATM    9  O   UNL     1      13.873   3.635  -1.443  1.00  0.00    -0.359 OA
ENDROOT
BRANCH   5  10
HETATM   10  C   UNL     1      16.043   1.896  -5.186  1.00  0.00     0.049 C 
BRANCH  10  11
HETATM   11  C   UNL     1      15.113   1.161  -6.133  1.00  0.00     0.028 C 
HETATM   12  C   UNL     1      13.728   1.737  -6.162  1.00  0.00    -0.047 C 
HETATM   13  C   UNL     1      13.389   2.967  -6.655  1.00  0.00     0.008 C 
HETATM   14  C   UNL     1      12.842   0.776  -5.726  1.00  0.00    -0.051 C 
HETATM   15  C   UNL     1      12.174   3.593  -6.552  1.00  0.00     0.001 C 
HETATM   16  C   UNL     1      11.068   3.285  -5.797  1.00  0.00     0.000 C 
HETATM   17  C   UNL     1      10.857   2.129  -5.108  1.00  0.00     0.001 C 
HETATM   18  C   UNL     1      11.616   0.993  -5.145  1.00  0.00     0.007 C 
HETATM   19  C   UNL     1      13.453  -0.592  -5.885  1.00  0.00     0.040 C 
HETATM   20  C   UNL     1      14.950  -0.327  -5.823  1.00  0.00     0.014 C 
ENDBRANCH  10  11
BRANCH  10  21
HETATM   21  C   UNL     1      16.278   3.345  -5.572  1.00  0.00     0.172 C 
BRANCH  21  22
HETATM   22  O   UNL     1      16.947   3.370  -6.834  1.00  0.00    -0.400 OA
ATOM     23  HO  UNL     1      17.631   4.027  -6.795  1.00  0.00     0.209 HD
ENDBRANCH  21  22
ENDBRANCH  10  21
ENDBRANCH   5  10
BRANCH   1  24
HETATM   24  O   UNL     1      17.950   1.459  -2.706  1.00  0.00    -0.392 OA
ATOM     25  HO  UNL     1      17.836   0.621  -3.139  1.00  0.00     0.210 HD
ENDBRANCH   1  24
BRANCH   7  26
HETATM   26  N   UNL     1      16.071   5.985   0.379  1.00  0.00    -0.334 N 
HETATM   27  C   UNL     1      17.281   5.959   0.966  1.00  0.00     0.184 C 
HETATM   28  N   UNL     1      17.272   6.789   2.012  1.00  0.00    -0.350 N 
HETATM   29  C   UNL     1      16.142   7.537   1.944  1.00  0.00     0.060 C 
ATOM     30  HN  UNL     1      17.988   6.850   2.736  1.00  0.00     0.166 HD
HETATM   31  C   UNL     1      15.606   8.523   2.775  1.00  0.00     0.032 C 
HETATM   32  C   UNL     1      15.439   7.108   0.826  1.00  0.00     0.062 C 
HETATM   33  C   UNL     1      14.364   9.060   2.468  1.00  0.00     0.002 C 
HETATM   34  C   UNL     1      13.736   8.722   1.280  1.00  0.00     0.002 C 
HETATM   35  C   UNL     1      14.278   7.768   0.434  1.00  0.00     0.032 C 
ENDBRANCH   7  26
TORSDOF 6
ENDMDL
