REMARK  11 active torsions:
REMARK  status: ('A' for Active; 'I' for Inactive)
REMARK    1  A    between atoms: O_1  and  P_10 
REMARK    2  A    between atoms: O_1  and  C_11 
REMARK    3  A    between atoms: O_2  and  N_9 
REMARK    4  A    between atoms: O_2  and  C_12 
REMARK    5  A    between atoms: O_3  and  O_27 
REMARK    6  A    between atoms: N_5  and  O_27 
REMARK    7  A    between atoms: C_6  and  C_12 
REMARK    8  A    between atoms: C_6  and  C_13 
REMARK    9  A    between atoms: N_9  and  C_14 
REMARK   10  A    between atoms: C_11  and  C_18 
REMARK   11  A    between atoms: C_14  and  O_25 
ROOT
HETATM    1  O   UNL     1      43.920  39.658  64.062  1.00  0.00    -0.339 OA
HETATM    2  C   UNL     1      45.070  40.023  66.076  1.00  0.00     0.191 A 
HETATM    3  C   UNL     1      43.193  41.607  65.118  1.00  0.00     0.006 A 
HETATM    4  C   UNL     1      45.047  41.437  66.504  1.00  0.00     0.043 C 
HETATM    5  C   UNL     1      43.533  42.905  64.503  1.00  0.00     0.027 A 
HETATM    6  C   UNL     1      43.871  40.593  64.257  1.00  0.00     0.200 A 
HETATM    7  O   UNL     1      44.087  39.394  66.274  1.00  0.00    -0.340 OA
HETATM    8  C   UNL     1      44.318  39.586  65.116  1.00  0.00     0.219 A 
HETATM    9  C   UNL     1      44.140  42.329  65.801  1.00  0.00     0.007 A 
ENDROOT
BRANCH   3  10
HETATM   10  C   UNL     1      42.216  40.941  65.884  1.00  0.00     0.089 C 
BRANCH  10  11
HETATM   11  C   UNL     1      41.644  39.656  65.434  1.00  0.00     0.271 A 
HETATM   12  N   UNL     1      41.613  38.796  64.617  1.00  0.00    -0.142 N 
HETATM   13  C   UNL     1      41.045  39.653  64.342  1.00  0.00     0.309 A 
HETATM   14  O   UNL     1      40.237  40.122  63.587  1.00  0.00    -0.265 OA
BRANCH  11  15
HETATM   15  O   UNL     1      41.558  38.913  66.699  1.00  0.00    -0.239 OA
BRANCH  15  16
HETATM   16  N   UNL     1      40.167  38.751  67.044  1.00  0.00    -0.072 NA
BRANCH  16  17
HETATM   17  C   UNL     1      39.251  39.272  66.039  1.00  0.00     0.306 C 
BRANCH  17  18
HETATM   18  O   UNL     1      39.446  40.691  65.857  1.00  0.00    -0.383 OA
ATOM     19  HO  UNL     1      38.848  41.031  65.201  1.00  0.00     0.211 HD
ENDBRANCH  17  18
ENDBRANCH  16  17
ENDBRANCH  15  16
ENDBRANCH  11  15
BRANCH  12  20
HETATM   20  O   UNL     1      41.991  37.597  64.309  1.00  0.00    -0.106 OA
BRANCH  20  21
HETATM   21  O   UNL     1      41.824  37.385  62.999  1.00  0.00    -0.226 OA
ATOM     22  HO  UNL     1      42.101  36.505  62.773  1.00  0.00     0.256 HD
ENDBRANCH  20  21
ENDBRANCH  12  20
ENDBRANCH  10  11
ENDBRANCH   3  10
BRANCH   5  23
HETATM   23  C   UNL     1      42.478  43.530  63.567  1.00  0.00     0.183 C 
BRANCH  23  24
HETATM   24  O   UNL     1      42.782  43.593  62.161  1.00  0.00    -0.314 OA
BRANCH  24  25
HETATM   25  P   UNL     1      41.924  43.458  60.904  1.00  0.00     0.393 P 
HETATM   26  O   UNL     1      41.094  42.909  59.793  1.00  0.00    -0.143 OA
HETATM   27  O   UNL     1      40.390  43.487  60.860  1.00  0.00    -0.143 OA
ENDBRANCH  24  25
ENDBRANCH  23  24
ENDBRANCH   5  23
TORSDOF 11
