MODEL 1
REMARK VINA RESULT:      -5.4      0.000      0.000
REMARK  7 active torsions:
REMARK  status: ('A' for Active; 'I' for Inactive)
REMARK    1  A    between atoms: C_2  and  C_28 
REMARK    2  A    between atoms: C_3  and  O_19 
REMARK    3  A    between atoms: O_4  and  C_17 
REMARK    4  A    between atoms: C_12  and  O_26 
REMARK    5  A    between atoms: C_16  and  O_22 
REMARK    6  A    between atoms: P_18  and  O_19 
REMARK    7  A    between atoms: C_20  and  O_22 
ROOT
HETATM    1  C   UNL     1      45.100  38.147  66.707  1.00  0.00    -0.006 C 
HETATM    2  C   UNL     1      43.395  37.041  65.444  1.00  0.00    -0.001 C 
HETATM    3  C   UNL     1      43.117  37.404  67.815  1.00  0.00     0.067 C 
HETATM    4  C   UNL     1      42.537  37.250  66.552  1.00  0.00     0.078 C 
HETATM    5  N   UNL     1      45.368  37.182  68.855  1.00  0.00    -0.316 N 
ATOM      6  HN  UNL     1      45.013  36.647  69.648  1.00  0.00     0.170 HD
HETATM    7  C   UNL     1      46.675  37.481  68.781  1.00  0.00     0.267 C 
HETATM    8  O   UNL     1      47.149  38.416  67.940  1.00  0.00    -0.312 OA
HETATM    9  C   UNL     1      46.287  39.001  66.963  1.00  0.00     0.220 C 
HETATM   10  C   UNL     1      44.653  37.679  65.460  1.00  0.00     0.026 C 
HETATM   11  C   UNL     1      44.501  37.598  67.858  1.00  0.00     0.046 C 
ENDROOT
BRANCH   7  12
HETATM   12  O   UNL     1      47.520  36.883  69.569  1.00  0.00    -0.280 OA
BRANCH  12  13
HETATM   13  C   UNL     1      48.693  36.197  69.216  1.00  0.00     0.359 C 
HETATM   14  N   UNL     1      49.614  37.059  68.501  1.00  0.00    -0.046 N 
HETATM   15  C   UNL     1      50.153  36.316  67.354  1.00  0.00     0.238 C 
ATOM     16  HN2 UNL     1      50.346  37.435  69.103  1.00  0.00     0.280 HD
ATOM     17  HN1 UNL     1      49.189  37.946  68.228  1.00  0.00     0.280 HD
HETATM   18  C   UNL     1      49.050  35.349  66.980  1.00  0.00     0.064 C 
HETATM   19  C   UNL     1      48.205  35.145  68.226  1.00  0.00     0.176 C 
BRANCH  19  20
HETATM   20  O   UNL     1      48.281  33.858  68.793  1.00  0.00    -0.391 OA
ATOM     21  HO  UNL     1      49.139  33.452  68.753  1.00  0.00     0.210 HD
ENDBRANCH  19  20
ENDBRANCH  12  13
ENDBRANCH   7  12
BRANCH   4  22
HETATM   22  O   UNL     1      41.215  37.403  66.356  1.00  0.00    -0.360 OA
ATOM     23  HO  UNL     1      40.622  36.684  66.542  1.00  0.00     0.217 HD
ENDBRANCH   4  22
BRANCH   2  24
HETATM   24  C   UNL     1      42.973  36.063  64.438  1.00  0.00     0.039 C 
HETATM   25  C   UNL     1      42.031  35.693  63.659  1.00  0.00     0.150 C 
BRANCH  25  26
HETATM   26  O   UNL     1      41.733  34.431  63.152  1.00  0.00    -0.252 OA
BRANCH  26  27
HETATM   27  P   UNL     1      42.159  33.005  62.575  1.00  0.00     0.426 P 
HETATM   28  O   UNL     1      41.049  32.020  62.201  1.00  0.00    -0.617 OA
HETATM   29  O   UNL     1      42.893  32.929  61.272  1.00  0.00    -0.617 OA
HETATM   30  O   UNL     1      42.958  32.371  63.716  1.00  0.00    -0.617 OA
ENDBRANCH  26  27
ENDBRANCH  25  26
ENDBRANCH   2  24
TORSDOF 7
ENDMDL
MODEL 2
REMARK VINA RESULT:      -5.4      2.432      2.765
REMARK  7 active torsions:
REMARK  status: ('A' for Active; 'I' for Inactive)
REMARK    1  A    between atoms: C_2  and  C_28 
REMARK    2  A    between atoms: C_3  and  O_19 
REMARK    3  A    between atoms: O_4  and  C_17 
REMARK    4  A    between atoms: C_12  and  O_26 
REMARK    5  A    between atoms: C_16  and  O_22 
REMARK    6  A    between atoms: P_18  and  O_19 
REMARK    7  A    between atoms: C_20  and  O_22 
ROOT
HETATM    1  C   UNL     1      45.659  37.804  66.650  1.00  0.00    -0.006 C 
HETATM    2  C   UNL     1      44.158  36.194  65.709  1.00  0.00    -0.001 C 
HETATM    3  C   UNL     1      45.600  35.591  67.550  1.00  0.00     0.067 C 
HETATM    4  C   UNL     1      44.398  35.403  66.860  1.00  0.00     0.078 C 
HETATM    5  N   UNL     1      47.737  36.829  67.237  1.00  0.00    -0.316 N 
ATOM      6  HN  UNL     1      48.309  36.025  67.496  1.00  0.00     0.170 HD
HETATM    7  C   UNL     1      48.326  37.994  66.924  1.00  0.00     0.267 C 
HETATM    8  O   UNL     1      47.642  39.150  66.868  1.00  0.00    -0.312 OA
HETATM    9  C   UNL     1      46.217  39.142  66.970  1.00  0.00     0.220 C 
HETATM   10  C   UNL     1      44.660  37.513  65.704  1.00  0.00     0.026 C 
HETATM   11  C   UNL     1      46.357  36.717  67.211  1.00  0.00     0.046 C 
ENDROOT
BRANCH   7  12
HETATM   12  O   UNL     1      49.607  38.032  66.703  1.00  0.00    -0.280 OA
BRANCH  12  13
HETATM   13  C   UNL     1      50.267  38.129  65.468  1.00  0.00     0.359 C 
HETATM   14  N   UNL     1      49.400  38.688  64.448  1.00  0.00    -0.046 N 
HETATM   15  C   UNL     1      49.558  37.900  63.219  1.00  0.00     0.238 C 
ATOM     16  HN2 UNL     1      49.563  39.683  64.298  1.00  0.00     0.280 HD
ATOM     17  HN1 UNL     1      48.428  38.750  64.751  1.00  0.00     0.280 HD
HETATM   18  C   UNL     1      49.917  36.512  63.705  1.00  0.00     0.064 C 
HETATM   19  C   UNL     1      50.525  36.676  65.088  1.00  0.00     0.176 C 
BRANCH  19  20
HETATM   20  O   UNL     1      51.898  36.377  65.173  1.00  0.00    -0.391 OA
ATOM     21  HO  UNL     1      52.115  35.456  65.082  1.00  0.00     0.210 HD
ENDBRANCH  19  20
ENDBRANCH  12  13
ENDBRANCH   7  12
BRANCH   4  22
HETATM   22  O   UNL     1      43.438  34.581  67.320  1.00  0.00    -0.360 OA
ATOM     23  HO  UNL     1      42.525  34.779  67.150  1.00  0.00     0.217 HD
ENDBRANCH   4  22
BRANCH   2  24
HETATM   24  C   UNL     1      43.537  35.539  64.556  1.00  0.00     0.039 C 
HETATM   25  C   UNL     1      42.465  35.398  63.875  1.00  0.00     0.150 C 
BRANCH  25  26
HETATM   26  O   UNL     1      42.036  34.329  63.093  1.00  0.00    -0.252 OA
BRANCH  26  27
HETATM   27  P   UNL     1      42.205  32.857  62.499  1.00  0.00     0.426 P 
HETATM   28  O   UNL     1      40.943  32.106  62.070  1.00  0.00    -0.617 OA
HETATM   29  O   UNL     1      42.956  32.664  61.218  1.00  0.00    -0.617 OA
HETATM   30  O   UNL     1      42.831  32.066  63.651  1.00  0.00    -0.617 OA
ENDBRANCH  26  27
ENDBRANCH  25  26
ENDBRANCH   2  24
TORSDOF 7
ENDMDL
MODEL 3
REMARK VINA RESULT:      -5.3      3.801      6.077
REMARK  7 active torsions:
REMARK  status: ('A' for Active; 'I' for Inactive)
REMARK    1  A    between atoms: C_2  and  C_28 
REMARK    2  A    between atoms: C_3  and  O_19 
REMARK    3  A    between atoms: O_4  and  C_17 
REMARK    4  A    between atoms: C_12  and  O_26 
REMARK    5  A    between atoms: C_16  and  O_22 
REMARK    6  A    between atoms: P_18  and  O_19 
REMARK    7  A    between atoms: C_20  and  O_22 
ROOT
HETATM    1  C   UNL     1      50.479  37.114  66.169  1.00  0.00    -0.006 C 
HETATM    2  C   UNL     1      48.292  37.365  65.231  1.00  0.00    -0.001 C 
HETATM    3  C   UNL     1      50.206  38.375  64.157  1.00  0.00     0.067 C 
HETATM    4  C   UNL     1      48.929  37.815  64.047  1.00  0.00     0.078 C 
HETATM    5  N   UNL     1      51.756  39.099  65.966  1.00  0.00    -0.316 N 
ATOM      6  HN  UNL     1      51.965  39.988  65.510  1.00  0.00     0.170 HD
HETATM    7  C   UNL     1      52.348  38.789  67.130  1.00  0.00     0.267 C 
HETATM    8  O   UNL     1      52.350  37.538  67.622  1.00  0.00    -0.312 OA
HETATM    9  C   UNL     1      51.561  36.525  66.998  1.00  0.00     0.220 C 
HETATM   10  C   UNL     1      49.106  36.823  66.247  1.00  0.00     0.026 C 
HETATM   11  C   UNL     1      50.864  38.215  65.381  1.00  0.00     0.046 C 
ENDROOT
BRANCH   7  12
HETATM   12  O   UNL     1      52.978  39.709  67.800  1.00  0.00    -0.280 OA
BRANCH  12  13
HETATM   13  C   UNL     1      52.813  40.063  69.148  1.00  0.00     0.359 C 
HETATM   14  N   UNL     1      52.887  38.899  70.011  1.00  0.00    -0.046 N 
HETATM   15  C   UNL     1      51.807  38.984  71.003  1.00  0.00     0.238 C 
ATOM     16  HN2 UNL     1      53.805  38.789  70.441  1.00  0.00     0.280 HD
ATOM     17  HN1 UNL     1      52.871  38.023  69.490  1.00  0.00     0.280 HD
HETATM   18  C   UNL     1      50.708  39.751  70.298  1.00  0.00     0.064 C 
HETATM   19  C   UNL     1      51.377  40.572  69.209  1.00  0.00     0.176 C 
BRANCH  19  20
HETATM   20  O   UNL     1      51.353  41.965  69.414  1.00  0.00    -0.391 OA
ATOM     21  HO  UNL     1      50.637  42.279  69.954  1.00  0.00     0.210 HD
ENDBRANCH  19  20
ENDBRANCH  12  13
ENDBRANCH   7  12
BRANCH   4  22
HETATM   22  O   UNL     1      48.351  37.599  62.851  1.00  0.00    -0.360 OA
ATOM     23  HO  UNL     1      48.370  38.278  62.187  1.00  0.00     0.217 HD
ENDBRANCH   4  22
BRANCH   2  24
HETATM   24  C   UNL     1      46.858  37.632  65.369  1.00  0.00     0.039 C 
HETATM   25  C   UNL     1      45.838  37.540  66.133  1.00  0.00     0.150 C 
BRANCH  25  26
HETATM   26  O   UNL     1      44.486  37.447  65.813  1.00  0.00    -0.252 OA
BRANCH  26  27
HETATM   27  P   UNL     1      42.982  37.034  66.151  1.00  0.00     0.426 P 
HETATM   28  O   UNL     1      42.126  36.455  65.024  1.00  0.00    -0.617 OA
HETATM   29  O   UNL     1      42.726  35.934  67.135  1.00  0.00    -0.617 OA
HETATM   30  O   UNL     1      42.328  38.349  66.584  1.00  0.00    -0.617 OA
ENDBRANCH  26  27
ENDBRANCH  25  26
ENDBRANCH   2  24
TORSDOF 7
ENDMDL
MODEL 4
REMARK VINA RESULT:      -5.3      4.304      7.793
REMARK  7 active torsions:
REMARK  status: ('A' for Active; 'I' for Inactive)
REMARK    1  A    between atoms: C_2  and  C_28 
REMARK    2  A    between atoms: C_3  and  O_19 
REMARK    3  A    between atoms: O_4  and  C_17 
REMARK    4  A    between atoms: C_12  and  O_26 
REMARK    5  A    between atoms: C_16  and  O_22 
REMARK    6  A    between atoms: P_18  and  O_19 
REMARK    7  A    between atoms: C_20  and  O_22 
ROOT
HETATM    1  C   UNL     1      42.885  36.522  65.085  1.00  0.00    -0.006 C 
HETATM    2  C   UNL     1      43.335  37.453  67.243  1.00  0.00    -0.001 C 
HETATM    3  C   UNL     1      45.143  37.003  65.706  1.00  0.00     0.067 C 
HETATM    4  C   UNL     1      44.630  37.766  66.760  1.00  0.00     0.078 C 
HETATM    5  N   UNL     1      44.532  34.942  64.449  1.00  0.00    -0.316 N 
ATOM      6  HN  UNL     1      45.475  34.557  64.509  1.00  0.00     0.170 HD
HETATM    7  C   UNL     1      43.573  34.264  63.800  1.00  0.00     0.267 C 
HETATM    8  O   UNL     1      42.414  34.838  63.432  1.00  0.00    -0.312 OA
HETATM    9  C   UNL     1      42.095  36.155  63.882  1.00  0.00     0.220 C 
HETATM   10  C   UNL     1      42.382  36.990  66.311  1.00  0.00     0.026 C 
HETATM   11  C   UNL     1      44.246  36.163  65.037  1.00  0.00     0.046 C 
ENDROOT
BRANCH   7  12
HETATM   12  O   UNL     1      43.769  33.021  63.473  1.00  0.00    -0.280 OA
BRANCH  12  13
HETATM   13  C   UNL     1      42.818  31.992  63.379  1.00  0.00     0.359 C 
HETATM   14  N   UNL     1      43.453  30.689  63.338  1.00  0.00    -0.046 N 
HETATM   15  C   UNL     1      42.801  29.884  62.297  1.00  0.00     0.238 C 
ATOM     16  HN2 UNL     1      43.454  30.226  64.247  1.00  0.00     0.280 HD
ATOM     17  HN1 UNL     1      44.463  30.749  63.211  1.00  0.00     0.280 HD
HETATM   18  C   UNL     1      42.328  30.899  61.278  1.00  0.00     0.064 C 
HETATM   19  C   UNL     1      42.181  32.221  62.012  1.00  0.00     0.176 C 
BRANCH  19  20
HETATM   20  O   UNL     1      40.858  32.680  62.153  1.00  0.00    -0.391 OA
ATOM     21  HO  UNL     1      40.340  32.664  61.356  1.00  0.00     0.210 HD
ENDBRANCH  19  20
ENDBRANCH  12  13
ENDBRANCH   7  12
BRANCH   4  22
HETATM   22  O   UNL     1      45.284  38.838  67.242  1.00  0.00    -0.360 OA
ATOM     23  HO  UNL     1      45.139  39.694  66.855  1.00  0.00     0.217 HD
ENDBRANCH   4  22
BRANCH   2  24
HETATM   24  C   UNL     1      43.126  37.494  68.693  1.00  0.00     0.039 C 
HETATM   25  C   UNL     1      43.533  37.075  69.828  1.00  0.00     0.150 C 
BRANCH  25  26
HETATM   26  O   UNL     1      42.838  36.907  71.023  1.00  0.00    -0.252 OA
BRANCH  26  27
HETATM   27  P   UNL     1      41.685  37.304  72.052  1.00  0.00     0.426 P 
HETATM   28  O   UNL     1      41.208  36.241  73.043  1.00  0.00    -0.617 OA
HETATM   29  O   UNL     1      41.946  38.372  73.070  1.00  0.00    -0.617 OA
HETATM   30  O   UNL     1      40.495  37.652  71.155  1.00  0.00    -0.617 OA
ENDBRANCH  26  27
ENDBRANCH  25  26
ENDBRANCH   2  24
TORSDOF 7
ENDMDL
MODEL 5
REMARK VINA RESULT:      -5.2      2.951      4.016
REMARK  7 active torsions:
REMARK  status: ('A' for Active; 'I' for Inactive)
REMARK    1  A    between atoms: C_2  and  C_28 
REMARK    2  A    between atoms: C_3  and  O_19 
REMARK    3  A    between atoms: O_4  and  C_17 
REMARK    4  A    between atoms: C_12  and  O_26 
REMARK    5  A    between atoms: C_16  and  O_22 
REMARK    6  A    between atoms: P_18  and  O_19 
REMARK    7  A    between atoms: C_20  and  O_22 
ROOT
HETATM    1  C   UNL     1      43.654  36.797  65.316  1.00  0.00    -0.006 C 
HETATM    2  C   UNL     1      43.109  34.928  63.924  1.00  0.00    -0.001 C 
HETATM    3  C   UNL     1      41.410  36.532  64.536  1.00  0.00     0.067 C 
HETATM    4  C   UNL     1      41.901  35.601  63.614  1.00  0.00     0.078 C 
HETATM    5  N   UNL     1      41.919  37.281  66.855  1.00  0.00    -0.316 N 
ATOM      6  HN  UNL     1      40.940  37.249  67.142  1.00  0.00     0.170 HD
HETATM    7  C   UNL     1      42.859  37.675  67.728  1.00  0.00     0.267 C 
HETATM    8  O   UNL     1      44.098  38.022  67.339  1.00  0.00    -0.312 OA
HETATM    9  C   UNL     1      44.507  37.810  65.987  1.00  0.00     0.220 C 
HETATM   10  C   UNL     1      44.090  35.640  64.646  1.00  0.00     0.026 C 
HETATM   11  C   UNL     1      42.273  36.920  65.566  1.00  0.00     0.046 C 
ENDROOT
BRANCH   7  12
HETATM   12  O   UNL     1      42.568  37.768  68.992  1.00  0.00    -0.280 OA
BRANCH  12  13
HETATM   13  C   UNL     1      43.335  37.344  70.089  1.00  0.00     0.359 C 
HETATM   14  N   UNL     1      44.624  38.009  70.120  1.00  0.00    -0.046 N 
HETATM   15  C   UNL     1      45.658  37.010  70.419  1.00  0.00     0.238 C 
ATOM     16  HN2 UNL     1      44.642  38.797  70.767  1.00  0.00     0.280 HD
ATOM     17  HN1 UNL     1      44.818  38.528  69.263  1.00  0.00     0.280 HD
HETATM   18  C   UNL     1      45.111  35.719  69.849  1.00  0.00     0.064 C 
HETATM   19  C   UNL     1      43.600  35.873  69.789  1.00  0.00     0.176 C 
BRANCH  19  20
HETATM   20  O   UNL     1      42.882  35.049  70.678  1.00  0.00    -0.391 OA
ATOM     21  HO  UNL     1      42.070  35.420  71.001  1.00  0.00     0.210 HD
ENDBRANCH  19  20
ENDBRANCH  12  13
ENDBRANCH   7  12
BRANCH   4  22
HETATM   22  O   UNL     1      41.319  35.415  62.416  1.00  0.00    -0.360 OA
ATOM     23  HO  UNL     1      40.582  35.957  62.159  1.00  0.00     0.217 HD
ENDBRANCH   4  22
BRANCH   2  24
HETATM   24  C   UNL     1      43.191  33.501  63.600  1.00  0.00     0.039 C 
HETATM   25  C   UNL     1      43.331  32.639  62.669  1.00  0.00     0.150 C 
BRANCH  25  26
HETATM   26  O   UNL     1      42.892  31.319  62.596  1.00  0.00    -0.252 OA
BRANCH  26  27
HETATM   27  P   UNL     1      42.152  30.118  61.851  1.00  0.00     0.426 P 
HETATM   28  O   UNL     1      42.845  28.754  61.822  1.00  0.00    -0.617 OA
HETATM   29  O   UNL     1      40.840  29.624  62.379  1.00  0.00    -0.617 OA
HETATM   30  O   UNL     1      42.039  30.597  60.402  1.00  0.00    -0.617 OA
ENDBRANCH  26  27
ENDBRANCH  25  26
ENDBRANCH   2  24
TORSDOF 7
ENDMDL
MODEL 6
REMARK VINA RESULT:      -5.1      2.195      2.836
REMARK  7 active torsions:
REMARK  status: ('A' for Active; 'I' for Inactive)
REMARK    1  A    between atoms: C_2  and  C_28 
REMARK    2  A    between atoms: C_3  and  O_19 
REMARK    3  A    between atoms: O_4  and  C_17 
REMARK    4  A    between atoms: C_12  and  O_26 
REMARK    5  A    between atoms: C_16  and  O_22 
REMARK    6  A    between atoms: P_18  and  O_19 
REMARK    7  A    between atoms: C_20  and  O_22 
ROOT
HETATM    1  C   UNL     1      45.319  37.724  66.098  1.00  0.00    -0.006 C 
HETATM    2  C   UNL     1      43.941  36.043  65.095  1.00  0.00    -0.001 C 
HETATM    3  C   UNL     1      43.110  37.366  66.938  1.00  0.00     0.067 C 
HETATM    4  C   UNL     1      42.847  36.637  65.774  1.00  0.00     0.078 C 
HETATM    5  N   UNL     1      45.040  37.801  68.450  1.00  0.00    -0.316 N 
ATOM      6  HN  UNL     1      44.491  37.632  69.293  1.00  0.00     0.170 HD
HETATM    7  C   UNL     1      46.333  38.147  68.551  1.00  0.00     0.267 C 
HETATM    8  O   UNL     1      47.019  38.665  67.518  1.00  0.00    -0.312 OA
HETATM    9  C   UNL     1      46.431  38.700  66.217  1.00  0.00     0.220 C 
HETATM   10  C   UNL     1      45.174  36.729  65.115  1.00  0.00     0.026 C 
HETATM   11  C   UNL     1      44.448  37.675  67.204  1.00  0.00     0.046 C 
ENDROOT
BRANCH   7  12
HETATM   12  O   UNL     1      46.949  38.019  69.689  1.00  0.00    -0.280 OA
BRANCH  12  13
HETATM   13  C   UNL     1      47.382  39.034  70.556  1.00  0.00     0.359 C 
HETATM   14  N   UNL     1      46.976  40.343  70.080  1.00  0.00    -0.046 N 
HETATM   15  C   UNL     1      48.113  41.263  70.217  1.00  0.00     0.238 C 
ATOM     16  HN2 UNL     1      46.137  40.686  70.546  1.00  0.00     0.280 HD
ATOM     17  HN1 UNL     1      46.607  40.317  69.129  1.00  0.00     0.280 HD
HETATM   18  C   UNL     1      49.332  40.379  70.069  1.00  0.00     0.064 C 
HETATM   19  C   UNL     1      48.901  38.971  70.446  1.00  0.00     0.176 C 
BRANCH  19  20
HETATM   20  O   UNL     1      49.464  38.475  71.637  1.00  0.00    -0.391 OA
ATOM     21  HO  UNL     1      50.239  37.937  71.522  1.00  0.00     0.210 HD
ENDBRANCH  19  20
ENDBRANCH  12  13
ENDBRANCH   7  12
BRANCH   4  22
HETATM   22  O   UNL     1      41.615  36.580  65.237  1.00  0.00    -0.360 OA
ATOM     23  HO  UNL     1      41.416  35.925  64.578  1.00  0.00     0.217 HD
ENDBRANCH   4  22
BRANCH   2  24
HETATM   24  C   UNL     1      43.748  34.697  64.551  1.00  0.00     0.039 C 
HETATM   25  C   UNL     1      44.277  33.744  63.885  1.00  0.00     0.150 C 
BRANCH  25  26
HETATM   26  O   UNL     1      43.679  32.755  63.109  1.00  0.00    -0.252 OA
BRANCH  26  27
HETATM   27  P   UNL     1      42.495  32.204  62.192  1.00  0.00     0.426 P 
HETATM   28  O   UNL     1      42.160  30.713  62.269  1.00  0.00    -0.617 OA
HETATM   29  O   UNL     1      41.099  32.698  62.420  1.00  0.00    -0.617 OA
HETATM   30  O   UNL     1      42.973  32.485  60.765  1.00  0.00    -0.617 OA
ENDBRANCH  26  27
ENDBRANCH  25  26
ENDBRANCH   2  24
TORSDOF 7
ENDMDL
MODEL 7
REMARK VINA RESULT:      -5.0      4.466      8.169
REMARK  7 active torsions:
REMARK  status: ('A' for Active; 'I' for Inactive)
REMARK    1  A    between atoms: C_2  and  C_28 
REMARK    2  A    between atoms: C_3  and  O_19 
REMARK    3  A    between atoms: O_4  and  C_17 
REMARK    4  A    between atoms: C_12  and  O_26 
REMARK    5  A    between atoms: C_16  and  O_22 
REMARK    6  A    between atoms: P_18  and  O_19 
REMARK    7  A    between atoms: C_20  and  O_22 
ROOT
HETATM    1  C   UNL     1      45.842  35.393  66.342  1.00  0.00    -0.006 C 
HETATM    2  C   UNL     1      47.295  37.292  66.458  1.00  0.00    -0.001 C 
HETATM    3  C   UNL     1      44.931  37.585  66.057  1.00  0.00     0.067 C 
HETATM    4  C   UNL     1      46.128  38.088  66.576  1.00  0.00     0.078 C 
HETATM    5  N   UNL     1      44.184  35.657  64.670  1.00  0.00    -0.316 N 
ATOM      6  HN  UNL     1      43.603  36.241  64.068  1.00  0.00     0.170 HD
HETATM    7  C   UNL     1      44.236  34.331  64.467  1.00  0.00     0.267 C 
HETATM    8  O   UNL     1      44.731  33.485  65.386  1.00  0.00    -0.312 OA
HETATM    9  C   UNL     1      45.385  33.995  66.548  1.00  0.00     0.220 C 
HETATM   10  C   UNL     1      47.142  35.891  66.535  1.00  0.00     0.026 C 
HETATM   11  C   UNL     1      44.916  36.234  65.695  1.00  0.00     0.046 C 
ENDROOT
BRANCH   7  12
HETATM   12  O   UNL     1      43.761  33.827  63.366  1.00  0.00    -0.280 OA
BRANCH  12  13
HETATM   13  C   UNL     1      43.020  32.646  63.206  1.00  0.00     0.359 C 
HETATM   14  N   UNL     1      43.877  31.529  62.855  1.00  0.00    -0.046 N 
HETATM   15  C   UNL     1      43.234  30.770  61.774  1.00  0.00     0.238 C 
ATOM     16  HN2 UNL     1      44.109  30.946  63.658  1.00  0.00     0.280 HD
ATOM     17  HN1 UNL     1      44.825  31.822  62.617  1.00  0.00     0.280 HD
HETATM   18  C   UNL     1      42.423  31.802  61.020  1.00  0.00     0.064 C 
HETATM   19  C   UNL     1      42.145  32.936  61.992  1.00  0.00     0.176 C 
BRANCH  19  20
HETATM   20  O   UNL     1      40.798  33.076  62.374  1.00  0.00    -0.391 OA
ATOM     21  HO  UNL     1      40.172  33.040  61.660  1.00  0.00     0.210 HD
ENDBRANCH  19  20
ENDBRANCH  12  13
ENDBRANCH   7  12
BRANCH   4  22
HETATM   22  O   UNL     1      46.172  39.241  67.267  1.00  0.00    -0.360 OA
ATOM     23  HO  UNL     1      45.886  40.050  66.858  1.00  0.00     0.217 HD
ENDBRANCH   4  22
BRANCH   2  24
HETATM   24  C   UNL     1      48.547  37.973  66.120  1.00  0.00     0.039 C 
HETATM   25  C   UNL     1      49.333  38.326  65.177  1.00  0.00     0.150 C 
BRANCH  25  26
HETATM   26  O   UNL     1      50.706  38.556  65.194  1.00  0.00    -0.252 OA
BRANCH  26  27
HETATM   27  P   UNL     1      52.123  38.584  65.929  1.00  0.00     0.426 P 
HETATM   28  O   UNL     1      53.100  39.702  65.562  1.00  0.00    -0.617 OA
HETATM   29  O   UNL     1      52.177  38.796  67.411  1.00  0.00    -0.617 OA
HETATM   30  O   UNL     1      52.776  37.261  65.519  1.00  0.00    -0.617 OA
ENDBRANCH  26  27
ENDBRANCH  25  26
ENDBRANCH   2  24
TORSDOF 7
ENDMDL
MODEL 8
REMARK VINA RESULT:      -4.9      5.066      9.405
REMARK  7 active torsions:
REMARK  status: ('A' for Active; 'I' for Inactive)
REMARK    1  A    between atoms: C_2  and  C_28 
REMARK    2  A    between atoms: C_3  and  O_19 
REMARK    3  A    between atoms: O_4  and  C_17 
REMARK    4  A    between atoms: C_12  and  O_26 
REMARK    5  A    between atoms: C_16  and  O_22 
REMARK    6  A    between atoms: P_18  and  O_19 
REMARK    7  A    between atoms: C_20  and  O_22 
ROOT
HETATM    1  C   UNL     1      50.468  37.684  64.334  1.00  0.00    -0.006 C 
HETATM    2  C   UNL     1      52.002  38.467  65.996  1.00  0.00    -0.001 C 
HETATM    3  C   UNL     1      51.403  36.130  65.891  1.00  0.00     0.067 C 
HETATM    4  C   UNL     1      52.346  37.110  66.217  1.00  0.00     0.078 C 
HETATM    5  N   UNL     1      49.015  36.021  65.193  1.00  0.00    -0.316 N 
ATOM      6  HN  UNL     1      48.793  35.284  65.863  1.00  0.00     0.170 HD
HETATM    7  C   UNL     1      48.062  36.487  64.371  1.00  0.00     0.267 C 
HETATM    8  O   UNL     1      48.351  37.226  63.286  1.00  0.00    -0.312 OA
HETATM    9  C   UNL     1      49.685  37.691  63.073  1.00  0.00     0.220 C 
HETATM   10  C   UNL     1      51.178  38.763  64.890  1.00  0.00     0.026 C 
HETATM   11  C   UNL     1      50.299  36.538  65.136  1.00  0.00     0.046 C 
ENDROOT
BRANCH   7  12
HETATM   12  O   UNL     1      46.816  36.191  64.593  1.00  0.00    -0.280 OA
BRANCH  12  13
HETATM   13  C   UNL     1      45.833  36.988  65.201  1.00  0.00     0.359 C 
HETATM   14  N   UNL     1      46.326  38.327  65.459  1.00  0.00    -0.046 N 
HETATM   15  C   UNL     1      45.913  38.724  66.812  1.00  0.00     0.238 C 
ATOM     16  HN2 UNL     1      46.032  38.996  64.748  1.00  0.00     0.280 HD
ATOM     17  HN1 UNL     1      47.333  38.408  65.319  1.00  0.00     0.280 HD
HETATM   18  C   UNL     1      45.839  37.423  67.580  1.00  0.00     0.064 C 
HETATM   19  C   UNL     1      45.624  36.321  66.556  1.00  0.00     0.176 C 
BRANCH  19  20
HETATM   20  O   UNL     1      44.364  35.695  66.611  1.00  0.00    -0.391 OA
ATOM     21  HO  UNL     1      43.994  35.463  65.767  1.00  0.00     0.210 HD
ENDBRANCH  19  20
ENDBRANCH  12  13
ENDBRANCH   7  12
BRANCH   4  22
HETATM   22  O   UNL     1      53.587  36.791  66.625  1.00  0.00    -0.360 OA
ATOM     23  HO  UNL     1      53.707  36.191  67.352  1.00  0.00     0.217 HD
ENDBRANCH   4  22
BRANCH   2  24
HETATM   24  C   UNL     1      52.406  39.440  67.014  1.00  0.00     0.039 C 
HETATM   25  C   UNL     1      52.406  39.724  68.259  1.00  0.00     0.150 C 
BRANCH  25  26
HETATM   26  O   UNL     1      52.448  40.961  68.896  1.00  0.00    -0.252 OA
BRANCH  26  27
HETATM   27  P   UNL     1      51.905  42.021  69.959  1.00  0.00     0.426 P 
HETATM   28  O   UNL     1      50.976  43.129  69.459  1.00  0.00    -0.617 OA
HETATM   29  O   UNL     1      51.020  41.555  71.074  1.00  0.00    -0.617 OA
HETATM   30  O   UNL     1      53.173  42.699  70.484  1.00  0.00    -0.617 OA
ENDBRANCH  26  27
ENDBRANCH  25  26
ENDBRANCH   2  24
TORSDOF 7
ENDMDL
MODEL 9
REMARK VINA RESULT:      -4.8      4.799      8.926
REMARK  7 active torsions:
REMARK  status: ('A' for Active; 'I' for Inactive)
REMARK    1  A    between atoms: C_2  and  C_28 
REMARK    2  A    between atoms: C_3  and  O_19 
REMARK    3  A    between atoms: O_4  and  C_17 
REMARK    4  A    between atoms: C_12  and  O_26 
REMARK    5  A    between atoms: C_16  and  O_22 
REMARK    6  A    between atoms: P_18  and  O_19 
REMARK    7  A    between atoms: C_20  and  O_22 
ROOT
HETATM    1  C   UNL     1      47.266  38.413  68.731  1.00  0.00    -0.006 C 
HETATM    2  C   UNL     1      47.944  40.300  70.038  1.00  0.00    -0.001 C 
HETATM    3  C   UNL     1      46.317  38.737  70.900  1.00  0.00     0.067 C 
HETATM    4  C   UNL     1      47.339  39.658  71.148  1.00  0.00     0.078 C 
HETATM    5  N   UNL     1      44.951  37.967  68.966  1.00  0.00    -0.316 N 
ATOM      6  HN  UNL     1      44.076  38.024  69.488  1.00  0.00     0.170 HD
HETATM    7  C   UNL     1      44.944  37.547  67.692  1.00  0.00     0.267 C 
HETATM    8  O   UNL     1      46.067  37.170  67.055  1.00  0.00    -0.312 OA
HETATM    9  C   UNL     1      47.339  37.376  67.670  1.00  0.00     0.220 C 
HETATM   10  C   UNL     1      48.071  39.560  68.843  1.00  0.00     0.026 C 
HETATM   11  C   UNL     1      46.143  38.324  69.576  1.00  0.00     0.046 C 
ENDROOT
BRANCH   7  12
HETATM   12  O   UNL     1      43.818  37.457  67.047  1.00  0.00    -0.280 OA
BRANCH  12  13
HETATM   13  C   UNL     1      43.222  36.308  66.505  1.00  0.00     0.359 C 
HETATM   14  N   UNL     1      44.144  35.592  65.643  1.00  0.00    -0.046 N 
HETATM   15  C   UNL     1      43.429  35.194  64.424  1.00  0.00     0.238 C 
ATOM     16  HN2 UNL     1      44.586  34.803  66.113  1.00  0.00     0.280 HD
ATOM     17  HN1 UNL     1      44.989  36.127  65.444  1.00  0.00     0.280 HD
HETATM   18  C   UNL     1      42.371  36.261  64.242  1.00  0.00     0.064 C 
HETATM   19  C   UNL     1      42.119  36.867  65.612  1.00  0.00     0.176 C 
BRANCH  19  20
HETATM   20  O   UNL     1      40.852  36.593  66.160  1.00  0.00    -0.391 OA
ATOM     21  HO  UNL     1      40.854  36.361  67.082  1.00  0.00     0.210 HD
ENDBRANCH  19  20
ENDBRANCH  12  13
ENDBRANCH   7  12
BRANCH   4  22
HETATM   22  O   UNL     1      47.825  39.862  72.386  1.00  0.00    -0.360 OA
ATOM     23  HO  UNL     1      47.396  39.463  73.134  1.00  0.00     0.217 HD
ENDBRANCH   4  22
BRANCH   2  24
HETATM   24  C   UNL     1      48.258  41.724  70.169  1.00  0.00     0.039 C 
HETATM   25  C   UNL     1      47.794  42.886  70.425  1.00  0.00     0.150 C 
BRANCH  25  26
HETATM   26  O   UNL     1      48.237  44.139  70.009  1.00  0.00    -0.252 OA
BRANCH  26  27
HETATM   27  P   UNL     1      48.653  45.185  68.877  1.00  0.00     0.426 P 
HETATM   28  O   UNL     1      49.740  44.773  67.883  1.00  0.00    -0.617 OA
HETATM   29  O   UNL     1      47.641  45.600  67.854  1.00  0.00    -0.617 OA
HETATM   30  O   UNL     1      49.191  46.383  69.663  1.00  0.00    -0.617 OA
ENDBRANCH  26  27
ENDBRANCH  25  26
ENDBRANCH   2  24
TORSDOF 7
ENDMDL
