MODEL 1
REMARK VINA RESULT:      -6.9      0.000      0.000
REMARK  2 active torsions:
REMARK  status: ('A' for Active; 'I' for Inactive)
REMARK    1  A    between atoms: C_1  and  O_10 
REMARK    2  A    between atoms: O_10  and  P_13 
ROOT
HETATM    1  C   UNL     1      15.496  46.432 -51.009  1.00  0.00     0.062 C 
HETATM    2  C   UNL     1      16.001  46.762 -48.587  1.00  0.00     0.029 C 
HETATM    3  C   UNL     1      16.429  45.321 -46.349  1.00  0.00     0.011 C 
HETATM    4  C   UNL     1      16.255  46.438 -43.996  1.00  0.00     0.001 C 
HETATM    5  C   UNL     1      16.357  46.940 -49.959  1.00  0.00     0.061 C 
HETATM    6  C   UNL     1      13.451  46.886 -48.977  1.00  0.00     0.123 C 
HETATM    7  C   UNL     1      14.899  45.203 -46.153  1.00  0.00     0.014 C 
HETATM    8  C   UNL     1      16.912  45.927 -47.674  1.00  0.00     0.007 C 
HETATM    9  C   UNL     1      14.573  45.276 -50.706  1.00  0.00     0.067 C 
HETATM   10  C   UNL     1      13.402  45.613 -49.808  1.00  0.00     0.026 C 
HETATM   11  C   UNL     1      14.262  46.552 -45.717  1.00  0.00     0.004 C 
HETATM   12  C   UNL     1      14.946  47.085 -44.434  1.00  0.00     0.006 C 
HETATM   13  N   UNL     1      14.665  47.050 -48.132  1.00  0.00    -0.381 N 
HETATM   14  C   UNL     1      14.387  47.655 -46.805  1.00  0.00     0.127 C 
HETATM   15  C   UNL     1      17.132  45.868 -45.101  1.00  0.00     0.009 C 
ENDROOT
BRANCH   1  16
HETATM   16  O   UNL     1      15.479  46.999 -52.199  1.00  0.00    -0.244 OA
BRANCH  16  17
HETATM   17  P   UNL     1      15.913  46.489 -53.661  1.00  0.00     0.427 P 
HETATM   18  O   UNL     1      15.787  47.635 -54.635  1.00  0.00    -0.617 OA
HETATM   19  O   UNL     1      14.943  45.400 -54.098  1.00  0.00    -0.617 OA
HETATM   20  O   UNL     1      17.347  46.005 -53.568  1.00  0.00    -0.617 OA
ENDBRANCH  16  17
ENDBRANCH   1  16
TORSDOF 2
ENDMDL
MODEL 2
REMARK VINA RESULT:      -6.7      1.052      2.625
REMARK  2 active torsions:
REMARK  status: ('A' for Active; 'I' for Inactive)
REMARK    1  A    between atoms: C_1  and  O_10 
REMARK    2  A    between atoms: O_10  and  P_13 
ROOT
HETATM    1  C   UNL     1      14.526  46.768 -51.452  1.00  0.00     0.062 C 
HETATM    2  C   UNL     1      14.314  46.410 -48.992  1.00  0.00     0.029 C 
HETATM    3  C   UNL     1      14.005  47.821 -46.716  1.00  0.00     0.011 C 
HETATM    4  C   UNL     1      14.526  46.738 -44.399  1.00  0.00     0.001 C 
HETATM    5  C   UNL     1      13.830  46.193 -50.318  1.00  0.00     0.061 C 
HETATM    6  C   UNL     1      16.809  46.506 -49.653  1.00  0.00     0.123 C 
HETATM    7  C   UNL     1      15.530  48.074 -46.685  1.00  0.00     0.014 C 
HETATM    8  C   UNL     1      13.437  47.167 -47.983  1.00  0.00     0.007 C 
HETATM    9  C   UNL     1      15.372  48.002 -51.247  1.00  0.00     0.067 C 
HETATM   10  C   UNL     1      16.657  47.774 -50.480  1.00  0.00     0.026 C 
HETATM   11  C   UNL     1      16.326  46.788 -46.324  1.00  0.00     0.004 C 
HETATM   12  C   UNL     1      15.832  46.205 -44.977  1.00  0.00     0.006 C 
HETATM   13  N   UNL     1      15.712  46.242 -48.684  1.00  0.00    -0.381 N 
HETATM   14  C   UNL     1      16.182  45.672 -47.397  1.00  0.00     0.127 C 
HETATM   15  C   UNL     1      13.489  47.223 -45.402  1.00  0.00     0.009 C 
ENDROOT
BRANCH   1  16
HETATM   16  O   UNL     1      14.465  46.198 -52.640  1.00  0.00    -0.244 OA
BRANCH  16  17
HETATM   17  P   UNL     1      15.436  46.229 -53.921  1.00  0.00     0.427 P 
HETATM   18  O   UNL     1      16.852  45.971 -53.467  1.00  0.00    -0.617 OA
HETATM   19  O   UNL     1      15.390  47.626 -54.526  1.00  0.00    -0.617 OA
HETATM   20  O   UNL     1      14.963  45.151 -54.878  1.00  0.00    -0.617 OA
ENDBRANCH  16  17
ENDBRANCH   1  16
TORSDOF 2
ENDMDL
MODEL 3
REMARK VINA RESULT:      -6.7      5.077      7.917
REMARK  2 active torsions:
REMARK  status: ('A' for Active; 'I' for Inactive)
REMARK    1  A    between atoms: C_1  and  O_10 
REMARK    2  A    between atoms: O_10  and  P_13 
ROOT
HETATM    1  C   UNL     1      15.165  46.505 -52.276  1.00  0.00     0.062 C 
HETATM    2  C   UNL     1      16.561  48.214 -53.440  1.00  0.00     0.029 C 
HETATM    3  C   UNL     1      16.390  50.006 -55.447  1.00  0.00     0.011 C 
HETATM    4  C   UNL     1      18.547  51.011 -56.520  1.00  0.00     0.001 C 
HETATM    5  C   UNL     1      15.952  47.722 -52.246  1.00  0.00     0.061 C 
HETATM    6  C   UNL     1      16.970  45.888 -54.485  1.00  0.00     0.123 C 
HETATM    7  C   UNL     1      16.688  48.875 -56.460  1.00  0.00     0.014 C 
HETATM    8  C   UNL     1      16.139  49.584 -53.993  1.00  0.00     0.007 C 
HETATM    9  C   UNL     1      14.525  46.076 -53.574  1.00  0.00     0.067 C 
HETATM   10  C   UNL     1      15.490  45.565 -54.623  1.00  0.00     0.026 C 
HETATM   11  C   UNL     1      18.168  48.406 -56.388  1.00  0.00     0.004 C 
HETATM   12  C   UNL     1      19.128  49.604 -56.594  1.00  0.00     0.006 C 
HETATM   13  N   UNL     1      17.295  47.329 -54.309  1.00  0.00    -0.381 N 
HETATM   14  C   UNL     1      18.526  47.751 -55.023  1.00  0.00     0.127 C 
HETATM   15  C   UNL     1      17.339  51.198 -55.613  1.00  0.00     0.009 C 
ENDROOT
BRANCH   1  16
HETATM   16  O   UNL     1      15.047  45.752 -51.199  1.00  0.00    -0.244 OA
BRANCH  16  17
HETATM   17  P   UNL     1      13.778  45.136 -50.428  1.00  0.00     0.427 P 
HETATM   18  O   UNL     1      12.637  46.120 -50.502  1.00  0.00    -0.617 OA
HETATM   19  O   UNL     1      14.145  44.961 -48.961  1.00  0.00    -0.617 OA
HETATM   20  O   UNL     1      13.420  43.830 -51.111  1.00  0.00    -0.617 OA
ENDBRANCH  16  17
ENDBRANCH   1  16
TORSDOF 2
ENDMDL
MODEL 4
REMARK VINA RESULT:      -6.6      4.726      6.552
REMARK  2 active torsions:
REMARK  status: ('A' for Active; 'I' for Inactive)
REMARK    1  A    between atoms: C_1  and  O_10 
REMARK    2  A    between atoms: O_10  and  P_13 
ROOT
HETATM    1  C   UNL     1      17.339  49.568 -55.854  1.00  0.00     0.062 C 
HETATM    2  C   UNL     1      15.794  48.693 -54.101  1.00  0.00     0.029 C 
HETATM    3  C   UNL     1      15.853  47.759 -51.573  1.00  0.00     0.011 C 
HETATM    4  C   UNL     1      13.846  46.393 -50.613  1.00  0.00     0.001 C 
HETATM    5  C   UNL     1      16.199  49.746 -54.977  1.00  0.00     0.061 C 
HETATM    6  C   UNL     1      16.515  46.775 -55.673  1.00  0.00     0.123 C 
HETATM    7  C   UNL     1      16.247  46.364 -52.115  1.00  0.00     0.014 C 
HETATM    8  C   UNL     1      15.842  48.915 -52.581  1.00  0.00     0.007 C 
HETATM    9  C   UNL     1      18.407  48.570 -55.478  1.00  0.00     0.067 C 
HETATM   10  C   UNL     1      17.995  47.118 -55.599  1.00  0.00     0.026 C 
HETATM   11  C   UNL     1      15.061  45.665 -52.836  1.00  0.00     0.004 C 
HETATM   12  C   UNL     1      13.834  45.569 -51.895  1.00  0.00     0.006 C 
HETATM   13  N   UNL     1      15.673  47.341 -54.585  1.00  0.00    -0.381 N 
HETATM   14  C   UNL     1      14.607  46.419 -54.118  1.00  0.00     0.127 C 
HETATM   15  C   UNL     1      14.627  47.699 -50.654  1.00  0.00     0.009 C 
ENDROOT
BRANCH   1  16
HETATM   16  O   UNL     1      17.424  50.232 -56.991  1.00  0.00    -0.244 OA
BRANCH  16  17
HETATM   17  P   UNL     1      16.484  50.296 -58.294  1.00  0.00     0.427 P 
HETATM   18  O   UNL     1      15.222  51.049 -57.949  1.00  0.00    -0.617 OA
HETATM   19  O   UNL     1      16.087  48.875 -58.672  1.00  0.00    -0.617 OA
HETATM   20  O   UNL     1      17.263  51.006 -59.384  1.00  0.00    -0.617 OA
ENDBRANCH  16  17
ENDBRANCH   1  16
TORSDOF 2
ENDMDL
MODEL 5
REMARK VINA RESULT:      -6.5      3.280      5.011
REMARK  2 active torsions:
REMARK  status: ('A' for Active; 'I' for Inactive)
REMARK    1  A    between atoms: C_1  and  O_10 
REMARK    2  A    between atoms: O_10  and  P_13 
ROOT
HETATM    1  C   UNL     1      16.977  48.533 -54.782  1.00  0.00     0.062 C 
HETATM    2  C   UNL     1      15.664  48.073 -52.711  1.00  0.00     0.029 C 
HETATM    3  C   UNL     1      16.046  47.439 -50.118  1.00  0.00     0.011 C 
HETATM    4  C   UNL     1      14.093  46.464 -48.687  1.00  0.00     0.001 C 
HETATM    5  C   UNL     1      16.027  48.956 -53.773  1.00  0.00     0.061 C 
HETATM    6  C   UNL     1      15.899  45.908 -54.100  1.00  0.00     0.123 C 
HETATM    7  C   UNL     1      16.190  45.953 -50.520  1.00  0.00     0.014 C 
HETATM    8  C   UNL     1      15.990  48.463 -51.261  1.00  0.00     0.007 C 
HETATM    9  C   UNL     1      17.980  47.456 -54.441  1.00  0.00     0.067 C 
HETATM   10  C   UNL     1      17.399  46.066 -54.300  1.00  0.00     0.026 C 
HETATM   11  C   UNL     1      14.831  45.332 -50.950  1.00  0.00     0.004 C 
HETATM   12  C   UNL     1      13.777  45.504 -49.828  1.00  0.00     0.006 C 
HETATM   13  N   UNL     1      15.318  46.701 -52.983  1.00  0.00    -0.381 N 
HETATM   14  C   UNL     1      14.253  45.984 -52.238  1.00  0.00     0.127 C 
HETATM   15  C   UNL     1      14.992  47.644 -49.024  1.00  0.00     0.009 C 
ENDROOT
BRANCH   1  16
HETATM   16  O   UNL     1      16.941  49.043 -55.998  1.00  0.00    -0.244 OA
BRANCH  16  17
HETATM   17  P   UNL     1      16.066  48.702 -57.302  1.00  0.00     0.427 P 
HETATM   18  O   UNL     1      16.027  47.204 -57.486  1.00  0.00    -0.617 OA
HETATM   19  O   UNL     1      16.760  49.300 -58.518  1.00  0.00    -0.617 OA
HETATM   20  O   UNL     1      14.674  49.261 -57.077  1.00  0.00    -0.617 OA
ENDBRANCH  16  17
ENDBRANCH   1  16
TORSDOF 2
ENDMDL
MODEL 6
REMARK VINA RESULT:      -6.5      3.768      5.685
REMARK  2 active torsions:
REMARK  status: ('A' for Active; 'I' for Inactive)
REMARK    1  A    between atoms: C_1  and  O_10 
REMARK    2  A    between atoms: O_10  and  P_13 
ROOT
HETATM    1  C   UNL     1      16.488  47.799 -55.818  1.00  0.00     0.062 C 
HETATM    2  C   UNL     1      15.887  46.334 -53.890  1.00  0.00     0.029 C 
HETATM    3  C   UNL     1      13.846  45.893 -52.185  1.00  0.00     0.011 C 
HETATM    4  C   UNL     1      14.232  44.584 -49.960  1.00  0.00     0.001 C 
HETATM    5  C   UNL     1      16.268  46.481 -55.258  1.00  0.00     0.061 C 
HETATM    6  C   UNL     1      17.190  48.401 -53.050  1.00  0.00     0.123 C 
HETATM    7  C   UNL     1      14.343  47.070 -51.312  1.00  0.00     0.014 C 
HETATM    8  C   UNL     1      14.527  45.707 -53.547  1.00  0.00     0.007 C 
HETATM    9  C   UNL     1      15.803  48.988 -55.188  1.00  0.00     0.067 C 
HETATM   10  C   UNL     1      16.344  49.393 -53.834  1.00  0.00     0.026 C 
HETATM   11  C   UNL     1      15.655  46.720 -50.557  1.00  0.00     0.004 C 
HETATM   12  C   UNL     1      15.468  45.439 -49.708  1.00  0.00     0.006 C 
HETATM   13  N   UNL     1      16.580  47.058 -52.854  1.00  0.00    -0.381 N 
HETATM   14  C   UNL     1      16.853  46.472 -51.517  1.00  0.00     0.127 C 
HETATM   15  C   UNL     1      13.672  44.603 -51.375  1.00  0.00     0.009 C 
ENDROOT
BRANCH   1  16
HETATM   16  O   UNL     1      17.312  47.971 -56.834  1.00  0.00    -0.244 OA
BRANCH  16  17
HETATM   17  P   UNL     1      18.807  48.552 -56.944  1.00  0.00     0.427 P 
HETATM   18  O   UNL     1      19.434  48.045 -58.220  1.00  0.00    -0.617 OA
HETATM   19  O   UNL     1      19.622  48.009 -55.779  1.00  0.00    -0.617 OA
HETATM   20  O   UNL     1      18.708  50.066 -56.947  1.00  0.00    -0.617 OA
ENDBRANCH  16  17
ENDBRANCH   1  16
TORSDOF 2
ENDMDL
MODEL 7
REMARK VINA RESULT:      -6.4      4.316      6.716
REMARK  2 active torsions:
REMARK  status: ('A' for Active; 'I' for Inactive)
REMARK    1  A    between atoms: C_1  and  O_10 
REMARK    2  A    between atoms: O_10  and  P_13 
ROOT
HETATM    1  C   UNL     1      14.356  46.761 -48.052  1.00  0.00     0.062 C 
HETATM    2  C   UNL     1      15.443  46.077 -50.191  1.00  0.00     0.029 C 
HETATM    3  C   UNL     1      16.956  47.115 -52.166  1.00  0.00     0.011 C 
HETATM    4  C   UNL     1      17.166  45.892 -54.463  1.00  0.00     0.001 C 
HETATM    5  C   UNL     1      15.292  45.926 -48.779  1.00  0.00     0.061 C 
HETATM    6  C   UNL     1      12.989  46.754 -50.630  1.00  0.00     0.123 C 
HETATM    7  C   UNL     1      15.674  47.666 -52.835  1.00  0.00     0.014 C 
HETATM    8  C   UNL     1      16.800  46.516 -50.762  1.00  0.00     0.007 C 
HETATM    9  C   UNL     1      13.976  48.107 -48.621  1.00  0.00     0.067 C 
HETATM   10  C   UNL     1      13.090  48.055 -49.847  1.00  0.00     0.026 C 
HETATM   11  C   UNL     1      14.813  46.534 -53.463  1.00  0.00     0.004 C 
HETATM   12  C   UNL     1      15.653  45.707 -54.467  1.00  0.00     0.006 C 
HETATM   13  N   UNL     1      14.288  46.160 -51.049  1.00  0.00    -0.381 N 
HETATM   14  C   UNL     1      14.252  45.547 -52.400  1.00  0.00     0.127 C 
HETATM   15  C   UNL     1      17.798  46.273 -53.132  1.00  0.00     0.009 C 
ENDROOT
BRANCH   1  16
HETATM   16  O   UNL     1      13.803  46.336 -46.932  1.00  0.00    -0.244 OA
BRANCH  16  17
HETATM   17  P   UNL     1      14.011  46.733 -45.389  1.00  0.00     0.427 P 
HETATM   18  O   UNL     1      12.793  46.306 -44.606  1.00  0.00    -0.617 OA
HETATM   19  O   UNL     1      14.116  48.249 -45.291  1.00  0.00    -0.617 OA
HETATM   20  O   UNL     1      15.255  46.017 -44.897  1.00  0.00    -0.617 OA
ENDBRANCH  16  17
ENDBRANCH   1  16
TORSDOF 2
ENDMDL
MODEL 8
REMARK VINA RESULT:      -6.3      3.039      4.107
REMARK  2 active torsions:
REMARK  status: ('A' for Active; 'I' for Inactive)
REMARK    1  A    between atoms: C_1  and  O_10 
REMARK    2  A    between atoms: O_10  and  P_13 
ROOT
HETATM    1  C   UNL     1      16.960  48.351 -53.789  1.00  0.00     0.062 C 
HETATM    2  C   UNL     1      15.756  49.274 -51.808  1.00  0.00     0.029 C 
HETATM    3  C   UNL     1      16.222  49.974 -49.246  1.00  0.00     0.011 C 
HETATM    4  C   UNL     1      14.245  50.269 -47.568  1.00  0.00     0.001 C 
HETATM    5  C   UNL     1      16.190  49.407 -53.162  1.00  0.00     0.061 C 
HETATM    6  C   UNL     1      15.472  46.708 -51.891  1.00  0.00     0.123 C 
HETATM    7  C   UNL     1      16.055  48.493 -48.829  1.00  0.00     0.014 C 
HETATM    8  C   UNL     1      16.265  50.267 -50.752  1.00  0.00     0.007 C 
HETATM    9  C   UNL     1      17.770  47.418 -52.921  1.00  0.00     0.067 C 
HETATM   10  C   UNL     1      16.954  46.437 -52.105  1.00  0.00     0.026 C 
HETATM   11  C   UNL     1      14.575  48.028 -48.916  1.00  0.00     0.004 C 
HETATM   12  C   UNL     1      13.665  48.950 -48.067  1.00  0.00     0.006 C 
HETATM   13  N   UNL     1      15.141  48.054 -51.350  1.00  0.00    -0.381 N 
HETATM   14  C   UNL     1      14.025  48.041 -50.371  1.00  0.00     0.127 C 
HETATM   15  C   UNL     1      15.317  50.909 -48.437  1.00  0.00     0.009 C 
ENDROOT
BRANCH   1  16
HETATM   16  O   UNL     1      16.921  48.173 -55.095  1.00  0.00    -0.244 OA
BRANCH  16  17
HETATM   17  P   UNL     1      16.560  46.906 -56.017  1.00  0.00     0.427 P 
HETATM   18  O   UNL     1      16.066  47.401 -57.355  1.00  0.00    -0.617 OA
HETATM   19  O   UNL     1      15.421  46.140 -55.358  1.00  0.00    -0.617 OA
HETATM   20  O   UNL     1      17.822  46.080 -56.171  1.00  0.00    -0.617 OA
ENDBRANCH  16  17
ENDBRANCH   1  16
TORSDOF 2
ENDMDL
MODEL 9
REMARK VINA RESULT:      -6.3      2.154      3.490
REMARK  2 active torsions:
REMARK  status: ('A' for Active; 'I' for Inactive)
REMARK    1  A    between atoms: C_1  and  O_10 
REMARK    2  A    between atoms: O_10  and  P_13 
ROOT
HETATM    1  C   UNL     1      16.419  46.779 -52.046  1.00  0.00     0.062 C 
HETATM    2  C   UNL     1      14.731  47.871 -50.567  1.00  0.00     0.029 C 
HETATM    3  C   UNL     1      14.566  49.798 -48.689  1.00  0.00     0.011 C 
HETATM    4  C   UNL     1      12.506  49.924 -47.092  1.00  0.00     0.001 C 
HETATM    5  C   UNL     1      15.196  47.539 -51.876  1.00  0.00     0.061 C 
HETATM    6  C   UNL     1      15.641  45.735 -49.435  1.00  0.00     0.123 C 
HETATM    7  C   UNL     1      15.040  48.779 -47.626  1.00  0.00     0.014 C 
HETATM    8  C   UNL     1      14.627  49.347 -50.155  1.00  0.00     0.007 C 
HETATM    9  C   UNL     1      17.467  46.821 -50.960  1.00  0.00     0.067 C 
HETATM   10  C   UNL     1      17.099  46.084 -49.690  1.00  0.00     0.026 C 
HETATM   11  C   UNL     1      13.944  47.726 -47.301  1.00  0.00     0.004 C 
HETATM   12  C   UNL     1      12.635  48.424 -46.857  1.00  0.00     0.006 C 
HETATM   13  N   UNL     1      14.686  46.872 -49.529  1.00  0.00    -0.381 N 
HETATM   14  C   UNL     1      13.601  46.821 -48.518  1.00  0.00     0.127 C 
HETATM   15  C   UNL     1      13.259  50.490 -48.287  1.00  0.00     0.009 C 
ENDROOT
BRANCH   1  16
HETATM   16  O   UNL     1      16.598  46.021 -53.111  1.00  0.00    -0.244 OA
BRANCH  16  17
HETATM   17  P   UNL     1      16.164  46.176 -54.651  1.00  0.00     0.427 P 
HETATM   18  O   UNL     1      17.298  45.705 -55.528  1.00  0.00    -0.617 OA
HETATM   19  O   UNL     1      15.935  47.653 -54.941  1.00  0.00    -0.617 OA
HETATM   20  O   UNL     1      14.922  45.330 -54.861  1.00  0.00    -0.617 OA
ENDBRANCH  16  17
ENDBRANCH   1  16
TORSDOF 2
ENDMDL
