MODEL 1
REMARK VINA RESULT:     -13.1      0.000      0.000
REMARK  3 active torsions:
REMARK  status: ('A' for Active; 'I' for Inactive)
REMARK    1  A    between atoms: C_8  and  O_15 
REMARK    2  A    between atoms: C_8  and  O_23 
REMARK    3  A    between atoms: C_22  and  C_38 
ROOT
HETATM    1  C   UNL     1      49.108  -1.160 133.463  1.00  0.00     0.095 C 
HETATM    2  C   UNL     1      42.065   0.752 138.470  1.00  0.00     0.019 C 
HETATM    3  C   UNL     1      49.033  -3.347 132.491  1.00  0.00     0.087 C 
HETATM    4  C   UNL     1      43.088   2.540 136.298  1.00  0.00    -0.021 C 
HETATM    5  C   UNL     1      42.212   0.898 134.778  1.00  0.00     0.195 C 
HETATM    6  C   UNL     1      42.991   3.344 137.412  1.00  0.00     0.013 C 
HETATM    7  C   UNL     1      46.204   2.051 133.080  1.00  0.00    -0.046 C 
HETATM    8  C   UNL     1      43.197   0.822 132.462  1.00  0.00     0.220 C 
HETATM    9  C   UNL     1      42.382   1.355 136.100  1.00  0.00     0.025 C 
HETATM   10  C   UNL     1      44.528   1.046 131.773  1.00  0.00    -0.006 C 
HETATM   11  C   UNL     1      42.030   0.497 137.125  1.00  0.00     0.017 C 
HETATM   12  C   UNL     1      46.841   0.408 130.790  1.00  0.00     0.024 C 
HETATM   13  C   UNL     1      43.063   2.952 138.731  1.00  0.00     0.019 C 
HETATM   14  C   UNL     1      44.045   2.900 135.346  1.00  0.00     0.024 C 
HETATM   15  C   UNL     1      44.807   3.544 131.700  1.00  0.00     0.049 C 
HETATM   16  C   UNL     1      47.683  -0.624 131.548  1.00  0.00    -0.046 C 
HETATM   17  C   UNL     1      48.252  -3.055 131.396  1.00  0.00     0.018 C 
HETATM   18  O   UNL     1      41.125   0.349 134.370  1.00  0.00    -0.287 OA
HETATM   19  N   UNL     1      49.390  -2.446 133.414  1.00  0.00    -0.375 N 
ATOM     20  HN  UNL     1      49.958  -2.803 134.183  1.00  0.00     0.164 HD
HETATM   21  C   UNL     1      48.513   1.170 133.149  1.00  0.00     0.050 C 
HETATM   22  C   UNL     1      43.294   1.142 133.933  1.00  0.00     0.069 C 
HETATM   23  C   UNL     1      48.433  -0.260 132.678  1.00  0.00    -0.035 C 
HETATM   24  C   UNL     1      45.765   1.527 134.320  1.00  0.00     0.020 C 
HETATM   25  C   UNL     1      47.702  -1.876 130.994  1.00  0.00     0.009 C 
HETATM   26  C   UNL     1      47.451   1.792 130.966  1.00  0.00     0.019 C 
HETATM   27  C   UNL     1      44.350   1.834 134.513  1.00  0.00    -0.019 C 
HETATM   28  C   UNL     1      47.556   2.120 132.451  1.00  0.00     0.024 C 
HETATM   29  C   UNL     1      45.338   0.126 130.996  1.00  0.00     0.050 C 
HETATM   30  C   UNL     1      45.174   2.186 132.194  1.00  0.00    -0.047 C 
HETATM   31  C   UNL     1      42.558   1.775 139.227  1.00  0.00     0.040 C 
ENDROOT
BRANCH   8  32
HETATM   32  O   UNL     1      42.712  -0.403 132.144  1.00  0.00    -0.358 OA
ATOM     33  HO  UNL     1      41.766  -0.409 132.231  1.00  0.00     0.213 HD
ENDBRANCH   8  32
BRANCH   8  34
HETATM   34  O   UNL     1      42.213   1.537 131.859  1.00  0.00    -0.358 OA
ATOM     35  HO  UNL     1      42.512   2.413 131.645  1.00  0.00     0.213 HD
ENDBRANCH   8  34
BRANCH  31  36
HETATM   36  C   UNL     1      42.462   1.706 140.714  1.00  0.00     0.209 C 
HETATM   37  O   UNL     1      41.846   2.593 141.326  1.00  0.00    -0.644 OA
HETATM   38  O   UNL     1      43.091   0.799 141.273  1.00  0.00    -0.644 OA
ENDBRANCH  31  36
TORSDOF 3
ENDMDL
