REMARK  3 active torsions:
REMARK  status: ('A' for Active; 'I' for Inactive)
REMARK    1  A    between atoms: C_3  and  C_9 
REMARK    2  A    between atoms: C_9  and  C_23 
REMARK    3  A    between atoms: N_12  and  C_26 
ROOT
HETATM    1  C   UNL     1      11.468  18.464  -9.554  1.00  0.00     0.134 C 
HETATM    2  C   UNL     1       9.473  18.790  -6.637  1.00  0.00    -0.052 C 
HETATM    3  C   UNL     1       9.061  18.132  -9.043  1.00  0.00     0.070 C 
HETATM    4  O   UNL     1      13.459  18.623 -10.843  1.00  0.00    -0.273 OA
HETATM    5  C   UNL     1       7.200  18.509  -7.471  1.00  0.00     0.010 C 
HETATM    6  C   UNL     1      12.487  17.939 -10.519  1.00  0.00     0.225 C 
HETATM    7  C   UNL     1       9.322  19.838  -5.744  1.00  0.00     0.010 C 
HETATM    8  C   UNL     1       8.167  20.480  -5.370  1.00  0.00     0.029 C 
HETATM    9  N   UNL     1      12.366  16.636 -10.949  1.00  0.00    -0.317 N 
ATOM     10  HN  UNL     1      13.124  16.240 -11.505  1.00  0.00     0.170 HD
HETATM   11  C   UNL     1       6.464  19.323  -6.641  1.00  0.00     0.029 C 
HETATM   12  C   UNL     1      10.703  17.941  -6.515  1.00  0.00     0.041 C 
HETATM   13  C   UNL     1      11.289  15.845 -10.673  1.00  0.00     0.084 C 
HETATM   14  N   UNL     1      10.302  16.300  -9.946  1.00  0.00    -0.369 N 
ATOM     15  HN  UNL     1       9.397  15.834 -10.007  1.00  0.00     0.161 HD
HETATM   16  C   UNL     1       6.933  20.451  -5.988  1.00  0.00     0.025 C 
HETATM   17  C   UNL     1      10.878  16.963  -7.664  1.00  0.00     0.036 C 
HETATM   18  C   UNL     1       8.564  18.530  -7.675  1.00  0.00    -0.049 C 
HETATM   19  C   UNL     1      10.439  17.454  -9.044  1.00  0.00     0.043 C 
ENDROOT
BRANCH  13  20
HETATM   20  C   UNL     1      11.187  14.477 -11.299  1.00  0.00     0.115 C 
BRANCH  20  21
HETATM   21  C   UNL     1      10.248  14.424 -12.488  1.00  0.00    -0.051 C 
HETATM   22  C   UNL     1       8.859  14.483 -12.310  1.00  0.00     0.014 C 
HETATM   23  C   UNL     1       8.028  14.092 -13.372  1.00  0.00    -0.061 C 
HETATM   24  C   UNL     1       6.674  13.502 -13.139  1.00  0.00     0.048 C 
HETATM   25  C   UNL     1       8.543  14.095 -14.664  1.00  0.00     0.007 C 
HETATM   26  C   UNL     1       9.916  14.063 -14.856  1.00  0.00     0.001 C 
HETATM   27  C   UNL     1      10.766  14.248 -13.768  1.00  0.00     0.007 C 
ENDBRANCH  20  21
ENDBRANCH  13  20
BRANCH  16  28
HETATM   28  N   UNL     1       6.108  21.516  -5.819  1.00  0.00    -0.399 N 
ATOM     29  HN2 UNL     1       6.453  22.347  -5.338  1.00  0.00     0.156 HD
ATOM     30  HN1 UNL     1       5.196  21.495  -6.276  1.00  0.00     0.156 HD
ENDBRANCH  16  28
TORSDOF 3
