MODEL 1
REMARK VINA RESULT:      -9.7      0.000      0.000
REMARK  10 active torsions:
REMARK  status: ('A' for Active; 'I' for Inactive)
REMARK    1  A    between atoms: O_2  and  C_6 
REMARK    2  A    between atoms: O_2  and  C_10 
REMARK    3  A    between atoms: O_3  and  C_22 
REMARK    4  A    between atoms: C_5  and  C_8 
REMARK    5  A    between atoms: C_8  and  C_11 
REMARK    6  A    between atoms: C_8  and  O_18 
REMARK    7  A    between atoms: C_10  and  C_12 
REMARK    8  A    between atoms: C_11  and  C_28 
REMARK    9  A    between atoms: O_13  and  C_29 
REMARK   10  A    between atoms: O_16  and  C_27 
REMARK       I    between atoms: C_28  and  N_32 
ROOT
HETATM    1  C   UNL     1    -126.452 -60.408 -27.310  1.00  0.00     0.070 C 
HETATM    2  C   UNL     1    -128.725 -60.196 -28.267  1.00  0.00     0.142 C 
HETATM    3  C   UNL     1    -127.140 -58.382 -28.314  1.00  0.00     0.258 C 
HETATM    4  C   UNL     1    -127.618 -61.189 -27.871  1.00  0.00     0.086 C 
HETATM    5  O   UNL     1    -127.145 -58.602 -31.068  1.00  0.00    -0.273 OA
HETATM    6  O   UNL     1    -127.211 -57.176 -28.224  1.00  0.00    -0.267 OA
HETATM    7  C   UNL     1    -126.081 -59.196 -27.756  1.00  0.00     0.036 C 
HETATM    8  C   UNL     1    -127.904 -59.289 -30.417  1.00  0.00     0.229 C 
HETATM    9  C   UNL     1    -124.741 -58.554 -27.490  1.00  0.00     0.056 C 
HETATM   10  N   UNL     1    -128.007 -59.159 -29.063  1.00  0.00    -0.284 N 
ENDROOT
BRANCH   1  11
HETATM   11  O   UNL     1    -125.652 -61.158 -26.476  1.00  0.00    -0.278 OA
BRANCH  11  12
HETATM   12  C   UNL     1    -125.963 -61.359 -25.177  1.00  0.00     0.304 C 
HETATM   13  O   UNL     1    -126.576 -60.562 -24.488  1.00  0.00    -0.259 OA
BRANCH  12  14
HETATM   14  C   UNL     1    -125.451 -62.631 -24.629  1.00  0.00     0.108 C 
HETATM   15  C   UNL     1    -124.460 -62.641 -23.647  1.00  0.00     0.085 C 
HETATM   16  C   UNL     1    -124.350 -63.709 -22.770  1.00  0.00     0.040 C 
HETATM   17  C   UNL     1    -125.226 -64.777 -22.888  1.00  0.00     0.042 C 
HETATM   18  C   UNL     1    -126.027 -64.890 -24.027  1.00  0.00     0.100 C 
HETATM   19  C   UNL     1    -126.176 -63.795 -24.864  1.00  0.00     0.118 C 
BRANCH  15  20
HETATM   20  O   UNL     1    -123.518 -61.633 -23.598  1.00  0.00    -0.360 OA
ATOM     21  HO  UNL     1    -122.701 -61.764 -23.133  1.00  0.00     0.217 HD
ENDBRANCH  15  20
BRANCH  18  22
HETATM   22  O   UNL     1    -126.705 -66.042 -24.277  1.00  0.00    -0.358 OA
ATOM     23  HO  UNL     1    -126.740 -66.397 -25.157  1.00  0.00     0.217 HD
ENDBRANCH  18  22
BRANCH  19  24
HETATM   24  O   UNL     1    -127.120 -63.861 -25.861  1.00  0.00    -0.357 OA
ATOM     25  HO  UNL     1    -128.024 -63.617 -25.702  1.00  0.00     0.217 HD
ENDBRANCH  19  24
ENDBRANCH  12  14
ENDBRANCH  11  12
ENDBRANCH   1  11
BRANCH   8  26
HETATM   26  C   UNL     1    -128.721 -60.388 -31.056  1.00  0.00     0.142 C 
BRANCH  26  27
HETATM   27  C   UNL     1    -129.050 -60.137 -32.515  1.00  0.00     0.188 C 
BRANCH  27  28
HETATM   28  C   UNL     1    -130.339 -60.753 -32.958  1.00  0.00     0.113 C 
HETATM   29  C   UNL     1    -130.716 -62.032 -32.819  1.00  0.00     0.054 C 
HETATM   30  F   UNL     1    -131.092 -59.923 -33.651  1.00  0.00    -0.209 F 
ENDBRANCH  27  28
BRANCH  27  31
HETATM   31  O   UNL     1    -127.991 -60.567 -33.344  1.00  0.00    -0.388 OA
ATOM     32  HO  UNL     1    -128.264 -61.308 -33.872  1.00  0.00     0.210 HD
ENDBRANCH  27  31
ENDBRANCH  26  27
ENDBRANCH   8  26
TORSDOF 10
ENDMDL
MODEL 2
REMARK VINA RESULT:      -9.7      0.871      1.786
REMARK  10 active torsions:
REMARK  status: ('A' for Active; 'I' for Inactive)
REMARK    1  A    between atoms: O_2  and  C_6 
REMARK    2  A    between atoms: O_2  and  C_10 
REMARK    3  A    between atoms: O_3  and  C_22 
REMARK    4  A    between atoms: C_5  and  C_8 
REMARK    5  A    between atoms: C_8  and  C_11 
REMARK    6  A    between atoms: C_8  and  O_18 
REMARK    7  A    between atoms: C_10  and  C_12 
REMARK    8  A    between atoms: C_11  and  C_28 
REMARK    9  A    between atoms: O_13  and  C_29 
REMARK   10  A    between atoms: O_16  and  C_27 
REMARK       I    between atoms: C_28  and  N_32 
ROOT
HETATM    1  C   UNL     1    -126.557 -60.370 -27.236  1.00  0.00     0.070 C 
HETATM    2  C   UNL     1    -128.749 -60.159 -28.367  1.00  0.00     0.142 C 
HETATM    3  C   UNL     1    -127.135 -58.371 -28.357  1.00  0.00     0.258 C 
HETATM    4  C   UNL     1    -127.691 -61.153 -27.855  1.00  0.00     0.086 C 
HETATM    5  O   UNL     1    -126.940 -58.689 -31.095  1.00  0.00    -0.273 OA
HETATM    6  O   UNL     1    -127.192 -57.162 -28.315  1.00  0.00    -0.267 OA
HETATM    7  C   UNL     1    -126.134 -59.180 -27.694  1.00  0.00     0.036 C 
HETATM    8  C   UNL     1    -127.757 -59.342 -30.479  1.00  0.00     0.229 C 
HETATM    9  C   UNL     1    -124.806 -58.548 -27.353  1.00  0.00     0.056 C 
HETATM   10  N   UNL     1    -127.957 -59.162 -29.142  1.00  0.00    -0.284 N 
ENDROOT
BRANCH   1  11
HETATM   11  O   UNL     1    -125.834 -61.101 -26.319  1.00  0.00    -0.278 OA
BRANCH  11  12
HETATM   12  C   UNL     1    -126.104 -61.058 -24.996  1.00  0.00     0.304 C 
HETATM   13  O   UNL     1    -126.180 -60.030 -24.346  1.00  0.00    -0.259 OA
BRANCH  12  14
HETATM   14  C   UNL     1    -126.262 -62.387 -24.375  1.00  0.00     0.108 C 
HETATM   15  C   UNL     1    -127.262 -63.263 -24.801  1.00  0.00     0.085 C 
HETATM   16  C   UNL     1    -127.111 -64.633 -24.643  1.00  0.00     0.040 C 
HETATM   17  C   UNL     1    -125.962 -65.124 -24.043  1.00  0.00     0.042 C 
HETATM   18  C   UNL     1    -125.100 -64.247 -23.380  1.00  0.00     0.100 C 
HETATM   19  C   UNL     1    -125.224 -62.883 -23.592  1.00  0.00     0.118 C 
BRANCH  15  20
HETATM   20  O   UNL     1    -128.453 -62.772 -25.296  1.00  0.00    -0.360 OA
ATOM     21  HO  UNL     1    -129.023 -63.329 -25.812  1.00  0.00     0.217 HD
ENDBRANCH  15  20
BRANCH  18  22
HETATM   22  O   UNL     1    -124.110 -64.731 -22.584  1.00  0.00    -0.358 OA
ATOM     23  HO  UNL     1    -123.287 -65.018 -22.962  1.00  0.00     0.217 HD
ENDBRANCH  18  22
BRANCH  19  24
HETATM   24  O   UNL     1    -124.246 -62.056 -23.093  1.00  0.00    -0.357 OA
ATOM     25  HO  UNL     1    -124.133 -61.171 -23.421  1.00  0.00     0.217 HD
ENDBRANCH  19  24
ENDBRANCH  12  14
ENDBRANCH  11  12
ENDBRANCH   1  11
BRANCH   8  26
HETATM   26  C   UNL     1    -128.543 -60.451 -31.139  1.00  0.00     0.142 C 
BRANCH  26  27
HETATM   27  C   UNL     1    -128.972 -60.136 -32.559  1.00  0.00     0.188 C 
BRANCH  27  28
HETATM   28  C   UNL     1    -130.284 -60.744 -32.942  1.00  0.00     0.113 C 
HETATM   29  C   UNL     1    -130.681 -62.009 -32.742  1.00  0.00     0.054 C 
HETATM   30  F   UNL     1    -131.042 -59.927 -33.646  1.00  0.00    -0.209 F 
ENDBRANCH  27  28
BRANCH  27  31
HETATM   31  O   UNL     1    -127.970 -60.517 -33.477  1.00  0.00    -0.388 OA
ATOM     32  HO  UNL     1    -127.113 -60.468 -33.069  1.00  0.00     0.210 HD
ENDBRANCH  27  31
ENDBRANCH  26  27
ENDBRANCH   8  26
TORSDOF 10
ENDMDL
MODEL 3
REMARK VINA RESULT:      -9.0      3.246      8.510
REMARK  10 active torsions:
REMARK  status: ('A' for Active; 'I' for Inactive)
REMARK    1  A    between atoms: O_2  and  C_6 
REMARK    2  A    between atoms: O_2  and  C_10 
REMARK    3  A    between atoms: O_3  and  C_22 
REMARK    4  A    between atoms: C_5  and  C_8 
REMARK    5  A    between atoms: C_8  and  C_11 
REMARK    6  A    between atoms: C_8  and  O_18 
REMARK    7  A    between atoms: C_10  and  C_12 
REMARK    8  A    between atoms: C_11  and  C_28 
REMARK    9  A    between atoms: O_13  and  C_29 
REMARK   10  A    between atoms: O_16  and  C_27 
REMARK       I    between atoms: C_28  and  N_32 
ROOT
HETATM    1  C   UNL     1    -126.565 -60.663 -26.900  1.00  0.00     0.070 C 
HETATM    2  C   UNL     1    -126.124 -60.469 -24.472  1.00  0.00     0.142 C 
HETATM    3  C   UNL     1    -127.839 -61.914 -25.352  1.00  0.00     0.258 C 
HETATM    4  C   UNL     1    -125.520 -60.287 -25.876  1.00  0.00     0.086 C 
HETATM    5  O   UNL     1    -126.379 -64.047 -24.375  1.00  0.00    -0.273 OA
HETATM    6  O   UNL     1    -128.941 -62.261 -24.987  1.00  0.00    -0.267 OA
HETATM    7  C   UNL     1    -127.463 -61.647 -26.724  1.00  0.00     0.036 C 
HETATM    8  C   UNL     1    -126.007 -62.917 -24.139  1.00  0.00     0.229 C 
HETATM    9  C   UNL     1    -128.265 -62.290 -27.830  1.00  0.00     0.056 C 
HETATM   10  N   UNL     1    -126.736 -61.828 -24.520  1.00  0.00    -0.284 N 
ENDROOT
BRANCH   1  11
HETATM   11  O   UNL     1    -126.352 -60.078 -28.129  1.00  0.00    -0.278 OA
BRANCH  11  12
HETATM   12  C   UNL     1    -127.288 -59.310 -28.728  1.00  0.00     0.304 C 
HETATM   13  O   UNL     1    -127.799 -58.329 -28.216  1.00  0.00    -0.259 OA
BRANCH  12  14
HETATM   14  C   UNL     1    -127.686 -59.788 -30.067  1.00  0.00     0.108 C 
HETATM   15  C   UNL     1    -129.026 -60.031 -30.371  1.00  0.00     0.085 C 
HETATM   16  C   UNL     1    -129.475 -59.954 -31.681  1.00  0.00     0.040 C 
HETATM   17  C   UNL     1    -128.575 -59.648 -32.690  1.00  0.00     0.042 C 
HETATM   18  C   UNL     1    -127.204 -59.676 -32.423  1.00  0.00     0.100 C 
HETATM   19  C   UNL     1    -126.768 -59.693 -31.107  1.00  0.00     0.118 C 
BRANCH  15  20
HETATM   20  O   UNL     1    -129.900 -60.444 -29.386  1.00  0.00    -0.360 OA
ATOM     21  HO  UNL     1    -130.751 -60.032 -29.297  1.00  0.00     0.217 HD
ENDBRANCH  15  20
BRANCH  18  22
HETATM   22  O   UNL     1    -126.306 -59.622 -33.443  1.00  0.00    -0.358 OA
ATOM     23  HO  UNL     1    -126.514 -59.150 -34.241  1.00  0.00     0.217 HD
ENDBRANCH  18  22
BRANCH  19  24
HETATM   24  O   UNL     1    -125.427 -59.517 -30.864  1.00  0.00    -0.357 OA
ATOM     25  HO  UNL     1    -125.114 -59.202 -30.024  1.00  0.00     0.217 HD
ENDBRANCH  19  24
ENDBRANCH  12  14
ENDBRANCH  11  12
ENDBRANCH   1  11
BRANCH   8  26
HETATM   26  C   UNL     1    -124.674 -62.644 -23.482  1.00  0.00     0.142 C 
BRANCH  26  27
HETATM   27  C   UNL     1    -123.906 -63.898 -23.111  1.00  0.00     0.188 C 
BRANCH  27  28
HETATM   28  C   UNL     1    -124.385 -64.548 -21.852  1.00  0.00     0.113 C 
HETATM   29  C   UNL     1    -123.775 -64.550 -20.658  1.00  0.00     0.054 C 
HETATM   30  F   UNL     1    -125.471 -65.273 -22.030  1.00  0.00    -0.209 F 
ENDBRANCH  27  28
BRANCH  27  31
HETATM   31  O   UNL     1    -122.524 -63.628 -23.027  1.00  0.00    -0.388 OA
ATOM     32  HO  UNL     1    -122.340 -63.075 -22.277  1.00  0.00     0.210 HD
ENDBRANCH  27  31
ENDBRANCH  26  27
ENDBRANCH   8  26
TORSDOF 10
ENDMDL
MODEL 4
REMARK VINA RESULT:      -8.7      1.371      2.467
REMARK  10 active torsions:
REMARK  status: ('A' for Active; 'I' for Inactive)
REMARK    1  A    between atoms: O_2  and  C_6 
REMARK    2  A    between atoms: O_2  and  C_10 
REMARK    3  A    between atoms: O_3  and  C_22 
REMARK    4  A    between atoms: C_5  and  C_8 
REMARK    5  A    between atoms: C_8  and  C_11 
REMARK    6  A    between atoms: C_8  and  O_18 
REMARK    7  A    between atoms: C_10  and  C_12 
REMARK    8  A    between atoms: C_11  and  C_28 
REMARK    9  A    between atoms: O_13  and  C_29 
REMARK   10  A    between atoms: O_16  and  C_27 
REMARK       I    between atoms: C_28  and  N_32 
ROOT
HETATM    1  C   UNL     1    -127.808 -61.192 -27.636  1.00  0.00     0.070 C 
HETATM    2  C   UNL     1    -129.329 -60.092 -29.251  1.00  0.00     0.142 C 
HETATM    3  C   UNL     1    -127.279 -59.063 -28.515  1.00  0.00     0.258 C 
HETATM    4  C   UNL     1    -128.895 -61.444 -28.655  1.00  0.00     0.086 C 
HETATM    5  O   UNL     1    -126.377 -59.270 -31.118  1.00  0.00    -0.273 OA
HETATM    6  O   UNL     1    -126.922 -57.928 -28.285  1.00  0.00    -0.267 OA
HETATM    7  C   UNL     1    -126.878 -60.230 -27.759  1.00  0.00     0.036 C 
HETATM    8  C   UNL     1    -127.517 -59.596 -30.858  1.00  0.00     0.229 C 
HETATM    9  C   UNL     1    -125.587 -60.175 -26.978  1.00  0.00     0.056 C 
HETATM   10  N   UNL     1    -128.042 -59.431 -29.610  1.00  0.00    -0.284 N 
ENDROOT
BRANCH   1  11
HETATM   11  O   UNL     1    -127.704 -62.196 -26.698  1.00  0.00    -0.278 OA
BRANCH  11  12
HETATM   12  C   UNL     1    -127.871 -61.962 -25.379  1.00  0.00     0.304 C 
HETATM   13  O   UNL     1    -128.893 -61.517 -24.886  1.00  0.00    -0.259 OA
BRANCH  12  14
HETATM   14  C   UNL     1    -126.676 -62.255 -24.563  1.00  0.00     0.108 C 
HETATM   15  C   UNL     1    -126.009 -63.476 -24.682  1.00  0.00     0.085 C 
HETATM   16  C   UNL     1    -124.662 -63.575 -24.368  1.00  0.00     0.040 C 
HETATM   17  C   UNL     1    -123.986 -62.451 -23.919  1.00  0.00     0.042 C 
HETATM   18  C   UNL     1    -124.708 -61.315 -23.544  1.00  0.00     0.100 C 
HETATM   19  C   UNL     1    -126.038 -61.202 -23.916  1.00  0.00     0.118 C 
BRANCH  15  20
HETATM   20  O   UNL     1    -126.704 -64.619 -25.022  1.00  0.00    -0.360 OA
ATOM     21  HO  UNL     1    -126.588 -65.014 -25.877  1.00  0.00     0.217 HD
ENDBRANCH  15  20
BRANCH  18  22
HETATM   22  O   UNL     1    -124.093 -60.302 -22.876  1.00  0.00    -0.358 OA
ATOM     23  HO  UNL     1    -123.158 -60.161 -22.973  1.00  0.00     0.217 HD
ENDBRANCH  18  22
BRANCH  19  24
HETATM   24  O   UNL     1    -126.670 -59.998 -23.715  1.00  0.00    -0.357 OA
ATOM     25  HO  UNL     1    -126.649 -59.313 -24.372  1.00  0.00     0.217 HD
ENDBRANCH  19  24
ENDBRANCH  12  14
ENDBRANCH  11  12
ENDBRANCH   1  11
BRANCH   8  26
HETATM   26  C   UNL     1    -128.397 -60.279 -31.879  1.00  0.00     0.142 C 
BRANCH  26  27
HETATM   27  C   UNL     1    -128.279 -59.698 -33.275  1.00  0.00     0.188 C 
BRANCH  27  28
HETATM   28  C   UNL     1    -129.589 -59.569 -33.987  1.00  0.00     0.113 C 
HETATM   29  C   UNL     1    -130.800 -59.415 -33.434  1.00  0.00     0.054 C 
HETATM   30  F   UNL     1    -129.484 -59.745 -35.289  1.00  0.00    -0.209 F 
ENDBRANCH  27  28
BRANCH  27  31
HETATM   31  O   UNL     1    -127.372 -60.451 -34.051  1.00  0.00    -0.388 OA
ATOM     32  HO  UNL     1    -127.796 -61.229 -34.393  1.00  0.00     0.210 HD
ENDBRANCH  27  31
ENDBRANCH  26  27
ENDBRANCH   8  26
TORSDOF 10
ENDMDL
MODEL 5
REMARK VINA RESULT:      -8.3      3.241      8.324
REMARK  10 active torsions:
REMARK  status: ('A' for Active; 'I' for Inactive)
REMARK    1  A    between atoms: O_2  and  C_6 
REMARK    2  A    between atoms: O_2  and  C_10 
REMARK    3  A    between atoms: O_3  and  C_22 
REMARK    4  A    between atoms: C_5  and  C_8 
REMARK    5  A    between atoms: C_8  and  C_11 
REMARK    6  A    between atoms: C_8  and  O_18 
REMARK    7  A    between atoms: C_10  and  C_12 
REMARK    8  A    between atoms: C_11  and  C_28 
REMARK    9  A    between atoms: O_13  and  C_29 
REMARK   10  A    between atoms: O_16  and  C_27 
REMARK       I    between atoms: C_28  and  N_32 
ROOT
HETATM    1  C   UNL     1    -126.679 -60.778 -27.137  1.00  0.00     0.070 C 
HETATM    2  C   UNL     1    -126.158 -60.603 -24.723  1.00  0.00     0.142 C 
HETATM    3  C   UNL     1    -127.995 -61.928 -25.545  1.00  0.00     0.258 C 
HETATM    4  C   UNL     1    -125.582 -60.472 -26.145  1.00  0.00     0.086 C 
HETATM    5  O   UNL     1    -126.663 -64.153 -24.592  1.00  0.00    -0.273 OA
HETATM    6  O   UNL     1    -129.107 -62.193 -25.147  1.00  0.00    -0.267 OA
HETATM    7  C   UNL     1    -127.640 -61.695 -26.928  1.00  0.00     0.036 C 
HETATM    8  C   UNL     1    -126.205 -63.051 -24.376  1.00  0.00     0.229 C 
HETATM    9  C   UNL     1    -128.516 -62.285 -28.007  1.00  0.00     0.056 C 
HETATM   10  N   UNL     1    -126.865 -61.915 -24.744  1.00  0.00    -0.284 N 
ENDROOT
BRANCH   1  11
HETATM   11  O   UNL     1    -126.460 -60.216 -28.376  1.00  0.00    -0.278 OA
BRANCH  11  12
HETATM   12  C   UNL     1    -127.201 -59.185 -28.834  1.00  0.00     0.304 C 
HETATM   13  O   UNL     1    -127.584 -58.256 -28.145  1.00  0.00    -0.259 OA
BRANCH  12  14
HETATM   14  C   UNL     1    -127.557 -59.293 -30.263  1.00  0.00     0.108 C 
HETATM   15  C   UNL     1    -126.567 -59.351 -31.245  1.00  0.00     0.085 C 
HETATM   16  C   UNL     1    -126.820 -59.966 -32.463  1.00  0.00     0.040 C 
HETATM   17  C   UNL     1    -128.072 -60.510 -32.701  1.00  0.00     0.042 C 
HETATM   18  C   UNL     1    -129.129 -60.213 -31.837  1.00  0.00     0.100 C 
HETATM   19  C   UNL     1    -128.858 -59.653 -30.599  1.00  0.00     0.118 C 
BRANCH  15  20
HETATM   20  O   UNL     1    -125.358 -58.714 -31.054  1.00  0.00    -0.360 OA
ATOM     21  HO  UNL     1    -124.646 -58.844 -31.668  1.00  0.00     0.217 HD
ENDBRANCH  15  20
BRANCH  18  22
HETATM   22  O   UNL     1    -130.406 -60.530 -32.183  1.00  0.00    -0.358 OA
ATOM     23  HO  UNL     1    -130.576 -61.088 -32.933  1.00  0.00     0.217 HD
ENDBRANCH  18  22
BRANCH  19  24
HETATM   24  O   UNL     1    -129.884 -59.556 -29.690  1.00  0.00    -0.357 OA
ATOM     25  HO  UNL     1    -130.793 -59.573 -29.966  1.00  0.00     0.217 HD
ENDBRANCH  19  24
ENDBRANCH  12  14
ENDBRANCH  11  12
ENDBRANCH   1  11
BRANCH   8  26
HETATM   26  C   UNL     1    -124.838 -62.870 -23.758  1.00  0.00     0.142 C 
BRANCH  26  27
HETATM   27  C   UNL     1    -124.175 -64.170 -23.346  1.00  0.00     0.188 C 
BRANCH  27  28
HETATM   28  C   UNL     1    -124.575 -64.647 -21.986  1.00  0.00     0.113 C 
HETATM   29  C   UNL     1    -123.874 -64.532 -20.848  1.00  0.00     0.054 C 
HETATM   30  F   UNL     1    -125.693 -65.344 -21.995  1.00  0.00    -0.209 F 
ENDBRANCH  27  28
BRANCH  27  31
HETATM   31  O   UNL     1    -122.770 -64.061 -23.434  1.00  0.00    -0.388 OA
ATOM     32  HO  UNL     1    -122.440 -63.489 -22.751  1.00  0.00     0.210 HD
ENDBRANCH  27  31
ENDBRANCH  26  27
ENDBRANCH   8  26
TORSDOF 10
ENDMDL
MODEL 6
REMARK VINA RESULT:      -7.9      4.379      9.154
REMARK  10 active torsions:
REMARK  status: ('A' for Active; 'I' for Inactive)
REMARK    1  A    between atoms: O_2  and  C_6 
REMARK    2  A    between atoms: O_2  and  C_10 
REMARK    3  A    between atoms: O_3  and  C_22 
REMARK    4  A    between atoms: C_5  and  C_8 
REMARK    5  A    between atoms: C_8  and  C_11 
REMARK    6  A    between atoms: C_8  and  O_18 
REMARK    7  A    between atoms: C_10  and  C_12 
REMARK    8  A    between atoms: C_11  and  C_28 
REMARK    9  A    between atoms: O_13  and  C_29 
REMARK   10  A    between atoms: O_16  and  C_27 
REMARK       I    between atoms: C_28  and  N_32 
ROOT
HETATM    1  C   UNL     1    -125.903 -62.436 -24.334  1.00  0.00     0.070 C 
HETATM    2  C   UNL     1    -125.239 -64.788 -23.936  1.00  0.00     0.142 C 
HETATM    3  C   UNL     1    -123.709 -62.953 -23.621  1.00  0.00     0.258 C 
HETATM    4  C   UNL     1    -126.430 -63.816 -24.015  1.00  0.00     0.086 C 
HETATM    5  O   UNL     1    -123.675 -63.596 -20.935  1.00  0.00    -0.273 OA
HETATM    6  O   UNL     1    -122.521 -62.788 -23.788  1.00  0.00    -0.267 OA
HETATM    7  C   UNL     1    -124.731 -61.961 -23.878  1.00  0.00     0.036 C 
HETATM    8  C   UNL     1    -124.286 -64.305 -21.706  1.00  0.00     0.229 C 
HETATM    9  C   UNL     1    -124.341 -60.502 -23.862  1.00  0.00     0.056 C 
HETATM   10  N   UNL     1    -124.264 -64.087 -23.052  1.00  0.00    -0.284 N 
ENDROOT
BRANCH   1  11
HETATM   11  O   UNL     1    -126.844 -61.620 -24.922  1.00  0.00    -0.278 OA
BRANCH  11  12
HETATM   12  C   UNL     1    -127.417 -61.927 -26.106  1.00  0.00     0.304 C 
HETATM   13  O   UNL     1    -127.838 -63.033 -26.398  1.00  0.00    -0.259 OA
BRANCH  12  14
HETATM   14  C   UNL     1    -127.455 -60.802 -27.061  1.00  0.00     0.108 C 
HETATM   15  C   UNL     1    -126.282 -60.154 -27.452  1.00  0.00     0.085 C 
HETATM   16  C   UNL     1    -126.211 -59.505 -28.675  1.00  0.00     0.040 C 
HETATM   17  C   UNL     1    -127.324 -59.493 -29.502  1.00  0.00     0.042 C 
HETATM   18  C   UNL     1    -128.562 -59.899 -28.999  1.00  0.00     0.100 C 
HETATM   19  C   UNL     1    -128.613 -60.598 -27.804  1.00  0.00     0.118 C 
BRANCH  15  20
HETATM   20  O   UNL     1    -125.212 -60.069 -26.585  1.00  0.00    -0.360 OA
ATOM     21  HO  UNL     1    -124.938 -60.829 -26.085  1.00  0.00     0.217 HD
ENDBRANCH  15  20
BRANCH  18  22
HETATM   22  O   UNL     1    -129.699 -59.665 -29.708  1.00  0.00    -0.358 OA
ATOM     23  HO  UNL     1    -129.794 -58.866 -30.213  1.00  0.00     0.217 HD
ENDBRANCH  18  22
BRANCH  19  24
HETATM   24  O   UNL     1    -129.811 -61.161 -27.430  1.00  0.00    -0.357 OA
ATOM     25  HO  UNL     1    -130.138 -61.081 -26.541  1.00  0.00     0.217 HD
ENDBRANCH  19  24
ENDBRANCH  12  14
ENDBRANCH  11  12
ENDBRANCH   1  11
BRANCH   8  26
HETATM   26  C   UNL     1    -125.176 -65.424 -21.215  1.00  0.00     0.142 C 
BRANCH  26  27
HETATM   27  C   UNL     1    -124.557 -66.260 -20.112  1.00  0.00     0.188 C 
BRANCH  27  28
HETATM   28  C   UNL     1    -125.555 -66.836 -19.158  1.00  0.00     0.113 C 
HETATM   29  C   UNL     1    -126.448 -67.805 -19.406  1.00  0.00     0.054 C 
HETATM   30  F   UNL     1    -125.584 -66.203 -18.002  1.00  0.00    -0.209 F 
ENDBRANCH  27  28
BRANCH  27  31
HETATM   31  O   UNL     1    -123.583 -65.516 -19.412  1.00  0.00    -0.388 OA
ATOM     32  HO  UNL     1    -123.998 -64.847 -18.879  1.00  0.00     0.210 HD
ENDBRANCH  27  31
ENDBRANCH  26  27
ENDBRANCH   8  26
TORSDOF 10
ENDMDL
MODEL 7
REMARK VINA RESULT:      -7.8      3.186      7.909
REMARK  10 active torsions:
REMARK  status: ('A' for Active; 'I' for Inactive)
REMARK    1  A    between atoms: O_2  and  C_6 
REMARK    2  A    between atoms: O_2  and  C_10 
REMARK    3  A    between atoms: O_3  and  C_22 
REMARK    4  A    between atoms: C_5  and  C_8 
REMARK    5  A    between atoms: C_8  and  C_11 
REMARK    6  A    between atoms: C_8  and  O_18 
REMARK    7  A    between atoms: C_10  and  C_12 
REMARK    8  A    between atoms: C_11  and  C_28 
REMARK    9  A    between atoms: O_13  and  C_29 
REMARK   10  A    between atoms: O_16  and  C_27 
REMARK       I    between atoms: C_28  and  N_32 
ROOT
HETATM    1  C   UNL     1    -127.444 -59.981 -27.823  1.00  0.00     0.070 C 
HETATM    2  C   UNL     1    -125.970 -61.640 -26.726  1.00  0.00     0.142 C 
HETATM    3  C   UNL     1    -125.487 -59.280 -26.700  1.00  0.00     0.258 C 
HETATM    4  C   UNL     1    -127.400 -61.368 -27.226  1.00  0.00     0.086 C 
HETATM    5  O   UNL     1    -125.844 -59.354 -23.962  1.00  0.00    -0.273 OA
HETATM    6  O   UNL     1    -124.479 -58.609 -26.737  1.00  0.00    -0.267 OA
HETATM    7  C   UNL     1    -126.735 -58.943 -27.352  1.00  0.00     0.036 C 
HETATM    8  C   UNL     1    -125.889 -60.389 -24.594  1.00  0.00     0.229 C 
HETATM    9  C   UNL     1    -127.014 -57.493 -27.670  1.00  0.00     0.056 C 
HETATM   10  N   UNL     1    -125.632 -60.423 -25.933  1.00  0.00    -0.284 N 
ENDROOT
BRANCH   1  11
HETATM   11  O   UNL     1    -128.466 -59.817 -28.733  1.00  0.00    -0.278 OA
BRANCH  11  12
HETATM   12  C   UNL     1    -128.610 -60.631 -29.801  1.00  0.00     0.304 C 
HETATM   13  O   UNL     1    -128.927 -61.805 -29.731  1.00  0.00    -0.259 OA
BRANCH  12  14
HETATM   14  C   UNL     1    -128.303 -59.982 -31.091  1.00  0.00     0.108 C 
HETATM   15  C   UNL     1    -127.028 -59.478 -31.354  1.00  0.00     0.085 C 
HETATM   16  C   UNL     1    -126.571 -59.366 -32.659  1.00  0.00     0.040 C 
HETATM   17  C   UNL     1    -127.400 -59.747 -33.703  1.00  0.00     0.042 C 
HETATM   18  C   UNL     1    -128.754 -59.989 -33.457  1.00  0.00     0.100 C 
HETATM   19  C   UNL     1    -129.187 -60.156 -32.151  1.00  0.00     0.118 C 
BRANCH  15  20
HETATM   20  O   UNL     1    -126.245 -58.995 -30.326  1.00  0.00    -0.360 OA
ATOM     21  HO  UNL     1    -125.917 -58.104 -30.351  1.00  0.00     0.217 HD
ENDBRANCH  15  20
BRANCH  18  22
HETATM   22  O   UNL     1    -129.625 -60.121 -34.492  1.00  0.00    -0.358 OA
ATOM     23  HO  UNL     1    -129.333 -60.477 -35.323  1.00  0.00     0.217 HD
ENDBRANCH  18  22
BRANCH  19  24
HETATM   24  O   UNL     1    -130.475 -60.590 -31.944  1.00  0.00    -0.357 OA
ATOM     25  HO  UNL     1    -130.709 -61.506 -32.038  1.00  0.00     0.217 HD
ENDBRANCH  19  24
ENDBRANCH  12  14
ENDBRANCH  11  12
ENDBRANCH   1  11
BRANCH   8  26
HETATM   26  C   UNL     1    -126.313 -61.690 -23.952  1.00  0.00     0.142 C 
BRANCH  26  27
HETATM   27  C   UNL     1    -125.217 -62.737 -23.908  1.00  0.00     0.188 C 
BRANCH  27  28
HETATM   28  C   UNL     1    -125.727 -64.142 -23.860  1.00  0.00     0.113 C 
HETATM   29  C   UNL     1    -126.595 -64.720 -24.703  1.00  0.00     0.054 C 
HETATM   30  F   UNL     1    -125.330 -64.795 -22.786  1.00  0.00    -0.209 F 
ENDBRANCH  27  28
BRANCH  27  31
HETATM   31  O   UNL     1    -124.343 -62.495 -22.827  1.00  0.00    -0.388 OA
ATOM     32  HO  UNL     1    -124.184 -61.563 -22.733  1.00  0.00     0.210 HD
ENDBRANCH  27  31
ENDBRANCH  26  27
ENDBRANCH   8  26
TORSDOF 10
ENDMDL
MODEL 8
REMARK VINA RESULT:      -7.1      3.162      7.836
REMARK  10 active torsions:
REMARK  status: ('A' for Active; 'I' for Inactive)
REMARK    1  A    between atoms: O_2  and  C_6 
REMARK    2  A    between atoms: O_2  and  C_10 
REMARK    3  A    between atoms: O_3  and  C_22 
REMARK    4  A    between atoms: C_5  and  C_8 
REMARK    5  A    between atoms: C_8  and  C_11 
REMARK    6  A    between atoms: C_8  and  O_18 
REMARK    7  A    between atoms: C_10  and  C_12 
REMARK    8  A    between atoms: C_11  and  C_28 
REMARK    9  A    between atoms: O_13  and  C_29 
REMARK   10  A    between atoms: O_16  and  C_27 
REMARK       I    between atoms: C_28  and  N_32 
ROOT
HETATM    1  C   UNL     1    -126.972 -59.871 -27.860  1.00  0.00     0.070 C 
HETATM    2  C   UNL     1    -125.585 -61.467 -26.574  1.00  0.00     0.142 C 
HETATM    3  C   UNL     1    -125.346 -59.081 -26.338  1.00  0.00     0.258 C 
HETATM    4  C   UNL     1    -126.911 -61.286 -27.334  1.00  0.00     0.086 C 
HETATM    5  O   UNL     1    -126.218 -59.369 -23.732  1.00  0.00    -0.273 OA
HETATM    6  O   UNL     1    -124.420 -58.326 -26.141  1.00  0.00    -0.267 OA
HETATM    7  C   UNL     1    -126.471 -58.809 -27.207  1.00  0.00     0.036 C 
HETATM    8  C   UNL     1    -126.040 -60.359 -24.410  1.00  0.00     0.229 C 
HETATM    9  C   UNL     1    -126.822 -57.370 -27.503  1.00  0.00     0.056 C 
HETATM   10  N   UNL     1    -125.526 -60.282 -25.671  1.00  0.00    -0.284 N 
ENDROOT
BRANCH   1  11
HETATM   11  O   UNL     1    -127.810 -59.734 -28.946  1.00  0.00    -0.278 OA
BRANCH  11  12
HETATM   12  C   UNL     1    -127.340 -59.703 -30.212  1.00  0.00     0.304 C 
HETATM   13  O   UNL     1    -126.182 -59.468 -30.508  1.00  0.00    -0.259 OA
BRANCH  12  14
HETATM   14  C   UNL     1    -128.375 -59.937 -31.239  1.00  0.00     0.108 C 
HETATM   15  C   UNL     1    -128.197 -59.493 -32.549  1.00  0.00     0.085 C 
HETATM   16  C   UNL     1    -128.842 -60.126 -33.601  1.00  0.00     0.040 C 
HETATM   17  C   UNL     1    -129.680 -61.199 -33.335  1.00  0.00     0.042 C 
HETATM   18  C   UNL     1    -130.065 -61.464 -32.019  1.00  0.00     0.100 C 
HETATM   19  C   UNL     1    -129.374 -60.869 -30.976  1.00  0.00     0.118 C 
BRANCH  15  20
HETATM   20  O   UNL     1    -127.454 -58.358 -32.805  1.00  0.00    -0.360 OA
ATOM     21  HO  UNL     1    -127.334 -58.055 -33.697  1.00  0.00     0.217 HD
ENDBRANCH  15  20
BRANCH  18  22
HETATM   22  O   UNL     1    -131.068 -62.346 -31.764  1.00  0.00    -0.358 OA
ATOM     23  HO  UNL     1    -131.130 -62.771 -30.916  1.00  0.00     0.217 HD
ENDBRANCH  18  22
BRANCH  19  24
HETATM   24  O   UNL     1    -129.635 -61.296 -29.696  1.00  0.00    -0.357 OA
ATOM     25  HO  UNL     1    -129.934 -62.181 -29.520  1.00  0.00     0.217 HD
ENDBRANCH  19  24
ENDBRANCH  12  14
ENDBRANCH  11  12
ENDBRANCH   1  11
BRANCH   8  26
HETATM   26  C   UNL     1    -126.453 -61.731 -23.930  1.00  0.00     0.142 C 
BRANCH  26  27
HETATM   27  C   UNL     1    -125.326 -62.746 -23.934  1.00  0.00     0.188 C 
BRANCH  27  28
HETATM   28  C   UNL     1    -125.793 -64.166 -23.981  1.00  0.00     0.113 C 
HETATM   29  C   UNL     1    -126.593 -64.726 -24.900  1.00  0.00     0.054 C 
HETATM   30  F   UNL     1    -125.436 -64.859 -22.919  1.00  0.00    -0.209 F 
ENDBRANCH  27  28
BRANCH  27  31
HETATM   31  O   UNL     1    -124.474 -62.547 -22.826  1.00  0.00    -0.388 OA
ATOM     32  HO  UNL     1    -123.695 -62.072 -23.089  1.00  0.00     0.210 HD
ENDBRANCH  27  31
ENDBRANCH  26  27
ENDBRANCH   8  26
TORSDOF 10
ENDMDL
MODEL 9
REMARK VINA RESULT:      -7.1      3.064      7.860
REMARK  10 active torsions:
REMARK  status: ('A' for Active; 'I' for Inactive)
REMARK    1  A    between atoms: O_2  and  C_6 
REMARK    2  A    between atoms: O_2  and  C_10 
REMARK    3  A    between atoms: O_3  and  C_22 
REMARK    4  A    between atoms: C_5  and  C_8 
REMARK    5  A    between atoms: C_8  and  C_11 
REMARK    6  A    between atoms: C_8  and  O_18 
REMARK    7  A    between atoms: C_10  and  C_12 
REMARK    8  A    between atoms: C_11  and  C_28 
REMARK    9  A    between atoms: O_13  and  C_29 
REMARK   10  A    between atoms: O_16  and  C_27 
REMARK       I    between atoms: C_28  and  N_32 
ROOT
HETATM    1  C   UNL     1    -127.404 -59.441 -28.130  1.00  0.00     0.070 C 
HETATM    2  C   UNL     1    -125.946 -61.152 -27.094  1.00  0.00     0.142 C 
HETATM    3  C   UNL     1    -125.457 -58.797 -26.956  1.00  0.00     0.258 C 
HETATM    4  C   UNL     1    -127.370 -60.854 -27.596  1.00  0.00     0.086 C 
HETATM    5  O   UNL     1    -125.843 -58.994 -24.228  1.00  0.00    -0.273 OA
HETATM    6  O   UNL     1    -124.447 -58.128 -26.953  1.00  0.00    -0.267 OA
HETATM    7  C   UNL     1    -126.697 -58.427 -27.605  1.00  0.00     0.036 C 
HETATM    8  C   UNL     1    -125.884 -59.999 -24.906  1.00  0.00     0.229 C 
HETATM    9  C   UNL     1    -126.969 -56.963 -27.860  1.00  0.00     0.056 C 
HETATM   10  N   UNL     1    -125.613 -59.973 -26.243  1.00  0.00    -0.284 N 
ENDROOT
BRANCH   1  11
HETATM   11  O   UNL     1    -128.416 -59.232 -29.042  1.00  0.00    -0.278 OA
BRANCH  11  12
HETATM   12  C   UNL     1    -129.136 -60.252 -29.558  1.00  0.00     0.304 C 
HETATM   13  O   UNL     1    -129.930 -60.921 -28.920  1.00  0.00    -0.259 OA
BRANCH  12  14
HETATM   14  C   UNL     1    -128.846 -60.530 -30.978  1.00  0.00     0.108 C 
HETATM   15  C   UNL     1    -129.803 -61.124 -31.802  1.00  0.00     0.085 C 
HETATM   16  C   UNL     1    -129.780 -60.914 -33.173  1.00  0.00     0.040 C 
HETATM   17  C   UNL     1    -128.786 -60.118 -33.720  1.00  0.00     0.042 C 
HETATM   18  C   UNL     1    -127.685 -59.754 -32.940  1.00  0.00     0.100 C 
HETATM   19  C   UNL     1    -127.744 -59.915 -31.565  1.00  0.00     0.118 C 
BRANCH  15  20
HETATM   20  O   UNL     1    -130.726 -62.005 -31.274  1.00  0.00    -0.360 OA
ATOM     21  HO  UNL     1    -131.382 -62.403 -31.833  1.00  0.00     0.217 HD
ENDBRANCH  15  20
BRANCH  18  22
HETATM   22  O   UNL     1    -126.593 -59.189 -33.519  1.00  0.00    -0.358 OA
ATOM     23  HO  UNL     1    -125.845 -58.938 -32.990  1.00  0.00     0.217 HD
ENDBRANCH  18  22
BRANCH  19  24
HETATM   24  O   UNL     1    -126.740 -59.369 -30.802  1.00  0.00    -0.357 OA
ATOM     25  HO  UNL     1    -126.815 -58.495 -30.438  1.00  0.00     0.217 HD
ENDBRANCH  19  24
ENDBRANCH  12  14
ENDBRANCH  11  12
ENDBRANCH   1  11
BRANCH   8  26
HETATM   26  C   UNL     1    -126.319 -61.326 -24.329  1.00  0.00     0.142 C 
BRANCH  26  27
HETATM   27  C   UNL     1    -125.211 -62.360 -24.268  1.00  0.00     0.188 C 
BRANCH  27  28
HETATM   28  C   UNL     1    -125.699 -63.772 -24.341  1.00  0.00     0.113 C 
HETATM   29  C   UNL     1    -126.720 -64.241 -25.073  1.00  0.00     0.054 C 
HETATM   30  F   UNL     1    -125.091 -64.569 -23.486  1.00  0.00    -0.209 F 
ENDBRANCH  27  28
BRANCH  27  31
HETATM   31  O   UNL     1    -124.420 -62.173 -23.115  1.00  0.00    -0.388 OA
ATOM     32  HO  UNL     1    -124.952 -62.259 -22.332  1.00  0.00     0.210 HD
ENDBRANCH  27  31
ENDBRANCH  26  27
ENDBRANCH   8  26
TORSDOF 10
ENDMDL
