MODEL 1
REMARK VINA RESULT:     -13.7      0.000      0.000
REMARK  1 active torsions:
REMARK  status: ('A' for Active; 'I' for Inactive)
REMARK    1  A    between atoms: C_1  and  C_24 
ROOT
HETATM    1  C   UNL     1    -125.705 -57.810 -27.848  1.00  0.00     0.012 C 
HETATM    2  C   UNL     1    -124.180 -63.670 -23.724  1.00  0.00     0.281 C 
HETATM    3  C   UNL     1    -127.882 -61.587 -26.094  1.00  0.00     0.110 C 
HETATM    4  O   UNL     1    -125.423 -59.705 -24.710  1.00  0.00    -0.267 OA
HETATM    5  C   UNL     1    -126.472 -64.293 -24.395  1.00  0.00     0.033 C 
HETATM    6  C   UNL     1    -126.790 -62.943 -24.581  1.00  0.00     0.049 C 
HETATM    7  F   UNL     1    -123.540 -64.019 -22.593  1.00  0.00    -0.197 F 
HETATM    8  C   UNL     1    -124.659 -62.313 -23.620  1.00  0.00     0.074 C 
HETATM    9  F   UNL     1    -123.255 -63.715 -24.694  1.00  0.00    -0.197 F 
HETATM   10  C   UNL     1    -127.689 -58.891 -28.971  1.00  0.00     0.045 C 
HETATM   11  C   UNL     1    -126.176 -60.244 -27.442  1.00  0.00     0.138 C 
HETATM   12  C   UNL     1    -129.057 -61.370 -26.911  1.00  0.00     0.049 C 
HETATM   13  C   UNL     1    -126.823 -58.855 -27.692  1.00  0.00     0.004 C 
HETATM   14  N   UNL     1    -126.728 -60.822 -26.202  1.00  0.00    -0.299 N 
HETATM   15  C   UNL     1    -125.813 -61.970 -24.338  1.00  0.00     0.061 C 
HETATM   16  C   UNL     1    -128.634 -60.088 -29.060  1.00  0.00    -0.045 C 
HETATM   17  C   UNL     1    -125.938 -60.752 -25.088  1.00  0.00     0.261 C 
HETATM   18  C   UNL     1    -125.181 -64.647 -24.036  1.00  0.00     0.057 C 
HETATM   19  C   UNL     1    -129.301 -60.521 -27.926  1.00  0.00     0.012 C 
HETATM   20  N   UNL     1    -127.966 -62.544 -25.162  1.00  0.00    -0.341 N 
ATOM     21  HN  UNL     1    -128.861 -62.957 -24.897  1.00  0.00     0.167 HD
ENDROOT
BRANCH  16  22
HETATM   22  C   UNL     1    -128.914 -60.715 -30.362  1.00  0.00    -0.008 C 
HETATM   23  C   UNL     1    -128.585 -60.116 -31.595  1.00  0.00    -0.043 C 
HETATM   24  C   UNL     1    -129.342 -60.454 -32.726  1.00  0.00    -0.040 C 
HETATM   25  C   UNL     1    -127.390 -59.181 -31.769  1.00  0.00     0.049 C 
HETATM   26  C   UNL     1    -130.189 -61.552 -32.647  1.00  0.00     0.095 C 
HETATM   27  C   UNL     1    -129.231 -59.668 -34.013  1.00  0.00     0.050 C 
HETATM   28  N   UNL     1    -130.296 -62.299 -31.535  1.00  0.00    -0.374 N 
HETATM   29  C   UNL     1    -129.647 -61.902 -30.427  1.00  0.00     0.100 C 
ATOM     30  HN  UNL     1    -130.860 -63.149 -31.531  1.00  0.00     0.164 HD
ENDBRANCH  16  22
TORSDOF 1
ENDMDL
