REMARK  7 active torsions:
REMARK  status: ('A' for Active; 'I' for Inactive)
REMARK    1  A    between atoms: N_1  and  C_10 
REMARK    2  A    between atoms: N_1  and  C_27 
REMARK    3  A    between atoms: O_5  and  C_31 
REMARK    4  A    between atoms: C_7  and  N_23 
REMARK    5  A    between atoms: O_8  and  C_14 
REMARK    6  A    between atoms: O_11  and  C_17 
REMARK    7  A    between atoms: O_29  and  C_31 
ROOT
HETATM    1  C   UNL     1      40.226  75.698  85.698  1.00  0.00     0.002 C 
HETATM    2  C   UNL     1      39.767  76.647  84.805  1.00  0.00     0.045 C 
HETATM    3  C   UNL     1      42.381  77.892  87.878  1.00  0.00     0.145 C 
HETATM    4  C   UNL     1      42.299  79.393  87.657  1.00  0.00     0.113 C 
HETATM    5  C   UNL     1      41.228  76.017  86.608  1.00  0.00     0.009 C 
HETATM    6  C   UNL     1      41.655  77.326  86.720  1.00  0.00    -0.025 C 
HETATM    7  C   UNL     1      41.265  78.290  85.825  1.00  0.00    -0.004 C 
HETATM    8  C   UNL     1      40.443  77.919  84.656  1.00  0.00     0.205 C 
HETATM    9  C   UNL     1      41.708  79.646  86.272  1.00  0.00     0.068 C 
ENDROOT
BRANCH   4  10
HETATM   10  N   UNL     1      41.385  79.837  88.710  1.00  0.00    -0.380 N 
ATOM     11  HN  UNL     1      40.975  79.165  89.359  1.00  0.00     0.160 HD
BRANCH  10  12
HETATM   12  C   UNL     1      41.092  81.160  88.807  1.00  0.00     0.061 C 
HETATM   13  C   UNL     1      41.751  81.936  89.789  1.00  0.00     0.092 C 
HETATM   14  C   UNL     1      42.453  83.114  89.495  1.00  0.00     0.039 C 
HETATM   15  C   UNL     1      41.974  84.075  88.627  1.00  0.00     0.003 C 
HETATM   16  C   UNL     1      40.824  84.036  87.882  1.00  0.00     0.000 C 
HETATM   17  C   UNL     1      39.934  83.018  87.688  1.00  0.00     0.002 C 
HETATM   18  C   UNL     1      40.114  81.674  87.947  1.00  0.00     0.032 C 
BRANCH  13  19
HETATM   19  O   UNL     1      41.692  81.489  91.064  1.00  0.00    -0.358 OA
ATOM     20  HO  UNL     1      41.216  80.691  91.263  1.00  0.00     0.217 HD
ENDBRANCH  13  19
ENDBRANCH  10  12
ENDBRANCH   4  10
BRANCH   3  21
HETATM   21  N   UNL     1      43.723  77.352  88.094  1.00  0.00    -0.353 N 
HETATM   22  C   UNL     1      44.846  78.107  88.036  1.00  0.00     0.091 C 
HETATM   23  C   UNL     1      46.043  77.543  87.609  1.00  0.00     0.020 C 
HETATM   24  C   UNL     1      46.079  76.182  87.300  1.00  0.00     0.039 C 
HETATM   25  C   UNL     1      44.974  75.408  87.606  1.00  0.00     0.081 C 
HETATM   26  C   UNL     1      43.896  76.016  88.243  1.00  0.00     0.127 C 
BRANCH  25  27
HETATM   27  O   UNL     1      44.935  74.102  87.251  1.00  0.00    -0.359 OA
ATOM     28  HO  UNL     1      45.671  73.687  86.816  1.00  0.00     0.217 HD
ENDBRANCH  25  27
ENDBRANCH   3  21
BRANCH   8  29
HETATM   29  O   UNL     1      39.565  78.950  84.347  1.00  0.00    -0.359 OA
ATOM     30  HO  UNL     1      40.008  79.784  84.249  1.00  0.00     0.213 HD
ENDBRANCH   8  29
BRANCH   8  31
HETATM   31  O   UNL     1      41.260  77.811  83.531  1.00  0.00    -0.359 OA
ATOM     32  HO  UNL     1      41.703  78.645  83.433  1.00  0.00     0.213 HD
ENDBRANCH   8  31
TORSDOF 7
