REMARK  6 active torsions:
REMARK  status: ('A' for Active; 'I' for Inactive)
REMARK    1  A    between atoms: N_2  and  C_8 
REMARK    2  A    between atoms: N_2  and  C_12 
REMARK    3  A    between atoms: C_8  and  O_19 
REMARK    4  A    between atoms: C_9  and  N_21 
REMARK    5  A    between atoms: C_9  and  C_30 
REMARK    6  A    between atoms: N_13  and  C_25 
ROOT
HETATM    1  C   UNL     1     -17.071  29.404  85.212  1.00  0.00     0.376 C 
HETATM    2  O   UNL     1     -17.987  28.990  86.215  1.00  0.00    -0.312 OA
HETATM    3  C   UNL     1     -17.265  28.642  87.392  1.00  0.00     0.209 C 
HETATM    4  C   UNL     1     -15.897  28.286  86.893  1.00  0.00     0.171 C 
HETATM    5  O   UNL     1     -15.807  28.839  85.596  1.00  0.00    -0.305 OA
ENDROOT
BRANCH   1   6
HETATM    6  N   UNL     1     -17.455  28.879  83.952  1.00  0.00    -0.310 N 
ATOM      7  HN  UNL     1     -17.404  27.860  83.956  1.00  0.00     0.167 HD
BRANCH   6   8
HETATM    8  C   UNL     1     -17.873  29.334  82.735  1.00  0.00     0.039 C 
HETATM    9  C   UNL     1     -19.220  29.291  82.387  1.00  0.00     0.046 C 
HETATM   10  C   UNL     1     -19.547  29.215  81.050  1.00  0.00     0.092 C 
HETATM   11  N   UNL     1     -18.599  29.030  80.129  1.00  0.00    -0.353 N 
HETATM   12  C   UNL     1     -17.297  29.106  80.456  1.00  0.00     0.100 C 
ATOM     13  HN  UNL     1     -18.865  28.828  79.165  1.00  0.00     0.166 HD
HETATM   14  C   UNL     1     -16.939  29.528  81.726  1.00  0.00     0.077 C 
BRANCH  12  15
HETATM   15  N   UNL     1     -16.397  28.780  79.502  1.00  0.00    -0.385 N 
ATOM     16  HN2 UNL     1     -16.661  28.469  78.567  1.00  0.00     0.157 HD
ATOM     17  HN1 UNL     1     -15.409  28.838  79.750  1.00  0.00     0.157 HD
ENDBRANCH  12  15
ENDBRANCH   6   8
ENDBRANCH   1   6
BRANCH   1  18
HETATM   18  O   UNL     1     -16.907  30.756  85.195  1.00  0.00    -0.325 OA
ATOM     19  HO  UNL     1     -16.650  31.108  86.039  1.00  0.00     0.217 HD
ENDBRANCH   1  18
BRANCH   4  20
HETATM   20  C   UNL     1     -14.762  28.670  87.819  1.00  0.00     0.163 C 
BRANCH  20  21
HETATM   21  N   UNL     1     -13.526  28.136  87.243  1.00  0.00    -0.350 N 
HETATM   22  C   UNL     1     -13.477  27.478  86.098  1.00  0.00     0.183 C 
HETATM   23  N   UNL     1     -12.881  26.299  86.080  1.00  0.00    -0.351 N 
HETATM   24  C   UNL     1     -11.827  26.147  86.929  1.00  0.00     0.044 C 
ATOM     25  HN  UNL     1     -13.192  25.546  85.466  1.00  0.00     0.166 HD
HETATM   26  C   UNL     1     -11.410  27.232  87.686  1.00  0.00     0.006 C 
HETATM   27  C   UNL     1     -11.213  24.918  87.041  1.00  0.00     0.030 C 
HETATM   28  C   UNL     1     -10.133  27.287  88.214  1.00  0.00     0.015 C 
HETATM   29  C   UNL     1     -12.326  28.264  87.843  1.00  0.00     0.105 C 
HETATM   30  C   UNL     1      -9.162  26.397  88.512  1.00  0.00     0.001 C 
HETATM   31  C   UNL     1      -9.052  25.058  88.214  1.00  0.00     0.000 C 
HETATM   32  C   UNL     1     -10.046  24.419  87.521  1.00  0.00     0.002 C 
ENDBRANCH  20  21
ENDBRANCH   4  20
TORSDOF 6
