REMARK  4 active torsions:
REMARK  status: ('A' for Active; 'I' for Inactive)
REMARK    1  A    between atoms: C_1  and  C_3 
REMARK    2  A    between atoms: C_9  and  C_23 
REMARK    3  A    between atoms: C_15  and  C_25 
REMARK    4  A    between atoms: C_19  and  C_23 
ROOT
HETATM    1  C   UNL     1      10.542  28.163  74.551  1.00  0.00     0.002 C 
HETATM    2  C   UNL     1       9.217  30.026  73.461  1.00  0.00     0.053 C 
HETATM    3  C   UNL     1       9.642  27.204  73.772  1.00  0.00     0.009 C 
HETATM    4  C   UNL     1      10.614  29.518  73.869  1.00  0.00     0.021 C 
HETATM    5  C   UNL     1       7.841  27.798  72.120  1.00  0.00    -0.047 C 
HETATM    6  C   UNL     1       7.782  27.554  69.335  1.00  0.00    -0.047 C 
HETATM    7  C   UNL     1       8.569  28.711  71.321  1.00  0.00    -0.044 C 
HETATM    8  C   UNL     1       8.114  29.180  74.140  1.00  0.00     0.030 C 
HETATM    9  C   UNL     1       8.218  27.749  73.590  1.00  0.00     0.020 C 
HETATM   10  C   UNL     1       6.840  27.019  71.514  1.00  0.00     0.009 C 
HETATM   11  C   UNL     1       9.065  30.018  71.921  1.00  0.00     0.060 C 
HETATM   12  C   UNL     1      10.302  28.044  69.546  1.00  0.00     0.049 C 
HETATM   13  C   UNL     1       6.782  26.935  70.108  1.00  0.00     0.008 C 
HETATM   14  C   UNL     1       8.870  28.179  70.032  1.00  0.00    -0.049 C 
ENDROOT
BRANCH   6  15
HETATM   15  C   UNL     1       7.671  27.568  67.817  1.00  0.00     0.077 C 
BRANCH  15  16
HETATM   16  C   UNL     1       7.845  28.929  67.168  1.00  0.00    -0.054 C 
HETATM   17  C   UNL     1       9.135  29.450  66.973  1.00  0.00     0.008 C 
HETATM   18  C   UNL     1       9.342  30.433  65.996  1.00  0.00     0.019 C 
HETATM   19  C   UNL     1       8.234  30.854  65.239  1.00  0.00     0.040 C 
HETATM   20  C   UNL     1       6.944  30.679  65.776  1.00  0.00     0.019 C 
HETATM   21  C   UNL     1       6.735  29.646  66.698  1.00  0.00     0.008 C 
BRANCH  19  22
HETATM   22  C   UNL     1       8.373  31.209  63.800  1.00  0.00     0.209 C 
HETATM   23  O   UNL     1       8.080  30.383  62.933  1.00  0.00    -0.644 OA
HETATM   24  O   UNL     1       8.761  32.382  63.547  1.00  0.00    -0.644 OA
ENDBRANCH  19  22
ENDBRANCH  15  16
ENDBRANCH   6  15
BRANCH   2  25
HETATM   25  C   UNL     1       9.037  31.437  74.028  1.00  0.00     0.182 C 
HETATM   26  O   UNL     1       9.819  31.808  74.941  1.00  0.00    -0.647 OA
HETATM   27  O   UNL     1       8.021  32.075  73.688  1.00  0.00    -0.647 OA
ENDBRANCH   2  25
TORSDOF 4
