REMARK  5 active torsions:
REMARK  status: ('A' for Active; 'I' for Inactive)
REMARK    1  A    between atoms: O_1  and  C_15 
REMARK    2  A    between atoms: C_10  and  C_26 
REMARK    3  A    between atoms: N_11  and  C_27 
REMARK    4  A    between atoms: C_25  and  C_32 
REMARK    5  A    between atoms: C_28  and  C_32 
ROOT
HETATM    1  C   UNL     1     -30.825  34.762  12.109  1.00  0.00     0.163 C 
HETATM    2  C   UNL     1     -29.741  32.331  12.026  1.00  0.00    -0.021 A 
HETATM    3  N   UNL     1     -32.010  35.243  11.374  1.00  0.00    -0.372 N 
HETATM    4  C   UNL     1     -29.696  31.143  11.274  1.00  0.00     0.012 A 
HETATM    5  C   UNL     1     -31.346  31.997   9.742  1.00  0.00     0.009 A 
HETATM    6  C   UNL     1     -31.377  33.202  10.439  1.00  0.00    -0.032 A 
HETATM    7  C   UNL     1     -30.574  33.369  11.567  1.00  0.00    -0.022 A 
HETATM    8  C   UNL     1     -32.294  34.377  10.219  1.00  0.00     0.162 C 
HETATM    9  C   UNL     1     -30.531  30.951  10.179  1.00  0.00     0.002 A 
ENDROOT
BRANCH   3  10
HETATM   10  C   UNL     1     -33.059  35.888  12.037  1.00  0.00     0.031 C 
HETATM   11  C   UNL     1     -33.191  35.793  13.430  1.00  0.00     0.029 C 
HETATM   12  C   UNL     1     -33.921  36.767  14.107  1.00  0.00     0.003 C 
HETATM   13  C   UNL     1     -34.677  37.680  13.388  1.00  0.00     0.015 C 
HETATM   14  C   UNL     1     -34.926  37.415  12.044  1.00  0.00     0.012 C 
HETATM   15  C   UNL     1     -33.996  36.655  11.326  1.00  0.00     0.044 C 
BRANCH  14  16
HETATM   16  C   UNL     1     -36.240  37.847  11.462  1.00  0.00     0.163 C 
HETATM   17  O   UNL     1     -37.231  37.803  12.181  1.00  0.00    -0.292 OA
BRANCH  16  18
HETATM   18  C   UNL     1     -36.379  38.350  10.053  1.00  0.00     0.063 C 
HETATM   19  C   UNL     1     -35.934  37.437   8.930  1.00  0.00     0.015 C 
HETATM   20  C   UNL     1     -36.765  37.829   7.718  1.00  0.00     0.032 C 
HETATM   21  C   UNL     1     -37.834  38.822   8.187  1.00  0.00     0.118 C 
HETATM   22  C   UNL     1     -37.810  38.753   9.713  1.00  0.00     0.044 C 
BRANCH  21  23
HETATM   23  O   UNL     1     -39.090  38.376   7.676  1.00  0.00    -0.396 OA
ATOM     24  HO  UNL     1     -39.753  38.992   7.967  1.00  0.00     0.210 HD
ENDBRANCH  21  23
ENDBRANCH  16  18
ENDBRANCH  14  16
ENDBRANCH   3  10
BRANCH   2  25
HETATM   25  C   UNL     1     -29.088  32.313  13.386  1.00  0.00    -0.036 C 
HETATM   26  C   UNL     1     -28.557  33.415  14.271  1.00  0.00    -0.023 C 
HETATM   27  C   UNL     1     -28.927  34.752  14.420  1.00  0.00     0.012 C 
HETATM   28  C   UNL     1     -27.603  32.864  15.131  1.00  0.00    -0.047 C 
HETATM   29  C   UNL     1     -28.072  35.607  15.138  1.00  0.00     0.001 C 
HETATM   30  C   UNL     1     -26.981  35.081  15.834  1.00  0.00     0.001 C 
HETATM   31  C   UNL     1     -26.765  33.702  15.863  1.00  0.00     0.008 C 
HETATM   32  C   UNL     1     -27.488  31.370  14.992  1.00  0.00     0.044 C 
HETATM   33  C   UNL     1     -28.317  31.058  13.752  1.00  0.00     0.045 C 
ENDBRANCH   2  25
TORSDOF 5
