REMARK  2 active torsions:
REMARK  status: ('A' for Active; 'I' for Inactive)
REMARK    1  A    between atoms: O_18  and  C_31 
REMARK    2  A    between atoms: N_27  and  C_29 
ROOT
HETATM    1  C   UNL     1     -38.385  38.396  10.997  1.00  0.00     0.008 C 
HETATM    2  C   UNL     1     -33.807  34.590  11.153  1.00  0.00     0.127 C 
HETATM    3  C   UNL     1     -34.382  34.881  12.549  1.00  0.00     0.040 C 
HETATM    4  C   UNL     1     -32.947  36.917  12.981  1.00  0.00     0.015 C 
HETATM    5  C   UNL     1     -36.697  38.485  13.219  1.00  0.00     0.012 C 
HETATM    6  C   UNL     1     -32.046  36.482  11.817  1.00  0.00     0.055 C 
HETATM    7  C   UNL     1     -38.868  38.836  12.230  1.00  0.00     0.001 C 
HETATM    8  C   UNL     1     -36.261  37.925  12.026  1.00  0.00    -0.021 C 
HETATM    9  C   UNL     1     -32.394  35.197  11.052  1.00  0.00     0.005 C 
HETATM   10  C   UNL     1     -36.462  37.161   9.764  1.00  0.00     0.096 C 
HETATM   11  C   UNL     1     -35.028  37.173  11.742  1.00  0.00    -0.021 C 
HETATM   12  C   UNL     1     -34.378  36.381  12.852  1.00  0.00     0.024 C 
HETATM   13  C   UNL     1     -37.071  37.958  10.890  1.00  0.00    -0.042 C 
HETATM   14  N   UNL     1     -31.515  34.641  10.233  1.00  0.00    -0.390 N 
ATOM     15  HN  UNL     1     -31.527  34.966   9.266  1.00  0.00     0.159 HD
HETATM   16  C   UNL     1     -38.022  38.897  13.333  1.00  0.00     0.001 C 
HETATM   17  N   UNL     1     -34.500  35.349  10.090  1.00  0.00    -0.383 N 
ATOM     18  HN  UNL     1     -34.480  34.996   9.133  1.00  0.00     0.160 HD
HETATM   19  C   UNL     1     -35.199  36.569  10.371  1.00  0.00     0.017 C 
ENDROOT
BRANCH  14  20
HETATM   20  C   UNL     1     -30.532  33.616  10.559  1.00  0.00     0.086 C 
HETATM   21  C   UNL     1     -30.888  32.302   9.855  1.00  0.00     0.025 C 
HETATM   22  C   UNL     1     -29.722  31.322  10.023  1.00  0.00     0.003 C 
HETATM   23  C   UNL     1     -29.491  31.114  11.531  1.00  0.00     0.010 C 
HETATM   24  C   UNL     1     -29.112  32.499  12.028  1.00  0.00     0.025 C 
HETATM   25  C   UNL     1     -28.439  32.786  13.355  1.00  0.00    -0.044 C 
HETATM   26  C   UNL     1     -30.441  33.263  12.062  1.00  0.00     0.021 C 
HETATM   27  C   UNL     1     -28.919  34.128  13.746  1.00  0.00    -0.018 C 
HETATM   28  C   UNL     1     -27.073  32.394  13.536  1.00  0.00     0.008 C 
HETATM   29  C   UNL     1     -30.207  34.435  13.018  1.00  0.00     0.049 C 
HETATM   30  C   UNL     1     -28.375  35.006  14.758  1.00  0.00     0.072 C 
HETATM   31  C   UNL     1     -27.349  34.700  15.677  1.00  0.00     0.037 C 
HETATM   32  C   UNL     1     -26.389  33.669  15.610  1.00  0.00     0.003 C 
HETATM   33  C   UNL     1     -26.232  32.733  14.577  1.00  0.00     0.001 C 
BRANCH  30  34
HETATM   34  O   UNL     1     -28.891  36.242  14.825  1.00  0.00    -0.360 OA
ATOM     35  HO  UNL     1     -28.534  36.819  15.490  1.00  0.00     0.217 HD
ENDBRANCH  30  34
ENDBRANCH  14  20
TORSDOF 2
