REMARK  1 active torsions:
REMARK  status: ('A' for Active; 'I' for Inactive)
REMARK    1  A    between atoms: O_15  and  C_30 
ROOT
HETATM    1  C   UNL     1     -29.511  31.669  11.507  1.00  0.00     0.008 C 
HETATM    2  C   UNL     1     -31.159  32.420   8.987  1.00  0.00     0.011 C 
HETATM    3  C   UNL     1     -34.426  35.457  11.986  1.00  0.00     0.023 C 
HETATM    4  C   UNL     1     -30.148  37.152  14.022  1.00  0.00     0.023 C 
HETATM    5  C   UNL     1     -28.400  35.524  14.913  1.00  0.00     0.021 C 
HETATM    6  C   UNL     1     -33.062  37.205  11.713  1.00  0.00    -0.051 C 
HETATM    7  C   UNL     1     -30.306  31.356   9.177  1.00  0.00     0.001 C 
HETATM    8  C   UNL     1     -33.299  35.002   9.724  1.00  0.00     0.182 C 
HETATM    9  C   UNL     1     -34.012  35.794  10.624  1.00  0.00     0.015 C 
HETATM   10  C   UNL     1     -29.935  32.953  11.839  1.00  0.00    -0.047 C 
HETATM   11  C   UNL     1     -31.860  37.813  15.644  1.00  0.00     0.010 C 
HETATM   12  C   UNL     1     -32.846  33.729  10.071  1.00  0.00     0.067 C 
HETATM   13  C   UNL     1     -27.981  34.044  14.963  1.00  0.00     0.019 C 
HETATM   14  C   UNL     1     -28.577  36.100  16.310  1.00  0.00     0.010 C 
HETATM   15  O   UNL     1     -33.097  35.475   8.566  1.00  0.00    -0.288 OA
HETATM   16  C   UNL     1     -33.803  37.155  10.573  1.00  0.00     0.023 C 
HETATM   17  C   UNL     1     -29.661  35.739  14.123  1.00  0.00    -0.073 C 
HETATM   18  C   UNL     1     -33.775  36.483  12.681  1.00  0.00    -0.051 C 
HETATM   19  C   UNL     1     -29.733  33.350  13.294  1.00  0.00     0.070 C 
HETATM   20  C   UNL     1     -30.363  37.834  15.363  1.00  0.00    -0.005 C 
HETATM   21  C   UNL     1     -31.493  33.339   9.979  1.00  0.00    -0.032 C 
HETATM   22  C   UNL     1     -29.480  37.306  16.471  1.00  0.00     0.006 C 
HETATM   23  C   UNL     1     -30.549  33.781  10.907  1.00  0.00     0.019 C 
HETATM   24  C   UNL     1     -33.654  36.797  14.142  1.00  0.00     0.044 C 
HETATM   25  C   UNL     1     -29.709  30.977  10.354  1.00  0.00     0.001 C 
HETATM   26  C   UNL     1     -32.514  37.828  14.246  1.00  0.00    -0.005 C 
HETATM   27  C   UNL     1     -31.482  37.207  13.348  1.00  0.00     0.003 C 
HETATM   28  C   UNL     1     -28.223  33.391  13.595  1.00  0.00     0.134 C 
HETATM   29  C   UNL     1     -30.392  34.666  13.635  1.00  0.00    -0.011 C 
HETATM   30  C   UNL     1     -26.487  34.001  15.298  1.00  0.00     0.013 C 
HETATM   31  C   UNL     1     -31.614  37.491  11.876  1.00  0.00     0.045 C 
ENDROOT
BRANCH  28  32
HETATM   32  O   UNL     1     -27.735  32.056  13.617  1.00  0.00    -0.394 OA
ATOM     33  HO  UNL     1     -27.885  31.652  12.770  1.00  0.00     0.210 HD
ENDBRANCH  28  32
TORSDOF 1
