REMARK  0 active torsions:
REMARK  status: ('A' for Active; 'I' for Inactive)
ROOT
HETATM    1  C   UNL     1      26.600  42.739  16.001  1.00  0.00     0.061 C 
HETATM    2  C   UNL     1      28.735  45.710  17.408  1.00  0.00     0.009 C 
HETATM    3  N   UNL     1      27.013  41.344  14.053  1.00  0.00    -0.402 N 
ATOM      4  HN1 UNL     1      27.153  41.236  13.048  1.00  0.00     0.156 HD
ATOM      5  HN2 UNL     1      27.057  40.552  14.694  1.00  0.00     0.156 HD
HETATM    6  C   UNL     1      28.492  43.893  19.145  1.00  0.00     0.000 C 
HETATM    7  C   UNL     1      27.521  43.110  18.252  1.00  0.00     0.005 C 
HETATM    8  C   UNL     1      27.308  44.938  14.003  1.00  0.00    -0.002 C 
HETATM    9  C   UNL     1      28.078  45.287  15.061  1.00  0.00    -0.022 C 
HETATM   10  C   UNL     1      28.486  45.401  18.891  1.00  0.00     0.001 C 
HETATM   11  C   UNL     1      26.745  43.679  13.628  1.00  0.00     0.024 C 
HETATM   12  C   UNL     1      27.750  44.949  16.507  1.00  0.00     0.012 C 
HETATM   13  C   UNL     1      26.806  42.580  14.518  1.00  0.00     0.003 C 
HETATM   14  C   UNL     1      27.722  43.438  16.765  1.00  0.00    -0.001 C 
ENDROOT
TORSDOF 0
