REMARK  0 active torsions:
REMARK  status: ('A' for Active; 'I' for Inactive)
ROOT
HETATM    1  C   UNL     1      20.285   0.086 -41.656  1.00  0.00     0.001 C 
HETATM    2  C   UNL     1      20.780  -1.542 -36.911  1.00  0.00     0.245 C 
HETATM    3  O   UNL     1      20.795  -1.463 -35.657  1.00  0.00    -0.268 OA
HETATM    4  C   UNL     1      22.065  -1.728 -38.966  1.00  0.00     0.019 C 
HETATM    5  C   UNL     1      21.204  -0.825 -39.624  1.00  0.00    -0.009 C 
HETATM    6  N   UNL     1      20.118  -0.457 -37.531  1.00  0.00    -0.323 N 
ATOM      7  HN  UNL     1      19.650   0.240 -36.953  1.00  0.00     0.169 HD
HETATM    8  C   UNL     1      19.221   0.532 -39.553  1.00  0.00     0.030 C 
HETATM    9  C   UNL     1      20.094  -0.323 -38.920  1.00  0.00     0.045 C 
HETATM   10  C   UNL     1      21.975  -1.914 -37.609  1.00  0.00     0.075 C 
HETATM   11  C   UNL     1      19.319   0.750 -40.916  1.00  0.00     0.002 C 
HETATM   12  C   UNL     1      21.284  -0.631 -41.003  1.00  0.00     0.013 C 
ENDROOT
TORSDOF 0
