MODEL 1
REMARK VINA RESULT:     -11.7      0.000      0.000
REMARK  1 active torsions:
REMARK  status: ('A' for Active; 'I' for Inactive)
REMARK    1  A    between atoms: C_12  and  O_27 
ROOT
HETATM    1  C   UNL     1      18.086   1.567   9.472  1.00  0.00     0.013 C 
HETATM    2  C   UNL     1      16.177   4.544  13.193  1.00  0.00    -0.026 C 
HETATM    3  C   UNL     1      21.081   0.249  11.012  1.00  0.00     0.102 C 
HETATM    4  N   UNL     1      20.992   0.998  14.468  1.00  0.00    -0.341 N 
ATOM      5  HN  UNL     1      21.896   1.019  14.940  1.00  0.00     0.167 HD
HETATM    6  C   UNL     1      17.247   2.663   9.482  1.00  0.00     0.012 C 
HETATM    7  C   UNL     1      19.345   1.539  10.019  1.00  0.00    -0.025 C 
HETATM    8  C   UNL     1      15.086   4.524  10.584  1.00  0.00     0.075 C 
HETATM    9  C   UNL     1      14.375   5.757  11.097  1.00  0.00    -0.023 C 
HETATM   10  C   UNL     1      17.017   4.631  12.139  1.00  0.00    -0.008 C 
HETATM   11  C   UNL     1      17.366   2.979  15.968  1.00  0.00     0.011 C 
HETATM   12  C   UNL     1      16.584   4.679  10.799  1.00  0.00     0.117 C 
HETATM   13  C   UNL     1      18.358   4.414  12.109  1.00  0.00     0.023 C 
HETATM   14  C   UNL     1      19.834   1.416  14.967  1.00  0.00     0.044 C 
HETATM   15  C   UNL     1      17.044   2.708  14.658  1.00  0.00    -0.035 C 
HETATM   16  C   UNL     1      20.758   0.552  13.252  1.00  0.00     0.117 C 
HETATM   17  C   UNL     1      19.599   1.943  16.167  1.00  0.00     0.030 C 
HETATM   18  C   UNL     1      19.748   0.554  10.872  1.00  0.00    -0.009 C 
HETATM   19  C   UNL     1      15.210   5.527  13.394  1.00  0.00     0.012 C 
HETATM   20  C   UNL     1      20.193   2.590   9.752  1.00  0.00     0.013 C 
HETATM   21  C   UNL     1      18.635   3.997  10.855  1.00  0.00    -0.026 C 
HETATM   22  N   UNL     1      21.588   0.257  12.283  1.00  0.00    -0.351 N 
ATOM     23  HN  UNL     1      22.569   0.044  12.466  1.00  0.00     0.166 HD
HETATM   24  C   UNL     1      18.870   1.202  14.053  1.00  0.00     0.005 C 
HETATM   25  C   UNL     1      19.451   0.518  13.077  1.00  0.00     0.021 C 
HETATM   26  C   UNL     1      17.676   1.719  14.040  1.00  0.00     0.026 C 
HETATM   27  C   UNL     1      18.990   0.176  11.906  1.00  0.00     0.029 C 
HETATM   28  C   UNL     1      18.498   2.577  16.598  1.00  0.00     0.003 C 
HETATM   29  C   UNL     1      14.313   5.966  12.438  1.00  0.00    -0.003 C 
HETATM   30  C   UNL     1      19.841   3.841  10.242  1.00  0.00     0.013 C 
HETATM   31  C   UNL     1      16.091   3.466  14.029  1.00  0.00     0.023 C 
HETATM   32  C   UNL     1      17.470   3.741  10.218  1.00  0.00    -0.009 C 
ENDROOT
BRANCH  12  33
HETATM   33  O   UNL     1      16.891   5.956  10.168  1.00  0.00    -0.380 OA
ATOM     34  HO  UNL     1      17.258   6.473  10.876  1.00  0.00     0.211 HD
ENDBRANCH  12  33
TORSDOF 1
ENDMDL
MODEL 2
REMARK VINA RESULT:     -11.5      2.383      5.235
REMARK  1 active torsions:
REMARK  status: ('A' for Active; 'I' for Inactive)
REMARK    1  A    between atoms: C_12  and  O_27 
ROOT
HETATM    1  C   UNL     1      21.158   1.207  11.690  1.00  0.00     0.013 C 
HETATM    2  C   UNL     1      18.146   3.038  15.422  1.00  0.00    -0.026 C 
HETATM    3  C   UNL     1      19.070   1.600   8.764  1.00  0.00     0.102 C 
HETATM    4  N   UNL     1      16.297   3.623   9.623  1.00  0.00    -0.341 N 
ATOM      5  HN  UNL     1      15.472   3.516   9.034  1.00  0.00     0.167 HD
HETATM    6  C   UNL     1      21.096   1.003  13.054  1.00  0.00     0.012 C 
HETATM    7  C   UNL     1      20.114   1.014  10.821  1.00  0.00    -0.025 C 
HETATM    8  C   UNL     1      20.603   1.752  15.978  1.00  0.00     0.075 C 
HETATM    9  C   UNL     1      20.051   1.762  17.386  1.00  0.00    -0.023 C 
HETATM   10  C   UNL     1      18.418   1.869  14.805  1.00  0.00    -0.008 C 
HETATM   11  C   UNL     1      16.239   5.267  13.700  1.00  0.00     0.011 C 
HETATM   12  C   UNL     1      19.586   1.116  15.041  1.00  0.00     0.117 C 
HETATM   13  C   UNL     1      17.830   1.341  13.700  1.00  0.00     0.023 C 
HETATM   14  C   UNL     1      16.362   4.280  10.777  1.00  0.00     0.044 C 
HETATM   15  C   UNL     1      17.471   4.658  13.636  1.00  0.00    -0.035 C 
HETATM   16  C   UNL     1      17.496   3.136   9.382  1.00  0.00     0.117 C 
HETATM   17  C   UNL     1      15.387   4.930  11.407  1.00  0.00     0.030 C 
HETATM   18  C   UNL     1      19.737   1.958   9.912  1.00  0.00    -0.009 C 
HETATM   19  C   UNL     1      18.067   3.089  16.812  1.00  0.00     0.012 C 
HETATM   20  C   UNL     1      19.379  -0.145  10.936  1.00  0.00     0.013 C 
HETATM   21  C   UNL     1      18.773   0.572  13.113  1.00  0.00    -0.026 C 
HETATM   22  N   UNL     1      17.887   2.238   8.510  1.00  0.00    -0.351 N 
ATOM     23  HN  UNL     1      17.334   2.025   7.680  1.00  0.00     0.166 HD
HETATM   24  C   UNL     1      17.624   4.215  11.238  1.00  0.00     0.005 C 
HETATM   25  C   UNL     1      18.329   3.643  10.270  1.00  0.00     0.021 C 
HETATM   26  C   UNL     1      18.030   4.478  12.446  1.00  0.00     0.026 C 
HETATM   27  C   UNL     1      19.567   3.235  10.266  1.00  0.00     0.029 C 
HETATM   28  C   UNL     1      15.372   5.394  12.665  1.00  0.00     0.003 C 
HETATM   29  C   UNL     1      19.027   2.605  17.682  1.00  0.00    -0.003 C 
HETATM   30  C   UNL     1      18.645  -0.330  12.101  1.00  0.00     0.013 C 
HETATM   31  C   UNL     1      18.082   4.251  14.793  1.00  0.00     0.023 C 
HETATM   32  C   UNL     1      19.961   0.816  13.710  1.00  0.00    -0.009 C 
ENDROOT
BRANCH  12  33
HETATM   33  O   UNL     1      19.296  -0.166  15.669  1.00  0.00    -0.380 OA
ATOM     34  HO  UNL     1      18.447  -0.402  15.314  1.00  0.00     0.211 HD
ENDBRANCH  12  33
TORSDOF 1
ENDMDL
MODEL 3
REMARK VINA RESULT:     -10.6      1.369      1.789
REMARK  1 active torsions:
REMARK  status: ('A' for Active; 'I' for Inactive)
REMARK    1  A    between atoms: C_12  and  O_27 
ROOT
HETATM    1  C   UNL     1      18.896   0.101  10.533  1.00  0.00     0.013 C 
HETATM    2  C   UNL     1      16.828   4.097  13.003  1.00  0.00    -0.026 C 
HETATM    3  C   UNL     1      20.930  -1.418  13.109  1.00  0.00     0.102 C 
HETATM    4  N   UNL     1      20.079   0.038  16.219  1.00  0.00    -0.341 N 
ATOM      5  HN  UNL     1      20.794  -0.018  16.944  1.00  0.00     0.167 HD
HETATM    6  C   UNL     1      18.383   1.315  10.123  1.00  0.00     0.012 C 
HETATM    7  C   UNL     1      19.908  -0.054  11.447  1.00  0.00    -0.025 C 
HETATM    8  C   UNL     1      16.528   3.744  10.213  1.00  0.00     0.075 C 
HETATM    9  C   UNL     1      16.030   5.170  10.297  1.00  0.00    -0.023 C 
HETATM   10  C   UNL     1      17.921   3.800  12.268  1.00  0.00    -0.008 C 
HETATM   11  C   UNL     1      16.782   2.946  16.203  1.00  0.00     0.011 C 
HETATM   12  C   UNL     1      17.900   3.650  10.866  1.00  0.00     0.117 C 
HETATM   13  C   UNL     1      19.121   3.328  12.693  1.00  0.00     0.023 C 
HETATM   14  C   UNL     1      18.968   0.765  16.263  1.00  0.00     0.044 C 
HETATM   15  C   UNL     1      16.778   2.475  14.911  1.00  0.00    -0.035 C 
HETATM   16  C   UNL     1      20.086  -0.598  15.067  1.00  0.00     0.117 C 
HETATM   17  C   UNL     1      18.548   1.565  17.240  1.00  0.00     0.030 C 
HETATM   18  C   UNL     1      19.805  -0.899  12.513  1.00  0.00    -0.009 C 
HETATM   19  C   UNL     1      16.115   5.267  12.748  1.00  0.00     0.012 C 
HETATM   20  C   UNL     1      21.028   0.736  11.317  1.00  0.00     0.013 C 
HETATM   21  C   UNL     1      19.622   2.614  11.662  1.00  0.00    -0.026 C 
HETATM   22  N   UNL     1      21.053  -1.242  14.460  1.00  0.00    -0.351 N 
ATOM     23  HN  UNL     1      21.861  -1.597  14.972  1.00  0.00     0.166 HD
HETATM   24  C   UNL     1      18.271   0.554  15.131  1.00  0.00     0.005 C 
HETATM   25  C   UNL     1      18.912  -0.417  14.494  1.00  0.00     0.021 C 
HETATM   26  C   UNL     1      17.293   1.276  14.669  1.00  0.00     0.026 C 
HETATM   27  C   UNL     1      18.723  -0.900  13.298  1.00  0.00     0.029 C 
HETATM   28  C   UNL     1      17.562   2.474  17.208  1.00  0.00     0.003 C 
HETATM   29  C   UNL     1      15.653   5.662  11.507  1.00  0.00    -0.003 C 
HETATM   30  C   UNL     1      20.874   2.105  11.490  1.00  0.00     0.013 C 
HETATM   31  C   UNL     1      16.253   3.254  13.913  1.00  0.00     0.023 C 
HETATM   32  C   UNL     1      18.652   2.460  10.732  1.00  0.00    -0.009 C 
ENDROOT
BRANCH  12  33
HETATM   33  O   UNL     1      18.673   4.685  10.192  1.00  0.00    -0.380 OA
ATOM     34  HO  UNL     1      19.519   4.649  10.624  1.00  0.00     0.211 HD
ENDBRANCH  12  33
TORSDOF 1
ENDMDL
MODEL 4
REMARK VINA RESULT:      -9.9      1.711      2.699
REMARK  1 active torsions:
REMARK  status: ('A' for Active; 'I' for Inactive)
REMARK    1  A    between atoms: C_12  and  O_27 
ROOT
HETATM    1  C   UNL     1      19.090  -0.856  11.451  1.00  0.00     0.013 C 
HETATM    2  C   UNL     1      17.727   4.045  12.143  1.00  0.00    -0.026 C 
HETATM    3  C   UNL     1      21.098  -1.509  14.387  1.00  0.00     0.102 C 
HETATM    4  N   UNL     1      20.665   1.162  16.665  1.00  0.00    -0.341 N 
ATOM      5  HN  UNL     1      21.418   1.295  17.339  1.00  0.00     0.167 HD
HETATM    6  C   UNL     1      18.705   0.159  10.597  1.00  0.00     0.012 C 
HETATM    7  C   UNL     1      20.137  -0.781  12.335  1.00  0.00    -0.025 C 
HETATM    8  C   UNL     1      17.183   2.666   9.735  1.00  0.00     0.075 C 
HETATM    9  C   UNL     1      16.876   4.065   9.247  1.00  0.00    -0.023 C 
HETATM   10  C   UNL     1      18.717   3.327  11.571  1.00  0.00    -0.008 C 
HETATM   11  C   UNL     1      17.769   4.271  15.537  1.00  0.00     0.011 C 
HETATM   12  C   UNL     1      18.576   2.641  10.348  1.00  0.00     0.117 C 
HETATM   13  C   UNL     1      19.876   2.893  12.131  1.00  0.00     0.023 C 
HETATM   14  C   UNL     1      19.660   2.000  16.431  1.00  0.00     0.044 C 
HETATM   15  C   UNL     1      17.612   3.334  14.542  1.00  0.00    -0.035 C 
HETATM   16  C   UNL     1      20.509   0.129  15.864  1.00  0.00     0.117 C 
HETATM   17  C   UNL     1      19.417   3.173  17.012  1.00  0.00     0.030 C 
HETATM   18  C   UNL     1      20.006  -1.111  13.651  1.00  0.00    -0.009 C 
HETATM   19  C   UNL     1      17.151   5.109  11.452  1.00  0.00     0.012 C 
HETATM   20  C   UNL     1      21.336  -0.277  11.880  1.00  0.00     0.013 C 
HETATM   21  C   UNL     1      20.207   1.766  11.465  1.00  0.00    -0.026 C 
HETATM   22  N   UNL     1      21.340  -0.834  15.552  1.00  0.00    -0.351 N 
ATOM     23  HN  UNL     1      22.131  -1.071  16.150  1.00  0.00     0.166 HD
HETATM   24  C   UNL     1      18.863   1.462  15.490  1.00  0.00     0.005 C 
HETATM   25  C   UNL     1      19.328   0.237  15.286  1.00  0.00     0.021 C 
HETATM   26  C   UNL     1      17.952   2.076  14.793  1.00  0.00     0.026 C 
HETATM   27  C   UNL     1      18.993  -0.646  14.388  1.00  0.00     0.029 C 
HETATM   28  C   UNL     1      18.554   4.127  16.633  1.00  0.00     0.003 C 
HETATM   29  C   UNL     1      16.653   5.044  10.164  1.00  0.00    -0.003 C 
HETATM   30  C   UNL     1      21.369   1.055  11.491  1.00  0.00     0.013 C 
HETATM   31  C   UNL     1      17.117   3.722  13.324  1.00  0.00     0.023 C 
HETATM   32  C   UNL     1      19.160   1.399  10.691  1.00  0.00    -0.009 C 
ENDROOT
BRANCH  12  33
HETATM   33  O   UNL     1      19.422   3.201   9.303  1.00  0.00    -0.380 OA
ATOM     34  HO  UNL     1      20.138   3.599   9.784  1.00  0.00     0.211 HD
ENDBRANCH  12  33
TORSDOF 1
ENDMDL
MODEL 5
REMARK VINA RESULT:      -9.4      2.015      5.022
REMARK  1 active torsions:
REMARK  status: ('A' for Active; 'I' for Inactive)
REMARK    1  A    between atoms: C_12  and  O_27 
ROOT
HETATM    1  C   UNL     1      18.744   4.217  15.856  1.00  0.00     0.013 C 
HETATM    2  C   UNL     1      19.138   1.854  11.316  1.00  0.00    -0.026 C 
HETATM    3  C   UNL     1      19.568   1.562  18.170  1.00  0.00     0.102 C 
HETATM    4  N   UNL     1      20.903  -1.154  16.338  1.00  0.00    -0.341 N 
ATOM      5  HN  UNL     1      20.835  -2.066  16.787  1.00  0.00     0.167 HD
HETATM    6  C   UNL     1      18.197   4.446  14.610  1.00  0.00     0.012 C 
HETATM    7  C   UNL     1      18.633   3.042  16.557  1.00  0.00    -0.025 C 
HETATM    8  C   UNL     1      18.108   4.477  11.554  1.00  0.00     0.075 C 
HETATM    9  C   UNL     1      17.685   4.217  10.125  1.00  0.00    -0.023 C 
HETATM   10  C   UNL     1      18.211   2.102  12.266  1.00  0.00    -0.008 C 
HETATM   11  C   UNL     1      21.441  -0.549  12.017  1.00  0.00     0.011 C 
HETATM   12  C   UNL     1      17.594   3.356  12.445  1.00  0.00     0.117 C 
HETATM   13  C   UNL     1      17.903   1.356  13.358  1.00  0.00     0.023 C 
HETATM   14  C   UNL     1      21.250  -0.920  15.077  1.00  0.00     0.044 C 
HETATM   15  C   UNL     1      21.046   0.696  12.451  1.00  0.00    -0.035 C 
HETATM   16  C   UNL     1      20.664   0.012  16.901  1.00  0.00     0.117 C 
HETATM   17  C   UNL     1      21.579  -1.806  14.139  1.00  0.00     0.030 C 
HETATM   18  C   UNL     1      19.714   2.409  17.097  1.00  0.00    -0.009 C 
HETATM   19  C   UNL     1      18.825   2.049   9.972  1.00  0.00     0.012 C 
HETATM   20  C   UNL     1      17.392   2.451  16.643  1.00  0.00     0.013 C 
HETATM   21  C   UNL     1      17.446   2.228  14.283  1.00  0.00    -0.026 C 
HETATM   22  N   UNL     1      20.079   0.300  18.037  1.00  0.00    -0.351 N 
ATOM     23  HN  UNL     1      20.007  -0.385  18.789  1.00  0.00     0.166 HD
HETATM   24  C   UNL     1      21.247   0.409  14.869  1.00  0.00     0.005 C 
HETATM   25  C   UNL     1      21.042   0.955  16.060  1.00  0.00     0.021 C 
HETATM   26  C   UNL     1      21.252   1.021  13.721  1.00  0.00     0.026 C 
HETATM   27  C   UNL     1      20.825   2.199  16.384  1.00  0.00     0.029 C 
HETATM   28  C   UNL     1      21.704  -1.612  12.817  1.00  0.00     0.003 C 
HETATM   29  C   UNL     1      18.275   3.201   9.442  1.00  0.00    -0.003 C 
HETATM   30  C   UNL     1      16.820   1.983  15.467  1.00  0.00     0.013 C 
HETATM   31  C   UNL     1      20.449   1.558  11.569  1.00  0.00     0.023 C 
HETATM   32  C   UNL     1      17.694   3.485  13.850  1.00  0.00    -0.009 C 
ENDROOT
BRANCH  12  33
HETATM   33  O   UNL     1      16.167   3.312  12.152  1.00  0.00    -0.380 OA
ATOM     34  HO  UNL     1      15.894   2.469  12.496  1.00  0.00     0.211 HD
ENDBRANCH  12  33
TORSDOF 1
ENDMDL
MODEL 6
REMARK VINA RESULT:      -8.9      2.894      6.034
REMARK  1 active torsions:
REMARK  status: ('A' for Active; 'I' for Inactive)
REMARK    1  A    between atoms: C_12  and  O_27 
ROOT
HETATM    1  C   UNL     1      20.847   1.478  10.942  1.00  0.00     0.013 C 
HETATM    2  C   UNL     1      20.587  -0.910  15.479  1.00  0.00    -0.026 C 
HETATM    3  C   UNL     1      17.774   3.384  10.907  1.00  0.00     0.102 C 
HETATM    4  N   UNL     1      16.369   3.313  14.153  1.00  0.00    -0.341 N 
ATOM      5  HN  UNL     1      15.364   3.482  14.204  1.00  0.00     0.167 HD
HETATM    6  C   UNL     1      21.406   0.321  11.446  1.00  0.00     0.012 C 
HETATM    7  C   UNL     1      19.502   1.747  10.907  1.00  0.00    -0.025 C 
HETATM    8  C   UNL     1      22.597  -1.514  13.583  1.00  0.00     0.075 C 
HETATM    9  C   UNL     1      22.819  -2.693  14.504  1.00  0.00    -0.023 C 
HETATM   10  C   UNL     1      20.225  -1.109  14.194  1.00  0.00    -0.008 C 
HETATM   11  C   UNL     1      18.705   1.282  17.274  1.00  0.00     0.011 C 
HETATM   12  C   UNL     1      21.132  -1.462  13.174  1.00  0.00     0.117 C 
HETATM   13  C   UNL     1      19.065  -0.758  13.580  1.00  0.00     0.023 C 
HETATM   14  C   UNL     1      17.145   2.878  15.139  1.00  0.00     0.044 C 
HETATM   15  C   UNL     1      19.556   1.258  16.193  1.00  0.00    -0.035 C 
HETATM   16  C   UNL     1      17.136   3.487  13.098  1.00  0.00     0.117 C 
HETATM   17  C   UNL     1      16.794   2.571  16.386  1.00  0.00     0.030 C 
HETATM   18  C   UNL     1      18.979   2.916  11.376  1.00  0.00    -0.009 C 
HETATM   19  C   UNL     1      21.207  -1.933  16.192  1.00  0.00     0.012 C 
HETATM   20  C   UNL     1      18.653   0.761  10.454  1.00  0.00     0.013 C 
HETATM   21  C   UNL     1      19.379  -0.565  12.281  1.00  0.00    -0.026 C 
HETATM   22  N   UNL     1      16.817   3.676  11.841  1.00  0.00    -0.351 N 
ATOM     23  HN  UNL     1      15.898   4.026  11.570  1.00  0.00     0.166 HD
HETATM   24  C   UNL     1      18.411   2.806  14.689  1.00  0.00     0.005 C 
HETATM   25  C   UNL     1      18.390   3.346  13.478  1.00  0.00     0.021 C 
HETATM   26  C   UNL     1      19.403   2.170  15.242  1.00  0.00     0.026 C 
HETATM   27  C   UNL     1      19.325   3.403  12.571  1.00  0.00     0.029 C 
HETATM   28  C   UNL     1      17.508   1.918  17.316  1.00  0.00     0.003 C 
HETATM   29  C   UNL     1      22.313  -2.644  15.764  1.00  0.00    -0.003 C 
HETATM   30  C   UNL     1      18.557  -0.402  11.207  1.00  0.00     0.013 C 
HETATM   31  C   UNL     1      20.528   0.294  16.124  1.00  0.00     0.023 C 
HETATM   32  C   UNL     1      20.726  -0.564  12.158  1.00  0.00    -0.009 C 
ENDROOT
BRANCH  12  33
HETATM   33  O   UNL     1      20.874  -2.796  12.648  1.00  0.00    -0.380 OA
ATOM     34  HO  UNL     1      20.498  -2.631  11.792  1.00  0.00     0.211 HD
ENDBRANCH  12  33
TORSDOF 1
ENDMDL
