MODEL 1
REMARK VINA RESULT:      -6.1      0.000      0.000
REMARK  1 active torsions:
REMARK  status: ('A' for Active; 'I' for Inactive)
REMARK    1  A    between atoms: O_3  and  C_10 
ROOT
HETATM    1  O   UNL     1      -2.072  14.156  14.360  1.00  0.00    -0.286 OA
HETATM    2  C   UNL     1       1.974   8.436  17.714  1.00  0.00     0.036 C 
HETATM    3  C   UNL     1       0.115   9.345  19.618  1.00  0.00     0.014 C 
HETATM    4  C   UNL     1      -0.367  10.876  16.156  1.00  0.00     0.079 C 
HETATM    5  C   UNL     1       0.149   9.860  18.320  1.00  0.00    -0.005 C 
HETATM    6  N   UNL     1       0.373   9.604  16.089  1.00  0.00    -0.372 N 
ATOM      7  HN  UNL     1       0.532   9.101  15.216  1.00  0.00     0.161 HD
HETATM    8  C   UNL     1      -0.130  12.899  14.651  1.00  0.00     0.096 C 
HETATM    9  C   UNL     1       3.500   7.727  19.601  1.00  0.00     0.048 C 
HETATM   10  C   UNL     1      -1.555  13.039  14.653  1.00  0.00     0.200 C 
HETATM   11  C   UNL     1      -0.809  12.299  18.407  1.00  0.00     0.047 C 
HETATM   12  C   UNL     1      -1.738  10.810  15.563  1.00  0.00     0.013 C 
HETATM   13  C   UNL     1       1.138   8.470  19.989  1.00  0.00     0.007 C 
HETATM   14  C   UNL     1      -2.337  11.937  15.071  1.00  0.00     0.056 C 
HETATM   15  C   UNL     1       0.838   9.146  17.323  1.00  0.00     0.040 C 
HETATM   16  C   UNL     1       2.166   8.189  19.076  1.00  0.00    -0.060 C 
HETATM   17  C   UNL     1       0.479  11.941  15.504  1.00  0.00     0.108 C 
HETATM   18  C   UNL     1      -0.511  11.030  17.678  1.00  0.00    -0.039 C 
ENDROOT
BRANCH   8  19
HETATM   19  O   UNL     1       0.614  13.691  13.897  1.00  0.00    -0.361 OA
ATOM     20  HO  UNL     1       0.529  13.668  12.951  1.00  0.00     0.217 HD
ENDBRANCH   8  19
TORSDOF 1
ENDMDL
MODEL 2
REMARK VINA RESULT:      -5.2      4.115      5.414
REMARK  1 active torsions:
REMARK  status: ('A' for Active; 'I' for Inactive)
REMARK    1  A    between atoms: O_3  and  C_10 
ROOT
HETATM    1  O   UNL     1      -0.554   6.286  14.883  1.00  0.00    -0.286 OA
HETATM    2  C   UNL     1       2.216   8.518  21.789  1.00  0.00     0.036 C 
HETATM    3  C   UNL     1       4.384   7.459  20.344  1.00  0.00     0.014 C 
HETATM    4  C   UNL     1       1.191   7.801  18.282  1.00  0.00     0.079 C 
HETATM    5  C   UNL     1       3.111   7.575  19.781  1.00  0.00    -0.005 C 
HETATM    6  N   UNL     1       1.181   8.697  19.452  1.00  0.00    -0.372 N 
ATOM      7  HN  UNL     1       0.511   9.459  19.560  1.00  0.00     0.161 HD
HETATM    8  C   UNL     1      -0.781   6.663  17.173  1.00  0.00     0.096 C 
HETATM    9  C   UNL     1       3.374   7.855  23.936  1.00  0.00     0.048 C 
HETATM   10  C   UNL     1      -0.205   6.959  15.897  1.00  0.00     0.200 C 
HETATM   11  C   UNL     1       2.895   5.740  17.920  1.00  0.00     0.047 C 
HETATM   12  C   UNL     1       1.294   8.516  16.974  1.00  0.00     0.013 C 
HETATM   13  C   UNL     1       4.511   7.744  21.705  1.00  0.00     0.007 C 
HETATM   14  C   UNL     1       0.807   7.945  15.829  1.00  0.00     0.056 C 
HETATM   15  C   UNL     1       2.167   8.415  20.398  1.00  0.00     0.040 C 
HETATM   16  C   UNL     1       3.368   8.080  22.447  1.00  0.00    -0.060 C 
HETATM   17  C   UNL     1      -0.039   6.930  18.354  1.00  0.00     0.108 C 
HETATM   18  C   UNL     1       2.510   7.050  18.523  1.00  0.00    -0.039 C 
ENDROOT
BRANCH   8  19
HETATM   19  O   UNL     1      -1.975   6.099  17.248  1.00  0.00    -0.361 OA
ATOM     20  HO  UNL     1      -2.263   5.499  16.570  1.00  0.00     0.217 HD
ENDBRANCH   8  19
TORSDOF 1
ENDMDL
MODEL 3
REMARK VINA RESULT:      -5.0      4.183      6.865
REMARK  1 active torsions:
REMARK  status: ('A' for Active; 'I' for Inactive)
REMARK    1  A    between atoms: O_3  and  C_10 
ROOT
HETATM    1  O   UNL     1       2.039   6.429  23.617  1.00  0.00    -0.286 OA
HETATM    2  C   UNL     1       0.059  10.331  17.198  1.00  0.00     0.036 C 
HETATM    3  C   UNL     1       2.174   8.617  16.491  1.00  0.00     0.014 C 
HETATM    4  C   UNL     1       0.858   8.047  20.028  1.00  0.00     0.079 C 
HETATM    5  C   UNL     1       1.623   8.615  17.775  1.00  0.00    -0.005 C 
HETATM    6  N   UNL     1      -0.142   8.716  19.177  1.00  0.00    -0.372 N 
ATOM      7  HN  UNL     1      -1.123   8.805  19.442  1.00  0.00     0.161 HD
HETATM    8  C   UNL     1       1.215   8.315  22.521  1.00  0.00     0.096 C 
HETATM    9  C   UNL     1       0.775  11.908  15.357  1.00  0.00     0.048 C 
HETATM   10  C   UNL     1       1.418   6.901  22.621  1.00  0.00     0.200 C 
HETATM   11  C   UNL     1       3.479   7.791  19.434  1.00  0.00     0.047 C 
HETATM   12  C   UNL     1       0.493   6.647  20.405  1.00  0.00     0.013 C 
HETATM   13  C   UNL     1       1.742   9.610  15.610  1.00  0.00     0.007 C 
HETATM   14  C   UNL     1       0.987   6.084  21.550  1.00  0.00     0.056 C 
HETATM   15  C   UNL     1       0.368   9.216  17.979  1.00  0.00     0.040 C 
HETATM   16  C   UNL     1       0.828  10.576  16.057  1.00  0.00    -0.060 C 
HETATM   17  C   UNL     1       1.093   8.915  21.239  1.00  0.00     0.108 C 
HETATM   18  C   UNL     1       2.047   7.986  19.057  1.00  0.00    -0.039 C 
ENDROOT
BRANCH   8  19
HETATM   19  O   UNL     1       1.192   9.062  23.612  1.00  0.00    -0.361 OA
ATOM     20  HO  UNL     1       1.654   8.780  24.393  1.00  0.00     0.217 HD
ENDBRANCH   8  19
TORSDOF 1
ENDMDL
MODEL 4
REMARK VINA RESULT:      -4.9      7.181      9.405
REMARK  1 active torsions:
REMARK  status: ('A' for Active; 'I' for Inactive)
REMARK    1  A    between atoms: O_3  and  C_10 
ROOT
HETATM    1  O   UNL     1      -6.665   5.586   8.547  1.00  0.00    -0.286 OA
HETATM    2  C   UNL     1      -4.324  11.386  13.154  1.00  0.00     0.036 C 
HETATM    3  C   UNL     1      -6.925  12.025  12.295  1.00  0.00     0.014 C 
HETATM    4  C   UNL     1      -5.801   8.519  11.294  1.00  0.00     0.079 C 
HETATM    5  C   UNL     1      -6.311  10.820  11.947  1.00  0.00    -0.005 C 
HETATM    6  N   UNL     1      -5.032   9.028  12.443  1.00  0.00    -0.372 N 
ATOM      7  HN  UNL     1      -4.442   8.431  13.022  1.00  0.00     0.161 HD
HETATM    8  C   UNL     1      -5.016   6.956   9.462  1.00  0.00     0.096 C 
HETATM    9  C   UNL     1      -3.839  13.855  13.392  1.00  0.00     0.048 C 
HETATM   10  C   UNL     1      -6.275   6.279   9.531  1.00  0.00     0.200 C 
HETATM   11  C   UNL     1      -7.361  10.019   9.682  1.00  0.00     0.047 C 
HETATM   12  C   UNL     1      -6.714   7.384  11.632  1.00  0.00     0.013 C 
HETATM   13  C   UNL     1      -6.145  12.974  12.959  1.00  0.00     0.007 C 
HETATM   14  C   UNL     1      -7.083   6.479  10.675  1.00  0.00     0.056 C 
HETATM   15  C   UNL     1      -5.182  10.396  12.671  1.00  0.00     0.040 C 
HETATM   16  C   UNL     1      -4.789  12.703  13.199  1.00  0.00    -0.060 C 
HETATM   17  C   UNL     1      -4.822   8.150  10.207  1.00  0.00     0.108 C 
HETATM   18  C   UNL     1      -6.664   9.749  10.975  1.00  0.00    -0.039 C 
ENDROOT
BRANCH   8  19
HETATM   19  O   UNL     1      -4.059   6.502   8.670  1.00  0.00    -0.361 OA
ATOM     20  HO  UNL     1      -4.214   6.411   7.737  1.00  0.00     0.217 HD
ENDBRANCH   8  19
TORSDOF 1
ENDMDL
MODEL 5
REMARK VINA RESULT:      -4.9      3.284      4.912
REMARK  1 active torsions:
REMARK  status: ('A' for Active; 'I' for Inactive)
REMARK    1  A    between atoms: O_3  and  C_10 
ROOT
HETATM    1  O   UNL     1      -7.249  13.696  15.707  1.00  0.00    -0.286 OA
HETATM    2  C   UNL     1      -0.065  10.946  16.793  1.00  0.00     0.036 C 
HETATM    3  C   UNL     1       0.076  12.775  14.662  1.00  0.00     0.014 C 
HETATM    4  C   UNL     1      -3.319  12.713  16.404  1.00  0.00     0.079 C 
HETATM    5  C   UNL     1      -1.113  12.551  15.360  1.00  0.00    -0.005 C 
HETATM    6  N   UNL     1      -2.251  12.192  17.276  1.00  0.00    -0.372 N 
ATOM      7  HN  UNL     1      -2.375  12.050  18.278  1.00  0.00     0.161 HD
HETATM    8  C   UNL     1      -5.754  12.021  16.338  1.00  0.00     0.096 C 
HETATM    9  C   UNL     1       1.917   9.718  15.817  1.00  0.00     0.048 C 
HETATM   10  C   UNL     1      -6.118  13.398  16.191  1.00  0.00     0.200 C 
HETATM   11  C   UNL     1      -3.102  13.092  13.740  1.00  0.00     0.047 C 
HETATM   12  C   UNL     1      -3.882  14.023  16.853  1.00  0.00     0.013 C 
HETATM   13  C   UNL     1       1.160  11.946  14.956  1.00  0.00     0.007 C 
HETATM   14  C   UNL     1      -5.158  14.384  16.515  1.00  0.00     0.056 C 
HETATM   15  C   UNL     1      -1.056  11.912  16.612  1.00  0.00     0.040 C 
HETATM   16  C   UNL     1       0.999  10.909  15.887  1.00  0.00    -0.060 C 
HETATM   17  C   UNL     1      -4.384  11.651  16.289  1.00  0.00     0.108 C 
HETATM   18  C   UNL     1      -2.525  12.952  15.111  1.00  0.00    -0.039 C 
ENDROOT
BRANCH   8  19
HETATM   19  O   UNL     1      -6.691  11.097  16.468  1.00  0.00    -0.361 OA
ATOM     20  HO  UNL     1      -7.531  11.203  16.034  1.00  0.00     0.217 HD
ENDBRANCH   8  19
TORSDOF 1
ENDMDL
MODEL 6
REMARK VINA RESULT:      -4.8      3.919      6.190
REMARK  1 active torsions:
REMARK  status: ('A' for Active; 'I' for Inactive)
REMARK    1  A    between atoms: O_3  and  C_10 
ROOT
HETATM    1  O   UNL     1      -0.613   7.555  23.595  1.00  0.00    -0.286 OA
HETATM    2  C   UNL     1       0.074  10.864  16.600  1.00  0.00     0.036 C 
HETATM    3  C   UNL     1       1.995   8.814  16.725  1.00  0.00     0.014 C 
HETATM    4  C   UNL     1      -0.390   8.860  19.704  1.00  0.00     0.079 C 
HETATM    5  C   UNL     1       1.094   9.042  17.768  1.00  0.00    -0.005 C 
HETATM    6  N   UNL     1      -0.969   9.545  18.534  1.00  0.00    -0.372 N 
ATOM      7  HN  UNL     1      -1.956   9.793  18.470  1.00  0.00     0.161 HD
HETATM    8  C   UNL     1      -0.755   9.383  22.155  1.00  0.00     0.096 C 
HETATM    9  C   UNL     1       1.552  12.095  14.961  1.00  0.00     0.048 C 
HETATM   10  C   UNL     1      -0.824   7.979  22.421  1.00  0.00     0.200 C 
HETATM   11  C   UNL     1       2.210   8.192  19.983  1.00  0.00     0.047 C 
HETATM   12  C   UNL     1      -1.074   7.578  20.053  1.00  0.00     0.013 C 
HETATM   13  C   UNL     1       2.013   9.739  15.679  1.00  0.00     0.007 C 
HETATM   14  C   UNL     1      -1.042   7.099  21.335  1.00  0.00     0.056 C 
HETATM   15  C   UNL     1      -0.050   9.822  17.521  1.00  0.00     0.040 C 
HETATM   16  C   UNL     1       1.177  10.864  15.742  1.00  0.00    -0.060 C 
HETATM   17  C   UNL     1      -0.390   9.832  20.857  1.00  0.00     0.108 C 
HETATM   18  C   UNL     1       1.008   8.525  19.162  1.00  0.00    -0.039 C 
ENDROOT
BRANCH   8  19
HETATM   19  O   UNL     1      -0.981  10.255  23.123  1.00  0.00    -0.361 OA
ATOM     20  HO  UNL     1      -0.796  11.178  22.988  1.00  0.00     0.217 HD
ENDBRANCH   8  19
TORSDOF 1
ENDMDL
MODEL 7
REMARK VINA RESULT:      -4.8      3.864      6.211
REMARK  1 active torsions:
REMARK  status: ('A' for Active; 'I' for Inactive)
REMARK    1  A    between atoms: O_3  and  C_10 
ROOT
HETATM    1  O   UNL     1       0.577   3.884  18.665  1.00  0.00    -0.286 OA
HETATM    2  C   UNL     1       1.738  10.865  15.463  1.00  0.00     0.036 C 
HETATM    3  C   UNL     1      -0.338  11.162  17.336  1.00  0.00     0.014 C 
HETATM    4  C   UNL     1       1.330   7.731  17.431  1.00  0.00     0.079 C 
HETATM    5  C   UNL     1       0.329   9.947  17.164  1.00  0.00    -0.005 C 
HETATM    6  N   UNL     1       2.210   8.746  16.824  1.00  0.00    -0.372 N 
ATOM      7  HN  UNL     1       3.205   8.591  16.663  1.00  0.00     0.161 HD
HETATM    8  C   UNL     1       1.194   5.261  16.888  1.00  0.00     0.096 C 
HETATM    9  C   UNL     1       0.771  12.793  14.144  1.00  0.00     0.048 C 
HETATM   10  C   UNL     1       1.077   4.983  18.287  1.00  0.00     0.200 C 
HETATM   11  C   UNL     1      -1.317   8.031  17.867  1.00  0.00     0.047 C 
HETATM   12  C   UNL     1       1.804   7.237  18.760  1.00  0.00     0.013 C 
HETATM   13  C   UNL     1      -0.044  12.188  16.435  1.00  0.00     0.007 C 
HETATM   14  C   UNL     1       1.449   5.993  19.206  1.00  0.00     0.056 C 
HETATM   15  C   UNL     1       1.564   9.937  16.491  1.00  0.00     0.040 C 
HETATM   16  C   UNL     1       0.855  11.945  15.386  1.00  0.00    -0.060 C 
HETATM   17  C   UNL     1       1.163   6.608  16.438  1.00  0.00     0.108 C 
HETATM   18  C   UNL     1       0.061   8.567  17.656  1.00  0.00    -0.039 C 
ENDROOT
BRANCH   8  19
HETATM   19  O   UNL     1       1.277   4.269  16.018  1.00  0.00    -0.361 OA
ATOM     20  HO  UNL     1       0.638   3.565  16.032  1.00  0.00     0.217 HD
ENDBRANCH   8  19
TORSDOF 1
ENDMDL
MODEL 8
REMARK VINA RESULT:      -4.7      3.300      4.864
REMARK  1 active torsions:
REMARK  status: ('A' for Active; 'I' for Inactive)
REMARK    1  A    between atoms: O_3  and  C_10 
ROOT
HETATM    1  O   UNL     1      -2.510   7.656  15.682  1.00  0.00    -0.286 OA
HETATM    2  C   UNL     1       2.343   8.292  21.715  1.00  0.00     0.036 C 
HETATM    3  C   UNL     1       3.925   7.790  19.445  1.00  0.00     0.014 C 
HETATM    4  C   UNL     1       0.244   8.399  18.641  1.00  0.00     0.079 C 
HETATM    5  C   UNL     1       2.540   7.949  19.356  1.00  0.00    -0.005 C 
HETATM    6  N   UNL     1       0.617   8.972  19.947  1.00  0.00    -0.372 N 
ATOM      7  HN  UNL     1       0.025   9.631  20.452  1.00  0.00     0.161 HD
HETATM    8  C   UNL     1      -1.990   7.432  17.944  1.00  0.00     0.096 C 
HETATM    9  C   UNL     1       4.119   7.202  23.145  1.00  0.00     0.048 C 
HETATM   10  C   UNL     1      -1.848   8.078  16.675  1.00  0.00     0.200 C 
HETATM   11  C   UNL     1       1.723   6.625  17.245  1.00  0.00     0.047 C 
HETATM   12  C   UNL     1      -0.068   9.423  17.599  1.00  0.00     0.013 C 
HETATM   13  C   UNL     1       4.483   7.735  20.724  1.00  0.00     0.007 C 
HETATM   14  C   UNL     1      -0.901   9.122  16.555  1.00  0.00     0.056 C 
HETATM   15  C   UNL     1       1.851   8.536  20.432  1.00  0.00     0.040 C 
HETATM   16  C   UNL     1       3.641   7.790  21.845  1.00  0.00    -0.060 C 
HETATM   17  C   UNL     1      -0.907   7.450  18.863  1.00  0.00     0.108 C 
HETATM   18  C   UNL     1       1.563   7.712  18.256  1.00  0.00    -0.039 C 
ENDROOT
BRANCH   8  19
HETATM   19  O   UNL     1      -3.103   6.780  18.237  1.00  0.00    -0.361 OA
ATOM     20  HO  UNL     1      -3.234   5.892  17.923  1.00  0.00     0.217 HD
ENDBRANCH   8  19
TORSDOF 1
ENDMDL
MODEL 9
REMARK VINA RESULT:      -4.5      3.164      4.786
REMARK  1 active torsions:
REMARK  status: ('A' for Active; 'I' for Inactive)
REMARK    1  A    between atoms: O_3  and  C_10 
ROOT
HETATM    1  O   UNL     1      -6.953  12.665  11.894  1.00  0.00    -0.286 OA
HETATM    2  C   UNL     1      -1.493   9.511  16.432  1.00  0.00     0.036 C 
HETATM    3  C   UNL     1      -1.064  12.290  16.452  1.00  0.00     0.014 C 
HETATM    4  C   UNL     1      -4.278  11.250  14.676  1.00  0.00     0.079 C 
HETATM    5  C   UNL     1      -2.142  11.717  15.772  1.00  0.00    -0.005 C 
HETATM    6  N   UNL     1      -3.819  10.215  15.619  1.00  0.00    -0.372 N 
ATOM      7  HN  UNL     1      -4.407   9.435  15.913  1.00  0.00     0.161 HD
HETATM    8  C   UNL     1      -5.516  10.928  12.490  1.00  0.00     0.096 C 
HETATM    9  C   UNL     1       0.971   9.168  16.877  1.00  0.00     0.048 C 
HETATM   10  C   UNL     1      -6.338  12.053  12.816  1.00  0.00     0.200 C 
HETATM   11  C   UNL     1      -2.792  13.329  13.809  1.00  0.00     0.047 C 
HETATM   12  C   UNL     1      -5.542  11.931  15.092  1.00  0.00     0.013 C 
HETATM   13  C   UNL     1      -0.115  11.423  16.995  1.00  0.00     0.007 C 
HETATM   14  C   UNL     1      -6.367  12.497  14.159  1.00  0.00     0.056 C 
HETATM   15  C   UNL     1      -2.513  10.395  16.075  1.00  0.00     0.040 C 
HETATM   16  C   UNL     1      -0.253  10.041  16.798  1.00  0.00    -0.060 C 
HETATM   17  C   UNL     1      -4.403  10.614  13.313  1.00  0.00     0.108 C 
HETATM   18  C   UNL     1      -3.127  12.261  14.797  1.00  0.00    -0.039 C 
ENDROOT
BRANCH   8  19
HETATM   19  O   UNL     1      -5.762  10.219  11.401  1.00  0.00    -0.361 OA
ATOM     20  HO  UNL     1      -5.564   9.289  11.382  1.00  0.00     0.217 HD
ENDBRANCH   8  19
TORSDOF 1
ENDMDL
