REMARK  1 active torsions:
REMARK  status: ('A' for Active; 'I' for Inactive)
REMARK    1  A    between atoms: C_17  and  N_25 
ROOT
HETATM    1  C   UNL     1     -21.454  22.166 -20.304  1.00  0.00     0.016 C 
HETATM    2  C   UNL     1     -24.661  23.430 -18.847  1.00  0.00     0.004 C 
HETATM    3  C   UNL     1     -24.882  23.116 -21.245  1.00  0.00     0.020 C 
HETATM    4  C   UNL     1     -21.350  23.472 -22.335  1.00  0.00     0.001 C 
HETATM    5  C   UNL     1     -27.990  22.373 -19.803  1.00  0.00     0.142 C 
HETATM    6  C   UNL     1     -22.740  23.503 -22.377  1.00  0.00     0.012 C 
HETATM    7  O   UNL     1     -28.972  21.884 -16.287  1.00  0.00    -0.273 OA
HETATM    8  C   UNL     1     -25.531  24.461 -16.396  1.00  0.00     0.011 C 
HETATM    9  O   UNL     1     -22.816  22.430 -17.789  1.00  0.00    -0.287 OA
HETATM   10  C   UNL     1     -22.753  22.654 -20.120  1.00  0.00     0.025 C 
HETATM   11  C   UNL     1     -27.780  23.733 -17.219  1.00  0.00     0.084 C 
HETATM   12  C   UNL     1     -20.702  22.774 -21.320  1.00  0.00     0.001 C 
HETATM   13  C   UNL     1     -23.474  23.022 -21.288  1.00  0.00    -0.021 C 
HETATM   14  C   UNL     1     -25.481  23.212 -20.006  1.00  0.00    -0.041 C 
HETATM   15  C   UNL     1     -27.007  24.227 -15.991  1.00  0.00     0.015 C 
HETATM   16  C   UNL     1     -28.530  22.401 -17.288  1.00  0.00     0.229 C 
HETATM   17  C   UNL     1     -26.920  23.420 -19.605  1.00  0.00     0.043 C 
HETATM   18  N   UNL     1     -28.700  21.894 -18.589  1.00  0.00    -0.317 N 
HETATM   19  C   UNL     1     -23.368  22.805 -18.833  1.00  0.00     0.190 C 
HETATM   20  C   UNL     1     -25.449  24.253 -17.897  1.00  0.00     0.029 C 
HETATM   21  C   UNL     1     -26.728  23.630 -18.200  1.00  0.00     0.017 C 
ENDROOT
BRANCH  18  22
HETATM   22  C   UNL     1     -29.392  20.662 -18.837  1.00  0.00     0.037 C 
HETATM   23  C   UNL     1     -30.796  20.673 -18.787  1.00  0.00     0.029 C 
HETATM   24  C   UNL     1     -31.665  19.794 -19.392  1.00  0.00     0.002 C 
HETATM   25  C   UNL     1     -31.527  18.862 -20.406  1.00  0.00     0.000 C 
HETATM   26  C   UNL     1     -30.319  18.514 -21.041  1.00  0.00     0.000 C 
HETATM   27  C   UNL     1     -29.074  18.794 -20.476  1.00  0.00     0.002 C 
HETATM   28  C   UNL     1     -28.716  19.569 -19.384  1.00  0.00     0.029 C 
ENDBRANCH  18  22
TORSDOF 1
