MODEL 1
REMARK VINA RESULT:     -10.6      0.000      0.000
REMARK  4 active torsions:
REMARK  status: ('A' for Active; 'I' for Inactive)
REMARK    1  A    between atoms: C_4  and  N_7 
REMARK    2  A    between atoms: C_4  and  C_21 
REMARK    3  A    between atoms: C_5  and  C_6 
REMARK    4  A    between atoms: C_5  and  C_8 
ROOT
HETATM    1  O   UNL     1      12.542  11.178  16.198  1.00  0.00    -0.288 OA
HETATM    2  C   UNL     1       9.906  13.282  16.547  1.00  0.00     0.106 C 
HETATM    3  C   UNL     1      12.109  12.803  14.514  1.00  0.00     0.061 C 
HETATM    4  C   UNL     1      11.160  12.891  16.844  1.00  0.00     0.012 C 
HETATM    5  N   UNL     1       9.301  13.315  15.310  1.00  0.00    -0.317 N 
HETATM    6  C   UNL     1       9.930  13.979  14.252  1.00  0.00     0.247 C 
HETATM    7  C   UNL     1      11.980  12.224  15.846  1.00  0.00     0.180 C 
HETATM    8  O   UNL     1       9.310  14.807  13.614  1.00  0.00    -0.268 OA
HETATM    9  C   UNL     1      11.306  13.607  13.921  1.00  0.00     0.078 C 
ENDROOT
BRANCH   4  10
HETATM   10  C   UNL     1      11.797  13.100  18.193  1.00  0.00     0.082 C 
BRANCH  10  11
HETATM   11  C   UNL     1      10.970  14.003  19.065  1.00  0.00    -0.053 C 
HETATM   12  C   UNL     1      10.975  15.384  18.878  1.00  0.00     0.019 C 
HETATM   13  C   UNL     1      10.032  16.155  19.564  1.00  0.00    -0.025 C 
HETATM   14  C   UNL     1      10.037  17.550  19.563  1.00  0.00     0.012 C 
HETATM   15  C   UNL     1       8.936  15.500  20.179  1.00  0.00    -0.026 C 
HETATM   16  C   UNL     1       8.827  18.232  19.637  1.00  0.00     0.001 C 
HETATM   17  C   UNL     1       7.662  17.525  19.934  1.00  0.00     0.001 C 
HETATM   18  C   UNL     1       7.724  16.180  20.285  1.00  0.00     0.012 C 
HETATM   19  C   UNL     1       9.128  14.183  20.611  1.00  0.00     0.013 C 
HETATM   20  C   UNL     1      10.177  13.443  20.065  1.00  0.00     0.008 C 
ENDBRANCH  10  11
ENDBRANCH   4  10
BRANCH   5  21
HETATM   21  C   UNL     1       8.003  12.692  15.014  1.00  0.00     0.209 C 
BRANCH  21  22
HETATM   22  C   UNL     1       7.145  12.421  16.231  1.00  0.00     0.141 C 
HETATM   23  C   UNL     1       6.915  11.018  16.678  1.00  0.00     0.092 C 
HETATM   24  O   UNL     1       6.587  13.343  16.827  1.00  0.00    -0.297 OA
ENDBRANCH  21  22
ENDBRANCH   5  21
TORSDOF 4
ENDMDL
MODEL 2
REMARK VINA RESULT:     -10.2      2.262      3.720
REMARK  4 active torsions:
REMARK  status: ('A' for Active; 'I' for Inactive)
REMARK    1  A    between atoms: C_4  and  N_7 
REMARK    2  A    between atoms: C_4  and  C_21 
REMARK    3  A    between atoms: C_5  and  C_6 
REMARK    4  A    between atoms: C_5  and  C_8 
ROOT
HETATM    1  O   UNL     1      14.366  17.167  15.624  1.00  0.00    -0.288 OA
HETATM    2  C   UNL     1      11.753  15.037  15.990  1.00  0.00     0.106 C 
HETATM    3  C   UNL     1      12.716  17.031  13.914  1.00  0.00     0.061 C 
HETATM    4  C   UNL     1      12.391  16.190  16.265  1.00  0.00     0.012 C 
HETATM    5  N   UNL     1      11.616  14.415  14.768  1.00  0.00    -0.317 N 
HETATM    6  C   UNL     1      11.116  15.137  13.679  1.00  0.00     0.247 C 
HETATM    7  C   UNL     1      13.232  16.824  15.262  1.00  0.00     0.180 C 
HETATM    8  O   UNL     1      10.188  14.684  13.038  1.00  0.00    -0.268 OA
HETATM    9  C   UNL     1      11.773  16.396  13.323  1.00  0.00     0.078 C 
ENDROOT
BRANCH   4  10
HETATM   10  C   UNL     1      12.295  16.896  17.592  1.00  0.00     0.082 C 
BRANCH  10  11
HETATM   11  C   UNL     1      11.222  16.304  18.462  1.00  0.00    -0.053 C 
HETATM   12  C   UNL     1      10.670  15.058  18.171  1.00  0.00     0.019 C 
HETATM   13  C   UNL     1       9.839  14.458  19.121  1.00  0.00    -0.025 C 
HETATM   14  C   UNL     1       9.122  13.285  18.881  1.00  0.00     0.012 C 
HETATM   15  C   UNL     1       9.825  14.979  20.439  1.00  0.00    -0.026 C 
HETATM   16  C   UNL     1       8.894  12.402  19.930  1.00  0.00     0.001 C 
HETATM   17  C   UNL     1       9.185  12.802  21.234  1.00  0.00     0.001 C 
HETATM   18  C   UNL     1       9.572  14.112  21.500  1.00  0.00     0.012 C 
HETATM   19  C   UNL     1      10.108  16.340  20.600  1.00  0.00     0.013 C 
HETATM   20  C   UNL     1      10.788  17.009  19.582  1.00  0.00     0.008 C 
ENDBRANCH  10  11
ENDBRANCH   4  10
BRANCH   5  21
HETATM   21  C   UNL     1      11.960  13.008  14.520  1.00  0.00     0.209 C 
BRANCH  21  22
HETATM   22  C   UNL     1      11.291  12.024  15.454  1.00  0.00     0.141 C 
HETATM   23  C   UNL     1       9.809  12.040  15.610  1.00  0.00     0.092 C 
HETATM   24  O   UNL     1      11.960  11.244  16.134  1.00  0.00    -0.297 OA
ENDBRANCH  21  22
ENDBRANCH   5  21
TORSDOF 4
ENDMDL
MODEL 3
REMARK VINA RESULT:      -8.9      2.658      4.341
REMARK  4 active torsions:
REMARK  status: ('A' for Active; 'I' for Inactive)
REMARK    1  A    between atoms: C_4  and  N_7 
REMARK    2  A    between atoms: C_4  and  C_21 
REMARK    3  A    between atoms: C_5  and  C_6 
REMARK    4  A    between atoms: C_5  and  C_8 
ROOT
HETATM    1  O   UNL     1      11.915  12.137  14.409  1.00  0.00    -0.288 OA
HETATM    2  C   UNL     1      10.881  15.343  14.793  1.00  0.00     0.106 C 
HETATM    3  C   UNL     1      13.234  13.649  15.689  1.00  0.00     0.061 C 
HETATM    4  C   UNL     1      10.819  14.033  15.094  1.00  0.00     0.012 C 
HETATM    5  N   UNL     1      12.005  16.115  14.597  1.00  0.00    -0.317 N 
HETATM    6  C   UNL     1      13.011  16.127  15.570  1.00  0.00     0.247 C 
HETATM    7  C   UNL     1      12.012  13.204  15.030  1.00  0.00     0.180 C 
HETATM    8  O   UNL     1      13.416  17.190  15.997  1.00  0.00    -0.268 OA
HETATM    9  C   UNL     1      13.576  14.845  15.997  1.00  0.00     0.078 C 
ENDROOT
BRANCH   4  10
HETATM   10  C   UNL     1       9.548  13.334  15.504  1.00  0.00     0.082 C 
BRANCH  10  11
HETATM   11  C   UNL     1       9.577  12.930  16.951  1.00  0.00    -0.053 C 
HETATM   12  C   UNL     1      10.303  13.664  17.887  1.00  0.00     0.019 C 
HETATM   13  C   UNL     1      10.125  13.379  19.243  1.00  0.00    -0.025 C 
HETATM   14  C   UNL     1      10.900  13.950  20.254  1.00  0.00     0.012 C 
HETATM   15  C   UNL     1       9.020  12.582  19.631  1.00  0.00    -0.026 C 
HETATM   16  C   UNL     1      10.321  14.194  21.495  1.00  0.00     0.001 C 
HETATM   17  C   UNL     1       9.062  13.667  21.777  1.00  0.00     0.001 C 
HETATM   18  C   UNL     1       8.446  12.796  20.883  1.00  0.00     0.012 C 
HETATM   19  C   UNL     1       8.542  11.645  18.709  1.00  0.00     0.013 C 
HETATM   20  C   UNL     1       8.854  11.812  17.359  1.00  0.00     0.008 C 
ENDBRANCH  10  11
ENDBRANCH   4  10
BRANCH   5  21
HETATM   21  C   UNL     1      12.228  16.955  13.412  1.00  0.00     0.209 C 
BRANCH  21  22
HETATM   22  C   UNL     1      11.561  16.452  12.152  1.00  0.00     0.141 C 
HETATM   23  C   UNL     1      12.295  16.497  10.855  1.00  0.00     0.092 C 
HETATM   24  O   UNL     1      10.395  16.054  12.170  1.00  0.00    -0.297 OA
ENDBRANCH  21  22
ENDBRANCH   5  21
TORSDOF 4
ENDMDL
MODEL 4
REMARK VINA RESULT:      -8.7      2.372      5.311
REMARK  4 active torsions:
REMARK  status: ('A' for Active; 'I' for Inactive)
REMARK    1  A    between atoms: C_4  and  N_7 
REMARK    2  A    between atoms: C_4  and  C_21 
REMARK    3  A    between atoms: C_5  and  C_6 
REMARK    4  A    between atoms: C_5  and  C_8 
ROOT
HETATM    1  O   UNL     1       9.452  15.469  20.681  1.00  0.00    -0.288 OA
HETATM    2  C   UNL     1       9.463  13.995  17.628  1.00  0.00     0.106 C 
HETATM    3  C   UNL     1       9.100  13.122  20.512  1.00  0.00     0.061 C 
HETATM    4  C   UNL     1      10.094  14.540  18.685  1.00  0.00     0.012 C 
HETATM    5  N   UNL     1       8.387  13.134  17.635  1.00  0.00    -0.317 N 
HETATM    6  C   UNL     1       8.444  11.967  18.405  1.00  0.00     0.247 C 
HETATM    7  C   UNL     1       9.530  14.426  20.020  1.00  0.00     0.180 C 
HETATM    8  O   UNL     1       8.188  10.898  17.888  1.00  0.00    -0.268 OA
HETATM    9  C   UNL     1       8.761  12.092  19.829  1.00  0.00     0.078 C 
ENDROOT
BRANCH   4  10
HETATM   10  C   UNL     1      11.395  15.293  18.577  1.00  0.00     0.082 C 
BRANCH  10  11
HETATM   11  C   UNL     1      11.829  15.453  17.147  1.00  0.00    -0.053 C 
HETATM   12  C   UNL     1      11.285  14.660  16.139  1.00  0.00     0.019 C 
HETATM   13  C   UNL     1      11.556  14.991  14.809  1.00  0.00    -0.025 C 
HETATM   14  C   UNL     1      11.185  14.189  13.728  1.00  0.00     0.012 C 
HETATM   15  C   UNL     1      12.111  16.263  14.524  1.00  0.00    -0.026 C 
HETATM   16  C   UNL     1      10.853  14.791  12.520  1.00  0.00     0.001 C 
HETATM   17  C   UNL     1      11.108  16.150  12.342  1.00  0.00     0.001 C 
HETATM   18  C   UNL     1      11.809  16.869  13.306  1.00  0.00     0.012 C 
HETATM   19  C   UNL     1      12.905  16.859  15.510  1.00  0.00     0.013 C 
HETATM   20  C   UNL     1      12.778  16.422  16.829  1.00  0.00     0.008 C 
ENDBRANCH  10  11
ENDBRANCH   4  10
BRANCH   5  21
HETATM   21  C   UNL     1       7.154  13.354  16.867  1.00  0.00     0.209 C 
BRANCH  21  22
HETATM   22  C   UNL     1       7.233  12.930  15.418  1.00  0.00     0.141 C 
HETATM   23  C   UNL     1       7.657  13.913  14.380  1.00  0.00     0.092 C 
HETATM   24  O   UNL     1       6.898  11.796  15.072  1.00  0.00    -0.297 OA
ENDBRANCH  21  22
ENDBRANCH   5  21
TORSDOF 4
ENDMDL
MODEL 5
REMARK VINA RESULT:      -8.1      2.475      4.357
REMARK  4 active torsions:
REMARK  status: ('A' for Active; 'I' for Inactive)
REMARK    1  A    between atoms: C_4  and  N_7 
REMARK    2  A    between atoms: C_4  and  C_21 
REMARK    3  A    between atoms: C_5  and  C_6 
REMARK    4  A    between atoms: C_5  and  C_8 
ROOT
HETATM    1  O   UNL     1       8.781  14.096  15.311  1.00  0.00    -0.288 OA
HETATM    2  C   UNL     1      12.082  14.752  14.894  1.00  0.00     0.106 C 
HETATM    3  C   UNL     1       9.566  14.865  13.200  1.00  0.00     0.061 C 
HETATM    4  C   UNL     1      11.045  13.899  14.993  1.00  0.00     0.012 C 
HETATM    5  N   UNL     1      12.132  15.948  14.212  1.00  0.00    -0.317 N 
HETATM    6  C   UNL     1      11.763  15.988  12.863  1.00  0.00     0.247 C 
HETATM    7  C   UNL     1       9.723  14.289  14.530  1.00  0.00     0.180 C 
HETATM    8  O   UNL     1      12.516  16.492  12.053  1.00  0.00    -0.268 OA
HETATM    9  C   UNL     1      10.447  15.465  12.489  1.00  0.00     0.078 C 
ENDROOT
BRANCH   4  10
HETATM   10  C   UNL     1      11.161  12.516  15.578  1.00  0.00     0.082 C 
BRANCH  10  11
HETATM   11  C   UNL     1      10.853  12.505  17.049  1.00  0.00    -0.053 C 
HETATM   12  C   UNL     1      11.192  13.585  17.861  1.00  0.00     0.019 C 
HETATM   13  C   UNL     1      10.694  13.622  19.167  1.00  0.00    -0.025 C 
HETATM   14  C   UNL     1      11.082  14.576  20.108  1.00  0.00     0.012 C 
HETATM   15  C   UNL     1       9.644  12.737  19.519  1.00  0.00    -0.026 C 
HETATM   16  C   UNL     1      10.162  15.001  21.061  1.00  0.00     0.001 C 
HETATM   17  C   UNL     1       8.957  14.314  21.200  1.00  0.00     0.001 C 
HETATM   18  C   UNL     1       8.730  13.137  20.492  1.00  0.00     0.012 C 
HETATM   19  C   UNL     1       9.566  11.520  18.834  1.00  0.00     0.013 C 
HETATM   20  C   UNL     1      10.205  11.401  17.600  1.00  0.00     0.008 C 
ENDBRANCH  10  11
ENDBRANCH   4  10
BRANCH   5  21
HETATM   21  C   UNL     1      12.564  17.218  14.813  1.00  0.00     0.209 C 
BRANCH  21  22
HETATM   22  C   UNL     1      13.242  17.078  16.157  1.00  0.00     0.141 C 
HETATM   23  C   UNL     1      12.437  17.179  17.408  1.00  0.00     0.092 C 
HETATM   24  O   UNL     1      14.463  16.935  16.237  1.00  0.00    -0.297 OA
ENDBRANCH  21  22
ENDBRANCH   5  21
TORSDOF 4
ENDMDL
MODEL 6
REMARK VINA RESULT:      -8.1      1.876      2.791
REMARK  4 active torsions:
REMARK  status: ('A' for Active; 'I' for Inactive)
REMARK    1  A    between atoms: C_4  and  N_7 
REMARK    2  A    between atoms: C_4  and  C_21 
REMARK    3  A    between atoms: C_5  and  C_6 
REMARK    4  A    between atoms: C_5  and  C_8 
ROOT
HETATM    1  O   UNL     1      12.151  11.720  15.414  1.00  0.00    -0.288 OA
HETATM    2  C   UNL     1      10.405  14.627  15.369  1.00  0.00     0.106 C 
HETATM    3  C   UNL     1      12.215  13.097  13.474  1.00  0.00     0.061 C 
HETATM    4  C   UNL     1      11.463  13.884  15.744  1.00  0.00     0.012 C 
HETATM    5  N   UNL     1       9.788  14.662  14.138  1.00  0.00    -0.317 N 
HETATM    6  C   UNL     1      10.556  14.889  12.989  1.00  0.00     0.247 C 
HETATM    7  C   UNL     1      11.961  12.823  14.883  1.00  0.00     0.180 C 
HETATM    8  O   UNL     1      10.224  15.763  12.213  1.00  0.00    -0.268 OA
HETATM    9  C   UNL     1      11.706  14.018  12.743  1.00  0.00     0.078 C 
ENDROOT
BRANCH   4  10
HETATM   10  C   UNL     1      12.197  14.081  17.045  1.00  0.00     0.082 C 
BRANCH  10  11
HETATM   11  C   UNL     1      11.248  14.243  18.200  1.00  0.00    -0.053 C 
HETATM   12  C   UNL     1      10.369  13.222  18.554  1.00  0.00     0.019 C 
HETATM   13  C   UNL     1       9.667  13.333  19.757  1.00  0.00    -0.025 C 
HETATM   14  C   UNL     1       8.660  12.446  20.142  1.00  0.00     0.012 C 
HETATM   15  C   UNL     1      10.082  14.306  20.700  1.00  0.00    -0.026 C 
HETATM   16  C   UNL     1       8.485  12.164  21.492  1.00  0.00     0.001 C 
HETATM   17  C   UNL     1       9.156  12.931  22.442  1.00  0.00     0.001 C 
HETATM   18  C   UNL     1       9.888  14.051  22.056  1.00  0.00     0.012 C 
HETATM   19  C   UNL     1      10.704  15.460  20.209  1.00  0.00     0.013 C 
HETATM   20  C   UNL     1      11.264  15.428  18.931  1.00  0.00     0.008 C 
ENDBRANCH  10  11
ENDBRANCH   4  10
BRANCH   5  21
HETATM   21  C   UNL     1       8.344  14.482  13.937  1.00  0.00     0.209 C 
BRANCH  21  22
HETATM   22  C   UNL     1       7.778  13.221  14.550  1.00  0.00     0.141 C 
HETATM   23  C   UNL     1       7.313  13.229  15.967  1.00  0.00     0.092 C 
HETATM   24  O   UNL     1       7.745  12.168  13.912  1.00  0.00    -0.297 OA
ENDBRANCH  21  22
ENDBRANCH   5  21
TORSDOF 4
ENDMDL
MODEL 7
REMARK VINA RESULT:      -7.9      1.532      3.049
REMARK  4 active torsions:
REMARK  status: ('A' for Active; 'I' for Inactive)
REMARK    1  A    between atoms: C_4  and  N_7 
REMARK    2  A    between atoms: C_4  and  C_21 
REMARK    3  A    between atoms: C_5  and  C_6 
REMARK    4  A    between atoms: C_5  and  C_8 
ROOT
HETATM    1  O   UNL     1       8.728  13.053  16.910  1.00  0.00    -0.288 OA
HETATM    2  C   UNL     1      11.967  13.684  16.135  1.00  0.00     0.106 C 
HETATM    3  C   UNL     1       9.734  11.924  15.074  1.00  0.00     0.061 C 
HETATM    4  C   UNL     1      11.021  13.097  16.891  1.00  0.00     0.012 C 
HETATM    5  N   UNL     1      11.995  13.815  14.764  1.00  0.00    -0.317 N 
HETATM    6  C   UNL     1      11.829  12.681  13.960  1.00  0.00     0.247 C 
HETATM    7  C   UNL     1       9.750  12.702  16.307  1.00  0.00     0.180 C 
HETATM    8  O   UNL     1      12.638  12.447  13.084  1.00  0.00    -0.268 OA
HETATM    9  C   UNL     1      10.645  11.847  14.176  1.00  0.00     0.078 C 
ENDROOT
BRANCH   4  10
HETATM   10  C   UNL     1      11.192  12.813  18.361  1.00  0.00     0.082 C 
BRANCH  10  11
HETATM   11  C   UNL     1      10.500  13.842  19.211  1.00  0.00    -0.053 C 
HETATM   12  C   UNL     1      10.651  15.203  18.954  1.00  0.00     0.019 C 
HETATM   13  C   UNL     1       9.824  16.106  19.628  1.00  0.00    -0.025 C 
HETATM   14  C   UNL     1       9.982  17.491  19.557  1.00  0.00     0.012 C 
HETATM   15  C   UNL     1       8.685  15.608  20.308  1.00  0.00    -0.026 C 
HETATM   16  C   UNL     1       8.858  18.306  19.633  1.00  0.00     0.001 C 
HETATM   17  C   UNL     1       7.635  17.749  20.000  1.00  0.00     0.001 C 
HETATM   18  C   UNL     1       7.560  16.423  20.416  1.00  0.00     0.012 C 
HETATM   19  C   UNL     1       8.745  14.299  20.800  1.00  0.00     0.013 C 
HETATM   20  C   UNL     1       9.687  13.422  20.260  1.00  0.00     0.008 C 
ENDBRANCH  10  11
ENDBRANCH   4  10
BRANCH   5  21
HETATM   21  C   UNL     1      12.198  15.091  14.064  1.00  0.00     0.209 C 
BRANCH  21  22
HETATM   22  C   UNL     1      11.017  15.549  13.237  1.00  0.00     0.141 C 
HETATM   23  C   UNL     1      11.237  16.432  12.057  1.00  0.00     0.092 C 
HETATM   24  O   UNL     1       9.867  15.246  13.558  1.00  0.00    -0.297 OA
ENDBRANCH  21  22
ENDBRANCH   5  21
TORSDOF 4
ENDMDL
