REMARK  5 active torsions:
REMARK  status: ('A' for Active; 'I' for Inactive)
REMARK    1  A    between atoms: O_2  and  C_9 
REMARK    2  A    between atoms: C_4  and  O_19 
REMARK    3  A    between atoms: C_6  and  C_17 
REMARK    4  A    between atoms: C_6  and  C_21 
REMARK    5  A    between atoms: C_10  and  O_22 
ROOT
HETATM    1  C   UNL     1      87.237  64.556  19.028  1.00  0.00     0.071 C 
HETATM    2  C   UNL     1      87.764  66.855  19.140  1.00  0.00    -0.047 C 
HETATM    3  C   UNL     1      89.422  65.417  20.130  1.00  0.00     0.024 C 
HETATM    4  C   UNL     1      86.039  65.402  18.574  1.00  0.00     0.126 C 
HETATM    5  C   UNL     1      89.813  67.777  19.921  1.00  0.00     0.078 C 
HETATM    6  C   UNL     1      86.664  66.712  18.117  1.00  0.00     0.071 C 
HETATM    7  C   UNL     1      88.147  65.610  19.601  1.00  0.00    -0.048 C 
HETATM    8  C   UNL     1      90.321  66.487  20.151  1.00  0.00     0.026 C 
HETATM    9  C   UNL     1      88.601  67.946  19.252  1.00  0.00     0.045 C 
ENDROOT
BRANCH   8  10
HETATM   10  C   UNL     1      91.791  66.303  20.280  1.00  0.00     0.066 C 
HETATM   11  N   UNL     1      92.543  66.858  19.398  1.00  0.00    -0.397 N 
ATOM     12  HN2 UNL     1      92.110  67.390  18.644  1.00  0.00     0.156 HD
ATOM     13  HN1 UNL     1      93.551  66.732  19.486  1.00  0.00     0.156 HD
BRANCH  10  14
HETATM   14  C   UNL     1      92.426  65.523  21.385  1.00  0.00     0.062 C 
HETATM   15  C   UNL     1      92.950  66.131  22.524  1.00  0.00     0.068 C 
HETATM   16  C   UNL     1      94.139  65.585  23.022  1.00  0.00     0.069 C 
HETATM   17  C   UNL     1      94.658  64.426  22.437  1.00  0.00     0.053 C 
HETATM   18  C   UNL     1      93.866  63.749  21.521  1.00  0.00     0.091 C 
HETATM   19  N   UNL     1      92.634  64.183  21.188  1.00  0.00    -0.364 N 
ATOM     20  HN  UNL     1      91.913  63.563  20.819  1.00  0.00     0.165 HD
BRANCH  16  21
HETATM   21  O   UNL     1      94.744  66.124  24.126  1.00  0.00    -0.361 OA
ATOM     22  HO  UNL     1      95.551  65.753  24.464  1.00  0.00     0.217 HD
ENDBRANCH  16  21
ENDBRANCH  10  14
ENDBRANCH   8  10
BRANCH   5  23
HETATM   23  O   UNL     1      90.600  68.871  20.131  1.00  0.00    -0.360 OA
ATOM     24  HO  UNL     1      90.257  69.743  19.976  1.00  0.00     0.217 HD
ENDBRANCH   5  23
BRANCH   4  25
HETATM   25  O   UNL     1      85.317  64.746  17.546  1.00  0.00    -0.395 OA
ATOM     26  HO  UNL     1      84.576  65.269  17.265  1.00  0.00     0.210 HD
ENDBRANCH   4  25
TORSDOF 5
