MODEL 1
REMARK VINA RESULT:     -13.5      0.000      0.000
REMARK  3 active torsions:
REMARK  status: ('A' for Active; 'I' for Inactive)
REMARK    1  A    between atoms: C_4  and  C_16 
REMARK    2  A    between atoms: N_5  and  C_27 
REMARK    3  A    between atoms: C_10  and  C_24 
ROOT
HETATM    1  C   UNL     1      15.463  27.329 -12.544  1.00  0.00    -0.040 C 
HETATM    2  C   UNL     1      15.921  28.554 -12.086  1.00  0.00    -0.019 C 
HETATM    3  C   UNL     1      15.168  23.728 -15.126  1.00  0.00    -0.038 C 
HETATM    4  C   UNL     1      16.023  24.924 -15.368  1.00  0.00     0.061 C 
HETATM    5  C   UNL     1      13.933  25.571 -14.242  1.00  0.00    -0.059 C 
HETATM    6  C   UNL     1      13.946  24.104 -14.567  1.00  0.00    -0.024 C 
HETATM    7  C   UNL     1      14.755  28.109 -10.041  1.00  0.00     0.001 C 
HETATM    8  C   UNL     1      14.218  26.904 -12.063  1.00  0.00    -0.047 C 
HETATM    9  C   UNL     1      12.904  23.201 -14.507  1.00  0.00     0.041 C 
HETATM   10  C   UNL     1      15.786  28.807 -10.718  1.00  0.00     0.013 C 
HETATM   11  C   UNL     1      13.323  26.038 -12.934  1.00  0.00     0.074 C 
HETATM   12  C   UNL     1      13.146  21.866 -14.838  1.00  0.00     0.026 C 
HETATM   13  C   UNL     1      16.217  26.555 -13.569  1.00  0.00     0.050 C 
HETATM   14  C   UNL     1      14.442  21.457 -15.182  1.00  0.00     0.029 C 
HETATM   15  C   UNL     1      15.457  22.392 -15.342  1.00  0.00     0.011 C 
HETATM   16  C   UNL     1      15.292  26.084 -14.683  1.00  0.00     0.033 C 
HETATM   17  C   UNL     1      13.865  27.303 -10.766  1.00  0.00     0.008 C 
ENDROOT
BRANCH   2  18
HETATM   18  C   UNL     1      16.299  29.489 -13.071  1.00  0.00    -0.025 C 
HETATM   19  C   UNL     1      15.350  29.982 -13.969  1.00  0.00     0.013 C 
HETATM   20  C   UNL     1      15.495  31.254 -14.526  1.00  0.00     0.007 C 
HETATM   21  C   UNL     1      16.198  32.285 -13.943  1.00  0.00    -0.062 C 
HETATM   22  C   UNL     1      17.574  32.262 -13.742  1.00  0.00     0.007 C 
HETATM   23  C   UNL     1      15.442  33.485 -13.453  1.00  0.00     0.048 C 
HETATM   24  C   UNL     1      18.231  31.076 -13.471  1.00  0.00     0.001 C 
HETATM   25  C   UNL     1      17.627  29.883 -13.145  1.00  0.00     0.012 C 
ENDBRANCH   2  18
BRANCH   4  26
HETATM   26  C   UNL     1      16.216  25.282 -16.816  1.00  0.00    -0.049 C 
HETATM   27  C   UNL     1      17.503  25.480 -17.251  1.00  0.00     0.008 C 
HETATM   28  C   UNL     1      18.000  25.682 -18.507  1.00  0.00     0.001 C 
HETATM   29  C   UNL     1      17.423  26.123 -19.653  1.00  0.00     0.000 C 
HETATM   30  C   UNL     1      16.064  26.153 -19.898  1.00  0.00     0.000 C 
HETATM   31  C   UNL     1      15.101  25.833 -18.972  1.00  0.00     0.001 C 
HETATM   32  C   UNL     1      15.137  25.433 -17.662  1.00  0.00     0.008 C 
ENDBRANCH   4  26
BRANCH  12  33
HETATM   33  N   UNL     1      12.128  20.946 -14.796  1.00  0.00    -0.399 N 
ATOM     34  HN2 UNL     1      12.330  19.958 -14.951  1.00  0.00     0.156 HD
ATOM     35  HN1 UNL     1      11.174  21.241 -14.587  1.00  0.00     0.156 HD
ENDBRANCH  12  33
TORSDOF 3
ENDMDL
