MODEL 1
REMARK VINA RESULT:      -5.0      0.000      0.000
REMARK  7 active torsions:
REMARK  status: ('A' for Active; 'I' for Inactive)
REMARK    1  A    between atoms: C_1  and  C_4 
REMARK    2  A    between atoms: C_1  and  C_9 
REMARK    3  A    between atoms: C_3  and  C_4 
REMARK    4  A    between atoms: C_3  and  C_10 
REMARK    5  A    between atoms: O_5  and  C_9 
REMARK    6  A    between atoms: O_7  and  C_9 
REMARK    7  A    between atoms: C_9  and  O_11 
ROOT
HETATM    1  C   UNL     1     120.474   7.384  38.291  1.00  0.00     0.275 C 
ENDROOT
BRANCH   1   2
HETATM    2  C   UNL     1     120.855   8.451  39.363  1.00  0.00     0.102 C 
BRANCH   2   3
HETATM    3  C   UNL     1     119.939   8.515  40.575  1.00  0.00     0.014 C 
BRANCH   3   4
HETATM    4  C   UNL     1     120.521   8.060  41.891  1.00  0.00     0.069 C 
BRANCH   4   5
HETATM    5  C   UNL     1     122.015   8.008  42.035  1.00  0.00     0.231 C 
HETATM    6  O   UNL     1     122.564   7.103  42.621  1.00  0.00    -0.307 OA
ENDBRANCH   4   5
ENDBRANCH   3   4
ENDBRANCH   2   3
ENDBRANCH   1   2
BRANCH   1   7
HETATM    7  O   UNL     1     119.345   7.852  37.599  1.00  0.00    -0.344 OA
ATOM      8  HO  UNL     1     118.629   7.919  38.220  1.00  0.00     0.215 HD
ENDBRANCH   1   7
BRANCH   1   9
HETATM    9  O   UNL     1     120.253   6.142  38.875  1.00  0.00    -0.344 OA
ATOM     10  HO  UNL     1     121.060   5.778  39.218  1.00  0.00     0.215 HD
ENDBRANCH   1   9
BRANCH   1  11
HETATM   11  O   UNL     1     121.555   7.358  37.375  1.00  0.00    -0.344 OA
ATOM     12  HO  UNL     1     121.631   6.454  37.093  1.00  0.00     0.215 HD
ENDBRANCH   1  11
TORSDOF 7
ENDMDL
MODEL 2
REMARK VINA RESULT:      -4.7      1.436      4.233
REMARK  7 active torsions:
REMARK  status: ('A' for Active; 'I' for Inactive)
REMARK    1  A    between atoms: C_1  and  C_4 
REMARK    2  A    between atoms: C_1  and  C_9 
REMARK    3  A    between atoms: C_3  and  C_4 
REMARK    4  A    between atoms: C_3  and  C_10 
REMARK    5  A    between atoms: O_5  and  C_9 
REMARK    6  A    between atoms: O_7  and  C_9 
REMARK    7  A    between atoms: C_9  and  O_11 
ROOT
HETATM    1  C   UNL     1     121.623   8.421  42.106  1.00  0.00     0.275 C 
ENDROOT
BRANCH   1   2
HETATM    2  C   UNL     1     121.440   8.160  40.579  1.00  0.00     0.102 C 
BRANCH   2   3
HETATM    3  C   UNL     1     120.027   7.809  40.140  1.00  0.00     0.014 C 
BRANCH   3   4
HETATM    4  C   UNL     1     119.891   6.763  39.061  1.00  0.00     0.069 C 
BRANCH   4   5
HETATM    5  C   UNL     1     121.049   6.536  38.132  1.00  0.00     0.231 C 
HETATM    6  O   UNL     1     121.366   7.357  37.302  1.00  0.00    -0.307 OA
ENDBRANCH   4   5
ENDBRANCH   3   4
ENDBRANCH   2   3
ENDBRANCH   1   2
BRANCH   1   7
HETATM    7  O   UNL     1     120.347   8.490  42.688  1.00  0.00    -0.344 OA
ATOM      8  HO  UNL     1     120.452   8.428  43.630  1.00  0.00     0.215 HD
ENDBRANCH   1   7
BRANCH   1   9
HETATM    9  O   UNL     1     122.365   9.573  42.332  1.00  0.00    -0.344 OA
ATOM     10  HO  UNL     1     123.198   9.539  41.876  1.00  0.00     0.215 HD
ENDBRANCH   1   9
BRANCH   1  11
HETATM   11  O   UNL     1     122.263   7.265  42.618  1.00  0.00    -0.344 OA
ATOM     12  HO  UNL     1     121.677   6.541  42.430  1.00  0.00     0.215 HD
ENDBRANCH   1  11
TORSDOF 7
ENDMDL
MODEL 3
REMARK VINA RESULT:      -4.7      3.073      4.268
REMARK  7 active torsions:
REMARK  status: ('A' for Active; 'I' for Inactive)
REMARK    1  A    between atoms: C_1  and  C_4 
REMARK    2  A    between atoms: C_1  and  C_9 
REMARK    3  A    between atoms: C_3  and  C_4 
REMARK    4  A    between atoms: C_3  and  C_10 
REMARK    5  A    between atoms: O_5  and  C_9 
REMARK    6  A    between atoms: O_7  and  C_9 
REMARK    7  A    between atoms: C_9  and  O_11 
ROOT
HETATM    1  C   UNL     1     121.649   8.370  42.081  1.00  0.00     0.275 C 
ENDROOT
BRANCH   1   2
HETATM    2  C   UNL     1     121.360   8.224  40.555  1.00  0.00     0.102 C 
BRANCH   2   3
HETATM    3  C   UNL     1     120.449   9.285  39.957  1.00  0.00     0.014 C 
BRANCH   3   4
HETATM    4  C   UNL     1     121.053  10.186  38.908  1.00  0.00     0.069 C 
BRANCH   4   5
HETATM    5  C   UNL     1     121.564  11.535  39.327  1.00  0.00     0.231 C 
HETATM    6  O   UNL     1     122.032  11.721  40.427  1.00  0.00    -0.307 OA
ENDBRANCH   4   5
ENDBRANCH   3   4
ENDBRANCH   2   3
ENDBRANCH   1   2
BRANCH   1   7
HETATM    7  O   UNL     1     122.346   9.573  42.275  1.00  0.00    -0.344 OA
ATOM      8  HO  UNL     1     122.344  10.048  41.453  1.00  0.00     0.215 HD
ENDBRANCH   1   7
BRANCH   1   9
HETATM    9  O   UNL     1     122.351   7.272  42.565  1.00  0.00    -0.344 OA
ATOM     10  HO  UNL     1     123.245   7.508  42.783  1.00  0.00     0.215 HD
ENDBRANCH   1   9
BRANCH   1  11
HETATM   11  O   UNL     1     120.381   8.507  42.699  1.00  0.00    -0.344 OA
ATOM     12  HO  UNL     1     119.753   8.156  42.079  1.00  0.00     0.215 HD
ENDBRANCH   1  11
TORSDOF 7
ENDMDL
MODEL 4
REMARK VINA RESULT:      -4.5      2.589      3.965
REMARK  7 active torsions:
REMARK  status: ('A' for Active; 'I' for Inactive)
REMARK    1  A    between atoms: C_1  and  C_4 
REMARK    2  A    between atoms: C_1  and  C_9 
REMARK    3  A    between atoms: C_3  and  C_4 
REMARK    4  A    between atoms: C_3  and  C_10 
REMARK    5  A    between atoms: O_5  and  C_9 
REMARK    6  A    between atoms: O_7  and  C_9 
REMARK    7  A    between atoms: C_9  and  O_11 
ROOT
HETATM    1  C   UNL     1     122.022  10.811  38.781  1.00  0.00     0.275 C 
ENDROOT
BRANCH   1   2
HETATM    2  C   UNL     1     121.595   9.879  39.957  1.00  0.00     0.102 C 
BRANCH   2   3
HETATM    3  C   UNL     1     120.328   9.071  39.724  1.00  0.00     0.014 C 
BRANCH   3   4
HETATM    4  C   UNL     1     120.494   7.581  39.557  1.00  0.00     0.069 C 
BRANCH   4   5
HETATM    5  C   UNL     1     120.546   7.016  38.166  1.00  0.00     0.231 C 
HETATM    6  O   UNL     1     121.467   7.254  37.419  1.00  0.00    -0.307 OA
ENDBRANCH   4   5
ENDBRANCH   3   4
ENDBRANCH   2   3
ENDBRANCH   1   2
BRANCH   1   7
HETATM    7  O   UNL     1     122.294  10.002  37.666  1.00  0.00    -0.344 OA
ATOM      8  HO  UNL     1     122.795  10.519  37.046  1.00  0.00     0.215 HD
ENDBRANCH   1   7
BRANCH   1   9
HETATM    9  O   UNL     1     123.111  11.599  39.136  1.00  0.00    -0.344 OA
ATOM     10  HO  UNL     1     123.464  12.054  38.381  1.00  0.00     0.215 HD
ENDBRANCH   1   9
BRANCH   1  11
HETATM   11  O   UNL     1     120.878  11.589  38.475  1.00  0.00    -0.344 OA
ATOM     12  HO  UNL     1     120.760  11.516  37.536  1.00  0.00     0.215 HD
ENDBRANCH   1  11
TORSDOF 7
ENDMDL
MODEL 5
REMARK VINA RESULT:      -4.5      2.097      2.884
REMARK  7 active torsions:
REMARK  status: ('A' for Active; 'I' for Inactive)
REMARK    1  A    between atoms: C_1  and  C_4 
REMARK    2  A    between atoms: C_1  and  C_9 
REMARK    3  A    between atoms: C_3  and  C_4 
REMARK    4  A    between atoms: C_3  and  C_10 
REMARK    5  A    between atoms: O_5  and  C_9 
REMARK    6  A    between atoms: O_7  and  C_9 
REMARK    7  A    between atoms: C_9  and  O_11 
ROOT
HETATM    1  C   UNL     1     120.202   6.985  38.572  1.00  0.00     0.275 C 
ENDROOT
BRANCH   1   2
HETATM    2  C   UNL     1     120.651   7.673  39.898  1.00  0.00     0.102 C 
BRANCH   2   3
HETATM    3  C   UNL     1     120.368   9.165  39.988  1.00  0.00     0.014 C 
BRANCH   3   4
HETATM    4  C   UNL     1     121.534  10.092  39.751  1.00  0.00     0.069 C 
BRANCH   4   5
HETATM    5  C   UNL     1     121.949  10.377  38.336  1.00  0.00     0.231 C 
HETATM    6  O   UNL     1     122.227   9.487  37.565  1.00  0.00    -0.307 OA
ENDBRANCH   4   5
ENDBRANCH   3   4
ENDBRANCH   2   3
ENDBRANCH   1   2
BRANCH   1   7
HETATM    7  O   UNL     1     119.284   5.973  38.901  1.00  0.00    -0.344 OA
ATOM      8  HO  UNL     1     118.417   6.360  38.915  1.00  0.00     0.215 HD
ENDBRANCH   1   7
BRANCH   1   9
HETATM    9  O   UNL     1     121.294   6.492  37.868  1.00  0.00    -0.344 OA
ATOM     10  HO  UNL     1     121.276   5.544  37.827  1.00  0.00     0.215 HD
ENDBRANCH   1   9
BRANCH   1  11
HETATM   11  O   UNL     1     119.500   7.977  37.843  1.00  0.00    -0.344 OA
ATOM     12  HO  UNL     1     120.167   8.527  37.450  1.00  0.00     0.215 HD
ENDBRANCH   1  11
TORSDOF 7
ENDMDL
MODEL 6
REMARK VINA RESULT:      -4.4      2.380      2.779
REMARK  7 active torsions:
REMARK  status: ('A' for Active; 'I' for Inactive)
REMARK    1  A    between atoms: C_1  and  C_4 
REMARK    2  A    between atoms: C_1  and  C_9 
REMARK    3  A    between atoms: C_3  and  C_4 
REMARK    4  A    between atoms: C_3  and  C_10 
REMARK    5  A    between atoms: O_5  and  C_9 
REMARK    6  A    between atoms: O_7  and  C_9 
REMARK    7  A    between atoms: C_9  and  O_11 
ROOT
HETATM    1  C   UNL     1     121.985  10.498  38.648  1.00  0.00     0.275 C 
ENDROOT
BRANCH   1   2
HETATM    2  C   UNL     1     121.622   9.847  40.018  1.00  0.00     0.102 C 
BRANCH   2   3
HETATM    3  C   UNL     1     120.744   8.608  39.941  1.00  0.00     0.014 C 
BRANCH   3   4
HETATM    4  C   UNL     1     120.559   7.826  41.218  1.00  0.00     0.069 C 
BRANCH   4   5
HETATM    5  C   UNL     1     121.545   8.029  42.333  1.00  0.00     0.231 C 
HETATM    6  O   UNL     1     122.440   7.242  42.539  1.00  0.00    -0.307 OA
ENDBRANCH   4   5
ENDBRANCH   3   4
ENDBRANCH   2   3
ENDBRANCH   1   2
BRANCH   1   7
HETATM    7  O   UNL     1     120.889  11.272  38.235  1.00  0.00    -0.344 OA
ATOM      8  HO  UNL     1     120.602  11.792  38.976  1.00  0.00     0.215 HD
ENDBRANCH   1   7
BRANCH   1   9
HETATM    9  O   UNL     1     122.328   9.533  37.709  1.00  0.00    -0.344 OA
ATOM     10  HO  UNL     1     123.138   9.758  37.267  1.00  0.00     0.215 HD
ENDBRANCH   1   9
BRANCH   1  11
HETATM   11  O   UNL     1     123.056  11.385  38.917  1.00  0.00    -0.344 OA
ATOM     12  HO  UNL     1     123.175  11.894  38.124  1.00  0.00     0.215 HD
ENDBRANCH   1  11
TORSDOF 7
ENDMDL
MODEL 7
REMARK VINA RESULT:      -4.4      2.463      2.954
REMARK  7 active torsions:
REMARK  status: ('A' for Active; 'I' for Inactive)
REMARK    1  A    between atoms: C_1  and  C_4 
REMARK    2  A    between atoms: C_1  and  C_9 
REMARK    3  A    between atoms: C_3  and  C_4 
REMARK    4  A    between atoms: C_3  and  C_10 
REMARK    5  A    between atoms: O_5  and  C_9 
REMARK    6  A    between atoms: O_7  and  C_9 
REMARK    7  A    between atoms: C_9  and  O_11 
ROOT
HETATM    1  C   UNL     1     121.351  10.617  38.968  1.00  0.00     0.275 C 
ENDROOT
BRANCH   1   2
HETATM    2  C   UNL     1     120.345   9.449  39.201  1.00  0.00     0.102 C 
BRANCH   2   3
HETATM    3  C   UNL     1     120.941   8.182  39.797  1.00  0.00     0.014 C 
BRANCH   3   4
HETATM    4  C   UNL     1     120.585   7.875  41.231  1.00  0.00     0.069 C 
BRANCH   4   5
HETATM    5  C   UNL     1     121.635   8.066  42.288  1.00  0.00     0.231 C 
HETATM    6  O   UNL     1     122.432   7.196  42.555  1.00  0.00    -0.307 OA
ENDBRANCH   4   5
ENDBRANCH   3   4
ENDBRANCH   2   3
ENDBRANCH   1   2
BRANCH   1   7
HETATM    7  O   UNL     1     121.889  10.979  40.213  1.00  0.00    -0.344 OA
ATOM      8  HO  UNL     1     121.271  11.561  40.640  1.00  0.00     0.215 HD
ENDBRANCH   1   7
BRANCH   1   9
HETATM    9  O   UNL     1     120.736  11.689  38.331  1.00  0.00    -0.344 OA
ATOM     10  HO  UNL     1     120.091  12.098  38.896  1.00  0.00     0.215 HD
ENDBRANCH   1   9
BRANCH   1  11
HETATM   11  O   UNL     1     122.403  10.069  38.192  1.00  0.00    -0.344 OA
ATOM     12  HO  UNL     1     122.733   9.332  38.691  1.00  0.00     0.215 HD
ENDBRANCH   1  11
TORSDOF 7
ENDMDL
MODEL 8
REMARK VINA RESULT:      -4.3      2.135      2.819
REMARK  7 active torsions:
REMARK  status: ('A' for Active; 'I' for Inactive)
REMARK    1  A    between atoms: C_1  and  C_4 
REMARK    2  A    between atoms: C_1  and  C_9 
REMARK    3  A    between atoms: C_3  and  C_4 
REMARK    4  A    between atoms: C_3  and  C_10 
REMARK    5  A    between atoms: O_5  and  C_9 
REMARK    6  A    between atoms: O_7  and  C_9 
REMARK    7  A    between atoms: C_9  and  O_11 
ROOT
HETATM    1  C   UNL     1     120.597   7.560  38.290  1.00  0.00     0.275 C 
ENDROOT
BRANCH   1   2
HETATM    2  C   UNL     1     120.989   8.726  39.249  1.00  0.00     0.102 C 
BRANCH   2   3
HETATM    3  C   UNL     1     121.626   9.935  38.583  1.00  0.00     0.014 C 
BRANCH   3   4
HETATM    4  C   UNL     1     121.759  11.182  39.423  1.00  0.00     0.069 C 
BRANCH   4   5
HETATM    5  C   UNL     1     122.938  11.303  40.346  1.00  0.00     0.231 C 
HETATM    6  O   UNL     1     122.914  10.849  41.467  1.00  0.00    -0.307 OA
ENDBRANCH   4   5
ENDBRANCH   3   4
ENDBRANCH   2   3
ENDBRANCH   1   2
BRANCH   1   7
HETATM    7  O   UNL     1     121.619   7.425  37.336  1.00  0.00    -0.344 OA
ATOM      8  HO  UNL     1     122.440   7.661  37.753  1.00  0.00     0.215 HD
ENDBRANCH   1   7
BRANCH   1   9
HETATM    9  O   UNL     1     119.359   7.789  37.702  1.00  0.00    -0.344 OA
ATOM     10  HO  UNL     1     119.168   8.719  37.656  1.00  0.00     0.215 HD
ENDBRANCH   1   9
BRANCH   1  11
HETATM   11  O   UNL     1     120.600   6.390  39.088  1.00  0.00    -0.344 OA
ATOM     12  HO  UNL     1     120.270   6.657  39.938  1.00  0.00     0.215 HD
ENDBRANCH   1  11
TORSDOF 7
ENDMDL
MODEL 9
REMARK VINA RESULT:      -4.3      3.639      4.880
REMARK  7 active torsions:
REMARK  status: ('A' for Active; 'I' for Inactive)
REMARK    1  A    between atoms: C_1  and  C_4 
REMARK    2  A    between atoms: C_1  and  C_9 
REMARK    3  A    between atoms: C_3  and  C_4 
REMARK    4  A    between atoms: C_3  and  C_10 
REMARK    5  A    between atoms: O_5  and  C_9 
REMARK    6  A    between atoms: O_7  and  C_9 
REMARK    7  A    between atoms: C_9  and  O_11 
ROOT
HETATM    1  C   UNL     1     122.198  12.090  39.797  1.00  0.00     0.275 C 
ENDROOT
BRANCH   1   2
HETATM    2  C   UNL     1     121.157  11.280  38.965  1.00  0.00     0.102 C 
BRANCH   2   3
HETATM    3  C   UNL     1     121.586   9.876  38.569  1.00  0.00     0.014 C 
BRANCH   3   4
HETATM    4  C   UNL     1     120.763   8.735  39.117  1.00  0.00     0.069 C 
BRANCH   4   5
HETATM    5  C   UNL     1     120.745   7.436  38.363  1.00  0.00     0.231 C 
HETATM    6  O   UNL     1     121.448   7.256  37.394  1.00  0.00    -0.307 OA
ENDBRANCH   4   5
ENDBRANCH   3   4
ENDBRANCH   2   3
ENDBRANCH   1   2
BRANCH   1   7
HETATM    7  O   UNL     1     122.620  11.281  40.865  1.00  0.00    -0.344 OA
ATOM      8  HO  UNL     1     122.504  11.774  41.668  1.00  0.00     0.215 HD
ENDBRANCH   1   7
BRANCH   1   9
HETATM    9  O   UNL     1     121.662  13.296  40.233  1.00  0.00    -0.344 OA
ATOM     10  HO  UNL     1     120.744  13.366  40.000  1.00  0.00     0.215 HD
ENDBRANCH   1   9
BRANCH   1  11
HETATM   11  O   UNL     1     123.310  12.280  38.940  1.00  0.00    -0.344 OA
ATOM     12  HO  UNL     1     123.400  13.220  38.840  1.00  0.00     0.215 HD
ENDBRANCH   1  11
TORSDOF 7
ENDMDL
