MODEL 1
REMARK VINA RESULT:      -5.7      0.000      0.000
REMARK  4 active torsions:
REMARK  status: ('A' for Active; 'I' for Inactive)
REMARK    1  A    between atoms: O_1  and  C_7 
REMARK    2  A    between atoms: C_5  and  O_8 
REMARK    3  A    between atoms: C_6  and  C_7 
REMARK    4  A    between atoms: C_7  and  O_8 
ROOT
HETATM    1  C   UNL     1     120.515   7.503  39.565  1.00  0.00     0.372 C 
ENDROOT
BRANCH   1   2
HETATM    2  O   UNL     1     119.701   8.614  39.277  1.00  0.00    -0.362 OA
ATOM      3  HO  UNL     1     119.407   8.630  38.374  1.00  0.00     0.213 HD
ENDBRANCH   1   2
BRANCH   1   4
HETATM    4  C   UNL     1     120.949   6.750  38.312  1.00  0.00     0.231 C 
HETATM    5  O   UNL     1     121.409   7.451  37.387  1.00  0.00    -0.644 OA
HETATM    6  O   UNL     1     120.928   5.510  38.349  1.00  0.00    -0.644 OA
ENDBRANCH   1   4
BRANCH   1   7
HETATM    7  O   UNL     1     121.589   7.712  40.491  1.00  0.00    -0.254 OA
BRANCH   7   8
HETATM    8  C   UNL     1     121.384   7.865  41.844  1.00  0.00     0.335 C 
HETATM    9  O   UNL     1     120.413   8.432  42.325  1.00  0.00    -0.624 OA
HETATM   10  O   UNL     1     122.332   7.364  42.537  1.00  0.00    -0.624 OA
ENDBRANCH   7   8
ENDBRANCH   1   7
TORSDOF 4
ENDMDL
MODEL 2
REMARK VINA RESULT:      -5.3      1.172      3.898
REMARK  4 active torsions:
REMARK  status: ('A' for Active; 'I' for Inactive)
REMARK    1  A    between atoms: O_1  and  C_7 
REMARK    2  A    between atoms: C_5  and  O_8 
REMARK    3  A    between atoms: C_6  and  C_7 
REMARK    4  A    between atoms: C_7  and  O_8 
ROOT
HETATM    1  C   UNL     1     120.944   8.091  40.741  1.00  0.00     0.372 C 
ENDROOT
BRANCH   1   2
HETATM    2  O   UNL     1     119.646   7.732  41.154  1.00  0.00    -0.362 OA
ATOM      3  HO  UNL     1     118.995   7.865  40.475  1.00  0.00     0.213 HD
ENDBRANCH   1   2
BRANCH   1   4
HETATM    4  C   UNL     1     121.899   8.295  41.912  1.00  0.00     0.231 C 
HETATM    5  O   UNL     1     122.378   7.256  42.412  1.00  0.00    -0.644 OA
HETATM    6  O   UNL     1     122.218   9.459  42.198  1.00  0.00    -0.644 OA
ENDBRANCH   1   4
BRANCH   1   7
HETATM    7  O   UNL     1     121.518   7.321  39.679  1.00  0.00    -0.254 OA
BRANCH   7   8
HETATM    8  C   UNL     1     120.845   7.050  38.508  1.00  0.00     0.335 C 
HETATM    9  O   UNL     1     120.037   7.812  37.997  1.00  0.00    -0.624 OA
HETATM   10  O   UNL     1     121.149   5.906  38.029  1.00  0.00    -0.624 OA
ENDBRANCH   7   8
ENDBRANCH   1   7
TORSDOF 4
ENDMDL
MODEL 3
REMARK VINA RESULT:      -5.1      1.804      2.522
REMARK  4 active torsions:
REMARK  status: ('A' for Active; 'I' for Inactive)
REMARK    1  A    between atoms: O_1  and  C_7 
REMARK    2  A    between atoms: C_5  and  O_8 
REMARK    3  A    between atoms: C_6  and  C_7 
REMARK    4  A    between atoms: C_7  and  O_8 
ROOT
HETATM    1  C   UNL     1     120.733   8.593  40.017  1.00  0.00     0.372 C 
ENDROOT
BRANCH   1   2
HETATM    2  O   UNL     1     119.700   9.074  40.844  1.00  0.00    -0.362 OA
ATOM      3  HO  UNL     1     119.926   9.049  41.766  1.00  0.00     0.213 HD
ENDBRANCH   1   2
BRANCH   1   4
HETATM    4  C   UNL     1     121.296   9.666  39.093  1.00  0.00     0.231 C 
HETATM    5  O   UNL     1     121.816   9.255  38.034  1.00  0.00    -0.644 OA
HETATM    6  O   UNL     1     121.092  10.852  39.395  1.00  0.00    -0.644 OA
ENDBRANCH   1   4
BRANCH   1   7
HETATM    7  O   UNL     1     121.752   7.809  40.649  1.00  0.00    -0.254 OA
BRANCH   7   8
HETATM    8  C   UNL     1     122.107   7.976  41.970  1.00  0.00     0.335 C 
HETATM    9  O   UNL     1     122.493   7.067  42.690  1.00  0.00    -0.624 OA
HETATM   10  O   UNL     1     121.970   9.184  42.358  1.00  0.00    -0.624 OA
ENDBRANCH   7   8
ENDBRANCH   1   7
TORSDOF 4
ENDMDL
MODEL 4
REMARK VINA RESULT:      -5.1      1.853      3.953
REMARK  4 active torsions:
REMARK  status: ('A' for Active; 'I' for Inactive)
REMARK    1  A    between atoms: O_1  and  C_7 
REMARK    2  A    between atoms: C_5  and  O_8 
REMARK    3  A    between atoms: C_6  and  C_7 
REMARK    4  A    between atoms: C_7  and  O_8 
ROOT
HETATM    1  C   UNL     1     121.028   8.231  40.804  1.00  0.00     0.372 C 
ENDROOT
BRANCH   1   2
HETATM    2  O   UNL     1     121.400   7.246  39.869  1.00  0.00    -0.362 OA
ATOM      3  HO  UNL     1     122.308   6.980  39.957  1.00  0.00     0.213 HD
ENDBRANCH   1   2
BRANCH   1   4
HETATM    4  C   UNL     1     122.011   8.344  41.964  1.00  0.00     0.231 C 
HETATM    5  O   UNL     1     122.210   9.498  42.398  1.00  0.00    -0.644 OA
HETATM    6  O   UNL     1     122.437   7.292  42.462  1.00  0.00    -0.644 OA
ENDBRANCH   1   4
BRANCH   1   7
HETATM    7  O   UNL     1     120.636   9.504  40.276  1.00  0.00    -0.254 OA
BRANCH   7   8
HETATM    8  C   UNL     1     121.208  10.049  39.148  1.00  0.00     0.335 C 
HETATM    9  O   UNL     1     121.714   9.387  38.254  1.00  0.00    -0.624 OA
HETATM   10  O   UNL     1     121.165  11.325  39.152  1.00  0.00    -0.624 OA
ENDBRANCH   7   8
ENDBRANCH   1   7
TORSDOF 4
ENDMDL
MODEL 5
REMARK VINA RESULT:      -4.8      2.001      3.187
REMARK  4 active torsions:
REMARK  status: ('A' for Active; 'I' for Inactive)
REMARK    1  A    between atoms: O_1  and  C_7 
REMARK    2  A    between atoms: C_5  and  O_8 
REMARK    3  A    between atoms: C_6  and  C_7 
REMARK    4  A    between atoms: C_7  and  O_8 
ROOT
HETATM    1  C   UNL     1     120.437   8.175  39.188  1.00  0.00     0.372 C 
ENDROOT
BRANCH   1   2
HETATM    2  O   UNL     1     119.434   7.877  40.129  1.00  0.00    -0.362 OA
ATOM      3  HO  UNL     1     119.222   6.952  40.160  1.00  0.00     0.213 HD
ENDBRANCH   1   2
BRANCH   1   4
HETATM    4  C   UNL     1     120.834   6.967  38.347  1.00  0.00     0.231 C 
HETATM    5  O   UNL     1     120.419   5.861  38.752  1.00  0.00    -0.644 OA
HETATM    6  O   UNL     1     121.426   7.178  37.278  1.00  0.00    -0.644 OA
ENDBRANCH   1   4
BRANCH   1   7
HETATM    7  O   UNL     1     120.256   9.363  38.408  1.00  0.00    -0.254 OA
BRANCH   7   8
HETATM    8  C   UNL     1     121.050  10.479  38.558  1.00  0.00     0.335 C 
HETATM    9  O   UNL     1     121.866  10.850  37.727  1.00  0.00    -0.624 OA
HETATM   10  O   UNL     1     120.848  11.070  39.671  1.00  0.00    -0.624 OA
ENDBRANCH   7   8
ENDBRANCH   1   7
TORSDOF 4
ENDMDL
MODEL 6
REMARK VINA RESULT:      -4.7      2.002      3.766
REMARK  4 active torsions:
REMARK  status: ('A' for Active; 'I' for Inactive)
REMARK    1  A    between atoms: O_1  and  C_7 
REMARK    2  A    between atoms: C_5  and  O_8 
REMARK    3  A    between atoms: C_6  and  C_7 
REMARK    4  A    between atoms: C_7  and  O_8 
ROOT
HETATM    1  C   UNL     1     120.237   9.273  39.207  1.00  0.00     0.372 C 
ENDROOT
BRANCH   1   2
HETATM    2  O   UNL     1     120.176   8.736  40.507  1.00  0.00    -0.362 OA
ATOM      3  HO  UNL     1     119.308   8.791  40.887  1.00  0.00     0.213 HD
ENDBRANCH   1   2
BRANCH   1   4
HETATM    4  C   UNL     1     121.375  10.272  39.035  1.00  0.00     0.231 C 
HETATM    5  O   UNL     1     121.879  10.333  37.893  1.00  0.00    -0.644 OA
HETATM    6  O   UNL     1     121.631  11.024  39.987  1.00  0.00    -0.644 OA
ENDBRANCH   1   4
BRANCH   1   7
HETATM    7  O   UNL     1     120.140   8.344  38.121  1.00  0.00    -0.254 OA
BRANCH   7   8
HETATM    8  C   UNL     1     120.675   7.076  38.176  1.00  0.00     0.335 C 
HETATM    9  O   UNL     1     120.362   6.241  39.013  1.00  0.00    -0.624 OA
HETATM   10  O   UNL     1     121.549   6.879  37.266  1.00  0.00    -0.624 OA
ENDBRANCH   7   8
ENDBRANCH   1   7
TORSDOF 4
ENDMDL
MODEL 7
REMARK VINA RESULT:      -4.6      1.784      4.021
REMARK  4 active torsions:
REMARK  status: ('A' for Active; 'I' for Inactive)
REMARK    1  A    between atoms: O_1  and  C_7 
REMARK    2  A    between atoms: C_5  and  O_8 
REMARK    3  A    between atoms: C_6  and  C_7 
REMARK    4  A    between atoms: C_7  and  O_8 
ROOT
HETATM    1  C   UNL     1     121.350   8.547  40.461  1.00  0.00     0.372 C 
ENDROOT
BRANCH   1   2
HETATM    2  O   UNL     1     121.857   7.393  41.087  1.00  0.00    -0.362 OA
ATOM      3  HO  UNL     1     122.283   6.801  40.478  1.00  0.00     0.213 HD
ENDBRANCH   1   2
BRANCH   1   4
HETATM    4  C   UNL     1     122.037   9.824  40.933  1.00  0.00     0.231 C 
HETATM    5  O   UNL     1     121.869  10.831  40.214  1.00  0.00    -0.644 OA
HETATM    6  O   UNL     1     122.598   9.801  42.039  1.00  0.00    -0.644 OA
ENDBRANCH   1   4
BRANCH   1   7
HETATM    7  O   UNL     1     121.192   8.492  39.038  1.00  0.00    -0.254 OA
BRANCH   7   8
HETATM    8  C   UNL     1     121.015   7.309  38.355  1.00  0.00     0.335 C 
HETATM    9  O   UNL     1     121.472   7.091  37.242  1.00  0.00    -0.624 OA
HETATM   10  O   UNL     1     120.306   6.473  39.011  1.00  0.00    -0.624 OA
ENDBRANCH   7   8
ENDBRANCH   1   7
TORSDOF 4
ENDMDL
MODEL 8
REMARK VINA RESULT:      -4.6      2.210      3.804
REMARK  4 active torsions:
REMARK  status: ('A' for Active; 'I' for Inactive)
REMARK    1  A    between atoms: O_1  and  C_7 
REMARK    2  A    between atoms: C_5  and  O_8 
REMARK    3  A    between atoms: C_6  and  C_7 
REMARK    4  A    between atoms: C_7  and  O_8 
ROOT
HETATM    1  C   UNL     1     121.622   8.601  41.183  1.00  0.00     0.372 C 
ENDROOT
BRANCH   1   2
HETATM    2  O   UNL     1     122.128   9.428  42.204  1.00  0.00    -0.362 OA
ATOM      3  HO  UNL     1     122.936   9.097  42.579  1.00  0.00     0.213 HD
ENDBRANCH   1   2
BRANCH   1   4
HETATM    4  C   UNL     1     120.202   8.121  41.463  1.00  0.00     0.231 C 
HETATM    5  O   UNL     1     119.840   7.099  40.844  1.00  0.00    -0.644 OA
HETATM    6  O   UNL     1     119.565   8.698  42.358  1.00  0.00    -0.644 OA
ENDBRANCH   1   4
BRANCH   1   7
HETATM    7  O   UNL     1     121.803   9.055  39.837  1.00  0.00    -0.254 OA
BRANCH   7   8
HETATM    8  C   UNL     1     120.975   9.985  39.248  1.00  0.00     0.335 C 
HETATM    9  O   UNL     1     120.313   9.767  38.243  1.00  0.00    -0.624 OA
HETATM   10  O   UNL     1     120.992  11.105  39.861  1.00  0.00    -0.624 OA
ENDBRANCH   7   8
ENDBRANCH   1   7
TORSDOF 4
ENDMDL
MODEL 9
REMARK VINA RESULT:      -4.5      2.617      2.976
REMARK  4 active torsions:
REMARK  status: ('A' for Active; 'I' for Inactive)
REMARK    1  A    between atoms: O_1  and  C_7 
REMARK    2  A    between atoms: C_5  and  O_8 
REMARK    3  A    between atoms: C_6  and  C_7 
REMARK    4  A    between atoms: C_7  and  O_8 
ROOT
HETATM    1  C   UNL     1     121.267   9.626  38.881  1.00  0.00     0.372 C 
ENDROOT
BRANCH   1   2
HETATM    2  O   UNL     1     122.228  10.011  37.927  1.00  0.00    -0.362 OA
ATOM      3  HO  UNL     1     122.888   9.344  37.781  1.00  0.00     0.213 HD
ENDBRANCH   1   2
BRANCH   1   4
HETATM    4  C   UNL     1     120.959   8.134  38.839  1.00  0.00     0.231 C 
HETATM    5  O   UNL     1     121.460   7.447  39.754  1.00  0.00    -0.644 OA
HETATM    6  O   UNL     1     120.150   7.737  37.987  1.00  0.00    -0.644 OA
ENDBRANCH   1   4
BRANCH   1   7
HETATM    7  O   UNL     1     121.447  10.122  40.214  1.00  0.00    -0.254 OA
BRANCH   7   8
HETATM    8  C   UNL     1     122.606  10.742  40.626  1.00  0.00     0.335 C 
HETATM    9  O   UNL     1     123.241  11.526  39.935  1.00  0.00    -0.624 OA
HETATM   10  O   UNL     1     122.950  10.391  41.804  1.00  0.00    -0.624 OA
ENDBRANCH   7   8
ENDBRANCH   1   7
TORSDOF 4
ENDMDL
