REMARK  0 active torsions:
REMARK  status: ('A' for Active; 'I' for Inactive)
ROOT
HETATM    1  O   UNL     1     121.278   7.696  42.061  1.00  0.00    -0.267 OA
HETATM    2  O   UNL     1     121.783   7.133  37.579  1.00  0.00    -0.264 OA
HETATM    3  C   UNL     1     121.348   6.866  38.686  1.00  0.00     0.291 C 
HETATM    4  N   UNL     1     120.263   4.711  38.241  1.00  0.00    -0.381 N 
ATOM      5  HN1 UNL     1     119.462   4.082  38.298  1.00  0.00     0.157 HD
ATOM      6  HN2 UNL     1     120.932   4.528  37.493  1.00  0.00     0.157 HD
HETATM    7  C   UNL     1     120.158   5.932  38.771  1.00  0.00     0.168 C 
HETATM    8  N   UNL     1     121.623   7.601  39.790  1.00  0.00    -0.286 N 
ATOM      9  HN  UNL     1     122.408   8.252  39.779  1.00  0.00     0.172 HD
HETATM   10  N   UNL     1     119.261   6.177  39.774  1.00  0.00    -0.343 N 
ATOM     11  HN  UNL     1     118.442   5.576  39.866  1.00  0.00     0.167 HD
HETATM   12  C   UNL     1     120.854   7.480  40.931  1.00  0.00     0.263 C 
HETATM   13  C   UNL     1     119.433   7.195  40.646  1.00  0.00     0.164 C 
ENDROOT
TORSDOF 0
