REMARK  3 active torsions:
REMARK  status: ('A' for Active; 'I' for Inactive)
REMARK    1  A    between atoms: C_1  and  C_7 
REMARK    2  A    between atoms: O_3  and  C_6 
REMARK    3  A    between atoms: O_12  and  C_14 
ROOT
HETATM    1  C   UNL     1     102.745  44.941  11.679  1.00  0.00     0.105 C 
HETATM    2  O   UNL     1     101.701  44.113  11.165  1.00  0.00    -0.342 OA
HETATM    3  C   UNL     1     100.253  45.184  12.874  1.00  0.00     0.070 C 
HETATM    4  C   UNL     1     104.056  44.512  11.812  1.00  0.00     0.089 C 
HETATM    5  C   UNL     1     101.072  46.309  12.890  1.00  0.00     0.073 C 
HETATM    6  C   UNL     1     100.436  44.064  11.854  1.00  0.00     0.240 C 
HETATM    7  C   UNL     1     102.271  46.254  12.086  1.00  0.00     0.101 C 
ENDROOT
BRANCH   4   8
HETATM    8  C   UNL     1     104.548  43.292  11.193  1.00  0.00     0.148 C 
HETATM    9  C   UNL     1     106.030  43.031  11.268  1.00  0.00     0.096 C 
HETATM   10  O   UNL     1     103.793  42.376  10.893  1.00  0.00    -0.294 OA
ENDBRANCH   4   8
BRANCH   7  11
HETATM   11  O   UNL     1     103.238  47.237  12.213  1.00  0.00    -0.358 OA
ATOM     12  HO  UNL     1     102.928  48.095  12.479  1.00  0.00     0.217 HD
ENDBRANCH   7  11
BRANCH   3  13
HETATM   13  O   UNL     1      99.434  44.916  13.925  1.00  0.00    -0.363 OA
ATOM     14  HO  UNL     1      98.875  44.148  13.914  1.00  0.00     0.217 HD
ENDBRANCH   3  13
TORSDOF 3
