MODEL 1
REMARK VINA RESULT:      -8.8      0.000      0.000
REMARK  6 active torsions:
REMARK  status: ('A' for Active; 'I' for Inactive)
REMARK    1  A    between atoms: C_1  and  C_6 
REMARK    2  A    between atoms: C_2  and  C_5 
REMARK    3  A    between atoms: C_2  and  C_8 
REMARK    4  A    between atoms: C_10  and  C_21 
REMARK    5  A    between atoms: C_10  and  C_22 
REMARK    6  A    between atoms: C_13  and  C_21 
ROOT
HETATM    1  C   UNL     1     249.776 101.876   3.704  1.00  0.00     0.008 C 
ENDROOT
BRANCH   1   2
HETATM    2  C   UNL     1     250.875 101.202   4.507  1.00  0.00     0.027 C 
BRANCH   2   3
HETATM    3  C   UNL     1     250.547 100.340   5.619  1.00  0.00    -0.027 C 
HETATM    4  C   UNL     1     249.738 100.397   6.713  1.00  0.00    -0.003 C 
BRANCH   4   5
HETATM    5  C   UNL     1     248.509 100.388   7.257  1.00  0.00     0.011 C 
BRANCH   5   6
HETATM    6  C   UNL     1     248.082 100.292   8.648  1.00  0.00    -0.036 C 
HETATM    7  C   UNL     1     248.932  99.637   9.539  1.00  0.00     0.011 C 
HETATM    8  C   UNL     1     248.638  99.146  10.785  1.00  0.00     0.001 C 
HETATM    9  C   UNL     1     247.528  99.088  11.592  1.00  0.00     0.000 C 
HETATM   10  C   UNL     1     246.481  99.984  11.453  1.00  0.00     0.000 C 
HETATM   11  C   UNL     1     246.068 100.400  10.196  1.00  0.00     0.001 C 
HETATM   12  C   UNL     1     246.774 100.637   9.029  1.00  0.00     0.011 C 
ENDBRANCH   5   6
ENDBRANCH   4   5
ENDBRANCH   2   3
ENDBRANCH   1   2
BRANCH   1  13
HETATM   13  C   UNL     1     250.082 102.820   2.531  1.00  0.00    -0.010 C 
HETATM   14  C   UNL     1     251.388 103.538   2.972  1.00  0.00     0.043 C 
HETATM   15  C   UNL     1     251.780 104.627   1.977  1.00  0.00     0.266 A 
HETATM   16  C   UNL     1     251.572 106.014   2.397  1.00  0.00     0.344 A 
HETATM   17  N   UNL     1     250.646 105.503   1.660  1.00  0.00     0.111 N 
HETATM   18  C   UNL     1     249.252 105.100   1.592  1.00  0.00     0.274 C 
HETATM   19  C   UNL     1     248.951 103.854   2.430  1.00  0.00     0.035 C 
BRANCH  16  20
HETATM   20  C   UNL     1     252.084 107.398   2.425  1.00  0.00     0.267 C 
HETATM   21  O   UNL     1     252.356 107.893   3.491  1.00  0.00    -0.274 OA
HETATM   22  N   UNL     1     252.699 107.845   1.259  1.00  0.00    -0.060 NA
ENDBRANCH  16  20
ENDBRANCH   1  13
TORSDOF 6
ENDMDL
MODEL 2
REMARK VINA RESULT:      -8.3      2.099      2.715
REMARK  6 active torsions:
REMARK  status: ('A' for Active; 'I' for Inactive)
REMARK    1  A    between atoms: C_1  and  C_6 
REMARK    2  A    between atoms: C_2  and  C_5 
REMARK    3  A    between atoms: C_2  and  C_8 
REMARK    4  A    between atoms: C_10  and  C_21 
REMARK    5  A    between atoms: C_10  and  C_22 
REMARK    6  A    between atoms: C_13  and  C_21 
ROOT
HETATM    1  C   UNL     1     251.583 101.549   4.093  1.00  0.00     0.008 C 
ENDROOT
BRANCH   1   2
HETATM    2  C   UNL     1     251.543 100.682   5.340  1.00  0.00     0.027 C 
BRANCH   2   3
HETATM    3  C   UNL     1     250.309 100.059   5.760  1.00  0.00    -0.027 C 
HETATM    4  C   UNL     1     249.476 100.134   6.835  1.00  0.00    -0.003 C 
BRANCH   4   5
HETATM    5  C   UNL     1     248.561 100.802   7.558  1.00  0.00     0.011 C 
BRANCH   5   6
HETATM    6  C   UNL     1     248.016 100.539   8.885  1.00  0.00    -0.036 C 
HETATM    7  C   UNL     1     248.697  99.629   9.693  1.00  0.00     0.011 C 
HETATM    8  C   UNL     1     248.242  98.986  10.815  1.00  0.00     0.001 C 
HETATM    9  C   UNL     1     247.073  98.957  11.536  1.00  0.00     0.000 C 
HETATM   10  C   UNL     1     246.170 100.006  11.499  1.00  0.00     0.000 C 
HETATM   11  C   UNL     1     245.917 100.680  10.314  1.00  0.00     0.001 C 
HETATM   12  C   UNL     1     246.740 101.003   9.247  1.00  0.00     0.011 C 
ENDBRANCH   5   6
ENDBRANCH   4   5
ENDBRANCH   2   3
ENDBRANCH   1   2
BRANCH   1  13
HETATM   13  C   UNL     1     250.701 102.797   3.937  1.00  0.00    -0.010 C 
HETATM   14  C   UNL     1     249.559 102.321   2.997  1.00  0.00     0.043 C 
HETATM   15  C   UNL     1     248.641 103.480   2.615  1.00  0.00     0.266 A 
HETATM   16  C   UNL     1     248.756 103.994   1.249  1.00  0.00     0.344 A 
HETATM   17  N   UNL     1     249.405 104.644   2.152  1.00  0.00     0.111 N 
HETATM   18  C   UNL     1     250.716 105.047   2.632  1.00  0.00     0.274 C 
HETATM   19  C   UNL     1     251.518 103.885   3.223  1.00  0.00     0.035 C 
BRANCH  16  20
HETATM   20  C   UNL     1     248.067 104.502   0.047  1.00  0.00     0.267 C 
HETATM   21  O   UNL     1     246.889 104.282  -0.082  1.00  0.00    -0.274 OA
HETATM   22  N   UNL     1     248.655 105.602  -0.572  1.00  0.00    -0.060 NA
ENDBRANCH  16  20
ENDBRANCH   1  13
TORSDOF 6
ENDMDL
MODEL 3
REMARK VINA RESULT:      -8.2      2.474      4.458
REMARK  6 active torsions:
REMARK  status: ('A' for Active; 'I' for Inactive)
REMARK    1  A    between atoms: C_1  and  C_6 
REMARK    2  A    between atoms: C_2  and  C_5 
REMARK    3  A    between atoms: C_2  and  C_8 
REMARK    4  A    between atoms: C_10  and  C_21 
REMARK    5  A    between atoms: C_10  and  C_22 
REMARK    6  A    between atoms: C_13  and  C_21 
ROOT
HETATM    1  C   UNL     1     248.664 105.317   0.146  1.00  0.00     0.008 C 
ENDROOT
BRANCH   1   2
HETATM    2  C   UNL     1     247.713 104.170   0.445  1.00  0.00     0.027 C 
BRANCH   2   3
HETATM    3  C   UNL     1     247.692 103.557   1.754  1.00  0.00    -0.027 C 
HETATM    4  C   UNL     1     248.423 102.624   2.423  1.00  0.00    -0.003 C 
BRANCH   4   5
HETATM    5  C   UNL     1     249.556 102.256   3.047  1.00  0.00     0.011 C 
BRANCH   5   6
HETATM    6  C   UNL     1     249.768 101.455   4.246  1.00  0.00    -0.036 C 
HETATM    7  C   UNL     1     248.652 101.160   5.030  1.00  0.00     0.011 C 
HETATM    8  C   UNL     1     248.621 100.714   6.325  1.00  0.00     0.001 C 
HETATM    9  C   UNL     1     249.548 100.406   7.291  1.00  0.00     0.000 C 
HETATM   10  C   UNL     1     250.847 100.054   6.967  1.00  0.00     0.000 C 
HETATM   11  C   UNL     1     251.514 100.689   5.929  1.00  0.00     0.001 C 
HETATM   12  C   UNL     1     251.065 101.187   4.717  1.00  0.00     0.011 C 
ENDBRANCH   5   6
ENDBRANCH   4   5
ENDBRANCH   2   3
ENDBRANCH   1   2
BRANCH   1  13
HETATM   13  C   UNL     1     250.139 105.289   0.577  1.00  0.00    -0.010 C 
HETATM   14  C   UNL     1     250.168 106.203   1.834  1.00  0.00     0.043 C 
HETATM   15  C   UNL     1     251.597 106.406   2.332  1.00  0.00     0.266 A 
HETATM   16  C   UNL     1     252.203 107.716   2.090  1.00  0.00     0.344 A 
HETATM   17  N   UNL     1     252.500 106.791   1.242  1.00  0.00     0.111 N 
HETATM   18  C   UNL     1     252.401 106.353  -0.140  1.00  0.00     0.274 C 
HETATM   19  C   UNL     1     250.982 105.934  -0.533  1.00  0.00     0.035 C 
BRANCH  16  20
HETATM   20  C   UNL     1     253.043 108.815   2.603  1.00  0.00     0.267 C 
HETATM   21  O   UNL     1     254.237 108.656   2.654  1.00  0.00    -0.274 OA
HETATM   22  N   UNL     1     252.503 110.094   2.501  1.00  0.00    -0.060 NA
ENDBRANCH  16  20
ENDBRANCH   1  13
TORSDOF 6
ENDMDL
MODEL 4
REMARK VINA RESULT:      -8.1      2.559      4.401
REMARK  6 active torsions:
REMARK  status: ('A' for Active; 'I' for Inactive)
REMARK    1  A    between atoms: C_1  and  C_6 
REMARK    2  A    between atoms: C_2  and  C_5 
REMARK    3  A    between atoms: C_2  and  C_8 
REMARK    4  A    between atoms: C_10  and  C_21 
REMARK    5  A    between atoms: C_10  and  C_22 
REMARK    6  A    between atoms: C_13  and  C_21 
ROOT
HETATM    1  C   UNL     1     248.824 105.351   0.054  1.00  0.00     0.008 C 
ENDROOT
BRANCH   1   2
HETATM    2  C   UNL     1     247.833 104.254   0.406  1.00  0.00     0.027 C 
BRANCH   2   3
HETATM    3  C   UNL     1     247.799 103.698   1.739  1.00  0.00    -0.027 C 
HETATM    4  C   UNL     1     248.311 102.606   2.372  1.00  0.00    -0.003 C 
BRANCH   4   5
HETATM    5  C   UNL     1     249.360 101.938   2.883  1.00  0.00     0.011 C 
BRANCH   5   6
HETATM    6  C   UNL     1     249.673 101.562   4.257  1.00  0.00    -0.036 C 
HETATM    7  C   UNL     1     251.016 101.361   4.579  1.00  0.00     0.011 C 
HETATM    8  C   UNL     1     251.537 100.717   5.671  1.00  0.00     0.001 C 
HETATM    9  C   UNL     1     251.036 100.072   6.775  1.00  0.00     0.000 C 
HETATM   10  C   UNL     1     249.767 100.340   7.261  1.00  0.00     0.000 C 
HETATM   11  C   UNL     1     248.711 100.571   6.392  1.00  0.00     0.001 C 
HETATM   12  C   UNL     1     248.658 101.195   5.155  1.00  0.00     0.011 C 
ENDBRANCH   5   6
ENDBRANCH   4   5
ENDBRANCH   2   3
ENDBRANCH   1   2
BRANCH   1  13
HETATM   13  C   UNL     1     250.272 105.339   0.567  1.00  0.00    -0.010 C 
HETATM   14  C   UNL     1     250.228 106.279   1.804  1.00  0.00     0.043 C 
HETATM   15  C   UNL     1     251.626 106.499   2.377  1.00  0.00     0.266 A 
HETATM   16  C   UNL     1     252.240 107.807   2.141  1.00  0.00     0.344 A 
HETATM   17  N   UNL     1     252.587 106.867   1.331  1.00  0.00     0.111 N 
HETATM   18  C   UNL     1     252.567 106.400  -0.045  1.00  0.00     0.274 C 
HETATM   19  C   UNL     1     251.173 105.966  -0.508  1.00  0.00     0.035 C 
BRANCH  16  20
HETATM   20  C   UNL     1     253.046 108.921   2.677  1.00  0.00     0.267 C 
HETATM   21  O   UNL     1     252.746 110.050   2.377  1.00  0.00    -0.274 OA
HETATM   22  N   UNL     1     253.736 108.661   3.858  1.00  0.00    -0.060 NA
ENDBRANCH  16  20
ENDBRANCH   1  13
TORSDOF 6
ENDMDL
MODEL 5
REMARK VINA RESULT:      -8.0      1.556      1.850
REMARK  6 active torsions:
REMARK  status: ('A' for Active; 'I' for Inactive)
REMARK    1  A    between atoms: C_1  and  C_6 
REMARK    2  A    between atoms: C_2  and  C_5 
REMARK    3  A    between atoms: C_2  and  C_8 
REMARK    4  A    between atoms: C_10  and  C_21 
REMARK    5  A    between atoms: C_10  and  C_22 
REMARK    6  A    between atoms: C_13  and  C_21 
ROOT
HETATM    1  C   UNL     1     249.295 102.244   2.677  1.00  0.00     0.008 C 
ENDROOT
BRANCH   1   2
HETATM    2  C   UNL     1     249.780 101.544   3.936  1.00  0.00     0.027 C 
BRANCH   2   3
HETATM    3  C   UNL     1     248.860 101.247   5.010  1.00  0.00    -0.027 C 
HETATM    4  C   UNL     1     248.893 100.548   6.178  1.00  0.00    -0.003 C 
BRANCH   4   5
HETATM    5  C   UNL     1     249.313 100.417   7.449  1.00  0.00     0.011 C 
BRANCH   5   6
HETATM    6  C   UNL     1     248.564 100.304   8.695  1.00  0.00    -0.036 C 
HETATM    7  C   UNL     1     249.067  99.447   9.674  1.00  0.00     0.011 C 
HETATM    8  C   UNL     1     248.417  98.933  10.766  1.00  0.00     0.001 C 
HETATM    9  C   UNL     1     247.155  99.021  11.300  1.00  0.00     0.000 C 
HETATM   10  C   UNL     1     246.325 100.097  11.034  1.00  0.00     0.000 C 
HETATM   11  C   UNL     1     246.288 100.665   9.769  1.00  0.00     0.001 C 
HETATM   12  C   UNL     1     247.276 100.851   8.816  1.00  0.00     0.011 C 
ENDBRANCH   5   6
ENDBRANCH   4   5
ENDBRANCH   2   3
ENDBRANCH   1   2
BRANCH   1  13
HETATM   13  C   UNL     1     249.369 103.770   2.511  1.00  0.00    -0.010 C 
HETATM   14  C   UNL     1     249.587 103.959   0.984  1.00  0.00     0.043 C 
HETATM   15  C   UNL     1     249.821 105.428   0.640  1.00  0.00     0.266 A 
HETATM   16  C   UNL     1     251.187 105.817   0.289  1.00  0.00     0.344 A 
HETATM   17  N   UNL     1     250.837 106.032   1.510  1.00  0.00     0.111 N 
HETATM   18  C   UNL     1     251.073 105.695   2.904  1.00  0.00     0.274 C 
HETATM   19  C   UNL     1     250.606 104.281   3.262  1.00  0.00     0.035 C 
BRANCH  16  20
HETATM   20  C   UNL     1     252.071 106.616  -0.582  1.00  0.00     0.267 C 
HETATM   21  O   UNL     1     252.923 107.300  -0.072  1.00  0.00    -0.274 OA
HETATM   22  N   UNL     1     252.220 106.155  -1.887  1.00  0.00    -0.060 NA
ENDBRANCH  16  20
ENDBRANCH   1  13
TORSDOF 6
ENDMDL
MODEL 6
REMARK VINA RESULT:      -7.5      3.938      9.162
REMARK  6 active torsions:
REMARK  status: ('A' for Active; 'I' for Inactive)
REMARK    1  A    between atoms: C_1  and  C_6 
REMARK    2  A    between atoms: C_2  and  C_5 
REMARK    3  A    between atoms: C_2  and  C_8 
REMARK    4  A    between atoms: C_10  and  C_21 
REMARK    5  A    between atoms: C_10  and  C_22 
REMARK    6  A    between atoms: C_13  and  C_21 
ROOT
HETATM    1  C   UNL     1     249.699 101.882   3.751  1.00  0.00     0.008 C 
ENDROOT
BRANCH   1   2
HETATM    2  C   UNL     1     248.357 102.528   3.445  1.00  0.00     0.027 C 
BRANCH   2   3
HETATM    3  C   UNL     1     247.938 102.733   2.077  1.00  0.00    -0.027 C 
HETATM    4  C   UNL     1     247.814 103.789   1.226  1.00  0.00    -0.003 C 
BRANCH   4   5
HETATM    5  C   UNL     1     248.373 104.736   0.453  1.00  0.00     0.011 C 
BRANCH   5   6
HETATM    6  C   UNL     1     249.600 105.505   0.623  1.00  0.00    -0.036 C 
HETATM    7  C   UNL     1     250.421 105.663  -0.494  1.00  0.00     0.011 C 
HETATM    8  C   UNL     1     251.736 106.052  -0.530  1.00  0.00     0.001 C 
HETATM    9  C   UNL     1     252.691 106.406   0.390  1.00  0.00     0.000 C 
HETATM   10  C   UNL     1     252.351 106.891   1.642  1.00  0.00     0.000 C 
HETATM   11  C   UNL     1     251.272 106.363   2.336  1.00  0.00     0.001 C 
HETATM   12  C   UNL     1     250.051 105.874   1.901  1.00  0.00     0.011 C 
ENDBRANCH   5   6
ENDBRANCH   4   5
ENDBRANCH   2   3
ENDBRANCH   1   2
BRANCH   1  13
HETATM   13  C   UNL     1     249.850 100.774   4.805  1.00  0.00    -0.010 C 
HETATM   14  C   UNL     1     248.492 100.801   5.559  1.00  0.00     0.043 C 
HETATM   15  C   UNL     1     248.505  99.843   6.748  1.00  0.00     0.266 A 
HETATM   16  C   UNL     1     248.588 100.443   8.081  1.00  0.00     0.344 A 
HETATM   17  N   UNL     1     249.700 100.029   7.579  1.00  0.00     0.111 N 
HETATM   18  C   UNL     1     251.018 100.414   7.102  1.00  0.00     0.274 C 
HETATM   19  C   UNL     1     250.971 101.177   5.775  1.00  0.00     0.035 C 
BRANCH  16  20
HETATM   20  C   UNL     1     248.135 100.427   9.486  1.00  0.00     0.267 C 
HETATM   21  O   UNL     1     248.942 100.196  10.352  1.00  0.00    -0.274 OA
HETATM   22  N   UNL     1     246.987 101.163   9.765  1.00  0.00    -0.060 NA
ENDBRANCH  16  20
ENDBRANCH   1  13
TORSDOF 6
ENDMDL
MODEL 7
REMARK VINA RESULT:      -7.4      3.849      9.037
REMARK  6 active torsions:
REMARK  status: ('A' for Active; 'I' for Inactive)
REMARK    1  A    between atoms: C_1  and  C_6 
REMARK    2  A    between atoms: C_2  and  C_5 
REMARK    3  A    between atoms: C_2  and  C_8 
REMARK    4  A    between atoms: C_10  and  C_21 
REMARK    5  A    between atoms: C_10  and  C_22 
REMARK    6  A    between atoms: C_13  and  C_21 
ROOT
HETATM    1  C   UNL     1     250.128 101.904   3.703  1.00  0.00     0.008 C 
ENDROOT
BRANCH   1   2
HETATM    2  C   UNL     1     248.893 102.297   2.910  1.00  0.00     0.027 C 
BRANCH   2   3
HETATM    3  C   UNL     1     248.764 103.630   2.367  1.00  0.00    -0.027 C 
HETATM    4  C   UNL     1     249.557 104.729   2.238  1.00  0.00    -0.003 C 
BRANCH   4   5
HETATM    5  C   UNL     1     250.596 105.357   1.660  1.00  0.00     0.011 C 
BRANCH   5   6
HETATM    6  C   UNL     1     251.603 106.249   2.221  1.00  0.00    -0.036 C 
HETATM    7  C   UNL     1     251.699 106.320   3.611  1.00  0.00     0.011 C 
HETATM    8  C   UNL     1     252.319 107.280   4.369  1.00  0.00     0.001 C 
HETATM    9  C   UNL     1     253.018 108.437   4.127  1.00  0.00     0.000 C 
HETATM   10  C   UNL     1     253.659 108.660   2.920  1.00  0.00     0.000 C 
HETATM   11  C   UNL     1     253.077 108.262   1.726  1.00  0.00     0.001 C 
HETATM   12  C   UNL     1     252.289 107.167   1.408  1.00  0.00     0.011 C 
ENDBRANCH   5   6
ENDBRANCH   4   5
ENDBRANCH   2   3
ENDBRANCH   1   2
BRANCH   1  13
HETATM   13  C   UNL     1     250.100 100.789   4.761  1.00  0.00    -0.010 C 
HETATM   14  C   UNL     1     248.705 100.954   5.427  1.00  0.00     0.043 C 
HETATM   15  C   UNL     1     248.546 100.003   6.610  1.00  0.00     0.266 A 
HETATM   16  C   UNL     1     248.602 100.595   7.948  1.00  0.00     0.344 A 
HETATM   17  N   UNL     1     249.698 100.071   7.517  1.00  0.00     0.111 N 
HETATM   18  C   UNL     1     251.075 100.319   7.126  1.00  0.00     0.274 C 
HETATM   19  C   UNL     1     251.191 101.080   5.802  1.00  0.00     0.035 C 
BRANCH  16  20
HETATM   20  C   UNL     1     248.061 100.628   9.320  1.00  0.00     0.267 C 
HETATM   21  O   UNL     1     247.039 101.234   9.525  1.00  0.00    -0.274 OA
HETATM   22  N   UNL     1     248.441  99.577  10.151  1.00  0.00    -0.060 NA
ENDBRANCH  16  20
ENDBRANCH   1  13
TORSDOF 6
ENDMDL
MODEL 8
REMARK VINA RESULT:      -7.3      3.894      8.708
REMARK  6 active torsions:
REMARK  status: ('A' for Active; 'I' for Inactive)
REMARK    1  A    between atoms: C_1  and  C_6 
REMARK    2  A    between atoms: C_2  and  C_5 
REMARK    3  A    between atoms: C_2  and  C_8 
REMARK    4  A    between atoms: C_10  and  C_21 
REMARK    5  A    between atoms: C_10  and  C_22 
REMARK    6  A    between atoms: C_13  and  C_21 
ROOT
HETATM    1  C   UNL     1     248.603 104.521   1.641  1.00  0.00     0.008 C 
ENDROOT
BRANCH   1   2
HETATM    2  C   UNL     1     248.683 105.313   0.347  1.00  0.00     0.027 C 
BRANCH   2   3
HETATM    3  C   UNL     1     249.937 105.434  -0.361  1.00  0.00    -0.027 C 
HETATM    4  C   UNL     1     251.080 106.164  -0.237  1.00  0.00    -0.003 C 
BRANCH   4   5
HETATM    5  C   UNL     1     252.229 106.433   0.408  1.00  0.00     0.011 C 
BRANCH   5   6
HETATM    6  C   UNL     1     252.489 107.226   1.604  1.00  0.00    -0.036 C 
HETATM    7  C   UNL     1     253.500 108.185   1.533  1.00  0.00     0.011 C 
HETATM    8  C   UNL     1     254.139 108.819   2.567  1.00  0.00     0.001 C 
HETATM    9  C   UNL     1     254.075 108.791   3.939  1.00  0.00     0.000 C 
HETATM   10  C   UNL     1     252.936 108.371   4.606  1.00  0.00     0.000 C 
HETATM   11  C   UNL     1     252.189 107.305   4.127  1.00  0.00     0.001 C 
HETATM   12  C   UNL     1     251.910 106.885   2.837  1.00  0.00     0.011 C 
ENDBRANCH   5   6
ENDBRANCH   4   5
ENDBRANCH   2   3
ENDBRANCH   1   2
BRANCH   1  13
HETATM   13  C   UNL     1     249.538 103.337   1.934  1.00  0.00    -0.010 C 
HETATM   14  C   UNL     1     248.685 102.416   2.850  1.00  0.00     0.043 C 
HETATM   15  C   UNL     1     249.507 101.234   3.359  1.00  0.00     0.266 A 
HETATM   16  C   UNL     1     249.913 101.267   4.765  1.00  0.00     0.344 A 
HETATM   17  N   UNL     1     250.793 101.670   3.913  1.00  0.00     0.111 N 
HETATM   18  C   UNL     1     251.585 102.795   3.446  1.00  0.00     0.274 C 
HETATM   19  C   UNL     1     250.745 103.857   2.729  1.00  0.00     0.035 C 
BRANCH  16  20
HETATM   20  C   UNL     1     250.106 100.523   6.025  1.00  0.00     0.267 C 
HETATM   21  O   UNL     1     251.075 100.769   6.700  1.00  0.00    -0.274 OA
HETATM   22  N   UNL     1     248.956  99.995   6.603  1.00  0.00    -0.060 NA
ENDBRANCH  16  20
ENDBRANCH   1  13
TORSDOF 6
ENDMDL
MODEL 9
REMARK VINA RESULT:      -7.2      1.031      2.078
REMARK  6 active torsions:
REMARK  status: ('A' for Active; 'I' for Inactive)
REMARK    1  A    between atoms: C_1  and  C_6 
REMARK    2  A    between atoms: C_2  and  C_5 
REMARK    3  A    between atoms: C_2  and  C_8 
REMARK    4  A    between atoms: C_10  and  C_21 
REMARK    5  A    between atoms: C_10  and  C_22 
REMARK    6  A    between atoms: C_13  and  C_21 
ROOT
HETATM    1  C   UNL     1     248.617 103.312   2.635  1.00  0.00     0.008 C 
ENDROOT
BRANCH   1   2
HETATM    2  C   UNL     1     248.759 101.918   3.221  1.00  0.00     0.027 C 
BRANCH   2   3
HETATM    3  C   UNL     1     249.974 101.529   3.901  1.00  0.00    -0.027 C 
HETATM    4  C   UNL     1     250.330 101.164   5.163  1.00  0.00    -0.003 C 
BRANCH   4   5
HETATM    5  C   UNL     1     250.319 100.268   6.166  1.00  0.00     0.011 C 
BRANCH   5   6
HETATM    6  C   UNL     1     249.447 100.148   7.329  1.00  0.00    -0.036 C 
HETATM    7  C   UNL     1     248.190 100.748   7.256  1.00  0.00     0.011 C 
HETATM    8  C   UNL     1     247.333 101.047   8.284  1.00  0.00     0.001 C 
HETATM    9  C   UNL     1     247.337 100.909   9.650  1.00  0.00     0.000 C 
HETATM   10  C   UNL     1     248.119  99.957  10.283  1.00  0.00     0.000 C 
HETATM   11  C   UNL     1     249.399  99.676   9.827  1.00  0.00     0.001 C 
HETATM   12  C   UNL     1     249.934  99.650   8.549  1.00  0.00     0.011 C 
ENDBRANCH   5   6
ENDBRANCH   4   5
ENDBRANCH   2   3
ENDBRANCH   1   2
BRANCH   1  13
HETATM   13  C   UNL     1     249.693 103.932   1.730  1.00  0.00    -0.010 C 
HETATM   14  C   UNL     1     250.702 104.552   2.736  1.00  0.00     0.043 C 
HETATM   15  C   UNL     1     251.790 105.339   2.008  1.00  0.00     0.266 A 
HETATM   16  C   UNL     1     251.715 106.799   2.087  1.00  0.00     0.344 A 
HETATM   17  N   UNL     1     251.219 106.266   1.024  1.00  0.00     0.111 N 
HETATM   18  C   UNL     1     250.014 106.042   0.243  1.00  0.00     0.274 C 
HETATM   19  C   UNL     1     249.048 105.057   0.907  1.00  0.00     0.035 C 
BRANCH  16  20
HETATM   20  C   UNL     1     252.436 108.078   2.240  1.00  0.00     0.267 C 
HETATM   21  O   UNL     1     252.821 108.398   3.336  1.00  0.00    -0.274 OA
HETATM   22  N   UNL     1     253.068 108.561   1.097  1.00  0.00    -0.060 NA
ENDBRANCH  16  20
ENDBRANCH   1  13
TORSDOF 6
ENDMDL
