REMARK  1 active torsions:
REMARK  status: ('A' for Active; 'I' for Inactive)
REMARK    1  A    between atoms: C_10  and  C_25 
ROOT
HETATM    1  C   UNL     1     -12.883  -4.951  11.770  1.00  0.00     0.004 C 
HETATM    2  C   UNL     1     -10.160  -7.054   8.063  1.00  0.00     0.250 C 
HETATM    3  C   UNL     1      -9.307  -7.411  11.725  1.00  0.00     0.012 C 
HETATM    4  C   UNL     1     -11.906  -5.372   7.304  1.00  0.00     0.052 C 
HETATM    5  C   UNL     1      -7.380  -8.058  10.439  1.00  0.00     0.001 C 
HETATM    6  C   UNL     1     -12.632  -5.539   8.635  1.00  0.00     0.099 C 
HETATM    7  C   UNL     1      -7.999  -7.588   9.284  1.00  0.00     0.010 C 
HETATM    8  N   UNL     1     -11.475  -7.692   8.418  1.00  0.00    -0.054 N 
ATOM      9  HN1 UNL     1     -11.361  -8.643   8.770  1.00  0.00     0.279 HD
ATOM     10  HN2 UNL     1     -12.035  -7.909   7.593  1.00  0.00     0.279 HD
HETATM   11  O   UNL     1     -11.912  -3.286   9.095  1.00  0.00    -0.293 OA
HETATM   12  C   UNL     1     -12.594  -4.259   9.469  1.00  0.00     0.156 C 
HETATM   13  C   UNL     1      -9.326  -7.166   9.316  1.00  0.00    -0.013 C 
HETATM   14  C   UNL     1     -12.206  -6.812   9.385  1.00  0.00     0.232 C 
HETATM   15  C   UNL     1     -11.330  -6.519  10.605  1.00  0.00    -0.016 C 
HETATM   16  C   UNL     1     -13.307  -4.226  10.722  1.00  0.00     0.051 C 
HETATM   17  C   UNL     1      -9.966  -7.006  10.566  1.00  0.00    -0.019 C 
HETATM   18  C   UNL     1      -8.045  -7.988  11.652  1.00  0.00     0.001 C 
HETATM   19  C   UNL     1     -10.411  -5.670   7.455  1.00  0.00    -0.034 C 
HETATM   20  C   UNL     1     -11.787  -5.842  11.714  1.00  0.00     0.010 C 
ENDROOT
BRANCH  19  21
HETATM   21  C   UNL     1      -9.634  -4.391   7.216  1.00  0.00    -0.032 C 
HETATM   22  C   UNL     1      -8.439  -4.063   7.843  1.00  0.00     0.011 C 
HETATM   23  C   UNL     1      -7.728  -2.896   7.636  1.00  0.00     0.001 C 
HETATM   24  C   UNL     1      -7.840  -1.820   6.799  1.00  0.00     0.000 C 
HETATM   25  C   UNL     1      -8.921  -1.425   6.013  1.00  0.00     0.000 C 
HETATM   26  C   UNL     1      -9.922  -2.332   5.683  1.00  0.00     0.001 C 
HETATM   27  C   UNL     1     -10.209  -3.493   6.339  1.00  0.00     0.011 C 
ENDBRANCH  19  21
TORSDOF 1
