REMARK  7 active torsions:
REMARK  status: ('A' for Active; 'I' for Inactive)
REMARK    1  A    between atoms: C_3  and  C_13 
REMARK    2  A    between atoms: C_4  and  N_22 
REMARK    3  A    between atoms: C_4  and  C_24 
REMARK    4  A    between atoms: C_12  and  C_14 
REMARK    5  A    between atoms: C_14  and  C_25 
REMARK    6  A    between atoms: C_19  and  C_21 
REMARK       I    between atoms: C_19  and  N_22 
REMARK    7  A    between atoms: C_24  and  C_25 
ROOT
HETATM    1  O   UNL     1      -4.215  20.542  16.213  1.00  0.00    -0.273 OA
HETATM    2  C   UNL     1      -4.316  20.657  14.993  1.00  0.00     0.222 C 
HETATM    3  N   UNL     1      -3.497  20.056  14.121  1.00  0.00    -0.361 N 
ATOM      4  HN  UNL     1      -3.694  20.126  13.123  1.00  0.00     0.162 HD
ENDROOT
BRANCH   3   5
HETATM    5  C   UNL     1      -2.340  19.310  14.561  1.00  0.00     0.122 C 
BRANCH   5   6
HETATM    6  C   UNL     1      -2.524  17.798  14.483  1.00  0.00     0.020 C 
BRANCH   6   7
HETATM    7  C   UNL     1      -1.160  17.171  14.740  1.00  0.00     0.005 C 
BRANCH   7   8
HETATM    8  C   UNL     1      -1.194  15.645  14.692  1.00  0.00     0.027 C 
BRANCH   8   9
HETATM    9  C   UNL     1       0.220  15.172  14.757  1.00  0.00    -0.026 C 
HETATM   10  C   UNL     1       0.833  14.045  14.694  1.00  0.00     0.015 C 
BRANCH  10  11
HETATM   11  C   UNL     1       1.090  12.941  15.549  1.00  0.00     0.058 C 
HETATM   12  C   UNL     1       2.419  12.604  16.037  1.00  0.00     0.277 C 
HETATM   13  O   UNL     1       3.469  13.004  15.547  1.00  0.00    -0.265 OA
HETATM   14  N   UNL     1       2.316  11.418  16.665  1.00  0.00    -0.226 N 
HETATM   15  O   UNL     1       1.014  10.906  16.316  1.00  0.00    -0.246 OA
ATOM     16  HN  UNL     1       3.013  10.974  17.263  1.00  0.00     0.198 HD
HETATM   17  C   UNL     1       0.253  12.060  16.119  1.00  0.00     0.184 C 
ENDBRANCH  10  11
ENDBRANCH   8   9
ENDBRANCH   7   8
ENDBRANCH   6   7
ENDBRANCH   5   6
ENDBRANCH   3   5
BRANCH   2  18
HETATM   18  C   UNL     1      -5.371  21.512  14.381  1.00  0.00     0.086 C 
HETATM   19  C   UNL     1      -6.378  20.788  13.535  1.00  0.00     0.053 C 
HETATM   20  C   UNL     1      -6.483  21.599  12.291  1.00  0.00    -0.051 C 
HETATM   21  C   UNL     1      -7.475  21.385  11.372  1.00  0.00     0.007 C 
HETATM   22  C   UNL     1      -5.586  22.661  12.331  1.00  0.00    -0.051 C 
HETATM   23  C   UNL     1      -8.226  22.388  10.808  1.00  0.00     0.001 C 
HETATM   24  C   UNL     1      -7.804  23.688  10.736  1.00  0.00     0.000 C 
HETATM   25  C   UNL     1      -6.561  24.234  10.764  1.00  0.00     0.001 C 
HETATM   26  C   UNL     1      -5.475  23.674  11.414  1.00  0.00     0.007 C 
HETATM   27  C   UNL     1      -4.763  22.645  13.578  1.00  0.00     0.053 C 
ENDBRANCH   2  18
TORSDOF 7
