REMARK  3 active torsions:
REMARK  status: ('A' for Active; 'I' for Inactive)
REMARK    1  A    between atoms: C_1  and  C_4 
REMARK    2  A    between atoms: C_1  and  C_8 
REMARK    3  A    between atoms: C_7  and  C_8 
ROOT
HETATM    1  C   UNL     1       1.695   5.236  10.410  1.00  0.00     0.140 C 
ENDROOT
BRANCH   1   2
HETATM    2  C   UNL     1       1.619   6.706  10.060  1.00  0.00     0.016 C 
HETATM    3  C   UNL     1       0.415   7.418  10.026  1.00  0.00     0.025 C 
HETATM    4  C   UNL     1       0.401   8.691   9.453  1.00  0.00     0.003 C 
HETATM    5  C   UNL     1       1.572   9.189   8.878  1.00  0.00     0.017 C 
HETATM    6  C   UNL     1       2.739   8.477   9.051  1.00  0.00     0.088 C 
HETATM    7  N   UNL     1       2.761   7.286   9.671  1.00  0.00    -0.369 N 
ATOM      8  HN  UNL     1       3.652   6.821   9.846  1.00  0.00     0.165 HD
ENDBRANCH   1   2
BRANCH   1   9
HETATM    9  C   UNL     1       0.968   4.244   9.519  1.00  0.00     0.165 C 
HETATM   10  O   UNL     1       1.281   4.090   8.368  1.00  0.00    -0.292 OA
BRANCH   9  11
HETATM   11  C   UNL     1      -0.128   3.421  10.126  1.00  0.00     0.010 C 
HETATM   12  C   UNL     1      -1.467   3.845  10.052  1.00  0.00     0.015 C 
HETATM   13  C   UNL     1      -2.473   2.937  10.353  1.00  0.00     0.001 C 
HETATM   14  C   UNL     1      -2.172   1.711  10.938  1.00  0.00     0.000 C 
HETATM   15  C   UNL     1      -0.853   1.349  11.122  1.00  0.00     0.001 C 
HETATM   16  C   UNL     1       0.163   2.164  10.659  1.00  0.00     0.015 C 
ENDBRANCH   9  11
ENDBRANCH   1   9
TORSDOF 3
