REMARK  1 active torsions:
REMARK  status: ('A' for Active; 'I' for Inactive)
REMARK    1  A    between atoms: O_10  and  C_16 
ROOT
HETATM    1  C   UNL     1      19.131  14.755  68.398  1.00  0.00     0.049 C 
HETATM    2  C   UNL     1      19.945  16.015  68.026  1.00  0.00    -0.030 C 
HETATM    3  C   UNL     1      18.570  14.259  67.091  1.00  0.00    -0.051 C 
HETATM    4  C   UNL     1      17.579  13.332  66.838  1.00  0.00     0.007 C 
HETATM    5  C   UNL     1      19.277  17.257  68.624  1.00  0.00     0.041 C 
HETATM    6  C   UNL     1      19.109  14.343  64.759  1.00  0.00     0.007 C 
HETATM    7  C   UNL     1      17.333  12.923  65.534  1.00  0.00     0.001 C 
HETATM    8  C   UNL     1      18.075  13.443  64.490  1.00  0.00     0.001 C 
HETATM    9  C   UNL     1      19.191  14.885  66.027  1.00  0.00    -0.051 C 
HETATM   10  C   UNL     1      21.421  15.896  68.422  1.00  0.00     0.010 C 
HETATM   11  C   UNL     1      21.550  18.310  69.241  1.00  0.00     0.032 C 
HETATM   12  C   UNL     1      19.878  16.145  66.480  1.00  0.00     0.049 C 
HETATM   13  C   UNL     1      22.173  17.227  68.375  1.00  0.00     0.003 C 
HETATM   14  C   UNL     1      20.088  18.117  69.590  1.00  0.00     0.118 C 
ENDROOT
BRANCH  14  15
HETATM   15  O   UNL     1      19.938  17.652  70.932  1.00  0.00    -0.396 OA
ATOM     16  HO  UNL     1      20.443  18.187  71.533  1.00  0.00     0.210 HD
ENDBRANCH  14  15
TORSDOF 1
