MODEL 1
REMARK VINA RESULT:      -6.8      0.000      0.000
REMARK  3 active torsions:
REMARK  status: ('A' for Active; 'I' for Inactive)
REMARK    1  A    between atoms: O_3  and  C_11 
REMARK    2  A    between atoms: O_5  and  C_11 
REMARK    3  A    between atoms: C_9  and  C_12 
ROOT
HETATM    1  C   UNL     1      -2.108  14.578 -15.595  1.00  0.00     0.021 C 
HETATM    2  C   UNL     1      -2.541  16.120 -17.408  1.00  0.00     0.069 C 
HETATM    3  C   UNL     1      -1.853  15.987 -16.064  1.00  0.00     0.006 C 
HETATM    4  C   UNL     1      -2.871  13.887 -16.655  1.00  0.00     0.148 C 
HETATM    5  C   UNL     1      -2.857  14.716 -17.918  1.00  0.00     0.172 C 
ENDROOT
BRANCH   5   6
HETATM    6  O   UNL     1      -1.827  14.266 -18.773  1.00  0.00    -0.365 OA
ATOM      7  HO  UNL     1      -1.390  15.007 -19.176  1.00  0.00     0.213 HD
ENDBRANCH   5   6
BRANCH   5   8
HETATM    8  O   UNL     1      -4.127  14.700 -18.507  1.00  0.00    -0.365 OA
ATOM      9  HO  UNL     1      -4.531  15.556 -18.425  1.00  0.00     0.213 HD
ENDBRANCH   5   8
BRANCH   4  10
HETATM   10  C   UNL     1      -3.154  12.432 -16.610  1.00  0.00     0.182 C 
HETATM   11  O   UNL     1      -4.335  12.143 -16.296  1.00  0.00    -0.648 OA
HETATM   12  O   UNL     1      -2.283  11.641 -17.003  1.00  0.00    -0.648 OA
ENDBRANCH   4  10
TORSDOF 3
ENDMDL
MODEL 2
REMARK VINA RESULT:      -6.5      1.641      2.217
REMARK  3 active torsions:
REMARK  status: ('A' for Active; 'I' for Inactive)
REMARK    1  A    between atoms: O_3  and  C_11 
REMARK    2  A    between atoms: O_5  and  C_11 
REMARK    3  A    between atoms: C_9  and  C_12 
ROOT
HETATM    1  C   UNL     1      -2.972  13.698 -15.908  1.00  0.00     0.021 C 
HETATM    2  C   UNL     1      -4.771  14.365 -17.382  1.00  0.00     0.069 C 
HETATM    3  C   UNL     1      -3.786  14.884 -16.353  1.00  0.00     0.006 C 
HETATM    4  C   UNL     1      -3.424  12.529 -16.692  1.00  0.00     0.148 C 
HETATM    5  C   UNL     1      -4.295  12.988 -17.838  1.00  0.00     0.172 C 
ENDROOT
BRANCH   5   6
HETATM    6  O   UNL     1      -3.519  13.105 -19.011  1.00  0.00    -0.365 OA
ATOM      7  HO  UNL     1      -3.883  13.774 -19.579  1.00  0.00     0.213 HD
ENDBRANCH   5   6
BRANCH   5   8
HETATM    8  O   UNL     1      -5.391  12.127 -17.970  1.00  0.00    -0.365 OA
ATOM      9  HO  UNL     1      -5.668  11.823 -17.114  1.00  0.00     0.213 HD
ENDBRANCH   5   8
BRANCH   4  10
HETATM   10  C   UNL     1      -2.728  11.220 -16.639  1.00  0.00     0.182 C 
HETATM   11  O   UNL     1      -1.662  11.173 -17.301  1.00  0.00    -0.648 OA
HETATM   12  O   UNL     1      -3.154  10.348 -15.866  1.00  0.00    -0.648 OA
ENDBRANCH   4  10
TORSDOF 3
ENDMDL
MODEL 3
REMARK VINA RESULT:      -6.3      1.689      3.247
REMARK  3 active torsions:
REMARK  status: ('A' for Active; 'I' for Inactive)
REMARK    1  A    between atoms: O_3  and  C_11 
REMARK    2  A    between atoms: O_5  and  C_11 
REMARK    3  A    between atoms: C_9  and  C_12 
ROOT
HETATM    1  C   UNL     1      -3.874  14.577 -17.858  1.00  0.00     0.021 C 
HETATM    2  C   UNL     1      -2.955  13.507 -15.892  1.00  0.00     0.069 C 
HETATM    3  C   UNL     1      -3.548  14.804 -16.405  1.00  0.00     0.006 C 
HETATM    4  C   UNL     1      -3.536  13.174 -18.176  1.00  0.00     0.148 C 
HETATM    5  C   UNL     1      -3.285  12.407 -16.899  1.00  0.00     0.172 C 
ENDROOT
BRANCH   5   6
HETATM    6  O   UNL     1      -4.461  11.728 -16.510  1.00  0.00    -0.365 OA
ATOM      7  HO  UNL     1      -4.260  10.826 -16.289  1.00  0.00     0.213 HD
ENDBRANCH   5   6
BRANCH   5   8
HETATM    8  O   UNL     1      -2.177  11.567 -17.064  1.00  0.00    -0.365 OA
ATOM      9  HO  UNL     1      -1.558  11.708 -16.357  1.00  0.00     0.213 HD
ENDBRANCH   5   8
BRANCH   4  10
HETATM   10  C   UNL     1      -3.881  12.549 -19.476  1.00  0.00     0.182 C 
HETATM   11  O   UNL     1      -3.467  11.372 -19.612  1.00  0.00    -0.648 OA
HETATM   12  O   UNL     1      -4.642  13.155 -20.247  1.00  0.00    -0.648 OA
ENDBRANCH   4  10
TORSDOF 3
ENDMDL
MODEL 4
REMARK VINA RESULT:      -6.1      1.729      3.240
REMARK  3 active torsions:
REMARK  status: ('A' for Active; 'I' for Inactive)
REMARK    1  A    between atoms: O_3  and  C_11 
REMARK    2  A    between atoms: O_5  and  C_11 
REMARK    3  A    between atoms: C_9  and  C_12 
ROOT
HETATM    1  C   UNL     1      -2.565  14.340 -15.675  1.00  0.00     0.021 C 
HETATM    2  C   UNL     1      -3.925  12.946 -17.110  1.00  0.00     0.069 C 
HETATM    3  C   UNL     1      -3.505  13.164 -15.670  1.00  0.00     0.006 C 
HETATM    4  C   UNL     1      -2.478  14.834 -17.066  1.00  0.00     0.148 C 
HETATM    5  C   UNL     1      -3.565  14.201 -17.901  1.00  0.00     0.172 C 
ENDROOT
BRANCH   5   6
HETATM    6  O   UNL     1      -4.679  15.067 -17.973  1.00  0.00    -0.365 OA
ATOM      7  HO  UNL     1      -4.901  15.239 -18.881  1.00  0.00     0.213 HD
ENDBRANCH   5   6
BRANCH   5   8
HETATM    8  O   UNL     1      -3.049  13.842 -19.152  1.00  0.00    -0.365 OA
ATOM      9  HO  UNL     1      -2.217  13.397 -19.041  1.00  0.00     0.213 HD
ENDBRANCH   5   8
BRANCH   4  10
HETATM   10  C   UNL     1      -1.771  16.089 -17.419  1.00  0.00     0.182 C 
HETATM   11  O   UNL     1      -2.454  17.131 -17.261  1.00  0.00    -0.648 OA
HETATM   12  O   UNL     1      -0.563  16.036 -17.700  1.00  0.00    -0.648 OA
ENDBRANCH   4  10
TORSDOF 3
ENDMDL
MODEL 5
REMARK VINA RESULT:      -5.9      1.906      3.337
REMARK  3 active torsions:
REMARK  status: ('A' for Active; 'I' for Inactive)
REMARK    1  A    between atoms: O_3  and  C_11 
REMARK    2  A    between atoms: O_5  and  C_11 
REMARK    3  A    between atoms: C_9  and  C_12 
ROOT
HETATM    1  C   UNL     1      -4.234  14.856 -16.942  1.00  0.00     0.021 C 
HETATM    2  C   UNL     1      -2.690  13.061 -16.446  1.00  0.00     0.069 C 
HETATM    3  C   UNL     1      -3.074  14.476 -16.060  1.00  0.00     0.006 C 
HETATM    4  C   UNL     1      -4.559  13.682 -17.780  1.00  0.00     0.148 C 
HETATM    5  C   UNL     1      -3.840  12.463 -17.253  1.00  0.00     0.172 C 
ENDROOT
BRANCH   5   6
HETATM    6  O   UNL     1      -4.699  11.729 -16.407  1.00  0.00    -0.365 OA
ATOM      7  HO  UNL     1      -5.318  12.313 -15.984  1.00  0.00     0.213 HD
ENDBRANCH   5   6
BRANCH   5   8
HETATM    8  O   UNL     1      -3.331  11.718 -18.324  1.00  0.00    -0.365 OA
ATOM      9  HO  UNL     1      -2.649  12.211 -18.764  1.00  0.00     0.213 HD
ENDBRANCH   5   8
BRANCH   4  10
HETATM   10  C   UNL     1      -5.758  13.638 -18.652  1.00  0.00     0.182 C 
HETATM   11  O   UNL     1      -6.501  12.643 -18.463  1.00  0.00    -0.648 OA
HETATM   12  O   UNL     1      -6.007  14.614 -19.377  1.00  0.00    -0.648 OA
ENDBRANCH   4  10
TORSDOF 3
ENDMDL
MODEL 6
REMARK VINA RESULT:      -5.9      1.808      2.536
REMARK  3 active torsions:
REMARK  status: ('A' for Active; 'I' for Inactive)
REMARK    1  A    between atoms: O_3  and  C_11 
REMARK    2  A    between atoms: O_5  and  C_11 
REMARK    3  A    between atoms: C_9  and  C_12 
ROOT
HETATM    1  C   UNL     1      -4.494  15.466 -17.932  1.00  0.00     0.021 C 
HETATM    2  C   UNL     1      -2.703  16.808 -17.013  1.00  0.00     0.069 C 
HETATM    3  C   UNL     1      -4.208  16.735 -17.174  1.00  0.00     0.006 C 
HETATM    4  C   UNL     1      -3.202  14.784 -18.161  1.00  0.00     0.148 C 
HETATM    5  C   UNL     1      -2.129  15.425 -17.313  1.00  0.00     0.172 C 
ENDROOT
BRANCH   5   6
HETATM    6  O   UNL     1      -1.968  14.696 -16.115  1.00  0.00    -0.365 OA
ATOM      7  HO  UNL     1      -2.815  14.514 -15.725  1.00  0.00     0.213 HD
ENDBRANCH   5   6
BRANCH   5   8
HETATM    8  O   UNL     1      -0.952  15.551 -18.060  1.00  0.00    -0.365 OA
ATOM      9  HO  UNL     1      -1.148  15.927 -18.910  1.00  0.00     0.213 HD
ENDBRANCH   5   8
BRANCH   4  10
HETATM   10  C   UNL     1      -3.116  13.419 -18.733  1.00  0.00     0.182 C 
HETATM   11  O   UNL     1      -3.816  13.242 -19.761  1.00  0.00    -0.648 OA
HETATM   12  O   UNL     1      -2.288  12.624 -18.262  1.00  0.00    -0.648 OA
ENDBRANCH   4  10
TORSDOF 3
ENDMDL
MODEL 7
REMARK VINA RESULT:      -5.9      1.942      3.418
REMARK  3 active torsions:
REMARK  status: ('A' for Active; 'I' for Inactive)
REMARK    1  A    between atoms: O_3  and  C_11 
REMARK    2  A    between atoms: O_5  and  C_11 
REMARK    3  A    between atoms: C_9  and  C_12 
ROOT
HETATM    1  C   UNL     1      -4.132  16.178 -17.421  1.00  0.00     0.021 C 
HETATM    2  C   UNL     1      -4.444  13.784 -17.573  1.00  0.00     0.069 C 
HETATM    3  C   UNL     1      -5.152  15.115 -17.734  1.00  0.00     0.006 C 
HETATM    4  C   UNL     1      -2.850  15.497 -17.141  1.00  0.00     0.148 C 
HETATM    5  C   UNL     1      -2.941  14.047 -17.557  1.00  0.00     0.172 C 
ENDROOT
BRANCH   5   6
HETATM    6  O   UNL     1      -2.405  13.888 -18.854  1.00  0.00    -0.365 OA
ATOM      7  HO  UNL     1      -1.613  14.404 -18.946  1.00  0.00     0.213 HD
ENDBRANCH   5   6
BRANCH   5   8
HETATM    8  O   UNL     1      -2.328  13.241 -16.590  1.00  0.00    -0.365 OA
ATOM      9  HO  UNL     1      -2.900  13.149 -15.838  1.00  0.00     0.213 HD
ENDBRANCH   5   8
BRANCH   4  10
HETATM   10  C   UNL     1      -1.580  16.240 -16.957  1.00  0.00     0.182 C 
HETATM   11  O   UNL     1      -1.613  17.106 -16.049  1.00  0.00    -0.648 OA
HETATM   12  O   UNL     1      -0.577  15.874 -17.589  1.00  0.00    -0.648 OA
ENDBRANCH   4  10
TORSDOF 3
ENDMDL
MODEL 8
REMARK VINA RESULT:      -5.9      1.680      2.513
REMARK  3 active torsions:
REMARK  status: ('A' for Active; 'I' for Inactive)
REMARK    1  A    between atoms: O_3  and  C_11 
REMARK    2  A    between atoms: O_5  and  C_11 
REMARK    3  A    between atoms: C_9  and  C_12 
ROOT
HETATM    1  C   UNL     1      -4.556  16.045 -17.275  1.00  0.00     0.021 C 
HETATM    2  C   UNL     1      -2.174  15.816 -17.623  1.00  0.00     0.069 C 
HETATM    3  C   UNL     1      -3.245  16.771 -17.134  1.00  0.00     0.006 C 
HETATM    4  C   UNL     1      -4.262  14.687 -17.777  1.00  0.00     0.148 C 
HETATM    5  C   UNL     1      -2.780  14.416 -17.679  1.00  0.00     0.172 C 
ENDROOT
BRANCH   5   6
HETATM    6  O   UNL     1      -2.499  13.717 -16.484  1.00  0.00    -0.365 OA
ATOM      7  HO  UNL     1      -2.654  14.278 -15.733  1.00  0.00     0.213 HD
ENDBRANCH   5   6
BRANCH   5   8
HETATM    8  O   UNL     1      -2.343  13.755 -18.833  1.00  0.00    -0.365 OA
ATOM      9  HO  UNL     1      -1.709  13.087 -18.602  1.00  0.00     0.213 HD
ENDBRANCH   5   8
BRANCH   4  10
HETATM   10  C   UNL     1      -5.303  13.635 -17.877  1.00  0.00     0.182 C 
HETATM   11  O   UNL     1      -4.897  12.476 -17.612  1.00  0.00    -0.648 OA
HETATM   12  O   UNL     1      -6.481  13.975 -18.069  1.00  0.00    -0.648 OA
ENDBRANCH   4  10
TORSDOF 3
ENDMDL
MODEL 9
REMARK VINA RESULT:      -5.9      2.382      3.076
REMARK  3 active torsions:
REMARK  status: ('A' for Active; 'I' for Inactive)
REMARK    1  A    between atoms: O_3  and  C_11 
REMARK    2  A    between atoms: O_5  and  C_11 
REMARK    3  A    between atoms: C_9  and  C_12 
ROOT
HETATM    1  C   UNL     1      -3.602  14.535 -17.977  1.00  0.00     0.021 C 
HETATM    2  C   UNL     1      -6.001  14.644 -18.275  1.00  0.00     0.069 C 
HETATM    3  C   UNL     1      -4.772  15.483 -17.980  1.00  0.00     0.006 C 
HETATM    4  C   UNL     1      -4.117  13.191 -18.315  1.00  0.00     0.148 C 
HETATM    5  C   UNL     1      -5.533  13.301 -18.829  1.00  0.00     0.172 C 
ENDROOT
BRANCH   5   6
HETATM    6  O   UNL     1      -5.528  13.333 -20.241  1.00  0.00    -0.365 OA
ATOM      7  HO  UNL     1      -5.601  14.229 -20.548  1.00  0.00     0.213 HD
ENDBRANCH   5   6
BRANCH   5   8
HETATM    8  O   UNL     1      -6.311  12.269 -18.292  1.00  0.00    -0.365 OA
ATOM      9  HO  UNL     1      -5.752  11.643 -17.847  1.00  0.00     0.213 HD
ENDBRANCH   5   8
BRANCH   4  10
HETATM   10  C   UNL     1      -3.220  12.038 -18.568  1.00  0.00     0.182 C 
HETATM   11  O   UNL     1      -3.466  11.411 -19.629  1.00  0.00    -0.648 OA
HETATM   12  O   UNL     1      -2.244  11.864 -17.821  1.00  0.00    -0.648 OA
ENDBRANCH   4  10
TORSDOF 3
ENDMDL
