REMARK  0 active torsions:
REMARK  status: ('A' for Active; 'I' for Inactive)
ROOT
HETATM    1  C   UNL     1      -3.906  15.117 -16.250  1.00  0.00     0.137 C 
HETATM    2  C   UNL     1      -2.719  12.731 -17.635  1.00  0.00     0.006 C 
HETATM    3  C   UNL     1      -4.016  14.724 -17.721  1.00  0.00     0.038 C 
HETATM    4  C   UNL     1      -1.754  14.767 -16.863  1.00  0.00     0.096 C 
HETATM    5  C   UNL     1      -1.954  16.248 -16.776  1.00  0.00     0.264 C 
HETATM    6  C   UNL     1      -2.715  14.292 -15.752  1.00  0.00     0.029 C 
HETATM    7  O   UNL     1      -3.358  16.451 -16.428  1.00  0.00    -0.315 OA
HETATM    8  C   UNL     1      -2.980  12.818 -16.132  1.00  0.00     0.008 C 
HETATM    9  O   UNL     1      -1.223  17.101 -17.204  1.00  0.00    -0.265 OA
HETATM   10  C   UNL     1      -2.591  14.211 -18.018  1.00  0.00     0.002 C 
ENDROOT
TORSDOF 0
