MODEL 1
REMARK VINA RESULT:      -6.7      0.000      0.000
REMARK  3 active torsions:
REMARK  status: ('A' for Active; 'I' for Inactive)
REMARK    1  A    between atoms: C_2  and  O_4 
REMARK    2  A    between atoms: C_3  and  N_9 
REMARK    3  A    between atoms: C_3  and  O_13 
ROOT
HETATM    1  C   UNL     1      -1.889  15.116 -15.849  1.00  0.00     0.064 C 
HETATM    2  C   UNL     1      -2.069  15.892 -17.152  1.00  0.00     0.062 C 
HETATM    3  C   UNL     1      -3.133  13.705 -18.072  1.00  0.00     0.243 C 
HETATM    4  C   UNL     1      -2.890  14.101 -15.664  1.00  0.00    -0.023 C 
HETATM    5  C   UNL     1      -3.596  13.579 -16.657  1.00  0.00     0.037 C 
HETATM    6  C   UNL     1      -3.279  16.782 -17.016  1.00  0.00     0.046 C 
HETATM    7  C   UNL     1      -2.231  14.907 -18.296  1.00  0.00     0.110 C 
ENDROOT
BRANCH   3   8
HETATM    8  N   UNL     1      -4.241  13.754 -18.986  1.00  0.00    -0.043 N 
ATOM      9  HN3 UNL     1      -4.646  14.689 -19.033  1.00  0.00     0.278 HD
ATOM     10  HN2 UNL     1      -3.930  13.668 -19.954  1.00  0.00     0.278 HD
ATOM     11  HN1 UNL     1      -4.945  13.053 -18.757  1.00  0.00     0.278 HD
ENDBRANCH   3   8
BRANCH   3  12
HETATM   12  O   UNL     1      -2.382  12.535 -18.381  1.00  0.00    -0.362 OA
ATOM     13  HO  UNL     1      -2.093  12.157 -17.558  1.00  0.00     0.213 HD
ENDBRANCH   3  12
BRANCH   2  14
HETATM   14  O   UNL     1      -0.949  16.737 -17.350  1.00  0.00    -0.390 OA
ATOM     15  HO  UNL     1      -1.141  17.599 -17.000  1.00  0.00     0.210 HD
ENDBRANCH   2  14
TORSDOF 3
ENDMDL
MODEL 2
REMARK VINA RESULT:      -6.2      1.191      1.252
REMARK  3 active torsions:
REMARK  status: ('A' for Active; 'I' for Inactive)
REMARK    1  A    between atoms: C_2  and  O_4 
REMARK    2  A    between atoms: C_3  and  N_9 
REMARK    3  A    between atoms: C_3  and  O_13 
ROOT
HETATM    1  C   UNL     1      -2.598  14.630 -15.970  1.00  0.00     0.064 C 
HETATM    2  C   UNL     1      -2.918  15.046 -17.403  1.00  0.00     0.062 C 
HETATM    3  C   UNL     1      -3.267  12.507 -17.847  1.00  0.00     0.243 C 
HETATM    4  C   UNL     1      -3.279  13.427 -15.574  1.00  0.00    -0.023 C 
HETATM    5  C   UNL     1      -3.753  12.537 -16.435  1.00  0.00     0.037 C 
HETATM    6  C   UNL     1      -4.336  15.557 -17.448  1.00  0.00     0.046 C 
HETATM    7  C   UNL     1      -2.731  13.848 -18.319  1.00  0.00     0.110 C 
ENDROOT
BRANCH   3   8
HETATM    8  N   UNL     1      -4.291  12.051 -18.747  1.00  0.00    -0.043 N 
ATOM      9  HN3 UNL     1      -4.049  11.153 -19.165  1.00  0.00     0.278 HD
ATOM     10  HN2 UNL     1      -5.132  11.769 -18.242  1.00  0.00     0.278 HD
ATOM     11  HN1 UNL     1      -4.501  12.750 -19.459  1.00  0.00     0.278 HD
ENDBRANCH   3   8
BRANCH   3  12
HETATM   12  O   UNL     1      -2.200  11.567 -17.911  1.00  0.00    -0.362 OA
ATOM     13  HO  UNL     1      -2.167  11.234 -18.800  1.00  0.00     0.213 HD
ENDBRANCH   3  12
BRANCH   2  14
HETATM   14  O   UNL     1      -2.074  16.120 -17.778  1.00  0.00    -0.390 OA
ATOM     15  HO  UNL     1      -2.602  16.825 -18.134  1.00  0.00     0.210 HD
ENDBRANCH   2  14
TORSDOF 3
ENDMDL
MODEL 3
REMARK VINA RESULT:      -5.8      2.757      3.682
REMARK  3 active torsions:
REMARK  status: ('A' for Active; 'I' for Inactive)
REMARK    1  A    between atoms: C_2  and  O_4 
REMARK    2  A    between atoms: C_3  and  N_9 
REMARK    3  A    between atoms: C_3  and  O_13 
ROOT
HETATM    1  C   UNL     1      -3.698  13.256 -15.963  1.00  0.00     0.064 C 
HETATM    2  C   UNL     1      -3.804  12.233 -17.091  1.00  0.00     0.062 C 
HETATM    3  C   UNL     1      -5.439  13.925 -18.199  1.00  0.00     0.243 C 
HETATM    4  C   UNL     1      -3.900  14.606 -16.415  1.00  0.00    -0.023 C 
HETATM    5  C   UNL     1      -4.538  14.914 -17.535  1.00  0.00     0.037 C 
HETATM    6  C   UNL     1      -2.588  12.366 -17.974  1.00  0.00     0.046 C 
HETATM    7  C   UNL     1      -5.084  12.485 -17.868  1.00  0.00     0.110 C 
ENDROOT
BRANCH   3   8
HETATM    8  N   UNL     1      -5.458  14.104 -19.624  1.00  0.00    -0.043 N 
ATOM      9  HN3 UNL     1      -4.722  14.741 -19.931  1.00  0.00     0.278 HD
ATOM     10  HN2 UNL     1      -5.150  13.261 -20.110  1.00  0.00     0.278 HD
ATOM     11  HN1 UNL     1      -6.375  14.408 -19.951  1.00  0.00     0.278 HD
ENDBRANCH   3   8
BRANCH   3  12
HETATM   12  O   UNL     1      -6.759  14.166 -17.725  1.00  0.00    -0.362 OA
ATOM     13  HO  UNL     1      -7.315  14.296 -18.485  1.00  0.00     0.213 HD
ENDBRANCH   3  12
BRANCH   2  14
HETATM   14  O   UNL     1      -3.780  10.927 -16.541  1.00  0.00    -0.390 OA
ATOM     15  HO  UNL     1      -4.276  10.342 -17.102  1.00  0.00     0.210 HD
ENDBRANCH   2  14
TORSDOF 3
ENDMDL
MODEL 4
REMARK VINA RESULT:      -5.8      2.031      3.353
REMARK  3 active torsions:
REMARK  status: ('A' for Active; 'I' for Inactive)
REMARK    1  A    between atoms: C_2  and  O_4 
REMARK    2  A    between atoms: C_3  and  N_9 
REMARK    3  A    between atoms: C_3  and  O_13 
ROOT
HETATM    1  C   UNL     1      -4.053  14.069 -16.231  1.00  0.00     0.064 C 
HETATM    2  C   UNL     1      -3.988  14.569 -17.673  1.00  0.00     0.062 C 
HETATM    3  C   UNL     1      -2.069  16.113 -16.838  1.00  0.00     0.243 C 
HETATM    4  C   UNL     1      -2.784  14.147 -15.558  1.00  0.00    -0.023 C 
HETATM    5  C   UNL     1      -1.800  14.949 -15.941  1.00  0.00     0.037 C 
HETATM    6  C   UNL     1      -3.227  13.560 -18.496  1.00  0.00     0.046 C 
HETATM    7  C   UNL     1      -3.310  15.928 -17.695  1.00  0.00     0.110 C 
ENDROOT
BRANCH   3   8
HETATM    8  N   UNL     1      -0.939  16.401 -17.678  1.00  0.00    -0.043 N 
ATOM      9  HN3 UNL     1      -0.182  15.734 -17.530  1.00  0.00     0.278 HD
ATOM     10  HN2 UNL     1      -1.140  16.197 -18.657  1.00  0.00     0.278 HD
ATOM     11  HN1 UNL     1      -0.618  17.362 -17.556  1.00  0.00     0.278 HD
ENDBRANCH   3   8
BRANCH   3  12
HETATM   12  O   UNL     1      -2.280  17.250 -16.009  1.00  0.00    -0.362 OA
ATOM     13  HO  UNL     1      -3.213  17.315 -15.846  1.00  0.00     0.213 HD
ENDBRANCH   3  12
BRANCH   2  14
HETATM   14  O   UNL     1      -5.301  14.636 -18.203  1.00  0.00    -0.390 OA
ATOM     15  HO  UNL     1      -5.259  14.926 -19.106  1.00  0.00     0.210 HD
ENDBRANCH   2  14
TORSDOF 3
ENDMDL
MODEL 5
REMARK VINA RESULT:      -5.7      1.768      2.333
REMARK  3 active torsions:
REMARK  status: ('A' for Active; 'I' for Inactive)
REMARK    1  A    between atoms: C_2  and  O_4 
REMARK    2  A    between atoms: C_3  and  N_9 
REMARK    3  A    between atoms: C_3  and  O_13 
ROOT
HETATM    1  C   UNL     1      -3.597  16.434 -17.108  1.00  0.00     0.064 C 
HETATM    2  C   UNL     1      -2.220  15.952 -16.657  1.00  0.00     0.062 C 
HETATM    3  C   UNL     1      -3.319  13.600 -16.499  1.00  0.00     0.243 C 
HETATM    4  C   UNL     1      -4.347  15.415 -17.790  1.00  0.00    -0.023 C 
HETATM    5  C   UNL     1      -4.107  14.118 -17.659  1.00  0.00     0.037 C 
HETATM    6  C   UNL     1      -1.344  15.795 -17.874  1.00  0.00     0.046 C 
HETATM    7  C   UNL     1      -2.377  14.637 -15.912  1.00  0.00     0.110 C 
ENDROOT
BRANCH   3   8
HETATM    8  N   UNL     1      -2.581  12.418 -16.850  1.00  0.00    -0.043 N 
ATOM      9  HN3 UNL     1      -2.276  12.443 -17.823  1.00  0.00     0.278 HD
ATOM     10  HN2 UNL     1      -1.667  12.402 -16.398  1.00  0.00     0.278 HD
ATOM     11  HN1 UNL     1      -3.113  11.572 -16.648  1.00  0.00     0.278 HD
ENDBRANCH   3   8
BRANCH   3  12
HETATM   12  O   UNL     1      -4.247  13.233 -15.484  1.00  0.00    -0.362 OA
ATOM     13  HO  UNL     1      -3.817  13.359 -14.647  1.00  0.00     0.213 HD
ENDBRANCH   3  12
BRANCH   2  14
HETATM   14  O   UNL     1      -1.624  16.943 -15.838  1.00  0.00    -0.390 OA
ATOM     15  HO  UNL     1      -0.913  16.553 -15.342  1.00  0.00     0.210 HD
ENDBRANCH   2  14
TORSDOF 3
ENDMDL
MODEL 6
REMARK VINA RESULT:      -5.6      1.893      2.358
REMARK  3 active torsions:
REMARK  status: ('A' for Active; 'I' for Inactive)
REMARK    1  A    between atoms: C_2  and  O_4 
REMARK    2  A    between atoms: C_3  and  N_9 
REMARK    3  A    between atoms: C_3  and  O_13 
ROOT
HETATM    1  C   UNL     1      -4.200  15.315 -16.742  1.00  0.00     0.064 C 
HETATM    2  C   UNL     1      -2.779  14.757 -16.751  1.00  0.00     0.062 C 
HETATM    3  C   UNL     1      -3.887  12.498 -17.412  1.00  0.00     0.243 C 
HETATM    4  C   UNL     1      -5.072  14.631 -17.659  1.00  0.00    -0.023 C 
HETATM    5  C   UNL     1      -4.840  13.408 -18.115  1.00  0.00     0.037 C 
HETATM    6  C   UNL     1      -2.115  15.157 -18.045  1.00  0.00     0.046 C 
HETATM    7  C   UNL     1      -2.840  13.246 -16.603  1.00  0.00     0.110 C 
ENDROOT
BRANCH   3   8
HETATM    8  N   UNL     1      -3.240  11.602 -18.330  1.00  0.00    -0.043 N 
ATOM      9  HN3 UNL     1      -3.916  11.013 -18.817  1.00  0.00     0.278 HD
ATOM     10  HN2 UNL     1      -2.859  12.103 -19.134  1.00  0.00     0.278 HD
ATOM     11  HN1 UNL     1      -2.524  11.043 -17.866  1.00  0.00     0.278 HD
ENDBRANCH   3   8
BRANCH   3  12
HETATM   12  O   UNL     1      -4.645  11.702 -16.508  1.00  0.00    -0.362 OA
ATOM     13  HO  UNL     1      -4.248  10.839 -16.487  1.00  0.00     0.213 HD
ENDBRANCH   3  12
BRANCH   2  14
HETATM   14  O   UNL     1      -2.037  15.350 -15.700  1.00  0.00    -0.390 OA
ATOM     15  HO  UNL     1      -2.424  15.106 -14.867  1.00  0.00     0.210 HD
ENDBRANCH   2  14
TORSDOF 3
ENDMDL
MODEL 7
REMARK VINA RESULT:      -5.5      2.610      3.371
REMARK  3 active torsions:
REMARK  status: ('A' for Active; 'I' for Inactive)
REMARK    1  A    between atoms: C_2  and  O_4 
REMARK    2  A    between atoms: C_3  and  N_9 
REMARK    3  A    between atoms: C_3  and  O_13 
ROOT
HETATM    1  C   UNL     1      -3.180  14.283 -18.462  1.00  0.00     0.064 C 
HETATM    2  C   UNL     1      -4.026  13.119 -18.972  1.00  0.00     0.062 C 
HETATM    3  C   UNL     1      -2.870  11.725 -17.105  1.00  0.00     0.243 C 
HETATM    4  C   UNL     1      -2.875  14.177 -17.061  1.00  0.00    -0.023 C 
HETATM    5  C   UNL     1      -2.910  13.036 -16.388  1.00  0.00     0.037 C 
HETATM    6  C   UNL     1      -5.422  13.263 -18.419  1.00  0.00     0.046 C 
HETATM    7  C   UNL     1      -3.387  11.813 -18.531  1.00  0.00     0.110 C 
ENDROOT
BRANCH   3   8
HETATM    8  N   UNL     1      -3.594  10.712 -16.388  1.00  0.00    -0.043 N 
ATOM      9  HN3 UNL     1      -4.534  10.586 -16.765  1.00  0.00     0.278 HD
ATOM     10  HN2 UNL     1      -3.222   9.781 -16.580  1.00  0.00     0.278 HD
ATOM     11  HN1 UNL     1      -3.617  10.905 -15.387  1.00  0.00     0.278 HD
ENDBRANCH   3   8
BRANCH   3  12
HETATM   12  O   UNL     1      -1.509  11.312 -17.161  1.00  0.00    -0.362 OA
ATOM     13  HO  UNL     1      -1.008  12.030 -17.528  1.00  0.00     0.213 HD
ENDBRANCH   3  12
BRANCH   2  14
HETATM   14  O   UNL     1      -4.125  13.196 -20.383  1.00  0.00    -0.390 OA
ATOM     15  HO  UNL     1      -4.721  13.897 -20.618  1.00  0.00     0.210 HD
ENDBRANCH   2  14
TORSDOF 3
ENDMDL
MODEL 8
REMARK VINA RESULT:      -5.5      2.207      3.013
REMARK  3 active torsions:
REMARK  status: ('A' for Active; 'I' for Inactive)
REMARK    1  A    between atoms: C_2  and  O_4 
REMARK    2  A    between atoms: C_3  and  N_9 
REMARK    3  A    between atoms: C_3  and  O_13 
ROOT
HETATM    1  C   UNL     1      -4.253  14.486 -16.436  1.00  0.00     0.064 C 
HETATM    2  C   UNL     1      -3.352  13.649 -17.340  1.00  0.00     0.062 C 
HETATM    3  C   UNL     1      -5.509  13.178 -18.714  1.00  0.00     0.243 C 
HETATM    4  C   UNL     1      -5.374  15.051 -17.137  1.00  0.00    -0.023 C 
HETATM    5  C   UNL     1      -5.842  14.568 -18.279  1.00  0.00     0.037 C 
HETATM    6  C   UNL     1      -2.604  14.578 -18.263  1.00  0.00     0.046 C 
HETATM    7  C   UNL     1      -4.209  12.665 -18.118  1.00  0.00     0.110 C 
ENDROOT
BRANCH   3   8
HETATM    8  N   UNL     1      -5.461  13.072 -20.146  1.00  0.00    -0.043 N 
ATOM      9  HN3 UNL     1      -4.951  13.852 -20.562  1.00  0.00     0.278 HD
ATOM     10  HN2 UNL     1      -4.852  12.309 -20.444  1.00  0.00     0.278 HD
ATOM     11  HN1 UNL     1      -6.395  12.981 -20.546  1.00  0.00     0.278 HD
ENDBRANCH   3   8
BRANCH   3  12
HETATM   12  O   UNL     1      -6.558  12.327 -18.263  1.00  0.00    -0.362 OA
ATOM     13  HO  UNL     1      -7.366  12.826 -18.302  1.00  0.00     0.213 HD
ENDBRANCH   3  12
BRANCH   2  14
HETATM   14  O   UNL     1      -2.387  12.979 -16.547  1.00  0.00    -0.390 OA
ATOM     15  HO  UNL     1      -1.530  13.083 -16.943  1.00  0.00     0.210 HD
ENDBRANCH   2  14
TORSDOF 3
ENDMDL
MODEL 9
REMARK VINA RESULT:      -5.3      2.140      2.977
REMARK  3 active torsions:
REMARK  status: ('A' for Active; 'I' for Inactive)
REMARK    1  A    between atoms: C_2  and  O_4 
REMARK    2  A    between atoms: C_3  and  N_9 
REMARK    3  A    between atoms: C_3  and  O_13 
ROOT
HETATM    1  C   UNL     1      -3.325  13.342 -16.589  1.00  0.00     0.064 C 
HETATM    2  C   UNL     1      -3.074  13.410 -18.093  1.00  0.00     0.062 C 
HETATM    3  C   UNL     1      -5.484  14.375 -18.248  1.00  0.00     0.243 C 
HETATM    4  C   UNL     1      -4.244  14.350 -16.132  1.00  0.00    -0.023 C 
HETATM    5  C   UNL     1      -5.113  14.962 -16.925  1.00  0.00     0.037 C 
HETATM    6  C   UNL     1      -2.240  14.633 -18.385  1.00  0.00     0.046 C 
HETATM    7  C   UNL     1      -4.409  13.464 -18.815  1.00  0.00     0.110 C 
ENDROOT
BRANCH   3   8
HETATM    8  N   UNL     1      -5.807  15.398 -19.205  1.00  0.00    -0.043 N 
ATOM      9  HN3 UNL     1      -6.050  16.276 -18.746  1.00  0.00     0.278 HD
ATOM     10  HN2 UNL     1      -4.978  15.709 -19.712  1.00  0.00     0.278 HD
ATOM     11  HN1 UNL     1      -6.542  15.094 -19.843  1.00  0.00     0.278 HD
ENDBRANCH   3   8
BRANCH   3  12
HETATM   12  O   UNL     1      -6.657  13.593 -18.053  1.00  0.00    -0.362 OA
ATOM     13  HO  UNL     1      -7.008  13.814 -17.198  1.00  0.00     0.213 HD
ENDBRANCH   3  12
BRANCH   2  14
HETATM   14  O   UNL     1      -2.315  12.282 -18.491  1.00  0.00    -0.390 OA
ATOM     15  HO  UNL     1      -2.673  11.503 -18.081  1.00  0.00     0.210 HD
ENDBRANCH   2  14
TORSDOF 3
ENDMDL
