REMARK  3 active torsions:
REMARK  status: ('A' for Active; 'I' for Inactive)
REMARK    1  A    between atoms: N_1  and  C_10 
REMARK    2  A    between atoms: N_1  and  C_17 
REMARK    3  A    between atoms: C_7  and  O_19 
ROOT
HETATM    1  C   UNL     1      22.248  11.925 -11.756  1.00  0.00    -0.018 C 
HETATM    2  C   UNL     1      20.822  10.256 -10.887  1.00  0.00     0.011 C 
HETATM    3  C   UNL     1      20.406   8.885 -10.436  1.00  0.00     0.029 C 
HETATM    4  C   UNL     1      23.288  12.502 -12.500  1.00  0.00     0.072 C 
HETATM    5  C   UNL     1      22.565  14.893 -12.682  1.00  0.00     0.003 C 
HETATM    6  C   UNL     1      19.715   7.456  -5.980  1.00  0.00     0.033 C 
HETATM    7  C   UNL     1      20.944   6.824  -6.218  1.00  0.00     0.030 C 
HETATM    8  C   UNL     1      20.379  11.588 -10.309  1.00  0.00     0.047 C 
HETATM    9  C   UNL     1      21.048   7.785  -8.417  1.00  0.00    -0.046 C 
HETATM   10  C   UNL     1      17.931   8.960  -9.750  1.00  0.00     0.008 C 
HETATM   11  C   UNL     1      19.279   8.801  -9.454  1.00  0.00    -0.042 C 
HETATM   12  C   UNL     1      23.347  13.805 -12.982  1.00  0.00     0.037 C 
HETATM   13  C   UNL     1      19.189   8.321  -6.944  1.00  0.00     0.042 C 
HETATM   14  C   UNL     1      17.747  11.384 -10.092  1.00  0.00    -0.003 C 
HETATM   15  C   UNL     1      21.295  14.870 -12.120  1.00  0.00     0.001 C 
HETATM   16  C   UNL     1      20.681  13.825 -11.488  1.00  0.00     0.008 C 
HETATM   17  C   UNL     1      18.925  11.867 -10.337  1.00  0.00    -0.017 C 
HETATM   18  C   UNL     1      22.219  10.452 -11.462  1.00  0.00     0.048 C 
HETATM   19  C   UNL     1      19.782   8.354  -8.207  1.00  0.00    -0.021 C 
HETATM   20  C   UNL     1      21.581   6.953  -7.444  1.00  0.00     0.010 C 
HETATM   21  C   UNL     1      17.194  10.133  -9.678  1.00  0.00     0.000 C 
HETATM   22  C   UNL     1      21.101  12.520 -11.266  1.00  0.00    -0.041 C 
HETATM   23  C   UNL     1      21.587   8.157  -9.770  1.00  0.00     0.049 C 
ENDROOT
BRANCH   6  24
HETATM   24  N   UNL     1      18.993   7.198  -4.809  1.00  0.00    -0.355 N 
ATOM     25  HN  UNL     1      18.702   7.997  -4.245  1.00  0.00     0.166 HD
BRANCH  24  26
HETATM   26  C   UNL     1      18.644   5.925  -4.360  1.00  0.00     0.048 C 
HETATM   27  C   UNL     1      19.632   4.970  -4.265  1.00  0.00     0.117 C 
HETATM   28  N   UNL     1      19.657   3.670  -4.410  1.00  0.00    -0.373 N 
HETATM   29  C   UNL     1      18.679   2.853  -4.008  1.00  0.00     0.087 C 
ATOM     30  HN  UNL     1      20.474   3.254  -4.858  1.00  0.00     0.164 HD
HETATM   31  C   UNL     1      17.481   3.245  -3.527  1.00  0.00     0.017 C 
HETATM   32  C   UNL     1      16.881   4.471  -3.468  1.00  0.00     0.004 C 
HETATM   33  C   UNL     1      17.310   5.675  -3.986  1.00  0.00     0.031 C 
ENDBRANCH  24  26
ENDBRANCH   6  24
BRANCH   4  34
HETATM   34  O   UNL     1      24.304  11.676 -12.862  1.00  0.00    -0.360 OA
ATOM     35  HO  UNL     1      25.008  12.067 -13.366  1.00  0.00     0.217 HD
ENDBRANCH   4  34
TORSDOF 3
