MODEL 1
REMARK VINA RESULT:      -7.0      0.000      0.000
REMARK  2 active torsions:
REMARK  status: ('A' for Active; 'I' for Inactive)
REMARK    1  A    between atoms: O_1  and  C_10 
REMARK    2  A    between atoms: O_4  and  C_10 
ROOT
HETATM    1  C   UNL     1      21.863   8.093  18.082  1.00  0.00     0.290 C 
HETATM    2  C   UNL     1      22.838   8.772  17.126  1.00  0.00     0.018 C 
HETATM    3  C   UNL     1      21.032   9.041  18.908  1.00  0.00     0.253 C 
HETATM    4  C   UNL     1      21.307  10.727  17.195  1.00  0.00     0.088 C 
HETATM    5  C   UNL     1      22.758   7.967  15.829  1.00  0.00     0.022 C 
HETATM    6  C   UNL     1      24.236   6.263  17.059  1.00  0.00     0.188 C 
HETATM    7  C   UNL     1      22.519  10.232  16.860  1.00  0.00     0.003 C 
HETATM    8  O   UNL     1      20.848   8.876  20.102  1.00  0.00    -0.271 OA
HETATM    9  C   UNL     1      24.219   8.610  17.769  1.00  0.00     0.055 C 
HETATM   10  C   UNL     1      24.092   7.181  18.313  1.00  0.00     0.249 C 
HETATM   11  N   UNL     1      22.703   7.123  18.809  1.00  0.00    -0.052 N 
ATOM     12  HN1 UNL     1      22.321   6.178  18.764  1.00  0.00     0.278 HD
ATOM     13  HN2 UNL     1      22.653   7.256  19.818  1.00  0.00     0.278 HD
HETATM   14  N   UNL     1      20.569  10.134  18.225  1.00  0.00    -0.336 N 
ATOM     15  HN  UNL     1      19.660  10.527  18.473  1.00  0.00     0.168 HD
HETATM   16  C   UNL     1      23.592   6.721  15.771  1.00  0.00     0.071 C 
ENDROOT
BRANCH   6  17
HETATM   17  O   UNL     1      25.618   6.148  16.806  1.00  0.00    -0.364 OA
ATOM     18  HO  UNL     1      26.005   6.990  17.015  1.00  0.00     0.213 HD
ENDBRANCH   6  17
BRANCH   6  19
HETATM   19  O   UNL     1      23.776   4.977  17.388  1.00  0.00    -0.364 OA
ATOM     20  HO  UNL     1      24.511   4.386  17.276  1.00  0.00     0.213 HD
ENDBRANCH   6  19
TORSDOF 2
ENDMDL
MODEL 2
REMARK VINA RESULT:      -6.0      2.466      4.010
REMARK  2 active torsions:
REMARK  status: ('A' for Active; 'I' for Inactive)
REMARK    1  A    between atoms: O_1  and  C_10 
REMARK    2  A    between atoms: O_4  and  C_10 
ROOT
HETATM    1  C   UNL     1      22.355   8.776  20.105  1.00  0.00     0.290 C 
HETATM    2  C   UNL     1      22.693   7.681  19.098  1.00  0.00     0.018 C 
HETATM    3  C   UNL     1      22.104   8.281  21.507  1.00  0.00     0.253 C 
HETATM    4  C   UNL     1      23.481   6.349  21.040  1.00  0.00     0.088 C 
HETATM    5  C   UNL     1      23.820   8.256  18.240  1.00  0.00     0.022 C 
HETATM    6  C   UNL     1      21.954   9.575  17.068  1.00  0.00     0.188 C 
HETATM    7  C   UNL     1      23.129   6.375  19.735  1.00  0.00     0.003 C 
HETATM    8  O   UNL     1      21.171   8.682  22.182  1.00  0.00    -0.271 OA
HETATM    9  C   UNL     1      21.426   7.497  18.256  1.00  0.00     0.055 C 
HETATM   10  C   UNL     1      20.981   8.959  18.122  1.00  0.00     0.249 C 
HETATM   11  N   UNL     1      21.270   9.531  19.452  1.00  0.00    -0.052 N 
ATOM     12  HN1 UNL     1      21.476  10.529  19.401  1.00  0.00     0.278 HD
ATOM     13  HN2 UNL     1      20.435   9.581  20.035  1.00  0.00     0.278 HD
HETATM   14  N   UNL     1      22.961   7.298  21.925  1.00  0.00    -0.336 N 
ATOM     15  HN  UNL     1      23.228   7.258  22.909  1.00  0.00     0.168 HD
HETATM   16  C   UNL     1      23.403   9.148  17.109  1.00  0.00     0.071 C 
ENDROOT
BRANCH   6  17
HETATM   17  O   UNL     1      21.455   9.206  15.802  1.00  0.00    -0.364 OA
ATOM     18  HO  UNL     1      22.118   8.660  15.396  1.00  0.00     0.213 HD
ENDBRANCH   6  17
BRANCH   6  19
HETATM   19  O   UNL     1      21.869  10.976  17.144  1.00  0.00    -0.364 OA
ATOM     20  HO  UNL     1      22.333  11.236  17.931  1.00  0.00     0.213 HD
ENDBRANCH   6  19
TORSDOF 2
ENDMDL
MODEL 3
REMARK VINA RESULT:      -5.7      2.918      3.648
REMARK  2 active torsions:
REMARK  status: ('A' for Active; 'I' for Inactive)
REMARK    1  A    between atoms: O_1  and  C_10 
REMARK    2  A    between atoms: O_4  and  C_10 
ROOT
HETATM    1  C   UNL     1      20.585   8.992  19.765  1.00  0.00     0.290 C 
HETATM    2  C   UNL     1      21.885   8.448  19.181  1.00  0.00     0.018 C 
HETATM    3  C   UNL     1      20.013  10.174  19.025  1.00  0.00     0.253 C 
HETATM    4  C   UNL     1      21.151   9.434  17.023  1.00  0.00     0.088 C 
HETATM    5  C   UNL     1      21.750   6.926  19.247  1.00  0.00     0.022 C 
HETATM    6  C   UNL     1      22.300   7.208  21.740  1.00  0.00     0.188 C 
HETATM    7  C   UNL     1      22.150   8.892  17.755  1.00  0.00     0.003 C 
HETATM    8  O   UNL     1      19.580  11.157  19.602  1.00  0.00    -0.271 OA
HETATM    9  C   UNL     1      22.989   8.925  20.131  1.00  0.00     0.055 C 
HETATM   10  C   UNL     1      22.276   8.746  21.478  1.00  0.00     0.249 C 
HETATM   11  N   UNL     1      20.892   9.176  21.196  1.00  0.00    -0.052 N 
ATOM     12  HN1 UNL     1      20.216   8.703  21.796  1.00  0.00     0.278 HD
ATOM     13  HN2 UNL     1      20.720  10.133  21.503  1.00  0.00     0.278 HD
HETATM   14  N   UNL     1      20.087  10.081  17.660  1.00  0.00    -0.336 N 
ATOM     15  HN  UNL     1      19.347  10.494  17.093  1.00  0.00     0.168 HD
HETATM   16  C   UNL     1      22.089   6.287  20.560  1.00  0.00     0.071 C 
ENDROOT
BRANCH   6  17
HETATM   17  O   UNL     1      23.575   6.913  22.265  1.00  0.00    -0.364 OA
ATOM     18  HO  UNL     1      24.033   7.741  22.351  1.00  0.00     0.213 HD
ENDBRANCH   6  17
BRANCH   6  19
HETATM   19  O   UNL     1      21.368   6.910  22.748  1.00  0.00    -0.364 OA
ATOM     20  HO  UNL     1      21.583   6.043  23.072  1.00  0.00     0.213 HD
ENDBRANCH   6  19
TORSDOF 2
ENDMDL
MODEL 4
REMARK VINA RESULT:      -5.7      2.168      4.401
REMARK  2 active torsions:
REMARK  status: ('A' for Active; 'I' for Inactive)
REMARK    1  A    between atoms: O_1  and  C_10 
REMARK    2  A    between atoms: O_4  and  C_10 
ROOT
HETATM    1  C   UNL     1      23.394   6.669  17.451  1.00  0.00     0.290 C 
HETATM    2  C   UNL     1      22.951   7.503  18.650  1.00  0.00     0.018 C 
HETATM    3  C   UNL     1      24.394   5.590  17.775  1.00  0.00     0.253 C 
HETATM    4  C   UNL     1      23.564   5.543  20.046  1.00  0.00     0.088 C 
HETATM    5  C   UNL     1      21.444   7.693  18.474  1.00  0.00     0.022 C 
HETATM    6  C   UNL     1      22.097   9.468  16.736  1.00  0.00     0.188 C 
HETATM    7  C   UNL     1      23.247   6.856  19.990  1.00  0.00     0.003 C 
HETATM    8  O   UNL     1      25.378   5.385  17.085  1.00  0.00    -0.271 OA
HETATM    9  C   UNL     1      23.676   8.845  18.504  1.00  0.00     0.055 C 
HETATM   10  C   UNL     1      23.576   9.037  16.985  1.00  0.00     0.249 C 
HETATM   11  N   UNL     1      23.789   7.678  16.450  1.00  0.00    -0.052 N 
ATOM     12  HN1 UNL     1      23.311   7.539  15.559  1.00  0.00     0.278 HD
ATOM     13  HN2 UNL     1      24.747   7.541  16.129  1.00  0.00     0.278 HD
HETATM   14  N   UNL     1      24.145   4.914  18.940  1.00  0.00    -0.336 N 
ATOM     15  HN  UNL     1      24.388   3.925  19.003  1.00  0.00     0.168 HD
HETATM   16  C   UNL     1      21.019   8.805  17.562  1.00  0.00     0.071 C 
ENDROOT
BRANCH   6  17
HETATM   17  O   UNL     1      22.032  10.848  17.013  1.00  0.00    -0.364 OA
ATOM     18  HO  UNL     1      22.862  11.221  16.741  1.00  0.00     0.213 HD
ENDBRANCH   6  17
BRANCH   6  19
HETATM   19  O   UNL     1      21.808   9.315  15.369  1.00  0.00    -0.364 OA
ATOM     20  HO  UNL     1      22.259   8.531  15.080  1.00  0.00     0.213 HD
ENDBRANCH   6  19
TORSDOF 2
ENDMDL
MODEL 5
REMARK VINA RESULT:      -5.7      2.367      3.770
REMARK  2 active torsions:
REMARK  status: ('A' for Active; 'I' for Inactive)
REMARK    1  A    between atoms: O_1  and  C_10 
REMARK    2  A    between atoms: O_4  and  C_10 
ROOT
HETATM    1  C   UNL     1      23.321   8.292  18.584  1.00  0.00     0.290 C 
HETATM    2  C   UNL     1      21.924   8.462  19.171  1.00  0.00     0.018 C 
HETATM    3  C   UNL     1      23.454   8.722  17.146  1.00  0.00     0.253 C 
HETATM    4  C   UNL     1      21.584  10.225  17.455  1.00  0.00     0.088 C 
HETATM    5  C   UNL     1      22.142   9.003  20.583  1.00  0.00     0.022 C 
HETATM    6  C   UNL     1      22.736   6.577  21.181  1.00  0.00     0.188 C 
HETATM    7  C   UNL     1      21.036   9.402  18.377  1.00  0.00     0.003 C 
HETATM    8  O   UNL     1      24.051   8.056  16.318  1.00  0.00    -0.271 OA
HETATM    9  C   UNL     1      21.331   7.050  19.228  1.00  0.00     0.055 C 
HETATM   10  C   UNL     1      22.572   6.258  19.662  1.00  0.00     0.249 C 
HETATM   11  N   UNL     1      23.668   6.894  18.905  1.00  0.00    -0.052 N 
ATOM     12  HN1 UNL     1      24.561   6.825  19.395  1.00  0.00     0.278 HD
ATOM     13  HN2 UNL     1      23.914   6.361  18.071  1.00  0.00     0.278 HD
HETATM   14  N   UNL     1      22.789   9.879  16.836  1.00  0.00    -0.336 N 
ATOM     15  HN  UNL     1      23.184  10.506  16.133  1.00  0.00     0.168 HD
HETATM   16  C   UNL     1      22.447   7.986  21.643  1.00  0.00     0.071 C 
ENDROOT
BRANCH   6  17
HETATM   17  O   UNL     1      21.839   5.731  21.864  1.00  0.00    -0.364 OA
ATOM     18  HO  UNL     1      21.648   6.150  22.695  1.00  0.00     0.213 HD
ENDBRANCH   6  17
BRANCH   6  19
HETATM   19  O   UNL     1      24.030   6.202  21.581  1.00  0.00    -0.364 OA
ATOM     20  HO  UNL     1      24.593   6.310  20.823  1.00  0.00     0.213 HD
ENDBRANCH   6  19
TORSDOF 2
ENDMDL
MODEL 6
REMARK VINA RESULT:      -5.7      2.223      2.864
REMARK  2 active torsions:
REMARK  status: ('A' for Active; 'I' for Inactive)
REMARK    1  A    between atoms: O_1  and  C_10 
REMARK    2  A    between atoms: O_4  and  C_10 
ROOT
HETATM    1  C   UNL     1      22.740   6.744  18.952  1.00  0.00     0.290 C 
HETATM    2  C   UNL     1      22.826   8.250  18.732  1.00  0.00     0.018 C 
HETATM    3  C   UNL     1      22.799   6.317  20.396  1.00  0.00     0.253 C 
HETATM    4  C   UNL     1      21.941   8.484  21.041  1.00  0.00     0.088 C 
HETATM    5  C   UNL     1      21.801   8.558  17.640  1.00  0.00     0.022 C 
HETATM    6  C   UNL     1      23.572   7.629  16.028  1.00  0.00     0.188 C 
HETATM    7  C   UNL     1      22.533   9.069  19.975  1.00  0.00     0.003 C 
HETATM    8  O   UNL     1      23.485   5.381  20.771  1.00  0.00    -0.271 OA
HETATM    9  C   UNL     1      24.246   8.507  18.216  1.00  0.00     0.055 C 
HETATM   10  C   UNL     1      24.417   7.291  17.295  1.00  0.00     0.249 C 
HETATM   11  N   UNL     1      23.766   6.197  18.043  1.00  0.00    -0.052 N 
ATOM     12  HN1 UNL     1      23.385   5.484  17.422  1.00  0.00     0.278 HD
ATOM     13  HN2 UNL     1      24.443   5.618  18.538  1.00  0.00     0.278 HD
HETATM   14  N   UNL     1      22.082   7.109  21.253  1.00  0.00    -0.336 N 
ATOM     15  HN  UNL     1      21.639   6.685  22.068  1.00  0.00     0.168 HD
HETATM   16  C   UNL     1      22.254   8.341  16.227  1.00  0.00     0.071 C 
ENDROOT
BRANCH   6  17
HETATM   17  O   UNL     1      24.373   8.470  15.228  1.00  0.00    -0.364 OA
ATOM     18  HO  UNL     1      25.277   8.262  15.433  1.00  0.00     0.213 HD
ENDBRANCH   6  17
BRANCH   6  19
HETATM   19  O   UNL     1      23.368   6.448  15.296  1.00  0.00    -0.364 OA
ATOM     20  HO  UNL     1      23.468   6.673  14.378  1.00  0.00     0.213 HD
ENDBRANCH   6  19
TORSDOF 2
ENDMDL
MODEL 7
REMARK VINA RESULT:      -5.5      2.273      2.828
REMARK  2 active torsions:
REMARK  status: ('A' for Active; 'I' for Inactive)
REMARK    1  A    between atoms: O_1  and  C_10 
REMARK    2  A    between atoms: O_4  and  C_10 
ROOT
HETATM    1  C   UNL     1      21.638   7.980  17.944  1.00  0.00     0.290 C 
HETATM    2  C   UNL     1      23.160   7.879  17.965  1.00  0.00     0.018 C 
HETATM    3  C   UNL     1      21.096   9.099  17.092  1.00  0.00     0.253 C 
HETATM    4  C   UNL     1      23.114   9.023  15.761  1.00  0.00     0.088 C 
HETATM    5  C   UNL     1      23.466   6.384  17.882  1.00  0.00     0.022 C 
HETATM    6  C   UNL     1      22.842   6.345  20.374  1.00  0.00     0.188 C 
HETATM    7  C   UNL     1      23.839   8.620  16.829  1.00  0.00     0.003 C 
HETATM    8  O   UNL     1      20.197   9.830  17.471  1.00  0.00    -0.271 OA
HETATM    9  C   UNL     1      23.586   8.434  19.328  1.00  0.00     0.055 C 
HETATM   10  C   UNL     1      22.474   7.853  20.211  1.00  0.00     0.249 C 
HETATM   11  N   UNL     1      21.266   7.977  19.371  1.00  0.00    -0.052 N 
ATOM     12  HN1 UNL     1      20.577   7.256  19.585  1.00  0.00     0.278 HD
ATOM     13  HN2 UNL     1      20.710   8.794  19.622  1.00  0.00     0.278 HD
HETATM   14  N   UNL     1      21.745   9.269  15.898  1.00  0.00    -0.336 N 
ATOM     15  HN  UNL     1      21.214   9.584  15.085  1.00  0.00     0.168 HD
HETATM   16  C   UNL     1      23.412   5.624  19.175  1.00  0.00     0.071 C 
ENDROOT
BRANCH   6  17
HETATM   17  O   UNL     1      23.816   6.281  21.390  1.00  0.00    -0.364 OA
ATOM     18  HO  UNL     1      23.386   5.926  22.159  1.00  0.00     0.213 HD
ENDBRANCH   6  17
BRANCH   6  19
HETATM   19  O   UNL     1      21.714   5.656  20.850  1.00  0.00    -0.364 OA
ATOM     20  HO  UNL     1      21.816   4.749  20.587  1.00  0.00     0.213 HD
ENDBRANCH   6  19
TORSDOF 2
ENDMDL
MODEL 8
REMARK VINA RESULT:      -5.4      1.844      4.499
REMARK  2 active torsions:
REMARK  status: ('A' for Active; 'I' for Inactive)
REMARK    1  A    between atoms: O_1  and  C_10 
REMARK    2  A    between atoms: O_4  and  C_10 
ROOT
HETATM    1  C   UNL     1      22.596   8.869  18.462  1.00  0.00     0.290 C 
HETATM    2  C   UNL     1      22.201   9.166  17.019  1.00  0.00     0.018 C 
HETATM    3  C   UNL     1      23.581   7.739  18.622  1.00  0.00     0.253 C 
HETATM    4  C   UNL     1      24.376   8.154  16.376  1.00  0.00     0.088 C 
HETATM    5  C   UNL     1      22.171  10.691  16.915  1.00  0.00     0.022 C 
HETATM    6  C   UNL     1      19.908  10.505  18.116  1.00  0.00     0.188 C 
HETATM    7  C   UNL     1      23.154   8.587  15.991  1.00  0.00     0.003 C 
HETATM    8  O   UNL     1      23.451   6.876  19.474  1.00  0.00    -0.271 OA
HETATM    9  C   UNL     1      20.789   8.594  16.858  1.00  0.00     0.055 C 
HETATM   10  C   UNL     1      20.191   8.974  18.219  1.00  0.00     0.249 C 
HETATM   11  N   UNL     1      21.303   8.741  19.161  1.00  0.00    -0.052 N 
ATOM     12  HN1 UNL     1      21.248   9.353  19.975  1.00  0.00     0.278 HD
ATOM     13  HN2 UNL     1      21.216   7.846  19.641  1.00  0.00     0.278 HD
HETATM   14  N   UNL     1      24.584   7.724  17.690  1.00  0.00    -0.336 N 
ATOM     15  HN  UNL     1      25.509   7.389  17.961  1.00  0.00     0.168 HD
HETATM   16  C   UNL     1      20.913  11.362  17.383  1.00  0.00     0.071 C 
ENDROOT
BRANCH   6  17
HETATM   17  O   UNL     1      18.682  10.638  17.432  1.00  0.00    -0.364 OA
ATOM     18  HO  UNL     1      18.887  10.647  16.504  1.00  0.00     0.213 HD
ENDBRANCH   6  17
BRANCH   6  19
HETATM   19  O   UNL     1      19.706  11.012  19.410  1.00  0.00    -0.364 OA
ATOM     20  HO  UNL     1      20.075  10.378  20.014  1.00  0.00     0.213 HD
ENDBRANCH   6  19
TORSDOF 2
ENDMDL
MODEL 9
REMARK VINA RESULT:      -5.1      2.487      3.972
REMARK  2 active torsions:
REMARK  status: ('A' for Active; 'I' for Inactive)
REMARK    1  A    between atoms: O_1  and  C_10 
REMARK    2  A    between atoms: O_4  and  C_10 
ROOT
HETATM    1  C   UNL     1      22.656   6.607  19.351  1.00  0.00     0.290 C 
HETATM    2  C   UNL     1      22.268   7.998  19.841  1.00  0.00     0.018 C 
HETATM    3  C   UNL     1      23.182   5.688  20.423  1.00  0.00     0.253 C 
HETATM    4  C   UNL     1      21.946   6.954  22.072  1.00  0.00     0.088 C 
HETATM    5  C   UNL     1      20.963   8.332  19.117  1.00  0.00     0.022 C 
HETATM    6  C   UNL     1      22.471   8.823  17.097  1.00  0.00     0.188 C 
HETATM    7  C   UNL     1      22.074   8.086  21.343  1.00  0.00     0.003 C 
HETATM    8  O   UNL     1      24.169   4.991  20.259  1.00  0.00    -0.271 OA
HETATM    9  C   UNL     1      23.391   8.926  19.367  1.00  0.00     0.055 C 
HETATM   10  C   UNL     1      23.660   8.330  17.979  1.00  0.00     0.249 C 
HETATM   11  N   UNL     1      23.539   6.875  18.199  1.00  0.00    -0.052 N 
ATOM     12  HN1 UNL     1      23.229   6.387  17.359  1.00  0.00     0.278 HD
ATOM     13  HN2 UNL     1      24.449   6.428  18.304  1.00  0.00     0.278 HD
HETATM   14  N   UNL     1      22.507   5.759  21.613  1.00  0.00    -0.336 N 
ATOM     15  HN  UNL     1      22.411   4.916  22.180  1.00  0.00     0.168 HD
HETATM   16  C   UNL     1      21.098   8.876  17.726  1.00  0.00     0.071 C 
ENDROOT
BRANCH   6  17
HETATM   17  O   UNL     1      22.789  10.138  16.701  1.00  0.00    -0.364 OA
ATOM     18  HO  UNL     1      22.398  10.720  17.342  1.00  0.00     0.213 HD
ENDBRANCH   6  17
BRANCH   6  19
HETATM   19  O   UNL     1      22.428   8.047  15.927  1.00  0.00    -0.364 OA
ATOM     20  HO  UNL     1      22.945   8.506  15.275  1.00  0.00     0.213 HD
ENDBRANCH   6  19
TORSDOF 2
ENDMDL
