MODEL 1
REMARK VINA RESULT:      -8.9      0.000      0.000
REMARK  6 active torsions:
REMARK  status: ('A' for Active; 'I' for Inactive)
REMARK    1  A    between atoms: C_6  and  C_21 
REMARK    2  A    between atoms: O_7  and  C_17 
REMARK    3  A    between atoms: C_15  and  C_22 
REMARK    4  A    between atoms: C_18  and  C_24 
REMARK    5  A    between atoms: C_22  and  C_25 
REMARK    6  A    between atoms: C_24  and  C_25 
ROOT
HETATM    1  C   UNL     1      18.631  26.483 -19.076  1.00  0.00    -0.051 C 
HETATM    2  C   UNL     1      17.480  26.152 -17.015  1.00  0.00    -0.015 C 
HETATM    3  C   UNL     1      19.708  27.110 -17.031  1.00  0.00     0.020 C 
HETATM    4  C   UNL     1      19.058  26.095 -20.457  1.00  0.00     0.039 C 
HETATM    5  C   UNL     1      17.440  26.207 -18.420  1.00  0.00     0.021 C 
HETATM    6  C   UNL     1      18.628  26.569 -16.335  1.00  0.00    -0.017 C 
HETATM    7  C   UNL     1      19.674  27.095 -18.413  1.00  0.00    -0.051 C 
HETATM    8  C   UNL     1      20.788  27.480 -19.328  1.00  0.00     0.039 C 
HETATM    9  C   UNL     1      20.436  26.729 -20.620  1.00  0.00     0.009 C 
ENDROOT
BRANCH   2  10
HETATM   10  C   UNL     1      16.391  25.623 -16.235  1.00  0.00    -0.025 C 
HETATM   11  C   UNL     1      15.367  26.492 -15.866  1.00  0.00     0.012 C 
HETATM   12  C   UNL     1      14.564  26.421 -14.745  1.00  0.00     0.004 C 
HETATM   13  C   UNL     1      14.375  25.332 -13.938  1.00  0.00     0.036 C 
HETATM   14  C   UNL     1      14.498  24.013 -14.358  1.00  0.00     0.065 C 
HETATM   15  C   UNL     1      15.477  23.547 -15.212  1.00  0.00     0.037 C 
HETATM   16  C   UNL     1      16.406  24.266 -15.926  1.00  0.00     0.015 C 
BRANCH  14  17
HETATM   17  O   UNL     1      13.614  23.111 -13.828  1.00  0.00    -0.361 OA
ATOM     18  HO  UNL     1      13.437  23.181 -12.897  1.00  0.00     0.217 HD
ENDBRANCH  14  17
ENDBRANCH   2  10
BRANCH   6  19
HETATM   19  C   UNL     1      18.744  26.276 -14.965  1.00  0.00     0.068 C 
BRANCH  19  20
HETATM   20  C   UNL     1      18.449  26.959 -13.895  1.00  0.00    -0.127 C 
BRANCH  20  21
HETATM   21  C   UNL     1      17.946  27.799 -12.999  1.00  0.00     0.067 C 
BRANCH  21  22
HETATM   22  C   UNL     1      16.918  28.738 -13.397  1.00  0.00    -0.029 C 
HETATM   23  C   UNL     1      15.738  28.857 -12.669  1.00  0.00     0.012 C 
HETATM   24  C   UNL     1      14.738  29.729 -13.094  1.00  0.00     0.001 C 
HETATM   25  C   UNL     1      14.903  30.424 -14.288  1.00  0.00     0.000 C 
HETATM   26  C   UNL     1      16.103  30.329 -15.004  1.00  0.00     0.001 C 
HETATM   27  C   UNL     1      17.174  29.628 -14.449  1.00  0.00     0.012 C 
ENDBRANCH  21  22
ENDBRANCH  20  21
ENDBRANCH  19  20
ENDBRANCH   6  19
TORSDOF 6
ENDMDL
MODEL 2
REMARK VINA RESULT:      -8.8      1.277      5.772
REMARK  6 active torsions:
REMARK  status: ('A' for Active; 'I' for Inactive)
REMARK    1  A    between atoms: C_6  and  C_21 
REMARK    2  A    between atoms: O_7  and  C_17 
REMARK    3  A    between atoms: C_15  and  C_22 
REMARK    4  A    between atoms: C_18  and  C_24 
REMARK    5  A    between atoms: C_22  and  C_25 
REMARK    6  A    between atoms: C_24  and  C_25 
ROOT
HETATM    1  C   UNL     1      16.107  28.741 -13.565  1.00  0.00    -0.051 C 
HETATM    2  C   UNL     1      16.396  26.454 -14.172  1.00  0.00    -0.015 C 
HETATM    3  C   UNL     1      17.839  28.161 -15.114  1.00  0.00     0.020 C 
HETATM    4  C   UNL     1      15.295  29.957 -13.246  1.00  0.00     0.039 C 
HETATM    5  C   UNL     1      15.820  27.407 -13.314  1.00  0.00     0.021 C 
HETATM    6  C   UNL     1      17.375  26.846 -15.091  1.00  0.00    -0.017 C 
HETATM    7  C   UNL     1      17.214  29.094 -14.308  1.00  0.00    -0.051 C 
HETATM    8  C   UNL     1      17.460  30.566 -14.306  1.00  0.00     0.039 C 
HETATM    9  C   UNL     1      16.156  31.124 -13.720  1.00  0.00     0.009 C 
ENDROOT
BRANCH   2  10
HETATM   10  C   UNL     1      15.976  25.076 -14.184  1.00  0.00    -0.025 C 
HETATM   11  C   UNL     1      16.881  24.112 -13.749  1.00  0.00     0.012 C 
HETATM   12  C   UNL     1      16.965  22.793 -14.148  1.00  0.00     0.004 C 
HETATM   13  C   UNL     1      16.001  22.068 -14.796  1.00  0.00     0.036 C 
HETATM   14  C   UNL     1      14.637  22.312 -14.698  1.00  0.00     0.065 C 
HETATM   15  C   UNL     1      14.061  23.567 -14.677  1.00  0.00     0.037 C 
HETATM   16  C   UNL     1      14.678  24.792 -14.597  1.00  0.00     0.015 C 
BRANCH  14  17
HETATM   17  O   UNL     1      13.813  21.218 -14.682  1.00  0.00    -0.361 OA
ATOM     18  HO  UNL     1      12.885  21.379 -14.806  1.00  0.00     0.217 HD
ENDBRANCH  14  17
ENDBRANCH   2  10
BRANCH   6  19
HETATM   19  C   UNL     1      17.754  25.943 -16.098  1.00  0.00     0.068 C 
BRANCH  19  20
HETATM   20  C   UNL     1      17.772  26.037 -17.398  1.00  0.00    -0.127 C 
BRANCH  20  21
HETATM   21  C   UNL     1      17.750  26.441 -18.662  1.00  0.00     0.067 C 
BRANCH  21  22
HETATM   22  C   UNL     1      18.996  26.598 -19.385  1.00  0.00    -0.029 C 
HETATM   23  C   UNL     1      20.023  27.386 -18.875  1.00  0.00     0.012 C 
HETATM   24  C   UNL     1      21.195  27.567 -19.606  1.00  0.00     0.001 C 
HETATM   25  C   UNL     1      21.299  27.009 -20.876  1.00  0.00     0.000 C 
HETATM   26  C   UNL     1      20.278  26.189 -21.376  1.00  0.00     0.001 C 
HETATM   27  C   UNL     1      19.216  25.840 -20.543  1.00  0.00     0.012 C 
ENDBRANCH  21  22
ENDBRANCH  20  21
ENDBRANCH  19  20
ENDBRANCH   6  19
TORSDOF 6
ENDMDL
MODEL 3
REMARK VINA RESULT:      -8.8      2.111      6.192
REMARK  6 active torsions:
REMARK  status: ('A' for Active; 'I' for Inactive)
REMARK    1  A    between atoms: C_6  and  C_21 
REMARK    2  A    between atoms: O_7  and  C_17 
REMARK    3  A    between atoms: C_15  and  C_22 
REMARK    4  A    between atoms: C_18  and  C_24 
REMARK    5  A    between atoms: C_22  and  C_25 
REMARK    6  A    between atoms: C_24  and  C_25 
ROOT
HETATM    1  C   UNL     1      14.117  24.078 -14.755  1.00  0.00    -0.051 C 
HETATM    2  C   UNL     1      15.535  25.994 -14.787  1.00  0.00    -0.015 C 
HETATM    3  C   UNL     1      16.422  23.806 -15.343  1.00  0.00     0.020 C 
HETATM    4  C   UNL     1      13.028  23.219 -14.193  1.00  0.00     0.039 C 
HETATM    5  C   UNL     1      14.235  25.461 -14.739  1.00  0.00     0.021 C 
HETATM    6  C   UNL     1      16.622  25.155 -15.052  1.00  0.00    -0.017 C 
HETATM    7  C   UNL     1      15.145  23.290 -15.227  1.00  0.00    -0.051 C 
HETATM    8  C   UNL     1      14.759  21.853 -15.343  1.00  0.00     0.039 C 
HETATM    9  C   UNL     1      13.436  21.797 -14.566  1.00  0.00     0.009 C 
ENDROOT
BRANCH   2  10
HETATM   10  C   UNL     1      15.808  27.382 -14.516  1.00  0.00    -0.025 C 
HETATM   11  C   UNL     1      15.901  27.782 -13.185  1.00  0.00     0.012 C 
HETATM   12  C   UNL     1      15.608  29.024 -12.657  1.00  0.00     0.004 C 
HETATM   13  C   UNL     1      15.481  30.200 -13.345  1.00  0.00     0.036 C 
HETATM   14  C   UNL     1      16.120  30.480 -14.547  1.00  0.00     0.065 C 
HETATM   15  C   UNL     1      16.279  29.580 -15.581  1.00  0.00     0.037 C 
HETATM   16  C   UNL     1      15.998  28.235 -15.598  1.00  0.00     0.015 C 
BRANCH  14  17
HETATM   17  O   UNL     1      16.563  31.763 -14.727  1.00  0.00    -0.361 OA
ATOM     18  HO  UNL     1      17.300  32.040 -14.194  1.00  0.00     0.217 HD
ENDBRANCH  14  17
ENDBRANCH   2  10
BRANCH   6  19
HETATM   19  C   UNL     1      17.921  25.651 -14.850  1.00  0.00     0.068 C 
BRANCH  19  20
HETATM   20  C   UNL     1      18.803  26.156 -15.666  1.00  0.00    -0.127 C 
BRANCH  20  21
HETATM   21  C   UNL     1      19.699  26.911 -16.291  1.00  0.00     0.067 C 
BRANCH  21  22
HETATM   22  C   UNL     1      19.695  26.976 -17.737  1.00  0.00    -0.029 C 
HETATM   23  C   UNL     1      18.643  26.439 -18.474  1.00  0.00     0.012 C 
HETATM   24  C   UNL     1      18.679  26.465 -19.867  1.00  0.00     0.001 C 
HETATM   25  C   UNL     1      19.805  26.969 -20.510  1.00  0.00     0.000 C 
HETATM   26  C   UNL     1      20.849  27.538 -19.769  1.00  0.00     0.001 C 
HETATM   27  C   UNL     1      20.697  27.705 -18.394  1.00  0.00     0.012 C 
ENDBRANCH  21  22
ENDBRANCH  20  21
ENDBRANCH  19  20
ENDBRANCH   6  19
TORSDOF 6
ENDMDL
MODEL 4
REMARK VINA RESULT:      -8.8      1.757      4.719
REMARK  6 active torsions:
REMARK  status: ('A' for Active; 'I' for Inactive)
REMARK    1  A    between atoms: C_6  and  C_21 
REMARK    2  A    between atoms: O_7  and  C_17 
REMARK    3  A    between atoms: C_15  and  C_22 
REMARK    4  A    between atoms: C_18  and  C_24 
REMARK    5  A    between atoms: C_22  and  C_25 
REMARK    6  A    between atoms: C_24  and  C_25 
ROOT
HETATM    1  C   UNL     1      20.163  27.263 -18.290  1.00  0.00    -0.051 C 
HETATM    2  C   UNL     1      18.383  27.013 -16.725  1.00  0.00    -0.015 C 
HETATM    3  C   UNL     1      18.200  26.058 -18.948  1.00  0.00     0.020 C 
HETATM    4  C   UNL     1      21.255  28.022 -18.977  1.00  0.00     0.039 C 
HETATM    5  C   UNL     1      19.721  27.362 -16.979  1.00  0.00     0.021 C 
HETATM    6  C   UNL     1      17.623  26.397 -17.724  1.00  0.00    -0.017 C 
HETATM    7  C   UNL     1      19.496  26.468 -19.199  1.00  0.00    -0.051 C 
HETATM    8  C   UNL     1      20.228  26.340 -20.493  1.00  0.00     0.039 C 
HETATM    9  C   UNL     1      21.298  27.435 -20.385  1.00  0.00     0.009 C 
ENDROOT
BRANCH   2  10
HETATM   10  C   UNL     1      17.732  27.316 -15.476  1.00  0.00    -0.025 C 
HETATM   11  C   UNL     1      17.950  26.460 -14.400  1.00  0.00     0.012 C 
HETATM   12  C   UNL     1      17.094  26.193 -13.350  1.00  0.00     0.004 C 
HETATM   13  C   UNL     1      16.010  26.934 -12.965  1.00  0.00     0.036 C 
HETATM   14  C   UNL     1      15.878  28.301 -13.177  1.00  0.00     0.065 C 
HETATM   15  C   UNL     1      16.257  28.959 -14.330  1.00  0.00     0.037 C 
HETATM   16  C   UNL     1      16.953  28.468 -15.407  1.00  0.00     0.015 C 
BRANCH  14  17
HETATM   17  O   UNL     1      15.271  29.024 -12.185  1.00  0.00    -0.361 OA
ATOM     18  HO  UNL     1      14.361  29.262 -12.324  1.00  0.00     0.217 HD
ENDBRANCH  14  17
ENDBRANCH   2  10
BRANCH   6  19
HETATM   19  C   UNL     1      16.234  26.284 -17.542  1.00  0.00     0.068 C 
BRANCH  19  20
HETATM   20  C   UNL     1      15.512  25.564 -16.730  1.00  0.00    -0.127 C 
BRANCH  20  21
HETATM   21  C   UNL     1      14.597  25.090 -15.893  1.00  0.00     0.067 C 
BRANCH  21  22
HETATM   22  C   UNL     1      14.846  23.849 -15.190  1.00  0.00    -0.029 C 
HETATM   23  C   UNL     1      16.118  23.283 -15.167  1.00  0.00     0.012 C 
HETATM   24  C   UNL     1      16.329  22.063 -14.528  1.00  0.00     0.001 C 
HETATM   25  C   UNL     1      15.246  21.386 -13.977  1.00  0.00     0.000 C 
HETATM   26  C   UNL     1      13.973  21.969 -13.973  1.00  0.00     0.001 C 
HETATM   27  C   UNL     1      13.823  23.283 -14.416  1.00  0.00     0.012 C 
ENDBRANCH  21  22
ENDBRANCH  20  21
ENDBRANCH  19  20
ENDBRANCH   6  19
TORSDOF 6
ENDMDL
MODEL 5
REMARK VINA RESULT:      -7.8      1.605      3.913
REMARK  6 active torsions:
REMARK  status: ('A' for Active; 'I' for Inactive)
REMARK    1  A    between atoms: C_6  and  C_21 
REMARK    2  A    between atoms: O_7  and  C_17 
REMARK    3  A    between atoms: C_15  and  C_22 
REMARK    4  A    between atoms: C_18  and  C_24 
REMARK    5  A    between atoms: C_22  and  C_25 
REMARK    6  A    between atoms: C_24  and  C_25 
ROOT
HETATM    1  C   UNL     1      20.487  27.370 -18.594  1.00  0.00    -0.051 C 
HETATM    2  C   UNL     1      18.688  27.062 -17.060  1.00  0.00    -0.015 C 
HETATM    3  C   UNL     1      18.544  26.167 -19.310  1.00  0.00     0.020 C 
HETATM    4  C   UNL     1      21.581  28.156 -19.245  1.00  0.00     0.039 C 
HETATM    5  C   UNL     1      20.027  27.429 -17.286  1.00  0.00     0.021 C 
HETATM    6  C   UNL     1      17.947  26.467 -18.086  1.00  0.00    -0.017 C 
HETATM    7  C   UNL     1      19.839  26.594 -19.533  1.00  0.00    -0.051 C 
HETATM    8  C   UNL     1      20.588  26.507 -20.820  1.00  0.00     0.039 C 
HETATM    9  C   UNL     1      21.647  27.608 -20.668  1.00  0.00     0.009 C 
ENDROOT
BRANCH   2  10
HETATM   10  C   UNL     1      18.019  27.327 -15.812  1.00  0.00    -0.025 C 
HETATM   11  C   UNL     1      17.219  28.463 -15.727  1.00  0.00     0.012 C 
HETATM   12  C   UNL     1      16.942  29.216 -14.602  1.00  0.00     0.004 C 
HETATM   13  C   UNL     1      17.116  28.839 -13.298  1.00  0.00     0.036 C 
HETATM   14  C   UNL     1      17.080  27.524 -12.850  1.00  0.00     0.065 C 
HETATM   15  C   UNL     1      17.635  26.450 -13.516  1.00  0.00     0.037 C 
HETATM   16  C   UNL     1      18.181  26.412 -14.776  1.00  0.00     0.015 C 
BRANCH  14  17
HETATM   17  O   UNL     1      16.502  27.303 -11.628  1.00  0.00    -0.361 OA
ATOM     18  HO  UNL     1      16.921  26.663 -11.065  1.00  0.00     0.217 HD
ENDBRANCH  14  17
ENDBRANCH   2  10
BRANCH   6  19
HETATM   19  C   UNL     1      16.557  26.339 -17.924  1.00  0.00     0.068 C 
BRANCH  19  20
HETATM   20  C   UNL     1      15.829  25.516 -17.223  1.00  0.00    -0.127 C 
BRANCH  20  21
HETATM   21  C   UNL     1      15.357  24.634 -16.350  1.00  0.00     0.067 C 
BRANCH  21  22
HETATM   22  C   UNL     1      14.404  25.060 -15.347  1.00  0.00    -0.029 C 
HETATM   23  C   UNL     1      14.444  26.350 -14.826  1.00  0.00     0.012 C 
HETATM   24  C   UNL     1      13.551  26.729 -13.825  1.00  0.00     0.001 C 
HETATM   25  C   UNL     1      12.671  25.786 -13.306  1.00  0.00     0.000 C 
HETATM   26  C   UNL     1      12.609  24.497 -13.852  1.00  0.00     0.001 C 
HETATM   27  C   UNL     1      13.350  24.205 -14.996  1.00  0.00     0.012 C 
ENDBRANCH  21  22
ENDBRANCH  20  21
ENDBRANCH  19  20
ENDBRANCH   6  19
TORSDOF 6
ENDMDL
MODEL 6
REMARK VINA RESULT:      -7.2      2.410      6.402
REMARK  6 active torsions:
REMARK  status: ('A' for Active; 'I' for Inactive)
REMARK    1  A    between atoms: C_6  and  C_21 
REMARK    2  A    between atoms: O_7  and  C_17 
REMARK    3  A    between atoms: C_15  and  C_22 
REMARK    4  A    between atoms: C_18  and  C_24 
REMARK    5  A    between atoms: C_22  and  C_25 
REMARK    6  A    between atoms: C_24  and  C_25 
ROOT
HETATM    1  C   UNL     1      15.914  29.023 -15.177  1.00  0.00    -0.051 C 
HETATM    2  C   UNL     1      17.206  27.363 -16.299  1.00  0.00    -0.015 C 
HETATM    3  C   UNL     1      16.064  26.830 -14.226  1.00  0.00     0.020 C 
HETATM    4  C   UNL     1      15.641  30.408 -14.680  1.00  0.00     0.039 C 
HETATM    5  C   UNL     1      16.579  28.621 -16.327  1.00  0.00     0.021 C 
HETATM    6  C   UNL     1      16.971  26.492 -15.230  1.00  0.00    -0.017 C 
HETATM    7  C   UNL     1      15.510  28.096 -14.239  1.00  0.00    -0.051 C 
HETATM    8  C   UNL     1      14.648  28.694 -13.178  1.00  0.00     0.039 C 
HETATM    9  C   UNL     1      14.834  30.201 -13.403  1.00  0.00     0.009 C 
ENDROOT
BRANCH   2  10
HETATM   10  C   UNL     1      18.138  26.945 -17.315  1.00  0.00    -0.025 C 
HETATM   11  C   UNL     1      19.497  27.123 -17.068  1.00  0.00     0.012 C 
HETATM   12  C   UNL     1      20.500  27.333 -17.994  1.00  0.00     0.004 C 
HETATM   13  C   UNL     1      20.440  27.092 -19.339  1.00  0.00     0.036 C 
HETATM   14  C   UNL     1      19.622  26.137 -19.930  1.00  0.00     0.065 C 
HETATM   15  C   UNL     1      18.321  25.873 -19.552  1.00  0.00     0.037 C 
HETATM   16  C   UNL     1      17.628  26.355 -18.467  1.00  0.00     0.015 C 
BRANCH  14  17
HETATM   17  O   UNL     1      20.137  25.460 -21.004  1.00  0.00    -0.361 OA
ATOM     18  HO  UNL     1      20.457  24.580 -20.842  1.00  0.00     0.217 HD
ENDBRANCH  14  17
ENDBRANCH   2  10
BRANCH   6  19
HETATM   19  C   UNL     1      17.788  25.357 -15.094  1.00  0.00     0.068 C 
BRANCH  19  20
HETATM   20  C   UNL     1      17.521  24.115 -14.803  1.00  0.00    -0.127 C 
BRANCH  20  21
HETATM   21  C   UNL     1      17.013  22.892 -14.713  1.00  0.00     0.067 C 
BRANCH  21  22
HETATM   22  C   UNL     1      15.585  22.721 -14.549  1.00  0.00    -0.029 C 
HETATM   23  C   UNL     1      14.693  23.695 -14.989  1.00  0.00     0.012 C 
HETATM   24  C   UNL     1      13.325  23.538 -14.778  1.00  0.00     0.001 C 
HETATM   25  C   UNL     1      12.867  22.436 -14.064  1.00  0.00     0.000 C 
HETATM   26  C   UNL     1      13.761  21.440 -13.649  1.00  0.00     0.001 C 
HETATM   27  C   UNL     1      15.091  21.503 -14.061  1.00  0.00     0.012 C 
ENDBRANCH  21  22
ENDBRANCH  20  21
ENDBRANCH  19  20
ENDBRANCH   6  19
TORSDOF 6
ENDMDL
MODEL 7
REMARK VINA RESULT:      -6.9      1.706      3.093
REMARK  6 active torsions:
REMARK  status: ('A' for Active; 'I' for Inactive)
REMARK    1  A    between atoms: C_6  and  C_21 
REMARK    2  A    between atoms: O_7  and  C_17 
REMARK    3  A    between atoms: C_15  and  C_22 
REMARK    4  A    between atoms: C_18  and  C_24 
REMARK    5  A    between atoms: C_22  and  C_25 
REMARK    6  A    between atoms: C_24  and  C_25 
ROOT
HETATM    1  C   UNL     1      19.974  27.099 -18.258  1.00  0.00    -0.051 C 
HETATM    2  C   UNL     1      18.454  26.469 -16.533  1.00  0.00    -0.015 C 
HETATM    3  C   UNL     1      17.826  26.231 -18.864  1.00  0.00     0.020 C 
HETATM    4  C   UNL     1      21.008  27.981 -18.885  1.00  0.00     0.039 C 
HETATM    5  C   UNL     1      19.761  26.820 -16.916  1.00  0.00     0.021 C 
HETATM    6  C   UNL     1      17.488  26.213 -17.512  1.00  0.00    -0.017 C 
HETATM    7  C   UNL     1      19.098  26.642 -19.219  1.00  0.00    -0.051 C 
HETATM    8  C   UNL     1      19.595  26.875 -20.607  1.00  0.00     0.039 C 
HETATM    9  C   UNL     1      20.767  27.841 -20.385  1.00  0.00     0.009 C 
ENDROOT
BRANCH   2  10
HETATM   10  C   UNL     1      18.045  26.413 -15.154  1.00  0.00    -0.025 C 
HETATM   11  C   UNL     1      17.506  25.220 -14.679  1.00  0.00     0.012 C 
HETATM   12  C   UNL     1      16.584  25.057 -13.663  1.00  0.00     0.004 C 
HETATM   13  C   UNL     1      16.250  25.973 -12.703  1.00  0.00     0.036 C 
HETATM   14  C   UNL     1      17.100  26.970 -12.239  1.00  0.00     0.065 C 
HETATM   15  C   UNL     1      17.949  27.713 -13.035  1.00  0.00     0.037 C 
HETATM   16  C   UNL     1      18.246  27.542 -14.365  1.00  0.00     0.015 C 
BRANCH  14  17
HETATM   17  O   UNL     1      17.035  27.266 -10.904  1.00  0.00    -0.361 OA
ATOM     18  HO  UNL     1      16.234  27.028 -10.451  1.00  0.00     0.217 HD
ENDBRANCH  14  17
ENDBRANCH   2  10
BRANCH   6  19
HETATM   19  C   UNL     1      16.143  26.111 -17.119  1.00  0.00     0.068 C 
BRANCH  19  20
HETATM   20  C   UNL     1      15.350  26.929 -16.487  1.00  0.00    -0.127 C 
BRANCH  20  21
HETATM   21  C   UNL     1      14.642  27.603 -15.588  1.00  0.00     0.067 C 
BRANCH  21  22
HETATM   22  C   UNL     1      15.186  28.815 -15.013  1.00  0.00    -0.029 C 
HETATM   23  C   UNL     1      16.045  29.631 -15.745  1.00  0.00     0.012 C 
HETATM   24  C   UNL     1      16.599  30.767 -15.159  1.00  0.00     0.001 C 
HETATM   25  C   UNL     1      16.341  31.038 -13.819  1.00  0.00     0.000 C 
HETATM   26  C   UNL     1      15.451  30.236 -13.092  1.00  0.00     0.001 C 
HETATM   27  C   UNL     1      14.737  29.238 -13.754  1.00  0.00     0.012 C 
ENDBRANCH  21  22
ENDBRANCH  20  21
ENDBRANCH  19  20
ENDBRANCH   6  19
TORSDOF 6
ENDMDL
MODEL 8
REMARK VINA RESULT:      -6.6      2.961      7.639
REMARK  6 active torsions:
REMARK  status: ('A' for Active; 'I' for Inactive)
REMARK    1  A    between atoms: C_6  and  C_21 
REMARK    2  A    between atoms: O_7  and  C_17 
REMARK    3  A    between atoms: C_15  and  C_22 
REMARK    4  A    between atoms: C_18  and  C_24 
REMARK    5  A    between atoms: C_22  and  C_25 
REMARK    6  A    between atoms: C_24  and  C_25 
ROOT
HETATM    1  C   UNL     1      21.897  28.308 -19.613  1.00  0.00    -0.051 C 
HETATM    2  C   UNL     1      20.112  26.898 -18.896  1.00  0.00    -0.015 C 
HETATM    3  C   UNL     1      21.233  26.476 -21.006  1.00  0.00     0.020 C 
HETATM    4  C   UNL     1      22.577  29.627 -19.802  1.00  0.00     0.039 C 
HETATM    5  C   UNL     1      21.054  27.897 -18.590  1.00  0.00     0.021 C 
HETATM    6  C   UNL     1      20.189  26.222 -20.118  1.00  0.00    -0.017 C 
HETATM    7  C   UNL     1      22.109  27.505 -20.714  1.00  0.00    -0.051 C 
HETATM    8  C   UNL     1      23.186  28.027 -21.605  1.00  0.00     0.039 C 
HETATM    9  C   UNL     1      23.400  29.451 -21.074  1.00  0.00     0.009 C 
ENDROOT
BRANCH   2  10
HETATM   10  C   UNL     1      19.021  26.574 -18.015  1.00  0.00    -0.025 C 
HETATM   11  C   UNL     1      17.728  26.616 -18.530  1.00  0.00     0.012 C 
HETATM   12  C   UNL     1      16.558  26.892 -17.850  1.00  0.00     0.004 C 
HETATM   13  C   UNL     1      16.370  26.862 -16.495  1.00  0.00     0.036 C 
HETATM   14  C   UNL     1      17.098  26.067 -15.619  1.00  0.00     0.065 C 
HETATM   15  C   UNL     1      18.457  25.841 -15.705  1.00  0.00     0.037 C 
HETATM   16  C   UNL     1      19.324  26.201 -16.708  1.00  0.00     0.015 C 
BRANCH  14  17
HETATM   17  O   UNL     1      16.414  25.525 -14.563  1.00  0.00    -0.361 OA
ATOM     18  HO  UNL     1      15.918  26.126 -14.019  1.00  0.00     0.217 HD
ENDBRANCH  14  17
ENDBRANCH   2  10
BRANCH   6  19
HETATM   19  C   UNL     1      19.107  25.415 -20.509  1.00  0.00     0.068 C 
BRANCH  19  20
HETATM   20  C   UNL     1      18.855  24.759 -21.607  1.00  0.00    -0.127 C 
BRANCH  20  21
HETATM   21  C   UNL     1      18.590  24.380 -22.852  1.00  0.00     0.067 C 
BRANCH  21  22
HETATM   22  C   UNL     1      19.679  24.031 -23.740  1.00  0.00    -0.029 C 
HETATM   23  C   UNL     1      19.801  22.740 -24.248  1.00  0.00     0.012 C 
HETATM   24  C   UNL     1      20.882  22.408 -25.061  1.00  0.00     0.001 C 
HETATM   25  C   UNL     1      21.871  23.356 -25.302  1.00  0.00     0.000 C 
HETATM   26  C   UNL     1      21.732  24.663 -24.817  1.00  0.00     0.001 C 
HETATM   27  C   UNL     1      20.541  25.037 -24.197  1.00  0.00     0.012 C 
ENDBRANCH  21  22
ENDBRANCH  20  21
ENDBRANCH  19  20
ENDBRANCH   6  19
TORSDOF 6
ENDMDL
MODEL 9
REMARK VINA RESULT:      -6.3      2.340      6.851
REMARK  6 active torsions:
REMARK  status: ('A' for Active; 'I' for Inactive)
REMARK    1  A    between atoms: C_6  and  C_21 
REMARK    2  A    between atoms: O_7  and  C_17 
REMARK    3  A    between atoms: C_15  and  C_22 
REMARK    4  A    between atoms: C_18  and  C_24 
REMARK    5  A    between atoms: C_22  and  C_25 
REMARK    6  A    between atoms: C_24  and  C_25 
ROOT
HETATM    1  C   UNL     1      16.201  24.021 -14.416  1.00  0.00    -0.051 C 
HETATM    2  C   UNL     1      16.319  26.267 -15.208  1.00  0.00    -0.015 C 
HETATM    3  C   UNL     1      15.948  24.440 -16.761  1.00  0.00     0.020 C 
HETATM    4  C   UNL     1      16.626  22.873 -13.556  1.00  0.00     0.039 C 
HETATM    5  C   UNL     1      16.197  25.378 -14.125  1.00  0.00     0.021 C 
HETATM    6  C   UNL     1      16.230  25.784 -16.518  1.00  0.00    -0.017 C 
HETATM    7  C   UNL     1      15.897  23.574 -15.685  1.00  0.00    -0.051 C 
HETATM    8  C   UNL     1      15.764  22.089 -15.752  1.00  0.00     0.039 C 
HETATM    9  C   UNL     1      16.350  21.638 -14.407  1.00  0.00     0.009 C 
ENDROOT
BRANCH   2  10
HETATM   10  C   UNL     1      16.591  27.669 -15.025  1.00  0.00    -0.025 C 
HETATM   11  C   UNL     1      17.920  28.069 -14.913  1.00  0.00     0.012 C 
HETATM   12  C   UNL     1      18.417  29.157 -14.223  1.00  0.00     0.004 C 
HETATM   13  C   UNL     1      17.710  30.242 -13.781  1.00  0.00     0.036 C 
HETATM   14  C   UNL     1      16.544  30.714 -14.372  1.00  0.00     0.065 C 
HETATM   15  C   UNL     1      15.530  29.914 -14.860  1.00  0.00     0.037 C 
HETATM   16  C   UNL     1      15.511  28.548 -15.007  1.00  0.00     0.015 C 
BRANCH  14  17
HETATM   17  O   UNL     1      16.376  32.072 -14.410  1.00  0.00    -0.361 OA
ATOM     18  HO  UNL     1      15.557  32.413 -14.069  1.00  0.00     0.217 HD
ENDBRANCH  14  17
ENDBRANCH   2  10
BRANCH   6  19
HETATM   19  C   UNL     1      16.599  26.633 -17.575  1.00  0.00     0.068 C 
BRANCH  19  20
HETATM   20  C   UNL     1      17.645  26.661 -18.352  1.00  0.00    -0.127 C 
BRANCH  20  21
HETATM   21  C   UNL     1      18.867  26.689 -18.868  1.00  0.00     0.067 C 
BRANCH  21  22
HETATM   22  C   UNL     1      19.108  26.098 -20.169  1.00  0.00    -0.029 C 
HETATM   23  C   UNL     1      19.947  26.718 -21.090  1.00  0.00     0.012 C 
HETATM   24  C   UNL     1      20.128  26.162 -22.355  1.00  0.00     0.001 C 
HETATM   25  C   UNL     1      19.410  25.025 -22.709  1.00  0.00     0.000 C 
HETATM   26  C   UNL     1      18.591  24.384 -21.771  1.00  0.00     0.001 C 
HETATM   27  C   UNL     1      18.595  24.824 -20.448  1.00  0.00     0.012 C 
ENDBRANCH  21  22
ENDBRANCH  20  21
ENDBRANCH  19  20
ENDBRANCH   6  19
TORSDOF 6
ENDMDL
