MODEL 1
REMARK VINA RESULT:      -6.6      0.000      0.000
REMARK  1 active torsions:
REMARK  status: ('A' for Active; 'I' for Inactive)
REMARK    1  A    between atoms: C_9  and  O_12 
ROOT
HETATM    1  N   UNL     1     -18.286 120.966   4.412  1.00  0.00    -0.361 N 
ATOM      2  HN  UNL     1     -19.025 121.582   4.752  1.00  0.00     0.162 HD
HETATM    3  C   UNL     1     -16.879 116.981   3.983  1.00  0.00     0.037 C 
HETATM    4  C   UNL     1     -18.182 118.259   1.696  1.00  0.00     0.009 C 
HETATM    5  C   UNL     1     -17.228 120.617   5.241  1.00  0.00     0.217 C 
HETATM    6  O   UNL     1     -16.830 121.371   6.124  1.00  0.00    -0.274 OA
HETATM    7  C   UNL     1     -18.329 120.437   3.034  1.00  0.00     0.127 C 
HETATM    8  C   UNL     1     -16.752 119.166   5.185  1.00  0.00     0.108 C 
HETATM    9  C   UNL     1     -17.234 116.138   2.749  1.00  0.00     0.118 C 
HETATM   10  C   UNL     1     -18.315 116.736   1.844  1.00  0.00     0.032 C 
HETATM   11  C   UNL     1     -18.261 118.903   3.104  1.00  0.00     0.008 C 
HETATM   12  C   UNL     1     -16.934 118.505   3.806  1.00  0.00     0.002 C 
ENDROOT
BRANCH   9  13
HETATM   13  O   UNL     1     -17.760 114.904   3.274  1.00  0.00    -0.396 OA
ATOM     14  HO  UNL     1     -18.285 115.157   4.024  1.00  0.00     0.210 HD
ENDBRANCH   9  13
TORSDOF 1
ENDMDL
MODEL 2
REMARK VINA RESULT:      -5.6      2.116      4.935
REMARK  1 active torsions:
REMARK  status: ('A' for Active; 'I' for Inactive)
REMARK    1  A    between atoms: C_9  and  O_12 
ROOT
HETATM    1  N   UNL     1     -17.489 115.172   3.435  1.00  0.00    -0.361 N 
ATOM      2  HN  UNL     1     -17.758 114.328   3.941  1.00  0.00     0.162 HD
HETATM    3  C   UNL     1     -18.188 119.310   2.777  1.00  0.00     0.037 C 
HETATM    4  C   UNL     1     -15.998 118.525   4.551  1.00  0.00     0.009 C 
HETATM    5  C   UNL     1     -18.095 115.488   2.226  1.00  0.00     0.217 C 
HETATM    6  O   UNL     1     -18.518 114.614   1.474  1.00  0.00    -0.274 OA
HETATM    7  C   UNL     1     -16.453 116.071   3.979  1.00  0.00     0.127 C 
HETATM    8  C   UNL     1     -18.449 116.956   1.989  1.00  0.00     0.108 C 
HETATM    9  C   UNL     1     -17.471 120.383   3.611  1.00  0.00     0.118 C 
HETATM   10  C   UNL     1     -16.712 119.856   4.832  1.00  0.00     0.032 C 
HETATM   11  C   UNL     1     -17.051 117.482   4.097  1.00  0.00     0.008 C 
HETATM   12  C   UNL     1     -17.493 117.944   2.682  1.00  0.00     0.002 C 
ENDROOT
BRANCH   9  13
HETATM   13  O   UNL     1     -18.519 121.240   4.104  1.00  0.00    -0.396 OA
ATOM     14  HO  UNL     1     -18.646 120.981   5.009  1.00  0.00     0.210 HD
ENDBRANCH   9  13
TORSDOF 1
ENDMDL
MODEL 3
REMARK VINA RESULT:      -5.6      1.667      4.396
REMARK  1 active torsions:
REMARK  status: ('A' for Active; 'I' for Inactive)
REMARK    1  A    between atoms: C_9  and  O_12 
ROOT
HETATM    1  N   UNL     1     -17.616 116.504   1.938  1.00  0.00    -0.361 N 
ATOM      2  HN  UNL     1     -17.389 116.059   1.049  1.00  0.00     0.162 HD
HETATM    3  C   UNL     1     -16.529 119.387   4.863  1.00  0.00     0.037 C 
HETATM    4  C   UNL     1     -18.577 120.093   2.895  1.00  0.00     0.009 C 
HETATM    5  C   UNL     1     -17.120 115.987   3.128  1.00  0.00     0.217 C 
HETATM    6  O   UNL     1     -16.888 114.788   3.258  1.00  0.00    -0.274 OA
HETATM    7  C   UNL     1     -18.474 117.705   1.976  1.00  0.00     0.127 C 
HETATM    8  C   UNL     1     -16.630 116.991   4.171  1.00  0.00     0.108 C 
HETATM    9  C   UNL     1     -17.018 120.840   4.771  1.00  0.00     0.118 C 
HETATM   10  C   UNL     1     -17.687 121.218   3.446  1.00  0.00     0.032 C 
HETATM   11  C   UNL     1     -17.709 118.823   2.702  1.00  0.00     0.008 C 
HETATM   12  C   UNL     1     -17.381 118.335   4.140  1.00  0.00     0.002 C 
ENDROOT
BRANCH   9  13
HETATM   13  O   UNL     1     -15.829 121.647   4.886  1.00  0.00    -0.396 OA
ATOM     14  HO  UNL     1     -15.499 121.731   3.999  1.00  0.00     0.210 HD
ENDBRANCH   9  13
TORSDOF 1
ENDMDL
MODEL 4
REMARK VINA RESULT:      -5.2      4.541      5.940
REMARK  1 active torsions:
REMARK  status: ('A' for Active; 'I' for Inactive)
REMARK    1  A    between atoms: C_9  and  O_12 
ROOT
HETATM    1  N   UNL     1     -16.448 124.861   6.542  1.00  0.00    -0.361 N 
ATOM      2  HN  UNL     1     -15.987 125.511   5.904  1.00  0.00     0.162 HD
HETATM    3  C   UNL     1     -19.880 122.494   7.355  1.00  0.00     0.037 C 
HETATM    4  C   UNL     1     -17.523 121.194   6.209  1.00  0.00     0.009 C 
HETATM    5  C   UNL     1     -17.272 125.337   7.553  1.00  0.00     0.217 C 
HETATM    6  O   UNL     1     -17.084 126.434   8.070  1.00  0.00    -0.274 OA
HETATM    7  C   UNL     1     -16.247 123.406   6.399  1.00  0.00     0.127 C 
HETATM    8  C   UNL     1     -18.566 124.566   7.814  1.00  0.00     0.108 C 
HETATM    9  C   UNL     1     -19.984 121.043   6.861  1.00  0.00     0.118 C 
HETATM   10  C   UNL     1     -18.904 120.619   5.861  1.00  0.00     0.032 C 
HETATM   11  C   UNL     1     -17.624 122.741   6.247  1.00  0.00     0.008 C 
HETATM   12  C   UNL     1     -18.462 123.059   7.515  1.00  0.00     0.002 C 
ENDROOT
BRANCH   9  13
HETATM   13  O   UNL     1     -21.247 120.968   6.172  1.00  0.00    -0.396 OA
ATOM     14  HO  UNL     1     -21.721 120.263   6.598  1.00  0.00     0.210 HD
ENDBRANCH   9  13
TORSDOF 1
ENDMDL
MODEL 5
REMARK VINA RESULT:      -4.9      3.458      5.010
REMARK  1 active torsions:
REMARK  status: ('A' for Active; 'I' for Inactive)
REMARK    1  A    between atoms: C_9  and  O_12 
ROOT
HETATM    1  N   UNL     1     -17.897 124.509   7.860  1.00  0.00    -0.361 N 
ATOM      2  HN  UNL     1     -17.790 124.855   8.813  1.00  0.00     0.162 HD
HETATM    3  C   UNL     1     -16.626 121.726   4.912  1.00  0.00     0.037 C 
HETATM    4  C   UNL     1     -19.072 121.156   6.413  1.00  0.00     0.009 C 
HETATM    5  C   UNL     1     -17.131 125.041   6.830  1.00  0.00     0.217 C 
HETATM    6  O   UNL     1     -16.742 126.205   6.857  1.00  0.00    -0.274 OA
HETATM    7  C   UNL     1     -18.866 123.437   7.558  1.00  0.00     0.127 C 
HETATM    8  C   UNL     1     -16.576 124.059   5.800  1.00  0.00     0.108 C 
HETATM    9  C   UNL     1     -17.289 120.347   4.779  1.00  0.00     0.118 C 
HETATM   10  C   UNL     1     -18.232 119.966   5.923  1.00  0.00     0.032 C 
HETATM   11  C   UNL     1     -18.114 122.284   6.875  1.00  0.00     0.008 C 
HETATM   12  C   UNL     1     -17.470 122.827   5.571  1.00  0.00     0.002 C 
ENDROOT
BRANCH   9  13
HETATM   13  O   UNL     1     -16.201 119.402   4.798  1.00  0.00    -0.396 OA
ATOM     14  HO  UNL     1     -15.957 119.285   3.888  1.00  0.00     0.210 HD
ENDBRANCH   9  13
TORSDOF 1
ENDMDL
MODEL 6
REMARK VINA RESULT:      -4.9      3.231      6.612
REMARK  1 active torsions:
REMARK  status: ('A' for Active; 'I' for Inactive)
REMARK    1  A    between atoms: C_9  and  O_12 
ROOT
HETATM    1  N   UNL     1     -18.512 120.550   4.985  1.00  0.00    -0.361 N 
ATOM      2  HN  UNL     1     -19.249 120.184   4.382  1.00  0.00     0.162 HD
HETATM    3  C   UNL     1     -16.262 123.938   6.209  1.00  0.00     0.037 C 
HETATM    4  C   UNL     1     -18.512 123.078   7.870  1.00  0.00     0.009 C 
HETATM    5  C   UNL     1     -17.196 120.580   4.544  1.00  0.00     0.217 C 
HETATM    6  O   UNL     1     -16.768 119.752   3.745  1.00  0.00    -0.274 OA
HETATM    7  C   UNL     1     -18.833 121.054   6.334  1.00  0.00     0.127 C 
HETATM    8  C   UNL     1     -16.379 121.826   4.884  1.00  0.00     0.108 C 
HETATM    9  C   UNL     1     -16.735 124.835   7.363  1.00  0.00     0.118 C 
HETATM   10  C   UNL     1     -18.165 124.574   7.845  1.00  0.00     0.032 C 
HETATM   11  C   UNL     1     -18.325 122.500   6.444  1.00  0.00     0.008 C 
HETATM   12  C   UNL     1     -16.790 122.497   6.208  1.00  0.00     0.002 C 
ENDROOT
BRANCH   9  13
HETATM   13  O   UNL     1     -16.708 126.176   6.834  1.00  0.00    -0.396 OA
ATOM     14  HO  UNL     1     -16.838 126.076   5.898  1.00  0.00     0.210 HD
ENDBRANCH   9  13
TORSDOF 1
ENDMDL
MODEL 7
REMARK VINA RESULT:      -4.9      4.317      6.857
REMARK  1 active torsions:
REMARK  status: ('A' for Active; 'I' for Inactive)
REMARK    1  A    between atoms: C_9  and  O_12 
ROOT
HETATM    1  N   UNL     1     -18.769 120.379   6.197  1.00  0.00    -0.361 N 
ATOM      2  HN  UNL     1     -18.792 119.360   6.216  1.00  0.00     0.162 HD
HETATM    3  C   UNL     1     -17.762 123.964   8.242  1.00  0.00     0.037 C 
HETATM    4  C   UNL     1     -15.903 122.929   6.234  1.00  0.00     0.009 C 
HETATM    5  C   UNL     1     -19.846 121.115   6.673  1.00  0.00     0.217 C 
HETATM    6  O   UNL     1     -20.993 120.679   6.620  1.00  0.00    -0.274 OA
HETATM    7  C   UNL     1     -17.590 121.089   5.662  1.00  0.00     0.127 C 
HETATM    8  C   UNL     1     -19.526 122.362   7.495  1.00  0.00     0.108 C 
HETATM    9  C   UNL     1     -16.366 124.592   8.111  1.00  0.00     0.118 C 
HETATM   10  C   UNL     1     -15.320 123.712   7.421  1.00  0.00     0.032 C 
HETATM   11  C   UNL     1     -17.073 122.050   6.745  1.00  0.00     0.008 C 
HETATM   12  C   UNL     1     -18.209 123.051   7.091  1.00  0.00     0.002 C 
ENDROOT
BRANCH   9  13
HETATM   13  O   UNL     1     -15.916 124.796   9.465  1.00  0.00    -0.396 OA
ATOM     14  HO  UNL     1     -15.336 125.547   9.423  1.00  0.00     0.210 HD
ENDBRANCH   9  13
TORSDOF 1
ENDMDL
MODEL 8
REMARK VINA RESULT:      -4.9      1.901      4.830
REMARK  1 active torsions:
REMARK  status: ('A' for Active; 'I' for Inactive)
REMARK    1  A    between atoms: C_9  and  O_12 
ROOT
HETATM    1  N   UNL     1     -17.746 116.602   2.755  1.00  0.00    -0.361 N 
ATOM      2  HN  UNL     1     -18.042 115.631   2.851  1.00  0.00     0.162 HD
HETATM    3  C   UNL     1     -18.317 120.639   3.948  1.00  0.00     0.037 C 
HETATM    4  C   UNL     1     -16.159 119.104   5.192  1.00  0.00     0.009 C 
HETATM    5  C   UNL     1     -18.337 117.425   1.805  1.00  0.00     0.217 C 
HETATM    6  O   UNL     1     -18.782 116.973   0.754  1.00  0.00    -0.274 OA
HETATM    7  C   UNL     1     -16.685 117.149   3.624  1.00  0.00     0.127 C 
HETATM    8  C   UNL     1     -18.645 118.861   2.226  1.00  0.00     0.108 C 
HETATM    9  C   UNL     1     -17.572 121.227   5.156  1.00  0.00     0.118 C 
HETATM   10  C   UNL     1     -16.835 120.204   6.025  1.00  0.00     0.032 C 
HETATM   11  C   UNL     1     -17.241 118.388   4.343  1.00  0.00     0.008 C 
HETATM   12  C   UNL     1     -17.663 119.427   3.268  1.00  0.00     0.002 C 
ENDROOT
BRANCH   9  13
HETATM   13  O   UNL     1     -18.596 121.818   5.979  1.00  0.00    -0.396 OA
ATOM     14  HO  UNL     1     -18.288 121.715   6.872  1.00  0.00     0.210 HD
ENDBRANCH   9  13
TORSDOF 1
ENDMDL
MODEL 9
REMARK VINA RESULT:      -4.7      4.617      6.233
REMARK  1 active torsions:
REMARK  status: ('A' for Active; 'I' for Inactive)
REMARK    1  A    between atoms: C_9  and  O_12 
ROOT
HETATM    1  N   UNL     1     -16.143 124.962   9.074  1.00  0.00    -0.361 N 
ATOM      2  HN  UNL     1     -15.927 125.201  10.042  1.00  0.00     0.162 HD
HETATM    3  C   UNL     1     -16.830 121.883   6.229  1.00  0.00     0.037 C 
HETATM    4  C   UNL     1     -19.139 123.233   7.416  1.00  0.00     0.009 C 
HETATM    5  C   UNL     1     -15.120 124.762   8.156  1.00  0.00     0.217 C 
HETATM    6  O   UNL     1     -14.045 125.345   8.258  1.00  0.00    -0.274 OA
HETATM    7  C   UNL     1     -17.545 124.824   8.634  1.00  0.00     0.127 C 
HETATM    8  C   UNL     1     -15.287 123.603   7.174  1.00  0.00     0.108 C 
HETATM    9  C   UNL     1     -18.240 121.324   5.984  1.00  0.00     0.118 C 
HETATM   10  C   UNL     1     -19.298 121.763   6.999  1.00  0.00     0.032 C 
HETATM   11  C   UNL     1     -17.723 123.429   8.016  1.00  0.00     0.008 C 
HETATM   12  C   UNL     1     -16.752 123.302   6.810  1.00  0.00     0.002 C 
ENDROOT
BRANCH   9  13
HETATM   13  O   UNL     1     -18.105 119.895   6.108  1.00  0.00    -0.396 OA
ATOM     14  HO  UNL     1     -18.477 119.683   6.956  1.00  0.00     0.210 HD
ENDBRANCH   9  13
TORSDOF 1
ENDMDL
