MODEL 1
REMARK VINA RESULT:      -9.5      0.000      0.000
REMARK  10 active torsions:
REMARK  status: ('A' for Active; 'I' for Inactive)
REMARK    1  A    between atoms: C_2  and  O_6 
REMARK    2  A    between atoms: C_2  and  C_10 
REMARK    3  A    between atoms: C_3  and  C_29 
REMARK    4  A    between atoms: O_6  and  C_27 
REMARK    5  A    between atoms: O_8  and  C_29 
REMARK    6  A    between atoms: C_11  and  C_18 
REMARK    7  A    between atoms: C_11  and  O_25 
REMARK    8  A    between atoms: C_13  and  P_28 
REMARK    9  A    between atoms: C_14  and  C_18 
REMARK   10  A    between atoms: C_14  and  C_21 
ROOT
HETATM    1  C   UNL     1       0.014 -30.506   9.358  1.00  0.00    -0.016 C 
HETATM    2  C   UNL     1       0.085 -29.191   8.893  1.00  0.00     0.012 C 
HETATM    3  C   UNL     1      -1.645 -28.915   7.124  1.00  0.00     0.101 C 
HETATM    4  C   UNL     1      -0.548 -28.531   7.845  1.00  0.00     0.025 C 
HETATM    5  C   UNL     1      -1.003 -31.344   8.908  1.00  0.00     0.013 C 
HETATM    6  C   UNL     1      -1.849 -31.231   7.837  1.00  0.00     0.039 C 
HETATM    7  C   UNL     1      -2.043 -30.230   6.903  1.00  0.00     0.089 C 
ENDROOT
BRANCH   7   8
HETATM    8  O   UNL     1      -2.657 -30.537   5.707  1.00  0.00    -0.345 OA
BRANCH   8   9
HETATM    9  C   UNL     1      -2.830 -31.930   5.463  1.00  0.00     0.214 C 
BRANCH   9  10
HETATM   10  C   UNL     1      -4.310 -32.261   5.442  1.00  0.00    -0.034 C 
HETATM   11  C   UNL     1      -4.676 -33.603   5.386  1.00  0.00     0.010 C 
HETATM   12  C   UNL     1      -5.967 -33.920   4.976  1.00  0.00     0.007 C 
HETATM   13  C   UNL     1      -6.910 -32.926   4.748  1.00  0.00    -0.058 C 
HETATM   14  C   UNL     1      -6.581 -31.603   5.018  1.00  0.00     0.007 C 
HETATM   15  C   UNL     1      -5.301 -31.299   5.483  1.00  0.00     0.010 C 
BRANCH  13  16
HETATM   16  C   UNL     1      -8.238 -33.303   4.121  1.00  0.00     0.041 C 
BRANCH  16  17
HETATM   17  C   UNL     1      -8.509 -34.801   4.023  1.00  0.00     0.030 C 
BRANCH  17  18
HETATM   18  C   UNL     1      -9.664 -35.121   3.089  1.00  0.00     0.164 C 
BRANCH  18  19
HETATM   19  O   UNL     1      -9.705 -34.173   2.039  1.00  0.00    -0.401 OA
ATOM     20  HO  UNL     1     -10.179 -33.400   2.324  1.00  0.00     0.209 HD
ENDBRANCH  18  19
ENDBRANCH  17  18
ENDBRANCH  16  17
ENDBRANCH  13  16
ENDBRANCH   9  10
ENDBRANCH   8   9
ENDBRANCH   7   8
BRANCH   3  21
HETATM   21  P   UNL     1      -2.796 -27.754   6.414  1.00  0.00     0.298 P 
HETATM   22  O   UNL     1      -2.576 -26.519   7.264  1.00  0.00    -0.636 OA
HETATM   23  O   UNL     1      -4.224 -28.152   6.601  1.00  0.00    -0.636 OA
HETATM   24  O   UNL     1      -2.472 -27.785   4.956  1.00  0.00    -0.636 OA
ENDBRANCH   3  21
BRANCH   1  25
HETATM   25  C   UNL     1       1.078 -31.052  10.321  1.00  0.00     0.121 C 
HETATM   26  C   UNL     1       2.149 -30.058  10.536  1.00  0.00     0.020 C 
HETATM   27  C   UNL     1       3.494 -30.331  10.305  1.00  0.00    -0.000 C 
HETATM   28  C   UNL     1       3.919 -31.619  10.009  1.00  0.00    -0.000 C 
HETATM   29  C   UNL     1       2.969 -32.631   9.892  1.00  0.00    -0.000 C 
HETATM   30  C   UNL     1       1.616 -32.365   9.959  1.00  0.00     0.020 C 
BRANCH  25  31
HETATM   31  O   UNL     1       0.373 -31.139  11.542  1.00  0.00    -0.377 OA
ATOM     32  HO  UNL     1      -0.177 -31.911  11.475  1.00  0.00     0.211 HD
ENDBRANCH  25  31
ENDBRANCH   1  25
TORSDOF 10
ENDMDL
MODEL 2
REMARK VINA RESULT:      -9.4      2.599      5.735
REMARK  10 active torsions:
REMARK  status: ('A' for Active; 'I' for Inactive)
REMARK    1  A    between atoms: C_2  and  O_6 
REMARK    2  A    between atoms: C_2  and  C_10 
REMARK    3  A    between atoms: C_3  and  C_29 
REMARK    4  A    between atoms: O_6  and  C_27 
REMARK    5  A    between atoms: O_8  and  C_29 
REMARK    6  A    between atoms: C_11  and  C_18 
REMARK    7  A    between atoms: C_11  and  O_25 
REMARK    8  A    between atoms: C_13  and  P_28 
REMARK    9  A    between atoms: C_14  and  C_18 
REMARK   10  A    between atoms: C_14  and  C_21 
ROOT
HETATM    1  C   UNL     1      -1.660 -28.527   6.977  1.00  0.00    -0.016 C 
HETATM    2  C   UNL     1      -1.148 -28.149   8.220  1.00  0.00     0.012 C 
HETATM    3  C   UNL     1       0.492 -29.884   8.926  1.00  0.00     0.101 C 
HETATM    4  C   UNL     1      -0.306 -28.791   9.122  1.00  0.00     0.025 C 
HETATM    5  C   UNL     1      -1.130 -29.634   6.318  1.00  0.00     0.013 C 
HETATM    6  C   UNL     1      -0.341 -30.656   6.776  1.00  0.00     0.039 C 
HETATM    7  C   UNL     1       0.261 -30.894   7.998  1.00  0.00     0.089 C 
ENDROOT
BRANCH   7   8
HETATM    8  O   UNL     1       0.652 -32.178   8.315  1.00  0.00    -0.345 OA
BRANCH   8   9
HETATM    9  C   UNL     1      -0.302 -32.928   9.062  1.00  0.00     0.214 C 
BRANCH   9  10
HETATM   10  C   UNL     1      -1.610 -32.990   8.297  1.00  0.00    -0.034 C 
HETATM   11  C   UNL     1      -1.660 -33.788   7.158  1.00  0.00     0.010 C 
HETATM   12  C   UNL     1      -2.681 -33.566   6.238  1.00  0.00     0.007 C 
HETATM   13  C   UNL     1      -3.698 -32.659   6.504  1.00  0.00    -0.058 C 
HETATM   14  C   UNL     1      -3.742 -32.031   7.743  1.00  0.00     0.007 C 
HETATM   15  C   UNL     1      -2.745 -32.302   8.681  1.00  0.00     0.010 C 
BRANCH  13  16
HETATM   16  C   UNL     1      -4.678 -32.309   5.401  1.00  0.00     0.041 C 
BRANCH  16  17
HETATM   17  C   UNL     1      -6.137 -32.214   5.833  1.00  0.00     0.030 C 
BRANCH  17  18
HETATM   18  C   UNL     1      -7.056 -31.819   4.688  1.00  0.00     0.164 C 
BRANCH  18  19
HETATM   19  O   UNL     1      -7.945 -30.805   5.119  1.00  0.00    -0.401 OA
ATOM     20  HO  UNL     1      -8.651 -30.711   4.491  1.00  0.00     0.209 HD
ENDBRANCH  18  19
ENDBRANCH  17  18
ENDBRANCH  16  17
ENDBRANCH  13  16
ENDBRANCH   9  10
ENDBRANCH   8   9
ENDBRANCH   7   8
BRANCH   3  21
HETATM   21  P   UNL     1       2.026 -30.135   9.799  1.00  0.00     0.298 P 
HETATM   22  O   UNL     1       1.566 -30.810  11.075  1.00  0.00    -0.636 OA
HETATM   23  O   UNL     1       2.688 -28.858  10.205  1.00  0.00    -0.636 OA
HETATM   24  O   UNL     1       2.890 -30.831   8.798  1.00  0.00    -0.636 OA
ENDBRANCH   3  21
BRANCH   1  25
HETATM   25  C   UNL     1      -2.838 -27.765   6.353  1.00  0.00     0.121 C 
HETATM   26  C   UNL     1      -4.115 -28.188   6.961  1.00  0.00     0.020 C 
HETATM   27  C   UNL     1      -5.187 -28.673   6.216  1.00  0.00    -0.000 C 
HETATM   28  C   UNL     1      -5.164 -28.633   4.829  1.00  0.00    -0.000 C 
HETATM   29  C   UNL     1      -4.027 -28.148   4.187  1.00  0.00    -0.000 C 
HETATM   30  C   UNL     1      -2.889 -27.808   4.890  1.00  0.00     0.020 C 
BRANCH  25  31
HETATM   31  O   UNL     1      -2.615 -26.441   6.790  1.00  0.00    -0.377 OA
ATOM     32  HO  UNL     1      -3.474 -26.047   6.888  1.00  0.00     0.211 HD
ENDBRANCH  25  31
ENDBRANCH   1  25
TORSDOF 10
ENDMDL
MODEL 3
REMARK VINA RESULT:      -9.0      1.177      1.691
REMARK  10 active torsions:
REMARK  status: ('A' for Active; 'I' for Inactive)
REMARK    1  A    between atoms: C_2  and  O_6 
REMARK    2  A    between atoms: C_2  and  C_10 
REMARK    3  A    between atoms: C_3  and  C_29 
REMARK    4  A    between atoms: O_6  and  C_27 
REMARK    5  A    between atoms: O_8  and  C_29 
REMARK    6  A    between atoms: C_11  and  C_18 
REMARK    7  A    between atoms: C_11  and  O_25 
REMARK    8  A    between atoms: C_13  and  P_28 
REMARK    9  A    between atoms: C_14  and  C_18 
REMARK   10  A    between atoms: C_14  and  C_21 
ROOT
HETATM    1  C   UNL     1      -0.593 -30.476   9.094  1.00  0.00    -0.016 C 
HETATM    2  C   UNL     1      -0.773 -29.316   8.337  1.00  0.00     0.012 C 
HETATM    3  C   UNL     1      -2.709 -29.692   6.818  1.00  0.00     0.101 C 
HETATM    4  C   UNL     1      -1.610 -29.014   7.268  1.00  0.00     0.025 C 
HETATM    5  C   UNL     1      -1.515 -31.514   8.998  1.00  0.00     0.013 C 
HETATM    6  C   UNL     1      -2.482 -31.770   8.061  1.00  0.00     0.039 C 
HETATM    7  C   UNL     1      -2.927 -31.059   6.962  1.00  0.00     0.089 C 
ENDROOT
BRANCH   7   8
HETATM    8  O   UNL     1      -3.615 -31.722   5.967  1.00  0.00    -0.345 OA
BRANCH   8   9
HETATM    9  C   UNL     1      -4.277 -32.911   6.387  1.00  0.00     0.214 C 
BRANCH   9  10
HETATM   10  C   UNL     1      -5.394 -33.240   5.415  1.00  0.00    -0.034 C 
HETATM   11  C   UNL     1      -6.342 -32.254   5.155  1.00  0.00     0.010 C 
HETATM   12  C   UNL     1      -7.560 -32.637   4.601  1.00  0.00     0.007 C 
HETATM   13  C   UNL     1      -7.782 -33.947   4.198  1.00  0.00    -0.058 C 
HETATM   14  C   UNL     1      -6.743 -34.866   4.271  1.00  0.00     0.007 C 
HETATM   15  C   UNL     1      -5.507 -34.460   4.777  1.00  0.00     0.010 C 
BRANCH  13  16
HETATM   16  C   UNL     1      -9.180 -34.359   3.779  1.00  0.00     0.041 C 
BRANCH  16  17
HETATM   17  C   UNL     1      -9.361 -34.621   2.288  1.00  0.00     0.030 C 
BRANCH  17  18
HETATM   18  C   UNL     1      -9.648 -36.083   1.987  1.00  0.00     0.164 C 
BRANCH  18  19
HETATM   19  O   UNL     1     -10.961 -36.407   2.403  1.00  0.00    -0.401 OA
ATOM     20  HO  UNL     1     -10.950 -36.686   3.311  1.00  0.00     0.209 HD
ENDBRANCH  18  19
ENDBRANCH  17  18
ENDBRANCH  16  17
ENDBRANCH  13  16
ENDBRANCH   9  10
ENDBRANCH   8   9
ENDBRANCH   7   8
BRANCH   3  21
HETATM   21  P   UNL     1      -4.094 -28.888   6.034  1.00  0.00     0.298 P 
HETATM   22  O   UNL     1      -3.903 -27.442   6.445  1.00  0.00    -0.636 OA
HETATM   23  O   UNL     1      -5.414 -29.318   6.587  1.00  0.00    -0.636 OA
HETATM   24  O   UNL     1      -3.998 -29.331   4.611  1.00  0.00    -0.636 OA
ENDBRANCH   3  21
BRANCH   1  25
HETATM   25  C   UNL     1       0.641 -30.637   9.994  1.00  0.00     0.121 C 
HETATM   26  C   UNL     1       1.352 -29.352  10.142  1.00  0.00     0.020 C 
HETATM   27  C   UNL     1       2.699 -29.189   9.832  1.00  0.00    -0.000 C 
HETATM   28  C   UNL     1       3.493 -30.283   9.515  1.00  0.00    -0.000 C 
HETATM   29  C   UNL     1       2.908 -31.546   9.457  1.00  0.00    -0.000 C 
HETATM   30  C   UNL     1       1.546 -31.720   9.603  1.00  0.00     0.020 C 
BRANCH  25  31
HETATM   31  O   UNL     1       0.069 -30.917  11.254  1.00  0.00    -0.377 OA
ATOM     32  HO  UNL     1      -0.251 -31.810  11.207  1.00  0.00     0.211 HD
ENDBRANCH  25  31
ENDBRANCH   1  25
TORSDOF 10
ENDMDL
MODEL 4
REMARK VINA RESULT:      -8.8      3.305      9.964
REMARK  10 active torsions:
REMARK  status: ('A' for Active; 'I' for Inactive)
REMARK    1  A    between atoms: C_2  and  O_6 
REMARK    2  A    between atoms: C_2  and  C_10 
REMARK    3  A    between atoms: C_3  and  C_29 
REMARK    4  A    between atoms: O_6  and  C_27 
REMARK    5  A    between atoms: O_8  and  C_29 
REMARK    6  A    between atoms: C_11  and  C_18 
REMARK    7  A    between atoms: C_11  and  O_25 
REMARK    8  A    between atoms: C_13  and  P_28 
REMARK    9  A    between atoms: C_14  and  C_18 
REMARK   10  A    between atoms: C_14  and  C_21 
ROOT
HETATM    1  C   UNL     1      -8.565 -34.748   4.054  1.00  0.00    -0.016 C 
HETATM    2  C   UNL     1      -7.471 -35.433   4.586  1.00  0.00     0.012 C 
HETATM    3  C   UNL     1      -5.818 -33.742   5.365  1.00  0.00     0.101 C 
HETATM    4  C   UNL     1      -6.229 -35.006   5.045  1.00  0.00     0.025 C 
HETATM    5  C   UNL     1      -8.627 -33.360   4.154  1.00  0.00     0.013 C 
HETATM    6  C   UNL     1      -7.656 -32.439   4.447  1.00  0.00     0.039 C 
HETATM    7  C   UNL     1      -6.331 -32.567   4.822  1.00  0.00     0.089 C 
ENDROOT
BRANCH   7   8
HETATM    8  O   UNL     1      -5.480 -31.495   4.657  1.00  0.00    -0.345 OA
BRANCH   8   9
HETATM    9  C   UNL     1      -6.121 -30.224   4.601  1.00  0.00     0.214 C 
BRANCH   9  10
HETATM   10  C   UNL     1      -5.190 -29.161   5.151  1.00  0.00    -0.034 C 
HETATM   11  C   UNL     1      -4.205 -28.658   4.305  1.00  0.00     0.010 C 
HETATM   12  C   UNL     1      -3.119 -27.999   4.873  1.00  0.00     0.007 C 
HETATM   13  C   UNL     1      -3.074 -27.735   6.235  1.00  0.00    -0.058 C 
HETATM   14  C   UNL     1      -4.170 -28.058   7.026  1.00  0.00     0.007 C 
HETATM   15  C   UNL     1      -5.279 -28.669   6.439  1.00  0.00     0.010 C 
BRANCH  13  16
HETATM   16  C   UNL     1      -1.794 -27.190   6.836  1.00  0.00     0.041 C 
BRANCH  16  17
HETATM   17  C   UNL     1      -1.036 -28.158   7.739  1.00  0.00     0.030 C 
BRANCH  17  18
HETATM   18  C   UNL     1       0.136 -28.816   7.027  1.00  0.00     0.164 C 
BRANCH  18  19
HETATM   19  O   UNL     1      -0.337 -29.857   6.193  1.00  0.00    -0.401 OA
ATOM     20  HO  UNL     1       0.136 -29.846   5.369  1.00  0.00     0.209 HD
ENDBRANCH  18  19
ENDBRANCH  17  18
ENDBRANCH  16  17
ENDBRANCH  13  16
ENDBRANCH   9  10
ENDBRANCH   8   9
ENDBRANCH   7   8
BRANCH   3  21
HETATM   21  P   UNL     1      -4.593 -33.404   6.614  1.00  0.00     0.298 P 
HETATM   22  O   UNL     1      -4.950 -34.404   7.696  1.00  0.00    -0.636 OA
HETATM   23  O   UNL     1      -4.733 -32.047   7.225  1.00  0.00    -0.636 OA
HETATM   24  O   UNL     1      -3.301 -33.468   5.867  1.00  0.00    -0.636 OA
ENDBRANCH   3  21
BRANCH   1  25
HETATM   25  C   UNL     1      -9.676 -35.506   3.314  1.00  0.00     0.121 C 
HETATM   26  C   UNL     1      -9.836 -36.867   3.863  1.00  0.00     0.020 C 
HETATM   27  C   UNL     1      -9.753 -38.016   3.081  1.00  0.00    -0.000 C 
HETATM   28  C   UNL     1      -9.673 -37.930   1.698  1.00  0.00    -0.000 C 
HETATM   29  C   UNL     1      -9.622 -36.672   1.102  1.00  0.00    -0.000 C 
HETATM   30  C   UNL     1      -9.543 -35.518   1.856  1.00  0.00     0.020 C 
BRANCH  25  31
HETATM   31  O   UNL     1     -10.837 -34.793   3.687  1.00  0.00    -0.377 OA
ATOM     32  HO  UNL     1     -11.533 -35.109   3.123  1.00  0.00     0.211 HD
ENDBRANCH  25  31
ENDBRANCH   1  25
TORSDOF 10
ENDMDL
MODEL 5
REMARK VINA RESULT:      -8.8      1.691      8.922
REMARK  10 active torsions:
REMARK  status: ('A' for Active; 'I' for Inactive)
REMARK    1  A    between atoms: C_2  and  O_6 
REMARK    2  A    between atoms: C_2  and  C_10 
REMARK    3  A    between atoms: C_3  and  C_29 
REMARK    4  A    between atoms: O_6  and  C_27 
REMARK    5  A    between atoms: O_8  and  C_29 
REMARK    6  A    between atoms: C_11  and  C_18 
REMARK    7  A    between atoms: C_11  and  O_25 
REMARK    8  A    between atoms: C_13  and  P_28 
REMARK    9  A    between atoms: C_14  and  C_18 
REMARK   10  A    between atoms: C_14  and  C_21 
ROOT
HETATM    1  C   UNL     1      -5.523 -33.013   5.017  1.00  0.00    -0.016 C 
HETATM    2  C   UNL     1      -6.315 -31.869   4.908  1.00  0.00     0.012 C 
HETATM    3  C   UNL     1      -4.941 -29.921   5.624  1.00  0.00     0.101 C 
HETATM    4  C   UNL     1      -6.108 -30.545   5.282  1.00  0.00     0.025 C 
HETATM    5  C   UNL     1      -4.175 -32.892   5.343  1.00  0.00     0.013 C 
HETATM    6  C   UNL     1      -3.472 -31.843   5.875  1.00  0.00     0.039 C 
HETATM    7  C   UNL     1      -3.829 -30.543   6.183  1.00  0.00     0.089 C 
ENDROOT
BRANCH   7   8
HETATM    8  O   UNL     1      -3.056 -29.829   7.075  1.00  0.00    -0.345 OA
BRANCH   8   9
HETATM    9  C   UNL     1      -1.652 -30.029   6.945  1.00  0.00     0.214 C 
BRANCH   9  10
HETATM   10  C   UNL     1      -1.029 -30.162   8.321  1.00  0.00    -0.034 C 
HETATM   11  C   UNL     1      -0.175 -29.150   8.750  1.00  0.00     0.010 C 
HETATM   12  C   UNL     1       0.698 -29.421   9.800  1.00  0.00     0.007 C 
HETATM   13  C   UNL     1       0.636 -30.625  10.489  1.00  0.00    -0.058 C 
HETATM   14  C   UNL     1      -0.369 -31.533  10.180  1.00  0.00     0.007 C 
HETATM   15  C   UNL     1      -1.275 -31.230   9.163  1.00  0.00     0.010 C 
BRANCH  13  16
HETATM   16  C   UNL     1       1.723 -30.953  11.493  1.00  0.00     0.041 C 
BRANCH  16  17
HETATM   17  C   UNL     1       3.143 -30.955  10.936  1.00  0.00     0.030 C 
BRANCH  17  18
HETATM   18  C   UNL     1       3.356 -32.044   9.898  1.00  0.00     0.164 C 
BRANCH  18  19
HETATM   19  O   UNL     1       2.898 -33.283  10.405  1.00  0.00    -0.401 OA
ATOM     20  HO  UNL     1       2.595 -33.830   9.690  1.00  0.00     0.209 HD
ENDBRANCH  18  19
ENDBRANCH  17  18
ENDBRANCH  16  17
ENDBRANCH  13  16
ENDBRANCH   9  10
ENDBRANCH   8   9
ENDBRANCH   7   8
BRANCH   3  21
HETATM   21  P   UNL     1      -4.639 -28.190   5.321  1.00  0.00     0.298 P 
HETATM   22  O   UNL     1      -3.529 -28.231   4.290  1.00  0.00    -0.636 OA
HETATM   23  O   UNL     1      -4.088 -27.472   6.511  1.00  0.00    -0.636 OA
HETATM   24  O   UNL     1      -5.995 -27.645   5.012  1.00  0.00    -0.636 OA
ENDBRANCH   3  21
BRANCH   1  25
HETATM   25  C   UNL     1      -6.137 -34.408   4.830  1.00  0.00     0.121 C 
HETATM   26  C   UNL     1      -7.254 -34.363   3.866  1.00  0.00     0.020 C 
HETATM   27  C   UNL     1      -8.537 -34.812   4.168  1.00  0.00    -0.000 C 
HETATM   28  C   UNL     1      -8.794 -35.482   5.356  1.00  0.00    -0.000 C 
HETATM   29  C   UNL     1      -7.758 -35.652   6.272  1.00  0.00    -0.000 C 
HETATM   30  C   UNL     1      -6.517 -35.082   6.074  1.00  0.00     0.020 C 
BRANCH  25  31
HETATM   31  O   UNL     1      -5.097 -35.120   4.193  1.00  0.00    -0.377 OA
ATOM     32  HO  UNL     1      -4.396 -35.190   4.830  1.00  0.00     0.211 HD
ENDBRANCH  25  31
ENDBRANCH   1  25
TORSDOF 10
ENDMDL
MODEL 6
REMARK VINA RESULT:      -8.7      3.051      6.146
REMARK  10 active torsions:
REMARK  status: ('A' for Active; 'I' for Inactive)
REMARK    1  A    between atoms: C_2  and  O_6 
REMARK    2  A    between atoms: C_2  and  C_10 
REMARK    3  A    between atoms: C_3  and  C_29 
REMARK    4  A    between atoms: O_6  and  C_27 
REMARK    5  A    between atoms: O_8  and  C_29 
REMARK    6  A    between atoms: C_11  and  C_18 
REMARK    7  A    between atoms: C_11  and  O_25 
REMARK    8  A    between atoms: C_13  and  P_28 
REMARK    9  A    between atoms: C_14  and  C_18 
REMARK   10  A    between atoms: C_14  and  C_21 
ROOT
HETATM    1  C   UNL     1      -2.260 -32.516   7.557  1.00  0.00    -0.016 C 
HETATM    2  C   UNL     1      -3.114 -33.144   8.466  1.00  0.00     0.012 C 
HETATM    3  C   UNL     1      -5.098 -33.963   7.205  1.00  0.00     0.101 C 
HETATM    4  C   UNL     1      -4.397 -33.666   8.341  1.00  0.00     0.025 C 
HETATM    5  C   UNL     1      -2.548 -32.559   6.195  1.00  0.00     0.013 C 
HETATM    6  C   UNL     1      -3.703 -32.879   5.533  1.00  0.00     0.039 C 
HETATM    7  C   UNL     1      -4.931 -33.344   5.971  1.00  0.00     0.089 C 
ENDROOT
BRANCH   7   8
HETATM    8  O   UNL     1      -6.034 -33.193   5.157  1.00  0.00    -0.345 OA
BRANCH   8   9
HETATM    9  C   UNL     1      -6.874 -32.091   5.484  1.00  0.00     0.214 C 
BRANCH   9  10
HETATM   10  C   UNL     1      -6.064 -30.809   5.456  1.00  0.00    -0.034 C 
HETATM   11  C   UNL     1      -5.697 -30.299   4.214  1.00  0.00     0.010 C 
HETATM   12  C   UNL     1      -4.653 -29.380   4.159  1.00  0.00     0.007 C 
HETATM   13  C   UNL     1      -4.072 -28.886   5.319  1.00  0.00    -0.058 C 
HETATM   14  C   UNL     1      -4.601 -29.250   6.551  1.00  0.00     0.007 C 
HETATM   15  C   UNL     1      -5.684 -30.128   6.597  1.00  0.00     0.010 C 
BRANCH  13  16
HETATM   16  C   UNL     1      -2.819 -28.040   5.210  1.00  0.00     0.041 C 
BRANCH  16  17
HETATM   17  C   UNL     1      -1.862 -28.141   6.393  1.00  0.00     0.030 C 
BRANCH  17  18
HETATM   18  C   UNL     1      -1.820 -26.863   7.215  1.00  0.00     0.164 C 
BRANCH  18  19
HETATM   19  O   UNL     1      -2.663 -26.993   8.344  1.00  0.00    -0.401 OA
ATOM     20  HO  UNL     1      -2.836 -26.136   8.715  1.00  0.00     0.209 HD
ENDBRANCH  18  19
ENDBRANCH  17  18
ENDBRANCH  16  17
ENDBRANCH  13  16
ENDBRANCH   9  10
ENDBRANCH   8   9
ENDBRANCH   7   8
BRANCH   3  21
HETATM   21  P   UNL     1      -6.301 -35.276   7.120  1.00  0.00     0.298 P 
HETATM   22  O   UNL     1      -7.507 -34.654   7.795  1.00  0.00    -0.636 OA
HETATM   23  O   UNL     1      -5.926 -36.472   7.935  1.00  0.00    -0.636 OA
HETATM   24  O   UNL     1      -6.305 -35.657   5.676  1.00  0.00    -0.636 OA
ENDBRANCH   3  21
BRANCH   1  25
HETATM   25  C   UNL     1      -1.033 -31.735   8.050  1.00  0.00     0.121 C 
HETATM   26  C   UNL     1      -0.014 -32.653   8.597  1.00  0.00     0.020 C 
HETATM   27  C   UNL     1       0.500 -32.535   9.885  1.00  0.00    -0.000 C 
HETATM   28  C   UNL     1       0.192 -31.437  10.676  1.00  0.00    -0.000 C 
HETATM   29  C   UNL     1      -0.686 -30.475  10.182  1.00  0.00    -0.000 C 
HETATM   30  C   UNL     1      -1.335 -30.641   8.975  1.00  0.00     0.020 C 
BRANCH  25  31
HETATM   31  O   UNL     1      -0.494 -31.219   6.851  1.00  0.00    -0.377 OA
ATOM     32  HO  UNL     1       0.415 -31.493   6.831  1.00  0.00     0.211 HD
ENDBRANCH  25  31
ENDBRANCH   1  25
TORSDOF 10
ENDMDL
MODEL 7
REMARK VINA RESULT:      -8.6      2.924      6.198
REMARK  10 active torsions:
REMARK  status: ('A' for Active; 'I' for Inactive)
REMARK    1  A    between atoms: C_2  and  O_6 
REMARK    2  A    between atoms: C_2  and  C_10 
REMARK    3  A    between atoms: C_3  and  C_29 
REMARK    4  A    between atoms: O_6  and  C_27 
REMARK    5  A    between atoms: O_8  and  C_29 
REMARK    6  A    between atoms: C_11  and  C_18 
REMARK    7  A    between atoms: C_11  and  O_25 
REMARK    8  A    between atoms: C_13  and  P_28 
REMARK    9  A    between atoms: C_14  and  C_18 
REMARK   10  A    between atoms: C_14  and  C_21 
ROOT
HETATM    1  C   UNL     1      -2.918 -33.096   8.117  1.00  0.00    -0.016 C 
HETATM    2  C   UNL     1      -4.100 -33.777   8.412  1.00  0.00     0.012 C 
HETATM    3  C   UNL     1      -5.546 -33.706   6.387  1.00  0.00     0.101 C 
HETATM    4  C   UNL     1      -5.289 -33.942   7.709  1.00  0.00     0.025 C 
HETATM    5  C   UNL     1      -2.686 -32.644   6.820  1.00  0.00     0.013 C 
HETATM    6  C   UNL     1      -3.541 -32.480   5.762  1.00  0.00     0.039 C 
HETATM    7  C   UNL     1      -4.880 -32.781   5.589  1.00  0.00     0.089 C 
ENDROOT
BRANCH   7   8
HETATM    8  O   UNL     1      -5.586 -32.147   4.590  1.00  0.00    -0.345 OA
BRANCH   8   9
HETATM    9  C   UNL     1      -6.418 -31.078   5.030  1.00  0.00     0.214 C 
BRANCH   9  10
HETATM   10  C   UNL     1      -5.568 -29.850   5.295  1.00  0.00    -0.034 C 
HETATM   11  C   UNL     1      -4.815 -29.340   4.242  1.00  0.00     0.010 C 
HETATM   12  C   UNL     1      -3.754 -28.489   4.538  1.00  0.00     0.007 C 
HETATM   13  C   UNL     1      -3.525 -28.056   5.837  1.00  0.00    -0.058 C 
HETATM   14  C   UNL     1      -4.422 -28.409   6.838  1.00  0.00     0.007 C 
HETATM   15  C   UNL     1      -5.515 -29.218   6.522  1.00  0.00     0.010 C 
BRANCH  13  16
HETATM   16  C   UNL     1      -2.254 -27.289   6.143  1.00  0.00     0.041 C 
BRANCH  16  17
HETATM   17  C   UNL     1      -1.317 -27.958   7.144  1.00  0.00     0.030 C 
BRANCH  17  18
HETATM   18  C   UNL     1      -0.197 -28.729   6.463  1.00  0.00     0.164 C 
BRANCH  18  19
HETATM   19  O   UNL     1      -0.661 -30.012   6.088  1.00  0.00    -0.401 OA
ATOM     20  HO  UNL     1      -1.595 -30.075   6.251  1.00  0.00     0.209 HD
ENDBRANCH  18  19
ENDBRANCH  17  18
ENDBRANCH  16  17
ENDBRANCH  13  16
ENDBRANCH   9  10
ENDBRANCH   8   9
ENDBRANCH   7   8
BRANCH   3  21
HETATM   21  P   UNL     1      -6.748 -34.632   5.451  1.00  0.00     0.298 P 
HETATM   22  O   UNL     1      -5.939 -35.101   4.258  1.00  0.00    -0.636 OA
HETATM   23  O   UNL     1      -7.853 -33.782   4.909  1.00  0.00    -0.636 OA
HETATM   24  O   UNL     1      -7.316 -35.584   6.452  1.00  0.00    -0.636 OA
ENDBRANCH   3  21
BRANCH   1  25
HETATM   25  C   UNL     1      -1.893 -32.796   9.220  1.00  0.00     0.121 C 
HETATM   26  C   UNL     1      -1.895 -31.358   9.558  1.00  0.00     0.020 C 
HETATM   27  C   UNL     1      -0.751 -30.566   9.510  1.00  0.00    -0.000 C 
HETATM   28  C   UNL     1       0.498 -31.131   9.292  1.00  0.00    -0.000 C 
HETATM   29  C   UNL     1       0.586 -32.503   9.067  1.00  0.00    -0.000 C 
HETATM   30  C   UNL     1      -0.542 -33.291   8.952  1.00  0.00     0.020 C 
BRANCH  25  31
HETATM   31  O   UNL     1      -2.439 -33.463  10.339  1.00  0.00    -0.377 OA
ATOM     32  HO  UNL     1      -3.382 -33.398  10.251  1.00  0.00     0.211 HD
ENDBRANCH  25  31
ENDBRANCH   1  25
TORSDOF 10
ENDMDL
MODEL 8
REMARK VINA RESULT:      -8.5      3.428      6.007
REMARK  10 active torsions:
REMARK  status: ('A' for Active; 'I' for Inactive)
REMARK    1  A    between atoms: C_2  and  O_6 
REMARK    2  A    between atoms: C_2  and  C_10 
REMARK    3  A    between atoms: C_3  and  C_29 
REMARK    4  A    between atoms: O_6  and  C_27 
REMARK    5  A    between atoms: O_8  and  C_29 
REMARK    6  A    between atoms: C_11  and  C_18 
REMARK    7  A    between atoms: C_11  and  O_25 
REMARK    8  A    between atoms: C_13  and  P_28 
REMARK    9  A    between atoms: C_14  and  C_18 
REMARK   10  A    between atoms: C_14  and  C_21 
ROOT
HETATM    1  C   UNL     1      -1.309 -32.834   8.878  1.00  0.00    -0.016 C 
HETATM    2  C   UNL     1      -1.974 -33.457   9.936  1.00  0.00     0.012 C 
HETATM    3  C   UNL     1      -4.212 -34.172   9.113  1.00  0.00     0.101 C 
HETATM    4  C   UNL     1      -3.274 -33.931  10.078  1.00  0.00     0.025 C 
HETATM    5  C   UNL     1      -1.882 -32.829   7.608  1.00  0.00     0.013 C 
HETATM    6  C   UNL     1      -3.164 -33.091   7.203  1.00  0.00     0.039 C 
HETATM    7  C   UNL     1      -4.287 -33.525   7.883  1.00  0.00     0.089 C 
ENDROOT
BRANCH   7   8
HETATM    8  O   UNL     1      -5.532 -33.314   7.328  1.00  0.00    -0.345 OA
BRANCH   8   9
HETATM    9  C   UNL     1      -5.523 -33.001   5.938  1.00  0.00     0.214 C 
BRANCH   9  10
HETATM   10  C   UNL     1      -5.276 -31.516   5.754  1.00  0.00    -0.034 C 
HETATM   11  C   UNL     1      -4.372 -31.123   4.772  1.00  0.00     0.010 C 
HETATM   12  C   UNL     1      -3.837 -29.840   4.840  1.00  0.00     0.007 C 
HETATM   13  C   UNL     1      -4.284 -28.928   5.786  1.00  0.00    -0.058 C 
HETATM   14  C   UNL     1      -5.341 -29.275   6.619  1.00  0.00     0.007 C 
HETATM   15  C   UNL     1      -5.909 -30.545   6.507  1.00  0.00     0.010 C 
BRANCH  13  16
HETATM   16  C   UNL     1      -3.544 -27.614   5.947  1.00  0.00     0.041 C 
BRANCH  16  17
HETATM   17  C   UNL     1      -2.060 -27.741   6.277  1.00  0.00     0.030 C 
BRANCH  17  18
HETATM   18  C   UNL     1      -1.712 -27.128   7.624  1.00  0.00     0.164 C 
BRANCH  18  19
HETATM   19  O   UNL     1      -2.886 -26.995   8.405  1.00  0.00    -0.401 OA
ATOM     20  HO  UNL     1      -3.054 -26.075   8.575  1.00  0.00     0.209 HD
ENDBRANCH  18  19
ENDBRANCH  17  18
ENDBRANCH  16  17
ENDBRANCH  13  16
ENDBRANCH   9  10
ENDBRANCH   8   9
ENDBRANCH   7   8
BRANCH   3  21
HETATM   21  P   UNL     1      -5.457 -35.440   9.262  1.00  0.00     0.298 P 
HETATM   22  O   UNL     1      -4.673 -36.594   9.854  1.00  0.00    -0.636 OA
HETATM   23  O   UNL     1      -5.978 -35.911   7.942  1.00  0.00    -0.636 OA
HETATM   24  O   UNL     1      -6.561 -34.763  10.005  1.00  0.00    -0.636 OA
ENDBRANCH   3  21
BRANCH   1  25
HETATM   25  C   UNL     1       0.024 -32.110   9.111  1.00  0.00     0.121 C 
HETATM   26  C   UNL     1       0.169 -31.726  10.530  1.00  0.00     0.020 C 
HETATM   27  C   UNL     1       0.403 -30.417  10.942  1.00  0.00    -0.000 C 
HETATM   28  C   UNL     1       0.675 -29.418  10.017  1.00  0.00    -0.000 C 
HETATM   29  C   UNL     1       0.656 -29.733   8.660  1.00  0.00    -0.000 C 
HETATM   30  C   UNL     1       0.273 -30.981   8.213  1.00  0.00     0.020 C 
BRANCH  25  31
HETATM   31  O   UNL     1       0.974 -33.129   8.881  1.00  0.00    -0.377 OA
ATOM     32  HO  UNL     1       1.597 -33.076   9.597  1.00  0.00     0.211 HD
ENDBRANCH  25  31
ENDBRANCH   1  25
TORSDOF 10
ENDMDL
MODEL 9
REMARK VINA RESULT:      -8.5      3.542     10.702
REMARK  10 active torsions:
REMARK  status: ('A' for Active; 'I' for Inactive)
REMARK    1  A    between atoms: C_2  and  O_6 
REMARK    2  A    between atoms: C_2  and  C_10 
REMARK    3  A    between atoms: C_3  and  C_29 
REMARK    4  A    between atoms: O_6  and  C_27 
REMARK    5  A    between atoms: O_8  and  C_29 
REMARK    6  A    between atoms: C_11  and  C_18 
REMARK    7  A    between atoms: C_11  and  O_25 
REMARK    8  A    between atoms: C_13  and  P_28 
REMARK    9  A    between atoms: C_14  and  C_18 
REMARK   10  A    between atoms: C_14  and  C_21 
ROOT
HETATM    1  C   UNL     1      -9.277 -35.673   3.925  1.00  0.00    -0.016 C 
HETATM    2  C   UNL     1      -9.203 -36.614   4.953  1.00  0.00     0.012 C 
HETATM    3  C   UNL     1      -7.477 -35.839   6.572  1.00  0.00     0.101 C 
HETATM    4  C   UNL     1      -8.343 -36.753   6.039  1.00  0.00     0.025 C 
HETATM    5  C   UNL     1      -8.549 -34.489   4.018  1.00  0.00     0.013 C 
HETATM    6  C   UNL     1      -7.501 -34.142   4.830  1.00  0.00     0.039 C 
HETATM    7  C   UNL     1      -6.874 -34.798   5.874  1.00  0.00     0.089 C 
ENDROOT
BRANCH   7   8
HETATM    8  O   UNL     1      -5.603 -34.409   6.244  1.00  0.00    -0.345 OA
BRANCH   8   9
HETATM    9  C   UNL     1      -4.905 -33.640   5.269  1.00  0.00     0.214 C 
BRANCH   9  10
HETATM   10  C   UNL     1      -4.214 -32.471   5.945  1.00  0.00    -0.034 C 
HETATM   11  C   UNL     1      -4.075 -31.291   5.221  1.00  0.00     0.010 C 
HETATM   12  C   UNL     1      -3.128 -30.363   5.644  1.00  0.00     0.007 C 
HETATM   13  C   UNL     1      -2.427 -30.545   6.828  1.00  0.00    -0.058 C 
HETATM   14  C   UNL     1      -2.739 -31.627   7.642  1.00  0.00     0.007 C 
HETATM   15  C   UNL     1      -3.729 -32.523   7.237  1.00  0.00     0.010 C 
BRANCH  13  16
HETATM   16  C   UNL     1      -1.276 -29.613   7.151  1.00  0.00     0.041 C 
BRANCH  16  17
HETATM   17  C   UNL     1      -1.413 -28.197   6.602  1.00  0.00     0.030 C 
BRANCH  17  18
HETATM   18  C   UNL     1      -2.090 -27.257   7.587  1.00  0.00     0.164 C 
BRANCH  18  19
HETATM   19  O   UNL     1      -3.378 -26.915   7.112  1.00  0.00    -0.401 OA
ATOM     20  HO  UNL     1      -3.720 -27.623   6.578  1.00  0.00     0.209 HD
ENDBRANCH  18  19
ENDBRANCH  17  18
ENDBRANCH  16  17
ENDBRANCH  13  16
ENDBRANCH   9  10
ENDBRANCH   8   9
ENDBRANCH   7   8
BRANCH   3  21
HETATM   21  P   UNL     1      -7.049 -35.801   8.302  1.00  0.00     0.298 P 
HETATM   22  O   UNL     1      -8.273 -36.414   8.952  1.00  0.00    -0.636 OA
HETATM   23  O   UNL     1      -6.924 -34.415   8.847  1.00  0.00    -0.636 OA
HETATM   24  O   UNL     1      -5.709 -36.461   8.347  1.00  0.00    -0.636 OA
ENDBRANCH   3  21
BRANCH   1  25
HETATM   25  C   UNL     1     -10.114 -35.952   2.669  1.00  0.00     0.121 C 
HETATM   26  C   UNL     1     -10.574 -37.355   2.649  1.00  0.00     0.020 C 
HETATM   27  C   UNL     1     -10.318 -38.223   1.592  1.00  0.00    -0.000 C 
HETATM   28  C   UNL     1      -9.745 -37.761   0.415  1.00  0.00    -0.000 C 
HETATM   29  C   UNL     1      -9.378 -36.420   0.325  1.00  0.00    -0.000 C 
HETATM   30  C   UNL     1      -9.473 -35.571   1.409  1.00  0.00     0.020 C 
BRANCH  25  31
HETATM   31  O   UNL     1     -11.266 -35.164   2.883  1.00  0.00    -0.377 OA
ATOM     32  HO  UNL     1     -11.765 -35.202   2.076  1.00  0.00     0.211 HD
ENDBRANCH  25  31
ENDBRANCH   1  25
TORSDOF 10
ENDMDL
