REMARK  1 active torsions:
REMARK  status: ('A' for Active; 'I' for Inactive)
REMARK    1  A    between atoms: C_9  and  C_15 
ROOT
HETATM    1  C   UNL     1      21.165  17.319  69.713  1.00  0.00     0.019 C 
HETATM    2  O   UNL     1      22.871  20.324  68.698  1.00  0.00    -0.268 OA
HETATM    3  C   UNL     1      20.091  15.637  68.131  1.00  0.00     0.026 C 
HETATM    4  N   UNL     1      22.041  18.667  67.423  1.00  0.00    -0.323 N 
ATOM      5  HN  UNL     1      22.050  19.267  66.598  1.00  0.00     0.169 HD
HETATM    6  C   UNL     1      22.041  16.520  66.213  1.00  0.00     0.031 C 
HETATM    7  C   UNL     1      21.329  15.323  66.030  1.00  0.00     0.014 C 
HETATM    8  C   UNL     1      20.968  16.736  68.417  1.00  0.00    -0.008 C 
HETATM    9  C   UNL     1      22.389  19.185  68.661  1.00  0.00     0.245 C 
HETATM   10  C   UNL     1      20.172  15.043  66.833  1.00  0.00    -0.025 C 
HETATM   11  C   UNL     1      21.682  17.340  67.307  1.00  0.00     0.045 C 
HETATM   12  C   UNL     1      22.000  18.430  69.829  1.00  0.00     0.075 C 
ENDROOT
BRANCH  10  13
HETATM   13  C   UNL     1      19.123  14.111  66.260  1.00  0.00    -0.026 C 
HETATM   14  C   UNL     1      18.729  12.905  66.880  1.00  0.00     0.012 C 
HETATM   15  C   UNL     1      17.667  12.157  66.343  1.00  0.00     0.001 C 
HETATM   16  C   UNL     1      17.097  12.517  65.118  1.00  0.00     0.000 C 
HETATM   17  C   UNL     1      17.642  13.567  64.388  1.00  0.00     0.001 C 
HETATM   18  C   UNL     1      18.627  14.369  64.970  1.00  0.00     0.012 C 
ENDBRANCH  10  13
TORSDOF 1
