REMARK  2 active torsions:
REMARK  status: ('A' for Active; 'I' for Inactive)
REMARK    1  A    between atoms: C_1  and  C_23 
REMARK    2  A    between atoms: C_28  and  C_34 
ROOT
HETATM    1  O   UNL     1       8.764   7.127  26.586  1.00  0.00    -0.287 OA
HETATM    2  C   UNL     1       6.790  12.854  22.708  1.00  0.00    -0.005 C 
HETATM    3  C   UNL     1       7.595   7.633  26.757  1.00  0.00     0.190 C 
HETATM    4  C   UNL     1       6.042  11.990  21.671  1.00  0.00     0.025 C 
HETATM    5  C   UNL     1       5.960   8.965  25.660  1.00  0.00     0.002 C 
HETATM    6  C   UNL     1       5.416   9.395  26.877  1.00  0.00     0.015 C 
HETATM    7  C   UNL     1       5.214   9.422  22.223  1.00  0.00     0.255 C 
HETATM    8  N   UNL     1       5.638   8.635  23.292  1.00  0.00    -0.292 N 
HETATM    9  C   UNL     1       6.707  12.152  20.305  1.00  0.00     0.009 C 
HETATM   10  C   UNL     1       6.117  10.612  22.254  1.00  0.00     0.003 C 
HETATM   11  O   UNL     1       4.276   9.195  21.506  1.00  0.00    -0.267 OA
HETATM   12  C   UNL     1       5.876   9.581  24.350  1.00  0.00     0.039 C 
HETATM   13  C   UNL     1       6.216  14.250  22.396  1.00  0.00     0.005 C 
HETATM   14  C   UNL     1       6.305  12.211  24.030  1.00  0.00     0.021 C 
HETATM   15  C   UNL     1       5.984   8.920  28.063  1.00  0.00     0.013 C 
HETATM   16  C   UNL     1       6.692   7.742  25.653  1.00  0.00     0.028 C 
HETATM   17  C   UNL     1       5.893   7.269  23.414  1.00  0.00     0.101 C 
HETATM   18  C   UNL     1       6.735  14.686  21.018  1.00  0.00     0.000 C 
HETATM   19  C   UNL     1       7.204   8.206  28.019  1.00  0.00     0.004 C 
HETATM   20  C   UNL     1       6.747  13.630  19.909  1.00  0.00     0.001 C 
HETATM   21  C   UNL     1       6.564  10.740  23.704  1.00  0.00     0.072 C 
HETATM   22  C   UNL     1       6.512   6.838  24.566  1.00  0.00     0.034 C 
ENDROOT
BRANCH  19  23
HETATM   23  C   UNL     1       8.059   8.132  29.271  1.00  0.00     0.021 C 
HETATM   24  C   UNL     1       8.252   6.721  29.870  1.00  0.00     0.231 C 
HETATM   25  N   UNL     1       9.535   6.775  30.577  1.00  0.00    -0.066 N 
HETATM   26  C   UNL     1      10.256   7.985  30.185  1.00  0.00     0.234 C 
ATOM     27  HN2 UNL     1       9.421   6.704  31.588  1.00  0.00     0.278 HD
ATOM     28  HN1 UNL     1      10.090   5.932  30.433  1.00  0.00     0.278 HD
HETATM   29  C   UNL     1       9.510   8.532  28.974  1.00  0.00     0.044 C 
HETATM   30  C   UNL     1       7.580   9.143  30.298  1.00  0.00     0.023 C 
BRANCH  24  31
HETATM   31  C   UNL     1       7.200   6.209  30.832  1.00  0.00    -0.027 C 
HETATM   32  C   UNL     1       7.602   5.877  32.127  1.00  0.00     0.009 C 
HETATM   33  C   UNL     1       7.498   4.624  32.701  1.00  0.00     0.001 C 
HETATM   34  C   UNL     1       6.747   3.583  32.191  1.00  0.00     0.000 C 
HETATM   35  C   UNL     1       5.566   3.760  31.510  1.00  0.00     0.000 C 
HETATM   36  C   UNL     1       5.139   4.925  30.923  1.00  0.00     0.001 C 
HETATM   37  C   UNL     1       5.917   5.963  30.420  1.00  0.00     0.009 C 
ENDBRANCH  24  31
ENDBRANCH  19  23
TORSDOF 2
