MODEL 1
REMARK VINA RESULT:     -12.0      0.000      0.000
REMARK  6 active torsions:
REMARK  status: ('A' for Active; 'I' for Inactive)
REMARK    1  A    between atoms: O_3  and  C_30 
REMARK    2  A    between atoms: C_7  and  C_8 
REMARK    3  A    between atoms: C_7  and  C_18 
REMARK    4  A    between atoms: C_10  and  C_22 
REMARK    5  A    between atoms: C_21  and  C_22 
REMARK    6  A    between atoms: C_24  and  O_31 
ROOT
HETATM    1  C   UNL     1      51.349  43.491  -2.464  1.00  0.00     0.016 C 
HETATM    2  C   UNL     1      51.637  45.381  -0.971  1.00  0.00    -0.050 C 
HETATM    3  C   UNL     1      49.902  43.746  -0.532  1.00  0.00     0.016 C 
HETATM    4  C   UNL     1      50.410  42.955  -1.565  1.00  0.00     0.015 C 
HETATM    5  C   UNL     1      50.530  44.952  -0.212  1.00  0.00     0.009 C 
HETATM    6  C   UNL     1      51.877  44.767  -2.208  1.00  0.00     0.009 C 
ENDROOT
BRANCH   4   7
HETATM    7  C   UNL     1      49.941  41.524  -1.657  1.00  0.00     0.193 C 
HETATM    8  O   UNL     1      50.044  40.884  -0.616  1.00  0.00    -0.287 OA
BRANCH   7   9
HETATM    9  C   UNL     1      49.195  40.977  -2.856  1.00  0.00     0.024 C 
HETATM   10  C   UNL     1      48.359  39.828  -2.656  1.00  0.00    -0.011 C 
HETATM   11  C   UNL     1      47.327  39.593  -3.606  1.00  0.00     0.076 C 
HETATM   12  C   UNL     1      48.488  39.114  -1.309  1.00  0.00     0.045 C 
HETATM   13  O   UNL     1      46.334  38.675  -3.387  1.00  0.00    -0.348 OA
HETATM   14  C   UNL     1      47.322  40.276  -4.841  1.00  0.00     0.037 C 
HETATM   15  C   UNL     1      45.475  38.815  -2.250  1.00  0.00     0.207 C 
HETATM   16  C   UNL     1      46.095  38.459  -0.897  1.00  0.00     0.142 C 
HETATM   17  C   UNL     1      47.542  37.970  -0.999  1.00  0.00     0.039 C 
HETATM   18  C   UNL     1      48.299  41.235  -5.106  1.00  0.00     0.004 C 
HETATM   19  C   UNL     1      49.290  41.522  -4.150  1.00  0.00     0.016 C 
BRANCH  16  20
HETATM   20  O   UNL     1      45.329  37.444  -0.244  1.00  0.00    -0.393 OA
ATOM     21  HO  UNL     1      44.513  37.292  -0.706  1.00  0.00     0.210 HD
ENDBRANCH  16  20
ENDBRANCH   7   9
ENDBRANCH   4   7
BRANCH   2  22
HETATM   22  C   UNL     1      52.411  46.629  -0.532  1.00  0.00     0.047 C 
HETATM   23  C   UNL     1      52.602  46.588   0.991  1.00  0.00     0.020 C 
BRANCH  22  24
HETATM   24  C   UNL     1      53.743  46.882  -1.251  1.00  0.00    -0.050 C 
HETATM   25  C   UNL     1      53.866  47.535  -2.504  1.00  0.00     0.010 C 
HETATM   26  C   UNL     1      54.836  48.471  -2.844  1.00  0.00     0.037 C 
HETATM   27  C   UNL     1      55.926  48.906  -2.057  1.00  0.00     0.065 C 
HETATM   28  C   UNL     1      56.338  48.379  -0.805  1.00  0.00     0.036 C 
HETATM   29  C   UNL     1      56.011  47.148  -0.277  1.00  0.00     0.003 C 
HETATM   30  C   UNL     1      54.905  46.364  -0.625  1.00  0.00     0.008 C 
BRANCH  27  31
HETATM   31  O   UNL     1      56.797  49.779  -2.638  1.00  0.00    -0.361 OA
ATOM     32  HO  UNL     1      57.011  50.564  -2.148  1.00  0.00     0.217 HD
ENDBRANCH  27  31
ENDBRANCH  22  24
ENDBRANCH   2  22
TORSDOF 6
ENDMDL
MODEL 2
REMARK VINA RESULT:     -11.9      1.175      1.725
REMARK  6 active torsions:
REMARK  status: ('A' for Active; 'I' for Inactive)
REMARK    1  A    between atoms: O_3  and  C_30 
REMARK    2  A    between atoms: C_7  and  C_8 
REMARK    3  A    between atoms: C_7  and  C_18 
REMARK    4  A    between atoms: C_10  and  C_22 
REMARK    5  A    between atoms: C_21  and  C_22 
REMARK    6  A    between atoms: C_24  and  O_31 
ROOT
HETATM    1  C   UNL     1      51.334  43.479  -2.473  1.00  0.00     0.016 C 
HETATM    2  C   UNL     1      51.668  45.370  -0.991  1.00  0.00    -0.050 C 
HETATM    3  C   UNL     1      49.926  43.753  -0.514  1.00  0.00     0.016 C 
HETATM    4  C   UNL     1      50.407  42.954  -1.555  1.00  0.00     0.015 C 
HETATM    5  C   UNL     1      50.571  44.954  -0.209  1.00  0.00     0.009 C 
HETATM    6  C   UNL     1      51.878  44.751  -2.231  1.00  0.00     0.009 C 
ENDROOT
BRANCH   4   7
HETATM    7  C   UNL     1      49.923  41.528  -1.633  1.00  0.00     0.193 C 
HETATM    8  O   UNL     1      50.003  40.901  -0.582  1.00  0.00    -0.287 OA
BRANCH   7   9
HETATM    9  C   UNL     1      49.190  40.972  -2.836  1.00  0.00     0.024 C 
HETATM   10  C   UNL     1      48.358  39.820  -2.637  1.00  0.00    -0.011 C 
HETATM   11  C   UNL     1      47.334  39.575  -3.594  1.00  0.00     0.076 C 
HETATM   12  C   UNL     1      48.480  39.112  -1.287  1.00  0.00     0.045 C 
HETATM   13  O   UNL     1      46.344  38.653  -3.379  1.00  0.00    -0.348 OA
HETATM   14  C   UNL     1      47.335  40.253  -4.832  1.00  0.00     0.037 C 
HETATM   15  C   UNL     1      45.475  38.794  -2.249  1.00  0.00     0.207 C 
HETATM   16  C   UNL     1      46.087  38.447  -0.890  1.00  0.00     0.142 C 
HETATM   17  C   UNL     1      47.537  37.965  -0.979  1.00  0.00     0.039 C 
HETATM   18  C   UNL     1      48.309  41.215  -5.094  1.00  0.00     0.004 C 
HETATM   19  C   UNL     1      49.292  41.511  -4.132  1.00  0.00     0.016 C 
BRANCH  16  20
HETATM   20  O   UNL     1      45.321  37.430  -0.239  1.00  0.00    -0.393 OA
ATOM     21  HO  UNL     1      45.511  37.414   0.692  1.00  0.00     0.210 HD
ENDBRANCH  16  20
ENDBRANCH   7   9
ENDBRANCH   4   7
BRANCH   2  22
HETATM   22  C   UNL     1      52.461  46.613  -0.570  1.00  0.00     0.047 C 
HETATM   23  C   UNL     1      52.564  46.645   0.961  1.00  0.00     0.020 C 
BRANCH  22  24
HETATM   24  C   UNL     1      53.840  46.783  -1.222  1.00  0.00    -0.050 C 
HETATM   25  C   UNL     1      55.049  46.277  -0.683  1.00  0.00     0.010 C 
HETATM   26  C   UNL     1      56.071  45.666  -1.402  1.00  0.00     0.037 C 
HETATM   27  C   UNL     1      56.153  45.491  -2.801  1.00  0.00     0.065 C 
HETATM   28  C   UNL     1      55.273  46.023  -3.780  1.00  0.00     0.036 C 
HETATM   29  C   UNL     1      54.400  47.078  -3.623  1.00  0.00     0.003 C 
HETATM   30  C   UNL     1      53.883  47.553  -2.412  1.00  0.00     0.008 C 
BRANCH  27  31
HETATM   31  O   UNL     1      57.296  44.931  -3.288  1.00  0.00    -0.361 OA
ATOM     32  HO  UNL     1      58.116  45.234  -2.914  1.00  0.00     0.217 HD
ENDBRANCH  27  31
ENDBRANCH  22  24
ENDBRANCH   2  22
TORSDOF 6
ENDMDL
MODEL 3
REMARK VINA RESULT:     -11.3      1.966      2.439
REMARK  6 active torsions:
REMARK  status: ('A' for Active; 'I' for Inactive)
REMARK    1  A    between atoms: O_3  and  C_30 
REMARK    2  A    between atoms: C_7  and  C_8 
REMARK    3  A    between atoms: C_7  and  C_18 
REMARK    4  A    between atoms: C_10  and  C_22 
REMARK    5  A    between atoms: C_21  and  C_22 
REMARK    6  A    between atoms: C_24  and  O_31 
ROOT
HETATM    1  C   UNL     1      52.127  44.392  -2.686  1.00  0.00     0.016 C 
HETATM    2  C   UNL     1      53.187  46.093  -1.320  1.00  0.00    -0.050 C 
HETATM    3  C   UNL     1      51.009  45.228  -0.700  1.00  0.00     0.016 C 
HETATM    4  C   UNL     1      51.121  44.270  -1.711  1.00  0.00     0.015 C 
HETATM    5  C   UNL     1      52.055  46.128  -0.481  1.00  0.00     0.009 C 
HETATM    6  C   UNL     1      53.101  45.392  -2.530  1.00  0.00     0.009 C 
ENDROOT
BRANCH   4   7
HETATM    7  C   UNL     1      50.156  43.111  -1.697  1.00  0.00     0.193 C 
HETATM    8  O   UNL     1      49.539  42.971  -0.647  1.00  0.00    -0.287 OA
BRANCH   7   9
HETATM    9  C   UNL     1      49.803  42.319  -2.938  1.00  0.00     0.024 C 
HETATM   10  C   UNL     1      49.246  41.008  -2.758  1.00  0.00    -0.011 C 
HETATM   11  C   UNL     1      48.498  40.458  -3.836  1.00  0.00     0.076 C 
HETATM   12  C   UNL     1      49.289  40.435  -1.341  1.00  0.00     0.045 C 
HETATM   13  O   UNL     1      47.732  39.332  -3.688  1.00  0.00    -0.348 OA
HETATM   14  C   UNL     1      48.559  41.040  -5.120  1.00  0.00     0.037 C 
HETATM   15  C   UNL     1      46.668  39.317  -2.731  1.00  0.00     0.207 C 
HETATM   16  C   UNL     1      47.091  39.216  -1.264  1.00  0.00     0.142 C 
HETATM   17  C   UNL     1      48.605  39.109  -1.072  1.00  0.00     0.039 C 
HETATM   18  C   UNL     1      49.309  42.199  -5.320  1.00  0.00     0.004 C 
HETATM   19  C   UNL     1      50.005  42.789  -4.250  1.00  0.00     0.016 C 
BRANCH  16  20
HETATM   20  O   UNL     1      46.484  38.080  -0.642  1.00  0.00    -0.393 OA
ATOM     21  HO  UNL     1      45.547  38.075  -0.798  1.00  0.00     0.210 HD
ENDBRANCH  16  20
ENDBRANCH   7   9
ENDBRANCH   4   7
BRANCH   2  22
HETATM   22  C   UNL     1      54.392  46.983  -0.992  1.00  0.00     0.047 C 
HETATM   23  C   UNL     1      54.513  47.118   0.532  1.00  0.00     0.020 C 
BRANCH  22  24
HETATM   24  C   UNL     1      55.728  46.563  -1.619  1.00  0.00    -0.050 C 
HETATM   25  C   UNL     1      56.203  45.229  -1.675  1.00  0.00     0.010 C 
HETATM   26  C   UNL     1      56.833  44.631  -2.762  1.00  0.00     0.037 C 
HETATM   27  C   UNL     1      57.193  45.236  -3.987  1.00  0.00     0.065 C 
HETATM   28  C   UNL     1      57.109  46.615  -4.314  1.00  0.00     0.036 C 
HETATM   29  C   UNL     1      57.011  47.671  -3.434  1.00  0.00     0.003 C 
HETATM   30  C   UNL     1      56.548  47.609  -2.114  1.00  0.00     0.008 C 
BRANCH  27  31
HETATM   31  O   UNL     1      57.879  44.466  -4.878  1.00  0.00    -0.361 OA
ATOM     32  HO  UNL     1      58.334  44.919  -5.578  1.00  0.00     0.217 HD
ENDBRANCH  27  31
ENDBRANCH  22  24
ENDBRANCH   2  22
TORSDOF 6
ENDMDL
MODEL 4
REMARK VINA RESULT:     -10.6      5.335     10.511
REMARK  6 active torsions:
REMARK  status: ('A' for Active; 'I' for Inactive)
REMARK    1  A    between atoms: O_3  and  C_30 
REMARK    2  A    between atoms: C_7  and  C_8 
REMARK    3  A    between atoms: C_7  and  C_18 
REMARK    4  A    between atoms: C_10  and  C_22 
REMARK    5  A    between atoms: C_21  and  C_22 
REMARK    6  A    between atoms: C_24  and  O_31 
ROOT
HETATM    1  C   UNL     1      57.064  47.778  -3.774  1.00  0.00     0.016 C 
HETATM    2  C   UNL     1      56.150  46.309  -2.075  1.00  0.00    -0.050 C 
HETATM    3  C   UNL     1      57.107  45.373  -4.096  1.00  0.00     0.016 C 
HETATM    4  C   UNL     1      57.547  46.648  -4.458  1.00  0.00     0.015 C 
HETATM    5  C   UNL     1      56.428  45.192  -2.888  1.00  0.00     0.009 C 
HETATM    6  C   UNL     1      56.266  47.588  -2.634  1.00  0.00     0.009 C 
ENDROOT
BRANCH   4   7
HETATM    7  C   UNL     1      58.562  46.758  -5.568  1.00  0.00     0.193 C 
HETATM    8  O   UNL     1      59.279  47.750  -5.510  1.00  0.00    -0.287 OA
BRANCH   7   9
HETATM    9  C   UNL     1      58.835  45.635  -6.547  1.00  0.00     0.024 C 
HETATM   10  C   UNL     1      58.195  45.697  -7.830  1.00  0.00    -0.011 C 
HETATM   11  C   UNL     1      58.776  44.949  -8.892  1.00  0.00     0.076 C 
HETATM   12  C   UNL     1      57.106  46.757  -8.001  1.00  0.00     0.045 C 
HETATM   13  O   UNL     1      58.393  45.120 -10.196  1.00  0.00    -0.348 OA
HETATM   14  C   UNL     1      59.747  43.961  -8.622  1.00  0.00     0.037 C 
HETATM   15  C   UNL     1      58.528  46.405 -10.813  1.00  0.00     0.207 C 
HETATM   16  C   UNL     1      57.512  47.463 -10.381  1.00  0.00     0.142 C 
HETATM   17  C   UNL     1      56.484  46.947  -9.372  1.00  0.00     0.039 C 
HETATM   18  C   UNL     1      60.187  43.760  -7.315  1.00  0.00     0.004 C 
HETATM   19  C   UNL     1      59.665  44.535  -6.263  1.00  0.00     0.016 C 
BRANCH  16  20
HETATM   20  O   UNL     1      56.803  47.973 -11.513  1.00  0.00    -0.393 OA
ATOM     21  HO  UNL     1      57.064  48.869 -11.695  1.00  0.00     0.210 HD
ENDBRANCH  16  20
ENDBRANCH   7   9
ENDBRANCH   4   7
BRANCH   2  22
HETATM   22  C   UNL     1      55.534  46.092  -0.688  1.00  0.00     0.047 C 
HETATM   23  C   UNL     1      56.356  46.869   0.351  1.00  0.00     0.020 C 
BRANCH  22  24
HETATM   24  C   UNL     1      54.038  46.408  -0.560  1.00  0.00    -0.050 C 
HETATM   25  C   UNL     1      53.120  46.389  -1.639  1.00  0.00     0.010 C 
HETATM   26  C   UNL     1      51.828  45.873  -1.604  1.00  0.00     0.037 C 
HETATM   27  C   UNL     1      51.146  45.340  -0.488  1.00  0.00     0.065 C 
HETATM   28  C   UNL     1      51.586  45.342   0.862  1.00  0.00     0.036 C 
HETATM   29  C   UNL     1      52.557  46.149   1.416  1.00  0.00     0.003 C 
HETATM   30  C   UNL     1      53.585  46.801   0.725  1.00  0.00     0.008 C 
BRANCH  27  31
HETATM   31  O   UNL     1      49.849  44.967  -0.678  1.00  0.00    -0.361 OA
ATOM     32  HO  UNL     1      49.247  45.122   0.041  1.00  0.00     0.217 HD
ENDBRANCH  27  31
ENDBRANCH  22  24
ENDBRANCH   2  22
TORSDOF 6
ENDMDL
MODEL 5
REMARK VINA RESULT:     -10.6      2.915     10.573
REMARK  6 active torsions:
REMARK  status: ('A' for Active; 'I' for Inactive)
REMARK    1  A    between atoms: O_3  and  C_30 
REMARK    2  A    between atoms: C_7  and  C_8 
REMARK    3  A    between atoms: C_7  and  C_18 
REMARK    4  A    between atoms: C_10  and  C_22 
REMARK    5  A    between atoms: C_21  and  C_22 
REMARK    6  A    between atoms: C_24  and  O_31 
ROOT
HETATM    1  C   UNL     1      55.599  46.076  -1.168  1.00  0.00     0.016 C 
HETATM    2  C   UNL     1      53.187  45.818  -1.122  1.00  0.00    -0.050 C 
HETATM    3  C   UNL     1      54.325  46.189  -3.231  1.00  0.00     0.016 C 
HETATM    4  C   UNL     1      55.550  46.058  -2.573  1.00  0.00     0.015 C 
HETATM    5  C   UNL     1      53.135  46.043  -2.513  1.00  0.00     0.009 C 
HETATM    6  C   UNL     1      54.392  46.067  -0.450  1.00  0.00     0.009 C 
ENDROOT
BRANCH   4   7
HETATM    7  C   UNL     1      56.788  45.872  -3.414  1.00  0.00     0.193 C 
HETATM    8  O   UNL     1      57.397  44.828  -3.206  1.00  0.00    -0.287 OA
BRANCH   7   9
HETATM    9  C   UNL     1      57.138  46.777  -4.577  1.00  0.00     0.024 C 
HETATM   10  C   UNL     1      57.453  48.147  -4.286  1.00  0.00    -0.011 C 
HETATM   11  C   UNL     1      58.212  48.866  -5.251  1.00  0.00     0.076 C 
HETATM   12  C   UNL     1      57.169  48.627  -2.862  1.00  0.00     0.045 C 
HETATM   13  O   UNL     1      58.766  50.088  -4.976  1.00  0.00    -0.348 OA
HETATM   14  C   UNL     1      58.381  48.353  -6.555  1.00  0.00     0.037 C 
HETATM   15  C   UNL     1      59.707  50.217  -3.905  1.00  0.00     0.207 C 
HETATM   16  C   UNL     1      59.121  50.169  -2.492  1.00  0.00     0.142 C 
HETATM   17  C   UNL     1      57.598  50.027  -2.468  1.00  0.00     0.039 C 
HETATM   18  C   UNL     1      57.854  47.104  -6.882  1.00  0.00     0.004 C 
HETATM   19  C   UNL     1      57.154  46.355  -5.920  1.00  0.00     0.016 C 
BRANCH  16  20
HETATM   20  O   UNL     1      59.468  51.350  -1.763  1.00  0.00    -0.393 OA
ATOM     21  HO  UNL     1      58.699  51.888  -1.614  1.00  0.00     0.210 HD
ENDBRANCH  16  20
ENDBRANCH   7   9
ENDBRANCH   4   7
BRANCH   2  22
HETATM   22  C   UNL     1      51.891  45.518  -0.361  1.00  0.00     0.047 C 
HETATM   23  C   UNL     1      51.193  46.842  -0.020  1.00  0.00     0.020 C 
BRANCH  22  24
HETATM   24  C   UNL     1      50.924  44.540  -1.041  1.00  0.00    -0.050 C 
HETATM   25  C   UNL     1      51.002  44.152  -2.402  1.00  0.00     0.010 C 
HETATM   26  C   UNL     1      50.816  42.865  -2.896  1.00  0.00     0.037 C 
HETATM   27  C   UNL     1      50.444  41.711  -2.172  1.00  0.00     0.065 C 
HETATM   28  C   UNL     1      50.049  41.650  -0.809  1.00  0.00     0.036 C 
HETATM   29  C   UNL     1      49.607  42.696  -0.027  1.00  0.00     0.003 C 
HETATM   30  C   UNL     1      49.854  44.056  -0.246  1.00  0.00     0.008 C 
BRANCH  27  31
HETATM   31  O   UNL     1      50.242  40.570  -2.889  1.00  0.00    -0.361 OA
ATOM     32  HO  UNL     1      50.904  39.893  -2.815  1.00  0.00     0.217 HD
ENDBRANCH  27  31
ENDBRANCH  22  24
ENDBRANCH   2  22
TORSDOF 6
ENDMDL
MODEL 6
REMARK VINA RESULT:     -10.5      2.061      9.715
REMARK  6 active torsions:
REMARK  status: ('A' for Active; 'I' for Inactive)
REMARK    1  A    between atoms: O_3  and  C_30 
REMARK    2  A    between atoms: C_7  and  C_8 
REMARK    3  A    between atoms: C_7  and  C_18 
REMARK    4  A    between atoms: C_10  and  C_22 
REMARK    5  A    between atoms: C_21  and  C_22 
REMARK    6  A    between atoms: C_24  and  O_31 
ROOT
HETATM    1  C   UNL     1      50.283  44.425  -0.455  1.00  0.00     0.016 C 
HETATM    2  C   UNL     1      50.176  42.195  -1.404  1.00  0.00    -0.050 C 
HETATM    3  C   UNL     1      51.275  43.979  -2.625  1.00  0.00     0.016 C 
HETATM    4  C   UNL     1      51.130  44.808  -1.510  1.00  0.00     0.015 C 
HETATM    5  C   UNL     1      50.822  42.658  -2.568  1.00  0.00     0.009 C 
HETATM    6  C   UNL     1      49.719  43.139  -0.474  1.00  0.00     0.009 C 
ENDROOT
BRANCH   4   7
HETATM    7  C   UNL     1      51.926  46.089  -1.473  1.00  0.00     0.193 C 
HETATM    8  O   UNL     1      51.327  47.075  -1.887  1.00  0.00    -0.287 OA
BRANCH   7   9
HETATM    9  C   UNL     1      53.267  46.206  -0.779  1.00  0.00     0.024 C 
HETATM   10  C   UNL     1      54.448  46.000  -1.568  1.00  0.00    -0.011 C 
HETATM   11  C   UNL     1      55.668  46.546  -1.080  1.00  0.00     0.076 C 
HETATM   12  C   UNL     1      54.241  45.440  -2.976  1.00  0.00     0.045 C 
HETATM   13  O   UNL     1      56.794  46.615  -1.856  1.00  0.00    -0.348 OA
HETATM   14  C   UNL     1      55.766  46.999   0.253  1.00  0.00     0.037 C 
HETATM   15  C   UNL     1      56.768  47.352  -3.083  1.00  0.00     0.207 C 
HETATM   16  C   UNL     1      56.016  46.695  -4.241  1.00  0.00     0.142 C 
HETATM   17  C   UNL     1      55.442  45.319  -3.894  1.00  0.00     0.039 C 
HETATM   18  C   UNL     1      54.644  46.969   1.080  1.00  0.00     0.004 C 
HETATM   19  C   UNL     1      53.415  46.488   0.592  1.00  0.00     0.016 C 
BRANCH  16  20
HETATM   20  O   UNL     1      56.873  46.544  -5.376  1.00  0.00    -0.393 OA
ATOM     21  HO  UNL     1      56.414  46.777  -6.175  1.00  0.00     0.210 HD
ENDBRANCH  16  20
ENDBRANCH   7   9
ENDBRANCH   4   7
BRANCH   2  22
HETATM   22  C   UNL     1      49.808  40.712  -1.289  1.00  0.00     0.047 C 
HETATM   23  C   UNL     1      49.036  40.489   0.019  1.00  0.00     0.020 C 
BRANCH  22  24
HETATM   24  C   UNL     1      49.058  40.111  -2.485  1.00  0.00    -0.050 C 
HETATM   25  C   UNL     1      47.945  39.240  -2.377  1.00  0.00     0.010 C 
HETATM   26  C   UNL     1      46.797  39.282  -3.161  1.00  0.00     0.037 C 
HETATM   27  C   UNL     1      46.534  40.135  -4.257  1.00  0.00     0.065 C 
HETATM   28  C   UNL     1      47.442  41.035  -4.873  1.00  0.00     0.036 C 
HETATM   29  C   UNL     1      48.817  41.016  -4.785  1.00  0.00     0.003 C 
HETATM   30  C   UNL     1      49.574  40.417  -3.770  1.00  0.00     0.008 C 
BRANCH  27  31
HETATM   31  O   UNL     1      45.364  39.936  -4.927  1.00  0.00    -0.361 OA
ATOM     32  HO  UNL     1      44.581  40.319  -4.549  1.00  0.00     0.217 HD
ENDBRANCH  27  31
ENDBRANCH  22  24
ENDBRANCH   2  22
TORSDOF 6
ENDMDL
MODEL 7
REMARK VINA RESULT:     -10.4      3.464     10.633
REMARK  6 active torsions:
REMARK  status: ('A' for Active; 'I' for Inactive)
REMARK    1  A    between atoms: O_3  and  C_30 
REMARK    2  A    between atoms: C_7  and  C_8 
REMARK    3  A    between atoms: C_7  and  C_18 
REMARK    4  A    between atoms: C_10  and  C_22 
REMARK    5  A    between atoms: C_21  and  C_22 
REMARK    6  A    between atoms: C_24  and  O_31 
ROOT
HETATM    1  C   UNL     1      55.967  46.844  -0.683  1.00  0.00     0.016 C 
HETATM    2  C   UNL     1      53.599  46.337  -0.538  1.00  0.00    -0.050 C 
HETATM    3  C   UNL     1      54.456  47.583  -2.433  1.00  0.00     0.016 C 
HETATM    4  C   UNL     1      55.756  47.345  -1.979  1.00  0.00     0.015 C 
HETATM    5  C   UNL     1      53.371  47.057  -1.728  1.00  0.00     0.009 C 
HETATM    6  C   UNL     1      54.855  46.442   0.075  1.00  0.00     0.009 C 
ENDROOT
BRANCH   4   7
HETATM    7  C   UNL     1      56.897  47.616  -2.928  1.00  0.00     0.193 C 
HETATM    8  O   UNL     1      57.552  48.619  -2.668  1.00  0.00    -0.287 OA
BRANCH   7   9
HETATM    9  C   UNL     1      57.347  46.624  -3.980  1.00  0.00     0.024 C 
HETATM   10  C   UNL     1      58.005  47.139  -5.146  1.00  0.00    -0.011 C 
HETATM   11  C   UNL     1      58.824  46.244  -5.889  1.00  0.00     0.076 C 
HETATM   12  C   UNL     1      57.972  48.657  -5.337  1.00  0.00     0.045 C 
HETATM   13  O   UNL     1      59.676  46.681  -6.869  1.00  0.00    -0.348 OA
HETATM   14  C   UNL     1      58.748  44.852  -5.665  1.00  0.00     0.037 C 
HETATM   15  C   UNL     1      60.712  47.614  -6.545  1.00  0.00     0.207 C 
HETATM   16  C   UNL     1      60.261  49.055  -6.300  1.00  0.00     0.142 C 
HETATM   17  C   UNL     1      58.756  49.263  -6.485  1.00  0.00     0.039 C 
HETATM   18  C   UNL     1      57.912  44.356  -4.666  1.00  0.00     0.004 C 
HETATM   19  C   UNL     1      57.142  45.235  -3.883  1.00  0.00     0.016 C 
BRANCH  16  20
HETATM   20  O   UNL     1      60.943  49.952  -7.181  1.00  0.00    -0.393 OA
ATOM     21  HO  UNL     1      60.699  49.784  -8.084  1.00  0.00     0.210 HD
ENDBRANCH  16  20
ENDBRANCH   7   9
ENDBRANCH   4   7
BRANCH   2  22
HETATM   22  C   UNL     1      52.423  45.641   0.156  1.00  0.00     0.047 C 
HETATM   23  C   UNL     1      51.688  46.662   1.037  1.00  0.00     0.020 C 
BRANCH  22  24
HETATM   24  C   UNL     1      51.445  44.897  -0.763  1.00  0.00    -0.050 C 
HETATM   25  C   UNL     1      51.714  44.559  -2.113  1.00  0.00     0.010 C 
HETATM   26  C   UNL     1      51.398  43.353  -2.731  1.00  0.00     0.037 C 
HETATM   27  C   UNL     1      50.691  42.262  -2.178  1.00  0.00     0.065 C 
HETATM   28  C   UNL     1      50.037  42.221  -0.920  1.00  0.00     0.036 C 
HETATM   29  C   UNL     1      49.647  43.297  -0.152  1.00  0.00     0.003 C 
HETATM   30  C   UNL     1      50.173  44.593  -0.215  1.00  0.00     0.008 C 
BRANCH  27  31
HETATM   31  O   UNL     1      50.430  41.212  -3.007  1.00  0.00    -0.361 OA
ATOM     32  HO  UNL     1      51.032  40.478  -2.974  1.00  0.00     0.217 HD
ENDBRANCH  27  31
ENDBRANCH  22  24
ENDBRANCH   2  22
TORSDOF 6
ENDMDL
MODEL 8
REMARK VINA RESULT:     -10.3      1.979     10.263
REMARK  6 active torsions:
REMARK  status: ('A' for Active; 'I' for Inactive)
REMARK    1  A    between atoms: O_3  and  C_30 
REMARK    2  A    between atoms: C_7  and  C_8 
REMARK    3  A    between atoms: C_7  and  C_18 
REMARK    4  A    between atoms: C_10  and  C_22 
REMARK    5  A    between atoms: C_21  and  C_22 
REMARK    6  A    between atoms: C_24  and  O_31 
ROOT
HETATM    1  C   UNL     1      52.303  43.169  -3.263  1.00  0.00     0.016 C 
HETATM    2  C   UNL     1      49.934  42.653  -3.347  1.00  0.00    -0.050 C 
HETATM    3  C   UNL     1      50.760  44.292  -1.763  1.00  0.00     0.016 C 
HETATM    4  C   UNL     1      52.020  44.210  -2.361  1.00  0.00     0.015 C 
HETATM    5  C   UNL     1      49.702  43.533  -2.271  1.00  0.00     0.009 C 
HETATM    6  C   UNL     1      51.258  42.321  -3.666  1.00  0.00     0.009 C 
ENDROOT
BRANCH   4   7
HETATM    7  C   UNL     1      53.032  45.278  -2.028  1.00  0.00     0.193 C 
HETATM    8  O   UNL     1      52.736  45.982  -1.069  1.00  0.00    -0.287 OA
BRANCH   7   9
HETATM    9  C   UNL     1      54.402  45.342  -2.669  1.00  0.00     0.024 C 
HETATM   10  C   UNL     1      55.076  46.609  -2.680  1.00  0.00    -0.011 C 
HETATM   11  C   UNL     1      56.490  46.601  -2.837  1.00  0.00     0.076 C 
HETATM   12  C   UNL     1      54.249  47.828  -2.267  1.00  0.00     0.045 C 
HETATM   13  O   UNL     1      57.251  47.721  -2.626  1.00  0.00    -0.348 OA
HETATM   14  C   UNL     1      57.156  45.432  -3.263  1.00  0.00     0.037 C 
HETATM   15  C   UNL     1      57.236  48.360  -1.345  1.00  0.00     0.207 C 
HETATM   16  C   UNL     1      55.975  49.160  -1.013  1.00  0.00     0.142 C 
HETATM   17  C   UNL     1      54.943  49.170  -2.143  1.00  0.00     0.039 C 
HETATM   18  C   UNL     1      56.431  44.259  -3.473  1.00  0.00     0.004 C 
HETATM   19  C   UNL     1      55.040  44.237  -3.263  1.00  0.00     0.016 C 
BRANCH  16  20
HETATM   20  O   UNL     1      56.306  50.516  -0.703  1.00  0.00    -0.393 OA
ATOM     21  HO  UNL     1      56.599  50.975  -1.482  1.00  0.00     0.210 HD
ENDBRANCH  16  20
ENDBRANCH   7   9
ENDBRANCH   4   7
BRANCH   2  22
HETATM   22  C   UNL     1      48.748  41.929  -3.993  1.00  0.00     0.047 C 
HETATM   23  C   UNL     1      48.962  41.877  -5.513  1.00  0.00     0.020 C 
BRANCH  22  24
HETATM   24  C   UNL     1      48.422  40.539  -3.432  1.00  0.00    -0.050 C 
HETATM   25  C   UNL     1      48.943  40.022  -2.219  1.00  0.00     0.010 C 
HETATM   26  C   UNL     1      48.233  39.297  -1.268  1.00  0.00     0.037 C 
HETATM   27  C   UNL     1      46.889  38.867  -1.342  1.00  0.00     0.065 C 
HETATM   28  C   UNL     1      46.022  38.967  -2.461  1.00  0.00     0.036 C 
HETATM   29  C   UNL     1      46.385  39.160  -3.777  1.00  0.00     0.003 C 
HETATM   30  C   UNL     1      47.587  39.717  -4.231  1.00  0.00     0.008 C 
BRANCH  27  31
HETATM   31  O   UNL     1      46.431  38.095  -0.316  1.00  0.00    -0.361 OA
ATOM     32  HO  UNL     1      46.844  37.247  -0.198  1.00  0.00     0.217 HD
ENDBRANCH  27  31
ENDBRANCH  22  24
ENDBRANCH   2  22
TORSDOF 6
ENDMDL
MODEL 9
REMARK VINA RESULT:     -10.3      1.379      2.294
REMARK  6 active torsions:
REMARK  status: ('A' for Active; 'I' for Inactive)
REMARK    1  A    between atoms: O_3  and  C_30 
REMARK    2  A    between atoms: C_7  and  C_8 
REMARK    3  A    between atoms: C_7  and  C_18 
REMARK    4  A    between atoms: C_10  and  C_22 
REMARK    5  A    between atoms: C_21  and  C_22 
REMARK    6  A    between atoms: C_24  and  O_31 
ROOT
HETATM    1  C   UNL     1      52.331  44.368  -2.888  1.00  0.00     0.016 C 
HETATM    2  C   UNL     1      53.723  45.728  -1.441  1.00  0.00    -0.050 C 
HETATM    3  C   UNL     1      51.407  45.317  -0.854  1.00  0.00     0.016 C 
HETATM    4  C   UNL     1      51.317  44.413  -1.915  1.00  0.00     0.015 C 
HETATM    5  C   UNL     1      52.620  45.960  -0.594  1.00  0.00     0.009 C 
HETATM    6  C   UNL     1      53.495  45.127  -2.686  1.00  0.00     0.009 C 
ENDROOT
BRANCH   4   7
HETATM    7  C   UNL     1      50.127  43.487  -1.956  1.00  0.00     0.193 C 
HETATM    8  O   UNL     1      49.318  43.653  -1.050  1.00  0.00    -0.287 OA
BRANCH   7   9
HETATM    9  C   UNL     1      49.828  42.582  -3.133  1.00  0.00     0.024 C 
HETATM   10  C   UNL     1      49.390  41.244  -2.852  1.00  0.00    -0.011 C 
HETATM   11  C   UNL     1      48.679  40.557  -3.875  1.00  0.00     0.076 C 
HETATM   12  C   UNL     1      49.502  40.778  -1.400  1.00  0.00     0.045 C 
HETATM   13  O   UNL     1      48.017  39.382  -3.635  1.00  0.00    -0.348 OA
HETATM   14  C   UNL     1      48.672  41.051  -5.197  1.00  0.00     0.037 C 
HETATM   15  C   UNL     1      46.971  39.342  -2.659  1.00  0.00     0.207 C 
HETATM   16  C   UNL     1      47.420  39.382  -1.197  1.00  0.00     0.142 C 
HETATM   17  C   UNL     1      48.941  39.419  -1.027  1.00  0.00     0.039 C 
HETATM   18  C   UNL     1      49.314  42.253  -5.491  1.00  0.00     0.004 C 
HETATM   19  C   UNL     1      49.970  42.974  -4.477  1.00  0.00     0.016 C 
BRANCH  16  20
HETATM   20  O   UNL     1      46.923  38.244  -0.487  1.00  0.00    -0.393 OA
ATOM     21  HO  UNL     1      46.102  37.948  -0.862  1.00  0.00     0.210 HD
ENDBRANCH  16  20
ENDBRANCH   7   9
ENDBRANCH   4   7
BRANCH   2  22
HETATM   22  C   UNL     1      55.089  46.322  -1.074  1.00  0.00     0.047 C 
HETATM   23  C   UNL     1      56.194  45.427  -1.654  1.00  0.00     0.020 C 
BRANCH  22  24
HETATM   24  C   UNL     1      55.307  47.791  -1.456  1.00  0.00    -0.050 C 
HETATM   25  C   UNL     1      55.524  48.838  -0.525  1.00  0.00     0.010 C 
HETATM   26  C   UNL     1      56.443  49.873  -0.660  1.00  0.00     0.037 C 
HETATM   27  C   UNL     1      57.285  50.138  -1.763  1.00  0.00     0.065 C 
HETATM   28  C   UNL     1      57.272  49.482  -3.022  1.00  0.00     0.036 C 
HETATM   29  C   UNL     1      56.247  48.730  -3.555  1.00  0.00     0.003 C 
HETATM   30  C   UNL     1      55.221  48.103  -2.837  1.00  0.00     0.008 C 
BRANCH  27  31
HETATM   31  O   UNL     1      58.049  51.265  -1.699  1.00  0.00    -0.361 OA
ATOM     32  HO  UNL     1      58.785  51.320  -2.299  1.00  0.00     0.217 HD
ENDBRANCH  27  31
ENDBRANCH  22  24
ENDBRANCH   2  22
TORSDOF 6
ENDMDL
