REMARK  5 active torsions:
REMARK  status: ('A' for Active; 'I' for Inactive)
REMARK    1  A    between atoms: C_5  and  C_20 
REMARK    2  A    between atoms: C_8  and  C_31 
REMARK    3  A    between atoms: C_9  and  C_22 
REMARK    4  A    between atoms: CA_15  and  C_19 
REMARK    5  A    between atoms: C_23  and  O_28 
ROOT
HETATM    1  C   UNL     1     -27.347  22.789 -16.402  1.00  0.00     0.015 C 
HETATM    2  C   UNL     1     -27.051  22.591 -17.754  1.00  0.00     0.015 C 
HETATM    3  C   UNL     1     -29.026  21.231 -17.977  1.00  0.00     0.042 C 
HETATM    4  C   UNL     1     -28.603  22.401 -15.902  1.00  0.00     0.002 C 
HETATM    5  C   UNL     1     -28.128  22.172 -18.607  1.00  0.00     0.194 C 
HETATM    6  C   UNL     1     -29.365  21.502 -16.648  1.00  0.00     0.018 C 
HETATM    7  O   UNL     1     -28.296  22.609 -19.787  1.00  0.00    -0.287 OA
ENDROOT
BRANCH   2   8
HETATM    8  C   UNL     1     -25.719  22.662 -18.275  1.00  0.00     0.016 C 
HETATM    9  C   UNL     1     -24.500  22.392 -18.378  1.00  0.00     0.012 C 
BRANCH   9  10
HETATM   10  C   UNL     1     -23.596  22.096 -19.516  1.00  0.00    -0.035 C 
HETATM   11  C   UNL     1     -22.413  21.416 -19.224  1.00  0.00     0.025 C 
HETATM   12  C   UNL     1     -21.552  21.033 -20.265  1.00  0.00    -0.009 C 
HETATM   13  C   UNL     1     -21.812  21.519 -21.568  1.00  0.00     0.043 C 
HETATM   14  C   UNL     1     -20.689  19.921 -20.141  1.00  0.00     0.016 C 
HETATM   15  N   UNL     1     -20.822  21.321 -22.493  1.00  0.00    -0.350 N 
HETATM   16  C   UNL     1     -22.999  22.192 -21.847  1.00  0.00     0.031 C 
HETATM   17  CA  UNL     1     -20.281  20.068 -22.475  1.00  0.00     0.110 C 
ATOM     18  HN  UNL     1     -20.515  22.047 -23.140  1.00  0.00     0.166 HD
HETATM   19  C   UNL     1     -19.951  19.509 -21.234  1.00  0.00     0.037 C 
HETATM   20  C   UNL     1     -23.958  22.322 -20.847  1.00  0.00     0.013 C 
BRANCH  17  21
HETATM   21  C   UNL     1     -20.138  19.369 -23.791  1.00  0.00     0.226 C 
HETATM   22  O   UNL     1     -20.477  18.165 -23.873  1.00  0.00    -0.643 OA
HETATM   23  OXT UNL     1     -19.888  20.053 -24.804  1.00  0.00    -0.643 OA
ENDBRANCH  17  21
ENDBRANCH   9  10
ENDBRANCH   2   8
BRANCH   3  24
HETATM   24  C   UNL     1     -29.411  20.000 -18.656  1.00  0.00     0.046 C 
HETATM   25  N   UNL     1     -29.877  18.981 -17.933  1.00  0.00    -0.365 N 
HETATM   26  C   UNL     1     -30.846  18.143 -18.289  1.00  0.00     0.091 C 
ATOM     27  HN  UNL     1     -29.449  18.830 -17.019  1.00  0.00     0.165 HD
HETATM   28  C   UNL     1     -31.204  17.670 -19.528  1.00  0.00     0.053 C 
HETATM   29  C   UNL     1     -30.379  17.744 -20.653  1.00  0.00     0.067 C 
HETATM   30  C   UNL     1     -29.548  18.853 -20.892  1.00  0.00     0.039 C 
HETATM   31  C   UNL     1     -29.205  19.854 -20.043  1.00  0.00     0.033 C 
BRANCH  29  32
HETATM   32  O   UNL     1     -30.220  16.649 -21.408  1.00  0.00    -0.361 OA
ATOM     33  HO  UNL     1     -29.659  16.699 -22.173  1.00  0.00     0.217 HD
ENDBRANCH  29  32
ENDBRANCH   3  24
TORSDOF 5
