MODEL 1
REMARK VINA RESULT:      -5.4      0.000      0.000
REMARK  1 active torsions:
REMARK  status: ('A' for Active; 'I' for Inactive)
REMARK    1  A    between atoms: O_3  and  C_9 
ROOT
HETATM    1  C   UNL     1      25.043   0.335  -9.536  1.00  0.00     0.050 C 
HETATM    2  C   UNL     1      23.647   0.287 -11.702  1.00  0.00    -0.011 C 
HETATM    3  C   UNL     1      24.079  -1.087 -12.226  1.00  0.00     0.008 C 
HETATM    4  C   UNL     1      26.238   0.294 -10.441  1.00  0.00     0.024 C 
HETATM    5  C   UNL     1      23.670   0.266 -10.170  1.00  0.00     0.010 C 
HETATM    6  C   UNL     1      24.750   1.239 -12.199  1.00  0.00     0.048 C 
HETATM    7  C   UNL     1      25.982   0.347 -11.941  1.00  0.00     0.092 C 
HETATM    8  C   UNL     1      25.587  -1.029 -12.434  1.00  0.00     0.044 C 
HETATM    9 CL   UNL     1      27.658  -0.400  -9.875  1.00  0.00    -0.090 Cl
ENDROOT
BRANCH   7  10
HETATM   10  O   UNL     1      27.165   0.813 -12.575  1.00  0.00    -0.384 OA
ATOM     11  HO  UNL     1      27.408   1.640 -12.175  1.00  0.00     0.211 HD
ENDBRANCH   7  10
TORSDOF 1
ENDMDL
MODEL 2
REMARK VINA RESULT:      -5.2      1.930      2.900
REMARK  1 active torsions:
REMARK  status: ('A' for Active; 'I' for Inactive)
REMARK    1  A    between atoms: O_3  and  C_9 
ROOT
HETATM    1  C   UNL     1      23.742   0.083  -9.953  1.00  0.00     0.050 C 
HETATM    2  C   UNL     1      25.857   1.330  -9.169  1.00  0.00    -0.011 C 
HETATM    3  C   UNL     1      25.976   2.333 -10.321  1.00  0.00     0.008 C 
HETATM    4  C   UNL     1      24.565  -0.331 -11.137  1.00  0.00     0.024 C 
HETATM    5  C   UNL     1      24.376   1.009  -8.938  1.00  0.00     0.010 C 
HETATM    6  C   UNL     1      26.558   0.067  -9.700  1.00  0.00     0.048 C 
HETATM    7  C   UNL     1      26.031   0.081 -11.149  1.00  0.00     0.092 C 
HETATM    8  C   UNL     1      26.145   1.522 -11.600  1.00  0.00     0.044 C 
HETATM    9 CL   UNL     1      23.789  -0.645 -12.592  1.00  0.00    -0.090 Cl
ENDROOT
BRANCH   7  10
HETATM   10  O   UNL     1      26.730  -0.798 -12.018  1.00  0.00    -0.384 OA
ATOM     11  HO  UNL     1      27.642  -0.532 -12.036  1.00  0.00     0.211 HD
ENDBRANCH   7  10
TORSDOF 1
ENDMDL
MODEL 3
REMARK VINA RESULT:      -5.2      1.801      2.786
REMARK  1 active torsions:
REMARK  status: ('A' for Active; 'I' for Inactive)
REMARK    1  A    between atoms: O_3  and  C_9 
ROOT
HETATM    1  C   UNL     1      27.140  -0.421 -10.808  1.00  0.00     0.050 C 
HETATM    2  C   UNL     1      25.745   1.071  -9.235  1.00  0.00    -0.011 C 
HETATM    3  C   UNL     1      24.483   0.207  -9.154  1.00  0.00     0.008 C 
HETATM    4  C   UNL     1      26.066  -0.157 -11.822  1.00  0.00     0.024 C 
HETATM    5  C   UNL     1      26.963   0.159  -9.421  1.00  0.00     0.010 C 
HETATM    6  C   UNL     1      25.549   1.900 -10.517  1.00  0.00     0.048 C 
HETATM    7  C   UNL     1      24.954   0.807 -11.430  1.00  0.00     0.092 C 
HETATM    8  C   UNL     1      23.939   0.082 -10.572  1.00  0.00     0.044 C 
HETATM    9 CL   UNL     1      25.772  -1.308 -13.008  1.00  0.00    -0.090 Cl
ENDROOT
BRANCH   7  10
HETATM   10  O   UNL     1      24.370   1.316 -12.620  1.00  0.00    -0.384 OA
ATOM     11  HO  UNL     1      23.594   0.802 -12.811  1.00  0.00     0.211 HD
ENDBRANCH   7  10
TORSDOF 1
ENDMDL
MODEL 4
REMARK VINA RESULT:      -5.0      1.725      2.243
REMARK  1 active torsions:
REMARK  status: ('A' for Active; 'I' for Inactive)
REMARK    1  A    between atoms: O_3  and  C_9 
ROOT
HETATM    1  C   UNL     1      27.044  -0.271 -11.164  1.00  0.00     0.050 C 
HETATM    2  C   UNL     1      24.752   0.887 -10.936  1.00  0.00    -0.011 C 
HETATM    3  C   UNL     1      23.863  -0.360 -10.903  1.00  0.00     0.008 C 
HETATM    4  C   UNL     1      26.528  -0.777 -12.479  1.00  0.00     0.024 C 
HETATM    5  C   UNL     1      26.107   0.551 -10.305  1.00  0.00     0.010 C 
HETATM    6  C   UNL     1      24.961   1.157 -12.438  1.00  0.00     0.048 C 
HETATM    7  C   UNL     1      25.155  -0.294 -12.926  1.00  0.00     0.092 C 
HETATM    8  C   UNL     1      24.084  -1.098 -12.218  1.00  0.00     0.044 C 
HETATM    9 CL   UNL     1      27.119  -2.232 -13.073  1.00  0.00    -0.090 Cl
ENDROOT
BRANCH   7  10
HETATM   10  O   UNL     1      25.074  -0.436 -14.336  1.00  0.00    -0.384 OA
ATOM     11  HO  UNL     1      25.765  -1.026 -14.614  1.00  0.00     0.211 HD
ENDBRANCH   7  10
TORSDOF 1
ENDMDL
MODEL 5
REMARK VINA RESULT:      -4.9      1.677      2.348
REMARK  1 active torsions:
REMARK  status: ('A' for Active; 'I' for Inactive)
REMARK    1  A    between atoms: O_3  and  C_9 
ROOT
HETATM    1  C   UNL     1      23.703  -0.480 -10.929  1.00  0.00     0.050 C 
HETATM    2  C   UNL     1      25.470  -0.287 -12.797  1.00  0.00    -0.011 C 
HETATM    3  C   UNL     1      26.694  -0.760 -12.008  1.00  0.00     0.008 C 
HETATM    4  C   UNL     1      24.506   0.569 -10.219  1.00  0.00     0.024 C 
HETATM    5  C   UNL     1      24.223  -0.995 -12.255  1.00  0.00     0.010 C 
HETATM    6  C   UNL     1      25.369   1.213 -12.464  1.00  0.00     0.048 C 
HETATM    7  C   UNL     1      25.701   1.156 -10.959  1.00  0.00     0.092 C 
HETATM    8  C   UNL     1      26.877   0.209 -10.847  1.00  0.00     0.044 C 
HETATM    9 CL   UNL     1      24.478   0.612  -8.541  1.00  0.00    -0.090 Cl
ENDROOT
BRANCH   7  10
HETATM   10  O   UNL     1      25.992   2.425 -10.391  1.00  0.00    -0.384 OA
ATOM     11  HO  UNL     1      25.626   3.094 -10.959  1.00  0.00     0.211 HD
ENDBRANCH   7  10
TORSDOF 1
ENDMDL
MODEL 6
REMARK VINA RESULT:      -4.8      1.621      2.599
REMARK  1 active torsions:
REMARK  status: ('A' for Active; 'I' for Inactive)
REMARK    1  A    between atoms: O_3  and  C_9 
ROOT
HETATM    1  C   UNL     1      24.421   1.608 -13.322  1.00  0.00     0.050 C 
HETATM    2  C   UNL     1      23.851  -0.614 -12.146  1.00  0.00    -0.011 C 
HETATM    3  C   UNL     1      23.766  -0.099 -10.705  1.00  0.00     0.008 C 
HETATM    4  C   UNL     1      25.683   1.580 -12.512  1.00  0.00     0.024 C 
HETATM    5  C   UNL     1      23.412   0.503 -13.101  1.00  0.00     0.010 C 
HETATM    6  C   UNL     1      25.351  -0.882 -12.359  1.00  0.00     0.048 C 
HETATM    7  C   UNL     1      25.930   0.355 -11.641  1.00  0.00     0.092 C 
HETATM    8  C   UNL     1      25.133   0.479 -10.360  1.00  0.00     0.044 C 
HETATM    9 CL   UNL     1      26.417   3.035 -12.107  1.00  0.00    -0.090 Cl
ENDROOT
BRANCH   7  10
HETATM   10  O   UNL     1      27.324   0.266 -11.387  1.00  0.00    -0.384 OA
ATOM     11  HO  UNL     1      27.760   0.945 -11.890  1.00  0.00     0.211 HD
ENDBRANCH   7  10
TORSDOF 1
ENDMDL
MODEL 7
REMARK VINA RESULT:      -4.8      2.146      3.413
REMARK  1 active torsions:
REMARK  status: ('A' for Active; 'I' for Inactive)
REMARK    1  A    between atoms: O_3  and  C_9 
ROOT
HETATM    1  C   UNL     1      25.531  -0.726 -12.243  1.00  0.00     0.050 C 
HETATM    2  C   UNL     1      27.808   0.246 -11.526  1.00  0.00    -0.011 C 
HETATM    3  C   UNL     1      27.864  -0.318 -10.103  1.00  0.00     0.008 C 
HETATM    4  C   UNL     1      24.953   0.122 -11.148  1.00  0.00     0.024 C 
HETATM    5  C   UNL     1      27.034  -0.729 -12.420  1.00  0.00     0.010 C 
HETATM    6  C   UNL     1      26.986   1.540 -11.382  1.00  0.00     0.048 C 
HETATM    7  C   UNL     1      25.908   1.041 -10.398  1.00  0.00     0.092 C 
HETATM    8  C   UNL     1      26.661   0.242  -9.355  1.00  0.00     0.044 C 
HETATM    9 CL   UNL     1      23.537  -0.378 -10.399  1.00  0.00    -0.090 Cl
ENDROOT
BRANCH   7  10
HETATM   10  O   UNL     1      25.145   2.086  -9.811  1.00  0.00    -0.384 OA
ATOM     11  HO  UNL     1      24.579   2.450 -10.481  1.00  0.00     0.211 HD
ENDBRANCH   7  10
TORSDOF 1
ENDMDL
MODEL 8
REMARK VINA RESULT:      -4.7      2.083      3.011
REMARK  1 active torsions:
REMARK  status: ('A' for Active; 'I' for Inactive)
REMARK    1  A    between atoms: O_3  and  C_9 
ROOT
HETATM    1  C   UNL     1      26.023   0.382  -9.498  1.00  0.00     0.050 C 
HETATM    2  C   UNL     1      27.074   0.327 -11.851  1.00  0.00    -0.011 C 
HETATM    3  C   UNL     1      26.463   1.616 -12.409  1.00  0.00     0.008 C 
HETATM    4  C   UNL     1      24.707   0.263 -10.208  1.00  0.00     0.024 C 
HETATM    5  C   UNL     1      27.277   0.484 -10.340  1.00  0.00     0.010 C 
HETATM    6  C   UNL     1      25.988  -0.736 -12.095  1.00  0.00     0.048 C 
HETATM    7  C   UNL     1      24.741   0.092 -11.721  1.00  0.00     0.092 C 
HETATM    8  C   UNL     1      24.950   1.441 -12.376  1.00  0.00     0.044 C 
HETATM    9 CL   UNL     1      23.337   0.910  -9.487  1.00  0.00    -0.090 Cl
ENDROOT
BRANCH   7  10
HETATM   10  O   UNL     1      23.518  -0.506 -12.126  1.00  0.00    -0.384 OA
ATOM     11  HO  UNL     1      23.028   0.136 -12.627  1.00  0.00     0.211 HD
ENDBRANCH   7  10
TORSDOF 1
ENDMDL
MODEL 9
REMARK VINA RESULT:      -4.6      2.798      3.826
REMARK  1 active torsions:
REMARK  status: ('A' for Active; 'I' for Inactive)
REMARK    1  A    between atoms: O_3  and  C_9 
ROOT
HETATM    1  C   UNL     1      25.215  -1.115 -12.478  1.00  0.00     0.050 C 
HETATM    2  C   UNL     1      25.391  -0.433 -14.958  1.00  0.00    -0.011 C 
HETATM    3  C   UNL     1      25.568   1.077 -14.771  1.00  0.00     0.008 C 
HETATM    4  C   UNL     1      23.969  -0.280 -12.456  1.00  0.00     0.024 C 
HETATM    5  C   UNL     1      26.016  -1.160 -13.761  1.00  0.00     0.010 C 
HETATM    6  C   UNL     1      23.866  -0.638 -14.917  1.00  0.00     0.048 C 
HETATM    7  C   UNL     1      23.515   0.335 -13.773  1.00  0.00     0.092 C 
HETATM    8  C   UNL     1      24.325   1.584 -14.051  1.00  0.00     0.044 C 
HETATM    9 CL   UNL     1      23.502   0.438 -11.011  1.00  0.00    -0.090 Cl
ENDROOT
BRANCH   7  10
HETATM   10  O   UNL     1      22.127   0.619 -13.672  1.00  0.00    -0.384 OA
ATOM     11  HO  UNL     1      22.012   1.560 -13.738  1.00  0.00     0.211 HD
ENDBRANCH   7  10
TORSDOF 1
ENDMDL
