REMARK  0 active torsions:
REMARK  status: ('A' for Active; 'I' for Inactive)
ROOT
HETATM    1  C   UNL     1      25.294   0.573 -10.463  1.00  0.00     0.005 C 
HETATM    2  C   UNL     1      22.317   0.654  -6.587  1.00  0.00     0.001 C 
HETATM    3  C   UNL     1      25.581   2.212  -8.607  1.00  0.00     0.039 C 
HETATM    4  C   UNL     1      22.959  -0.090  -7.585  1.00  0.00     0.007 C 
HETATM    5  C   UNL     1      23.612   0.634  -8.592  1.00  0.00    -0.052 C 
HETATM    6  C   UNL     1      24.054  -0.075  -9.848  1.00  0.00     0.039 C 
HETATM    7  C   UNL     1      26.244   1.045  -9.363  1.00  0.00     0.005 C 
HETATM    8  C   UNL     1      22.444   2.063  -6.564  1.00  0.00     0.001 C 
HETATM    9  C   UNL     1      23.390   2.686  -7.400  1.00  0.00     0.007 C 
HETATM   10  C   UNL     1      24.167   1.853  -8.199  1.00  0.00    -0.052 C 
ENDROOT
TORSDOF 0
