MODEL 1
REMARK VINA RESULT:      -7.6      0.000      0.000
REMARK  1 active torsions:
REMARK  status: ('A' for Active; 'I' for Inactive)
REMARK    1  A    between atoms: C_7  and  N_14 
ROOT
HETATM    1  C   UNL     1     -34.849   9.858  -3.757  1.00  0.00     0.080 C 
HETATM    2  C   UNL     1     -33.926   9.868  -2.548  1.00  0.00     0.136 C 
HETATM    3  C   UNL     1     -33.647  10.134  -8.068  1.00  0.00     0.104 C 
HETATM    4  C   UNL     1     -32.051   9.772  -6.340  1.00  0.00     0.119 C 
HETATM    5  N   UNL     1     -32.193   8.354  -4.488  1.00  0.00    -0.350 N 
ATOM      6  HN  UNL     1     -31.690   7.610  -4.972  1.00  0.00     0.166 HD
HETATM    7  C   UNL     1     -34.188   9.667  -5.094  1.00  0.00     0.039 C 
HETATM    8  C   UNL     1     -34.833  10.061  -7.420  1.00  0.00     0.105 C 
HETATM    9  N   UNL     1     -33.250   8.586  -2.384  1.00  0.00    -0.342 N 
HETATM   10  N   UNL     1     -35.045   9.809  -6.124  1.00  0.00    -0.366 N 
ATOM     11  HN  UNL     1     -36.027   9.705  -5.870  1.00  0.00     0.165 HD
HETATM   12  N   UNL     1     -32.461  10.320  -7.475  1.00  0.00    -0.372 N 
ATOM     13  HN  UNL     1     -31.808  10.947  -7.944  1.00  0.00     0.164 HD
HETATM   14  C   UNL     1     -32.818   9.308  -5.261  1.00  0.00     0.071 C 
HETATM   15  C   UNL     1     -32.195   8.329  -3.178  1.00  0.00     0.183 C 
ENDROOT
BRANCH   9  16
HETATM   16  C   UNL     1     -33.704   7.569  -1.573  1.00  0.00     0.041 C 
HETATM   17  C   UNL     1     -34.786   7.711  -0.624  1.00  0.00    -0.035 C 
HETATM   18  C   UNL     1     -34.582   8.315   0.735  1.00  0.00     0.050 C 
HETATM   19  C   UNL     1     -35.930   6.962  -0.946  1.00  0.00     0.015 C 
HETATM   20  C   UNL     1     -35.716   5.740  -1.592  1.00  0.00    -0.061 C 
HETATM   21  C   UNL     1     -34.409   5.308  -1.868  1.00  0.00     0.009 C 
HETATM   22  C   UNL     1     -36.860   4.835  -1.996  1.00  0.00     0.048 C 
HETATM   23  C   UNL     1     -33.355   6.223  -1.768  1.00  0.00     0.031 C 
ENDBRANCH   9  16
TORSDOF 1
ENDMDL
MODEL 2
REMARK VINA RESULT:      -7.3      4.026      7.359
REMARK  1 active torsions:
REMARK  status: ('A' for Active; 'I' for Inactive)
REMARK    1  A    between atoms: C_7  and  N_14 
ROOT
HETATM    1  C   UNL     1     -36.992   4.880  -1.931  1.00  0.00     0.080 C 
HETATM    2  C   UNL     1     -35.589   4.851  -2.520  1.00  0.00     0.136 C 
HETATM    3  C   UNL     1     -39.464   1.351  -0.689  1.00  0.00     0.104 C 
HETATM    4  C   UNL     1     -37.154   1.141  -1.222  1.00  0.00     0.119 C 
HETATM    5  N   UNL     1     -35.377   2.531  -0.614  1.00  0.00    -0.350 N 
ATOM      6  HN  UNL     1     -35.144   1.945   0.187  1.00  0.00     0.166 HD
HETATM    7  C   UNL     1     -37.484   3.592  -1.329  1.00  0.00     0.039 C 
HETATM    8  C   UNL     1     -39.672   2.689  -0.717  1.00  0.00     0.105 C 
HETATM    9  N   UNL     1     -34.587   4.580  -1.496  1.00  0.00    -0.342 N 
HETATM   10  N   UNL     1     -38.776   3.653  -0.955  1.00  0.00    -0.366 N 
ATOM     11  HN  UNL     1     -39.134   4.600  -0.832  1.00  0.00     0.165 HD
HETATM   12  N   UNL     1     -38.414   0.729  -1.237  1.00  0.00    -0.372 N 
ATOM     13  HN  UNL     1     -38.602  -0.152  -1.716  1.00  0.00     0.164 HD
HETATM   14  C   UNL     1     -36.660   2.449  -1.113  1.00  0.00     0.071 C 
HETATM   15  C   UNL     1     -34.435   3.306  -1.093  1.00  0.00     0.183 C 
ENDROOT
BRANCH   9  16
HETATM   16  C   UNL     1     -33.888   5.555  -0.818  1.00  0.00     0.041 C 
HETATM   17  C   UNL     1     -32.544   5.970  -1.152  1.00  0.00    -0.035 C 
HETATM   18  C   UNL     1     -31.336   5.199  -0.705  1.00  0.00     0.050 C 
HETATM   19  C   UNL     1     -32.455   7.287  -1.633  1.00  0.00     0.015 C 
HETATM   20  C   UNL     1     -33.366   8.208  -1.104  1.00  0.00    -0.061 C 
HETATM   21  C   UNL     1     -34.291   7.804  -0.128  1.00  0.00     0.009 C 
HETATM   22  C   UNL     1     -33.380   9.659  -1.535  1.00  0.00     0.048 C 
HETATM   23  C   UNL     1     -34.496   6.437   0.091  1.00  0.00     0.031 C 
ENDBRANCH   9  16
TORSDOF 1
ENDMDL
MODEL 3
REMARK VINA RESULT:      -7.0      2.702      6.353
REMARK  1 active torsions:
REMARK  status: ('A' for Active; 'I' for Inactive)
REMARK    1  A    between atoms: C_7  and  N_14 
ROOT
HETATM    1  C   UNL     1     -34.857   6.308   0.027  1.00  0.00     0.080 C 
HETATM    2  C   UNL     1     -35.665   7.595  -0.025  1.00  0.00     0.136 C 
HETATM    3  C   UNL     1     -36.169   2.244  -1.340  1.00  0.00     0.104 C 
HETATM    4  C   UNL     1     -37.414   4.206  -1.857  1.00  0.00     0.119 C 
HETATM    5  N   UNL     1     -36.634   6.293  -2.560  1.00  0.00    -0.350 N 
ATOM      6  HN  UNL     1     -36.783   6.060  -3.542  1.00  0.00     0.166 HD
HETATM    7  C   UNL     1     -35.406   5.147  -0.756  1.00  0.00     0.039 C 
HETATM    8  C   UNL     1     -35.049   2.728  -0.754  1.00  0.00     0.105 C 
HETATM    9  N   UNL     1     -35.724   8.131  -1.380  1.00  0.00    -0.342 N 
HETATM   10  N   UNL     1     -34.718   4.008  -0.552  1.00  0.00    -0.366 N 
ATOM     11  HN  UNL     1     -33.779   4.145  -0.177  1.00  0.00     0.165 HD
HETATM   12  N   UNL     1     -37.305   2.932  -1.505  1.00  0.00    -0.372 N 
ATOM     13  HN  UNL     1     -38.175   2.426  -1.343  1.00  0.00     0.164 HD
HETATM   14  C   UNL     1     -36.495   5.249  -1.670  1.00  0.00     0.071 C 
HETATM   15  C   UNL     1     -36.588   7.563  -2.240  1.00  0.00     0.183 C 
ENDROOT
BRANCH   9  16
HETATM   16  C   UNL     1     -34.860   9.083  -1.875  1.00  0.00     0.041 C 
HETATM   17  C   UNL     1     -33.420   9.005  -1.767  1.00  0.00    -0.035 C 
HETATM   18  C   UNL     1     -32.690   9.407  -0.519  1.00  0.00     0.050 C 
HETATM   19  C   UNL     1     -32.763   8.838  -2.998  1.00  0.00     0.015 C 
HETATM   20  C   UNL     1     -33.354   9.449  -4.110  1.00  0.00    -0.061 C 
HETATM   21  C   UNL     1     -34.530  10.199  -3.959  1.00  0.00     0.009 C 
HETATM   22  C   UNL     1     -32.751   9.349  -5.494  1.00  0.00     0.048 C 
HETATM   23  C   UNL     1     -35.262  10.087  -2.771  1.00  0.00     0.031 C 
ENDBRANCH   9  16
TORSDOF 1
ENDMDL
MODEL 4
REMARK VINA RESULT:      -6.7      3.265      5.289
REMARK  1 active torsions:
REMARK  status: ('A' for Active; 'I' for Inactive)
REMARK    1  A    between atoms: C_7  and  N_14 
ROOT
HETATM    1  C   UNL     1     -32.119   6.325  -2.555  1.00  0.00     0.080 C 
HETATM    2  C   UNL     1     -32.664   4.970  -2.130  1.00  0.00     0.136 C 
HETATM    3  C   UNL     1     -34.480  10.059  -3.320  1.00  0.00     0.104 C 
HETATM    4  C   UNL     1     -35.453   8.148  -2.287  1.00  0.00     0.119 C 
HETATM    5  N   UNL     1     -34.559   6.764  -0.630  1.00  0.00    -0.350 N 
ATOM      6  HN  UNL     1     -35.033   7.282   0.110  1.00  0.00     0.166 HD
HETATM    7  C   UNL     1     -33.074   7.483  -2.461  1.00  0.00     0.039 C 
HETATM    8  C   UNL     1     -33.169   9.735  -3.409  1.00  0.00     0.105 C 
HETATM    9  N   UNL     1     -33.027   4.963  -0.717  1.00  0.00    -0.342 N 
HETATM   10  N   UNL     1     -32.571   8.617  -2.983  1.00  0.00    -0.366 N 
ATOM     11  HN  UNL     1     -31.554   8.627  -3.067  1.00  0.00     0.165 HD
HETATM   12  N   UNL     1     -35.473   9.185  -3.112  1.00  0.00    -0.372 N 
ATOM     13  HN  UNL     1     -36.331   9.332  -3.644  1.00  0.00     0.164 HD
HETATM   14  C   UNL     1     -34.350   7.412  -1.828  1.00  0.00     0.071 C 
HETATM   15  C   UNL     1     -34.195   5.532  -0.370  1.00  0.00     0.183 C 
ENDROOT
BRANCH   9  16
HETATM   16  C   UNL     1     -32.195   4.538   0.295  1.00  0.00     0.041 C 
HETATM   17  C   UNL     1     -31.891   3.151   0.568  1.00  0.00    -0.035 C 
HETATM   18  C   UNL     1     -32.819   2.270   1.352  1.00  0.00     0.050 C 
HETATM   19  C   UNL     1     -30.552   2.801   0.326  1.00  0.00     0.015 C 
HETATM   20  C   UNL     1     -29.594   3.792   0.567  1.00  0.00    -0.061 C 
HETATM   21  C   UNL     1     -29.987   5.052   1.045  1.00  0.00     0.009 C 
HETATM   22  C   UNL     1     -28.116   3.548   0.348  1.00  0.00     0.048 C 
HETATM   23  C   UNL     1     -31.340   5.406   0.995  1.00  0.00     0.031 C 
ENDBRANCH   9  16
TORSDOF 1
ENDMDL
MODEL 5
REMARK VINA RESULT:      -6.7      4.883      7.901
REMARK  1 active torsions:
REMARK  status: ('A' for Active; 'I' for Inactive)
REMARK    1  A    between atoms: C_7  and  N_14 
ROOT
HETATM    1  C   UNL     1     -29.522   5.929   2.164  1.00  0.00     0.080 C 
HETATM    2  C   UNL     1     -29.867   6.224   0.712  1.00  0.00     0.136 C 
HETATM    3  C   UNL     1     -28.425   8.909   5.330  1.00  0.00     0.104 C 
HETATM    4  C   UNL     1     -29.311   9.581   3.226  1.00  0.00     0.119 C 
HETATM    5  N   UNL     1     -31.079   8.651   2.015  1.00  0.00    -0.350 N 
ATOM      6  HN  UNL     1     -31.744   9.323   2.398  1.00  0.00     0.166 HD
HETATM    7  C   UNL     1     -29.478   7.115   3.088  1.00  0.00     0.039 C 
HETATM    8  C   UNL     1     -28.523   7.559   5.295  1.00  0.00     0.105 C 
HETATM    9  N   UNL     1     -31.213   6.770   0.585  1.00  0.00    -0.342 N 
HETATM   10  N   UNL     1     -29.032   6.799   4.319  1.00  0.00    -0.366 N 
ATOM     11  HN  UNL     1     -29.093   5.807   4.547  1.00  0.00     0.165 HD
HETATM   12  N   UNL     1     -28.490   9.708   4.259  1.00  0.00    -0.372 N 
ATOM     13  HN  UNL     1     -27.841  10.496   4.235  1.00  0.00     0.164 HD
HETATM   14  C   UNL     1     -29.923   8.421   2.729  1.00  0.00     0.071 C 
HETATM   15  C   UNL     1     -31.390   8.070   0.882  1.00  0.00     0.183 C 
ENDROOT
BRANCH   9  16
HETATM   16  C   UNL     1     -32.334   6.015   0.318  1.00  0.00     0.041 C 
HETATM   17  C   UNL     1     -33.420   6.450  -0.532  1.00  0.00    -0.035 C 
HETATM   18  C   UNL     1     -34.505   7.361  -0.037  1.00  0.00     0.050 C 
HETATM   19  C   UNL     1     -33.548   5.710  -1.719  1.00  0.00     0.015 C 
HETATM   20  C   UNL     1     -33.206   4.354  -1.651  1.00  0.00    -0.061 C 
HETATM   21  C   UNL     1     -32.782   3.795  -0.435  1.00  0.00     0.009 C 
HETATM   22  C   UNL     1     -33.297   3.443  -2.856  1.00  0.00     0.048 C 
HETATM   23  C   UNL     1     -32.421   4.645   0.616  1.00  0.00     0.031 C 
ENDBRANCH   9  16
TORSDOF 1
ENDMDL
MODEL 6
REMARK VINA RESULT:      -6.7      3.279      6.429
REMARK  1 active torsions:
REMARK  status: ('A' for Active; 'I' for Inactive)
REMARK    1  A    between atoms: C_7  and  N_14 
ROOT
HETATM    1  C   UNL     1     -32.468   5.463   0.675  1.00  0.00     0.080 C 
HETATM    2  C   UNL     1     -33.836   5.404   0.013  1.00  0.00     0.136 C 
HETATM    3  C   UNL     1     -28.782   3.223  -0.550  1.00  0.00     0.104 C 
HETATM    4  C   UNL     1     -30.719   3.306  -1.932  1.00  0.00     0.119 C 
HETATM    5  N   UNL     1     -32.090   5.132  -2.424  1.00  0.00    -0.350 N 
ATOM      6  HN  UNL     1     -31.586   5.325  -3.289  1.00  0.00     0.166 HD
HETATM    7  C   UNL     1     -31.332   4.850  -0.096  1.00  0.00     0.039 C 
HETATM    8  C   UNL     1     -29.078   4.078   0.457  1.00  0.00     0.105 C 
HETATM    9  N   UNL     1     -33.858   6.161  -1.233  1.00  0.00    -0.342 N 
HETATM   10  N   UNL     1     -30.184   4.815   0.608  1.00  0.00    -0.366 N 
ATOM     11  HN  UNL     1     -30.152   5.464   1.394  1.00  0.00     0.165 HD
HETATM   12  N   UNL     1     -29.679   2.689  -1.388  1.00  0.00    -0.372 N 
ATOM     13  HN  UNL     1     -29.548   1.707  -1.634  1.00  0.00     0.164 HD
HETATM   14  C   UNL     1     -31.432   4.413  -1.449  1.00  0.00     0.071 C 
HETATM   15  C   UNL     1     -33.315   5.588  -2.322  1.00  0.00     0.183 C 
ENDROOT
BRANCH   9  16
HETATM   16  C   UNL     1     -34.269   7.472  -1.336  1.00  0.00     0.041 C 
HETATM   17  C   UNL     1     -33.465   8.607  -0.940  1.00  0.00    -0.035 C 
HETATM   18  C   UNL     1     -33.364   9.053   0.489  1.00  0.00     0.050 C 
HETATM   19  C   UNL     1     -33.064   9.425  -2.010  1.00  0.00     0.015 C 
HETATM   20  C   UNL     1     -33.958   9.535  -3.081  1.00  0.00    -0.061 C 
HETATM   21  C   UNL     1     -35.190   8.863  -3.043  1.00  0.00     0.009 C 
HETATM   22  C   UNL     1     -33.652  10.383  -4.297  1.00  0.00     0.048 C 
HETATM   23  C   UNL     1     -35.391   7.864  -2.084  1.00  0.00     0.031 C 
ENDBRANCH   9  16
TORSDOF 1
ENDMDL
MODEL 7
REMARK VINA RESULT:      -6.7      3.682      6.474
REMARK  1 active torsions:
REMARK  status: ('A' for Active; 'I' for Inactive)
REMARK    1  A    between atoms: C_7  and  N_14 
ROOT
HETATM    1  C   UNL     1     -31.470   6.025  -0.394  1.00  0.00     0.080 C 
HETATM    2  C   UNL     1     -32.000   7.119  -1.309  1.00  0.00     0.136 C 
HETATM    3  C   UNL     1     -28.428   6.480   2.868  1.00  0.00     0.104 C 
HETATM    4  C   UNL     1     -29.420   8.364   1.805  1.00  0.00     0.119 C 
HETATM    5  N   UNL     1     -31.657   8.709   1.224  1.00  0.00    -0.350 N 
ATOM      6  HN  UNL     1     -31.840   9.223   2.085  1.00  0.00     0.166 HD
HETATM    7  C   UNL     1     -30.682   6.485   0.801  1.00  0.00     0.039 C 
HETATM    8  C   UNL     1     -29.114   5.432   2.355  1.00  0.00     0.105 C 
HETATM    9  N   UNL     1     -32.953   7.977  -0.616  1.00  0.00    -0.342 N 
HETATM   10  N   UNL     1     -30.130   5.465   1.485  1.00  0.00    -0.366 N 
ATOM     11  HN  UNL     1     -30.561   4.558   1.308  1.00  0.00     0.165 HD
HETATM   12  N   UNL     1     -28.399   7.709   2.338  1.00  0.00    -0.372 N 
ATOM     13  HN  UNL     1     -27.499   8.190   2.346  1.00  0.00     0.164 HD
HETATM   14  C   UNL     1     -30.582   7.847   1.212  1.00  0.00     0.071 C 
HETATM   15  C   UNL     1     -32.462   8.918   0.210  1.00  0.00     0.183 C 
ENDROOT
BRANCH   9  16
HETATM   16  C   UNL     1     -34.320   7.798  -0.642  1.00  0.00     0.041 C 
HETATM   17  C   UNL     1     -35.168   8.198  -1.743  1.00  0.00    -0.035 C 
HETATM   18  C   UNL     1     -35.640   9.612  -1.915  1.00  0.00     0.050 C 
HETATM   19  C   UNL     1     -35.760   7.123  -2.427  1.00  0.00     0.015 C 
HETATM   20  C   UNL     1     -36.082   5.996  -1.662  1.00  0.00    -0.061 C 
HETATM   21  C   UNL     1     -35.831   5.987  -0.281  1.00  0.00     0.009 C 
HETATM   22  C   UNL     1     -36.724   4.769  -2.273  1.00  0.00     0.048 C 
HETATM   23  C   UNL     1     -34.999   6.970   0.266  1.00  0.00     0.031 C 
ENDBRANCH   9  16
TORSDOF 1
ENDMDL
MODEL 8
REMARK VINA RESULT:      -6.4      3.214      5.531
REMARK  1 active torsions:
REMARK  status: ('A' for Active; 'I' for Inactive)
REMARK    1  A    between atoms: C_7  and  N_14 
ROOT
HETATM    1  C   UNL     1     -34.012   6.169   0.264  1.00  0.00     0.080 C 
HETATM    2  C   UNL     1     -32.501   6.023   0.366  1.00  0.00     0.136 C 
HETATM    3  C   UNL     1     -36.269   9.387  -1.893  1.00  0.00     0.104 C 
HETATM    4  C   UNL     1     -33.922   9.099  -2.168  1.00  0.00     0.119 C 
HETATM    5  N   UNL     1     -32.710   7.118  -2.430  1.00  0.00    -0.350 N 
ATOM      6  HN  UNL     1     -32.718   7.204  -3.446  1.00  0.00     0.166 HD
HETATM    7  C   UNL     1     -34.515   7.156  -0.752  1.00  0.00     0.039 C 
HETATM    8  C   UNL     1     -36.629   8.323  -1.138  1.00  0.00     0.105 C 
HETATM    9  N   UNL     1     -31.931   5.513  -0.876  1.00  0.00    -0.342 N 
HETATM   10  N   UNL     1     -35.848   7.334  -0.690  1.00  0.00    -0.366 N 
ATOM     11  HN  UNL     1     -36.351   6.582  -0.218  1.00  0.00     0.165 HD
HETATM   12  N   UNL     1     -35.015   9.836  -2.033  1.00  0.00    -0.372 N 
ATOM     13  HN  UNL     1     -34.889  10.848  -2.037  1.00  0.00     0.164 HD
HETATM   14  C   UNL     1     -33.687   7.789  -1.726  1.00  0.00     0.071 C 
HETATM   15  C   UNL     1     -31.770   6.379  -1.892  1.00  0.00     0.183 C 
ENDROOT
BRANCH   9  16
HETATM   16  C   UNL     1     -31.677   4.182  -1.123  1.00  0.00     0.041 C 
HETATM   17  C   UNL     1     -31.886   3.540  -2.402  1.00  0.00    -0.035 C 
HETATM   18  C   UNL     1     -33.239   3.068  -2.847  1.00  0.00     0.050 C 
HETATM   19  C   UNL     1     -30.702   3.117  -3.029  1.00  0.00     0.015 C 
HETATM   20  C   UNL     1     -29.667   2.691  -2.188  1.00  0.00    -0.061 C 
HETATM   21  C   UNL     1     -29.849   2.682  -0.796  1.00  0.00     0.009 C 
HETATM   22  C   UNL     1     -28.339   2.210  -2.732  1.00  0.00     0.048 C 
HETATM   23  C   UNL     1     -30.937   3.370  -0.247  1.00  0.00     0.031 C 
ENDBRANCH   9  16
TORSDOF 1
ENDMDL
MODEL 9
REMARK VINA RESULT:      -6.4      4.478      7.817
REMARK  1 active torsions:
REMARK  status: ('A' for Active; 'I' for Inactive)
REMARK    1  A    between atoms: C_7  and  N_14 
ROOT
HETATM    1  C   UNL     1     -36.137   1.819  -1.142  1.00  0.00     0.080 C 
HETATM    2  C   UNL     1     -35.667   3.086  -0.444  1.00  0.00     0.136 C 
HETATM    3  C   UNL     1     -40.309   0.871  -2.483  1.00  0.00     0.104 C 
HETATM    4  C   UNL     1     -39.686   3.053  -1.765  1.00  0.00     0.119 C 
HETATM    5  N   UNL     1     -37.752   4.264  -2.267  1.00  0.00    -0.350 N 
ATOM      6  HN  UNL     1     -38.214   4.756  -3.033  1.00  0.00     0.166 HD
HETATM    7  C   UNL     1     -37.513   1.867  -1.747  1.00  0.00     0.039 C 
HETATM    8  C   UNL     1     -39.134   0.200  -2.505  1.00  0.00     0.105 C 
HETATM    9  N   UNL     1     -35.560   4.200  -1.379  1.00  0.00    -0.342 N 
HETATM   10  N   UNL     1     -37.915   0.673  -2.222  1.00  0.00    -0.366 N 
ATOM     11  HN  UNL     1     -37.157   0.013  -2.398  1.00  0.00     0.165 HD
HETATM   12  N   UNL     1     -40.519   2.025  -1.838  1.00  0.00    -0.372 N 
ATOM     13  HN  UNL     1     -41.412   2.122  -1.353  1.00  0.00     0.164 HD
HETATM   14  C   UNL     1     -38.287   3.058  -1.869  1.00  0.00     0.071 C 
HETATM   15  C   UNL     1     -36.694   4.828  -1.736  1.00  0.00     0.183 C 
ENDROOT
BRANCH   9  16
HETATM   16  C   UNL     1     -34.397   4.561  -2.026  1.00  0.00     0.041 C 
HETATM   17  C   UNL     1     -33.521   5.623  -1.586  1.00  0.00    -0.035 C 
HETATM   18  C   UNL     1     -33.799   7.066  -1.892  1.00  0.00     0.050 C 
HETATM   19  C   UNL     1     -32.262   5.181  -1.146  1.00  0.00     0.015 C 
HETATM   20  C   UNL     1     -31.736   4.055  -1.789  1.00  0.00    -0.061 C 
HETATM   21  C   UNL     1     -32.450   3.440  -2.830  1.00  0.00     0.009 C 
HETATM   22  C   UNL     1     -30.390   3.473  -1.414  1.00  0.00     0.048 C 
HETATM   23  C   UNL     1     -33.797   3.767  -3.017  1.00  0.00     0.031 C 
ENDBRANCH   9  16
TORSDOF 1
ENDMDL
