REMARK  1 active torsions:
REMARK  status: ('A' for Active; 'I' for Inactive)
REMARK    1  A    between atoms: C_14  and  C_17 
ROOT
HETATM    1  C   UNL     1      25.029   4.056   4.998  1.00  0.00    -0.010 C 
HETATM    2  C   UNL     1      27.221   4.830   3.901  1.00  0.00     0.005 C 
HETATM    3  C   UNL     1      24.273   2.722   5.042  1.00  0.00     0.005 C 
HETATM    4  C   UNL     1      24.304   5.215   4.287  1.00  0.00     0.005 C 
HETATM    5  C   UNL     1      26.470   6.041   3.335  1.00  0.00     0.000 C 
HETATM    6  C   UNL     1      25.283   6.415   4.245  1.00  0.00     0.000 C 
HETATM    7  C   UNL     1      26.662   2.360   4.745  1.00  0.00    -0.006 C 
HETATM    8  C   UNL     1      26.241   3.695   4.147  1.00  0.00    -0.006 C 
HETATM    9  C   UNL     1      25.308   1.626   4.715  1.00  0.00     0.006 C 
ENDROOT
BRANCH   7  10
HETATM   10  C   UNL     1      27.779   1.680   3.969  1.00  0.00    -0.009 C 
HETATM   11  C   UNL     1      27.518   0.438   3.115  1.00  0.00     0.009 C 
HETATM   12  C   UNL     1      28.595  -0.691   3.177  1.00  0.00    -0.014 C 
HETATM   13  C   UNL     1      29.119  -0.829   4.615  1.00  0.00     0.005 C 
HETATM   14  C   UNL     1      29.745  -0.307   2.217  1.00  0.00     0.005 C 
HETATM   15  C   UNL     1      30.131   0.248   5.078  1.00  0.00     0.005 C 
HETATM   16  C   UNL     1      30.356   1.427   4.106  1.00  0.00    -0.014 C 
HETATM   17  C   UNL     1      29.123   2.350   4.040  1.00  0.00     0.009 C 
HETATM   18  C   UNL     1      30.604   0.867   2.681  1.00  0.00     0.005 C 
ENDBRANCH   7  10
TORSDOF 1
