REMARK  0 active torsions:
REMARK  status: ('A' for Active; 'I' for Inactive)
ROOT
HETATM    1  C   UNL     1     -42.857 -20.029 -22.291  1.00  0.00     0.000 A 
HETATM    2  C   UNL     1     -44.196 -20.282 -22.140  1.00  0.00     0.002 A 
HETATM    3  C   UNL     1     -44.455 -18.241 -20.931  1.00  0.00     0.034 A 
HETATM    4  C   UNL     1     -42.326 -18.880 -21.753  1.00  0.00     0.002 A 
HETATM    5 CL   UNL     1     -45.456 -17.210 -19.948  1.00  0.00    -0.084 Cl
HETATM    6  C   UNL     1     -44.989 -19.408 -21.430  1.00  0.00     0.024 A 
HETATM    7  C   UNL     1     -43.107 -17.967 -21.080  1.00  0.00     0.024 A 
ENDROOT
TORSDOF 0
