MODEL 1
REMARK VINA RESULT:      -7.6      0.000      0.000
REMARK  0 active torsions:
REMARK  status: ('A' for Active; 'I' for Inactive)
ROOT
HETATM    1  C   UNL     1      30.671  11.932  81.531  1.00  0.00     0.155 C 
HETATM    2  C   UNL     1      31.363   9.779  86.531  1.00  0.00     0.071 C 
HETATM    3  C   UNL     1      30.665  10.483  85.390  1.00  0.00     0.066 C 
HETATM    4  C   UNL     1      30.862  11.311  82.761  1.00  0.00     0.021 C 
HETATM    5  C   UNL     1      31.019  12.976  85.867  1.00  0.00     0.043 C 
HETATM    6  O   UNL     1      29.908   9.790  84.437  1.00  0.00    -0.313 OA
HETATM    7  C   UNL     1      28.468  10.741  82.732  1.00  0.00     0.062 C 
HETATM    8  C   UNL     1      31.767  11.848  83.758  1.00  0.00     0.026 C 
HETATM    9  C   UNL     1      30.494   9.602  87.760  1.00  0.00     0.244 C 
HETATM   10  N   UNL     1      30.788  10.731  88.652  1.00  0.00    -0.070 N 
ATOM     11  HN1 UNL     1      31.075  10.428  89.583  1.00  0.00     0.277 HD
ATOM     12  HN2 UNL     1      29.948  11.243  88.924  1.00  0.00     0.277 HD
HETATM   13  C   UNL     1      32.521  10.660  87.039  1.00  0.00     0.046 C 
HETATM   14  C   UNL     1      29.783  10.484  83.247  1.00  0.00     0.089 C 
HETATM   15  C   UNL     1      31.780  11.585  88.011  1.00  0.00     0.187 C 
HETATM   16  C   UNL     1      31.042  12.747  87.361  1.00  0.00     0.037 C 
HETATM   17  O   UNL     1      29.477  11.865  80.882  1.00  0.00    -0.334 OA
HETATM   18  C   UNL     1      31.208  11.785  84.988  1.00  0.00    -0.027 C 
HETATM   19  C   UNL     1      28.359  11.633  81.668  1.00  0.00     0.144 C 
ENDROOT
TORSDOF 0
ENDMDL
MODEL 2
REMARK VINA RESULT:      -7.1      1.841      2.785
REMARK  0 active torsions:
REMARK  status: ('A' for Active; 'I' for Inactive)
ROOT
HETATM    1  C   UNL     1      31.337  11.055  82.925  1.00  0.00     0.155 C 
HETATM    2  C   UNL     1      30.187  11.566  88.266  1.00  0.00     0.071 C 
HETATM    3  C   UNL     1      30.842  11.861  86.937  1.00  0.00     0.066 C 
HETATM    4  C   UNL     1      30.964  11.197  84.257  1.00  0.00     0.021 C 
HETATM    5  C   UNL     1      33.064  10.587  87.024  1.00  0.00     0.043 C 
HETATM    6  O   UNL     1      30.298  12.771  86.021  1.00  0.00    -0.313 OA
HETATM    7  C   UNL     1      31.335  13.617  83.998  1.00  0.00     0.062 C 
HETATM    8  C   UNL     1      31.321  10.216  85.263  1.00  0.00     0.026 C 
HETATM    9  C   UNL     1      30.610  12.508  89.376  1.00  0.00     0.244 C 
HETATM   10  N   UNL     1      31.708  11.849  90.094  1.00  0.00    -0.070 N 
ATOM     11  HN1 UNL     1      31.524  11.760  91.093  1.00  0.00     0.277 HD
ATOM     12  HN2 UNL     1      32.541  12.434  90.157  1.00  0.00     0.277 HD
HETATM   13  C   UNL     1      30.658  10.189  88.769  1.00  0.00     0.046 C 
HETATM   14  C   UNL     1      30.720  12.542  84.724  1.00  0.00     0.089 C 
HETATM   15  C   UNL     1      31.975  10.564  89.458  1.00  0.00     0.187 C 
HETATM   16  C   UNL     1      33.163  10.746  88.525  1.00  0.00     0.037 C 
HETATM   17  O   UNL     1      31.585  12.138  82.139  1.00  0.00    -0.334 OA
HETATM   18  C   UNL     1      31.733  10.828  86.396  1.00  0.00    -0.027 C 
HETATM   19  C   UNL     1      31.957  13.302  82.792  1.00  0.00     0.144 C 
ENDROOT
TORSDOF 0
ENDMDL
MODEL 3
REMARK VINA RESULT:      -7.0      2.966      5.956
REMARK  0 active torsions:
REMARK  status: ('A' for Active; 'I' for Inactive)
ROOT
HETATM    1  C   UNL     1      33.637  11.884  90.014  1.00  0.00     0.155 C 
HETATM    2  C   UNL     1      31.172  12.392  85.137  1.00  0.00     0.071 C 
HETATM    3  C   UNL     1      31.304  12.283  86.638  1.00  0.00     0.066 C 
HETATM    4  C   UNL     1      33.058  12.083  88.764  1.00  0.00     0.021 C 
HETATM    5  C   UNL     1      30.923   9.798  87.134  1.00  0.00     0.043 C 
HETATM    6  O   UNL     1      31.455  13.410  87.459  1.00  0.00    -0.313 OA
HETATM    7  C   UNL     1      31.369  13.483  89.882  1.00  0.00     0.062 C 
HETATM    8  C   UNL     1      33.009  11.034  87.766  1.00  0.00     0.026 C 
HETATM    9  C   UNL     1      29.745  12.582  84.664  1.00  0.00     0.244 C 
HETATM   10  N   UNL     1      29.230  11.249  84.327  1.00  0.00    -0.070 N 
ATOM     11  HN1 UNL     1      28.876  11.197  83.371  1.00  0.00     0.277 HD
ATOM     12  HN2 UNL     1      28.358  11.033  84.811  1.00  0.00     0.277 HD
HETATM   13  C   UNL     1      31.585  11.055  84.493  1.00  0.00     0.046 C 
HETATM   14  C   UNL     1      32.047  13.111  88.672  1.00  0.00     0.089 C 
HETATM   15  C   UNL     1      30.274  10.266  84.590  1.00  0.00     0.187 C 
HETATM   16  C   UNL     1      29.994   9.645  85.951  1.00  0.00     0.037 C 
HETATM   17  O   UNL     1      33.180  12.536  91.118  1.00  0.00    -0.334 OA
HETATM   18  C   UNL     1      31.797  11.007  87.167  1.00  0.00    -0.027 C 
HETATM   19  C   UNL     1      31.865  12.971  91.078  1.00  0.00     0.144 C 
ENDROOT
TORSDOF 0
ENDMDL
MODEL 4
REMARK VINA RESULT:      -6.9      3.588      6.386
REMARK  0 active torsions:
REMARK  status: ('A' for Active; 'I' for Inactive)
ROOT
HETATM    1  C   UNL     1      34.598  13.590  90.220  1.00  0.00     0.155 C 
HETATM    2  C   UNL     1      30.820  11.685  86.725  1.00  0.00     0.071 C 
HETATM    3  C   UNL     1      31.384  12.285  87.992  1.00  0.00     0.066 C 
HETATM    4  C   UNL     1      33.666  13.166  89.278  1.00  0.00     0.021 C 
HETATM    5  C   UNL     1      31.648  10.290  89.579  1.00  0.00     0.043 C 
HETATM    6  O   UNL     1      31.537  13.667  88.161  1.00  0.00    -0.313 OA
HETATM    7  C   UNL     1      32.118  14.841  90.203  1.00  0.00     0.062 C 
HETATM    8  C   UNL     1      33.545  11.774  88.892  1.00  0.00     0.026 C 
HETATM    9  C   UNL     1      29.309  11.570  86.726  1.00  0.00     0.244 C 
HETATM   10  N   UNL     1      28.990  10.208  87.174  1.00  0.00    -0.070 N 
ATOM     11  HN1 UNL     1      28.401   9.706  86.510  1.00  0.00     0.277 HD
ATOM     12  HN2 UNL     1      28.348  10.197  87.967  1.00  0.00     0.277 HD
HETATM   13  C   UNL     1      31.289  10.223  86.602  1.00  0.00     0.046 C 
HETATM   14  C   UNL     1      32.490  13.987  89.110  1.00  0.00     0.089 C 
HETATM   15  C   UNL     1      30.237   9.506  87.456  1.00  0.00     0.187 C 
HETATM   16  C   UNL     1      30.473   9.566  88.958  1.00  0.00     0.037 C 
HETATM   17  O   UNL     1      34.350  14.654  91.032  1.00  0.00    -0.334 OA
HETATM   18  C   UNL     1      32.244  11.418  88.806  1.00  0.00    -0.027 C 
HETATM   19  C   UNL     1      33.018  14.960  91.259  1.00  0.00     0.144 C 
ENDROOT
TORSDOF 0
ENDMDL
MODEL 5
REMARK VINA RESULT:      -6.9      3.334      5.450
REMARK  0 active torsions:
REMARK  status: ('A' for Active; 'I' for Inactive)
ROOT
HETATM    1  C   UNL     1      30.513   9.616  88.078  1.00  0.00     0.155 C 
HETATM    2  C   UNL     1      32.251  14.628  89.481  1.00  0.00     0.071 C 
HETATM    3  C   UNL     1      32.181  13.333  88.706  1.00  0.00     0.066 C 
HETATM    4  C   UNL     1      30.875  10.915  88.421  1.00  0.00     0.021 C 
HETATM    5  C   UNL     1      33.999  11.862  89.754  1.00  0.00     0.043 C 
HETATM    6  O   UNL     1      31.351  13.175  87.588  1.00  0.00    -0.313 OA
HETATM    7  C   UNL     1      31.320  11.314  86.033  1.00  0.00     0.062 C 
HETATM    8  C   UNL     1      31.581  11.215  89.650  1.00  0.00     0.026 C 
HETATM    9  C   UNL     1      33.269  15.610  88.936  1.00  0.00     0.244 C 
HETATM   10  N   UNL     1      34.503  15.411  89.708  1.00  0.00    -0.070 N 
ATOM     11  HN1 UNL     1      34.835  16.273  90.141  1.00  0.00     0.277 HD
ATOM     12  HN2 UNL     1      35.312  15.233  89.112  1.00  0.00     0.277 HD
HETATM   13  C   UNL     1      32.763  14.340  90.905  1.00  0.00     0.046 C 
HETATM   14  C   UNL     1      31.041  11.852  87.335  1.00  0.00     0.089 C 
HETATM   15  C   UNL     1      34.279  14.348  90.679  1.00  0.00     0.187 C 
HETATM   16  C   UNL     1      34.852  13.062  90.101  1.00  0.00     0.037 C 
HETATM   17  O   UNL     1      30.448   9.219  86.778  1.00  0.00    -0.334 OA
HETATM   18  C   UNL     1      32.566  12.113  89.423  1.00  0.00    -0.027 C 
HETATM   19  C   UNL     1      31.217   9.934  85.874  1.00  0.00     0.144 C 
ENDROOT
TORSDOF 0
ENDMDL
MODEL 6
REMARK VINA RESULT:      -6.9      2.492      5.414
REMARK  0 active torsions:
REMARK  status: ('A' for Active; 'I' for Inactive)
ROOT
HETATM    1  C   UNL     1      30.492   9.505  88.837  1.00  0.00     0.155 C 
HETATM    2  C   UNL     1      30.669  10.369  83.421  1.00  0.00     0.071 C 
HETATM    3  C   UNL     1      30.902  10.627  84.891  1.00  0.00     0.066 C 
HETATM    4  C   UNL     1      30.578   9.650  87.456  1.00  0.00     0.021 C 
HETATM    5  C   UNL     1      28.979  12.173  85.582  1.00  0.00     0.043 C 
HETATM    6  O   UNL     1      32.047  10.169  85.558  1.00  0.00    -0.313 OA
HETATM    7  C   UNL     1      32.761  10.733  87.806  1.00  0.00     0.062 C 
HETATM    8  C   UNL     1      29.416   9.946  86.642  1.00  0.00     0.026 C 
HETATM    9  C   UNL     1      31.276  11.422  82.515  1.00  0.00     0.244 C 
HETATM   10  N   UNL     1      30.213  12.392  82.223  1.00  0.00    -0.070 N 
ATOM     11  HN1 UNL     1      30.063  12.517  81.221  1.00  0.00     0.277 HD
ATOM     12  HN2 UNL     1      30.486  13.350  82.444  1.00  0.00     0.277 HD
HETATM   13  C   UNL     1      29.161  10.469  83.121  1.00  0.00     0.046 C 
HETATM   14  C   UNL     1      31.859  10.049  86.922  1.00  0.00     0.089 C 
HETATM   15  C   UNL     1      29.002  11.980  82.922  1.00  0.00     0.187 C 
HETATM   16  C   UNL     1      28.907  12.794  84.204  1.00  0.00     0.037 C 
HETATM   17  O   UNL     1      31.527   9.849  89.651  1.00  0.00    -0.334 OA
HETATM   18  C   UNL     1      29.714  10.882  85.713  1.00  0.00    -0.027 C 
HETATM   19  C   UNL     1      32.417  10.788  89.155  1.00  0.00     0.144 C 
ENDROOT
TORSDOF 0
ENDMDL
MODEL 7
REMARK VINA RESULT:      -6.7      2.578      5.448
REMARK  0 active torsions:
REMARK  status: ('A' for Active; 'I' for Inactive)
ROOT
HETATM    1  C   UNL     1      32.158  10.285  88.366  1.00  0.00     0.155 C 
HETATM    2  C   UNL     1      31.375  12.930  83.621  1.00  0.00     0.071 C 
HETATM    3  C   UNL     1      31.039  12.340  84.971  1.00  0.00     0.066 C 
HETATM    4  C   UNL     1      32.021  11.010  87.186  1.00  0.00     0.021 C 
HETATM    5  C   UNL     1      30.038  10.043  84.434  1.00  0.00     0.043 C 
HETATM    6  O   UNL     1      31.169  13.072  86.160  1.00  0.00    -0.313 OA
HETATM    7  C   UNL     1      30.398  12.434  88.369  1.00  0.00     0.062 C 
HETATM    8  C   UNL     1      32.054  10.372  85.886  1.00  0.00     0.026 C 
HETATM    9  C   UNL     1      30.216  13.658  82.970  1.00  0.00     0.244 C 
HETATM   10  N   UNL     1      29.565  12.697  82.071  1.00  0.00    -0.070 N 
ATOM     11  HN1 UNL     1      29.501  13.040  81.113  1.00  0.00     0.277 HD
ATOM     12  HN2 UNL     1      28.565  12.607  82.254  1.00  0.00     0.277 HD
HETATM   13  C   UNL     1      31.680  11.789  82.631  1.00  0.00     0.046 C 
HETATM   14  C   UNL     1      31.309  12.264  87.273  1.00  0.00     0.089 C 
HETATM   15  C   UNL     1      30.266  11.423  82.164  1.00  0.00     0.187 C 
HETATM   16  C   UNL     1      29.483  10.529  83.114  1.00  0.00     0.037 C 
HETATM   17  O   UNL     1      31.541  10.676  89.513  1.00  0.00    -0.334 OA
HETATM   18  C   UNL     1      31.089  10.878  85.084  1.00  0.00    -0.027 C 
HETATM   19  C   UNL     1      30.410  11.464  89.369  1.00  0.00     0.144 C 
ENDROOT
TORSDOF 0
ENDMDL
MODEL 8
REMARK VINA RESULT:      -6.6      3.188      4.614
REMARK  0 active torsions:
REMARK  status: ('A' for Active; 'I' for Inactive)
ROOT
HETATM    1  C   UNL     1      25.957  14.680  80.929  1.00  0.00     0.155 C 
HETATM    2  C   UNL     1      30.741  12.089  81.649  1.00  0.00     0.071 C 
HETATM    3  C   UNL     1      29.316  12.509  81.928  1.00  0.00     0.066 C 
HETATM    4  C   UNL     1      27.159  13.988  81.035  1.00  0.00     0.021 C 
HETATM    5  C   UNL     1      29.535  14.437  83.602  1.00  0.00     0.043 C 
HETATM    6  O   UNL     1      28.217  11.805  81.420  1.00  0.00    -0.313 OA
HETATM    7  C   UNL     1      25.881  12.116  81.995  1.00  0.00     0.062 C 
HETATM    8  C   UNL     1      28.400  14.653  81.379  1.00  0.00     0.026 C 
HETATM    9  C   UNL     1      31.283  11.080  82.642  1.00  0.00     0.244 C 
HETATM   10  N   UNL     1      32.009  11.843  83.665  1.00  0.00    -0.070 N 
ATOM     11  HN1 UNL     1      32.974  11.530  83.775  1.00  0.00     0.277 HD
ATOM     12  HN2 UNL     1      31.686  11.635  84.611  1.00  0.00     0.277 HD
HETATM   13  C   UNL     1      31.672  13.303  81.830  1.00  0.00     0.046 C 
HETATM   14  C   UNL     1      27.074  12.580  81.345  1.00  0.00     0.089 C 
HETATM   15  C   UNL     1      31.915  13.262  83.343  1.00  0.00     0.187 C 
HETATM   16  C   UNL     1      30.802  13.858  84.192  1.00  0.00     0.037 C 
HETATM   17  O   UNL     1      24.770  14.087  81.231  1.00  0.00    -0.334 OA
HETATM   18  C   UNL     1      29.099  13.919  82.273  1.00  0.00    -0.027 C 
HETATM   19  C   UNL     1      24.820  13.012  82.103  1.00  0.00     0.144 C 
ENDROOT
TORSDOF 0
ENDMDL
MODEL 9
REMARK VINA RESULT:      -6.6      1.505      2.225
REMARK  0 active torsions:
REMARK  status: ('A' for Active; 'I' for Inactive)
ROOT
HETATM    1  C   UNL     1      28.734  10.651  81.759  1.00  0.00     0.155 C 
HETATM    2  C   UNL     1      29.268  11.103  87.202  1.00  0.00     0.071 C 
HETATM    3  C   UNL     1      29.441  11.449  85.741  1.00  0.00     0.066 C 
HETATM    4  C   UNL     1      28.785  10.770  83.144  1.00  0.00     0.021 C 
HETATM    5  C   UNL     1      31.696  10.411  85.103  1.00  0.00     0.043 C 
HETATM    6  O   UNL     1      28.548  12.287  85.060  1.00  0.00    -0.313 OA
HETATM    7  C   UNL     1      28.809  13.212  82.833  1.00  0.00     0.062 C 
HETATM    8  C   UNL     1      29.536   9.843  83.966  1.00  0.00     0.026 C 
HETATM    9  C   UNL     1      29.919  12.096  88.144  1.00  0.00     0.244 C 
HETATM   10  N   UNL     1      31.247  11.562  88.468  1.00  0.00    -0.070 N 
ATOM     11  HN1 UNL     1      31.395  11.466  89.473  1.00  0.00     0.277 HD
ATOM     12  HN2 UNL     1      31.994  12.231  88.280  1.00  0.00     0.277 HD
HETATM   13  C   UNL     1      30.010   9.787  87.503  1.00  0.00     0.046 C 
HETATM   14  C   UNL     1      28.565  12.087  83.692  1.00  0.00     0.089 C 
HETATM   15  C   UNL     1      31.431  10.304  87.754  1.00  0.00     0.187 C 
HETATM   16  C   UNL     1      32.243  10.597  86.501  1.00  0.00     0.037 C 
HETATM   17  O   UNL     1      28.614  11.745  80.958  1.00  0.00    -0.334 OA
HETATM   18  C   UNL     1      30.218  10.507  84.927  1.00  0.00    -0.027 C 
HETATM   19  C   UNL     1      29.051  12.949  81.487  1.00  0.00     0.144 C 
ENDROOT
TORSDOF 0
ENDMDL
