REMARK  1 active torsions:
REMARK  status: ('A' for Active; 'I' for Inactive)
REMARK    1  A    between atoms: C_12  and  C_15 
ROOT
HETATM    1  N   UNL     1      32.994  11.508  87.620  1.00  0.00    -0.390 N 
ATOM      2  HN  UNL     1      33.634  11.906  86.932  1.00  0.00     0.159 HD
HETATM    3  C   UNL     1      33.416  12.316  89.869  1.00  0.00     0.025 C 
HETATM    4  C   UNL     1      32.014  12.879  90.169  1.00  0.00     0.003 C 
HETATM    5  C   UNL     1      30.736  11.303  88.502  1.00  0.00     0.032 C 
HETATM    6  C   UNL     1      31.126  10.110  89.385  1.00  0.00     0.012 C 
HETATM    7  C   UNL     1      32.621   9.962  89.573  1.00  0.00     0.026 C 
HETATM    8  C   UNL     1      33.496  11.074  88.960  1.00  0.00     0.081 C 
HETATM    9  C   UNL     1      30.789  12.613  89.291  1.00  0.00     0.010 C 
HETATM   10  C   UNL     1      31.704  11.368  87.338  1.00  0.00     0.003 C 
ENDROOT
BRANCH  10  11
HETATM   11  C   UNL     1      31.160  10.977  85.994  1.00  0.00     0.035 C 
HETATM   12  C   UNL     1      32.175  10.882  84.930  1.00  0.00    -0.007 C 
HETATM   13  C   UNL     1      32.325  11.855  83.961  1.00  0.00    -0.003 C 
HETATM   14  C   UNL     1      31.536  13.010  83.982  1.00  0.00     0.000 C 
HETATM   15  C   UNL     1      30.451  13.074  84.856  1.00  0.00     0.004 C 
HETATM   16  C   UNL     1      30.079  11.958  85.583  1.00  0.00    -0.066 C 
HETATM   17  C   UNL     1      28.612  11.691  85.887  1.00  0.00     0.045 C 
HETATM   18  C   UNL     1      30.532   9.590  86.109  1.00  0.00     0.031 C 
ENDBRANCH  10  11
TORSDOF 1
