ATOM      1  N   GLY A  38      56.576  46.536  38.622  1.00 17.21    -0.071 N 
ATOM      2  HN1 GLY A  38      55.709  47.052  38.772  1.00  0.00     0.274 HD
ATOM      3  HN2 GLY A  38      56.537  45.977  37.770  1.00  0.00     0.274 HD
ATOM      4  HN3 GLY A  38      57.343  47.158  38.366  1.00  0.00     0.274 HD
ATOM      5  CA  GLY A  38      56.908  45.729  39.770  1.00 17.11     0.332 C 
ATOM      6  C   GLY A  38      58.179  44.972  39.550  1.00 18.15     0.243 C 
ATOM      7  O   GLY A  38      58.689  44.893  38.429  1.00 18.36    -0.272 OA
ATOM      8  N   ASN A  39      58.681  44.379  40.619  1.00 18.77    -0.346 N 
ATOM      9  HN  ASN A  39      58.195  44.451  41.513  1.00  0.00     0.163 HD
ATOM     10  CA  ASN A  39      59.929  43.620  40.531  1.00 20.12     0.185 C 
ATOM     11  C   ASN A  39      59.838  42.282  39.852  1.00 21.43     0.241 C 
ATOM     12  O   ASN A  39      60.874  41.789  39.459  1.00 23.05    -0.271 OA
ATOM     13  CB  ASN A  39      60.660  43.519  41.882  1.00 20.46     0.137 C 
ATOM     14  CG  ASN A  39      59.907  42.719  42.932  1.00 20.16     0.217 C 
ATOM     15  OD1 ASN A  39      58.764  42.314  42.737  1.00 19.74    -0.274 OA
ATOM     16  ND2 ASN A  39      60.576  42.475  44.062  1.00 20.49    -0.370 N 
ATOM     17 1HD2 ASN A  39      60.071  41.938  44.767  1.00  0.00     0.159 HD
ATOM     18 2HD2 ASN A  39      61.525  42.811  44.224  1.00  0.00     0.159 HD
ATOM     19  N   ALA A  40      58.633  41.720  39.665  1.00 22.00    -0.346 N 
ATOM     20  HN  ALA A  40      57.822  42.127  40.130  1.00  0.00     0.163 HD
ATOM     21  CA  ALA A  40      58.441  40.521  38.801  1.00 23.86     0.172 C 
ATOM     22  C   ALA A  40      57.796  40.885  37.453  1.00 24.95     0.240 C 
ATOM     23  O   ALA A  40      57.449  39.997  36.687  1.00 26.31    -0.271 OA
ATOM     24  CB  ALA A  40      57.586  39.448  39.493  1.00 23.19     0.042 C 
ATOM     25  N   ILE A  41      57.626  42.171  37.165  1.00 25.05    -0.348 N 
ATOM     26  HN  ILE A  41      57.928  42.875  37.838  1.00  0.00     0.163 HD
ATOM     27  CA  ILE A  41      57.017  42.602  35.909  1.00 25.95     0.149 C 
ATOM     28  C   ILE A  41      58.123  42.945  34.922  1.00 27.71     0.256 C 
ATOM     29  O   ILE A  41      59.002  43.766  35.213  1.00 26.28    -0.305 OA
ATOM     30  CB  ILE A  41      56.149  43.863  36.119  1.00 25.03     0.011 C 
ATOM     31  CG1 ILE A  41      55.072  43.624  37.194  1.00 24.73     0.002 C 
ATOM     32  CG2 ILE A  41      55.540  44.323  34.808  1.00 24.71     0.012 C 
ATOM     33  CD1 ILE A  41      54.096  42.539  36.821  1.00 25.78     0.005 C 
ATOM     34  N   PHE A 106      50.836  39.633  52.751  1.00 17.26    -0.069 N 
ATOM     35  HN1 PHE A 106      51.168  38.719  52.444  1.00  0.00     0.275 HD
ATOM     36  HN2 PHE A 106      50.256  39.559  53.587  1.00  0.00     0.275 HD
ATOM     37  HN3 PHE A 106      51.594  40.196  53.135  1.00  0.00     0.275 HD
ATOM     38  CA  PHE A 106      50.142  40.332  51.679  1.00 17.00     0.248 C 
ATOM     39  C   PHE A 106      49.647  41.697  52.137  1.00 15.73     0.264 C 
ATOM     40  O   PHE A 106      48.980  41.808  53.136  1.00 16.17    -0.305 OA
ATOM     41  CB  PHE A 106      48.962  39.497  51.154  1.00 17.55     0.078 C 
ATOM     42  CG  PHE A 106      48.372  40.023  49.869  1.00 17.62    -0.056 A 
ATOM     43  CD1 PHE A 106      48.796  39.537  48.636  1.00 18.70     0.007 A 
ATOM     44  CD2 PHE A 106      47.401  40.992  49.884  1.00 17.41     0.007 A 
ATOM     45  CE1 PHE A 106      48.261  40.011  47.434  1.00 18.61     0.001 A 
ATOM     46  CE2 PHE A 106      46.847  41.460  48.692  1.00 17.60     0.001 A 
ATOM     47  CZ  PHE A 106      47.283  40.976  47.466  1.00 17.93     0.000 A 
ATOM     48  N   PHE A 123      51.071  47.005  45.974  1.00 14.33    -0.066 N 
ATOM     49  HN1 PHE A 123      50.163  47.408  45.743  1.00  0.00     0.275 HD
ATOM     50  HN2 PHE A 123      51.714  47.034  45.182  1.00  0.00     0.275 HD
ATOM     51  HN3 PHE A 123      51.599  47.596  46.617  1.00  0.00     0.275 HD
ATOM     52  CA  PHE A 123      50.903  45.655  46.489  1.00 15.23     0.278 C 
ATOM     53  C   PHE A 123      52.278  45.045  46.838  1.00 16.18     0.249 C 
ATOM     54  O   PHE A 123      53.250  45.203  46.089  1.00 15.85    -0.271 OA
ATOM     55  CB  PHE A 123      50.294  44.737  45.439  1.00 15.68     0.081 C 
ATOM     56  CG  PHE A 123      48.971  45.179  44.907  1.00 15.17    -0.056 A 
ATOM     57  CD1 PHE A 123      48.889  46.140  43.925  1.00 14.65     0.007 A 
ATOM     58  CD2 PHE A 123      47.813  44.577  45.346  1.00 15.60     0.007 A 
ATOM     59  CE1 PHE A 123      47.676  46.521  43.409  1.00 15.08     0.001 A 
ATOM     60  CE2 PHE A 123      46.584  44.942  44.830  1.00 15.79     0.001 A 
ATOM     61  CZ  PHE A 123      46.512  45.907  43.843  1.00 15.48     0.000 A 
ATOM     62  N   LYS A 124      52.347  44.372  47.979  1.00 16.80    -0.346 N 
ATOM     63  HN  LYS A 124      51.529  44.361  48.588  1.00  0.00     0.163 HD
ATOM     64  CA  LYS A 124      53.529  43.654  48.399  1.00 17.82     0.176 C 
ATOM     65  C   LYS A 124      53.112  42.308  48.955  1.00 17.93     0.241 C 
ATOM     66  O   LYS A 124      52.162  42.221  49.720  1.00 18.21    -0.271 OA
ATOM     67  CB  LYS A 124      54.243  44.428  49.476  1.00 19.50     0.035 C 
ATOM     68  CG  LYS A 124      55.609  43.863  49.879  1.00 21.78     0.004 C 
ATOM     69  CD  LYS A 124      56.309  44.802  50.880  1.00 23.66     0.027 C 
ATOM     70  CE  LYS A 124      55.809  44.539  52.310  1.00 25.39     0.229 C 
ATOM     71  NZ  LYS A 124      56.181  43.181  52.850  1.00 26.61    -0.079 N 
ATOM     72  HZ1 LYS A 124      55.849  43.007  53.799  1.00  0.00     0.274 HD
ATOM     73  HZ2 LYS A 124      57.189  43.036  52.791  1.00  0.00     0.274 HD
ATOM     74  HZ3 LYS A 124      55.864  42.445  52.219  1.00  0.00     0.274 HD
ATOM     75  N   LYS A 125      53.800  41.261  48.549  1.00 18.52    -0.349 N 
ATOM     76  HN  LYS A 125      54.516  41.387  47.834  1.00  0.00     0.163 HD
ATOM     77  CA  LYS A 125      53.570  39.937  49.087  1.00 20.05     0.146 C 
ATOM     78  C   LYS A 125      54.870  39.186  49.243  1.00 19.76     0.256 C 
ATOM     79  O   LYS A 125      55.827  39.455  48.539  1.00 19.67    -0.305 OA
ATOM     80  CB  LYS A 125      52.612  39.153  48.189  1.00 21.85     0.032 C 
ATOM     81  CG  LYS A 125      53.106  38.923  46.777  1.00 23.93     0.004 C 
ATOM     82  CD  LYS A 125      52.201  37.949  46.003  1.00 25.71     0.027 C 
ATOM     83  CE  LYS A 125      52.927  37.351  44.809  1.00 27.73     0.229 C 
ATOM     84  NZ  LYS A 125      52.020  36.760  43.779  1.00 29.01    -0.079 N 
ATOM     85  HZ1 LYS A 125      52.507  36.359  42.978  1.00  0.00     0.274 HD
ATOM     86  HZ2 LYS A 125      51.331  37.447  43.472  1.00  0.00     0.274 HD
ATOM     87  HZ3 LYS A 125      51.399  36.070  44.202  1.00  0.00     0.274 HD
ATOM     88  N   SER A 127      55.951  35.367  48.917  1.00 22.44    -0.067 N 
ATOM     89  HN1 SER A 127      55.113  35.944  48.997  1.00  0.00     0.275 HD
ATOM     90  HN2 SER A 127      56.669  35.789  48.327  1.00  0.00     0.275 HD
ATOM     91  HN3 SER A 127      56.492  35.331  49.781  1.00  0.00     0.275 HD
ATOM     92  CA  SER A 127      55.540  34.062  48.456  1.00 25.01     0.267 C 
ATOM     93  C   SER A 127      56.791  33.201  48.337  1.00 26.54     0.266 C 
ATOM     94  O   SER A 127      57.799  33.625  47.739  1.00 26.40    -0.305 OA
ATOM     95  CB  SER A 127      54.839  34.186  47.094  1.00 25.28     0.204 C 
ATOM     96  OG  SER A 127      54.451  32.899  46.652  1.00 28.03    -0.398 OA
ATOM     97  HG  SER A 127      54.018  32.976  45.810  1.00  0.00     0.209 HD
ATOM     98  N   TYR A 132      57.818  40.208  46.706  1.00 18.25    -0.066 N 
ATOM     99  HN1 TYR A 132      58.333  39.350  46.509  1.00  0.00     0.275 HD
ATOM    100  HN2 TYR A 132      57.034  40.044  47.337  1.00  0.00     0.275 HD
ATOM    101  HN3 TYR A 132      58.354  40.847  47.294  1.00  0.00     0.275 HD
ATOM    102  CA  TYR A 132      57.395  40.837  45.470  1.00 17.92     0.278 C 
ATOM    103  C   TYR A 132      56.627  42.116  45.764  1.00 17.12     0.249 C 
ATOM    104  O   TYR A 132      55.929  42.222  46.784  1.00 16.41    -0.271 OA
ATOM    105  CB  TYR A 132      56.483  39.895  44.660  1.00 18.47     0.081 C 
ATOM    106  CG  TYR A 132      57.135  38.586  44.253  1.00 19.62    -0.056 A 
ATOM    107  CD1 TYR A 132      57.969  38.526  43.153  1.00 20.47     0.010 A 
ATOM    108  CD2 TYR A 132      56.918  37.422  44.973  1.00 20.33     0.010 A 
ATOM    109  CE1 TYR A 132      58.572  37.354  42.764  1.00 22.05     0.037 A 
ATOM    110  CE2 TYR A 132      57.513  36.221  44.589  1.00 21.96     0.037 A 
ATOM    111  CZ  TYR A 132      58.338  36.194  43.485  1.00 22.71     0.065 A 
ATOM    112  OH  TYR A 132      58.955  35.027  43.109  1.00 24.56    -0.361 OA
ATOM    113  HH  TYR A 132      58.795  34.232  43.603  1.00  0.00     0.217 HD
ATOM    114  N   PHE A 133      56.760  43.089  44.867  1.00 16.58    -0.346 N 
ATOM    115  HN  PHE A 133      57.467  42.999  44.137  1.00  0.00     0.163 HD
ATOM    116  CA  PHE A 133      55.931  44.268  44.900  1.00 15.69     0.180 C 
ATOM    117  C   PHE A 133      55.573  44.713  43.493  1.00 16.32     0.241 C 
ATOM    118  O   PHE A 133      56.268  44.424  42.518  1.00 16.46    -0.271 OA
ATOM    119  CB  PHE A 133      56.568  45.413  45.693  1.00 15.06     0.073 C 
ATOM    120  CG  PHE A 133      57.725  46.079  45.017  1.00 15.24    -0.056 A 
ATOM    121  CD1 PHE A 133      58.975  45.488  44.999  1.00 15.86     0.007 A 
ATOM    122  CD2 PHE A 133      57.578  47.331  44.423  1.00 15.08     0.007 A 
ATOM    123  CE1 PHE A 133      60.055  46.122  44.367  1.00 16.57     0.001 A 
ATOM    124  CE2 PHE A 133      58.653  47.980  43.830  1.00 15.45     0.001 A 
ATOM    125  CZ  PHE A 133      59.892  47.369  43.789  1.00 16.27     0.000 A 
ATOM    126  N   LYS A 134      54.481  45.442  43.440  1.00 16.96    -0.348 N 
ATOM    127  HN  LYS A 134      54.072  45.743  44.325  1.00  0.00     0.163 HD
ATOM    128  CA  LYS A 134      53.823  45.845  42.237  1.00 18.10     0.146 C 
ATOM    129  C   LYS A 134      53.148  47.190  42.515  1.00 16.54     0.256 C 
ATOM    130  O   LYS A 134      52.645  47.423  43.626  1.00 14.88    -0.305 OA
ATOM    131  CB  LYS A 134      52.747  44.812  41.965  1.00 21.28     0.032 C 
ATOM    132  CG  LYS A 134      52.081  44.878  40.640  1.00 24.62     0.004 C 
ATOM    133  CD  LYS A 134      50.628  44.463  40.739  1.00 27.02     0.027 C 
ATOM    134  CE  LYS A 134      50.455  43.011  41.074  1.00 29.85     0.229 C 
ATOM    135  NZ  LYS A 134      49.042  42.566  40.850  1.00 30.67    -0.079 N 
ATOM    136  HZ1 LYS A 134      48.924  41.579  41.078  1.00  0.00     0.274 HD
ATOM    137  HZ2 LYS A 134      48.731  42.771  39.900  1.00  0.00     0.274 HD
ATOM    138  HZ3 LYS A 134      48.380  43.150  41.361  1.00  0.00     0.274 HD
ATOM    139  N   LEU A  94      44.990  40.298  53.119  1.00 16.38    -0.069 N 
ATOM    140  HN1 LEU A  94      45.539  40.894  52.499  1.00  0.00     0.275 HD
ATOM    141  HN2 LEU A  94      45.558  39.900  53.867  1.00  0.00     0.275 HD
ATOM    142  HN3 LEU A  94      44.344  40.840  53.693  1.00  0.00     0.275 HD
ATOM    143  CA  LEU A  94      44.294  39.254  52.342  1.00 17.21     0.244 C 
ATOM    144  C   LEU A  94      43.475  38.366  53.266  1.00 18.42     0.263 C 
ATOM    145  O   LEU A  94      44.013  37.837  54.230  1.00 19.81    -0.305 OA
ATOM    146  CB  LEU A  94      45.315  38.406  51.597  1.00 17.11     0.044 C 
ATOM    147  CG  LEU A  94      44.804  37.428  50.552  1.00 17.84    -0.020 C 
ATOM    148  CD1 LEU A  94      44.164  38.186  49.396  1.00 16.64     0.009 C 
ATOM    149  CD2 LEU A  94      45.982  36.581  50.068  1.00 17.64     0.009 C 
ATOM    150  N   LEU A 103      52.085  31.535  50.507  1.00 26.20    -0.069 N 
ATOM    151  HN1 LEU A 103      52.117  31.337  49.507  1.00  0.00     0.275 HD
ATOM    152  HN2 LEU A 103      51.372  30.983  50.984  1.00  0.00     0.275 HD
ATOM    153  HN3 LEU A 103      52.904  31.173  50.995  1.00  0.00     0.275 HD
ATOM    154  CA  LEU A 103      51.904  32.978  50.726  1.00 24.22     0.244 C 
ATOM    155  C   LEU A 103      51.856  33.273  52.219  1.00 23.42     0.263 C 
ATOM    156  O   LEU A 103      50.935  32.827  52.912  1.00 23.86    -0.305 OA
ATOM    157  CB  LEU A 103      50.590  33.440  50.083  1.00 23.59     0.044 C 
ATOM    158  CG  LEU A 103      50.413  34.921  49.734  1.00 22.90    -0.020 C 
ATOM    159  CD1 LEU A 103      51.428  35.295  48.662  1.00 23.35     0.009 C 
ATOM    160  CD2 LEU A 103      48.996  35.259  49.249  1.00 21.75     0.009 C 
ATOM    161  N   LEU A 107      49.984  42.749  51.404  1.00 15.09    -0.066 N 
ATOM    162  HN1 LEU A 107      50.232  42.210  52.234  1.00  0.00     0.275 HD
ATOM    163  HN2 LEU A 107      50.732  42.757  50.710  1.00  0.00     0.275 HD
ATOM    164  HN3 LEU A 107      49.270  42.286  50.842  1.00  0.00     0.275 HD
ATOM    165  CA  LEU A 107      49.588  44.091  51.803  1.00 14.35     0.275 C 
ATOM    166  C   LEU A 107      49.222  44.887  50.578  1.00 13.41     0.248 C 
ATOM    167  O   LEU A 107      49.927  44.836  49.565  1.00 12.46    -0.271 OA
ATOM    168  CB  LEU A 107      50.718  44.793  52.589  1.00 14.79     0.046 C 
ATOM    169  CG  LEU A 107      50.431  46.271  52.970  1.00 14.71    -0.020 C 
ATOM    170  CD1 LEU A 107      49.319  46.365  54.010  1.00 14.86     0.009 C 
ATOM    171  CD2 LEU A 107      51.676  47.010  53.467  1.00 14.71     0.009 C 
ATOM    172  N   VAL A 108      48.101  45.612  50.695  1.00 12.87    -0.348 N 
ATOM    173  HN  VAL A 108      47.536  45.496  51.536  1.00  0.00     0.163 HD
ATOM    174  CA  VAL A 108      47.650  46.549  49.693  1.00 12.32     0.149 C 
ATOM    175  C   VAL A 108      47.652  47.921  50.341  1.00 12.62     0.256 C 
ATOM    176  O   VAL A 108      47.216  48.079  51.480  1.00 12.94    -0.305 OA
ATOM    177  CB  VAL A 108      46.224  46.254  49.199  1.00 12.44     0.007 C 
ATOM    178  CG1 VAL A 108      45.891  47.121  47.998  1.00 11.93     0.012 C 
ATOM    179  CG2 VAL A 108      46.027  44.756  48.906  1.00 12.37     0.012 C 
ATOM    180  N   VAL A 126      54.880  38.233  50.165  1.00 19.60    -0.069 N 
ATOM    181  HN1 VAL A 126      55.259  39.151  50.399  1.00  0.00     0.275 HD
ATOM    182  HN2 VAL A 126      54.055  37.981  50.709  1.00  0.00     0.275 HD
ATOM    183  HN3 VAL A 126      54.437  38.196  49.247  1.00  0.00     0.275 HD
ATOM    184  CA  VAL A 126      55.979  37.305  50.316  1.00 19.90     0.247 C 
ATOM    185  C   VAL A 126      55.418  35.947  49.970  1.00 21.01     0.264 C 
ATOM    186  O   VAL A 126      54.519  35.445  50.625  1.00 20.86    -0.305 OA
ATOM    187  CB  VAL A 126      56.565  37.319  51.734  1.00 19.77     0.015 C 
ATOM    188  CG1 VAL A 126      57.646  36.227  51.920  1.00 20.23     0.012 C 
ATOM    189  CG2 VAL A 126      57.119  38.710  52.045  1.00 18.71     0.012 C 
ATOM    190  N   LEU A  36      51.304  49.030  34.840  1.00 15.92    -0.066 N 
ATOM    191  HN1 LEU A  36      50.288  48.981  34.769  1.00  0.00     0.275 HD
ATOM    192  HN2 LEU A  36      51.775  48.966  33.938  1.00  0.00     0.275 HD
ATOM    193  HN3 LEU A  36      51.647  49.956  35.097  1.00  0.00     0.275 HD
ATOM    194  CA  LEU A  36      51.700  47.997  35.766  1.00 16.23     0.275 C 
ATOM    195  C   LEU A  36      53.224  48.071  35.872  1.00 16.60     0.248 C 
ATOM    196  O   LEU A  36      53.895  48.181  34.840  1.00 17.86    -0.271 OA
ATOM    197  CB  LEU A  36      51.197  46.679  35.201  1.00 17.27     0.046 C 
ATOM    198  CG  LEU A  36      51.396  45.370  35.913  1.00 18.03    -0.020 C 
ATOM    199  CD1 LEU A  36      50.616  45.325  37.228  1.00 16.96     0.009 C 
ATOM    200  CD2 LEU A  36      50.983  44.273  34.928  1.00 18.93     0.009 C 
ATOM    201  N   ALA A  37      53.744  48.124  37.101  1.00 15.99    -0.349 N 
ATOM    202  HN  ALA A  37      53.106  48.183  37.895  1.00  0.00     0.163 HD
ATOM    203  CA  ALA A  37      55.191  48.102  37.367  1.00 16.51     0.142 C 
ATOM    204  C   ALA A  37      55.445  47.212  38.588  1.00 16.56     0.255 C 
ATOM    205  O   ALA A  37      54.619  47.128  39.478  1.00 16.44    -0.305 OA
ATOM    206  CB  ALA A  37      55.721  49.503  37.627  1.00 16.35     0.039 C 
ATOM    207  N   PHE A 122      49.654  50.179  45.537  1.00 12.49    -0.069 N 
ATOM    208  HN1 PHE A 122      49.923  51.074  45.127  1.00  0.00     0.275 HD
ATOM    209  HN2 PHE A 122      49.054  50.297  46.353  1.00  0.00     0.275 HD
ATOM    210  HN3 PHE A 122      49.000  49.668  44.944  1.00  0.00     0.275 HD
ATOM    211  CA  PHE A 122      50.838  49.398  45.840  1.00 13.00     0.248 C 
ATOM    212  C   PHE A 122      50.440  48.072  46.447  1.00 13.48     0.264 C 
ATOM    213  O   PHE A 122      49.603  48.028  47.327  1.00 13.63    -0.305 OA
ATOM    214  CB  PHE A 122      51.711  50.190  46.812  1.00 13.23     0.078 C 
ATOM    215  CG  PHE A 122      52.922  49.456  47.333  1.00 13.46    -0.056 A 
ATOM    216  CD1 PHE A 122      54.125  49.510  46.653  1.00 13.83     0.007 A 
ATOM    217  CD2 PHE A 122      52.880  48.794  48.550  1.00 13.58     0.007 A 
ATOM    218  CE1 PHE A 122      55.253  48.894  47.147  1.00 14.26     0.001 A 
ATOM    219  CE2 PHE A 122      54.005  48.175  49.062  1.00 13.99     0.001 A 
ATOM    220  CZ  PHE A 122      55.193  48.233  48.365  1.00 14.44     0.000 A 
ATOM    221  N   ILE A 135      53.113  48.060  41.503  1.00 15.79    -0.069 N 
ATOM    222  HN1 ILE A 135      53.719  48.112  42.322  1.00  0.00     0.275 HD
ATOM    223  HN2 ILE A 135      53.640  47.968  40.635  1.00  0.00     0.275 HD
ATOM    224  HN3 ILE A 135      52.602  47.179  41.453  1.00  0.00     0.275 HD
ATOM    225  CA  ILE A 135      52.225  49.221  41.495  1.00 14.99     0.247 C 
ATOM    226  C   ILE A 135      51.321  49.143  40.272  1.00 15.20     0.264 C 
ATOM    227  O   ILE A 135      51.792  48.913  39.140  1.00 15.44    -0.305 OA
ATOM    228  CB  ILE A 135      52.987  50.541  41.430  1.00 15.05     0.018 C 
ATOM    229  CG1 ILE A 135      54.181  50.507  42.386  1.00 15.33     0.002 C 
ATOM    230  CG2 ILE A 135      52.064  51.715  41.718  1.00 14.10     0.012 C 
ATOM    231  CD1 ILE A 135      55.448  50.016  41.733  1.00 15.87     0.005 C 
ATOM    232  N   SER A 105      52.638  36.675  53.481  1.00 20.54    -0.067 N 
ATOM    233  HN1 SER A 105      53.071  36.253  54.302  1.00  0.00     0.275 HD
ATOM    234  HN2 SER A 105      53.187  36.529  52.634  1.00  0.00     0.275 HD
ATOM    235  HN3 SER A 105      51.794  36.182  53.190  1.00  0.00     0.275 HD
ATOM    236  CA  SER A 105      52.395  38.076  53.747  1.00 19.71     0.267 C 
ATOM    237  C   SER A 105      51.752  38.703  52.527  1.00 18.43     0.266 C 
ATOM    238  O   SER A 105      52.086  38.346  51.407  1.00 18.70    -0.305 OA
ATOM    239  CB  SER A 105      53.711  38.767  54.085  1.00 20.43     0.204 C 
ATOM    240  OG  SER A 105      53.532  40.154  54.242  1.00 20.91    -0.398 OA
ATOM    241  HG  SER A 105      54.352  40.585  54.453  1.00  0.00     0.209 HD
ATOM    242  N   THR A 136      50.024  49.320  40.493  1.00 14.98    -0.066 N 
ATOM    243  HN1 THR A 136      50.384  48.373  40.612  1.00  0.00     0.275 HD
ATOM    244  HN2 THR A 136      49.600  49.680  41.348  1.00  0.00     0.275 HD
ATOM    245  HN3 THR A 136      50.772  50.007  40.400  1.00  0.00     0.275 HD
ATOM    246  CA  THR A 136      49.120  49.355  39.386  1.00 16.30     0.272 C 
ATOM    247  C   THR A 136      48.589  50.753  39.211  1.00 15.54     0.266 C 
ATOM    248  O   THR A 136      48.271  51.433  40.204  1.00 16.75    -0.305 OA
ATOM    249  CB  THR A 136      47.938  48.374  39.547  1.00 17.16     0.151 C 
ATOM    250  OG1 THR A 136      47.154  48.797  40.664  1.00 19.36    -0.393 OA
ATOM    251  HG1 THR A 136      46.427  48.194  40.763  1.00  0.00     0.210 HD
ATOM    252  CG2 THR A 136      48.423  46.955  39.742  1.00 16.76     0.042 C 
ATOM    253  N   VAL A 121      47.947  52.052  43.110  1.00 12.42    -0.069 N 
ATOM    254  HN1 VAL A 121      47.114  52.639  43.056  1.00  0.00     0.275 HD
ATOM    255  HN2 VAL A 121      48.117  51.553  42.237  1.00  0.00     0.275 HD
ATOM    256  HN3 VAL A 121      48.801  52.609  43.136  1.00  0.00     0.275 HD
ATOM    257  CA  VAL A 121      47.859  51.143  44.243  1.00 12.15     0.247 C 
ATOM    258  C   VAL A 121      49.104  50.266  44.324  1.00 12.44     0.264 C 
ATOM    259  O   VAL A 121      49.520  49.682  43.316  1.00 12.04    -0.305 OA
ATOM    260  CB  VAL A 121      46.603  50.261  44.129  1.00 11.60     0.015 C 
ATOM    261  CG1 VAL A 121      46.464  49.352  45.349  1.00 11.09     0.012 C 
ATOM    262  CG2 VAL A 121      45.366  51.147  43.934  1.00 11.30     0.012 C 
ATOM    263  N   GLU A 131      60.189  38.338  48.266  1.00 21.40    -0.069 N 
ATOM    264  HN1 GLU A 131      60.371  37.847  49.141  1.00  0.00     0.275 HD
ATOM    265  HN2 GLU A 131      61.058  38.580  47.790  1.00  0.00     0.275 HD
ATOM    266  HN3 GLU A 131      59.791  37.711  47.567  1.00  0.00     0.275 HD
ATOM    267  CA  GLU A 131      59.342  39.523  48.462  1.00 20.09     0.244 C 
ATOM    268  C   GLU A 131      59.068  40.260  47.147  1.00 19.31     0.263 C 
ATOM    269  O   GLU A 131      59.981  40.845  46.534  1.00 19.39    -0.305 OA
ATOM    270  CB  GLU A 131      59.940  40.458  49.499  1.00 20.14     0.050 C 
ATOM    271  CG  GLU A 131      58.967  41.577  49.814  1.00 19.84     0.115 C 
ATOM    272  CD  GLU A 131      59.348  42.395  51.026  1.00 20.26     0.172 C 
ATOM    273  OE1 GLU A 131      60.567  42.550  51.300  1.00 20.95    -0.648 OA
ATOM    274  OE2 GLU A 131      58.400  42.906  51.674  1.00 20.62    -0.648 OA
ATOM    275  N   LEU A   7      65.842  39.593  42.961  1.00 28.24    -0.069 N 
ATOM    276  HN1 LEU A   7      65.541  38.659  42.683  1.00  0.00     0.275 HD
ATOM    277  HN2 LEU A   7      66.241  39.594  43.900  1.00  0.00     0.275 HD
ATOM    278  HN3 LEU A   7      66.666  39.892  42.440  1.00  0.00     0.275 HD
ATOM    279  CA  LEU A   7      64.750  40.558  42.840  1.00 25.21     0.244 C 
ATOM    280  C   LEU A   7      65.200  41.954  43.256  1.00 24.10     0.263 C 
ATOM    281  O   LEU A   7      65.960  42.107  44.202  1.00 24.24    -0.305 OA
ATOM    282  CB  LEU A   7      63.540  40.125  43.678  1.00 23.87     0.044 C 
ATOM    283  CG  LEU A   7      62.861  38.818  43.267  1.00 24.11    -0.020 C 
ATOM    284  CD1 LEU A   7      61.930  38.313  44.349  1.00 23.32     0.009 C 
ATOM    285  CD2 LEU A   7      62.138  38.945  41.918  1.00 23.49     0.009 C 
ATOM    286  N   LEU A  42      58.071  42.331  33.745  1.00 31.17    -0.069 N 
ATOM    287  HN1 LEU A  42      58.525  42.065  34.619  1.00  0.00     0.275 HD
ATOM    288  HN2 LEU A  42      57.373  41.647  33.453  1.00  0.00     0.275 HD
ATOM    289  HN3 LEU A  42      57.453  43.134  33.864  1.00  0.00     0.275 HD
ATOM    290  CA  LEU A  42      59.086  42.565  32.701  1.00 34.78     0.244 C 
ATOM    291  C   LEU A  42      58.413  42.960  31.404  1.00 35.83     0.263 C 
ATOM    292  O   LEU A  42      57.428  42.352  31.017  1.00 36.10    -0.305 OA
ATOM    293  CB  LEU A  42      59.945  41.310  32.482  1.00 37.29     0.044 C 
ATOM    294  CG  LEU A  42      61.201  41.192  33.363  1.00 39.17    -0.020 C 
ATOM    295  CD1 LEU A  42      61.727  39.750  33.448  1.00 40.93     0.009 C 
ATOM    296  CD2 LEU A  42      62.281  42.129  32.831  1.00 39.91     0.009 C 
ATOM    297  N   ARG A 130      60.026  34.954  49.096  1.00 25.36    -0.069 N 
ATOM    298  HN1 ARG A 130      60.651  34.149  49.054  1.00  0.00     0.275 HD
ATOM    299  HN2 ARG A 130      59.050  34.717  48.919  1.00  0.00     0.275 HD
ATOM    300  HN3 ARG A 130      59.899  35.319  50.040  1.00  0.00     0.275 HD
ATOM    301  CA  ARG A 130      60.556  35.933  48.169  1.00 24.89     0.244 C 
ATOM    302  C   ARG A 130      59.626  37.131  48.231  1.00 22.59     0.263 C 
ATOM    303  O   ARG A 130      58.406  36.964  48.266  1.00 20.84    -0.305 OA
ATOM    304  CB  ARG A 130      60.639  35.349  46.742  1.00 26.55     0.041 C 
ATOM    305  CG  ARG A 130      61.662  34.223  46.604  1.00 29.17     0.023 C 
ATOM    306  CD  ARG A 130      61.461  33.375  45.348  1.00 31.14     0.138 C 
ATOM    307  NE  ARG A 130      61.414  34.159  44.116  1.00 31.60    -0.227 N 
ATOM    308  HE  ARG A 130      60.495  34.363  43.724  1.00  0.00     0.177 HD
ATOM    309  CZ  ARG A 130      62.477  34.628  43.465  1.00 33.57     0.665 C 
ATOM    310  NH1 ARG A 130      63.712  34.395  43.917  1.00 35.57    -0.235 N 
ATOM    311 1HH1 ARG A 130      64.526  34.754  43.418  1.00  0.00     0.174 HD
ATOM    312 2HH1 ARG A 130      63.842  33.860  44.776  1.00  0.00     0.174 HD
ATOM    313  NH2 ARG A 130      62.307  35.329  42.340  1.00 33.22    -0.235 N 
ATOM    314 1HH2 ARG A 130      63.121  35.688  41.841  1.00  0.00     0.174 HD
ATOM    315 2HH2 ARG A 130      61.364  35.507  41.995  1.00  0.00     0.174 HD
ATOM    316  N   HIS A 165      60.905  47.453  33.890  1.00 23.79    -0.069 N 
ATOM    317  HN1 HIS A 165      61.792  46.951  33.844  1.00  0.00     0.275 HD
ATOM    318  HN2 HIS A 165      61.063  48.436  34.111  1.00  0.00     0.275 HD
ATOM    319  HN3 HIS A 165      60.501  47.546  32.958  1.00  0.00     0.275 HD
ATOM    320  CA  HIS A 165      59.920  46.868  34.822  1.00 21.97     0.249 C 
ATOM    321  C   HIS A 165      58.599  47.615  34.890  1.00 20.47     0.264 C 
ATOM    322  O   HIS A 165      57.839  47.459  35.839  1.00 19.03    -0.305 OA
ATOM    323  CB  HIS A 165      60.545  46.738  36.203  1.00 21.44     0.098 C 
ATOM    324  CG  HIS A 165      61.457  45.553  36.344  1.00 23.14     0.028 A 
ATOM    325  ND1 HIS A 165      61.035  44.376  36.841  1.00 23.87    -0.355 N 
ATOM    326  HD1 HIS A 165      60.084  44.173  37.149  1.00  0.00     0.166 HD
ATOM    327  CD2 HIS A 165      62.812  45.394  36.056  1.00 25.40     0.114 A 
ATOM    328  CE1 HIS A 165      62.067  43.506  36.868  1.00 25.45     0.180 A 
ATOM    329  NE2 HIS A 165      63.149  44.128  36.375  1.00 26.53    -0.360 N 
ATOM    330  HE2 HIS A 165      64.073  43.712  36.261  1.00  0.00     0.166 HD
TER     331      HIS A 165 
