REMARK  9 active torsions:
REMARK  status: ('A' for Active; 'I' for Inactive)
REMARK    1  A    between atoms: O_1  and  C_27 
REMARK    2  A    between atoms: C_4  and  C_9 
REMARK    3  A    between atoms: C_6  and  C_20 
REMARK    4  A    between atoms: C_9  and  C_28 
REMARK    5  A    between atoms: C_12  and  C_28 
REMARK    6  A    between atoms: O_13  and  C_31 
REMARK    7  A    between atoms: N_16  and  C_27 
REMARK    8  A    between atoms: C_21  and  C_27 
REMARK    9  A    between atoms: C_27  and  O_32 
ROOT
HETATM    1  C   UNL     1      27.834  27.289  92.589  1.00  0.00     0.023 C 
HETATM    2  C   UNL     1      32.867  24.943  94.170  1.00  0.00     0.063 C 
HETATM    3  C   UNL     1      30.341  25.100  93.538  1.00  0.00     0.007 C 
HETATM    4  C   UNL     1      31.511  24.458  94.253  1.00  0.00    -0.037 C 
HETATM    5  C   UNL     1      30.153  22.233  94.547  1.00  0.00     0.009 C 
HETATM    6  C   UNL     1      27.958  24.743  92.654  1.00  0.00     0.026 C 
HETATM    7  C   UNL     1      29.208  27.776  93.135  1.00  0.00     0.136 C 
HETATM    8  C   UNL     1      27.900  25.988  91.743  1.00  0.00     0.047 C 
HETATM    9  C   UNL     1      31.178  23.221  95.129  1.00  0.00     0.040 C 
HETATM   10  C   UNL     1      29.204  24.208  93.124  1.00  0.00    -0.032 C 
HETATM   11  C   UNL     1      29.350  22.677  93.311  1.00  0.00     0.040 C 
HETATM   12  C   UNL     1      30.343  26.626  93.211  1.00  0.00     0.066 C 
ENDROOT
BRANCH   2  13
HETATM   13  C   UNL     1      34.220  24.587  94.157  1.00  0.00    -0.127 C 
BRANCH  13  14
HETATM   14  C   UNL     1      35.515  24.003  94.121  1.00  0.00     0.058 C 
BRANCH  14  15
HETATM   15  C   UNL     1      36.369  23.159  93.310  1.00  0.00    -0.072 C 
HETATM   16  C   UNL     1      37.838  23.604  93.086  1.00  0.00     0.034 C 
HETATM   17  C   UNL     1      38.689  22.611  92.254  1.00  0.00     0.004 C 
HETATM   18  C   UNL     1      37.907  21.973  91.059  1.00  0.00     0.001 C 
HETATM   19  C   UNL     1      36.763  21.093  91.632  1.00  0.00     0.004 C 
HETATM   20  C   UNL     1      35.806  21.910  92.546  1.00  0.00     0.034 C 
ENDBRANCH  14  15
ENDBRANCH  13  14
ENDBRANCH   2  13
BRANCH  12  21
HETATM   21  O   UNL     1      31.485  27.042  92.585  1.00  0.00    -0.363 OA
ATOM     22  HO  UNL     1      31.486  27.971  92.386  1.00  0.00     0.217 HD
ENDBRANCH  12  21
BRANCH   6  23
HETATM   23  C   UNL     1      26.784  23.794  92.531  1.00  0.00     0.205 C 
HETATM   24  O   UNL     1      26.538  23.052  93.491  1.00  0.00    -0.644 OA
HETATM   25  O   UNL     1      26.146  23.768  91.448  1.00  0.00    -0.644 OA
ENDBRANCH   6  23
BRANCH   7  26
HETATM   26  C   UNL     1      29.559  29.191  92.418  1.00  0.00     0.341 C 
BRANCH  26  27
HETATM   27  O   UNL     1      29.660  29.055  91.059  1.00  0.00    -0.343 OA
ATOM     28  HO  UNL     1      28.875  28.680  90.678  1.00  0.00     0.215 HD
ENDBRANCH  26  27
BRANCH  26  29
HETATM   29  N   UNL     1      30.748  29.758  92.995  1.00  0.00    -0.021 N 
ATOM     30  HN3 UNL     1      31.576  29.221  92.738  1.00  0.00     0.281 HD
ATOM     31  HN2 UNL     1      30.987  30.645  92.552  1.00  0.00     0.281 HD
ATOM     32  HN1 UNL     1      30.673  29.859  94.007  1.00  0.00     0.281 HD
ENDBRANCH  26  29
BRANCH  26  33
HETATM   33  O   UNL     1      28.523  30.075  92.775  1.00  0.00    -0.343 OA
ATOM     34  HO  UNL     1      28.453  30.169  93.718  1.00  0.00     0.215 HD
ENDBRANCH  26  33
ENDBRANCH   7  26
TORSDOF 9
