MODEL 1
REMARK VINA RESULT:     -10.0      0.000      0.000
REMARK  6 active torsions:
REMARK  status: ('A' for Active; 'I' for Inactive)
REMARK    1  A    between atoms: N_2  and  C_27 
REMARK    2  A    between atoms: N_2  and  C_31 
REMARK    3  A    between atoms: C_6  and  C_8 
REMARK    4  A    between atoms: C_14  and  C_22 
REMARK    5  A    between atoms: O_17  and  C_22 
REMARK    6  A    between atoms: O_23  and  C_25 
ROOT
HETATM    1  N   UNL     1      89.986 120.445 129.838  1.00  0.00    -0.321 N 
ATOM      2  HN  UNL     1      90.542 121.031 129.215  1.00  0.00     0.169 HD
HETATM    3  C   UNL     1      90.412 119.185 130.233  1.00  0.00     0.041 C 
HETATM    4  C   UNL     1      90.172 118.761 131.538  1.00  0.00     0.032 C 
HETATM    5  C   UNL     1      89.206 119.445 132.292  1.00  0.00     0.037 C 
HETATM    6  O   UNL     1      87.902 121.379 129.635  1.00  0.00    -0.266 OA
HETATM    7  C   UNL     1      88.774 120.859 130.331  1.00  0.00     0.272 C 
HETATM    8  C   UNL     1      88.603 120.598 131.777  1.00  0.00     0.101 C 
ENDROOT
BRANCH   8   9
HETATM    9  N   UNL     1      87.876 121.500 132.519  1.00  0.00    -0.361 N 
ATOM     10  HN  UNL     1      86.949 121.692 132.141  1.00  0.00     0.165 HD
BRANCH   9  11
HETATM   11  C   UNL     1      88.165 122.206 133.695  1.00  0.00     0.096 C 
HETATM   12  C   UNL     1      88.031 121.631 134.953  1.00  0.00    -0.032 C 
HETATM   13  C   UNL     1      88.644 122.120 136.195  1.00  0.00    -0.022 C 
HETATM   14  C   UNL     1      87.109 120.497 135.276  1.00  0.00     0.045 C 
HETATM   15  C   UNL     1      89.850 122.778 136.451  1.00  0.00     0.015 C 
HETATM   16  C   UNL     1      87.916 121.582 137.263  1.00  0.00    -0.044 C 
HETATM   17  C   UNL     1      90.126 123.163 137.765  1.00  0.00     0.037 C 
HETATM   18  C   UNL     1      89.257 122.801 138.812  1.00  0.00     0.066 C 
HETATM   19  C   UNL     1      88.068 122.114 138.532  1.00  0.00     0.044 C 
HETATM   20  C   UNL     1      86.952 120.547 136.781  1.00  0.00     0.044 C 
BRANCH  18  21
HETATM   21  O   UNL     1      89.434 123.265 140.081  1.00  0.00    -0.361 OA
ATOM     22  HO  UNL     1      90.224 123.003 140.540  1.00  0.00     0.217 HD
ENDBRANCH  18  21
ENDBRANCH   9  11
ENDBRANCH   8   9
BRANCH   3  23
HETATM   23  C   UNL     1      90.987 118.344 129.176  1.00  0.00    -0.009 C 
HETATM   24  C   UNL     1      90.142 117.834 128.020  1.00  0.00     0.040 C 
HETATM   25  C   UNL     1      91.091 116.824 127.391  1.00  0.00     0.008 C 
HETATM   26  C   UNL     1      92.476 117.404 127.583  1.00  0.00     0.054 C 
HETATM   27  C   UNL     1      92.365 118.556 128.581  1.00  0.00     0.171 C 
BRANCH  27  28
HETATM   28  C   UNL     1      92.438 119.905 127.837  1.00  0.00     0.213 C 
HETATM   29  O   UNL     1      92.613 120.938 128.519  1.00  0.00    -0.645 OA
HETATM   30  O   UNL     1      92.261 119.932 126.596  1.00  0.00    -0.645 OA
ENDBRANCH  27  28
BRANCH  27  31
HETATM   31  O   UNL     1      93.374 118.476 129.575  1.00  0.00    -0.374 OA
ATOM     32  HO  UNL     1      93.510 119.316 129.997  1.00  0.00     0.211 HD
ENDBRANCH  27  31
ENDBRANCH   3  23
TORSDOF 6
ENDMDL
MODEL 2
REMARK VINA RESULT:      -9.7      2.457      9.667
REMARK  6 active torsions:
REMARK  status: ('A' for Active; 'I' for Inactive)
REMARK    1  A    between atoms: N_2  and  C_27 
REMARK    2  A    between atoms: N_2  and  C_31 
REMARK    3  A    between atoms: C_6  and  C_8 
REMARK    4  A    between atoms: C_14  and  C_22 
REMARK    5  A    between atoms: O_17  and  C_22 
REMARK    6  A    between atoms: O_23  and  C_25 
ROOT
HETATM    1  N   UNL     1      87.798 120.331 132.121  1.00  0.00    -0.321 N 
ATOM      2  HN  UNL     1      86.817 120.577 131.985  1.00  0.00     0.169 HD
HETATM    3  C   UNL     1      88.229 119.625 133.235  1.00  0.00     0.041 C 
HETATM    4  C   UNL     1      89.226 118.663 133.090  1.00  0.00     0.032 C 
HETATM    5  C   UNL     1      90.011 118.690 131.927  1.00  0.00     0.037 C 
HETATM    6  O   UNL     1      88.856 121.805 130.719  1.00  0.00    -0.266 OA
HETATM    7  C   UNL     1      88.764 120.681 131.211  1.00  0.00     0.272 C 
HETATM    8  C   UNL     1      89.704 119.582 130.895  1.00  0.00     0.101 C 
ENDROOT
BRANCH   8   9
HETATM    9  N   UNL     1      90.205 119.504 129.616  1.00  0.00    -0.361 N 
ATOM     10  HN  UNL     1      90.804 120.288 129.360  1.00  0.00     0.165 HD
BRANCH   9  11
HETATM   11  C   UNL     1      90.051 118.554 128.598  1.00  0.00     0.096 C 
HETATM   12  C   UNL     1      91.037 118.324 127.646  1.00  0.00    -0.032 C 
HETATM   13  C   UNL     1      91.152 117.135 126.792  1.00  0.00    -0.022 C 
HETATM   14  C   UNL     1      92.065 119.328 127.227  1.00  0.00     0.045 C 
HETATM   15  C   UNL     1      90.820 115.793 127.001  1.00  0.00     0.015 C 
HETATM   16  C   UNL     1      91.948 117.481 125.693  1.00  0.00    -0.044 C 
HETATM   17  C   UNL     1      91.009 114.894 125.949  1.00  0.00     0.037 C 
HETATM   18  C   UNL     1      91.616 115.317 124.750  1.00  0.00     0.066 C 
HETATM   19  C   UNL     1      91.968 116.662 124.578  1.00  0.00     0.044 C 
HETATM   20  C   UNL     1      92.572 118.824 125.893  1.00  0.00     0.044 C 
BRANCH  18  21
HETATM   21  O   UNL     1      91.701 114.498 123.664  1.00  0.00    -0.361 OA
ATOM     22  HO  UNL     1      92.347 114.712 123.000  1.00  0.00     0.217 HD
ENDBRANCH  18  21
ENDBRANCH   9  11
ENDBRANCH   8   9
BRANCH   3  23
HETATM   23  C   UNL     1      87.662 120.053 134.520  1.00  0.00    -0.009 C 
HETATM   24  C   UNL     1      88.222 119.549 135.840  1.00  0.00     0.040 C 
HETATM   25  C   UNL     1      87.156 120.036 136.811  1.00  0.00     0.008 C 
HETATM   26  C   UNL     1      86.668 121.350 136.242  1.00  0.00     0.054 C 
HETATM   27  C   UNL     1      87.199 121.465 134.813  1.00  0.00     0.171 C 
BRANCH  27  28
HETATM   28  C   UNL     1      88.384 122.450 134.770  1.00  0.00     0.213 C 
HETATM   29  O   UNL     1      89.008 122.659 135.834  1.00  0.00    -0.645 OA
HETATM   30  O   UNL     1      88.645 123.051 133.701  1.00  0.00    -0.645 OA
ENDBRANCH  27  28
BRANCH  27  31
HETATM   31  O   UNL     1      86.177 121.869 133.915  1.00  0.00    -0.374 OA
ATOM     32  HO  UNL     1      85.503 122.368 134.361  1.00  0.00     0.211 HD
ENDBRANCH  27  31
ENDBRANCH   3  23
TORSDOF 6
ENDMDL
MODEL 3
REMARK VINA RESULT:      -9.4      2.672      4.792
REMARK  6 active torsions:
REMARK  status: ('A' for Active; 'I' for Inactive)
REMARK    1  A    between atoms: N_2  and  C_27 
REMARK    2  A    between atoms: N_2  and  C_31 
REMARK    3  A    between atoms: C_6  and  C_8 
REMARK    4  A    between atoms: C_14  and  C_22 
REMARK    5  A    between atoms: O_17  and  C_22 
REMARK    6  A    between atoms: O_23  and  C_25 
ROOT
HETATM    1  N   UNL     1      93.073 118.184 127.543  1.00  0.00    -0.321 N 
ATOM      2  HN  UNL     1      94.048 118.483 127.506  1.00  0.00     0.169 HD
HETATM    3  C   UNL     1      92.718 116.842 127.545  1.00  0.00     0.041 C 
HETATM    4  C   UNL     1      91.652 116.418 128.336  1.00  0.00     0.032 C 
HETATM    5  C   UNL     1      90.752 117.385 128.811  1.00  0.00     0.037 C 
HETATM    6  O   UNL     1      91.968 120.075 126.866  1.00  0.00    -0.266 OA
HETATM    7  C   UNL     1      92.040 119.086 127.595  1.00  0.00     0.272 C 
HETATM    8  C   UNL     1      91.005 118.744 128.595  1.00  0.00     0.101 C 
ENDROOT
BRANCH   8   9
HETATM    9  N   UNL     1      90.368 119.773 129.249  1.00  0.00    -0.361 N 
ATOM     10  HN  UNL     1      89.993 120.488 128.626  1.00  0.00     0.165 HD
BRANCH   9  11
HETATM   11  C   UNL     1      90.135 120.028 130.607  1.00  0.00     0.096 C 
HETATM   12  C   UNL     1      88.950 120.594 131.060  1.00  0.00    -0.032 C 
HETATM   13  C   UNL     1      88.448 120.560 132.440  1.00  0.00    -0.022 C 
HETATM   14  C   UNL     1      88.056 121.470 130.238  1.00  0.00     0.045 C 
HETATM   15  C   UNL     1      88.568 119.610 133.459  1.00  0.00     0.015 C 
HETATM   16  C   UNL     1      87.520 121.599 132.577  1.00  0.00    -0.044 C 
HETATM   17  C   UNL     1      88.007 119.903 134.704  1.00  0.00     0.037 C 
HETATM   18  C   UNL     1      87.254 121.079 134.888  1.00  0.00     0.066 C 
HETATM   19  C   UNL     1      87.124 122.000 133.841  1.00  0.00     0.044 C 
HETATM   20  C   UNL     1      87.204 122.206 131.248  1.00  0.00     0.044 C 
BRANCH  18  21
HETATM   21  O   UNL     1      86.800 121.452 136.118  1.00  0.00    -0.361 OA
ATOM     22  HO  UNL     1      86.047 122.031 136.153  1.00  0.00     0.217 HD
ENDBRANCH  18  21
ENDBRANCH   9  11
ENDBRANCH   8   9
BRANCH   3  23
HETATM   23  C   UNL     1      93.442 115.989 126.594  1.00  0.00    -0.009 C 
HETATM   24  C   UNL     1      93.733 114.530 126.901  1.00  0.00     0.040 C 
HETATM   25  C   UNL     1      94.707 114.187 125.784  1.00  0.00     0.008 C 
HETATM   26  C   UNL     1      94.251 115.002 124.592  1.00  0.00     0.054 C 
HETATM   27  C   UNL     1      93.241 116.034 125.093  1.00  0.00     0.171 C 
BRANCH  27  28
HETATM   28  C   UNL     1      91.811 115.595 124.719  1.00  0.00     0.213 C 
HETATM   29  O   UNL     1      90.902 116.450 124.788  1.00  0.00    -0.645 OA
HETATM   30  O   UNL     1      91.595 114.397 124.421  1.00  0.00    -0.645 OA
ENDBRANCH  27  28
BRANCH  27  31
HETATM   31  O   UNL     1      93.522 117.324 124.573  1.00  0.00    -0.374 OA
ATOM     32  HO  UNL     1      93.139 118.005 125.115  1.00  0.00     0.211 HD
ENDBRANCH  27  31
ENDBRANCH   3  23
TORSDOF 6
ENDMDL
MODEL 4
REMARK VINA RESULT:      -9.2      1.923      2.450
REMARK  6 active torsions:
REMARK  status: ('A' for Active; 'I' for Inactive)
REMARK    1  A    between atoms: N_2  and  C_27 
REMARK    2  A    between atoms: N_2  and  C_31 
REMARK    3  A    between atoms: C_6  and  C_8 
REMARK    4  A    between atoms: C_14  and  C_22 
REMARK    5  A    between atoms: O_17  and  C_22 
REMARK    6  A    between atoms: O_23  and  C_25 
ROOT
HETATM    1  N   UNL     1      90.426 118.995 131.187  1.00  0.00    -0.321 N 
ATOM      2  HN  UNL     1      91.287 119.345 130.764  1.00  0.00     0.169 HD
HETATM    3  C   UNL     1      90.329 117.704 131.688  1.00  0.00     0.041 C 
HETATM    4  C   UNL     1      89.605 117.478 132.856  1.00  0.00     0.032 C 
HETATM    5  C   UNL     1      88.707 118.469 133.283  1.00  0.00     0.037 C 
HETATM    6  O   UNL     1      88.863 120.457 130.364  1.00  0.00    -0.266 OA
HETATM    7  C   UNL     1      89.301 119.774 131.290  1.00  0.00     0.272 C 
HETATM    8  C   UNL     1      88.648 119.697 132.615  1.00  0.00     0.101 C 
ENDROOT
BRANCH   8   9
HETATM    9  N   UNL     1      88.035 120.827 133.104  1.00  0.00    -0.361 N 
ATOM     10  HN  UNL     1      87.175 121.074 132.616  1.00  0.00     0.165 HD
BRANCH   9  11
HETATM   11  C   UNL     1      88.367 121.704 134.146  1.00  0.00     0.096 C 
HETATM   12  C   UNL     1      88.130 121.391 135.479  1.00  0.00    -0.032 C 
HETATM   13  C   UNL     1      88.757 122.034 136.641  1.00  0.00    -0.022 C 
HETATM   14  C   UNL     1      87.077 120.440 135.956  1.00  0.00     0.045 C 
HETATM   15  C   UNL     1      90.021 122.597 136.835  1.00  0.00     0.015 C 
HETATM   16  C   UNL     1      87.941 121.783 137.752  1.00  0.00    -0.044 C 
HETATM   17  C   UNL     1      90.300 123.188 138.069  1.00  0.00     0.037 C 
HETATM   18  C   UNL     1      89.364 123.120 139.119  1.00  0.00     0.066 C 
HETATM   19  C   UNL     1      88.114 122.523 138.909  1.00  0.00     0.044 C 
HETATM   20  C   UNL     1      86.881 120.784 137.416  1.00  0.00     0.044 C 
BRANCH  18  21
HETATM   21  O   UNL     1      89.553 123.791 140.291  1.00  0.00    -0.361 OA
ATOM     22  HO  UNL     1      89.336 124.716 140.309  1.00  0.00     0.217 HD
ENDBRANCH  18  21
ENDBRANCH   9  11
ENDBRANCH   8   9
BRANCH   3  23
HETATM   23  C   UNL     1      90.913 116.648 130.851  1.00  0.00    -0.009 C 
HETATM   24  C   UNL     1      90.931 116.756 129.336  1.00  0.00     0.040 C 
HETATM   25  C   UNL     1      91.360 115.348 128.950  1.00  0.00     0.008 C 
HETATM   26  C   UNL     1      92.308 114.906 130.043  1.00  0.00     0.054 C 
HETATM   27  C   UNL     1      92.183 115.898 131.199  1.00  0.00     0.171 C 
BRANCH  27  28
HETATM   28  C   UNL     1      93.395 116.850 131.209  1.00  0.00     0.213 C 
HETATM   29  O   UNL     1      94.313 116.634 130.388  1.00  0.00    -0.645 OA
HETATM   30  O   UNL     1      93.454 117.761 132.068  1.00  0.00    -0.645 OA
ENDBRANCH  27  28
BRANCH  27  31
HETATM   31  O   UNL     1      92.061 115.227 132.444  1.00  0.00    -0.374 OA
ATOM     32  HO  UNL     1      92.833 114.706 132.631  1.00  0.00     0.211 HD
ENDBRANCH  27  31
ENDBRANCH   3  23
TORSDOF 6
ENDMDL
MODEL 5
REMARK VINA RESULT:      -9.0      3.056      5.378
REMARK  6 active torsions:
REMARK  status: ('A' for Active; 'I' for Inactive)
REMARK    1  A    between atoms: N_2  and  C_27 
REMARK    2  A    between atoms: N_2  and  C_31 
REMARK    3  A    between atoms: C_6  and  C_8 
REMARK    4  A    between atoms: C_14  and  C_22 
REMARK    5  A    between atoms: O_17  and  C_22 
REMARK    6  A    between atoms: O_23  and  C_25 
ROOT
HETATM    1  N   UNL     1      92.782 116.426 128.190  1.00  0.00    -0.321 N 
ATOM      2  HN  UNL     1      93.379 115.880 128.811  1.00  0.00     0.169 HD
HETATM    3  C   UNL     1      91.888 115.824 127.316  1.00  0.00     0.041 C 
HETATM    4  C   UNL     1      90.641 116.407 127.105  1.00  0.00     0.032 C 
HETATM    5  C   UNL     1      90.463 117.748 127.480  1.00  0.00     0.037 C 
HETATM    6  O   UNL     1      93.863 118.448 128.147  1.00  0.00    -0.266 OA
HETATM    7  C   UNL     1      92.818 117.798 128.173  1.00  0.00     0.272 C 
HETATM    8  C   UNL     1      91.478 118.425 128.164  1.00  0.00     0.101 C 
ENDROOT
BRANCH   8   9
HETATM    9  N   UNL     1      91.314 119.619 128.828  1.00  0.00    -0.361 N 
ATOM     10  HN  UNL     1      91.556 120.437 128.270  1.00  0.00     0.165 HD
BRANCH   9  11
HETATM   11  C   UNL     1      90.879 119.926 130.124  1.00  0.00     0.096 C 
HETATM   12  C   UNL     1      89.600 120.406 130.380  1.00  0.00    -0.032 C 
HETATM   13  C   UNL     1      88.920 120.402 131.682  1.00  0.00    -0.022 C 
HETATM   14  C   UNL     1      88.757 121.150 129.391  1.00  0.00     0.045 C 
HETATM   15  C   UNL     1      88.978 119.526 132.768  1.00  0.00     0.015 C 
HETATM   16  C   UNL     1      87.899 121.359 131.626  1.00  0.00    -0.044 C 
HETATM   17  C   UNL     1      88.231 119.834 133.907  1.00  0.00     0.037 C 
HETATM   18  C   UNL     1      87.365 120.945 133.912  1.00  0.00     0.066 C 
HETATM   19  C   UNL     1      87.303 121.792 132.798  1.00  0.00     0.044 C 
HETATM   20  C   UNL     1      87.717 121.860 130.230  1.00  0.00     0.044 C 
BRANCH  18  21
HETATM   21  O   UNL     1      86.719 121.343 135.045  1.00  0.00    -0.361 OA
ATOM     22  HO  UNL     1      85.775 121.440 135.002  1.00  0.00     0.217 HD
ENDBRANCH  18  21
ENDBRANCH   9  11
ENDBRANCH   8   9
BRANCH   3  23
HETATM   23  C   UNL     1      92.400 114.660 126.582  1.00  0.00    -0.009 C 
HETATM   24  C   UNL     1      91.587 113.995 125.483  1.00  0.00     0.040 C 
HETATM   25  C   UNL     1      92.394 112.727 125.252  1.00  0.00     0.008 C 
HETATM   26  C   UNL     1      93.837 113.123 125.481  1.00  0.00     0.054 C 
HETATM   27  C   UNL     1      93.841 114.501 126.144  1.00  0.00     0.171 C 
BRANCH  27  28
HETATM   28  C   UNL     1      94.222 115.580 125.111  1.00  0.00     0.213 C 
HETATM   29  O   UNL     1      94.608 116.688 125.542  1.00  0.00    -0.645 OA
HETATM   30  O   UNL     1      94.075 115.340 123.890  1.00  0.00    -0.645 OA
ENDBRANCH  27  28
BRANCH  27  31
HETATM   31  O   UNL     1      94.724 114.535 127.255  1.00  0.00    -0.374 OA
ATOM     32  HO  UNL     1      95.605 114.771 126.988  1.00  0.00     0.211 HD
ENDBRANCH  27  31
ENDBRANCH   3  23
TORSDOF 6
ENDMDL
MODEL 6
REMARK VINA RESULT:      -8.8      2.991      5.198
REMARK  6 active torsions:
REMARK  status: ('A' for Active; 'I' for Inactive)
REMARK    1  A    between atoms: N_2  and  C_27 
REMARK    2  A    between atoms: N_2  and  C_31 
REMARK    3  A    between atoms: C_6  and  C_8 
REMARK    4  A    between atoms: C_14  and  C_22 
REMARK    5  A    between atoms: O_17  and  C_22 
REMARK    6  A    between atoms: O_23  and  C_25 
ROOT
HETATM    1  N   UNL     1      90.823 116.943 127.063  1.00  0.00    -0.321 N 
ATOM      2  HN  UNL     1      90.070 116.270 126.917  1.00  0.00     0.169 HD
HETATM    3  C   UNL     1      91.850 117.105 126.143  1.00  0.00     0.041 C 
HETATM    4  C   UNL     1      92.345 118.382 125.889  1.00  0.00     0.032 C 
HETATM    5  C   UNL     1      92.061 119.400 126.813  1.00  0.00     0.037 C 
HETATM    6  O   UNL     1      90.698 117.315 129.322  1.00  0.00    -0.266 OA
HETATM    7  C   UNL     1      90.877 117.738 128.180  1.00  0.00     0.272 C 
HETATM    8  C   UNL     1      91.196 119.153 127.885  1.00  0.00     0.101 C 
ENDROOT
BRANCH   8   9
HETATM    9  N   UNL     1      90.623 120.126 128.670  1.00  0.00    -0.361 N 
ATOM     10  HN  UNL     1      90.301 120.940 128.147  1.00  0.00     0.165 HD
BRANCH   9  11
HETATM   11  C   UNL     1      90.396 120.213 130.050  1.00  0.00     0.096 C 
HETATM   12  C   UNL     1      89.176 120.621 130.574  1.00  0.00    -0.032 C 
HETATM   13  C   UNL     1      88.707 120.395 131.948  1.00  0.00    -0.022 C 
HETATM   14  C   UNL     1      88.193 121.496 129.861  1.00  0.00     0.045 C 
HETATM   15  C   UNL     1      88.930 119.357 132.857  1.00  0.00     0.015 C 
HETATM   16  C   UNL     1      87.695 121.327 132.206  1.00  0.00    -0.044 C 
HETATM   17  C   UNL     1      88.371 119.465 134.132  1.00  0.00     0.037 C 
HETATM   18  C   UNL     1      87.522 120.543 134.450  1.00  0.00     0.066 C 
HETATM   19  C   UNL     1      87.291 121.555 133.510  1.00  0.00     0.044 C 
HETATM   20  C   UNL     1      87.300 122.041 130.954  1.00  0.00     0.044 C 
BRANCH  18  21
HETATM   21  O   UNL     1      87.063 120.742 135.718  1.00  0.00    -0.361 OA
ATOM     22  HO  UNL     1      86.610 121.558 135.900  1.00  0.00     0.217 HD
ENDBRANCH  18  21
ENDBRANCH   9  11
ENDBRANCH   8   9
BRANCH   3  23
HETATM   23  C   UNL     1      92.417 115.866 125.595  1.00  0.00    -0.009 C 
HETATM   24  C   UNL     1      93.746 115.861 124.859  1.00  0.00     0.040 C 
HETATM   25  C   UNL     1      93.745 114.458 124.270  1.00  0.00     0.008 C 
HETATM   26  C   UNL     1      93.040 113.595 125.293  1.00  0.00     0.054 C 
HETATM   27  C   UNL     1      92.362 114.526 126.298  1.00  0.00     0.171 C 
BRANCH  27  28
HETATM   28  C   UNL     1      93.171 114.562 127.611  1.00  0.00     0.213 C 
HETATM   29  O   UNL     1      92.536 114.637 128.685  1.00  0.00    -0.645 OA
HETATM   30  O   UNL     1      94.423 114.578 127.560  1.00  0.00    -0.645 OA
ENDBRANCH  27  28
BRANCH  27  31
HETATM   31  O   UNL     1      91.022 114.128 126.546  1.00  0.00    -0.374 OA
ATOM     32  HO  UNL     1      90.404 114.746 126.172  1.00  0.00     0.211 HD
ENDBRANCH  27  31
ENDBRANCH   3  23
TORSDOF 6
ENDMDL
MODEL 7
REMARK VINA RESULT:      -8.7      2.701      4.227
REMARK  6 active torsions:
REMARK  status: ('A' for Active; 'I' for Inactive)
REMARK    1  A    between atoms: N_2  and  C_27 
REMARK    2  A    between atoms: N_2  and  C_31 
REMARK    3  A    between atoms: C_6  and  C_8 
REMARK    4  A    between atoms: C_14  and  C_22 
REMARK    5  A    between atoms: O_17  and  C_22 
REMARK    6  A    between atoms: O_23  and  C_25 
ROOT
HETATM    1  N   UNL     1      92.221 117.203 128.245  1.00  0.00    -0.321 N 
ATOM      2  HN  UNL     1      93.050 117.561 127.769  1.00  0.00     0.169 HD
HETATM    3  C   UNL     1      92.137 115.889 128.681  1.00  0.00     0.041 C 
HETATM    4  C   UNL     1      91.511 115.611 129.894  1.00  0.00     0.032 C 
HETATM    5  C   UNL     1      90.676 116.593 130.451  1.00  0.00     0.037 C 
HETATM    6  O   UNL     1      90.628 118.738 127.642  1.00  0.00    -0.266 OA
HETATM    7  C   UNL     1      91.128 117.996 128.487  1.00  0.00     0.272 C 
HETATM    8  C   UNL     1      90.588 117.856 129.858  1.00  0.00     0.101 C 
ENDROOT
BRANCH   8   9
HETATM    9  N   UNL     1      90.046 118.968 130.459  1.00  0.00    -0.361 N 
ATOM     10  HN  UNL     1      89.707 119.669 129.801  1.00  0.00     0.165 HD
BRANCH   9  11
HETATM   11  C   UNL     1      89.870 119.323 131.804  1.00  0.00     0.096 C 
HETATM   12  C   UNL     1      88.796 120.095 132.230  1.00  0.00    -0.032 C 
HETATM   13  C   UNL     1      88.309 120.208 133.611  1.00  0.00    -0.022 C 
HETATM   14  C   UNL     1      88.047 121.062 131.367  1.00  0.00     0.045 C 
HETATM   15  C   UNL     1      88.283 119.303 134.675  1.00  0.00     0.015 C 
HETATM   16  C   UNL     1      87.561 121.389 133.697  1.00  0.00    -0.044 C 
HETATM   17  C   UNL     1      87.789 119.743 135.905  1.00  0.00     0.037 C 
HETATM   18  C   UNL     1      87.237 121.032 136.032  1.00  0.00     0.066 C 
HETATM   19  C   UNL     1      87.246 121.910 134.940  1.00  0.00     0.044 C 
HETATM   20  C   UNL     1      87.334 121.974 132.341  1.00  0.00     0.044 C 
BRANCH  18  21
HETATM   21  O   UNL     1      86.861 121.533 137.242  1.00  0.00    -0.361 OA
ATOM     22  HO  UNL     1      85.981 121.885 137.320  1.00  0.00     0.217 HD
ENDBRANCH  18  21
ENDBRANCH   9  11
ENDBRANCH   8   9
BRANCH   3  23
HETATM   23  C   UNL     1      92.623 114.871 127.741  1.00  0.00    -0.009 C 
HETATM   24  C   UNL     1      92.024 113.475 127.705  1.00  0.00     0.040 C 
HETATM   25  C   UNL     1      93.021 112.756 126.808  1.00  0.00     0.008 C 
HETATM   26  C   UNL     1      93.479 113.794 125.806  1.00  0.00     0.054 C 
HETATM   27  C   UNL     1      93.012 115.160 126.306  1.00  0.00     0.171 C 
BRANCH  27  28
HETATM   28  C   UNL     1      91.789 115.628 125.491  1.00  0.00     0.213 C 
HETATM   29  O   UNL     1      91.040 114.751 125.009  1.00  0.00    -0.645 OA
HETATM   30  O   UNL     1      91.619 116.853 125.287  1.00  0.00    -0.645 OA
ENDBRANCH  27  28
BRANCH  27  31
HETATM   31  O   UNL     1      94.056 116.119 126.238  1.00  0.00    -0.374 OA
ATOM     32  HO  UNL     1      93.777 116.959 126.584  1.00  0.00     0.211 HD
ENDBRANCH  27  31
ENDBRANCH   3  23
TORSDOF 6
ENDMDL
MODEL 8
REMARK VINA RESULT:      -8.5      2.824      9.662
REMARK  6 active torsions:
REMARK  status: ('A' for Active; 'I' for Inactive)
REMARK    1  A    between atoms: N_2  and  C_27 
REMARK    2  A    between atoms: N_2  and  C_31 
REMARK    3  A    between atoms: C_6  and  C_8 
REMARK    4  A    between atoms: C_14  and  C_22 
REMARK    5  A    between atoms: O_17  and  C_22 
REMARK    6  A    between atoms: O_23  and  C_25 
ROOT
HETATM    1  N   UNL     1      88.937 119.775 131.754  1.00  0.00    -0.321 N 
ATOM      2  HN  UNL     1      88.272 120.350 131.236  1.00  0.00     0.169 HD
HETATM    3  C   UNL     1      88.606 119.180 132.963  1.00  0.00     0.041 C 
HETATM    4  C   UNL     1      89.075 117.899 133.245  1.00  0.00     0.032 C 
HETATM    5  C   UNL     1      90.147 117.402 132.486  1.00  0.00     0.037 C 
HETATM    6  O   UNL     1      90.940 120.436 130.853  1.00  0.00    -0.266 OA
HETATM    7  C   UNL     1      90.210 119.548 131.293  1.00  0.00     0.272 C 
HETATM    8  C   UNL     1      90.633 118.134 131.397  1.00  0.00     0.101 C 
ENDROOT
BRANCH   8   9
HETATM    9  N   UNL     1      91.463 117.630 130.423  1.00  0.00    -0.361 N 
ATOM     10  HN  UNL     1      92.141 118.305 130.070  1.00  0.00     0.165 HD
BRANCH   9  11
HETATM   11  C   UNL     1      91.557 116.368 129.822  1.00  0.00     0.096 C 
HETATM   12  C   UNL     1      91.515 116.200 128.443  1.00  0.00    -0.032 C 
HETATM   13  C   UNL     1      91.969 115.017 127.703  1.00  0.00    -0.022 C 
HETATM   14  C   UNL     1      90.854 117.148 127.491  1.00  0.00     0.045 C 
HETATM   15  C   UNL     1      92.994 114.097 127.941  1.00  0.00     0.015 C 
HETATM   16  C   UNL     1      91.346 115.039 126.449  1.00  0.00    -0.044 C 
HETATM   17  C   UNL     1      93.141 113.027 127.055  1.00  0.00     0.037 C 
HETATM   18  C   UNL     1      92.342 112.945 125.898  1.00  0.00     0.066 C 
HETATM   19  C   UNL     1      91.342 113.898 125.667  1.00  0.00     0.044 C 
HETATM   20  C   UNL     1      90.647 116.342 126.228  1.00  0.00     0.044 C 
BRANCH  18  21
HETATM   21  O   UNL     1      92.376 111.853 125.082  1.00  0.00    -0.361 OA
ATOM     22  HO  UNL     1      91.585 111.640 124.599  1.00  0.00     0.217 HD
ENDBRANCH  18  21
ENDBRANCH   9  11
ENDBRANCH   8   9
BRANCH   3  23
HETATM   23  C   UNL     1      87.869 120.025 133.910  1.00  0.00    -0.009 C 
HETATM   24  C   UNL     1      88.372 120.254 135.326  1.00  0.00     0.040 C 
HETATM   25  C   UNL     1      87.163 120.929 135.957  1.00  0.00     0.008 C 
HETATM   26  C   UNL     1      86.545 121.757 134.851  1.00  0.00     0.054 C 
HETATM   27  C   UNL     1      87.182 121.322 133.532  1.00  0.00     0.171 C 
BRANCH  27  28
HETATM   28  C   UNL     1      88.213 122.373 133.073  1.00  0.00     0.213 C 
HETATM   29  O   UNL     1      88.737 123.096 133.948  1.00  0.00    -0.645 OA
HETATM   30  O   UNL     1      88.444 122.512 131.849  1.00  0.00    -0.645 OA
ENDBRANCH  27  28
BRANCH  27  31
HETATM   31  O   UNL     1      86.200 121.111 132.530  1.00  0.00    -0.374 OA
ATOM     32  HO  UNL     1      86.433 121.550 131.720  1.00  0.00     0.211 HD
ENDBRANCH  27  31
ENDBRANCH   3  23
TORSDOF 6
ENDMDL
MODEL 9
REMARK VINA RESULT:      -8.4      3.570      5.724
REMARK  6 active torsions:
REMARK  status: ('A' for Active; 'I' for Inactive)
REMARK    1  A    between atoms: N_2  and  C_27 
REMARK    2  A    between atoms: N_2  and  C_31 
REMARK    3  A    between atoms: C_6  and  C_8 
REMARK    4  A    between atoms: C_14  and  C_22 
REMARK    5  A    between atoms: O_17  and  C_22 
REMARK    6  A    between atoms: O_23  and  C_25 
ROOT
HETATM    1  N   UNL     1      93.484 115.387 128.400  1.00  0.00    -0.321 N 
ATOM      2  HN  UNL     1      94.453 115.085 128.295  1.00  0.00     0.169 HD
HETATM    3  C   UNL     1      92.471 114.894 127.590  1.00  0.00     0.041 C 
HETATM    4  C   UNL     1      91.218 114.638 128.142  1.00  0.00     0.032 C 
HETATM    5  C   UNL     1      90.908 115.220 129.381  1.00  0.00     0.037 C 
HETATM    6  O   UNL     1      93.720 117.354 129.555  1.00  0.00    -0.266 OA
HETATM    7  C   UNL     1      93.110 116.305 129.350  1.00  0.00     0.272 C 
HETATM    8  C   UNL     1      91.886 115.926 130.089  1.00  0.00     0.101 C 
ENDROOT
BRANCH   8   9
HETATM    9  N   UNL     1      91.791 116.281 131.415  1.00  0.00    -0.361 N 
ATOM     10  HN  UNL     1      92.241 115.624 132.051  1.00  0.00     0.165 HD
BRANCH   9  11
HETATM   11  C   UNL     1      91.195 117.374 132.058  1.00  0.00     0.096 C 
HETATM   12  C   UNL     1      90.367 118.266 131.387  1.00  0.00    -0.032 C 
HETATM   13  C   UNL     1      89.413 119.193 132.008  1.00  0.00    -0.022 C 
HETATM   14  C   UNL     1      90.423 118.535 129.915  1.00  0.00     0.045 C 
HETATM   15  C   UNL     1      88.641 119.107 133.170  1.00  0.00     0.015 C 
HETATM   16  C   UNL     1      89.140 120.203 131.077  1.00  0.00    -0.044 C 
HETATM   17  C   UNL     1      87.853 120.205 133.522  1.00  0.00     0.037 C 
HETATM   18  C   UNL     1      87.764 121.322 132.669  1.00  0.00     0.066 C 
HETATM   19  C   UNL     1      88.525 121.370 131.495  1.00  0.00     0.044 C 
HETATM   20  C   UNL     1      89.716 119.861 129.741  1.00  0.00     0.044 C 
BRANCH  18  21
HETATM   21  O   UNL     1      87.105 122.455 133.042  1.00  0.00    -0.361 OA
ATOM     22  HO  UNL     1      86.644 122.940 132.366  1.00  0.00     0.217 HD
ENDBRANCH  18  21
ENDBRANCH   9  11
ENDBRANCH   8   9
BRANCH   3  23
HETATM   23  C   UNL     1      92.788 114.796 126.159  1.00  0.00    -0.009 C 
HETATM   24  C   UNL     1      92.016 113.865 125.238  1.00  0.00     0.040 C 
HETATM   25  C   UNL     1      92.879 113.917 123.986  1.00  0.00     0.008 C 
HETATM   26  C   UNL     1      93.426 115.328 123.935  1.00  0.00     0.054 C 
HETATM   27  C   UNL     1      93.154 115.981 125.290  1.00  0.00     0.171 C 
BRANCH  27  28
HETATM   28  C   UNL     1      91.970 116.961 125.174  1.00  0.00     0.213 C 
HETATM   29  O   UNL     1      91.755 117.732 126.134  1.00  0.00    -0.645 OA
HETATM   30  O   UNL     1      91.232 116.915 124.162  1.00  0.00    -0.645 OA
ENDBRANCH  27  28
BRANCH  27  31
HETATM   31  O   UNL     1      94.309 116.644 125.783  1.00  0.00    -0.374 OA
ATOM     32  HO  UNL     1      94.254 117.582 125.641  1.00  0.00     0.211 HD
ENDBRANCH  27  31
ENDBRANCH   3  23
TORSDOF 6
ENDMDL
