REMARK  5 active torsions:
REMARK  status: ('A' for Active; 'I' for Inactive)
REMARK    1  A    between atoms: C_5  and  C_7 
REMARK    2  A    between atoms: C_5  and  C_35 
REMARK    3  A    between atoms: C_6  and  O_20 
REMARK    4  A    between atoms: C_7  and  C_8 
REMARK    5  A    between atoms: N_9  and  C_32 
ROOT
HETATM    1  C   UNL     1      87.822 120.183 131.930  1.00  0.00     0.164 C 
HETATM    2  C   UNL     1      89.499 122.658 137.179  1.00  0.00     0.079 C 
HETATM    3  C   UNL     1      87.497 121.645 131.583  1.00  0.00     0.118 C 
HETATM    4  C   UNL     1      90.283 123.238 138.315  1.00  0.00     0.089 C 
HETATM    5  N   UNL     1      87.058 120.944 135.587  1.00  0.00    -0.343 N 
ATOM      6  HN  UNL     1      86.347 120.352 136.016  1.00  0.00     0.167 HD
HETATM    7  C   UNL     1      88.129 122.660 132.571  1.00  0.00     0.085 C 
HETATM    8  N   UNL     1      88.360 121.981 137.403  1.00  0.00    -0.330 N 
ATOM      9  HN  UNL     1      88.000 121.633 138.292  1.00  0.00     0.168 HD
HETATM   10  C   UNL     1      87.807 121.869 136.187  1.00  0.00     0.134 C 
HETATM   11  C   UNL     1      87.439 120.956 134.293  1.00  0.00     0.022 C 
HETATM   12  C   UNL     1      87.613 119.787 133.377  1.00  0.00     0.092 C 
HETATM   13  N   UNL     1      89.599 123.124 135.905  1.00  0.00    -0.343 N 
ATOM     14  HN  UNL     1      90.319 123.743 135.531  1.00  0.00     0.167 HD
HETATM   15  C   UNL     1      88.087 122.154 133.992  1.00  0.00    -0.002 C 
HETATM   16  C   UNL     1      88.167 121.757 130.223  1.00  0.00     0.249 C 
HETATM   17  C   UNL     1      88.548 122.598 135.236  1.00  0.00     0.086 C 
HETATM   18  O   UNL     1      89.155 119.986 131.462  1.00  0.00    -0.374 OA
HETATM   19  C   UNL     1      89.007 120.493 130.128  1.00  0.00     0.163 C 
ENDROOT
BRANCH  19  20
HETATM   20  C   UNL     1      90.346 121.061 129.681  1.00  0.00     0.118 C 
BRANCH  20  21
HETATM   21  C   UNL     1      91.354 119.973 129.886  1.00  0.00     0.162 C 
HETATM   22  O   UNL     1      91.767 119.654 130.992  1.00  0.00    -0.292 OA
BRANCH  21  23
HETATM   23  C   UNL     1      91.648 119.092 128.747  1.00  0.00     0.010 C 
HETATM   24  C   UNL     1      91.030 117.853 128.716  1.00  0.00     0.015 C 
HETATM   25  C   UNL     1      90.926 116.986 127.661  1.00  0.00     0.001 C 
HETATM   26  C   UNL     1      91.642 116.839 126.497  1.00  0.00     0.000 C 
HETATM   27  C   UNL     1      92.581 117.732 126.016  1.00  0.00     0.000 C 
HETATM   28  C   UNL     1      92.857 118.961 126.569  1.00  0.00     0.001 C 
HETATM   29  C   UNL     1      92.541 119.526 127.777  1.00  0.00     0.015 C 
ENDBRANCH  21  23
ENDBRANCH  20  21
ENDBRANCH  19  20
BRANCH  16  30
HETATM   30  N   UNL     1      87.282 121.920 129.086  1.00  0.00    -0.070 N 
ATOM     31  HN3 UNL     1      86.596 121.165 129.072  1.00  0.00     0.275 HD
ATOM     32  HN2 UNL     1      86.670 122.722 129.237  1.00  0.00     0.275 HD
ATOM     33  HN1 UNL     1      87.732 121.995 128.173  1.00  0.00     0.275 HD
ENDBRANCH  16  30
BRANCH   3  34
HETATM   34  O   UNL     1      86.090 121.849 131.483  1.00  0.00    -0.385 OA
ATOM     35  HO  UNL     1      85.889 122.752 131.269  1.00  0.00     0.210 HD
ENDBRANCH   3  34
TORSDOF 5
