REMARK  4 active torsions:
REMARK  status: ('A' for Active; 'I' for Inactive)
REMARK    1  A    between atoms: C_2  and  C_14 
REMARK    2  A    between atoms: O_4  and  C_8 
REMARK    3  A    between atoms: N_9  and  C_11 
REMARK    4  A    between atoms: N_9  and  C_16 
REMARK       I    between atoms: C_14  and  N_20 
ROOT
HETATM    1  C   UNL     1      -2.555  17.405  22.898  1.00  0.00     0.040 C 
HETATM    2  C   UNL     1      -3.074  18.867  25.196  1.00  0.00     0.075 C 
HETATM    3  C   UNL     1      -2.410  16.797  24.136  1.00  0.00     0.048 C 
HETATM    4  C   UNL     1      -2.828  18.761  22.816  1.00  0.00     0.066 C 
HETATM    5  C   UNL     1      -2.551  17.540  25.308  1.00  0.00     0.122 C 
HETATM    6  C   UNL     1      -2.987  19.514  23.974  1.00  0.00     0.057 C 
ENDROOT
BRANCH   5   7
HETATM    7  N   UNL     1      -2.279  17.060  26.517  1.00  0.00    -0.412 NA
BRANCH   7   8
HETATM    8  C   UNL     1      -1.948  16.554  27.587  1.00  0.00     0.075 C 
HETATM    9  C   UNL     1      -1.377  15.166  27.771  1.00  0.00     0.008 C 
HETATM   10  C   UNL     1      -1.118  14.472  26.441  1.00  0.00     0.023 C 
HETATM   11  C   UNL     1      -0.064  15.248  28.549  1.00  0.00     0.016 C 
HETATM   12  C   UNL     1      -2.394  14.315  28.536  1.00  0.00     0.016 C 
HETATM   13  C   UNL     1       0.317  16.662  28.934  1.00  0.00     0.002 C 
HETATM   14  C   UNL     1      -0.793  17.439  29.601  1.00  0.00     0.011 C 
HETATM   15  C   UNL     1      -2.144  17.273  28.909  1.00  0.00     0.046 C 
HETATM   16  C   UNL     1      -3.113  16.459  29.756  1.00  0.00     0.011 C 
HETATM   17  C   UNL     1      -3.494  15.101  29.204  1.00  0.00     0.002 C 
ENDBRANCH   7   8
ENDBRANCH   5   7
BRANCH   2  18
HETATM   18  C   UNL     1      -3.735  19.517  26.351  1.00  0.00     0.252 C 
HETATM   19  O   UNL     1      -3.043  19.889  27.315  1.00  0.00    -0.268 OA
HETATM   20  N   UNL     1      -5.054  19.700  26.293  1.00  0.00    -0.366 N 
ATOM     21  HN2 UNL     1      -5.622  19.395  25.502  1.00  0.00     0.159 HD
ATOM     22  HN1 UNL     1      -5.509  20.148  27.088  1.00  0.00     0.159 HD
ENDBRANCH   2  18
BRANCH   4  23
HETATM   23  O   UNL     1      -2.795  19.386  21.618  1.00  0.00    -0.361 OA
ATOM     24  HO  UNL     1      -2.982  20.316  21.562  1.00  0.00     0.217 HD
ENDBRANCH   4  23
TORSDOF 4
