REMARK  2 active torsions:
REMARK  status: ('A' for Active; 'I' for Inactive)
REMARK    1  A    between atoms: C_11  and  C_23 
REMARK    2  A    between atoms: C_12  and  C_22 
ROOT
HETATM    1  C   UNL     1      -1.543  18.068  28.458  1.00  0.00     0.028 C 
HETATM    2  C   UNL     1      -3.144  16.311  29.285  1.00  0.00     0.133 C 
HETATM    3  O   UNL     1      -4.336  16.131  29.472  1.00  0.00    -0.297 OA
HETATM    4  N   UNL     1      -0.086  16.193  28.376  1.00  0.00    -0.069 N 
ATOM      5  HN1 UNL     1       0.749  15.981  27.829  1.00  0.00     0.277 HD
ATOM      6  HN2 UNL     1       0.090  15.563  29.159  1.00  0.00     0.277 HD
HETATM    7  C   UNL     1      -1.788  17.246  27.206  1.00  0.00     0.056 C 
HETATM    8  C   UNL     1      -1.322  15.857  27.658  1.00  0.00     0.205 C 
HETATM    9  C   UNL     1      -0.134  17.579  28.788  1.00  0.00     0.238 C 
HETATM   10  C   UNL     1      -2.486  17.628  29.575  1.00  0.00     0.085 C 
HETATM   11  C   UNL     1      -2.265  15.256  28.690  1.00  0.00     0.086 C 
ENDROOT
BRANCH   7  12
HETATM   12  C   UNL     1      -3.166  17.353  26.681  1.00  0.00    -0.051 C 
HETATM   13  C   UNL     1      -3.545  16.572  25.578  1.00  0.00     0.020 C 
HETATM   14  C   UNL     1      -3.523  17.389  24.445  1.00  0.00    -0.025 C 
HETATM   15  C   UNL     1      -3.168  16.902  23.204  1.00  0.00     0.012 C 
HETATM   16  C   UNL     1      -3.658  18.776  24.626  1.00  0.00    -0.026 C 
HETATM   17  C   UNL     1      -2.932  17.769  22.151  1.00  0.00     0.001 C 
HETATM   18  C   UNL     1      -2.920  19.140  22.375  1.00  0.00     0.001 C 
HETATM   19  C   UNL     1      -3.197  19.637  23.636  1.00  0.00     0.012 C 
HETATM   20  C   UNL     1      -4.185  19.269  25.819  1.00  0.00     0.013 C 
HETATM   21  C   UNL     1      -4.000  18.449  26.936  1.00  0.00     0.008 C 
ENDBRANCH   7  12
BRANCH  11  22
HETATM   22  C   UNL     1      -3.057  14.058  28.190  1.00  0.00     0.010 C 
HETATM   23  C   UNL     1      -2.138  12.945  27.752  1.00  0.00     0.006 C 
ENDBRANCH  11  22
TORSDOF 2
