MODEL 1
REMARK VINA RESULT:     -12.1      0.000      0.000
REMARK  3 active torsions:
REMARK  status: ('A' for Active; 'I' for Inactive)
REMARK    1  A    between atoms: C_4  and  O_14 
REMARK    2  A    between atoms: O_10  and  C_18 
REMARK    3  A    between atoms: C_22  and  O_33 
ROOT
HETATM    1  C   UNL     1     -28.446 -17.057   6.940  1.00  0.00     0.009 C 
HETATM    2  C   UNL     1     -28.757 -14.493   8.521  1.00  0.00     0.001 C 
HETATM    3  C   UNL     1     -25.860 -13.936   1.223  1.00  0.00    -0.015 C 
HETATM    4  C   UNL     1     -27.285 -19.010   0.763  1.00  0.00     0.126 C 
HETATM    5  C   UNL     1     -26.180 -18.308  -0.033  1.00  0.00     0.054 C 
HETATM    6  C   UNL     1     -28.983 -15.768   8.988  1.00  0.00     0.000 C 
HETATM    7  N   UNL     1     -25.717 -15.821  -0.187  1.00  0.00    -0.303 N 
HETATM    8  C   UNL     1     -28.771 -16.927   8.274  1.00  0.00     0.001 C 
HETATM    9  C   UNL     1     -28.144 -18.890   4.335  1.00  0.00     0.071 C 
HETATM   10  C   UNL     1     -26.614 -17.731   2.792  1.00  0.00     0.048 C 
HETATM   11  C   UNL     1     -24.812 -13.367   0.514  1.00  0.00     0.031 C 
HETATM   12  C   UNL     1     -27.736 -14.765   6.265  1.00  0.00    -0.022 C 
HETATM   13  C   UNL     1     -24.328 -14.122  -0.545  1.00  0.00     0.108 C 
HETATM   14  C   UNL     1     -27.726 -19.871   3.249  1.00  0.00     0.127 C 
HETATM   15  C   UNL     1     -26.579 -15.300   4.276  1.00  0.00    -0.057 C 
HETATM   16  C   UNL     1     -27.766 -10.716   4.276  1.00  0.00     0.002 C 
HETATM   17  C   UNL     1     -26.266 -17.015  -0.810  1.00  0.00     0.150 C 
HETATM   18  C   UNL     1     -27.653 -17.525   3.887  1.00  0.00     0.072 C 
HETATM   19  C   UNL     1     -26.030 -13.606   2.666  1.00  0.00    -0.059 C 
HETATM   20  C   UNL     1     -26.347 -12.402   3.488  1.00  0.00     0.028 C 
HETATM   21  C   UNL     1     -26.442 -15.068   0.674  1.00  0.00     0.121 C 
HETATM   22  C   UNL     1     -25.414 -12.213   5.736  1.00  0.00     0.021 C 
HETATM   23  C   UNL     1     -26.860 -19.132   2.241  1.00  0.00     0.046 C 
HETATM   24  C   UNL     1     -26.629 -12.700   4.984  1.00  0.00    -0.008 C 
HETATM   25  C   UNL     1     -28.338 -14.059   7.281  1.00  0.00     0.012 C 
HETATM   26  C   UNL     1     -27.833 -16.169   6.090  1.00  0.00    -0.036 C 
HETATM   27  N   UNL     1     -24.512 -15.438  -0.604  1.00  0.00    -0.310 N 
ATOM     28  HN  UNL     1     -23.801 -16.088  -0.936  1.00  0.00     0.186 HD
HETATM   29  C   UNL     1     -25.464 -14.814   3.390  1.00  0.00     0.071 C 
HETATM   30  C   UNL     1     -26.834 -14.176   5.255  1.00  0.00    -0.035 C 
HETATM   31  C   UNL     1     -27.441 -11.471   3.004  1.00  0.00     0.010 C 
HETATM   32  C   UNL     1     -27.835 -11.828   5.313  1.00  0.00     0.015 C 
HETATM   33  C   UNL     1     -26.996 -16.610   4.924  1.00  0.00     0.083 C 
ENDROOT
BRANCH   4  34
HETATM   34  O   UNL     1     -28.478 -18.243   0.635  1.00  0.00    -0.395 OA
ATOM     35  HO  UNL     1     -28.259 -17.331   0.785  1.00  0.00     0.210 HD
ENDBRANCH   4  34
BRANCH  14  36
HETATM   36  O   UNL     1     -28.872 -20.473   2.641  1.00  0.00    -0.395 OA
ATOM     37  HO  UNL     1     -28.866 -21.414   2.769  1.00  0.00     0.210 HD
ENDBRANCH  14  36
BRANCH  18  38
HETATM   38  O   UNL     1     -28.796 -16.900   3.321  1.00  0.00    -0.389 OA
ATOM     39  HO  UNL     1     -29.240 -16.499   4.059  1.00  0.00     0.210 HD
ENDBRANCH  18  38
TORSDOF 3
ENDMDL
MODEL 2
REMARK VINA RESULT:     -10.2      2.514      5.635
REMARK  3 active torsions:
REMARK  status: ('A' for Active; 'I' for Inactive)
REMARK    1  A    between atoms: C_4  and  O_14 
REMARK    2  A    between atoms: O_10  and  C_18 
REMARK    3  A    between atoms: C_22  and  O_33 
ROOT
HETATM    1  C   UNL     1     -26.723 -13.475   3.635  1.00  0.00     0.009 C 
HETATM    2  C   UNL     1     -27.291 -12.161   6.302  1.00  0.00     0.001 C 
HETATM    3  C   UNL     1     -28.544 -19.910   5.730  1.00  0.00    -0.015 C 
HETATM    4  C   UNL     1     -26.068 -19.502   1.072  1.00  0.00     0.126 C 
HETATM    5  C   UNL     1     -27.087 -20.580   1.461  1.00  0.00     0.054 C 
HETATM    6  C   UNL     1     -26.924 -11.518   5.142  1.00  0.00     0.000 C 
HETATM    7  N   UNL     1     -27.990 -21.101   3.771  1.00  0.00    -0.303 N 
HETATM    8  C   UNL     1     -26.736 -12.126   3.920  1.00  0.00     0.001 C 
HETATM    9  C   UNL     1     -26.066 -15.866   1.613  1.00  0.00     0.071 C 
HETATM   10  C   UNL     1     -27.415 -17.807   2.304  1.00  0.00     0.048 C 
HETATM   11  C   UNL     1     -29.501 -20.877   6.007  1.00  0.00     0.031 C 
HETATM   12  C   UNL     1     -27.709 -14.532   5.666  1.00  0.00    -0.022 C 
HETATM   13  C   UNL     1     -29.576 -21.921   5.097  1.00  0.00     0.108 C 
HETATM   14  C   UNL     1     -26.028 -16.898   0.495  1.00  0.00     0.127 C 
HETATM   15  C   UNL     1     -28.264 -16.642   4.761  1.00  0.00    -0.057 C 
HETATM   16  C   UNL     1     -28.047 -16.912   9.483  1.00  0.00     0.002 C 
HETATM   17  C   UNL     1     -27.090 -21.462   2.688  1.00  0.00     0.150 C 
HETATM   18  C   UNL     1     -26.708 -16.555   2.805  1.00  0.00     0.072 C 
HETATM   19  C   UNL     1     -28.768 -18.509   6.184  1.00  0.00    -0.059 C 
HETATM   20  C   UNL     1     -28.889 -17.779   7.479  1.00  0.00     0.028 C 
HETATM   21  C   UNL     1     -27.641 -20.200   4.720  1.00  0.00     0.121 C 
HETATM   22  C   UNL     1     -30.317 -15.803   7.606  1.00  0.00     0.021 C 
HETATM   23  C   UNL     1     -26.778 -18.137   0.957  1.00  0.00     0.046 C 
HETATM   24  C   UNL     1     -28.893 -16.233   7.349  1.00  0.00    -0.008 C 
HETATM   25  C   UNL     1     -27.501 -13.500   6.552  1.00  0.00     0.012 C 
HETATM   26  C   UNL     1     -27.297 -14.526   4.309  1.00  0.00    -0.036 C 
HETATM   27  N   UNL     1     -29.125 -21.794   3.852  1.00  0.00    -0.310 N 
ATOM     28  HN  UNL     1     -29.600 -22.189   3.041  1.00  0.00     0.186 HD
HETATM   29  C   UNL     1     -29.229 -17.785   4.931  1.00  0.00     0.071 C 
HETATM   30  C   UNL     1     -28.463 -15.764   5.975  1.00  0.00    -0.035 C 
HETATM   31  C   UNL     1     -27.923 -18.131   8.593  1.00  0.00     0.010 C 
HETATM   32  C   UNL     1     -27.990 -15.765   8.484  1.00  0.00     0.015 C 
HETATM   33  C   UNL     1     -27.749 -15.781   3.620  1.00  0.00     0.083 C 
ENDROOT
BRANCH   4  34
HETATM   34  O   UNL     1     -25.055 -19.470   2.072  1.00  0.00    -0.395 OA
ATOM     35  HO  UNL     1     -25.404 -19.017   2.831  1.00  0.00     0.210 HD
ENDBRANCH   4  34
BRANCH  14  36
HETATM   36  O   UNL     1     -24.679 -17.189   0.120  1.00  0.00    -0.395 OA
ATOM     37  HO  UNL     1     -24.406 -18.028   0.470  1.00  0.00     0.210 HD
ENDBRANCH  14  36
BRANCH  18  38
HETATM   38  O   UNL     1     -25.617 -16.942   3.626  1.00  0.00    -0.389 OA
ATOM     39  HO  UNL     1     -26.002 -17.096   4.481  1.00  0.00     0.210 HD
ENDBRANCH  18  38
TORSDOF 3
ENDMDL
MODEL 3
REMARK VINA RESULT:     -10.0      1.981      4.027
REMARK  3 active torsions:
REMARK  status: ('A' for Active; 'I' for Inactive)
REMARK    1  A    between atoms: C_4  and  O_14 
REMARK    2  A    between atoms: O_10  and  C_18 
REMARK    3  A    between atoms: C_22  and  O_33 
ROOT
HETATM    1  C   UNL     1     -27.443 -15.803   4.584  1.00  0.00     0.009 C 
HETATM    2  C   UNL     1     -26.799 -12.858   4.304  1.00  0.00     0.001 C 
HETATM    3  C   UNL     1     -25.155 -17.536  -1.809  1.00  0.00    -0.015 C 
HETATM    4  C   UNL     1     -27.910 -21.195   0.839  1.00  0.00     0.126 C 
HETATM    5  C   UNL     1     -26.814 -21.466  -0.197  1.00  0.00     0.054 C 
HETATM    6  C   UNL     1     -27.266 -13.482   5.437  1.00  0.00     0.000 C 
HETATM    7  N   UNL     1     -25.753 -19.817  -1.803  1.00  0.00    -0.303 N 
HETATM    8  C   UNL     1     -27.489 -14.836   5.567  1.00  0.00     0.001 C 
HETATM    9  C   UNL     1     -28.081 -18.781   3.606  1.00  0.00     0.071 C 
HETATM   10  C   UNL     1     -26.591 -19.269   1.707  1.00  0.00     0.048 C 
HETATM   11  C   UNL     1     -24.133 -17.840  -2.697  1.00  0.00     0.031 C 
HETATM   12  C   UNL     1     -26.287 -14.678   2.683  1.00  0.00    -0.022 C 
HETATM   13  C   UNL     1     -24.052 -19.171  -3.081  1.00  0.00     0.108 C 
HETATM   14  C   UNL     1     -28.126 -20.278   3.335  1.00  0.00     0.127 C 
HETATM   15  C   UNL     1     -25.669 -16.587   1.436  1.00  0.00    -0.057 C 
HETATM   16  C   UNL     1     -25.603 -12.751  -1.338  1.00  0.00     0.002 C 
HETATM   17  C   UNL     1     -26.692 -20.908  -1.596  1.00  0.00     0.150 C 
HETATM   18  C   UNL     1     -27.336 -18.160   2.438  1.00  0.00     0.072 C 
HETATM   19  C   UNL     1     -24.983 -16.403  -0.858  1.00  0.00    -0.059 C 
HETATM   20  C   UNL     1     -24.829 -14.921  -0.929  1.00  0.00     0.028 C 
HETATM   21  C   UNL     1     -26.097 -18.526  -1.581  1.00  0.00     0.121 C 
HETATM   22  C   UNL     1     -23.508 -13.775   0.775  1.00  0.00     0.021 C 
HETATM   23  C   UNL     1     -27.284 -20.569   2.103  1.00  0.00     0.046 C 
HETATM   24  C   UNL     1     -24.918 -14.198   0.442  1.00  0.00    -0.008 C 
HETATM   25  C   UNL     1     -26.501 -13.372   3.060  1.00  0.00     0.012 C 
HETATM   26  C   UNL     1     -26.775 -15.811   3.384  1.00  0.00    -0.036 C 
HETATM   27  N   UNL     1     -24.580 -20.143  -2.343  1.00  0.00    -0.310 N 
ATOM     28  HN  UNL     1     -24.130 -21.047  -2.204  1.00  0.00     0.186 HD
HETATM   29  C   UNL     1     -24.635 -17.076   0.458  1.00  0.00     0.071 C 
HETATM   30  C   UNL     1     -25.450 -15.095   1.539  1.00  0.00    -0.035 C 
HETATM   31  C   UNL     1     -25.710 -14.154  -1.896  1.00  0.00     0.010 C 
HETATM   32  C   UNL     1     -25.780 -12.973   0.157  1.00  0.00     0.015 C 
HETATM   33  C   UNL     1     -26.295 -17.076   2.732  1.00  0.00     0.083 C 
ENDROOT
BRANCH   4  34
HETATM   34  O   UNL     1     -28.865 -20.317   0.252  1.00  0.00    -0.395 OA
ATOM     35  HO  UNL     1     -29.725 -20.558   0.578  1.00  0.00     0.210 HD
ENDBRANCH   4  34
BRANCH  14  36
HETATM   36  O   UNL     1     -29.476 -20.727   3.187  1.00  0.00    -0.395 OA
ATOM     37  HO  UNL     1     -29.574 -21.614   3.512  1.00  0.00     0.210 HD
ENDBRANCH  14  36
BRANCH  18  38
HETATM   38  O   UNL     1     -28.356 -17.657   1.588  1.00  0.00    -0.389 OA
ATOM     39  HO  UNL     1     -28.821 -17.022   2.121  1.00  0.00     0.210 HD
ENDBRANCH  18  38
TORSDOF 3
ENDMDL
MODEL 4
REMARK VINA RESULT:      -9.8      2.630      6.337
REMARK  3 active torsions:
REMARK  status: ('A' for Active; 'I' for Inactive)
REMARK    1  A    between atoms: C_4  and  O_14 
REMARK    2  A    between atoms: O_10  and  C_18 
REMARK    3  A    between atoms: C_22  and  O_33 
ROOT
HETATM    1  C   UNL     1     -28.279 -16.823   5.625  1.00  0.00     0.009 C 
HETATM    2  C   UNL     1     -29.010 -19.029   7.567  1.00  0.00     0.001 C 
HETATM    3  C   UNL     1     -26.760 -21.156   0.330  1.00  0.00    -0.015 C 
HETATM    4  C   UNL     1     -25.367 -16.083  -0.231  1.00  0.00     0.126 C 
HETATM    5  C   UNL     1     -25.740 -17.046  -1.363  1.00  0.00     0.054 C 
HETATM    6  C   UNL     1     -29.124 -17.676   7.794  1.00  0.00     0.000 C 
HETATM    7  N   UNL     1     -26.002 -19.564  -1.236  1.00  0.00    -0.303 N 
HETATM    8  C   UNL     1     -28.851 -16.688   6.873  1.00  0.00     0.001 C 
HETATM    9  C   UNL     1     -26.906 -15.500   3.056  1.00  0.00     0.071 C 
HETATM   10  C   UNL     1     -27.148 -17.088   1.190  1.00  0.00     0.048 C 
HETATM   11  C   UNL     1     -27.141 -21.967  -0.729  1.00  0.00     0.031 C 
HETATM   12  C   UNL     1     -28.414 -19.269   5.161  1.00  0.00    -0.022 C 
HETATM   13  C   UNL     1     -26.867 -21.467  -1.993  1.00  0.00     0.108 C 
HETATM   14  C   UNL     1     -26.563 -14.775   1.763  1.00  0.00     0.127 C 
HETATM   15  C   UNL     1     -28.090 -19.226   2.821  1.00  0.00    -0.057 C 
HETATM   16  C   UNL     1     -27.149 -23.549   4.506  1.00  0.00     0.002 C 
HETATM   17  C   UNL     1     -25.188 -18.426  -1.634  1.00  0.00     0.150 C 
HETATM   18  C   UNL     1     -27.011 -16.973   2.703  1.00  0.00     0.072 C 
HETATM   19  C   UNL     1     -27.519 -21.219   1.610  1.00  0.00    -0.059 C 
HETATM   20  C   UNL     1     -27.778 -22.219   2.687  1.00  0.00     0.028 C 
HETATM   21  C   UNL     1     -25.965 -20.063   0.023  1.00  0.00     0.121 C 
HETATM   22  C   UNL     1     -29.902 -22.157   3.887  1.00  0.00     0.021 C 
HETATM   23  C   UNL     1     -26.617 -15.777   0.621  1.00  0.00     0.046 C 
HETATM   24  C   UNL     1     -28.484 -21.644   3.943  1.00  0.00    -0.008 C 
HETATM   25  C   UNL     1     -28.569 -19.712   6.454  1.00  0.00     0.012 C 
HETATM   26  C   UNL     1     -28.232 -17.912   4.789  1.00  0.00    -0.036 C 
HETATM   27  N   UNL     1     -26.688 -20.167  -2.205  1.00  0.00    -0.310 N 
ATOM     28  HN  UNL     1     -27.042 -19.679  -3.028  1.00  0.00     0.186 HD
HETATM   29  C   UNL     1     -28.415 -19.994   1.569  1.00  0.00     0.071 C 
HETATM   30  C   UNL     1     -28.494 -20.130   3.963  1.00  0.00    -0.035 C 
HETATM   31  C   UNL     1     -26.616 -23.063   3.174  1.00  0.00     0.010 C 
HETATM   32  C   UNL     1     -27.740 -22.283   5.110  1.00  0.00     0.015 C 
HETATM   33  C   UNL     1     -28.167 -17.784   3.294  1.00  0.00     0.083 C 
ENDROOT
BRANCH   4  34
HETATM   34  O   UNL     1     -24.350 -16.696   0.555  1.00  0.00    -0.395 OA
ATOM     35  HO  UNL     1     -24.712 -16.882   1.413  1.00  0.00     0.210 HD
ENDBRANCH   4  34
BRANCH  14  36
HETATM   36  O   UNL     1     -25.289 -14.134   1.863  1.00  0.00    -0.395 OA
ATOM     37  HO  UNL     1     -25.296 -13.298   1.414  1.00  0.00     0.210 HD
ENDBRANCH  14  36
BRANCH  18  38
HETATM   38  O   UNL     1     -25.762 -17.525   3.093  1.00  0.00    -0.389 OA
ATOM     39  HO  UNL     1     -25.129 -17.121   2.511  1.00  0.00     0.210 HD
ENDBRANCH  18  38
TORSDOF 3
ENDMDL
MODEL 5
REMARK VINA RESULT:      -9.7      0.881      1.048
REMARK  3 active torsions:
REMARK  status: ('A' for Active; 'I' for Inactive)
REMARK    1  A    between atoms: C_4  and  O_14 
REMARK    2  A    between atoms: O_10  and  C_18 
REMARK    3  A    between atoms: C_22  and  O_33 
ROOT
HETATM    1  C   UNL     1     -28.268 -16.608   6.606  1.00  0.00     0.009 C 
HETATM    2  C   UNL     1     -28.199 -13.798   7.732  1.00  0.00     0.001 C 
HETATM    3  C   UNL     1     -25.734 -14.807   0.325  1.00  0.00    -0.015 C 
HETATM    4  C   UNL     1     -27.723 -19.685   0.813  1.00  0.00     0.126 C 
HETATM    5  C   UNL     1     -26.602 -19.259  -0.141  1.00  0.00     0.054 C 
HETATM    6  C   UNL     1     -28.531 -14.941   8.422  1.00  0.00     0.000 C 
HETATM    7  N   UNL     1     -25.886 -16.904  -0.743  1.00  0.00    -0.303 N 
HETATM    8  C   UNL     1     -28.491 -16.221   7.911  1.00  0.00     0.001 C 
HETATM    9  C   UNL     1     -28.333 -18.871   4.346  1.00  0.00     0.071 C 
HETATM   10  C   UNL     1     -26.790 -18.173   2.559  1.00  0.00     0.048 C 
HETATM   11  C   UNL     1     -24.678 -14.491  -0.518  1.00  0.00     0.031 C 
HETATM   12  C   UNL     1     -27.360 -14.559   5.514  1.00  0.00    -0.022 C 
HETATM   13  C   UNL     1     -24.348 -15.463  -1.451  1.00  0.00     0.108 C 
HETATM   14  C   UNL     1     -28.093 -20.061   3.429  1.00  0.00     0.127 C 
HETATM   15  C   UNL     1     -26.398 -15.549   3.597  1.00  0.00    -0.057 C 
HETATM   16  C   UNL     1     -27.082 -10.923   2.858  1.00  0.00     0.002 C 
HETATM   17  C   UNL     1     -26.598 -18.113  -1.124  1.00  0.00     0.150 C 
HETATM   18  C   UNL     1     -27.727 -17.667   3.647  1.00  0.00     0.072 C 
HETATM   19  C   UNL     1     -25.775 -14.223   1.695  1.00  0.00    -0.059 C 
HETATM   20  C   UNL     1     -25.907 -12.871   2.310  1.00  0.00     0.028 C 
HETATM   21  C   UNL     1     -26.468 -15.938   0.007  1.00  0.00     0.121 C 
HETATM   22  C   UNL     1     -24.817 -12.420   4.448  1.00  0.00     0.021 C 
HETATM   23  C   UNL     1     -27.220 -19.608   2.270  1.00  0.00     0.046 C 
HETATM   24  C   UNL     1     -26.122 -12.881   3.847  1.00  0.00    -0.008 C 
HETATM   25  C   UNL     1     -27.817 -13.628   6.419  1.00  0.00     0.012 C 
HETATM   26  C   UNL     1     -27.619 -15.952   5.589  1.00  0.00    -0.036 C 
HETATM   27  N   UNL     1     -24.675 -16.739  -1.274  1.00  0.00    -0.310 N 
ATOM     28  HN  UNL     1     -24.061 -17.515  -1.520  1.00  0.00     0.186 HD
HETATM   29  C   UNL     1     -25.296 -15.351   2.592  1.00  0.00     0.071 C 
HETATM   30  C   UNL     1     -26.467 -14.256   4.377  1.00  0.00    -0.035 C 
HETATM   31  C   UNL     1     -26.924 -11.912   1.722  1.00  0.00     0.010 C 
HETATM   32  C   UNL     1     -27.204 -11.830   4.074  1.00  0.00     0.015 C 
HETATM   33  C   UNL     1     -26.911 -16.675   4.480  1.00  0.00     0.083 C 
ENDROOT
BRANCH   4  34
HETATM   34  O   UNL     1     -28.832 -18.816   0.608  1.00  0.00    -0.395 OA
ATOM     35  HO  UNL     1     -29.068 -18.437   1.447  1.00  0.00     0.210 HD
ENDBRANCH   4  34
BRANCH  14  36
HETATM   36  O   UNL     1     -29.334 -20.619   2.986  1.00  0.00    -0.395 OA
ATOM     37  HO  UNL     1     -29.414 -20.556   2.042  1.00  0.00     0.210 HD
ENDBRANCH  14  36
BRANCH  18  38
HETATM   38  O   UNL     1     -28.831 -17.016   3.034  1.00  0.00    -0.389 OA
ATOM     39  HO  UNL     1     -29.269 -17.699   2.540  1.00  0.00     0.210 HD
ENDBRANCH  18  38
TORSDOF 3
ENDMDL
MODEL 6
REMARK VINA RESULT:      -9.7      2.765      7.077
REMARK  3 active torsions:
REMARK  status: ('A' for Active; 'I' for Inactive)
REMARK    1  A    between atoms: C_4  and  O_14 
REMARK    2  A    between atoms: O_10  and  C_18 
REMARK    3  A    between atoms: C_22  and  O_33 
ROOT
HETATM    1  C   UNL     1     -26.268 -13.362   3.133  1.00  0.00     0.009 C 
HETATM    2  C   UNL     1     -25.445 -13.759   0.247  1.00  0.00     0.001 C 
HETATM    3  C   UNL     1     -27.866 -20.094   4.241  1.00  0.00    -0.015 C 
HETATM    4  C   UNL     1     -29.360 -16.622   7.943  1.00  0.00     0.126 C 
HETATM    5  C   UNL     1     -29.004 -18.094   8.178  1.00  0.00     0.054 C 
HETATM    6  C   UNL     1     -25.347 -12.590   0.966  1.00  0.00     0.000 C 
HETATM    7  N   UNL     1     -28.696 -19.914   6.442  1.00  0.00    -0.303 N 
HETATM    8  C   UNL     1     -25.663 -12.445   2.299  1.00  0.00     0.001 C 
HETATM    9  C   UNL     1     -27.737 -14.037   5.894  1.00  0.00     0.071 C 
HETATM   10  C   UNL     1     -27.522 -16.461   6.270  1.00  0.00     0.048 C 
HETATM   11  C   UNL     1     -27.501 -21.403   4.522  1.00  0.00     0.031 C 
HETATM   12  C   UNL     1     -26.106 -15.514   1.886  1.00  0.00    -0.022 C 
HETATM   13  C   UNL     1     -27.820 -21.853   5.795  1.00  0.00     0.108 C 
HETATM   14  C   UNL     1     -28.129 -14.334   7.334  1.00  0.00     0.127 C 
HETATM   15  C   UNL     1     -26.497 -17.013   3.670  1.00  0.00    -0.057 C 
HETATM   16  C   UNL     1     -27.316 -19.168  -0.466  1.00  0.00     0.002 C 
HETATM   17  C   UNL     1     -29.539 -19.310   7.460  1.00  0.00     0.150 C 
HETATM   18  C   UNL     1     -27.618 -15.382   5.199  1.00  0.00     0.072 C 
HETATM   19  C   UNL     1     -27.069 -19.308   3.259  1.00  0.00    -0.059 C 
HETATM   20  C   UNL     1     -26.762 -19.359   1.800  1.00  0.00     0.028 C 
HETATM   21  C   UNL     1     -28.687 -19.466   5.164  1.00  0.00     0.121 C 
HETATM   22  C   UNL     1     -24.605 -18.539   1.004  1.00  0.00     0.021 C 
HETATM   23  C   UNL     1     -28.092 -15.840   7.542  1.00  0.00     0.046 C 
HETATM   24  C   UNL     1     -26.030 -18.106   1.252  1.00  0.00    -0.008 C 
HETATM   25  C   UNL     1     -25.905 -15.002   0.624  1.00  0.00     0.012 C 
HETATM   26  C   UNL     1     -26.321 -14.731   3.050  1.00  0.00    -0.036 C 
HETATM   27  N   UNL     1     -28.027 -21.008   6.801  1.00  0.00    -0.310 N 
ATOM     28  HN  UNL     1     -27.705 -21.182   7.753  1.00  0.00     0.186 HD
HETATM   29  C   UNL     1     -26.195 -18.416   4.122  1.00  0.00     0.071 C 
HETATM   30  C   UNL     1     -26.045 -16.949   2.229  1.00  0.00    -0.035 C 
HETATM   31  C   UNL     1     -27.894 -19.670   0.840  1.00  0.00     0.010 C 
HETATM   32  C   UNL     1     -26.729 -17.820  -0.072  1.00  0.00     0.015 C 
HETATM   33  C   UNL     1     -26.431 -15.614   4.260  1.00  0.00     0.083 C 
ENDROOT
BRANCH   4  34
HETATM   34  O   UNL     1     -30.344 -16.564   6.915  1.00  0.00    -0.395 OA
ATOM     35  HO  UNL     1     -30.458 -15.654   6.667  1.00  0.00     0.210 HD
ENDBRANCH   4  34
BRANCH  14  36
HETATM   36  O   UNL     1     -29.411 -13.777   7.636  1.00  0.00    -0.395 OA
ATOM     37  HO  UNL     1     -29.945 -13.715   6.853  1.00  0.00     0.210 HD
ENDBRANCH  14  36
BRANCH  18  38
HETATM   38  O   UNL     1     -28.845 -15.536   4.502  1.00  0.00    -0.389 OA
ATOM     39  HO  UNL     1     -29.058 -16.458   4.592  1.00  0.00     0.210 HD
ENDBRANCH  18  38
TORSDOF 3
ENDMDL
MODEL 7
REMARK VINA RESULT:      -9.3      2.507      3.965
REMARK  3 active torsions:
REMARK  status: ('A' for Active; 'I' for Inactive)
REMARK    1  A    between atoms: C_4  and  O_14 
REMARK    2  A    between atoms: O_10  and  C_18 
REMARK    3  A    between atoms: C_22  and  O_33 
ROOT
HETATM    1  C   UNL     1     -28.659 -21.052   5.081  1.00  0.00     0.009 C 
HETATM    2  C   UNL     1     -28.966 -18.711   6.977  1.00  0.00     0.001 C 
HETATM    3  C   UNL     1     -25.780 -17.282  -0.077  1.00  0.00    -0.015 C 
HETATM    4  C   UNL     1     -27.312 -22.206  -1.257  1.00  0.00     0.126 C 
HETATM    5  C   UNL     1     -26.160 -21.438  -1.914  1.00  0.00     0.054 C 
HETATM    6  C   UNL     1     -29.242 -20.029   7.262  1.00  0.00     0.000 C 
HETATM    7  N   UNL     1     -25.631 -18.967  -1.720  1.00  0.00    -0.303 N 
HETATM    8  C   UNL     1     -29.031 -21.090   6.408  1.00  0.00     0.001 C 
HETATM    9  C   UNL     1     -28.304 -22.533   2.267  1.00  0.00     0.071 C 
HETATM   10  C   UNL     1     -26.688 -21.227   0.946  1.00  0.00     0.048 C 
HETATM   11  C   UNL     1     -24.691 -16.656  -0.668  1.00  0.00     0.031 C 
HETATM   12  C   UNL     1     -27.867 -18.713   4.742  1.00  0.00    -0.022 C 
HETATM   13  C   UNL     1     -24.187 -17.278  -1.801  1.00  0.00     0.108 C 
HETATM   14  C   UNL     1     -27.869 -23.374   1.076  1.00  0.00     0.127 C 
HETATM   15  C   UNL     1     -26.649 -19.015   2.740  1.00  0.00    -0.057 C 
HETATM   16  C   UNL     1     -27.720 -14.438   3.309  1.00  0.00     0.002 C 
HETATM   17  C   UNL     1     -26.184 -20.052  -2.514  1.00  0.00     0.150 C 
HETATM   18  C   UNL     1     -27.762 -21.136   2.022  1.00  0.00     0.072 C 
HETATM   19  C   UNL     1     -25.997 -17.140   1.389  1.00  0.00    -0.059 C 
HETATM   20  C   UNL     1     -26.315 -16.046   2.353  1.00  0.00     0.028 C 
HETATM   21  C   UNL     1     -26.368 -18.313  -0.792  1.00  0.00     0.121 C 
HETATM   22  C   UNL     1     -25.464 -16.184   4.637  1.00  0.00     0.021 C 
HETATM   23  C   UNL     1     -26.947 -22.535   0.205  1.00  0.00     0.046 C 
HETATM   24  C   UNL     1     -26.661 -16.531   3.786  1.00  0.00    -0.008 C 
HETATM   25  C   UNL     1     -28.490 -18.130   5.821  1.00  0.00     0.012 C 
HETATM   26  C   UNL     1     -27.992 -20.078   4.378  1.00  0.00    -0.036 C 
HETATM   27  N   UNL     1     -24.401 -18.568  -2.041  1.00  0.00    -0.310 N 
ATOM     28  HN  UNL     1     -23.694 -19.190  -2.432  1.00  0.00     0.186 HD
HETATM   29  C   UNL     1     -25.489 -18.449   1.966  1.00  0.00     0.071 C 
HETATM   30  C   UNL     1     -26.912 -18.023   3.850  1.00  0.00    -0.035 C 
HETATM   31  C   UNL     1     -27.367 -15.028   1.960  1.00  0.00     0.010 C 
HETATM   32  C   UNL     1     -27.856 -15.674   4.186  1.00  0.00     0.015 C 
HETATM   33  C   UNL     1     -27.122 -20.386   3.193  1.00  0.00     0.083 C 
ENDROOT
BRANCH   4  34
HETATM   34  O   UNL     1     -28.480 -21.394  -1.324  1.00  0.00    -0.395 OA
ATOM     35  HO  UNL     1     -28.646 -21.191  -2.237  1.00  0.00     0.210 HD
ENDBRANCH   4  34
BRANCH  14  36
HETATM   36  O   UNL     1     -29.006 -23.856   0.354  1.00  0.00    -0.395 OA
ATOM     37  HO  UNL     1     -28.796 -24.660  -0.107  1.00  0.00     0.210 HD
ENDBRANCH  14  36
BRANCH  18  38
HETATM   38  O   UNL     1     -28.867 -20.408   1.505  1.00  0.00    -0.389 OA
ATOM     39  HO  UNL     1     -29.553 -21.057   1.399  1.00  0.00     0.210 HD
ENDBRANCH  18  38
TORSDOF 3
ENDMDL
