MODEL 1
REMARK VINA RESULT:      -6.7      0.000      0.000
REMARK  1 active torsions:
REMARK  status: ('A' for Active; 'I' for Inactive)
REMARK    1  A    between atoms: O_2  and  C_17 
ROOT
HETATM    1  C   UNL     1      13.784 -13.206 -13.921  1.00  0.00     0.091 C 
HETATM    2  C   UNL     1      17.161 -15.076 -14.314  1.00  0.00     0.047 C 
HETATM    3  C   UNL     1      12.489 -15.523 -15.453  1.00  0.00     0.056 C 
HETATM    4  C   UNL     1      15.752 -14.169 -11.251  1.00  0.00     0.009 C 
HETATM    5  O   UNL     1      15.536 -16.417 -16.079  1.00  0.00    -0.289 OA
HETATM    6  C   UNL     1      13.494 -13.442 -16.385  1.00  0.00     0.165 C 
HETATM    7  N   UNL     1      13.465 -12.675 -15.143  1.00  0.00    -0.395 N 
ATOM      8  HN  UNL     1      13.195 -11.692 -15.187  1.00  0.00     0.159 HD
HETATM    9  C   UNL     1      15.052 -13.753 -13.631  1.00  0.00    -0.029 C 
HETATM   10  C   UNL     1      17.121 -14.688 -10.795  1.00  0.00     0.001 C 
HETATM   11  C   UNL     1      17.915 -14.333 -13.207  1.00  0.00    -0.010 C 
HETATM   12  C   UNL     1      17.286 -12.966 -12.892  1.00  0.00     0.014 C 
HETATM   13  C   UNL     1      15.702 -14.708 -14.515  1.00  0.00    -0.001 C 
HETATM   14  C   UNL     1      15.822 -13.182 -12.428  1.00  0.00     0.021 C 
HETATM   15  C   UNL     1      13.673 -14.958 -16.240  1.00  0.00     0.134 C 
HETATM   16  C   UNL     1      17.928 -15.239 -11.964  1.00  0.00     0.005 C 
HETATM   17  C   UNL     1      15.006 -15.405 -15.610  1.00  0.00     0.191 C 
ENDROOT
BRANCH  15  18
HETATM   18  O   UNL     1      13.681 -15.473 -17.558  1.00  0.00    -0.380 OA
ATOM     19  HO  UNL     1      13.436 -14.797 -18.180  1.00  0.00     0.211 HD
ENDBRANCH  15  18
TORSDOF 1
ENDMDL
MODEL 2
REMARK VINA RESULT:      -6.3      4.103      6.651
REMARK  1 active torsions:
REMARK  status: ('A' for Active; 'I' for Inactive)
REMARK    1  A    between atoms: O_2  and  C_17 
ROOT
HETATM    1  C   UNL     1      19.565 -12.930 -11.010  1.00  0.00     0.091 C 
HETATM    2  C   UNL     1      16.526 -15.341 -10.934  1.00  0.00     0.047 C 
HETATM    3  C   UNL     1      21.102 -15.051  -9.418  1.00  0.00     0.056 C 
HETATM    4  C   UNL     1      18.002 -14.117 -13.852  1.00  0.00     0.009 C 
HETATM    5  O   UNL     1      18.206 -16.453  -9.065  1.00  0.00    -0.289 OA
HETATM    6  C   UNL     1      19.695 -13.194  -8.535  1.00  0.00     0.165 C 
HETATM    7  N   UNL     1      19.693 -12.393  -9.756  1.00  0.00    -0.395 N 
ATOM      8  HN  UNL     1      19.792 -11.381  -9.671  1.00  0.00     0.159 HD
HETATM    9  C   UNL     1      18.433 -13.668 -11.414  1.00  0.00    -0.029 C 
HETATM   10  C   UNL     1      16.779 -14.839 -14.430  1.00  0.00     0.001 C 
HETATM   11  C   UNL     1      15.749 -14.697 -12.086  1.00  0.00    -0.010 C 
HETATM   12  C   UNL     1      16.164 -13.236 -12.322  1.00  0.00     0.014 C 
HETATM   13  C   UNL     1      17.883 -14.745 -10.605  1.00  0.00    -0.001 C 
HETATM   14  C   UNL     1      17.676 -13.193 -12.666  1.00  0.00     0.021 C 
HETATM   15  C   UNL     1      19.782 -14.713  -8.722  1.00  0.00     0.134 C 
HETATM   16  C   UNL     1      15.985 -15.552 -13.342  1.00  0.00     0.005 C 
HETATM   17  C   UNL     1      18.596 -15.353  -9.469  1.00  0.00     0.191 C 
ENDROOT
BRANCH  15  18
HETATM   18  O   UNL     1      19.756 -15.264  -7.419  1.00  0.00    -0.380 OA
ATOM     19  HO  UNL     1      20.638 -15.343  -7.073  1.00  0.00     0.211 HD
ENDBRANCH  15  18
TORSDOF 1
ENDMDL
MODEL 3
REMARK VINA RESULT:      -6.0      4.571      7.050
REMARK  1 active torsions:
REMARK  status: ('A' for Active; 'I' for Inactive)
REMARK    1  A    between atoms: O_2  and  C_17 
ROOT
HETATM    1  C   UNL     1      18.699 -12.815  -9.200  1.00  0.00     0.091 C 
HETATM    2  C   UNL     1      17.048 -15.982 -10.715  1.00  0.00     0.047 C 
HETATM    3  C   UNL     1      20.765 -14.682  -7.919  1.00  0.00     0.056 C 
HETATM    4  C   UNL     1      18.239 -13.289 -12.590  1.00  0.00     0.009 C 
HETATM    5  O   UNL     1      18.758 -17.047  -8.846  1.00  0.00    -0.289 OA
HETATM    6  C   UNL     1      18.575 -13.947  -6.983  1.00  0.00     0.165 C 
HETATM    7  N   UNL     1      18.398 -12.796  -7.863  1.00  0.00    -0.395 N 
ATOM      8  HN  UNL     1      18.030 -11.932  -7.463  1.00  0.00     0.159 HD
HETATM    9  C   UNL     1      18.076 -13.692 -10.113  1.00  0.00    -0.029 C 
HETATM   10  C   UNL     1      17.553 -14.118 -13.683  1.00  0.00     0.001 C 
HETATM   11  C   UNL     1      16.241 -15.269 -11.804  1.00  0.00    -0.010 C 
HETATM   12  C   UNL     1      16.003 -13.786 -11.474  1.00  0.00     0.014 C 
HETATM   13  C   UNL     1      17.944 -15.117  -9.848  1.00  0.00    -0.001 C 
HETATM   14  C   UNL     1      17.375 -13.076 -11.336  1.00  0.00     0.021 C 
HETATM   15  C   UNL     1      19.346 -15.135  -7.570  1.00  0.00     0.134 C 
HETATM   16  C   UNL     1      17.005 -15.428 -13.129  1.00  0.00     0.005 C 
HETATM   17  C   UNL     1      18.680 -15.817  -8.782  1.00  0.00     0.191 C 
ENDROOT
BRANCH  15  18
HETATM   18  O   UNL     1      19.377 -16.116  -6.550  1.00  0.00    -0.380 OA
ATOM     19  HO  UNL     1      19.087 -16.956  -6.888  1.00  0.00     0.211 HD
ENDBRANCH  15  18
TORSDOF 1
ENDMDL
MODEL 4
REMARK VINA RESULT:      -5.9      3.847      6.148
REMARK  1 active torsions:
REMARK  status: ('A' for Active; 'I' for Inactive)
REMARK    1  A    between atoms: O_2  and  C_17 
ROOT
HETATM    1  C   UNL     1      19.336 -14.682 -11.111  1.00  0.00     0.091 C 
HETATM    2  C   UNL     1      16.067 -13.213 -12.598  1.00  0.00     0.047 C 
HETATM    3  C   UNL     1      18.235 -13.951  -8.346  1.00  0.00     0.056 C 
HETATM    4  C   UNL     1      17.162 -16.491 -13.093  1.00  0.00     0.009 C 
HETATM    5  O   UNL     1      15.993 -12.307 -10.004  1.00  0.00    -0.289 OA
HETATM    6  C   UNL     1      19.605 -12.536  -9.872  1.00  0.00     0.165 C 
HETATM    7  N   UNL     1      20.109 -13.627 -10.701  1.00  0.00    -0.395 N 
ATOM      8  HN  UNL     1      21.087 -13.603 -10.990  1.00  0.00     0.159 HD
HETATM    9  C   UNL     1      18.183 -14.521 -11.909  1.00  0.00    -0.029 C 
HETATM   10  C   UNL     1      15.959 -16.443 -14.043  1.00  0.00     0.001 C 
HETATM   11  C   UNL     1      16.165 -13.888 -13.968  1.00  0.00    -0.010 C 
HETATM   12  C   UNL     1      17.607 -14.298 -14.312  1.00  0.00     0.014 C 
HETATM   13  C   UNL     1      17.154 -13.542 -11.591  1.00  0.00    -0.001 C 
HETATM   14  C   UNL     1      18.116 -15.293 -13.237  1.00  0.00     0.021 C 
HETATM   15  C   UNL     1      18.209 -12.732  -9.271  1.00  0.00     0.134 C 
HETATM   16  C   UNL     1      15.229 -15.108 -13.955  1.00  0.00     0.005 C 
HETATM   17  C   UNL     1      17.063 -12.852 -10.293  1.00  0.00     0.191 C 
ENDROOT
BRANCH  15  18
HETATM   18  O   UNL     1      17.939 -11.556  -8.530  1.00  0.00    -0.380 OA
ATOM     19  HO  UNL     1      18.556 -10.870  -8.760  1.00  0.00     0.211 HD
ENDBRANCH  15  18
TORSDOF 1
ENDMDL
MODEL 5
REMARK VINA RESULT:      -5.6      4.551      6.983
REMARK  1 active torsions:
REMARK  status: ('A' for Active; 'I' for Inactive)
REMARK    1  A    between atoms: O_2  and  C_17 
ROOT
HETATM    1  C   UNL     1      19.067 -15.237  -9.613  1.00  0.00     0.091 C 
HETATM    2  C   UNL     1      18.544 -12.914 -12.676  1.00  0.00     0.047 C 
HETATM    3  C   UNL     1      20.180 -12.794  -8.134  1.00  0.00     0.056 C 
HETATM    4  C   UNL     1      16.002 -14.733 -11.121  1.00  0.00     0.009 C 
HETATM    5  O   UNL     1      20.154 -11.391 -11.051  1.00  0.00    -0.289 OA
HETATM    6  C   UNL     1      21.424 -14.429  -9.544  1.00  0.00     0.165 C 
HETATM    7  N   UNL     1      20.412 -15.481  -9.509  1.00  0.00    -0.395 N 
ATOM      8  HN  UNL     1      20.722 -16.447  -9.402  1.00  0.00     0.159 HD
HETATM    9  C   UNL     1      18.486 -14.624 -10.743  1.00  0.00    -0.029 C 
HETATM   10  C   UNL     1      15.253 -14.174 -12.337  1.00  0.00     0.001 C 
HETATM   11  C   UNL     1      17.548 -13.808 -13.420  1.00  0.00    -0.010 C 
HETATM   12  C   UNL     1      17.651 -15.280 -12.985  1.00  0.00     0.014 C 
HETATM   13  C   UNL     1      19.025 -13.402 -11.322  1.00  0.00    -0.001 C 
HETATM   14  C   UNL     1      17.356 -15.376 -11.466  1.00  0.00     0.021 C 
HETATM   15  C   UNL     1      20.906 -12.988  -9.466  1.00  0.00     0.134 C 
HETATM   16  C   UNL     1      16.138 -13.250 -13.164  1.00  0.00     0.005 C 
HETATM   17  C   UNL     1      20.012 -12.547 -10.641  1.00  0.00     0.191 C 
ENDROOT
BRANCH  15  18
HETATM   18  O   UNL     1      22.054 -12.162  -9.529  1.00  0.00    -0.380 OA
ATOM     19  HO  UNL     1      21.957 -11.510 -10.213  1.00  0.00     0.211 HD
ENDBRANCH  15  18
TORSDOF 1
ENDMDL
MODEL 6
REMARK VINA RESULT:      -5.5      3.051      4.477
REMARK  1 active torsions:
REMARK  status: ('A' for Active; 'I' for Inactive)
REMARK    1  A    between atoms: O_2  and  C_17 
ROOT
HETATM    1  C   UNL     1      16.836 -14.946 -10.247  1.00  0.00     0.091 C 
HETATM    2  C   UNL     1      19.355 -12.432 -11.794  1.00  0.00     0.047 C 
HETATM    3  C   UNL     1      16.576 -16.181 -13.040  1.00  0.00     0.056 C 
HETATM    4  C   UNL     1      20.085 -14.574  -9.136  1.00  0.00     0.009 C 
HETATM    5  O   UNL     1      18.209 -13.564 -14.021  1.00  0.00    -0.289 OA
HETATM    6  C   UNL     1      15.254 -14.307 -12.064  1.00  0.00     0.165 C 
HETATM    7  N   UNL     1      15.584 -14.582 -10.668  1.00  0.00    -0.395 N 
ATOM      8  HN  UNL     1      14.844 -14.499  -9.971  1.00  0.00     0.159 HD
HETATM    9  C   UNL     1      17.971 -14.125 -10.422  1.00  0.00    -0.029 C 
HETATM   10  C   UNL     1      21.360 -13.723  -9.177  1.00  0.00     0.001 C 
HETATM   11  C   UNL     1      20.000 -11.983 -10.481  1.00  0.00    -0.010 C 
HETATM   12  C   UNL     1      19.087 -12.233  -9.269  1.00  0.00     0.014 C 
HETATM   13  C   UNL     1      18.287 -13.508 -11.701  1.00  0.00    -0.001 C 
HETATM   14  C   UNL     1      18.786 -13.752  -9.173  1.00  0.00     0.021 C 
HETATM   15  C   UNL     1      16.326 -14.672 -13.097  1.00  0.00     0.134 C 
HETATM   16  C   UNL     1      21.334 -12.734 -10.336  1.00  0.00     0.005 C 
HETATM   17  C   UNL     1      17.652 -13.898 -12.971  1.00  0.00     0.191 C 
ENDROOT
BRANCH  15  18
HETATM   18  O   UNL     1      15.788 -14.308 -14.355  1.00  0.00    -0.380 OA
ATOM     19  HO  UNL     1      14.940 -14.717 -14.485  1.00  0.00     0.211 HD
ENDBRANCH  15  18
TORSDOF 1
ENDMDL
MODEL 7
REMARK VINA RESULT:      -5.4      4.547      6.889
REMARK  1 active torsions:
REMARK  status: ('A' for Active; 'I' for Inactive)
REMARK    1  A    between atoms: O_2  and  C_17 
ROOT
HETATM    1  C   UNL     1      17.421 -11.980  -9.295  1.00  0.00     0.091 C 
HETATM    2  C   UNL     1      18.920 -14.870 -11.407  1.00  0.00     0.047 C 
HETATM    3  C   UNL     1      20.093 -10.524  -9.658  1.00  0.00     0.056 C 
HETATM    4  C   UNL     1      16.003 -13.135 -12.226  1.00  0.00     0.009 C 
HETATM    5  O   UNL     1      21.139 -13.360 -10.818  1.00  0.00    -0.289 OA
HETATM    6  C   UNL     1      19.453 -12.125  -7.859  1.00  0.00     0.165 C 
HETATM    7  N   UNL     1      18.010 -12.029  -8.059  1.00  0.00    -0.395 N 
ATOM      8  HN  UNL     1      17.408 -11.997  -7.235  1.00  0.00     0.159 HD
HETATM    9  C   UNL     1      17.550 -13.015 -10.246  1.00  0.00    -0.029 C 
HETATM   10  C   UNL     1      15.987 -14.240 -13.288  1.00  0.00     0.001 C 
HETATM   11  C   UNL     1      17.593 -15.542 -11.771  1.00  0.00    -0.010 C 
HETATM   12  C   UNL     1      16.470 -15.184 -10.784  1.00  0.00     0.014 C 
HETATM   13  C   UNL     1      18.840 -13.595 -10.586  1.00  0.00    -0.001 C 
HETATM   14  C   UNL     1      16.261 -13.647 -10.798  1.00  0.00     0.021 C 
HETATM   15  C   UNL     1      20.323 -11.932  -9.107  1.00  0.00     0.134 C 
HETATM   16  C   UNL     1      17.232 -15.115 -13.204  1.00  0.00     0.005 C 
HETATM   17  C   UNL     1      20.128 -12.986 -10.214  1.00  0.00     0.191 C 
ENDROOT
BRANCH  15  18
HETATM   18  O   UNL     1      21.661 -12.080  -8.670  1.00  0.00    -0.380 OA
ATOM     19  HO  UNL     1      21.718 -12.744  -7.992  1.00  0.00     0.211 HD
ENDBRANCH  15  18
TORSDOF 1
ENDMDL
MODEL 8
REMARK VINA RESULT:      -5.4      3.112      4.651
REMARK  1 active torsions:
REMARK  status: ('A' for Active; 'I' for Inactive)
REMARK    1  A    between atoms: O_2  and  C_17 
ROOT
HETATM    1  C   UNL     1      18.445 -12.821 -12.876  1.00  0.00     0.091 C 
HETATM    2  C   UNL     1      17.861 -14.526  -9.440  1.00  0.00     0.047 C 
HETATM    3  C   UNL     1      15.396 -12.701 -13.170  1.00  0.00     0.056 C 
HETATM    4  C   UNL     1      19.652 -11.564  -9.894  1.00  0.00     0.009 C 
HETATM    5  O   UNL     1      15.371 -14.661 -10.594  1.00  0.00    -0.289 OA
HETATM    6  C   UNL     1      16.931 -14.539 -13.860  1.00  0.00     0.165 C 
HETATM    7  N   UNL     1      18.156 -13.745 -13.846  1.00  0.00    -0.395 N 
ATOM      8  HN  UNL     1      18.833 -13.885 -14.596  1.00  0.00     0.159 HD
HETATM    9  C   UNL     1      18.568 -13.157 -11.511  1.00  0.00    -0.029 C 
HETATM   10  C   UNL     1      19.914 -11.833  -8.407  1.00  0.00     0.001 C 
HETATM   11  C   UNL     1      19.257 -14.268  -8.864  1.00  0.00    -0.010 C 
HETATM   12  C   UNL     1      20.303 -14.026  -9.965  1.00  0.00     0.014 C 
HETATM   13  C   UNL     1      17.575 -13.967 -10.822  1.00  0.00    -0.001 C 
HETATM   14  C   UNL     1      19.880 -12.788 -10.797  1.00  0.00     0.021 C 
HETATM   15  C   UNL     1      15.847 -14.129 -12.857  1.00  0.00     0.134 C 
HETATM   16  C   UNL     1      19.155 -13.060  -7.918  1.00  0.00     0.005 C 
HETATM   17  C   UNL     1      16.241 -14.260 -11.373  1.00  0.00     0.191 C 
ENDROOT
BRANCH  15  18
HETATM   18  O   UNL     1      14.779 -15.038 -13.050  1.00  0.00    -0.380 OA
ATOM     19  HO  UNL     1      14.982 -15.644 -13.753  1.00  0.00     0.211 HD
ENDBRANCH  15  18
TORSDOF 1
ENDMDL
MODEL 9
REMARK VINA RESULT:      -5.4      4.080      5.759
REMARK  1 active torsions:
REMARK  status: ('A' for Active; 'I' for Inactive)
REMARK    1  A    between atoms: O_2  and  C_17 
ROOT
HETATM    1  C   UNL     1      19.069 -13.835 -12.114  1.00  0.00     0.091 C 
HETATM    2  C   UNL     1      17.970 -11.954  -8.904  1.00  0.00     0.047 C 
HETATM    3  C   UNL     1      16.277 -13.254 -13.236  1.00  0.00     0.056 C 
HETATM    4  C   UNL     1      20.721 -11.072 -10.864  1.00  0.00     0.009 C 
HETATM    5  O   UNL     1      15.583 -12.330 -10.212  1.00  0.00    -0.289 OA
HETATM    6  C   UNL     1      17.006 -15.213 -11.879  1.00  0.00     0.165 C 
HETATM    7  N   UNL     1      18.438 -15.052 -12.113  1.00  0.00    -0.395 N 
ATOM      8  HN  UNL     1      18.998 -15.887 -12.283  1.00  0.00     0.159 HD
HETATM    9  C   UNL     1      19.089 -12.981 -10.991  1.00  0.00    -0.029 C 
HETATM   10  C   UNL     1      20.897 -10.117  -9.677  1.00  0.00     0.001 C 
HETATM   11  C   UNL     1      19.374 -11.696  -8.349  1.00  0.00    -0.010 C 
HETATM   12  C   UNL     1      20.412 -12.681  -8.913  1.00  0.00     0.014 C 
HETATM   13  C   UNL     1      17.882 -12.655 -10.247  1.00  0.00    -0.001 C 
HETATM   14  C   UNL     1      20.459 -12.531 -10.456  1.00  0.00     0.021 C 
HETATM   15  C   UNL     1      16.173 -13.926 -11.865  1.00  0.00     0.134 C 
HETATM   16  C   UNL     1      19.748 -10.243  -8.684  1.00  0.00     0.005 C 
HETATM   17  C   UNL     1      16.523 -12.928 -10.744  1.00  0.00     0.191 C 
ENDROOT
BRANCH  15  18
HETATM   18  O   UNL     1      14.840 -14.332 -11.613  1.00  0.00    -0.380 OA
ATOM     19  HO  UNL     1      14.672 -14.358 -10.678  1.00  0.00     0.211 HD
ENDBRANCH  15  18
TORSDOF 1
ENDMDL
