REMARK  4 active torsions:
REMARK  status: ('A' for Active; 'I' for Inactive)
REMARK    1  A    between atoms: C_7  and  N_16 
REMARK    2  A    between atoms: C_8  and  O_9 
REMARK    3  A    between atoms: O_11  and  C_22 
REMARK    4  A    between atoms: C_17  and  N_23 
ROOT
HETATM    1  C   UNL     1      43.839  32.562  55.078  1.00  0.00     0.072 C 
HETATM    2  C   UNL     1      47.419  32.869  55.578  1.00  0.00     0.209 C 
HETATM    3  C   UNL     1      46.305  35.813  54.157  1.00  0.00     0.228 C 
HETATM    4  N   UNL     1      45.054  33.869  53.429  1.00  0.00    -0.325 N 
ATOM      5  HN  UNL     1      44.208  33.801  52.863  1.00  0.00     0.168 HD
HETATM    6  C   UNL     1      45.815  34.879  53.051  1.00  0.00     0.252 C 
HETATM    7  N   UNL     1      47.277  34.303  55.825  1.00  0.00    -0.357 N 
HETATM    8  C   UNL     1      45.104  32.912  54.362  1.00  0.00     0.056 C 
HETATM    9  O   UNL     1      46.109  35.092  51.880  1.00  0.00    -0.270 OA
HETATM   10  O   UNL     1      46.402  30.987  54.542  1.00  0.00    -0.289 OA
HETATM   11  C   UNL     1      47.592  35.243  54.745  1.00  0.00     0.166 C 
HETATM   12  C   UNL     1      46.312  32.208  54.785  1.00  0.00     0.189 C 
ENDROOT
BRANCH   7  13
HETATM   13  C   UNL     1      47.455  34.709  57.126  1.00  0.00     0.105 C 
HETATM   14  N   UNL     1      48.703  34.886  57.606  1.00  0.00    -0.327 N 
HETATM   15  C   UNL     1      49.010  34.857  58.924  1.00  0.00     0.134 C 
ATOM     16  HN  UNL     1      49.457  35.051  56.939  1.00  0.00     0.169 HD
HETATM   17  C   UNL     1      48.551  35.893  59.803  1.00  0.00     0.109 C 
HETATM   18  C   UNL     1      47.226  36.281  59.784  1.00  0.00     0.040 C 
HETATM   19  C   UNL     1      46.246  35.607  59.087  1.00  0.00     0.007 C 
HETATM   20  C   UNL     1      46.337  34.876  57.928  1.00  0.00     0.048 C 
BRANCH  15  21
HETATM   21  N   UNL     1      49.708  33.855  59.453  1.00  0.00    -0.383 N 
ATOM     22  HN2 UNL     1      50.034  33.118  58.828  1.00  0.00     0.157 HD
ATOM     23  HN1 UNL     1      49.939  33.833  60.446  1.00  0.00     0.157 HD
ENDBRANCH  15  21
BRANCH  17  24
HETATM   24  O   UNL     1      49.448  36.405  60.696  1.00  0.00    -0.357 OA
ATOM     25  HO  UNL     1      49.144  37.091  61.278  1.00  0.00     0.218 HD
ENDBRANCH  17  24
ENDBRANCH   7  13
BRANCH   3  26
HETATM   26  O   UNL     1      46.548  37.103  53.611  1.00  0.00    -0.384 OA
ATOM     27  HO  UNL     1      46.853  37.684  54.298  1.00  0.00     0.210 HD
ENDBRANCH   3  26
TORSDOF 4
