MODEL 1
REMARK VINA RESULT:      -6.3      0.000      0.000
REMARK  3 active torsions:
REMARK  status: ('A' for Active; 'I' for Inactive)
REMARK    1  A    between atoms: C_3  and  O_12 
REMARK    2  A    between atoms: C_4  and  C_8 
REMARK    3  A    between atoms: O_5  and  C_11 
ROOT
HETATM    1  C   UNL     1      30.904  67.652   9.221  1.00  0.00     0.077 C 
HETATM    2  C   UNL     1      31.557  67.088   6.386  1.00  0.00     0.124 C 
HETATM    3  C   UNL     1      29.760  66.762   8.753  1.00  0.00     0.017 C 
HETATM    4  C   UNL     1      32.424  66.530   7.505  1.00  0.00     0.064 C 
HETATM    5  C   UNL     1      29.278  66.709   7.510  1.00  0.00    -0.010 C 
HETATM    6  C   UNL     1      30.082  66.726   6.256  1.00  0.00     0.059 C 
HETATM    7  C   UNL     1      32.289  67.020   8.949  1.00  0.00     0.125 C 
ENDROOT
BRANCH   3   8
HETATM    8  C   UNL     1      29.409  65.798   9.837  1.00  0.00     0.205 C 
HETATM    9  O   UNL     1      29.798  64.598   9.661  1.00  0.00    -0.644 OA
HETATM   10  O   UNL     1      28.706  66.172  10.788  1.00  0.00    -0.644 OA
ENDBRANCH   3   8
BRANCH   7  11
HETATM   11  O   UNL     1      32.465  65.837   9.744  1.00  0.00    -0.395 OA
ATOM     12  HO  UNL     1      32.081  65.085   9.309  1.00  0.00     0.210 HD
ENDBRANCH   7  11
BRANCH   2  13
HETATM   13  O   UNL     1      31.713  68.505   6.292  1.00  0.00    -0.395 OA
ATOM     14  HO  UNL     1      32.634  68.736   6.251  1.00  0.00     0.210 HD
ENDBRANCH   2  13
TORSDOF 3
ENDMDL
MODEL 2
REMARK VINA RESULT:      -6.1      1.637      2.757
REMARK  3 active torsions:
REMARK  status: ('A' for Active; 'I' for Inactive)
REMARK    1  A    between atoms: C_3  and  O_12 
REMARK    2  A    between atoms: C_4  and  C_8 
REMARK    3  A    between atoms: O_5  and  C_11 
ROOT
HETATM    1  C   UNL     1      30.039  65.893   7.325  1.00  0.00     0.077 C 
HETATM    2  C   UNL     1      32.526  67.461   7.687  1.00  0.00     0.124 C 
HETATM    3  C   UNL     1      30.045  66.229   8.811  1.00  0.00     0.017 C 
HETATM    4  C   UNL     1      31.368  68.025   6.879  1.00  0.00     0.064 C 
HETATM    5  C   UNL     1      31.134  66.391   9.563  1.00  0.00    -0.010 C 
HETATM    6  C   UNL     1      32.379  67.104   9.162  1.00  0.00     0.059 C 
HETATM    7  C   UNL     1      30.191  67.150   6.437  1.00  0.00     0.125 C 
ENDROOT
BRANCH   3   8
HETATM    8  C   UNL     1      28.659  66.568   9.246  1.00  0.00     0.205 C 
HETATM    9  O   UNL     1      27.718  66.020   8.584  1.00  0.00    -0.644 OA
HETATM   10  O   UNL     1      28.484  67.406  10.144  1.00  0.00    -0.644 OA
ENDBRANCH   3   8
BRANCH   7  11
HETATM   11  O   UNL     1      29.044  68.001   6.572  1.00  0.00    -0.395 OA
ATOM     12  HO  UNL     1      28.524  67.741   7.324  1.00  0.00     0.210 HD
ENDBRANCH   7  11
BRANCH   2  13
HETATM   13  O   UNL     1      33.139  66.375   6.991  1.00  0.00    -0.395 OA
ATOM     14  HO  UNL     1      32.816  65.544   7.319  1.00  0.00     0.210 HD
ENDBRANCH   2  13
TORSDOF 3
ENDMDL
MODEL 3
REMARK VINA RESULT:      -5.7      1.468      1.854
REMARK  3 active torsions:
REMARK  status: ('A' for Active; 'I' for Inactive)
REMARK    1  A    between atoms: C_3  and  O_12 
REMARK    2  A    between atoms: C_4  and  C_8 
REMARK    3  A    between atoms: O_5  and  C_11 
ROOT
HETATM    1  C   UNL     1      29.918  67.290   9.821  1.00  0.00     0.077 C 
HETATM    2  C   UNL     1      29.141  67.033   6.974  1.00  0.00     0.124 C 
HETATM    3  C   UNL     1      28.626  66.484   9.867  1.00  0.00     0.017 C 
HETATM    4  C   UNL     1      30.385  66.334   7.502  1.00  0.00     0.064 C 
HETATM    5  C   UNL     1      27.621  66.582   8.995  1.00  0.00    -0.010 C 
HETATM    6  C   UNL     1      27.752  66.722   7.518  1.00  0.00     0.059 C 
HETATM    7  C   UNL     1      30.970  66.661   8.879  1.00  0.00     0.125 C 
ENDROOT
BRANCH   3   8
HETATM    8  C   UNL     1      28.748  65.413  10.899  1.00  0.00     0.205 C 
HETATM    9  O   UNL     1      28.793  64.218  10.457  1.00  0.00    -0.644 OA
HETATM   10  O   UNL     1      28.716  65.711  12.102  1.00  0.00    -0.644 OA
ENDBRANCH   3   8
BRANCH   7  11
HETATM   11  O   UNL     1      31.408  65.393   9.390  1.00  0.00    -0.395 OA
ATOM     12  HO  UNL     1      32.282  65.193   9.077  1.00  0.00     0.210 HD
ENDBRANCH   7  11
BRANCH   2  13
HETATM   13  O   UNL     1      29.338  68.447   6.944  1.00  0.00    -0.395 OA
ATOM     14  HO  UNL     1      29.658  68.757   7.783  1.00  0.00     0.210 HD
ENDBRANCH   2  13
TORSDOF 3
ENDMDL
MODEL 4
REMARK VINA RESULT:      -5.7      0.775      1.180
REMARK  3 active torsions:
REMARK  status: ('A' for Active; 'I' for Inactive)
REMARK    1  A    between atoms: C_3  and  O_12 
REMARK    2  A    between atoms: C_4  and  C_8 
REMARK    3  A    between atoms: O_5  and  C_11 
ROOT
HETATM    1  C   UNL     1      30.208  67.823   9.118  1.00  0.00     0.077 C 
HETATM    2  C   UNL     1      31.262  66.998   6.476  1.00  0.00     0.124 C 
HETATM    3  C   UNL     1      29.085  66.982   8.525  1.00  0.00     0.017 C 
HETATM    4  C   UNL     1      31.888  66.469   7.757  1.00  0.00     0.064 C 
HETATM    5  C   UNL     1      28.808  66.867   7.225  1.00  0.00    -0.010 C 
HETATM    6  C   UNL     1      29.803  66.731   6.125  1.00  0.00     0.059 C 
HETATM    7  C   UNL     1      31.562  67.077   9.124  1.00  0.00     0.125 C 
ENDROOT
BRANCH   3   8
HETATM    8  C   UNL     1      28.487  66.131   9.595  1.00  0.00     0.205 C 
HETATM    9  O   UNL     1      27.615  66.697  10.332  1.00  0.00    -0.644 OA
HETATM   10  O   UNL     1      28.908  64.978   9.772  1.00  0.00    -0.644 OA
ENDBRANCH   3   8
BRANCH   7  11
HETATM   11  O   UNL     1      31.510  65.950  10.012  1.00  0.00    -0.395 OA
ATOM     12  HO  UNL     1      32.362  65.532  10.068  1.00  0.00     0.210 HD
ENDBRANCH   7  11
BRANCH   2  13
HETATM   13  O   UNL     1      31.546  68.389   6.317  1.00  0.00    -0.395 OA
ATOM     14  HO  UNL     1      30.879  68.806   5.786  1.00  0.00     0.210 HD
ENDBRANCH   2  13
TORSDOF 3
ENDMDL
MODEL 5
REMARK VINA RESULT:      -5.4      1.598      3.749
REMARK  3 active torsions:
REMARK  status: ('A' for Active; 'I' for Inactive)
REMARK    1  A    between atoms: C_3  and  O_12 
REMARK    2  A    between atoms: C_4  and  C_8 
REMARK    3  A    between atoms: O_5  and  C_11 
ROOT
HETATM    1  C   UNL     1      30.383  65.731   8.840  1.00  0.00     0.077 C 
HETATM    2  C   UNL     1      27.588  66.713   8.886  1.00  0.00     0.124 C 
HETATM    3  C   UNL     1      30.285  66.611   7.601  1.00  0.00     0.017 C 
HETATM    4  C   UNL     1      28.582  67.160   9.948  1.00  0.00     0.064 C 
HETATM    5  C   UNL     1      29.183  66.806   6.875  1.00  0.00    -0.010 C 
HETATM    6  C   UNL     1      27.806  67.006   7.406  1.00  0.00     0.059 C 
HETATM    7  C   UNL     1      29.938  66.471  10.123  1.00  0.00     0.125 C 
ENDROOT
BRANCH   3   8
HETATM    8  C   UNL     1      31.545  67.396   7.452  1.00  0.00     0.205 C 
HETATM    9  O   UNL     1      31.530  68.308   6.562  1.00  0.00    -0.644 OA
HETATM   10  O   UNL     1      32.546  67.085   8.116  1.00  0.00    -0.644 OA
ENDBRANCH   3   8
BRANCH   7  11
HETATM   11  O   UNL     1      30.845  67.541  10.425  1.00  0.00    -0.395 OA
ATOM     12  HO  UNL     1      30.866  67.705  11.361  1.00  0.00     0.210 HD
ENDBRANCH   7  11
BRANCH   2  13
HETATM   13  O   UNL     1      27.260  65.333   9.058  1.00  0.00    -0.395 OA
ATOM     14  HO  UNL     1      26.815  64.999   8.289  1.00  0.00     0.210 HD
ENDBRANCH   2  13
TORSDOF 3
ENDMDL
MODEL 6
REMARK VINA RESULT:      -5.3      1.640      2.999
REMARK  3 active torsions:
REMARK  status: ('A' for Active; 'I' for Inactive)
REMARK    1  A    between atoms: C_3  and  O_12 
REMARK    2  A    between atoms: C_4  and  C_8 
REMARK    3  A    between atoms: O_5  and  C_11 
ROOT
HETATM    1  C   UNL     1      31.035  68.017   7.386  1.00  0.00     0.077 C 
HETATM    2  C   UNL     1      28.425  66.692   6.928  1.00  0.00     0.124 C 
HETATM    3  C   UNL     1      30.716  67.365   8.726  1.00  0.00     0.017 C 
HETATM    4  C   UNL     1      29.678  66.195   6.223  1.00  0.00     0.064 C 
HETATM    5  C   UNL     1      29.492  67.163   9.217  1.00  0.00    -0.010 C 
HETATM    6  C   UNL     1      28.305  66.697   8.447  1.00  0.00     0.059 C 
HETATM    7  C   UNL     1      30.974  67.010   6.214  1.00  0.00     0.125 C 
ENDROOT
BRANCH   3   8
HETATM    8  C   UNL     1      31.964  66.787   9.303  1.00  0.00     0.205 C 
HETATM    9  O   UNL     1      33.049  67.372   8.981  1.00  0.00    -0.644 OA
HETATM   10  O   UNL     1      31.906  65.748   9.978  1.00  0.00    -0.644 OA
ENDBRANCH   3   8
BRANCH   7  11
HETATM   11  O   UNL     1      32.013  66.028   6.342  1.00  0.00    -0.395 OA
ATOM     12  HO  UNL     1      31.649  65.152   6.299  1.00  0.00     0.210 HD
ENDBRANCH   7  11
BRANCH   2  13
HETATM   13  O   UNL     1      28.034  67.966   6.412  1.00  0.00    -0.395 OA
ATOM     14  HO  UNL     1      27.379  67.862   5.732  1.00  0.00     0.210 HD
ENDBRANCH   2  13
TORSDOF 3
ENDMDL
MODEL 7
REMARK VINA RESULT:      -5.0      4.628      5.920
REMARK  3 active torsions:
REMARK  status: ('A' for Active; 'I' for Inactive)
REMARK    1  A    between atoms: C_3  and  O_12 
REMARK    2  A    between atoms: C_4  and  C_8 
REMARK    3  A    between atoms: O_5  and  C_11 
ROOT
HETATM    1  C   UNL     1      25.796  65.245  10.527  1.00  0.00     0.077 C 
HETATM    2  C   UNL     1      24.477  64.723   7.926  1.00  0.00     0.124 C 
HETATM    3  C   UNL     1      25.908  63.735  10.358  1.00  0.00     0.017 C 
HETATM    4  C   UNL     1      25.790  65.488   7.987  1.00  0.00     0.064 C 
HETATM    5  C   UNL     1      25.034  62.961   9.712  1.00  0.00    -0.010 C 
HETATM    6  C   UNL     1      24.359  63.287   8.424  1.00  0.00     0.059 C 
HETATM    7  C   UNL     1      26.356  66.016   9.308  1.00  0.00     0.125 C 
ENDROOT
BRANCH   3   8
HETATM    8  C   UNL     1      27.250  63.283  10.828  1.00  0.00     0.205 C 
HETATM    9  O   UNL     1      27.639  62.150  10.394  1.00  0.00    -0.644 OA
HETATM   10  O   UNL     1      27.873  63.964  11.658  1.00  0.00    -0.644 OA
ENDBRANCH   3   8
BRANCH   7  11
HETATM   11  O   UNL     1      27.772  65.815   9.195  1.00  0.00    -0.395 OA
ATOM     12  HO  UNL     1      28.195  65.952  10.035  1.00  0.00     0.210 HD
ENDBRANCH   7  11
BRANCH   2  13
HETATM   13  O   UNL     1      23.416  65.508   8.473  1.00  0.00    -0.395 OA
ATOM     14  HO  UNL     1      22.584  65.255   8.089  1.00  0.00     0.210 HD
ENDBRANCH   2  13
TORSDOF 3
ENDMDL
MODEL 8
REMARK VINA RESULT:      -4.9      1.959      3.285
REMARK  3 active torsions:
REMARK  status: ('A' for Active; 'I' for Inactive)
REMARK    1  A    between atoms: C_3  and  O_12 
REMARK    2  A    between atoms: C_4  and  C_8 
REMARK    3  A    between atoms: O_5  and  C_11 
ROOT
HETATM    1  C   UNL     1      28.809  65.827   9.608  1.00  0.00     0.077 C 
HETATM    2  C   UNL     1      30.231  66.820   7.206  1.00  0.00     0.124 C 
HETATM    3  C   UNL     1      29.764  66.879  10.159  1.00  0.00     0.017 C 
HETATM    4  C   UNL     1      28.748  67.098   7.397  1.00  0.00     0.064 C 
HETATM    5  C   UNL     1      30.955  67.188   9.644  1.00  0.00    -0.010 C 
HETATM    6  C   UNL     1      31.277  67.322   8.195  1.00  0.00     0.059 C 
HETATM    7  C   UNL     1      27.923  66.377   8.466  1.00  0.00     0.125 C 
ENDROOT
BRANCH   3   8
HETATM    8  C   UNL     1      29.073  67.664  11.222  1.00  0.00     0.205 C 
HETATM    9  O   UNL     1      28.901  67.064  12.333  1.00  0.00    -0.644 OA
HETATM   10  O   UNL     1      28.636  68.796  10.965  1.00  0.00    -0.644 OA
ENDBRANCH   3   8
BRANCH   7  11
HETATM   11  O   UNL     1      27.030  67.383   8.966  1.00  0.00    -0.395 OA
ATOM     12  HO  UNL     1      27.385  68.251   8.808  1.00  0.00     0.210 HD
ENDBRANCH   7  11
BRANCH   2  13
HETATM   13  O   UNL     1      30.450  65.433   6.941  1.00  0.00    -0.395 OA
ATOM     14  HO  UNL     1      30.261  64.913   7.713  1.00  0.00     0.210 HD
ENDBRANCH   2  13
TORSDOF 3
ENDMDL
MODEL 9
REMARK VINA RESULT:      -4.9      3.478      6.147
REMARK  3 active torsions:
REMARK  status: ('A' for Active; 'I' for Inactive)
REMARK    1  A    between atoms: C_3  and  O_12 
REMARK    2  A    between atoms: C_4  and  C_8 
REMARK    3  A    between atoms: O_5  and  C_11 
ROOT
HETATM    1  C   UNL     1      28.031  63.580  11.546  1.00  0.00     0.077 C 
HETATM    2  C   UNL     1      25.889  64.700  13.260  1.00  0.00     0.124 C 
HETATM    3  C   UNL     1      27.712  64.922  10.900  1.00  0.00     0.017 C 
HETATM    4  C   UNL     1      27.303  64.536  13.798  1.00  0.00     0.064 C 
HETATM    5  C   UNL     1      26.519  65.521  10.909  1.00  0.00    -0.010 C 
HETATM    6  C   UNL     1      25.582  65.594  12.064  1.00  0.00     0.059 C 
HETATM    7  C   UNL     1      28.358  63.715  13.052  1.00  0.00     0.125 C 
ENDROOT
BRANCH   3   8
HETATM    8  C   UNL     1      28.979  65.569  10.453  1.00  0.00     0.205 C 
HETATM    9  O   UNL     1      29.671  64.912   9.609  1.00  0.00    -0.644 OA
HETATM   10  O   UNL     1      29.337  66.640  10.966  1.00  0.00    -0.644 OA
ENDBRANCH   3   8
BRANCH   7  11
HETATM   11  O   UNL     1      29.577  64.451  13.235  1.00  0.00    -0.395 OA
ATOM     12  HO  UNL     1      29.563  65.250  12.721  1.00  0.00     0.210 HD
ENDBRANCH   7  11
BRANCH   2  13
HETATM   13  O   UNL     1      25.274  63.424  13.074  1.00  0.00    -0.395 OA
ATOM     14  HO  UNL     1      24.991  63.067  13.907  1.00  0.00     0.210 HD
ENDBRANCH   2  13
TORSDOF 3
ENDMDL
