MODEL 1
REMARK VINA RESULT:      -5.0      0.000      0.000
REMARK  2 active torsions:
REMARK  status: ('A' for Active; 'I' for Inactive)
REMARK    1  A    between atoms: C_6  and  O_8 
REMARK    2  A    between atoms: C_6  and  C_12 
ROOT
HETATM    1  C   UNL     1      28.184  66.823   7.979  1.00  0.00     0.010 C 
HETATM    2  C   UNL     1      29.658  66.107   6.096  1.00  0.00     0.012 C 
HETATM    3  C   UNL     1      31.245  68.123   6.501  1.00  0.00     0.043 C 
HETATM    4  C   UNL     1      30.237  67.844   8.740  1.00  0.00    -0.003 C 
HETATM    5  C   UNL     1      30.097  65.353   8.411  1.00  0.00     0.012 C 
HETATM    6  C   UNL     1      31.758  66.884   7.265  1.00  0.00     0.062 C 
HETATM    7  C   UNL     1      28.919  67.300   6.711  1.00  0.00    -0.009 C 
HETATM    8  C   UNL     1      31.708  67.384   8.717  1.00  0.00     0.043 C 
HETATM    9  C   UNL     1      29.925  68.310   7.297  1.00  0.00    -0.003 C 
HETATM   10  C   UNL     1      30.783  65.687   7.059  1.00  0.00     0.021 C 
HETATM   11  C   UNL     1      29.366  66.588   8.928  1.00  0.00    -0.009 C 
ENDROOT
BRANCH   6  12
HETATM   12  O   UNL     1      33.047  66.459   6.796  1.00  0.00    -0.389 OA
ATOM     13  HO  UNL     1      33.011  65.606   6.379  1.00  0.00     0.210 HD
ENDBRANCH   6  12
TORSDOF 2
ENDMDL
MODEL 2
REMARK VINA RESULT:      -4.5      1.798      3.165
REMARK  2 active torsions:
REMARK  status: ('A' for Active; 'I' for Inactive)
REMARK    1  A    between atoms: C_6  and  O_8 
REMARK    2  A    between atoms: C_6  and  C_12 
ROOT
HETATM    1  C   UNL     1      31.548  67.576   6.522  1.00  0.00     0.010 C 
HETATM    2  C   UNL     1      31.451  66.360   8.700  1.00  0.00     0.012 C 
HETATM    3  C   UNL     1      29.301  67.649   9.383  1.00  0.00     0.043 C 
HETATM    4  C   UNL     1      29.173  67.768   6.919  1.00  0.00    -0.003 C 
HETATM    5  C   UNL     1      30.252  65.505   6.712  1.00  0.00     0.012 C 
HETATM    6  C   UNL     1      28.925  66.310   8.714  1.00  0.00     0.062 C 
HETATM    7  C   UNL     1      31.381  67.744   8.045  1.00  0.00    -0.009 C 
HETATM    8  C   UNL     1      28.124  66.797   7.496  1.00  0.00     0.043 C 
HETATM    9  C   UNL     1      29.953  68.312   8.141  1.00  0.00    -0.003 C 
HETATM   10  C   UNL     1      30.212  65.558   8.263  1.00  0.00     0.021 C 
HETATM   11  C   UNL     1      30.210  66.924   6.155  1.00  0.00    -0.009 C 
ENDROOT
BRANCH   6  12
HETATM   12  O   UNL     1      28.223  65.437   9.613  1.00  0.00    -0.389 OA
ATOM     13  HO  UNL     1      27.673  64.816   9.150  1.00  0.00     0.210 HD
ENDBRANCH   6  12
TORSDOF 2
ENDMDL
MODEL 3
REMARK VINA RESULT:      -4.4      4.366      5.531
REMARK  2 active torsions:
REMARK  status: ('A' for Active; 'I' for Inactive)
REMARK    1  A    between atoms: C_6  and  O_8 
REMARK    2  A    between atoms: C_6  and  C_12 
ROOT
HETATM    1  C   UNL     1      25.720  64.236  12.984  1.00  0.00     0.010 C 
HETATM    2  C   UNL     1      26.536  63.498  10.744  1.00  0.00     0.012 C 
HETATM    3  C   UNL     1      27.341  65.905  10.187  1.00  0.00     0.043 C 
HETATM    4  C   UNL     1      27.407  65.933  12.656  1.00  0.00    -0.003 C 
HETATM    5  C   UNL     1      28.041  63.498  12.708  1.00  0.00     0.012 C 
HETATM    6  C   UNL     1      28.502  65.085  10.788  1.00  0.00     0.062 C 
HETATM    7  C   UNL     1      25.712  64.561  11.478  1.00  0.00    -0.009 C 
HETATM    8  C   UNL     1      28.824  65.900  12.051  1.00  0.00     0.043 C 
HETATM    9  C   UNL     1      26.438  65.919  11.449  1.00  0.00    -0.003 C 
HETATM   10  C   UNL     1      28.009  63.656  11.164  1.00  0.00     0.021 C 
HETATM   11  C   UNL     1      27.171  64.577  13.346  1.00  0.00    -0.009 C 
ENDROOT
BRANCH   6  12
HETATM   12  O   UNL     1      29.585  64.922   9.858  1.00  0.00    -0.389 OA
ATOM     13  HO  UNL     1      30.432  64.970  10.285  1.00  0.00     0.210 HD
ENDBRANCH   6  12
TORSDOF 2
ENDMDL
MODEL 4
REMARK VINA RESULT:      -4.3      4.770      6.096
REMARK  2 active torsions:
REMARK  status: ('A' for Active; 'I' for Inactive)
REMARK    1  A    between atoms: C_6  and  O_8 
REMARK    2  A    between atoms: C_6  and  C_12 
ROOT
HETATM    1  C   UNL     1      24.961  67.717   9.613  1.00  0.00     0.010 C 
HETATM    2  C   UNL     1      26.354  66.123   8.290  1.00  0.00     0.012 C 
HETATM    3  C   UNL     1      26.894  64.743  10.424  1.00  0.00     0.043 C 
HETATM    4  C   UNL     1      24.750  65.793  11.058  1.00  0.00    -0.003 C 
HETATM    5  C   UNL     1      23.948  65.691   8.675  1.00  0.00     0.012 C 
HETATM    6  C   UNL     1      25.670  64.142   9.702  1.00  0.00     0.062 C 
HETATM    7  C   UNL     1      26.317  66.988   9.554  1.00  0.00    -0.009 C 
HETATM    8  C   UNL     1      24.584  64.286  10.781  1.00  0.00     0.043 C 
HETATM    9  C   UNL     1      26.247  66.100  10.811  1.00  0.00    -0.003 C 
HETATM   10  C   UNL     1      25.317  64.996   8.448  1.00  0.00     0.021 C 
HETATM   11  C   UNL     1      24.019  66.550   9.934  1.00  0.00    -0.009 C 
ENDROOT
BRANCH   6  12
HETATM   12  O   UNL     1      25.918  62.805   9.242  1.00  0.00    -0.389 OA
ATOM     13  HO  UNL     1      26.650  62.766   8.638  1.00  0.00     0.210 HD
ENDBRANCH   6  12
TORSDOF 2
ENDMDL
MODEL 5
REMARK VINA RESULT:      -4.3      2.852      3.933
REMARK  2 active torsions:
REMARK  status: ('A' for Active; 'I' for Inactive)
REMARK    1  A    between atoms: C_6  and  O_8 
REMARK    2  A    between atoms: C_6  and  C_12 
ROOT
HETATM    1  C   UNL     1      26.816  66.774  12.133  1.00  0.00     0.010 C 
HETATM    2  C   UNL     1      27.243  64.870  10.576  1.00  0.00     0.012 C 
HETATM    3  C   UNL     1      28.358  66.462   8.852  1.00  0.00     0.043 C 
HETATM    4  C   UNL     1      28.707  67.708  10.956  1.00  0.00    -0.003 C 
HETATM    5  C   UNL     1      28.940  65.557  12.240  1.00  0.00     0.012 C 
HETATM    6  C   UNL     1      29.432  65.842   9.771  1.00  0.00     0.062 C 
HETATM    7  C   UNL     1      26.690  66.296  10.673  1.00  0.00    -0.009 C 
HETATM    8  C   UNL     1      30.022  67.098  10.433  1.00  0.00     0.043 C 
HETATM    9  C   UNL     1      27.618  67.284   9.941  1.00  0.00    -0.003 C 
HETATM   10  C   UNL     1      28.759  64.923  10.834  1.00  0.00     0.021 C 
HETATM   11  C   UNL     1      28.334  66.957  12.247  1.00  0.00    -0.009 C 
ENDROOT
BRANCH   6  12
HETATM   12  O   UNL     1      30.361  65.027   9.041  1.00  0.00    -0.389 OA
ATOM     13  HO  UNL     1      29.951  64.594   8.301  1.00  0.00     0.210 HD
ENDBRANCH   6  12
TORSDOF 2
ENDMDL
MODEL 6
REMARK VINA RESULT:      -4.2      5.630      6.899
REMARK  2 active torsions:
REMARK  status: ('A' for Active; 'I' for Inactive)
REMARK    1  A    between atoms: C_6  and  O_8 
REMARK    2  A    between atoms: C_6  and  C_12 
ROOT
HETATM    1  C   UNL     1      26.770  65.344  10.548  1.00  0.00     0.010 C 
HETATM    2  C   UNL     1      25.712  64.049  12.401  1.00  0.00     0.012 C 
HETATM    3  C   UNL     1      28.039  63.277  13.260  1.00  0.00     0.043 C 
HETATM    4  C   UNL     1      28.626  65.374  12.093  1.00  0.00    -0.003 C 
HETATM    5  C   UNL     1      26.418  66.397  12.733  1.00  0.00     0.012 C 
HETATM    6  C   UNL     1      27.595  64.552  14.009  1.00  0.00     0.062 C 
HETATM    7  C   UNL     1      26.745  63.984  11.271  1.00  0.00    -0.009 C 
HETATM    8  C   UNL     1      28.714  65.532  13.623  1.00  0.00     0.043 C 
HETATM    9  C   UNL     1      28.171  63.914  11.851  1.00  0.00    -0.003 C 
HETATM   10  C   UNL     1      26.221  65.041  13.463  1.00  0.00     0.021 C 
HETATM   11  C   UNL     1      27.437  66.226  11.611  1.00  0.00    -0.009 C 
ENDROOT
BRANCH   6  12
HETATM   12  O   UNL     1      27.427  64.319  15.416  1.00  0.00    -0.389 OA
ATOM     13  HO  UNL     1      26.576  64.605  15.725  1.00  0.00     0.210 HD
ENDBRANCH   6  12
TORSDOF 2
ENDMDL
MODEL 7
REMARK VINA RESULT:      -4.2      4.846      6.371
REMARK  2 active torsions:
REMARK  status: ('A' for Active; 'I' for Inactive)
REMARK    1  A    between atoms: C_6  and  O_8 
REMARK    2  A    between atoms: C_6  and  C_12 
ROOT
HETATM    1  C   UNL     1      27.384  64.985  14.559  1.00  0.00     0.010 C 
HETATM    2  C   UNL     1      27.009  66.640  12.729  1.00  0.00     0.012 C 
HETATM    3  C   UNL     1      28.955  65.624  11.340  1.00  0.00     0.043 C 
HETATM    4  C   UNL     1      28.297  63.693  12.734  1.00  0.00    -0.003 C 
HETATM    5  C   UNL     1      25.892  64.432  12.695  1.00  0.00     0.012 C 
HETATM    6  C   UNL     1      27.616  64.982  10.922  1.00  0.00     0.062 C 
HETATM    7  C   UNL     1      28.073  65.997  13.623  1.00  0.00    -0.009 C 
HETATM    8  C   UNL     1      27.870  63.505  11.266  1.00  0.00     0.043 C 
HETATM    9  C   UNL     1      28.989  65.077  12.793  1.00  0.00    -0.003 C 
HETATM   10  C   UNL     1      26.454  65.557  11.785  1.00  0.00     0.021 C 
HETATM   11  C   UNL     1      27.015  63.876  13.566  1.00  0.00    -0.009 C 
ENDROOT
BRANCH   6  12
HETATM   12  O   UNL     1      27.293  65.256   9.549  1.00  0.00    -0.389 OA
ATOM     13  HO  UNL     1      28.071  65.337   9.009  1.00  0.00     0.210 HD
ENDBRANCH   6  12
TORSDOF 2
ENDMDL
MODEL 8
REMARK VINA RESULT:      -4.2      4.928      6.164
REMARK  2 active torsions:
REMARK  status: ('A' for Active; 'I' for Inactive)
REMARK    1  A    between atoms: C_6  and  O_8 
REMARK    2  A    between atoms: C_6  and  C_12 
ROOT
HETATM    1  C   UNL     1      25.949  66.639  11.537  1.00  0.00     0.010 C 
HETATM    2  C   UNL     1      24.418  64.764  10.930  1.00  0.00     0.012 C 
HETATM    3  C   UNL     1      23.798  65.926   8.691  1.00  0.00     0.043 C 
HETATM    4  C   UNL     1      26.027  66.894   9.137  1.00  0.00    -0.003 C 
HETATM    5  C   UNL     1      26.787  64.752  10.216  1.00  0.00     0.012 C 
HETATM    6  C   UNL     1      24.962  64.938   8.469  1.00  0.00     0.062 C 
HETATM    7  C   UNL     1      24.539  66.288  11.025  1.00  0.00    -0.009 C 
HETATM    8  C   UNL     1      26.069  65.882   7.975  1.00  0.00     0.043 C 
HETATM    9  C   UNL     1      24.555  66.915   9.617  1.00  0.00    -0.003 C 
HETATM   10  C   UNL     1      25.365  64.274   9.819  1.00  0.00     0.021 C 
HETATM   11  C   UNL     1      26.801  66.275  10.315  1.00  0.00    -0.009 C 
ENDROOT
BRANCH   6  12
HETATM   12  O   UNL     1      24.603  63.875   7.571  1.00  0.00    -0.389 OA
ATOM     13  HO  UNL     1      25.266  63.196   7.539  1.00  0.00     0.210 HD
ENDBRANCH   6  12
TORSDOF 2
ENDMDL
MODEL 9
REMARK VINA RESULT:      -4.2      4.599      6.148
REMARK  2 active torsions:
REMARK  status: ('A' for Active; 'I' for Inactive)
REMARK    1  A    between atoms: C_6  and  O_8 
REMARK    2  A    between atoms: C_6  and  C_12 
ROOT
HETATM    1  C   UNL     1      24.645  65.149  11.330  1.00  0.00     0.010 C 
HETATM    2  C   UNL     1      26.172  64.207  13.066  1.00  0.00     0.012 C 
HETATM    3  C   UNL     1      27.875  63.475  11.245  1.00  0.00     0.043 C 
HETATM    4  C   UNL     1      26.718  65.336  10.104  1.00  0.00    -0.003 C 
HETATM    5  C   UNL     1      26.416  66.544  12.291  1.00  0.00     0.012 C 
HETATM    6  C   UNL     1      28.250  64.869  11.790  1.00  0.00     0.062 C 
HETATM    7  C   UNL     1      25.487  63.920  11.725  1.00  0.00    -0.009 C 
HETATM    8  C   UNL     1      28.150  65.726  10.519  1.00  0.00     0.043 C 
HETATM    9  C   UNL     1      26.527  63.878  10.589  1.00  0.00    -0.003 C 
HETATM   10  C   UNL     1      27.204  65.328  12.849  1.00  0.00     0.021 C 
HETATM   11  C   UNL     1      25.748  66.154  10.976  1.00  0.00    -0.009 C 
ENDROOT
BRANCH   6  12
HETATM   12  O   UNL     1      29.530  64.866  12.441  1.00  0.00    -0.389 OA
ATOM     13  HO  UNL     1      30.128  64.241  12.049  1.00  0.00     0.210 HD
ENDBRANCH   6  12
TORSDOF 2
ENDMDL
