MODEL 1
REMARK VINA RESULT:     -10.7      0.000      0.000
REMARK  4 active torsions:
REMARK  status: ('A' for Active; 'I' for Inactive)
REMARK    1  A    between atoms: C_3  and  N_16 
REMARK    2  A    between atoms: C_6  and  O_20 
REMARK    3  A    between atoms: O_9  and  C_12 
REMARK    4  A    between atoms: C_11  and  O_13 
ROOT
HETATM    1  C   UNL     1      16.998   4.510  10.125  1.00  0.00     0.049 C 
HETATM    2  C   UNL     1      19.084   2.419  13.181  1.00  0.00     0.037 C 
HETATM    3  C   UNL     1      15.169   5.153  11.833  1.00  0.00     0.213 C 
HETATM    4  C   UNL     1      17.881   4.159  11.310  1.00  0.00    -0.063 C 
HETATM    5  C   UNL     1      18.765   3.006  10.826  1.00  0.00    -0.036 C 
HETATM    6  C   UNL     1      18.510   2.836   9.339  1.00  0.00     0.149 C 
HETATM    7  C   UNL     1      17.696   2.922  13.578  1.00  0.00     0.019 C 
HETATM    8  C   UNL     1      18.946   1.851  11.763  1.00  0.00     0.102 C 
HETATM    9  C   UNL     1      15.592   4.992  10.384  1.00  0.00     0.156 C 
HETATM   10  C   UNL     1      20.698  -0.756  15.642  1.00  0.00     0.081 C 
HETATM   11  C   UNL     1      17.084   3.355   9.129  1.00  0.00     0.048 C 
HETATM   12  C   UNL     1      17.279   4.110  12.699  1.00  0.00     0.018 C 
HETATM   13  N   UNL     1      21.066  -0.662  13.273  1.00  0.00    -0.360 N 
ATOM     14  HN  UNL     1      21.369  -1.220  12.475  1.00  0.00     0.165 HD
HETATM   15  C   UNL     1      19.429   1.138  13.884  1.00  0.00    -0.022 C 
HETATM   16  C   UNL     1      20.158   0.964  11.659  1.00  0.00     0.185 C 
HETATM   17  C   UNL     1      18.776   0.620  15.002  1.00  0.00     0.013 C 
HETATM   18  C   UNL     1      15.746   4.025  12.685  1.00  0.00     0.044 C 
HETATM   19  O   UNL     1      20.645   0.486  10.647  1.00  0.00    -0.290 OA
HETATM   20  C   UNL     1      21.432  -1.050  14.502  1.00  0.00     0.124 C 
HETATM   21  C   UNL     1      19.332  -0.462  15.676  1.00  0.00     0.038 C 
HETATM   22  C   UNL     1      20.319   0.429  13.046  1.00  0.00     0.086 C 
ENDROOT
BRANCH   3  23
HETATM   23  N   UNL     1      13.702   5.199  11.886  1.00  0.00    -0.073 N 
ATOM     24  HN3 UNL     1      13.318   6.014  11.409  1.00  0.00     0.274 HD
ATOM     25  HN2 UNL     1      13.267   4.481  11.307  1.00  0.00     0.274 HD
ATOM     26  HN1 UNL     1      13.413   5.143  12.863  1.00  0.00     0.274 HD
ENDBRANCH   3  23
BRANCH   9  27
HETATM   27  O   UNL     1      15.378   6.231   9.745  1.00  0.00    -0.393 OA
ATOM     28  HO  UNL     1      15.004   6.094   8.882  1.00  0.00     0.210 HD
ENDBRANCH   9  27
BRANCH   6  29
HETATM   29  O   UNL     1      18.575   1.466   8.969  1.00  0.00    -0.391 OA
ATOM     30  HO  UNL     1      19.341   1.297   8.434  1.00  0.00     0.210 HD
ENDBRANCH   6  29
BRANCH  10  31
HETATM   31  O   UNL     1      21.357  -0.651  16.830  1.00  0.00    -0.359 OA
ATOM     32  HO  UNL     1      22.307  -0.637  16.822  1.00  0.00     0.217 HD
ENDBRANCH  10  31
TORSDOF 4
ENDMDL
MODEL 2
REMARK VINA RESULT:      -9.5      2.805      7.893
REMARK  4 active torsions:
REMARK  status: ('A' for Active; 'I' for Inactive)
REMARK    1  A    between atoms: C_3  and  N_16 
REMARK    2  A    between atoms: C_6  and  O_20 
REMARK    3  A    between atoms: O_9  and  C_12 
REMARK    4  A    between atoms: C_11  and  O_13 
ROOT
HETATM    1  C   UNL     1      19.700   1.985  16.963  1.00  0.00     0.049 C 
HETATM    2  C   UNL     1      17.384   4.246  14.207  1.00  0.00     0.037 C 
HETATM    3  C   UNL     1      20.446   0.431  15.039  1.00  0.00     0.213 C 
HETATM    4  C   UNL     1      19.255   2.972  15.897  1.00  0.00    -0.063 C 
HETATM    5  C   UNL     1      18.047   3.697  16.499  1.00  0.00    -0.036 C 
HETATM    6  C   UNL     1      17.932   3.253  17.946  1.00  0.00     0.149 C 
HETATM    7  C   UNL     1      17.985   2.960  13.640  1.00  0.00     0.019 C 
HETATM    8  C   UNL     1      16.861   3.895  15.606  1.00  0.00     0.102 C 
HETATM    9  C   UNL     1      20.285   0.663  16.530  1.00  0.00     0.156 C 
HETATM   10  C   UNL     1      14.038   5.881  12.001  1.00  0.00     0.081 C 
HETATM   11  C   UNL     1      18.565   1.859  17.977  1.00  0.00     0.048 C 
HETATM   12  C   UNL     1      19.222   2.538  14.447  1.00  0.00     0.018 C 
HETATM   13  N   UNL     1      14.157   5.971  14.395  1.00  0.00    -0.360 N 
ATOM     14  HN  UNL     1      13.595   6.131  15.231  1.00  0.00     0.165 HD
HETATM   15  C   UNL     1      16.065   4.568  13.569  1.00  0.00    -0.022 C 
HETATM   16  C   UNL     1      15.884   5.011  15.867  1.00  0.00     0.185 C 
HETATM   17  C   UNL     1      15.575   4.014  12.387  1.00  0.00     0.013 C 
HETATM   18  C   UNL     1      19.257   1.012  14.277  1.00  0.00     0.044 C 
HETATM   19  O   UNL     1      15.393   5.334  16.936  1.00  0.00    -0.290 OA
HETATM   20  C   UNL     1      13.714   6.448  13.224  1.00  0.00     0.124 C 
HETATM   21  C   UNL     1      14.437   4.557  11.798  1.00  0.00     0.038 C 
HETATM   22  C   UNL     1      15.308   5.292  14.517  1.00  0.00     0.086 C 
ENDROOT
BRANCH   3  23
HETATM   23  N   UNL     1      20.605  -1.011  14.808  1.00  0.00    -0.073 N 
ATOM     24  HN3 UNL     1      21.552  -1.260  14.525  1.00  0.00     0.274 HD
ATOM     25  HN2 UNL     1      20.571  -1.552  15.672  1.00  0.00     0.274 HD
ATOM     26  HN1 UNL     1      19.902  -1.309  14.132  1.00  0.00     0.274 HD
ENDBRANCH   3  23
BRANCH   9  27
HETATM   27  O   UNL     1      21.551   0.475  17.123  1.00  0.00    -0.393 OA
ATOM     28  HO  UNL     1      22.083  -0.097  16.582  1.00  0.00     0.210 HD
ENDBRANCH   9  27
BRANCH   6  29
HETATM   29  O   UNL     1      16.569   3.164  18.339  1.00  0.00    -0.391 OA
ATOM     30  HO  UNL     1      15.994   3.331  17.603  1.00  0.00     0.210 HD
ENDBRANCH   6  29
BRANCH  10  31
HETATM   31  O   UNL     1      14.064   6.683  10.900  1.00  0.00    -0.359 OA
ATOM     32  HO  UNL     1      13.450   6.508  10.196  1.00  0.00     0.217 HD
ENDBRANCH  10  31
TORSDOF 4
ENDMDL
MODEL 3
REMARK VINA RESULT:      -8.9      1.898      6.564
REMARK  4 active torsions:
REMARK  status: ('A' for Active; 'I' for Inactive)
REMARK    1  A    between atoms: C_3  and  N_16 
REMARK    2  A    between atoms: C_6  and  O_20 
REMARK    3  A    between atoms: O_9  and  C_12 
REMARK    4  A    between atoms: C_11  and  O_13 
ROOT
HETATM    1  C   UNL     1      20.465   0.558  12.513  1.00  0.00     0.049 C 
HETATM    2  C   UNL     1      16.970   2.912  13.075  1.00  0.00     0.037 C 
HETATM    3  C   UNL     1      20.952   0.703  15.046  1.00  0.00     0.213 C 
HETATM    4  C   UNL     1      19.053   1.020  12.831  1.00  0.00    -0.063 C 
HETATM    5  C   UNL     1      18.612   1.835  11.612  1.00  0.00    -0.036 C 
HETATM    6  C   UNL     1      19.688   1.679  10.553  1.00  0.00     0.149 C 
HETATM    7  C   UNL     1      17.867   2.787  14.307  1.00  0.00     0.019 C 
HETATM    8  C   UNL     1      17.909   3.130  11.881  1.00  0.00     0.102 C 
HETATM    9  C   UNL     1      21.456   0.423  13.643  1.00  0.00     0.156 C 
HETATM   10  C   UNL     1      14.201   6.239  13.105  1.00  0.00     0.081 C 
HETATM   11  C   UNL     1      20.971   1.397  11.342  1.00  0.00     0.048 C 
HETATM   12  C   UNL     1      18.727   1.518  14.224  1.00  0.00     0.018 C 
HETATM   13  N   UNL     1      15.289   5.500  11.099  1.00  0.00    -0.360 N 
ATOM     14  HN  UNL     1      15.507   5.780  10.143  1.00  0.00     0.165 HD
HETATM   15  C   UNL     1      16.271   4.239  13.033  1.00  0.00    -0.022 C 
HETATM   16  C   UNL     1      16.981   3.725  10.855  1.00  0.00     0.185 C 
HETATM   17  C   UNL     1      16.142   5.127  14.100  1.00  0.00     0.013 C 
HETATM   18  C   UNL     1      19.978   1.879  15.039  1.00  0.00     0.044 C 
HETATM   19  O   UNL     1      17.175   3.842   9.656  1.00  0.00    -0.290 OA
HETATM   20  C   UNL     1      14.271   6.103  11.727  1.00  0.00     0.124 C 
HETATM   21  C   UNL     1      15.289   6.220  13.981  1.00  0.00     0.038 C 
HETATM   22  C   UNL     1      16.035   4.544  11.673  1.00  0.00     0.086 C 
ENDROOT
BRANCH   3  23
HETATM   23  N   UNL     1      22.110   0.944  15.917  1.00  0.00    -0.073 N 
ATOM     24  HN3 UNL     1      21.874   1.505  16.736  1.00  0.00     0.274 HD
ATOM     25  HN2 UNL     1      22.413   0.102  16.407  1.00  0.00     0.274 HD
ATOM     26  HN1 UNL     1      22.853   1.361  15.357  1.00  0.00     0.274 HD
ENDBRANCH   3  23
BRANCH   9  27
HETATM   27  O   UNL     1      22.012  -0.873  13.648  1.00  0.00    -0.393 OA
ATOM     28  HO  UNL     1      22.820  -0.885  13.148  1.00  0.00     0.210 HD
ENDBRANCH   9  27
BRANCH   6  29
HETATM   29  O   UNL     1      19.843   2.881   9.810  1.00  0.00    -0.391 OA
ATOM     30  HO  UNL     1      19.947   3.625  10.391  1.00  0.00     0.210 HD
ENDBRANCH   6  29
BRANCH  10  31
HETATM   31  O   UNL     1      12.971   6.308  13.689  1.00  0.00    -0.359 OA
ATOM     32  HO  UNL     1      12.404   5.548  13.644  1.00  0.00     0.217 HD
ENDBRANCH  10  31
TORSDOF 4
ENDMDL
MODEL 4
REMARK VINA RESULT:      -8.7      3.917      6.062
REMARK  4 active torsions:
REMARK  status: ('A' for Active; 'I' for Inactive)
REMARK    1  A    between atoms: C_3  and  N_16 
REMARK    2  A    between atoms: C_6  and  O_20 
REMARK    3  A    between atoms: O_9  and  C_12 
REMARK    4  A    between atoms: C_11  and  O_13 
ROOT
HETATM    1  C   UNL     1      16.391   4.481  17.986  1.00  0.00     0.049 C 
HETATM    2  C   UNL     1      18.888   2.762  15.006  1.00  0.00     0.037 C 
HETATM    3  C   UNL     1      16.981   2.537  19.581  1.00  0.00     0.213 C 
HETATM    4  C   UNL     1      17.589   4.063  17.150  1.00  0.00    -0.063 C 
HETATM    5  C   UNL     1      17.209   4.401  15.705  1.00  0.00    -0.036 C 
HETATM    6  C   UNL     1      15.897   5.162  15.750  1.00  0.00     0.149 C 
HETATM    7  C   UNL     1      18.671   1.892  16.244  1.00  0.00     0.019 C 
HETATM    8  C   UNL     1      17.522   3.371  14.664  1.00  0.00     0.102 C 
HETATM    9  C   UNL     1      16.053   3.682  19.220  1.00  0.00     0.156 C 
HETATM   10  C   UNL     1      20.244   0.674  11.465  1.00  0.00     0.081 C 
HETATM   11  C   UNL     1      15.213   4.681  17.034  1.00  0.00     0.048 C 
HETATM   12  C   UNL     1      18.292   2.757  17.455  1.00  0.00     0.018 C 
HETATM   13  N   UNL     1      18.708   2.513  11.355  1.00  0.00    -0.360 N 
ATOM     14  HN  UNL     1      18.039   2.977  10.741  1.00  0.00     0.165 HD
HETATM   15  C   UNL     1      19.060   1.929  13.769  1.00  0.00    -0.022 C 
HETATM   16  C   UNL     1      17.707   3.769  13.223  1.00  0.00     0.185 C 
HETATM   17  C   UNL     1      19.339   0.564  13.738  1.00  0.00     0.013 C 
HETATM   18  C   UNL     1      17.448   1.811  18.322  1.00  0.00     0.044 C 
HETATM   19  O   UNL     1      17.007   4.521  12.564  1.00  0.00    -0.290 OA
HETATM   20  C   UNL     1      19.654   1.740  10.804  1.00  0.00     0.124 C 
HETATM   21  C   UNL     1      19.682  -0.035  12.530  1.00  0.00     0.038 C 
HETATM   22  C   UNL     1      18.603   2.704  12.679  1.00  0.00     0.086 C 
ENDROOT
BRANCH   3  23
HETATM   23  N   UNL     1      16.276   1.643  20.510  1.00  0.00    -0.073 N 
ATOM     24  HN3 UNL     1      15.323   1.952  20.704  1.00  0.00     0.274 HD
ATOM     25  HN2 UNL     1      16.048   0.743  20.090  1.00  0.00     0.274 HD
ATOM     26  HN1 UNL     1      16.837   1.551  21.357  1.00  0.00     0.274 HD
ENDBRANCH   3  23
BRANCH   9  27
HETATM   27  O   UNL     1      15.979   4.532  20.343  1.00  0.00    -0.393 OA
ATOM     28  HO  UNL     1      15.119   4.473  20.742  1.00  0.00     0.210 HD
ENDBRANCH   9  27
BRANCH   6  29
HETATM   29  O   UNL     1      15.085   4.836  14.630  1.00  0.00    -0.391 OA
ATOM     30  HO  UNL     1      15.292   3.968  14.305  1.00  0.00     0.210 HD
ENDBRANCH   6  29
BRANCH  10  31
HETATM   31  O   UNL     1      21.517   0.324  11.127  1.00  0.00    -0.359 OA
ATOM     32  HO  UNL     1      21.701   0.099  10.222  1.00  0.00     0.217 HD
ENDBRANCH  10  31
TORSDOF 4
ENDMDL
MODEL 5
REMARK VINA RESULT:      -8.6      3.303      6.362
REMARK  4 active torsions:
REMARK  status: ('A' for Active; 'I' for Inactive)
REMARK    1  A    between atoms: C_3  and  N_16 
REMARK    2  A    between atoms: C_6  and  O_20 
REMARK    3  A    between atoms: O_9  and  C_12 
REMARK    4  A    between atoms: C_11  and  O_13 
ROOT
HETATM    1  C   UNL     1      16.516   5.021  16.937  1.00  0.00     0.049 C 
HETATM    2  C   UNL     1      18.111   3.859  13.171  1.00  0.00     0.037 C 
HETATM    3  C   UNL     1      17.921   3.182  18.083  1.00  0.00     0.213 C 
HETATM    4  C   UNL     1      17.414   4.850  15.723  1.00  0.00    -0.063 C 
HETATM    5  C   UNL     1      16.519   5.145  14.515  1.00  0.00    -0.036 C 
HETATM    6  C   UNL     1      15.192   5.651  15.051  1.00  0.00     0.149 C 
HETATM    7  C   UNL     1      18.470   2.936  14.335  1.00  0.00     0.019 C 
HETATM    8  C   UNL     1      16.628   4.215  13.347  1.00  0.00     0.102 C 
HETATM    9  C   UNL     1      16.750   4.145  18.142  1.00  0.00     0.156 C 
HETATM   10  C   UNL     1      18.519   2.138   9.221  1.00  0.00     0.081 C 
HETATM   11  C   UNL     1      15.070   5.023  16.443  1.00  0.00     0.048 C 
HETATM   12  C   UNL     1      18.384   3.689  15.671  1.00  0.00     0.018 C 
HETATM   13  N   UNL     1      16.755   3.666   9.773  1.00  0.00    -0.360 N 
ATOM     14  HN  UNL     1      15.850   4.013   9.453  1.00  0.00     0.165 HD
HETATM   15  C   UNL     1      17.990   3.101  11.882  1.00  0.00    -0.022 C 
HETATM   16  C   UNL     1      16.249   4.673  11.964  1.00  0.00     0.185 C 
HETATM   17  C   UNL     1      18.464   1.811  11.647  1.00  0.00     0.013 C 
HETATM   18  C   UNL     1      18.050   2.584  16.684  1.00  0.00     0.044 C 
HETATM   19  O   UNL     1      15.254   5.299  11.635  1.00  0.00    -0.290 OA
HETATM   20  C   UNL     1      17.573   3.093   8.881  1.00  0.00     0.124 C 
HETATM   21  C   UNL     1      18.474   1.313  10.348  1.00  0.00     0.038 C 
HETATM   22  C   UNL     1      17.072   3.804  11.069  1.00  0.00     0.086 C 
ENDROOT
BRANCH   3  23
HETATM   23  N   UNL     1      17.729   2.153  19.114  1.00  0.00    -0.073 N 
ATOM     24  HN3 UNL     1      16.824   1.689  19.040  1.00  0.00     0.274 HD
ATOM     25  HN2 UNL     1      18.318   1.334  18.965  1.00  0.00     0.274 HD
ATOM     26  HN1 UNL     1      17.876   2.581  20.028  1.00  0.00     0.274 HD
ENDBRANCH   3  23
BRANCH   9  27
HETATM   27  O   UNL     1      16.920   4.941  19.295  1.00  0.00    -0.393 OA
ATOM     28  HO  UNL     1      17.193   5.817  19.050  1.00  0.00     0.210 HD
ENDBRANCH   9  27
BRANCH   6  29
HETATM   29  O   UNL     1      14.116   5.208  14.236  1.00  0.00    -0.391 OA
ATOM     30  HO  UNL     1      13.900   4.303  14.425  1.00  0.00     0.210 HD
ENDBRANCH   6  29
BRANCH  10  31
HETATM   31  O   UNL     1      19.643   2.036   8.457  1.00  0.00    -0.359 OA
ATOM     32  HO  UNL     1      20.466   1.833   8.886  1.00  0.00     0.217 HD
ENDBRANCH  10  31
TORSDOF 4
ENDMDL
MODEL 6
REMARK VINA RESULT:      -8.5      3.053      6.196
REMARK  4 active torsions:
REMARK  status: ('A' for Active; 'I' for Inactive)
REMARK    1  A    between atoms: C_3  and  N_16 
REMARK    2  A    between atoms: C_6  and  O_20 
REMARK    3  A    between atoms: O_9  and  C_12 
REMARK    4  A    between atoms: C_11  and  O_13 
ROOT
HETATM    1  C   UNL     1      20.763   0.692  11.862  1.00  0.00     0.049 C 
HETATM    2  C   UNL     1      18.356   1.880  15.159  1.00  0.00     0.037 C 
HETATM    3  C   UNL     1      22.587  -0.115  13.504  1.00  0.00     0.213 C 
HETATM    4  C   UNL     1      19.805   0.698  13.042  1.00  0.00    -0.063 C 
HETATM    5  C   UNL     1      18.820   1.835  12.755  1.00  0.00    -0.036 C 
HETATM    6  C   UNL     1      19.109   2.337  11.352  1.00  0.00     0.149 C 
HETATM    7  C   UNL     1      19.774   1.442  15.522  1.00  0.00     0.019 C 
HETATM    8  C   UNL     1      18.483   2.743  13.897  1.00  0.00     0.102 C 
HETATM    9  C   UNL     1      22.202   0.305  12.098  1.00  0.00     0.156 C 
HETATM   10  C   UNL     1      16.323   4.294  18.121  1.00  0.00     0.081 C 
HETATM   11  C   UNL     1      20.589   2.016  11.122  1.00  0.00     0.048 C 
HETATM   12  C   UNL     1      20.348   0.512  14.444  1.00  0.00     0.018 C 
HETATM   13  N   UNL     1      16.052   4.664  15.767  1.00  0.00    -0.360 N 
ATOM     14  HN  UNL     1      15.720   5.345  15.084  1.00  0.00     0.165 HD
HETATM   15  C   UNL     1      17.850   2.944  16.088  1.00  0.00    -0.022 C 
HETATM   16  C   UNL     1      17.187   3.511  13.908  1.00  0.00     0.185 C 
HETATM   17  C   UNL     1      18.403   3.276  17.324  1.00  0.00     0.013 C 
HETATM   18  C   UNL     1      21.863   0.747  14.536  1.00  0.00     0.044 C 
HETATM   19  O   UNL     1      16.688   4.141  12.990  1.00  0.00    -0.290 OA
HETATM   20  C   UNL     1      15.603   4.747  17.026  1.00  0.00     0.124 C 
HETATM   21  C   UNL     1      17.710   4.134  18.173  1.00  0.00     0.038 C 
HETATM   22  C   UNL     1      16.920   3.723  15.363  1.00  0.00     0.086 C 
ENDROOT
BRANCH   3  23
HETATM   23  N   UNL     1      24.048  -0.027  13.632  1.00  0.00    -0.073 N 
ATOM     24  HN3 UNL     1      24.493   0.336  12.789  1.00  0.00     0.274 HD
ATOM     25  HN2 UNL     1      24.341   0.709  14.273  1.00  0.00     0.274 HD
ATOM     26  HN1 UNL     1      24.404  -0.945  13.899  1.00  0.00     0.274 HD
ENDBRANCH   3  23
BRANCH   9  27
HETATM   27  O   UNL     1      22.571  -0.745  11.231  1.00  0.00    -0.393 OA
ATOM     28  HO  UNL     1      22.066  -0.699  10.428  1.00  0.00     0.210 HD
ENDBRANCH   9  27
BRANCH   6  29
HETATM   29  O   UNL     1      18.911   3.742  11.268  1.00  0.00    -0.391 OA
ATOM     30  HO  UNL     1      18.130   4.001  11.743  1.00  0.00     0.210 HD
ENDBRANCH   6  29
BRANCH  10  31
HETATM   31  O   UNL     1      15.636   3.878  19.223  1.00  0.00    -0.359 OA
ATOM     32  HO  UNL     1      15.704   2.966  19.482  1.00  0.00     0.217 HD
ENDBRANCH  10  31
TORSDOF 4
ENDMDL
MODEL 7
REMARK VINA RESULT:      -8.3      2.710      6.390
REMARK  4 active torsions:
REMARK  status: ('A' for Active; 'I' for Inactive)
REMARK    1  A    between atoms: C_3  and  N_16 
REMARK    2  A    between atoms: C_6  and  O_20 
REMARK    3  A    between atoms: O_9  and  C_12 
REMARK    4  A    between atoms: C_11  and  O_13 
ROOT
HETATM    1  C   UNL     1      19.605   1.120  17.395  1.00  0.00     0.049 C 
HETATM    2  C   UNL     1      18.224   1.840  13.440  1.00  0.00     0.037 C 
HETATM    3  C   UNL     1      18.118   3.051  18.251  1.00  0.00     0.213 C 
HETATM    4  C   UNL     1      18.778   1.144  16.120  1.00  0.00    -0.063 C 
HETATM    5  C   UNL     1      19.746   0.733  15.006  1.00  0.00    -0.036 C 
HETATM    6  C   UNL     1      21.043   0.309  15.670  1.00  0.00     0.149 C 
HETATM    7  C   UNL     1      17.788   2.879  14.473  1.00  0.00     0.019 C 
HETATM    8  C   UNL     1      19.696   1.529  13.739  1.00  0.00     0.102 C 
HETATM    9  C   UNL     1      19.292   2.118  18.482  1.00  0.00     0.156 C 
HETATM   10  C   UNL     1      18.032   3.114   9.307  1.00  0.00     0.081 C 
HETATM   11  C   UNL     1      21.077   1.087  16.989  1.00  0.00     0.048 C 
HETATM   12  C   UNL     1      17.803   2.277  15.886  1.00  0.00     0.018 C 
HETATM   13  N   UNL     1      19.775   1.683  10.125  1.00  0.00    -0.360 N 
ATOM     14  HN  UNL     1      20.700   1.317   9.897  1.00  0.00     0.165 HD
HETATM   15  C   UNL     1      18.413   2.455  12.084  1.00  0.00    -0.022 C 
HETATM   16  C   UNL     1      20.161   0.928  12.438  1.00  0.00     0.185 C 
HETATM   17  C   UNL     1      17.942   3.704  11.682  1.00  0.00     0.013 C 
HETATM   18  C   UNL     1      18.066   3.492  16.789  1.00  0.00     0.044 C 
HETATM   19  O   UNL     1      21.179   0.286  12.238  1.00  0.00    -0.290 OA
HETATM   20  C   UNL     1      19.006   2.142   9.129  1.00  0.00     0.124 C 
HETATM   21  C   UNL     1      18.004   4.057  10.338  1.00  0.00     0.038 C 
HETATM   22  C   UNL     1      19.384   1.682  11.408  1.00  0.00     0.086 C 
ENDROOT
BRANCH   3  23
HETATM   23  N   UNL     1      18.240   4.189  19.172  1.00  0.00    -0.073 N 
ATOM     24  HN3 UNL     1      17.725   4.046  20.041  1.00  0.00     0.274 HD
ATOM     25  HN2 UNL     1      19.173   4.269  19.574  1.00  0.00     0.274 HD
ATOM     26  HN1 UNL     1      17.951   5.034  18.680  1.00  0.00     0.274 HD
ENDBRANCH   3  23
BRANCH   9  27
HETATM   27  O   UNL     1      19.061   1.450  19.703  1.00  0.00    -0.393 OA
ATOM     28  HO  UNL     1      18.294   1.809  20.133  1.00  0.00     0.210 HD
ENDBRANCH   9  27
BRANCH   6  29
HETATM   29  O   UNL     1      22.161   0.677  14.874  1.00  0.00    -0.391 OA
ATOM     30  HO  UNL     1      21.883   1.162  14.106  1.00  0.00     0.210 HD
ENDBRANCH   6  29
BRANCH  10  31
HETATM   31  O   UNL     1      16.954   3.115   8.473  1.00  0.00    -0.359 OA
ATOM     32  HO  UNL     1      16.637   2.283   8.142  1.00  0.00     0.217 HD
ENDBRANCH  10  31
TORSDOF 4
ENDMDL
MODEL 8
REMARK VINA RESULT:      -8.1      3.213      6.596
REMARK  4 active torsions:
REMARK  status: ('A' for Active; 'I' for Inactive)
REMARK    1  A    between atoms: C_3  and  N_16 
REMARK    2  A    between atoms: C_6  and  O_20 
REMARK    3  A    between atoms: O_9  and  C_12 
REMARK    4  A    between atoms: C_11  and  O_13 
ROOT
HETATM    1  C   UNL     1      17.428   4.170  17.561  1.00  0.00     0.049 C 
HETATM    2  C   UNL     1      18.618   3.429  13.547  1.00  0.00     0.037 C 
HETATM    3  C   UNL     1      18.850   2.158  18.338  1.00  0.00     0.213 C 
HETATM    4  C   UNL     1      18.203   4.121  16.254  1.00  0.00    -0.063 C 
HETATM    5  C   UNL     1      17.215   4.592  15.183  1.00  0.00    -0.036 C 
HETATM    6  C   UNL     1      15.967   5.072  15.901  1.00  0.00     0.149 C 
HETATM    7  C   UNL     1      19.041   2.358  14.552  1.00  0.00     0.019 C 
HETATM    8  C   UNL     1      17.176   3.809  13.907  1.00  0.00     0.102 C 
HETATM    9  C   UNL     1      17.733   3.145  18.625  1.00  0.00     0.156 C 
HETATM   10  C   UNL     1      18.585   2.196   9.398  1.00  0.00     0.081 C 
HETATM   11  C   UNL     1      15.946   4.281  17.213  1.00  0.00     0.048 C 
HETATM   12  C   UNL     1      19.111   2.943  15.971  1.00  0.00     0.018 C 
HETATM   13  N   UNL     1      16.949   3.702  10.297  1.00  0.00    -0.360 N 
ATOM     14  HN  UNL     1      16.035   4.116  10.109  1.00  0.00     0.165 HD
HETATM   15  C   UNL     1      18.346   2.841  12.194  1.00  0.00    -0.022 C 
HETATM   16  C   UNL     1      16.691   4.448  12.631  1.00  0.00     0.185 C 
HETATM   17  C   UNL     1      18.738   1.575  11.762  1.00  0.00     0.013 C 
HETATM   18  C   UNL     1      18.822   1.733  16.872  1.00  0.00     0.044 C 
HETATM   19  O   UNL     1      15.699   5.142  12.478  1.00  0.00    -0.290 OA
HETATM   20  C   UNL     1      17.656   3.217   9.268  1.00  0.00     0.124 C 
HETATM   21  C   UNL     1      18.606   1.241  10.418  1.00  0.00     0.038 C 
HETATM   22  C   UNL     1      17.389   3.668  11.564  1.00  0.00     0.086 C 
ENDROOT
BRANCH   3  23
HETATM   23  N   UNL     1      18.707   1.017  19.252  1.00  0.00    -0.073 N 
ATOM     24  HN3 UNL     1      17.830   0.514  19.116  1.00  0.00     0.274 HD
ATOM     25  HN2 UNL     1      19.343   0.252  19.026  1.00  0.00     0.274 HD
ATOM     26  HN1 UNL     1      18.822   1.353  20.208  1.00  0.00     0.274 HD
ENDBRANCH   3  23
BRANCH   9  27
HETATM   27  O   UNL     1      18.044   3.786  19.842  1.00  0.00    -0.393 OA
ATOM     28  HO  UNL     1      18.278   3.143  20.501  1.00  0.00     0.210 HD
ENDBRANCH   9  27
BRANCH   6  29
HETATM   29  O   UNL     1      14.802   4.769  15.146  1.00  0.00    -0.391 OA
ATOM     30  HO  UNL     1      14.628   3.835  15.155  1.00  0.00     0.210 HD
ENDBRANCH   6  29
BRANCH  10  31
HETATM   31  O   UNL     1      19.629   2.152   8.523  1.00  0.00    -0.359 OA
ATOM     32  HO  UNL     1      20.437   2.591   8.758  1.00  0.00     0.217 HD
ENDBRANCH  10  31
TORSDOF 4
ENDMDL
MODEL 9
REMARK VINA RESULT:      -8.0      2.241      2.877
REMARK  4 active torsions:
REMARK  status: ('A' for Active; 'I' for Inactive)
REMARK    1  A    between atoms: C_3  and  N_16 
REMARK    2  A    between atoms: C_6  and  O_20 
REMARK    3  A    between atoms: O_9  and  C_12 
REMARK    4  A    between atoms: C_11  and  O_13 
ROOT
HETATM    1  C   UNL     1      16.338   5.207  13.799  1.00  0.00     0.049 C 
HETATM    2  C   UNL     1      19.436   2.385  14.513  1.00  0.00     0.037 C 
HETATM    3  C   UNL     1      15.597   4.995  16.265  1.00  0.00     0.213 C 
HETATM    4  C   UNL     1      17.643   4.547  14.210  1.00  0.00    -0.063 C 
HETATM    5  C   UNL     1      18.092   3.746  12.984  1.00  0.00    -0.036 C 
HETATM    6  C   UNL     1      17.151   4.098  11.847  1.00  0.00     0.149 C 
HETATM    7  C   UNL     1      18.449   2.563  15.666  1.00  0.00     0.019 C 
HETATM    8  C   UNL     1      18.596   2.357  13.229  1.00  0.00     0.102 C 
HETATM    9  C   UNL     1      15.268   5.413  14.844  1.00  0.00     0.156 C 
HETATM   10  C   UNL     1      21.745  -1.275  14.571  1.00  0.00     0.081 C 
HETATM   11  C   UNL     1      15.844   4.506  12.536  1.00  0.00     0.048 C 
HETATM   12  C   UNL     1      17.768   3.938  15.590  1.00  0.00     0.018 C 
HETATM   13  N   UNL     1      20.956  -0.294  12.530  1.00  0.00    -0.360 N 
ATOM     14  HN  UNL     1      20.797  -0.492  11.541  1.00  0.00     0.165 HD
HETATM   15  C   UNL     1      19.961   0.982  14.447  1.00  0.00    -0.022 C 
HETATM   16  C   UNL     1      19.534   1.699  12.253  1.00  0.00     0.185 C 
HETATM   17  C   UNL     1      19.874   0.030  15.462  1.00  0.00     0.013 C 
HETATM   18  C   UNL     1      16.409   3.702  16.267  1.00  0.00     0.044 C 
HETATM   19  O   UNL     1      19.443   1.672  11.036  1.00  0.00    -0.290 OA
HETATM   20  C   UNL     1      21.825  -1.059  13.204  1.00  0.00     0.124 C 
HETATM   21  C   UNL     1      20.589  -1.159  15.347  1.00  0.00     0.038 C 
HETATM   22  C   UNL     1      20.286   0.720  13.096  1.00  0.00     0.086 C 
ENDROOT
BRANCH   3  23
HETATM   23  N   UNL     1      14.339   4.864  17.013  1.00  0.00    -0.073 N 
ATOM     24  HN3 UNL     1      14.417   5.202  17.972  1.00  0.00     0.274 HD
ATOM     25  HN2 UNL     1      13.624   5.517  16.693  1.00  0.00     0.274 HD
ATOM     26  HN1 UNL     1      14.034   3.892  16.963  1.00  0.00     0.274 HD
ENDBRANCH   3  23
BRANCH   9  27
HETATM   27  O   UNL     1      14.883   6.769  14.884  1.00  0.00    -0.393 OA
ATOM     28  HO  UNL     1      15.404   7.275  14.271  1.00  0.00     0.210 HD
ENDBRANCH   9  27
BRANCH   6  29
HETATM   29  O   UNL     1      16.916   2.969  11.017  1.00  0.00    -0.391 OA
ATOM     30  HO  UNL     1      16.488   3.227  10.209  1.00  0.00     0.210 HD
ENDBRANCH   6  29
BRANCH  10  31
HETATM   31  O   UNL     1      22.894  -1.538  15.256  1.00  0.00    -0.359 OA
ATOM     32  HO  UNL     1      22.855  -1.592  16.204  1.00  0.00     0.217 HD
ENDBRANCH  10  31
TORSDOF 4
ENDMDL
