MODEL 1
REMARK VINA RESULT:     -10.1      0.000      0.000
REMARK  2 active torsions:
REMARK  status: ('A' for Active; 'I' for Inactive)
REMARK    1  A    between atoms: C_4  and  N_10 
REMARK    2  A    between atoms: O_5  and  C_18 
ROOT
HETATM    1  C   UNL     1      17.787   1.975  16.612  1.00  0.00     0.152 C 
HETATM    2  N   UNL     1      18.960   1.075  16.380  1.00  0.00    -0.401 N 
HETATM    3  C   UNL     1      18.355   1.007  13.947  1.00  0.00     0.040 C 
HETATM    4  C   UNL     1      21.077   0.167  16.891  1.00  0.00     0.229 C 
HETATM    5  C   UNL     1      17.208   2.921   8.542  1.00  0.00     0.001 C 
HETATM    6  C   UNL     1      16.770   5.042  14.381  1.00  0.00     0.011 C 
HETATM    7  C   UNL     1      18.567   2.409   8.570  1.00  0.00    -0.003 C 
HETATM    8  C   UNL     1      17.790   2.963  15.462  1.00  0.00    -0.058 C 
HETATM    9  C   UNL     1      18.794   0.221  15.224  1.00  0.00     0.094 C 
HETATM   10  C   UNL     1      19.805   0.634  13.567  1.00  0.00     0.020 C 
HETATM   11  C   UNL     1      16.571   4.018  13.235  1.00  0.00     0.013 C 
HETATM   12  C   UNL     1      21.438  -0.079  15.424  1.00  0.00     0.156 C 
HETATM   13  C   UNL     1      18.331   2.544  14.123  1.00  0.00    -0.051 C 
HETATM   14  C   UNL     1      20.256   1.456  16.959  1.00  0.00     0.153 C 
HETATM   15  C   UNL     1      20.089  -0.389  14.678  1.00  0.00     0.040 C 
HETATM   16  N   UNL     1      17.973   2.947  11.637  1.00  0.00    -0.274 NA
HETATM   17  C   UNL     1      17.193   4.326  15.650  1.00  0.00     0.036 C 
HETATM   18  C   UNL     1      17.101   3.887  10.907  1.00  0.00    -0.011 C 
HETATM   19  C   UNL     1      19.347   2.890  11.047  1.00  0.00     0.123 C 
HETATM   20  C   UNL     1      16.507   3.503   9.603  1.00  0.00     0.019 C 
HETATM   21  C   UNL     1      19.429   2.359   9.626  1.00  0.00    -0.012 C 
HETATM   22  C   UNL     1      18.031   3.539  13.009  1.00  0.00     0.097 C 
HETATM   23  C   UNL     1      16.396   4.784  11.910  1.00  0.00     0.057 C 
ENDROOT
BRANCH   4  24
HETATM   24  N   UNL     1      22.207   0.159  17.811  1.00  0.00    -0.071 N 
ATOM     25  HN3 UNL     1      22.868  -0.574  17.552  1.00  0.00     0.274 HD
ATOM     26  HN2 UNL     1      22.789   0.983  17.662  1.00  0.00     0.274 HD
ATOM     27  HN1 UNL     1      21.958   0.078  18.797  1.00  0.00     0.274 HD
ENDBRANCH   4  24
BRANCH  12  28
HETATM   28  O   UNL     1      22.183  -1.302  15.351  1.00  0.00    -0.393 OA
ATOM     29  HO  UNL     1      22.039  -1.783  16.157  1.00  0.00     0.210 HD
ENDBRANCH  12  28
TORSDOF 2
ENDMDL
MODEL 2
REMARK VINA RESULT:      -9.8      1.046      1.249
REMARK  2 active torsions:
REMARK  status: ('A' for Active; 'I' for Inactive)
REMARK    1  A    between atoms: C_4  and  N_10 
REMARK    2  A    between atoms: O_5  and  C_18 
ROOT
HETATM    1  C   UNL     1      18.480   1.033  16.671  1.00  0.00     0.152 C 
HETATM    2  N   UNL     1      19.421   0.102  15.974  1.00  0.00    -0.401 N 
HETATM    3  C   UNL     1      18.298   0.679  13.806  1.00  0.00     0.040 C 
HETATM    4  C   UNL     1      21.432  -1.110  15.745  1.00  0.00     0.229 C 
HETATM    5  C   UNL     1      16.313   3.938   9.376  1.00  0.00     0.001 C 
HETATM    6  C   UNL     1      17.488   4.632  15.451  1.00  0.00     0.011 C 
HETATM    7  C   UNL     1      17.549   3.300   8.959  1.00  0.00    -0.003 C 
HETATM    8  C   UNL     1      18.385   2.262  15.788  1.00  0.00    -0.058 C 
HETATM    9  C   UNL     1      18.878  -0.429  14.743  1.00  0.00     0.094 C 
HETATM   10  C   UNL     1      19.555   0.265  13.011  1.00  0.00     0.020 C 
HETATM   11  C   UNL     1      16.888   3.937  14.203  1.00  0.00     0.013 C 
HETATM   12  C   UNL     1      21.424  -1.033  14.216  1.00  0.00     0.156 C 
HETATM   13  C   UNL     1      18.551   2.124  14.300  1.00  0.00    -0.051 C 
HETATM   14  C   UNL     1      20.855   0.201  16.281  1.00  0.00     0.153 C 
HETATM   15  C   UNL     1      19.913  -1.018  13.779  1.00  0.00     0.040 C 
HETATM   16  N   UNL     1      17.728   3.144  12.121  1.00  0.00    -0.274 NA
HETATM   17  C   UNL     1      18.061   3.594  16.399  1.00  0.00     0.036 C 
HETATM   18  C   UNL     1      16.873   4.315  11.841  1.00  0.00    -0.011 C 
HETATM   19  C   UNL     1      18.915   3.093  11.211  1.00  0.00     0.123 C 
HETATM   20  C   UNL     1      15.958   4.316  10.674  1.00  0.00     0.019 C 
HETATM   21  C   UNL     1      18.602   2.912   9.735  1.00  0.00    -0.012 C 
HETATM   22  C   UNL     1      18.173   3.383  13.528  1.00  0.00     0.097 C 
HETATM   23  C   UNL     1      16.550   5.012  13.152  1.00  0.00     0.057 C 
ENDROOT
BRANCH   4  24
HETATM   24  N   UNL     1      22.720  -1.451  16.335  1.00  0.00    -0.071 N 
ATOM     25  HN3 UNL     1      22.603  -1.704  17.316  1.00  0.00     0.274 HD
ATOM     26  HN2 UNL     1      23.055  -2.340  15.962  1.00  0.00     0.274 HD
ATOM     27  HN1 UNL     1      23.440  -0.736  16.238  1.00  0.00     0.274 HD
ENDBRANCH   4  24
BRANCH  12  28
HETATM   28  O   UNL     1      21.937  -2.272  13.707  1.00  0.00    -0.393 OA
ATOM     29  HO  UNL     1      22.346  -2.097  12.868  1.00  0.00     0.210 HD
ENDBRANCH  12  28
TORSDOF 2
ENDMDL
MODEL 3
REMARK VINA RESULT:      -9.8      1.845      2.577
REMARK  2 active torsions:
REMARK  status: ('A' for Active; 'I' for Inactive)
REMARK    1  A    between atoms: C_4  and  N_10 
REMARK    2  A    between atoms: O_5  and  C_18 
ROOT
HETATM    1  C   UNL     1      19.784   0.846  15.858  1.00  0.00     0.152 C 
HETATM    2  N   UNL     1      20.615   0.371  14.709  1.00  0.00    -0.401 N 
HETATM    3  C   UNL     1      18.798   1.127  13.154  1.00  0.00     0.040 C 
HETATM    4  C   UNL     1      22.640  -0.205  13.645  1.00  0.00     0.229 C 
HETATM    5  C   UNL     1      15.005   4.705  10.508  1.00  0.00     0.001 C 
HETATM    6  C   UNL     1      17.844   4.257  16.032  1.00  0.00     0.011 C 
HETATM    7  C   UNL     1      16.147   4.516   9.631  1.00  0.00    -0.003 C 
HETATM    8  C   UNL     1      19.206   2.180  15.427  1.00  0.00    -0.058 C 
HETATM    9  C   UNL     1      19.824   0.017  13.551  1.00  0.00     0.094 C 
HETATM   10  C   UNL     1      19.803   1.240  11.987  1.00  0.00     0.020 C 
HETATM   11  C   UNL     1      17.024   3.739  14.824  1.00  0.00     0.013 C 
HETATM   12  C   UNL     1      22.150   0.217  12.258  1.00  0.00     0.156 C 
HETATM   13  C   UNL     1      18.930   2.435  13.971  1.00  0.00    -0.051 C 
HETATM   14  C   UNL     1      22.032   0.756  14.668  1.00  0.00     0.153 C 
HETATM   15  C   UNL     1      20.600  -0.051  12.232  1.00  0.00     0.040 C 
HETATM   16  N   UNL     1      17.310   3.687  12.461  1.00  0.00    -0.274 NA
HETATM   17  C   UNL     1      18.854   3.208  16.461  1.00  0.00     0.036 C 
HETATM   18  C   UNL     1      16.218   4.634  12.757  1.00  0.00    -0.011 C 
HETATM   19  C   UNL     1      18.151   4.149  11.313  1.00  0.00     0.123 C 
HETATM   20  C   UNL     1      15.004   4.672  11.906  1.00  0.00     0.019 C 
HETATM   21  C   UNL     1      17.438   4.240   9.974  1.00  0.00    -0.012 C 
HETATM   22  C   UNL     1      18.116   3.699  13.720  1.00  0.00     0.097 C 
HETATM   23  C   UNL     1      16.194   4.905  14.252  1.00  0.00     0.057 C 
ENDROOT
BRANCH   4  24
HETATM   24  N   UNL     1      24.087  -0.335  13.771  1.00  0.00    -0.071 N 
ATOM     25  HN3 UNL     1      24.348  -1.320  13.832  1.00  0.00     0.274 HD
ATOM     26  HN2 UNL     1      24.541  -0.085  12.894  1.00  0.00     0.274 HD
ATOM     27  HN1 UNL     1      24.499   0.188  14.543  1.00  0.00     0.274 HD
ENDBRANCH   4  24
BRANCH  12  28
HETATM   28  O   UNL     1      22.694  -0.699  11.298  1.00  0.00    -0.393 OA
ATOM     29  HO  UNL     1      22.362  -1.567  11.499  1.00  0.00     0.210 HD
ENDBRANCH  12  28
TORSDOF 2
ENDMDL
MODEL 4
REMARK VINA RESULT:      -9.7      2.491      4.269
REMARK  2 active torsions:
REMARK  status: ('A' for Active; 'I' for Inactive)
REMARK    1  A    between atoms: C_4  and  N_10 
REMARK    2  A    between atoms: O_5  and  C_18 
ROOT
HETATM    1  C   UNL     1      19.974   2.167  15.916  1.00  0.00     0.152 C 
HETATM    2  N   UNL     1      18.890   2.619  16.842  1.00  0.00    -0.401 N 
HETATM    3  C   UNL     1      18.011   4.088  15.008  1.00  0.00     0.040 C 
HETATM    4  C   UNL     1      17.449   2.397  18.697  1.00  0.00     0.229 C 
HETATM    5  C   UNL     1      15.866   5.627   9.791  1.00  0.00     0.001 C 
HETATM    6  C   UNL     1      19.501   1.155  12.150  1.00  0.00     0.011 C 
HETATM    7  C   UNL     1      14.770   5.577  10.742  1.00  0.00    -0.003 C 
HETATM    8  C   UNL     1      19.305   1.948  14.573  1.00  0.00    -0.058 C 
HETATM    9  C   UNL     1      18.385   3.935  16.518  1.00  0.00     0.094 C 
HETATM   10  C   UNL     1      16.607   4.100  15.651  1.00  0.00     0.020 C 
HETATM   11  C   UNL     1      19.032   2.614  11.919  1.00  0.00     0.013 C 
HETATM   12  C   UNL     1      16.324   3.208  18.049  1.00  0.00     0.156 C 
HETATM   13  C   UNL     1      18.107   2.774  14.195  1.00  0.00    -0.051 C 
HETATM   14  C   UNL     1      18.144   1.599  17.593  1.00  0.00     0.153 C 
HETATM   15  C   UNL     1      17.018   4.272  17.122  1.00  0.00     0.040 C 
HETATM   16  N   UNL     1      16.988   3.810  12.159  1.00  0.00    -0.274 NA
HETATM   17  C   UNL     1      19.883   0.957  13.606  1.00  0.00     0.036 C 
HETATM   18  C   UNL     1      17.278   3.707  10.715  1.00  0.00    -0.011 C 
HETATM   19  C   UNL     1      15.523   3.699  12.440  1.00  0.00     0.123 C 
HETATM   20  C   UNL     1      17.036   4.861   9.816  1.00  0.00     0.019 C 
HETATM   21  C   UNL     1      14.658   4.807  11.863  1.00  0.00    -0.012 C 
HETATM   22  C   UNL     1      17.708   2.631  12.731  1.00  0.00     0.097 C 
HETATM   23  C   UNL     1      18.414   2.719  10.511  1.00  0.00     0.057 C 
ENDROOT
BRANCH   4  24
HETATM   24  N   UNL     1      17.039   1.573  19.827  1.00  0.00    -0.071 N 
ATOM     25  HN3 UNL     1      17.138   0.584  19.597  1.00  0.00     0.274 HD
ATOM     26  HN2 UNL     1      17.719   1.647  20.583  1.00  0.00     0.274 HD
ATOM     27  HN1 UNL     1      16.100   1.761  20.178  1.00  0.00     0.274 HD
ENDBRANCH   4  24
BRANCH  12  28
HETATM   28  O   UNL     1      15.687   3.981  19.076  1.00  0.00    -0.393 OA
ATOM     29  HO  UNL     1      14.900   3.521  19.344  1.00  0.00     0.210 HD
ENDBRANCH  12  28
TORSDOF 2
ENDMDL
MODEL 5
REMARK VINA RESULT:      -9.0      2.801      6.483
REMARK  2 active torsions:
REMARK  status: ('A' for Active; 'I' for Inactive)
REMARK    1  A    between atoms: C_4  and  N_10 
REMARK    2  A    between atoms: O_5  and  C_18 
ROOT
HETATM    1  C   UNL     1      16.126   5.484  10.086  1.00  0.00     0.152 C 
HETATM    2  N   UNL     1      17.011   4.371   9.620  1.00  0.00    -0.401 N 
HETATM    3  C   UNL     1      17.995   4.264  11.925  1.00  0.00     0.040 C 
HETATM    4  C   UNL     1      17.601   2.569   8.217  1.00  0.00     0.229 C 
HETATM    5  C   UNL     1      18.255   3.668  17.736  1.00  0.00     0.001 C 
HETATM    6  C   UNL     1      14.136   5.570  13.471  1.00  0.00     0.011 C 
HETATM    7  C   UNL     1      18.679   2.419  17.127  1.00  0.00    -0.003 C 
HETATM    8  C   UNL     1      15.635   5.073  11.461  1.00  0.00    -0.058 C 
HETATM    9  C   UNL     1      18.238   4.272  10.382  1.00  0.00     0.094 C 
HETATM   10  C   UNL     1      18.437   2.802  11.700  1.00  0.00     0.020 C 
HETATM   11  C   UNL     1      15.518   5.520  14.171  1.00  0.00     0.013 C 
HETATM   12  C   UNL     1      18.362   1.827   9.318  1.00  0.00     0.156 C 
HETATM   13  C   UNL     1      16.503   4.211  12.333  1.00  0.00    -0.051 C 
HETATM   14  C   UNL     1      16.404   3.267   8.865  1.00  0.00     0.153 C 
HETATM   15  C   UNL     1      18.967   2.930  10.263  1.00  0.00     0.040 C 
HETATM   16  N   UNL     1      17.061   3.814  14.783  1.00  0.00    -0.274 NA
HETATM   17  C   UNL     1      14.318   5.586  11.964  1.00  0.00     0.036 C 
HETATM   18  C   UNL     1      16.486   4.362  16.027  1.00  0.00    -0.011 C 
HETATM   19  C   UNL     1      17.290   2.338  14.880  1.00  0.00     0.123 C 
HETATM   20  C   UNL     1      17.343   4.591  17.215  1.00  0.00     0.019 C 
HETATM   21  C   UNL     1      18.307   1.900  15.921  1.00  0.00    -0.012 C 
HETATM   22  C   UNL     1      16.001   4.099  13.768  1.00  0.00     0.097 C 
HETATM   23  C   UNL     1      15.303   5.248  15.672  1.00  0.00     0.057 C 
ENDROOT
BRANCH   4  24
HETATM   24  N   UNL     1      17.232   1.751   7.068  1.00  0.00    -0.071 N 
ATOM     25  HN3 UNL     1      18.061   1.523   6.517  1.00  0.00     0.274 HD
ATOM     26  HN2 UNL     1      16.959   0.817   7.373  1.00  0.00     0.274 HD
ATOM     27  HN1 UNL     1      16.510   2.152   6.469  1.00  0.00     0.274 HD
ENDBRANCH   4  24
BRANCH  12  28
HETATM   28  O   UNL     1      19.502   1.195   8.721  1.00  0.00    -0.393 OA
ATOM     29  HO  UNL     1      19.878   1.801   8.093  1.00  0.00     0.210 HD
ENDBRANCH  12  28
TORSDOF 2
ENDMDL
MODEL 6
REMARK VINA RESULT:      -8.8      1.480      2.205
REMARK  2 active torsions:
REMARK  status: ('A' for Active; 'I' for Inactive)
REMARK    1  A    between atoms: C_4  and  N_10 
REMARK    2  A    between atoms: O_5  and  C_18 
ROOT
HETATM    1  C   UNL     1      18.409   0.188  17.367  1.00  0.00     0.152 C 
HETATM    2  N   UNL     1      19.235  -0.643  16.436  1.00  0.00    -0.401 N 
HETATM    3  C   UNL     1      17.989   0.377  14.512  1.00  0.00     0.040 C 
HETATM    4  C   UNL     1      21.143  -1.887  15.821  1.00  0.00     0.229 C 
HETATM    5  C   UNL     1      15.882   4.486  10.925  1.00  0.00     0.001 C 
HETATM    6  C   UNL     1      17.554   3.993  16.903  1.00  0.00     0.011 C 
HETATM    7  C   UNL     1      17.041   3.878  10.296  1.00  0.00    -0.003 C 
HETATM    8  C   UNL     1      18.325   1.562  16.730  1.00  0.00    -0.058 C 
HETATM    9  C   UNL     1      18.567  -0.912  15.180  1.00  0.00     0.094 C 
HETATM   10  C   UNL     1      19.154   0.056  13.550  1.00  0.00     0.020 C 
HETATM   11  C   UNL     1      16.820   3.569  15.606  1.00  0.00     0.013 C 
HETATM   12  C   UNL     1      21.023  -1.529  14.337  1.00  0.00     0.156 C 
HETATM   13  C   UNL     1      18.368   1.692  15.233  1.00  0.00    -0.051 C 
HETATM   14  C   UNL     1      20.691  -0.671  16.631  1.00  0.00     0.153 C 
HETATM   15  C   UNL     1      19.488  -1.362  14.041  1.00  0.00     0.040 C 
HETATM   16  N   UNL     1      17.448   3.134  13.351  1.00  0.00    -0.274 NA
HETATM   17  C   UNL     1      18.132   2.772  17.596  1.00  0.00     0.036 C 
HETATM   18  C   UNL     1      16.649   4.375  13.361  1.00  0.00    -0.011 C 
HETATM   19  C   UNL     1      18.557   3.194  12.349  1.00  0.00     0.123 C 
HETATM   20  C   UNL     1      15.650   4.635  12.296  1.00  0.00     0.019 C 
HETATM   21  C   UNL     1      18.123   3.304  10.897  1.00  0.00    -0.012 C 
HETATM   22  C   UNL     1      18.012   3.088  14.735  1.00  0.00     0.097 C 
HETATM   23  C   UNL     1      16.471   4.834  14.798  1.00  0.00     0.057 C 
ENDROOT
BRANCH   4  24
HETATM   24  N   UNL     1      22.448  -2.392  16.227  1.00  0.00    -0.071 N 
ATOM     25  HN3 UNL     1      22.848  -2.971  15.488  1.00  0.00     0.274 HD
ATOM     26  HN2 UNL     1      23.130  -1.634  16.246  1.00  0.00     0.274 HD
ATOM     27  HN1 UNL     1      22.457  -2.896  17.114  1.00  0.00     0.274 HD
ENDBRANCH   4  24
BRANCH  12  28
HETATM   28  O   UNL     1      21.418  -2.676  13.572  1.00  0.00    -0.393 OA
ATOM     29  HO  UNL     1      22.023  -3.186  14.098  1.00  0.00     0.210 HD
ENDBRANCH  12  28
TORSDOF 2
ENDMDL
MODEL 7
REMARK VINA RESULT:      -8.8      2.574      4.568
REMARK  2 active torsions:
REMARK  status: ('A' for Active; 'I' for Inactive)
REMARK    1  A    between atoms: C_4  and  N_10 
REMARK    2  A    between atoms: O_5  and  C_18 
ROOT
HETATM    1  C   UNL     1      19.827   0.871  17.643  1.00  0.00     0.152 C 
HETATM    2  N   UNL     1      18.772   1.837  18.083  1.00  0.00    -0.401 N 
HETATM    3  C   UNL     1      19.028   3.028  15.890  1.00  0.00     0.040 C 
HETATM    4  C   UNL     1      16.901   2.508  19.352  1.00  0.00     0.229 C 
HETATM    5  C   UNL     1      19.109   3.873  10.105  1.00  0.00     0.001 C 
HETATM    6  C   UNL     1      20.071  -0.806  14.100  1.00  0.00     0.011 C 
HETATM    7  C   UNL     1      17.854   4.385  10.626  1.00  0.00    -0.003 C 
HETATM    8  C   UNL     1      19.520   0.556  16.192  1.00  0.00    -0.058 C 
HETATM    9  C   UNL     1      18.891   3.129  17.443  1.00  0.00     0.094 C 
HETATM   10  C   UNL     1      17.606   3.618  16.012  1.00  0.00     0.020 C 
HETATM   11  C   UNL     1      20.248   0.629  13.542  1.00  0.00     0.013 C 
HETATM   12  C   UNL     1      16.372   3.447  18.265  1.00  0.00     0.156 C 
HETATM   13  C   UNL     1      18.859   1.595  15.330  1.00  0.00    -0.051 C 
HETATM   14  C   UNL     1      17.532   1.300  18.659  1.00  0.00     0.153 C 
HETATM   15  C   UNL     1      17.631   3.999  17.501  1.00  0.00     0.040 C 
HETATM   16  N   UNL     1      18.797   2.412  12.922  1.00  0.00    -0.274 NA
HETATM   17  C   UNL     1      19.939  -0.762  15.612  1.00  0.00     0.036 C 
HETATM   18  C   UNL     1      19.414   1.889  11.687  1.00  0.00    -0.011 C 
HETATM   19  C   UNL     1      17.375   2.822  12.702  1.00  0.00     0.123 C 
HETATM   20  C   UNL     1      19.864   2.815  10.621  1.00  0.00     0.019 C 
HETATM   21  C   UNL     1      17.168   3.972  11.731  1.00  0.00    -0.012 C 
HETATM   22  C   UNL     1      18.853   1.239  13.848  1.00  0.00     0.097 C 
HETATM   23  C   UNL     1      20.121   0.582  12.007  1.00  0.00     0.057 C 
ENDROOT
BRANCH   4  24
HETATM   24  N   UNL     1      15.926   2.138  20.371  1.00  0.00    -0.071 N 
ATOM     25  HN3 UNL     1      15.293   2.918  20.553  1.00  0.00     0.274 HD
ATOM     26  HN2 UNL     1      15.265   1.457  19.997  1.00  0.00     0.274 HD
ATOM     27  HN1 UNL     1      16.326   1.798  21.245  1.00  0.00     0.274 HD
ENDBRANCH   4  24
BRANCH  12  28
HETATM   28  O   UNL     1      15.805   4.596  18.909  1.00  0.00    -0.393 OA
ATOM     29  HO  UNL     1      14.943   4.357  19.230  1.00  0.00     0.210 HD
ENDBRANCH  12  28
TORSDOF 2
ENDMDL
MODEL 8
REMARK VINA RESULT:      -8.4      2.649      3.362
REMARK  2 active torsions:
REMARK  status: ('A' for Active; 'I' for Inactive)
REMARK    1  A    between atoms: C_4  and  N_10 
REMARK    2  A    between atoms: O_5  and  C_18 
ROOT
HETATM    1  C   UNL     1      14.826   4.538  16.163  1.00  0.00     0.152 C 
HETATM    2  N   UNL     1      16.059   4.006  16.823  1.00  0.00    -0.401 N 
HETATM    3  C   UNL     1      16.719   2.977  14.632  1.00  0.00     0.040 C 
HETATM    4  C   UNL     1      17.753   3.989  18.465  1.00  0.00     0.229 C 
HETATM    5  C   UNL     1      18.118   2.607   8.967  1.00  0.00     0.001 C 
HETATM    6  C   UNL     1      14.670   6.267  12.640  1.00  0.00     0.011 C 
HETATM    7  C   UNL     1      19.342   2.562   9.746  1.00  0.00    -0.003 C 
HETATM    8  C   UNL     1      15.272   5.054  14.809  1.00  0.00    -0.058 C 
HETATM    9  C   UNL     1      16.572   2.816  16.179  1.00  0.00     0.094 C 
HETATM   10  C   UNL     1      18.203   2.954  15.057  1.00  0.00     0.020 C 
HETATM   11  C   UNL     1      15.169   4.917  12.065  1.00  0.00     0.013 C 
HETATM   12  C   UNL     1      18.805   3.402  17.520  1.00  0.00     0.156 C 
HETATM   13  C   UNL     1      16.436   4.407  14.113  1.00  0.00    -0.051 C 
HETATM   14  C   UNL     1      16.860   4.922  17.646  1.00  0.00     0.153 C 
HETATM   15  C   UNL     1      18.030   2.479  16.509  1.00  0.00     0.040 C 
HETATM   16  N   UNL     1      17.282   3.859  11.777  1.00  0.00    -0.274 NA
HETATM   17  C   UNL     1      14.506   6.160  14.146  1.00  0.00     0.036 C 
HETATM   18  C   UNL     1      16.771   4.206  10.437  1.00  0.00    -0.011 C 
HETATM   19  C   UNL     1      18.766   4.028  11.867  1.00  0.00     0.123 C 
HETATM   20  C   UNL     1      16.930   3.262   9.304  1.00  0.00     0.019 C 
HETATM   21  C   UNL     1      19.585   3.116  10.969  1.00  0.00    -0.012 C 
HETATM   22  C   UNL     1      16.601   4.851  12.664  1.00  0.00     0.097 C 
HETATM   23  C   UNL     1      15.570   5.124  10.592  1.00  0.00     0.057 C 
ENDROOT
BRANCH   4  24
HETATM   24  N   UNL     1      18.290   4.617  19.665  1.00  0.00    -0.071 N 
ATOM     25  HN3 UNL     1      17.610   4.565  20.425  1.00  0.00     0.274 HD
ATOM     26  HN2 UNL     1      19.038   4.046  20.058  1.00  0.00     0.274 HD
ATOM     27  HN1 UNL     1      18.608   5.578  19.541  1.00  0.00     0.274 HD
ENDBRANCH   4  24
BRANCH  12  28
HETATM   28  O   UNL     1      19.627   2.503  18.276  1.00  0.00    -0.393 OA
ATOM     29  HO  UNL     1      20.297   3.015  18.713  1.00  0.00     0.210 HD
ENDBRANCH  12  28
TORSDOF 2
ENDMDL
MODEL 9
REMARK VINA RESULT:      -7.9      2.884      5.107
REMARK  2 active torsions:
REMARK  status: ('A' for Active; 'I' for Inactive)
REMARK    1  A    between atoms: C_4  and  N_10 
REMARK    2  A    between atoms: O_5  and  C_18 
ROOT
HETATM    1  C   UNL     1      20.477  -0.829  16.202  1.00  0.00     0.152 C 
HETATM    2  N   UNL     1      20.586  -0.598  14.728  1.00  0.00    -0.401 N 
HETATM    3  C   UNL     1      18.526   0.829  14.857  1.00  0.00     0.040 C 
HETATM    4  C   UNL     1      21.742  -0.468  12.676  1.00  0.00     0.229 C 
HETATM    5  C   UNL     1      14.981   5.175  16.509  1.00  0.00     0.001 C 
HETATM    6  C   UNL     1      19.713   1.915  18.907  1.00  0.00     0.011 C 
HETATM    7  C   UNL     1      15.547   5.511  15.214  1.00  0.00    -0.003 C 
HETATM    8  C   UNL     1      20.121   0.516  16.806  1.00  0.00    -0.058 C 
HETATM    9  C   UNL     1      19.312  -0.297  14.111  1.00  0.00     0.094 C 
HETATM   10  C   UNL     1      18.924   1.571  13.563  1.00  0.00     0.020 C 
HETATM   11  C   UNL     1      18.353   2.103  18.189  1.00  0.00     0.013 C 
HETATM   12  C   UNL     1      20.823   0.617  12.110  1.00  0.00     0.156 C 
HETATM   13  C   UNL     1      19.316   1.501  16.006  1.00  0.00    -0.051 C 
HETATM   14  C   UNL     1      21.893  -0.216  14.177  1.00  0.00     0.153 C 
HETATM   15  C   UNL     1      19.401   0.368  12.733  1.00  0.00     0.040 C 
HETATM   16  N   UNL     1      17.570   3.327  16.303  1.00  0.00    -0.274 NA
HETATM   17  C   UNL     1      20.515   0.824  18.221  1.00  0.00     0.036 C 
HETATM   18  C   UNL     1      16.985   3.944  17.509  1.00  0.00    -0.011 C 
HETATM   19  C   UNL     1      17.920   4.350  15.269  1.00  0.00     0.123 C 
HETATM   20  C   UNL     1      15.574   4.401  17.510  1.00  0.00     0.019 C 
HETATM   21  C   UNL     1      16.747   5.125  14.692  1.00  0.00    -0.012 C 
HETATM   22  C   UNL     1      18.815   2.684  16.825  1.00  0.00     0.097 C 
HETATM   23  C   UNL     1      17.675   3.374  18.737  1.00  0.00     0.057 C 
ENDROOT
BRANCH   4  24
HETATM   24  N   UNL     1      23.019  -0.611  11.988  1.00  0.00    -0.071 N 
ATOM     25  HN3 UNL     1      23.576  -1.344  12.428  1.00  0.00     0.274 HD
ATOM     26  HN2 UNL     1      22.879  -1.023  11.066  1.00  0.00     0.274 HD
ATOM     27  HN1 UNL     1      23.564   0.248  11.911  1.00  0.00     0.274 HD
ENDBRANCH   4  24
BRANCH  12  28
HETATM   28  O   UNL     1      20.654   0.368  10.708  1.00  0.00    -0.393 OA
ATOM     29  HO  UNL     1      21.516   0.253  10.324  1.00  0.00     0.210 HD
ENDBRANCH  12  28
TORSDOF 2
ENDMDL
