MODEL 1
REMARK VINA RESULT:      -9.4      0.000      0.000
REMARK  5 active torsions:
REMARK  status: ('A' for Active; 'I' for Inactive)
REMARK    1  A    between atoms: C_1  and  C_10 
REMARK    2  A    between atoms: C_4  and  C_8 
REMARK    3  A    between atoms: C_4  and  C_19 
REMARK    4  A    between atoms: C_8  and  C_15 
REMARK    5  A    between atoms: C_10  and  C_13 
ROOT
HETATM    1  O   UNL     1      -7.279  19.860 -25.590  1.00  0.00    -0.287 OA
HETATM    2  C   UNL     1      -7.465  21.218 -28.824  1.00  0.00     0.011 C 
HETATM    3  C   UNL     1      -7.982  18.790 -27.582  1.00  0.00     0.065 C 
HETATM    4  C   UNL     1      -6.790  20.871 -27.653  1.00  0.00     0.000 C 
HETATM    5  C   UNL     1      -7.323  19.827 -26.860  1.00  0.00     0.192 C 
HETATM    6  C   UNL     1      -8.515  19.057 -28.845  1.00  0.00     0.020 C 
HETATM    7  C   UNL     1      -8.333  20.310 -29.423  1.00  0.00     0.002 C 
ENDROOT
BRANCH   4   8
HETATM    8  C   UNL     1      -5.506  21.550 -27.273  1.00  0.00     0.128 C 
BRANCH   8   9
HETATM    9  C   UNL     1      -4.388  20.546 -27.231  1.00  0.00     0.180 C 
HETATM   10  O   UNL     1      -4.148  19.826 -28.180  1.00  0.00    -0.290 OA
BRANCH   9  11
HETATM   11  C   UNL     1      -3.681  20.306 -25.923  1.00  0.00     0.078 C 
HETATM   12  C   UNL     1      -2.431  20.869 -25.794  1.00  0.00     0.033 C 
HETATM   13  C   UNL     1      -1.310  20.540 -25.063  1.00  0.00     0.002 C 
HETATM   14  C   UNL     1      -1.350  19.767 -23.916  1.00  0.00     0.001 C 
HETATM   15  C   UNL     1      -2.471  19.132 -23.475  1.00  0.00     0.017 C 
HETATM   16  C   UNL     1      -3.781  19.182 -23.843  1.00  0.00     0.088 C 
HETATM   17  N   UNL     1      -4.348  19.581 -24.983  1.00  0.00    -0.363 N 
ATOM     18  HN  UNL     1      -5.322  19.334 -25.157  1.00  0.00     0.165 HD
ENDBRANCH   9  11
ENDBRANCH   8   9
ENDBRANCH   4   8
BRANCH   3  19
HETATM   19  C   UNL     1      -8.087  17.384 -27.054  1.00  0.00     0.188 C 
HETATM   20  O   UNL     1      -8.948  17.086 -26.255  1.00  0.00    -0.287 OA
BRANCH  19  21
HETATM   21  C   UNL     1      -7.038  16.443 -27.391  1.00  0.00    -0.029 C 
HETATM   22  C   UNL     1      -7.193  15.198 -28.177  1.00  0.00     0.038 C 
HETATM   23  C   UNL     1      -5.797  14.731 -28.532  1.00  0.00     0.005 C 
HETATM   24  C   UNL     1      -4.852  15.885 -28.209  1.00  0.00     0.005 C 
HETATM   25  C   UNL     1      -5.602  16.791 -27.265  1.00  0.00     0.038 C 
ENDBRANCH  19  21
ENDBRANCH   3  19
TORSDOF 5
ENDMDL
MODEL 2
REMARK VINA RESULT:      -9.0      1.827      2.531
REMARK  5 active torsions:
REMARK  status: ('A' for Active; 'I' for Inactive)
REMARK    1  A    between atoms: C_1  and  C_10 
REMARK    2  A    between atoms: C_4  and  C_8 
REMARK    3  A    between atoms: C_4  and  C_19 
REMARK    4  A    between atoms: C_8  and  C_15 
REMARK    5  A    between atoms: C_10  and  C_13 
ROOT
HETATM    1  O   UNL     1      -4.294  17.289 -26.434  1.00  0.00    -0.287 OA
HETATM    2  C   UNL     1      -6.356  19.856 -27.655  1.00  0.00     0.011 C 
HETATM    3  C   UNL     1      -6.337  17.080 -27.612  1.00  0.00     0.065 C 
HETATM    4  C   UNL     1      -5.148  19.164 -27.561  1.00  0.00     0.000 C 
HETATM    5  C   UNL     1      -5.188  17.802 -27.178  1.00  0.00     0.192 C 
HETATM    6  C   UNL     1      -7.520  17.768 -27.892  1.00  0.00     0.020 C 
HETATM    7  C   UNL     1      -7.548  19.158 -27.819  1.00  0.00     0.002 C 
ENDROOT
BRANCH   4   8
HETATM    8  C   UNL     1      -3.848  19.830 -27.908  1.00  0.00     0.128 C 
BRANCH   8   9
HETATM    9  C   UNL     1      -3.508  20.864 -26.870  1.00  0.00     0.180 C 
HETATM   10  O   UNL     1      -3.572  22.052 -27.117  1.00  0.00    -0.290 OA
BRANCH   9  11
HETATM   11  C   UNL     1      -2.901  20.409 -25.570  1.00  0.00     0.078 C 
HETATM   12  C   UNL     1      -1.555  20.649 -25.409  1.00  0.00     0.033 C 
HETATM   13  C   UNL     1      -0.557  20.032 -24.686  1.00  0.00     0.002 C 
HETATM   14  C   UNL     1      -0.800  19.245 -23.573  1.00  0.00     0.001 C 
HETATM   15  C   UNL     1      -2.048  18.881 -23.167  1.00  0.00     0.017 C 
HETATM   16  C   UNL     1      -3.301  19.259 -23.540  1.00  0.00     0.088 C 
HETATM   17  N   UNL     1      -3.738  19.829 -24.665  1.00  0.00    -0.363 N 
ATOM     18  HN  UNL     1      -4.739  19.830 -24.856  1.00  0.00     0.165 HD
ENDBRANCH   9  11
ENDBRANCH   8   9
ENDBRANCH   4   8
BRANCH   3  19
HETATM   19  C   UNL     1      -6.317  15.591 -27.833  1.00  0.00     0.188 C 
HETATM   20  O   UNL     1      -5.453  15.079 -28.510  1.00  0.00    -0.287 OA
BRANCH  19  21
HETATM   21  C   UNL     1      -7.443  14.811 -27.362  1.00  0.00    -0.029 C 
HETATM   22  C   UNL     1      -8.549  14.276 -28.189  1.00  0.00     0.038 C 
HETATM   23  C   UNL     1      -9.295  13.280 -27.327  1.00  0.00     0.005 C 
HETATM   24  C   UNL     1      -8.420  13.016 -26.104  1.00  0.00     0.005 C 
HETATM   25  C   UNL     1      -7.448  14.165 -26.026  1.00  0.00     0.038 C 
ENDBRANCH  19  21
ENDBRANCH   3  19
TORSDOF 5
ENDMDL
MODEL 3
REMARK VINA RESULT:      -9.0      2.041      6.211
REMARK  5 active torsions:
REMARK  status: ('A' for Active; 'I' for Inactive)
REMARK    1  A    between atoms: C_1  and  C_10 
REMARK    2  A    between atoms: C_4  and  C_8 
REMARK    3  A    between atoms: C_4  and  C_19 
REMARK    4  A    between atoms: C_8  and  C_15 
REMARK    5  A    between atoms: C_10  and  C_13 
ROOT
HETATM    1  O   UNL     1      -6.323  16.268 -24.680  1.00  0.00    -0.287 OA
HETATM    2  C   UNL     1      -5.734  15.471 -28.050  1.00  0.00     0.011 C 
HETATM    3  C   UNL     1      -5.343  17.631 -26.350  1.00  0.00     0.065 C 
HETATM    4  C   UNL     1      -6.552  15.641 -26.932  1.00  0.00     0.000 C 
HETATM    5  C   UNL     1      -6.111  16.514 -25.909  1.00  0.00     0.192 C 
HETATM    6  C   UNL     1      -4.653  17.560 -27.563  1.00  0.00     0.020 C 
HETATM    7  C   UNL     1      -4.779  16.432 -28.367  1.00  0.00     0.002 C 
ENDROOT
BRANCH   4   8
HETATM    8  C   UNL     1      -7.887  14.960 -26.843  1.00  0.00     0.128 C 
BRANCH   8   9
HETATM    9  C   UNL     1      -8.797  15.469 -27.926  1.00  0.00     0.180 C 
HETATM   10  O   UNL     1      -9.155  14.753 -28.840  1.00  0.00    -0.290 OA
BRANCH   9  11
HETATM   11  C   UNL     1      -9.112  16.941 -27.972  1.00  0.00     0.078 C 
HETATM   12  C   UNL     1      -9.265  17.492 -29.225  1.00  0.00     0.033 C 
HETATM   13  C   UNL     1      -9.077  18.757 -29.738  1.00  0.00     0.002 C 
HETATM   14  C   UNL     1      -9.099  19.903 -28.962  1.00  0.00     0.001 C 
HETATM   15  C   UNL     1      -9.160  19.890 -27.601  1.00  0.00     0.017 C 
HETATM   16  C   UNL     1      -9.379  18.908 -26.684  1.00  0.00     0.088 C 
HETATM   17  N   UNL     1      -9.242  17.584 -26.779  1.00  0.00    -0.363 N 
ATOM     18  HN  UNL     1      -9.233  17.031 -25.923  1.00  0.00     0.165 HD
ENDBRANCH   9  11
ENDBRANCH   8   9
ENDBRANCH   4   8
BRANCH   3  19
HETATM   19  C   UNL     1      -5.284  18.922 -25.579  1.00  0.00     0.188 C 
HETATM   20  O   UNL     1      -6.158  19.753 -25.697  1.00  0.00    -0.287 OA
BRANCH  19  21
HETATM   21  C   UNL     1      -4.082  19.220 -24.828  1.00  0.00    -0.029 C 
HETATM   22  C   UNL     1      -3.471  18.377 -23.775  1.00  0.00     0.038 C 
HETATM   23  C   UNL     1      -2.087  18.935 -23.519  1.00  0.00     0.005 C 
HETATM   24  C   UNL     1      -1.791  19.914 -24.652  1.00  0.00     0.005 C 
HETATM   25  C   UNL     1      -3.124  20.266 -25.263  1.00  0.00     0.038 C 
ENDBRANCH  19  21
ENDBRANCH   3  19
TORSDOF 5
ENDMDL
MODEL 4
REMARK VINA RESULT:      -8.8      2.466      6.912
REMARK  5 active torsions:
REMARK  status: ('A' for Active; 'I' for Inactive)
REMARK    1  A    between atoms: C_1  and  C_10 
REMARK    2  A    between atoms: C_4  and  C_8 
REMARK    3  A    between atoms: C_4  and  C_19 
REMARK    4  A    between atoms: C_8  and  C_15 
REMARK    5  A    between atoms: C_10  and  C_13 
ROOT
HETATM    1  O   UNL     1      -6.883  16.574 -24.995  1.00  0.00    -0.287 OA
HETATM    2  C   UNL     1      -5.685  15.579 -28.143  1.00  0.00     0.011 C 
HETATM    3  C   UNL     1      -5.407  17.745 -26.430  1.00  0.00     0.065 C 
HETATM    4  C   UNL     1      -6.697  15.888 -27.234  1.00  0.00     0.000 C 
HETATM    5  C   UNL     1      -6.382  16.744 -26.151  1.00  0.00     0.192 C 
HETATM    6  C   UNL     1      -4.486  17.546 -27.461  1.00  0.00     0.020 C 
HETATM    7  C   UNL     1      -4.574  16.408 -28.258  1.00  0.00     0.002 C 
ENDROOT
BRANCH   4   8
HETATM    8  C   UNL     1      -8.094  15.371 -27.428  1.00  0.00     0.128 C 
BRANCH   8   9
HETATM    9  C   UNL     1      -9.048  16.522 -27.596  1.00  0.00     0.180 C 
HETATM   10  O   UNL     1      -9.612  17.019 -26.641  1.00  0.00    -0.290 OA
BRANCH   9  11
HETATM   11  C   UNL     1      -9.445  16.933 -28.988  1.00  0.00     0.078 C 
HETATM   12  C   UNL     1      -9.176  18.238 -29.338  1.00  0.00     0.033 C 
HETATM   13  C   UNL     1      -9.750  19.124 -30.224  1.00  0.00     0.002 C 
HETATM   14  C   UNL     1     -10.501  18.727 -31.317  1.00  0.00     0.001 C 
HETATM   15  C   UNL     1     -10.871  17.437 -31.547  1.00  0.00     0.017 C 
HETATM   16  C   UNL     1     -10.529  16.249 -30.977  1.00  0.00     0.088 C 
HETATM   17  N   UNL     1     -10.007  15.978 -29.780  1.00  0.00    -0.363 N 
ATOM     18  HN  UNL     1     -10.030  15.016 -29.442  1.00  0.00     0.165 HD
ENDBRANCH   9  11
ENDBRANCH   8   9
ENDBRANCH   4   8
BRANCH   3  19
HETATM   19  C   UNL     1      -5.358  19.050 -25.682  1.00  0.00     0.188 C 
HETATM   20  O   UNL     1      -6.239  19.871 -25.812  1.00  0.00    -0.287 OA
BRANCH  19  21
HETATM   21  C   UNL     1      -4.156  19.373 -24.940  1.00  0.00    -0.029 C 
HETATM   22  C   UNL     1      -3.564  18.580 -23.838  1.00  0.00     0.038 C 
HETATM   23  C   UNL     1      -2.174  19.132 -23.602  1.00  0.00     0.005 C 
HETATM   24  C   UNL     1      -1.856  20.042 -24.786  1.00  0.00     0.005 C 
HETATM   25  C   UNL     1      -3.180  20.379 -25.425  1.00  0.00     0.038 C 
ENDBRANCH  19  21
ENDBRANCH   3  19
TORSDOF 5
ENDMDL
MODEL 5
REMARK VINA RESULT:      -8.8      1.823      5.964
REMARK  5 active torsions:
REMARK  status: ('A' for Active; 'I' for Inactive)
REMARK    1  A    between atoms: C_1  and  C_10 
REMARK    2  A    between atoms: C_4  and  C_8 
REMARK    3  A    between atoms: C_4  and  C_19 
REMARK    4  A    between atoms: C_8  and  C_15 
REMARK    5  A    between atoms: C_10  and  C_13 
ROOT
HETATM    1  O   UNL     1      -4.789  18.815 -27.810  1.00  0.00    -0.287 OA
HETATM    2  C   UNL     1      -6.809  21.688 -27.834  1.00  0.00     0.011 C 
HETATM    3  C   UNL     1      -4.181  21.028 -27.229  1.00  0.00     0.065 C 
HETATM    4  C   UNL     1      -6.486  20.392 -27.428  1.00  0.00     0.000 C 
HETATM    5  C   UNL     1      -5.129  19.995 -27.482  1.00  0.00     0.192 C 
HETATM    6  C   UNL     1      -4.534  22.361 -27.454  1.00  0.00     0.020 C 
HETATM    7  C   UNL     1      -5.831  22.677 -27.850  1.00  0.00     0.002 C 
ENDROOT
BRANCH   4   8
HETATM    8  C   UNL     1      -7.542  19.465 -26.898  1.00  0.00     0.128 C 
BRANCH   8   9
HETATM    9  C   UNL     1      -7.940  18.480 -27.963  1.00  0.00     0.180 C 
HETATM   10  O   UNL     1      -8.530  18.836 -28.964  1.00  0.00    -0.290 OA
BRANCH   9  11
HETATM   11  C   UNL     1      -7.768  17.010 -27.687  1.00  0.00     0.078 C 
HETATM   12  C   UNL     1      -8.513  16.153 -28.467  1.00  0.00     0.033 C 
HETATM   13  C   UNL     1      -9.022  14.888 -28.272  1.00  0.00     0.002 C 
HETATM   14  C   UNL     1      -8.504  13.993 -27.351  1.00  0.00     0.001 C 
HETATM   15  C   UNL     1      -7.539  14.319 -26.446  1.00  0.00     0.017 C 
HETATM   16  C   UNL     1      -6.739  15.408 -26.282  1.00  0.00     0.088 C 
HETATM   17  N   UNL     1      -6.879  16.662 -26.717  1.00  0.00    -0.363 N 
ATOM     18  HN  UNL     1      -6.296  17.390 -26.305  1.00  0.00     0.165 HD
ENDBRANCH   9  11
ENDBRANCH   8   9
ENDBRANCH   4   8
BRANCH   3  19
HETATM   19  C   UNL     1      -2.811  20.745 -26.674  1.00  0.00     0.188 C 
HETATM   20  O   UNL     1      -1.841  20.728 -27.400  1.00  0.00    -0.287 OA
BRANCH  19  21
HETATM   21  C   UNL     1      -2.702  20.329 -25.291  1.00  0.00    -0.029 C 
HETATM   22  C   UNL     1      -3.702  19.549 -24.527  1.00  0.00     0.038 C 
HETATM   23  C   UNL     1      -3.018  19.091 -23.256  1.00  0.00     0.005 C 
HETATM   24  C   UNL     1      -1.525  19.350 -23.442  1.00  0.00     0.005 C 
HETATM   25  C   UNL     1      -1.409  20.351 -24.564  1.00  0.00     0.038 C 
ENDBRANCH  19  21
ENDBRANCH   3  19
TORSDOF 5
ENDMDL
MODEL 6
REMARK VINA RESULT:      -8.5      2.094      3.089
REMARK  5 active torsions:
REMARK  status: ('A' for Active; 'I' for Inactive)
REMARK    1  A    between atoms: C_1  and  C_10 
REMARK    2  A    between atoms: C_4  and  C_8 
REMARK    3  A    between atoms: C_4  and  C_19 
REMARK    4  A    between atoms: C_8  and  C_15 
REMARK    5  A    between atoms: C_10  and  C_13 
ROOT
HETATM    1  O   UNL     1      -6.245  20.855 -26.772  1.00  0.00    -0.287 OA
HETATM    2  C   UNL     1      -4.484  22.234 -29.480  1.00  0.00     0.011 C 
HETATM    3  C   UNL     1      -7.087  21.463 -28.900  1.00  0.00     0.065 C 
HETATM    4  C   UNL     1      -4.727  21.251 -28.520  1.00  0.00     0.000 C 
HETATM    5  C   UNL     1      -6.036  21.143 -27.993  1.00  0.00     0.192 C 
HETATM    6  C   UNL     1      -6.831  22.306 -29.984  1.00  0.00     0.020 C 
HETATM    7  C   UNL     1      -5.538  22.766 -30.215  1.00  0.00     0.002 C 
ENDROOT
BRANCH   4   8
HETATM    8  C   UNL     1      -3.644  20.299 -28.098  1.00  0.00     0.128 C 
BRANCH   8   9
HETATM    9  C   UNL     1      -2.751  20.956 -27.082  1.00  0.00     0.180 C 
HETATM   10  O   UNL     1      -1.963  21.825 -27.401  1.00  0.00    -0.290 OA
BRANCH   9  11
HETATM   11  C   UNL     1      -2.708  20.392 -25.687  1.00  0.00     0.078 C 
HETATM   12  C   UNL     1      -1.491  20.448 -25.045  1.00  0.00     0.033 C 
HETATM   13  C   UNL     1      -0.897  19.686 -24.063  1.00  0.00     0.002 C 
HETATM   14  C   UNL     1      -1.611  18.910 -23.166  1.00  0.00     0.001 C 
HETATM   15  C   UNL     1      -2.955  18.704 -23.253  1.00  0.00     0.017 C 
HETATM   16  C   UNL     1      -3.938  19.254 -24.017  1.00  0.00     0.088 C 
HETATM   17  N   UNL     1      -3.874  19.904 -25.179  1.00  0.00    -0.363 N 
ATOM     18  HN  UNL     1      -4.733  20.043 -25.711  1.00  0.00     0.165 HD
ENDBRANCH   9  11
ENDBRANCH   8   9
ENDBRANCH   4   8
BRANCH   3  19
HETATM   19  C   UNL     1      -8.470  20.883 -28.768  1.00  0.00     0.188 C 
HETATM   20  O   UNL     1      -9.370  21.536 -28.289  1.00  0.00    -0.287 OA
BRANCH  19  21
HETATM   21  C   UNL     1      -8.657  19.478 -29.066  1.00  0.00    -0.029 C 
HETATM   22  C   UNL     1      -8.343  18.340 -28.173  1.00  0.00     0.038 C 
HETATM   23  C   UNL     1      -8.996  17.117 -28.780  1.00  0.00     0.005 C 
HETATM   24  C   UNL     1      -9.949  17.618 -29.862  1.00  0.00     0.005 C 
HETATM   25  C   UNL     1      -9.508  19.022 -30.193  1.00  0.00     0.038 C 
ENDBRANCH  19  21
ENDBRANCH   3  19
TORSDOF 5
ENDMDL
MODEL 7
REMARK VINA RESULT:      -8.4      2.111      3.453
REMARK  5 active torsions:
REMARK  status: ('A' for Active; 'I' for Inactive)
REMARK    1  A    between atoms: C_1  and  C_10 
REMARK    2  A    between atoms: C_4  and  C_8 
REMARK    3  A    between atoms: C_4  and  C_19 
REMARK    4  A    between atoms: C_8  and  C_15 
REMARK    5  A    between atoms: C_10  and  C_13 
ROOT
HETATM    1  O   UNL     1      -8.062  19.264 -28.495  1.00  0.00    -0.287 OA
HETATM    2  C   UNL     1      -5.719  17.069 -27.072  1.00  0.00     0.011 C 
HETATM    3  C   UNL     1      -8.241  16.919 -28.222  1.00  0.00     0.065 C 
HETATM    4  C   UNL     1      -6.569  18.175 -27.046  1.00  0.00     0.000 C 
HETATM    5  C   UNL     1      -7.669  18.192 -27.936  1.00  0.00     0.192 C 
HETATM    6  C   UNL     1      -7.466  15.765 -28.082  1.00  0.00     0.020 C 
HETATM    7  C   UNL     1      -6.166  15.859 -27.593  1.00  0.00     0.002 C 
ENDROOT
BRANCH   4   8
HETATM    8  C   UNL     1      -6.352  19.291 -26.065  1.00  0.00     0.128 C 
BRANCH   8   9
HETATM    9  C   UNL     1      -5.094  20.040 -26.408  1.00  0.00     0.180 C 
HETATM   10  O   UNL     1      -4.952  20.574 -27.490  1.00  0.00    -0.290 OA
BRANCH   9  11
HETATM   11  C   UNL     1      -3.926  19.962 -25.462  1.00  0.00     0.078 C 
HETATM   12  C   UNL     1      -2.785  20.630 -25.846  1.00  0.00     0.033 C 
HETATM   13  C   UNL     1      -1.444  20.451 -25.587  1.00  0.00     0.002 C 
HETATM   14  C   UNL     1      -0.967  19.770 -24.479  1.00  0.00     0.001 C 
HETATM   15  C   UNL     1      -1.767  19.085 -23.616  1.00  0.00     0.017 C 
HETATM   16  C   UNL     1      -3.117  19.002 -23.456  1.00  0.00     0.088 C 
HETATM   17  N   UNL     1      -4.110  19.263 -24.307  1.00  0.00    -0.363 N 
ATOM     18  HN  UNL     1      -5.046  18.927 -24.084  1.00  0.00     0.165 HD
ENDBRANCH   9  11
ENDBRANCH   8   9
ENDBRANCH   4   8
BRANCH   3  19
HETATM   19  C   UNL     1      -9.682  16.756 -28.626  1.00  0.00     0.188 C 
HETATM   20  O   UNL     1     -10.497  16.317 -27.845  1.00  0.00    -0.287 OA
BRANCH  19  21
HETATM   21  C   UNL     1     -10.036  16.975 -30.013  1.00  0.00    -0.029 C 
HETATM   22  C   UNL     1     -10.505  15.949 -30.973  1.00  0.00     0.038 C 
HETATM   23  C   UNL     1     -11.046  16.693 -32.176  1.00  0.00     0.005 C 
HETATM   24  C   UNL     1     -11.169  18.158 -31.767  1.00  0.00     0.005 C 
HETATM   25  C   UNL     1     -10.290  18.332 -30.555  1.00  0.00     0.038 C 
ENDBRANCH  19  21
ENDBRANCH   3  19
TORSDOF 5
ENDMDL
MODEL 8
REMARK VINA RESULT:      -8.4      2.108      6.515
REMARK  5 active torsions:
REMARK  status: ('A' for Active; 'I' for Inactive)
REMARK    1  A    between atoms: C_1  and  C_10 
REMARK    2  A    between atoms: C_4  and  C_8 
REMARK    3  A    between atoms: C_4  and  C_19 
REMARK    4  A    between atoms: C_8  and  C_15 
REMARK    5  A    between atoms: C_10  and  C_13 
ROOT
HETATM    1  O   UNL     1      -5.978  20.620 -26.392  1.00  0.00    -0.287 OA
HETATM    2  C   UNL     1      -2.974  19.879 -24.730  1.00  0.00     0.011 C 
HETATM    3  C   UNL     1      -3.766  21.059 -27.115  1.00  0.00     0.065 C 
HETATM    4  C   UNL     1      -4.197  19.538 -25.309  1.00  0.00     0.000 C 
HETATM    5  C   UNL     1      -4.730  20.399 -26.298  1.00  0.00     0.192 C 
HETATM    6  C   UNL     1      -2.471  21.257 -26.632  1.00  0.00     0.020 C 
HETATM    7  C   UNL     1      -2.107  20.743 -25.391  1.00  0.00     0.002 C 
ENDROOT
BRANCH   4   8
HETATM    8  C   UNL     1      -4.901  18.266 -24.933  1.00  0.00     0.128 C 
BRANCH   8   9
HETATM    9  C   UNL     1      -5.073  17.396 -26.148  1.00  0.00     0.180 C 
HETATM   10  O   UNL     1      -4.125  17.084 -26.841  1.00  0.00    -0.290 OA
BRANCH   9  11
HETATM   11  C   UNL     1      -6.468  17.069 -26.609  1.00  0.00     0.078 C 
HETATM   12  C   UNL     1      -6.662  15.802 -27.112  1.00  0.00     0.033 C 
HETATM   13  C   UNL     1      -7.543  15.264 -28.025  1.00  0.00     0.002 C 
HETATM   14  C   UNL     1      -8.764  15.839 -28.334  1.00  0.00     0.001 C 
HETATM   15  C   UNL     1      -9.155  17.063 -27.881  1.00  0.00     0.017 C 
HETATM   16  C   UNL     1      -8.645  17.928 -26.962  1.00  0.00     0.088 C 
HETATM   17  N   UNL     1      -7.412  18.041 -26.466  1.00  0.00    -0.363 N 
ATOM     18  HN  UNL     1      -7.165  18.890 -25.958  1.00  0.00     0.165 HD
ENDBRANCH   9  11
ENDBRANCH   8   9
ENDBRANCH   4   8
BRANCH   3  19
HETATM   19  C   UNL     1      -4.075  21.515 -28.516  1.00  0.00     0.188 C 
HETATM   20  O   UNL     1      -3.853  20.793 -29.463  1.00  0.00    -0.287 OA
BRANCH  19  21
HETATM   21  C   UNL     1      -4.482  22.890 -28.718  1.00  0.00    -0.029 C 
HETATM   22  C   UNL     1      -4.876  23.511 -30.003  1.00  0.00     0.038 C 
HETATM   23  C   UNL     1      -5.513  24.842 -29.666  1.00  0.00     0.005 C 
HETATM   24  C   UNL     1      -5.763  24.842 -28.161  1.00  0.00     0.005 C 
HETATM   25  C   UNL     1      -4.875  23.767 -27.587  1.00  0.00     0.038 C 
ENDBRANCH  19  21
ENDBRANCH   3  19
TORSDOF 5
ENDMDL
MODEL 9
REMARK VINA RESULT:      -8.4      1.894      2.836
REMARK  5 active torsions:
REMARK  status: ('A' for Active; 'I' for Inactive)
REMARK    1  A    between atoms: C_1  and  C_10 
REMARK    2  A    between atoms: C_4  and  C_8 
REMARK    3  A    between atoms: C_4  and  C_19 
REMARK    4  A    between atoms: C_8  and  C_15 
REMARK    5  A    between atoms: C_10  and  C_13 
ROOT
HETATM    1  O   UNL     1      -7.549  18.878 -26.749  1.00  0.00    -0.287 OA
HETATM    2  C   UNL     1      -4.339  19.067 -28.159  1.00  0.00     0.011 C 
HETATM    3  C   UNL     1      -5.956  17.142 -26.982  1.00  0.00     0.065 C 
HETATM    4  C   UNL     1      -5.325  19.442 -27.246  1.00  0.00     0.000 C 
HETATM    5  C   UNL     1      -6.349  18.512 -26.951  1.00  0.00     0.192 C 
HETATM    6  C   UNL     1      -4.854  16.757 -27.749  1.00  0.00     0.020 C 
HETATM    7  C   UNL     1      -4.101  17.720 -28.415  1.00  0.00     0.002 C 
ENDROOT
BRANCH   4   8
HETATM    8  C   UNL     1      -5.270  20.775 -26.556  1.00  0.00     0.128 C 
BRANCH   8   9
HETATM    9  C   UNL     1      -3.841  21.223 -26.419  1.00  0.00     0.180 C 
HETATM   10  O   UNL     1      -3.399  22.138 -27.086  1.00  0.00    -0.290 OA
BRANCH   9  11
HETATM   11  C   UNL     1      -2.903  20.399 -25.578  1.00  0.00     0.078 C 
HETATM   12  C   UNL     1      -3.475  19.688 -24.547  1.00  0.00     0.033 C 
HETATM   13  C   UNL     1      -3.013  19.242 -23.328  1.00  0.00     0.002 C 
HETATM   14  C   UNL     1      -1.672  19.040 -23.049  1.00  0.00     0.001 C 
HETATM   15  C   UNL     1      -0.666  19.400 -23.895  1.00  0.00     0.017 C 
HETATM   16  C   UNL     1      -0.638  19.838 -25.183  1.00  0.00     0.088 C 
HETATM   17  N   UNL     1      -1.586  20.410 -25.927  1.00  0.00    -0.363 N 
ATOM     18  HN  UNL     1      -1.315  20.876 -26.793  1.00  0.00     0.165 HD
ENDBRANCH   9  11
ENDBRANCH   8   9
ENDBRANCH   4   8
BRANCH   3  19
HETATM   19  C   UNL     1      -6.657  16.084 -26.173  1.00  0.00     0.188 C 
HETATM   20  O   UNL     1      -6.419  15.951 -24.992  1.00  0.00    -0.287 OA
BRANCH  19  21
HETATM   21  C   UNL     1      -7.490  15.126 -26.869  1.00  0.00    -0.029 C 
HETATM   22  C   UNL     1      -7.968  13.828 -26.339  1.00  0.00     0.038 C 
HETATM   23  C   UNL     1      -9.044  13.341 -27.286  1.00  0.00     0.005 C 
HETATM   24  C   UNL     1      -9.399  14.518 -28.191  1.00  0.00     0.005 C 
HETATM   25  C   UNL     1      -8.247  15.485 -28.093  1.00  0.00     0.038 C 
ENDBRANCH  19  21
ENDBRANCH   3  19
TORSDOF 5
ENDMDL
