REMARK  2 active torsions:
REMARK  status: ('A' for Active; 'I' for Inactive)
REMARK    1  A    between atoms: O_3  and  C_8 
REMARK    2  A    between atoms: C_9  and  C_10 
ROOT
HETATM    1  C   UNL     1      18.467 -17.699  21.720  1.00  0.00     0.012 C 
HETATM    2  C   UNL     1      20.321 -18.784  22.784  1.00  0.00     0.008 C 
HETATM    3  C   UNL     1      20.521 -19.571  21.647  1.00  0.00     0.015 C 
HETATM    4  C   UNL     1      18.744 -17.534  24.109  1.00  0.00     0.013 C 
HETATM    5  C   UNL     1      19.563 -17.667  25.210  1.00  0.00     0.018 C 
HETATM    6  C   UNL     1      21.121 -18.934  23.915  1.00  0.00     0.090 C 
HETATM    7  C   UNL     1      20.842 -18.182  25.043  1.00  0.00     0.035 C 
HETATM    8  C   UNL     1      19.717 -19.365  20.540  1.00  0.00     0.001 C 
HETATM    9  C   UNL     1      19.147 -18.028  22.881  1.00  0.00    -0.023 C 
HETATM   10  C   UNL     1      18.763 -18.376  20.546  1.00  0.00     0.001 C 
ENDROOT
BRANCH   6  11
HETATM   11  O   UNL     1      22.206 -19.756  23.890  1.00  0.00    -0.359 OA
ATOM     12  HO  UNL     1      22.751 -19.858  24.661  1.00  0.00     0.217 HD
ENDBRANCH   6  11
BRANCH   7  13
HETATM   13  C   UNL     1      21.823 -17.799  26.090  1.00  0.00     0.272 C 
HETATM   14  O   UNL     1      23.036 -17.996  25.876  1.00  0.00    -0.301 OA
ENDBRANCH   7  13
TORSDOF 2
