REMARK  0 active torsions:
REMARK  status: ('A' for Active; 'I' for Inactive)
ROOT
HETATM    1  C   UNL     1      -9.604 -17.148 -10.202  1.00  0.00    -0.002 C 
HETATM    2  C   UNL     1      -8.224 -15.968  -8.463  1.00  0.00     0.006 C 
HETATM    3  C   UNL     1     -10.153 -17.359  -7.744  1.00  0.00     0.057 C 
HETATM    4  C   UNL     1     -12.678 -16.715 -11.646  1.00  0.00     0.044 C 
HETATM    5  C   UNL     1      -8.669 -18.364 -10.040  1.00  0.00     0.016 C 
HETATM    6  C   UNL     1      -8.815 -15.868  -9.875  1.00  0.00     0.016 C 
HETATM    7  C   UNL     1     -12.927 -17.261 -10.326  1.00  0.00     0.060 C 
HETATM    8  C   UNL     1      -8.614 -17.270  -7.753  1.00  0.00    -0.009 C 
HETATM    9  C   UNL     1      -8.099 -18.427  -8.627  1.00  0.00     0.006 C 
HETATM   10  C   UNL     1     -10.690 -17.258  -9.160  1.00  0.00    -0.005 C 
HETATM   11  N   UNL     1     -12.027 -17.537  -9.346  1.00  0.00    -0.375 N 
ATOM     12  HN  UNL     1     -12.431 -18.070  -8.576  1.00  0.00     0.164 HD
HETATM   13  C   UNL     1     -11.306 -16.243 -11.976  1.00  0.00     0.006 C 
HETATM   14  C   UNL     1     -10.144 -17.146 -11.637  1.00  0.00     0.016 C 
ENDROOT
TORSDOF 0
