MODEL 1
REMARK VINA RESULT:      -6.6      0.000      0.000
REMARK  0 active torsions:
REMARK  status: ('A' for Active; 'I' for Inactive)
ROOT
HETATM    1  N   UNL     1     -11.401 -16.315 -10.672  1.00  0.00    -0.372 N 
ATOM      2  HN  UNL     1     -11.804 -15.518 -11.166  1.00  0.00     0.164 HD
HETATM    3  C   UNL     1     -13.373 -17.746 -11.026  1.00  0.00     0.068 C 
HETATM    4  C   UNL     1      -8.537 -18.287 -10.395  1.00  0.00     0.023 C 
HETATM    5  O   UNL     1      -8.986 -17.129  -7.374  1.00  0.00    -0.292 OA
HETATM    6  C   UNL     1     -10.060 -16.355 -10.632  1.00  0.00     0.078 C 
HETATM    7  C   UNL     1      -9.102 -17.028  -9.722  1.00  0.00     0.056 C 
HETATM    8  C   UNL     1      -9.709 -17.311  -8.340  1.00  0.00     0.163 C 
HETATM    9  C   UNL     1     -12.226 -17.608  -8.795  1.00  0.00     0.028 C 
HETATM   10  C   UNL     1      -6.941 -16.444 -10.722  1.00  0.00     0.002 C 
HETATM   11  C   UNL     1     -11.076 -17.651  -8.048  1.00  0.00     0.053 C 
HETATM   12  C   UNL     1      -7.375 -17.790 -11.267  1.00  0.00     0.002 C 
HETATM   13  C   UNL     1      -7.869 -16.109  -9.555  1.00  0.00     0.023 C 
HETATM   14  C   UNL     1     -12.291 -17.187 -10.146  1.00  0.00     0.004 C 
ENDROOT
TORSDOF 0
ENDMDL
MODEL 2
REMARK VINA RESULT:      -6.4      1.781      4.163
REMARK  0 active torsions:
REMARK  status: ('A' for Active; 'I' for Inactive)
ROOT
HETATM    1  N   UNL     1      -8.760 -17.407 -11.220  1.00  0.00    -0.372 N 
ATOM      2  HN  UNL     1      -8.249 -17.963 -11.906  1.00  0.00     0.164 HD
HETATM    3  C   UNL     1      -6.740 -16.277 -10.381  1.00  0.00     0.068 C 
HETATM    4  C   UNL     1     -11.539 -15.343 -10.791  1.00  0.00     0.023 C 
HETATM    5  O   UNL     1     -12.006 -17.744  -8.627  1.00  0.00    -0.292 OA
HETATM    6  C   UNL     1     -10.055 -17.187 -11.498  1.00  0.00     0.078 C 
HETATM    7  C   UNL     1     -11.219 -16.838 -10.651  1.00  0.00     0.056 C 
HETATM    8  C   UNL     1     -11.031 -17.273  -9.190  1.00  0.00     0.163 C 
HETATM    9  C   UNL     1      -8.484 -17.190  -8.821  1.00  0.00     0.028 C 
HETATM   10  C   UNL     1     -13.013 -16.601 -12.306  1.00  0.00     0.002 C 
HETATM   11  C   UNL     1      -9.799 -17.301  -8.447  1.00  0.00     0.053 C 
HETATM   12  C   UNL     1     -12.410 -15.234 -12.051  1.00  0.00     0.002 C 
HETATM   13  C   UNL     1     -12.467 -17.543 -11.232  1.00  0.00     0.023 C 
HETATM   14  C   UNL     1      -8.041 -16.991 -10.152  1.00  0.00     0.004 C 
ENDROOT
TORSDOF 0
ENDMDL
MODEL 3
REMARK VINA RESULT:      -6.2      3.438      4.145
REMARK  0 active torsions:
REMARK  status: ('A' for Active; 'I' for Inactive)
ROOT
HETATM    1  N   UNL     1     -11.488 -16.143 -12.040  1.00  0.00    -0.372 N 
ATOM      2  HN  UNL     1     -12.156 -15.373 -12.070  1.00  0.00     0.164 HD
HETATM    3  C   UNL     1     -12.321 -17.006  -9.890  1.00  0.00     0.068 C 
HETATM    4  C   UNL     1     -10.127 -18.750 -13.918  1.00  0.00     0.023 C 
HETATM    5  O   UNL     1      -7.530 -16.969 -13.054  1.00  0.00    -0.292 OA
HETATM    6  C   UNL     1     -11.016 -16.550 -13.230  1.00  0.00     0.078 C 
HETATM    7  C   UNL     1      -9.790 -17.280 -13.629  1.00  0.00     0.056 C 
HETATM    8  C   UNL     1      -8.655 -17.119 -12.606  1.00  0.00     0.163 C 
HETATM    9  C   UNL     1      -9.862 -16.780 -10.358  1.00  0.00     0.028 C 
HETATM   10  C   UNL     1     -10.094 -17.523 -16.050  1.00  0.00     0.002 C 
HETATM   11  C   UNL     1      -8.786 -17.003 -11.179  1.00  0.00     0.053 C 
HETATM   12  C   UNL     1     -10.624 -18.770 -15.371  1.00  0.00     0.002 C 
HETATM   13  C   UNL     1      -9.322 -16.729 -14.996  1.00  0.00     0.023 C 
HETATM   14  C   UNL     1     -11.196 -16.618 -10.808  1.00  0.00     0.004 C 
ENDROOT
TORSDOF 0
ENDMDL
MODEL 4
REMARK VINA RESULT:      -6.0      2.733      4.004
REMARK  0 active torsions:
REMARK  status: ('A' for Active; 'I' for Inactive)
ROOT
HETATM    1  N   UNL     1      -7.912 -18.194  -9.470  1.00  0.00    -0.372 N 
ATOM      2  HN  UNL     1      -7.820 -19.000  -8.851  1.00  0.00     0.164 HD
HETATM    3  C   UNL     1      -8.587 -16.669  -7.659  1.00  0.00     0.068 C 
HETATM    4  C   UNL     1      -6.307 -16.401 -11.996  1.00  0.00     0.023 C 
HETATM    5  O   UNL     1      -9.153 -17.273 -13.341  1.00  0.00    -0.292 OA
HETATM    6  C   UNL     1      -7.181 -18.240 -10.595  1.00  0.00     0.078 C 
HETATM    7  C   UNL     1      -7.311 -17.560 -11.906  1.00  0.00     0.056 C 
HETATM    8  C   UNL     1      -8.754 -17.123 -12.197  1.00  0.00     0.163 C 
HETATM    9  C   UNL     1      -9.776 -16.698  -9.872  1.00  0.00     0.028 C 
HETATM   10  C   UNL     1      -5.331 -18.366 -13.107  1.00  0.00     0.002 C 
HETATM   11  C   UNL     1      -9.731 -16.670 -11.243  1.00  0.00     0.053 C 
HETATM   12  C   UNL     1      -4.989 -17.045 -12.449  1.00  0.00     0.002 C 
HETATM   13  C   UNL     1      -6.847 -18.542 -13.007  1.00  0.00     0.023 C 
HETATM   14  C   UNL     1      -8.753 -17.224  -9.046  1.00  0.00     0.004 C 
ENDROOT
TORSDOF 0
ENDMDL
MODEL 5
REMARK VINA RESULT:      -6.0      2.651      4.837
REMARK  0 active torsions:
REMARK  status: ('A' for Active; 'I' for Inactive)
ROOT
HETATM    1  N   UNL     1      -9.008 -16.765 -10.103  1.00  0.00    -0.372 N 
ATOM      2  HN  UNL     1      -8.777 -16.128  -9.341  1.00  0.00     0.164 HD
HETATM    3  C   UNL     1      -7.674 -18.619  -9.182  1.00  0.00     0.068 C 
HETATM    4  C   UNL     1     -11.649 -18.031 -11.998  1.00  0.00     0.023 C 
HETATM    5  O   UNL     1      -9.656 -16.706 -14.220  1.00  0.00    -0.292 OA
HETATM    6  C   UNL     1     -10.159 -16.510 -10.746  1.00  0.00     0.078 C 
HETATM    7  C   UNL     1     -10.656 -16.865 -12.096  1.00  0.00     0.056 C 
HETATM    8  C   UNL     1      -9.513 -17.136 -13.087  1.00  0.00     0.163 C 
HETATM    9  C   UNL     1      -7.589 -18.016 -11.620  1.00  0.00     0.028 C 
HETATM   10  C   UNL     1     -12.921 -15.927 -12.078  1.00  0.00     0.002 C 
HETATM   11  C   UNL     1      -8.239 -17.734 -12.795  1.00  0.00     0.053 C 
HETATM   12  C   UNL     1     -13.000 -17.382 -11.661  1.00  0.00     0.002 C 
HETATM   13  C   UNL     1     -11.512 -15.688 -12.620  1.00  0.00     0.023 C 
HETATM   14  C   UNL     1      -8.114 -17.754 -10.330  1.00  0.00     0.004 C 
ENDROOT
TORSDOF 0
ENDMDL
MODEL 6
REMARK VINA RESULT:      -5.9      1.974      4.536
REMARK  0 active torsions:
REMARK  status: ('A' for Active; 'I' for Inactive)
ROOT
HETATM    1  N   UNL     1      -9.118 -17.788 -13.085  1.00  0.00    -0.372 N 
ATOM      2  HN  UNL     1      -9.025 -18.559 -13.746  1.00  0.00     0.164 HD
HETATM    3  C   UNL     1      -7.115 -16.617 -13.910  1.00  0.00     0.068 C 
HETATM    4  C   UNL     1     -11.378 -15.485 -11.760  1.00  0.00     0.023 C 
HETATM    5  O   UNL     1     -10.277 -17.096  -9.141  1.00  0.00    -0.292 OA
HETATM    6  C   UNL     1     -10.359 -17.563 -12.625  1.00  0.00     0.078 C 
HETATM    7  C   UNL     1     -10.873 -16.891 -11.408  1.00  0.00     0.056 C 
HETATM    8  C   UNL     1      -9.848 -16.888 -10.265  1.00  0.00     0.163 C 
HETATM    9  C   UNL     1      -7.564 -16.893 -11.453  1.00  0.00     0.028 C 
HETATM   10  C   UNL     1     -13.300 -17.019 -11.732  1.00  0.00     0.002 C 
HETATM   11  C   UNL     1      -8.418 -16.789 -10.385  1.00  0.00     0.053 C 
HETATM   12  C   UNL     1     -12.813 -15.687 -12.267  1.00  0.00     0.002 C 
HETATM   13  C   UNL     1     -12.145 -17.640 -10.946  1.00  0.00     0.023 C 
HETATM   14  C   UNL     1      -7.973 -17.131 -12.788  1.00  0.00     0.004 C 
ENDROOT
TORSDOF 0
ENDMDL
MODEL 7
REMARK VINA RESULT:      -5.8      3.580      4.483
REMARK  0 active torsions:
REMARK  status: ('A' for Active; 'I' for Inactive)
ROOT
HETATM    1  N   UNL     1     -10.010 -16.741 -11.573  1.00  0.00    -0.372 N 
ATOM      2  HN  UNL     1      -9.709 -16.715 -10.599  1.00  0.00     0.164 HD
HETATM    3  C   UNL     1     -11.775 -15.055 -11.248  1.00  0.00     0.068 C 
HETATM    4  C   UNL     1      -8.864 -16.640 -14.866  1.00  0.00     0.023 C 
HETATM    5  O   UNL     1     -10.489 -19.468 -14.689  1.00  0.00    -0.292 OA
HETATM    6  C   UNL     1      -9.083 -17.143 -12.457  1.00  0.00     0.078 C 
HETATM    7  C   UNL     1      -9.177 -17.719 -13.820  1.00  0.00     0.056 C 
HETATM    8  C   UNL     1     -10.522 -18.418 -14.067  1.00  0.00     0.163 C 
HETATM    9  C   UNL     1     -12.185 -17.159 -12.559  1.00  0.00     0.028 C 
HETATM   10  C   UNL     1      -6.818 -17.942 -14.452  1.00  0.00     0.002 C 
HETATM   11  C   UNL     1     -11.805 -18.037 -13.542  1.00  0.00     0.053 C 
HETATM   12  C   UNL     1      -7.332 -16.614 -14.972  1.00  0.00     0.002 C 
HETATM   13  C   UNL     1      -8.033 -18.746 -13.989  1.00  0.00     0.023 C 
HETATM   14  C   UNL     1     -11.290 -16.366 -11.800  1.00  0.00     0.004 C 
ENDROOT
TORSDOF 0
ENDMDL
MODEL 8
REMARK VINA RESULT:      -5.7      3.273      5.479
REMARK  0 active torsions:
REMARK  status: ('A' for Active; 'I' for Inactive)
ROOT
HETATM    1  N   UNL     1      -8.410 -16.924 -11.550  1.00  0.00    -0.372 N 
ATOM      2  HN  UNL     1      -7.958 -16.424 -10.785  1.00  0.00     0.164 HD
HETATM    3  C   UNL     1      -6.775 -18.765 -11.537  1.00  0.00     0.068 C 
HETATM    4  C   UNL     1     -11.489 -18.081 -12.714  1.00  0.00     0.023 C 
HETATM    5  O   UNL     1     -10.420 -16.146 -15.118  1.00  0.00    -0.292 OA
HETATM    6  C   UNL     1      -9.720 -16.676 -11.713  1.00  0.00     0.078 C 
HETATM    7  C   UNL     1     -10.632 -16.817 -12.873  1.00  0.00     0.056 C 
HETATM    8  C   UNL     1      -9.885 -16.768 -14.214  1.00  0.00     0.163 C 
HETATM    9  C   UNL     1      -7.546 -17.700 -13.679  1.00  0.00     0.028 C 
HETATM   10  C   UNL     1     -12.790 -16.150 -11.919  1.00  0.00     0.002 C 
HETATM   11  C   UNL     1      -8.566 -17.270 -14.489  1.00  0.00     0.053 C 
HETATM   12  C   UNL     1     -12.668 -17.658 -11.825  1.00  0.00     0.002 C 
HETATM   13  C   UNL     1     -11.658 -15.661 -12.822  1.00  0.00     0.023 C 
HETATM   14  C   UNL     1      -7.610 -17.749 -12.264  1.00  0.00     0.004 C 
ENDROOT
TORSDOF 0
ENDMDL
MODEL 9
REMARK VINA RESULT:      -5.7      2.971      4.665
REMARK  0 active torsions:
REMARK  status: ('A' for Active; 'I' for Inactive)
ROOT
HETATM    1  N   UNL     1      -6.313 -16.225 -12.466  1.00  0.00    -0.372 N 
ATOM      2  HN  UNL     1      -5.643 -15.461 -12.560  1.00  0.00     0.164 HD
HETATM    3  C   UNL     1      -5.456 -17.443 -14.426  1.00  0.00     0.068 C 
HETATM    4  C   UNL     1      -7.704 -18.470 -10.187  1.00  0.00     0.023 C 
HETATM    5  O   UNL     1     -10.285 -16.862 -11.376  1.00  0.00    -0.292 OA
HETATM    6  C   UNL     1      -6.800 -16.421 -11.230  1.00  0.00     0.078 C 
HETATM    7  C   UNL     1      -8.033 -17.072 -10.728  1.00  0.00     0.056 C 
HETATM    8  C   UNL     1      -9.155 -17.087 -11.778  1.00  0.00     0.163 C 
HETATM    9  C   UNL     1      -7.919 -17.139 -14.035  1.00  0.00     0.028 C 
HETATM   10  C   UNL     1      -7.760 -16.897  -8.298  1.00  0.00     0.002 C 
HETATM   11  C   UNL     1      -9.006 -17.217 -13.202  1.00  0.00     0.053 C 
HETATM   12  C   UNL     1      -7.225 -18.242  -8.746  1.00  0.00     0.002 C 
HETATM   13  C   UNL     1      -8.516 -16.294  -9.482  1.00  0.00     0.023 C 
HETATM   14  C   UNL     1      -6.591 -16.903 -13.603  1.00  0.00     0.004 C 
ENDROOT
TORSDOF 0
ENDMDL
