REMARK  0 active torsions:
REMARK  status: ('A' for Active; 'I' for Inactive)
ROOT
HETATM    1  C   UNL     1      -9.754 -17.516   6.697  1.00  0.00     0.095 C 
HETATM    2  C   UNL     1     -10.632 -23.550   2.325  1.00  0.00     0.017 C 
HETATM    3  C   UNL     1      -8.142 -18.082   4.979  1.00  0.00    -0.047 C 
HETATM    4  O   UNL     1      -8.391 -22.645   0.956  1.00  0.00    -0.258 OA
HETATM    5  C   UNL     1      -9.422 -18.290   5.583  1.00  0.00    -0.036 C 
HETATM    6  C   UNL     1     -10.409 -19.235   4.926  1.00  0.00     0.047 C 
HETATM    7  C   UNL     1     -10.568 -21.509   3.839  1.00  0.00     0.050 C 
HETATM    8  N   UNL     1      -8.725 -17.048   7.485  1.00  0.00    -0.375 N 
ATOM      9  HN  UNL     1      -8.894 -16.818   8.464  1.00  0.00     0.164 HD
HETATM   10  C   UNL     1      -7.263 -17.191   5.600  1.00  0.00     0.024 C 
HETATM   11  C   UNL     1      -7.489 -16.895   6.954  1.00  0.00     0.088 C 
HETATM   12  N   UNL     1      -7.931 -21.074   2.686  1.00  0.00    -0.365 N 
ATOM     13  HN  UNL     1      -6.912 -21.107   2.679  1.00  0.00     0.162 HD
HETATM   14  C   UNL     1      -9.973 -22.399   2.763  1.00  0.00    -0.006 C 
HETATM   15  C   UNL     1      -8.711 -22.088   2.188  1.00  0.00     0.154 C 
HETATM   16  C   UNL     1     -10.205 -24.189   1.165  1.00  0.00     0.083 C 
HETATM   17  O   UNL     1      -8.117 -24.788   0.202  1.00  0.00    -0.260 OA
HETATM   18  C   UNL     1      -8.792 -23.989   0.822  1.00  0.00     0.289 C 
HETATM   19  C   UNL     1      -8.697 -19.920   3.238  1.00  0.00     0.092 C 
HETATM   20  C   UNL     1      -9.596 -20.453   4.391  1.00  0.00     0.017 C 
HETATM   21  C   UNL     1      -7.688 -18.904   3.786  1.00  0.00     0.064 C 
ENDROOT
TORSDOF 0
