MODEL 1
REMARK VINA RESULT:      -7.9      0.000      0.000
REMARK  3 active torsions:
REMARK  status: ('A' for Active; 'I' for Inactive)
REMARK    1  A    between atoms: C_5  and  O_16 
REMARK    2  A    between atoms: C_5  and  O_18 
REMARK    3  A    between atoms: C_6  and  O_14 
ROOT
HETATM    1  C   UNL     1       9.991  43.776  21.944  1.00  0.00     0.102 C 
HETATM    2  C   UNL     1       9.291  45.120  21.910  1.00  0.00     0.105 C 
HETATM    3  C   UNL     1       9.824  46.593  19.857  1.00  0.00     0.008 C 
HETATM    4  C   UNL     1       9.522  46.924  18.552  1.00  0.00     0.001 C 
HETATM    5  C   UNL     1       9.692  46.032  23.055  1.00  0.00     0.177 C 
HETATM    6  C   UNL     1       8.092  44.236  18.728  1.00  0.00     0.072 C 
HETATM    7  C   UNL     1       7.975  45.190  17.722  1.00  0.00     0.037 C 
HETATM    8  N   UNL     1      11.442  44.023  21.944  1.00  0.00    -0.355 N 
ATOM      9  HN  UNL     1      12.045  43.375  21.437  1.00  0.00     0.162 HD
HETATM   10  O   UNL     1      13.252  45.117  22.699  1.00  0.00    -0.273 OA
HETATM   11  C   UNL     1      12.015  45.068  22.586  1.00  0.00     0.223 C 
HETATM   12  C   UNL     1       9.539  43.152  20.609  1.00  0.00     0.068 C 
HETATM   13  C   UNL     1      11.206  46.207  23.203  1.00  0.00     0.171 C 
HETATM   14  C   UNL     1       9.003  44.294  19.796  1.00  0.00    -0.016 C 
HETATM   15  C   UNL     1       9.292  45.492  20.479  1.00  0.00    -0.038 C 
HETATM   16  C   UNL     1       8.593  46.399  17.676  1.00  0.00     0.003 C 
ENDROOT
BRANCH   5  17
HETATM   17  O   UNL     1       9.041  47.261  22.951  1.00  0.00    -0.364 OA
ATOM     18  HO  UNL     1       9.492  47.825  22.334  1.00  0.00     0.213 HD
ENDBRANCH   5  17
BRANCH   5  19
HETATM   19  O   UNL     1       9.197  45.395  24.213  1.00  0.00    -0.364 OA
ATOM     20  HO  UNL     1       8.866  44.559  23.907  1.00  0.00     0.213 HD
ENDBRANCH   5  19
BRANCH   6  21
HETATM   21  O   UNL     1       7.216  43.190  18.695  1.00  0.00    -0.360 OA
ATOM     22  HO  UNL     1       7.322  42.517  19.358  1.00  0.00     0.217 HD
ENDBRANCH   6  21
TORSDOF 3
ENDMDL
MODEL 2
REMARK VINA RESULT:      -6.0      3.319      6.694
REMARK  3 active torsions:
REMARK  status: ('A' for Active; 'I' for Inactive)
REMARK    1  A    between atoms: C_5  and  O_16 
REMARK    2  A    between atoms: C_5  and  O_18 
REMARK    3  A    between atoms: C_6  and  O_14 
ROOT
HETATM    1  C   UNL     1       7.440  43.427  16.218  1.00  0.00     0.102 C 
HETATM    2  C   UNL     1       6.805  42.642  17.348  1.00  0.00     0.105 C 
HETATM    3  C   UNL     1       8.455  41.629  19.056  1.00  0.00     0.008 C 
HETATM    4  C   UNL     1       9.189  41.805  20.211  1.00  0.00     0.001 C 
HETATM    5  C   UNL     1       6.057  41.409  16.874  1.00  0.00     0.177 C 
HETATM    6  C   UNL     1       8.565  44.720  19.568  1.00  0.00     0.072 C 
HETATM    7  C   UNL     1       9.094  44.211  20.749  1.00  0.00     0.037 C 
HETATM    8  N   UNL     1       8.332  42.516  15.481  1.00  0.00    -0.355 N 
ATOM      9  HN  UNL     1       9.202  42.890  15.102  1.00  0.00     0.162 HD
HETATM   10  O   UNL     1       8.753  40.539  14.502  1.00  0.00    -0.273 OA
HETATM   11  C   UNL     1       8.052  41.207  15.283  1.00  0.00     0.223 C 
HETATM   12  C   UNL     1       8.251  44.487  16.989  1.00  0.00     0.068 C 
HETATM   13  C   UNL     1       6.890  40.493  15.971  1.00  0.00     0.171 C 
HETATM   14  C   UNL     1       8.338  43.977  18.397  1.00  0.00    -0.016 C 
HETATM   15  C   UNL     1       7.821  42.667  18.422  1.00  0.00    -0.038 C 
HETATM   16  C   UNL     1       9.334  42.905  21.033  1.00  0.00     0.003 C 
ENDROOT
BRANCH   5  17
HETATM   17  O   UNL     1       5.524  40.714  17.959  1.00  0.00    -0.364 OA
ATOM     18  HO  UNL     1       6.096  39.998  18.209  1.00  0.00     0.213 HD
ENDBRANCH   5  17
BRANCH   5  19
HETATM   19  O   UNL     1       4.971  41.912  16.125  1.00  0.00    -0.364 OA
ATOM     20  HO  UNL     1       4.925  42.833  16.354  1.00  0.00     0.213 HD
ENDBRANCH   5  19
BRANCH   6  21
HETATM   21  O   UNL     1       8.193  46.034  19.571  1.00  0.00    -0.360 OA
ATOM     22  HO  UNL     1       8.265  46.504  18.748  1.00  0.00     0.217 HD
ENDBRANCH   6  21
TORSDOF 3
ENDMDL
MODEL 3
REMARK VINA RESULT:      -6.0      4.870      7.867
REMARK  3 active torsions:
REMARK  status: ('A' for Active; 'I' for Inactive)
REMARK    1  A    between atoms: C_5  and  O_16 
REMARK    2  A    between atoms: C_5  and  O_18 
REMARK    3  A    between atoms: C_6  and  O_14 
ROOT
HETATM    1  C   UNL     1       6.341  39.582  16.705  1.00  0.00     0.102 C 
HETATM    2  C   UNL     1       7.202  40.767  16.316  1.00  0.00     0.105 C 
HETATM    3  C   UNL     1       7.035  42.816  17.879  1.00  0.00     0.008 C 
HETATM    4  C   UNL     1       7.486  43.452  19.017  1.00  0.00     0.001 C 
HETATM    5  C   UNL     1       6.821  41.370  14.977  1.00  0.00     0.177 C 
HETATM    6  C   UNL     1       8.551  40.646  19.558  1.00  0.00     0.072 C 
HETATM    7  C   UNL     1       8.872  41.816  20.238  1.00  0.00     0.037 C 
HETATM    8  N   UNL     1       4.937  40.024  16.702  1.00  0.00    -0.355 N 
ATOM      9  HN  UNL     1       4.304  39.638  17.403  1.00  0.00     0.162 HD
HETATM   10  O   UNL     1       3.218  41.111  15.749  1.00  0.00    -0.273 OA
HETATM   11  C   UNL     1       4.444  40.919  15.813  1.00  0.00     0.223 C 
HETATM   12  C   UNL     1       6.825  39.298  18.140  1.00  0.00     0.068 C 
HETATM   13  C   UNL     1       5.332  41.712  14.856  1.00  0.00     0.171 C 
HETATM   14  C   UNL     1       7.566  40.533  18.562  1.00  0.00    -0.016 C 
HETATM   15  C   UNL     1       7.370  41.521  17.578  1.00  0.00    -0.038 C 
HETATM   16  C   UNL     1       8.415  43.065  19.962  1.00  0.00     0.003 C 
ENDROOT
BRANCH   5  17
HETATM   17  O   UNL     1       7.625  42.473  14.691  1.00  0.00    -0.364 OA
ATOM     18  HO  UNL     1       7.466  43.172  15.314  1.00  0.00     0.213 HD
ENDBRANCH   5  17
BRANCH   5  19
HETATM   19  O   UNL     1       7.131  40.370  14.030  1.00  0.00    -0.364 OA
ATOM     20  HO  UNL     1       6.650  39.605  14.320  1.00  0.00     0.213 HD
ENDBRANCH   5  19
BRANCH   6  21
HETATM   21  O   UNL     1       9.291  39.536  19.851  1.00  0.00    -0.360 OA
ATOM     22  HO  UNL     1      10.196  39.676  20.104  1.00  0.00     0.217 HD
ENDBRANCH   6  21
TORSDOF 3
ENDMDL
MODEL 4
REMARK VINA RESULT:      -5.8      3.124      6.233
REMARK  3 active torsions:
REMARK  status: ('A' for Active; 'I' for Inactive)
REMARK    1  A    between atoms: C_5  and  O_16 
REMARK    2  A    between atoms: C_5  and  O_18 
REMARK    3  A    between atoms: C_6  and  O_14 
ROOT
HETATM    1  C   UNL     1       7.390  41.877  18.504  1.00  0.00     0.102 C 
HETATM    2  C   UNL     1       8.502  42.371  17.599  1.00  0.00     0.105 C 
HETATM    3  C   UNL     1       8.225  44.784  16.723  1.00  0.00     0.008 C 
HETATM    4  C   UNL     1       8.431  46.132  16.938  1.00  0.00     0.001 C 
HETATM    5  C   UNL     1       8.613  41.585  16.305  1.00  0.00     0.177 C 
HETATM    6  C   UNL     1       8.845  45.104  19.780  1.00  0.00     0.072 C 
HETATM    7  C   UNL     1       9.141  46.372  19.289  1.00  0.00     0.037 C 
HETATM    8  N   UNL     1       6.132  41.927  17.742  1.00  0.00    -0.355 N 
ATOM      9  HN  UNL     1       5.275  42.177  18.235  1.00  0.00     0.162 HD
HETATM   10  O   UNL     1       4.945  41.538  15.875  1.00  0.00    -0.273 OA
HETATM   11  C   UNL     1       6.057  41.656  16.418  1.00  0.00     0.223 C 
HETATM   12  C   UNL     1       7.400  42.938  19.621  1.00  0.00     0.068 C 
HETATM   13  C   UNL     1       7.292  41.470  15.538  1.00  0.00     0.171 C 
HETATM   14  C   UNL     1       8.176  44.096  19.065  1.00  0.00    -0.016 C 
HETATM   15  C   UNL     1       8.424  43.844  17.702  1.00  0.00    -0.038 C 
HETATM   16  C   UNL     1       8.983  46.803  18.011  1.00  0.00     0.003 C 
ENDROOT
BRANCH   5  17
HETATM   17  O   UNL     1       9.629  42.106  15.504  1.00  0.00    -0.364 OA
ATOM     18  HO  UNL     1      10.276  41.437  15.310  1.00  0.00     0.213 HD
ENDBRANCH   5  17
BRANCH   5  19
HETATM   19  O   UNL     1       9.017  40.292  16.703  1.00  0.00    -0.364 OA
ATOM     20  HO  UNL     1       9.966  40.311  16.660  1.00  0.00     0.213 HD
ENDBRANCH   5  19
BRANCH   6  21
HETATM   21  O   UNL     1       9.289  44.807  21.036  1.00  0.00    -0.360 OA
ATOM     22  HO  UNL     1       9.815  45.466  21.475  1.00  0.00     0.217 HD
ENDBRANCH   6  21
TORSDOF 3
ENDMDL
MODEL 5
REMARK VINA RESULT:      -5.4      4.674      8.168
REMARK  3 active torsions:
REMARK  status: ('A' for Active; 'I' for Inactive)
REMARK    1  A    between atoms: C_5  and  O_16 
REMARK    2  A    between atoms: C_5  and  O_18 
REMARK    3  A    between atoms: C_6  and  O_14 
ROOT
HETATM    1  C   UNL     1       6.151  42.701  15.299  1.00  0.00     0.102 C 
HETATM    2  C   UNL     1       5.470  41.912  16.400  1.00  0.00     0.105 C 
HETATM    3  C   UNL     1       7.008  40.331  17.742  1.00  0.00     0.008 C 
HETATM    4  C   UNL     1       7.876  40.174  18.803  1.00  0.00     0.001 C 
HETATM    5  C   UNL     1       4.416  40.950  15.882  1.00  0.00     0.177 C 
HETATM    6  C   UNL     1       7.876  43.218  18.604  1.00  0.00     0.072 C 
HETATM    7  C   UNL     1       8.390  42.440  19.635  1.00  0.00     0.037 C 
HETATM    8  N   UNL     1       6.731  41.739  14.347  1.00  0.00    -0.355 N 
ATOM      9  HN  UNL     1       7.621  41.969  13.904  1.00  0.00     0.162 HD
HETATM   10  O   UNL     1       6.586  39.883  13.090  1.00  0.00    -0.273 OA
HETATM   11  C   UNL     1       6.140  40.563  14.031  1.00  0.00     0.223 C 
HETATM   12  C   UNL     1       7.257  43.438  16.078  1.00  0.00     0.068 C 
HETATM   13  C   UNL     1       4.921  40.020  14.775  1.00  0.00     0.171 C 
HETATM   14  C   UNL     1       7.366  42.720  17.391  1.00  0.00    -0.016 C 
HETATM   15  C   UNL     1       6.569  41.561  17.326  1.00  0.00    -0.038 C 
HETATM   16  C   UNL     1       8.351  41.085  19.725  1.00  0.00     0.003 C 
ENDROOT
BRANCH   5  17
HETATM   17  O   UNL     1       3.850  40.234  16.936  1.00  0.00    -0.364 OA
ATOM     18  HO  UNL     1       3.629  40.816  17.653  1.00  0.00     0.213 HD
ENDBRANCH   5  17
BRANCH   5  19
HETATM   19  O   UNL     1       3.404  41.778  15.349  1.00  0.00    -0.364 OA
ATOM     20  HO  UNL     1       3.159  41.363  14.531  1.00  0.00     0.213 HD
ENDBRANCH   5  19
BRANCH   6  21
HETATM   21  O   UNL     1       7.817  44.565  18.813  1.00  0.00    -0.360 OA
ATOM     22  HO  UNL     1       8.028  44.875  19.686  1.00  0.00     0.217 HD
ENDBRANCH   6  21
TORSDOF 3
ENDMDL
MODEL 6
REMARK VINA RESULT:      -5.3      3.972      6.696
REMARK  3 active torsions:
REMARK  status: ('A' for Active; 'I' for Inactive)
REMARK    1  A    between atoms: C_5  and  O_16 
REMARK    2  A    between atoms: C_5  and  O_18 
REMARK    3  A    between atoms: C_6  and  O_14 
ROOT
HETATM    1  C   UNL     1       7.143  41.703  18.549  1.00  0.00     0.102 C 
HETATM    2  C   UNL     1       8.045  41.844  17.339  1.00  0.00     0.105 C 
HETATM    3  C   UNL     1       7.367  43.687  15.662  1.00  0.00     0.008 C 
HETATM    4  C   UNL     1       7.447  45.016  15.297  1.00  0.00     0.001 C 
HETATM    5  C   UNL     1       8.054  40.611  16.453  1.00  0.00     0.177 C 
HETATM    6  C   UNL     1       8.389  45.236  18.189  1.00  0.00     0.072 C 
HETATM    7  C   UNL     1       8.462  46.212  17.201  1.00  0.00     0.037 C 
HETATM    8  N   UNL     1       5.789  41.384  18.067  1.00  0.00    -0.355 N 
ATOM      9  HN  UNL     1       4.990  41.771  18.571  1.00  0.00     0.162 HD
HETATM   10  O   UNL     1       4.393  40.224  16.745  1.00  0.00    -0.273 OA
HETATM   11  C   UNL     1       5.552  40.602  16.989  1.00  0.00     0.223 C 
HETATM   12  C   UNL     1       7.194  43.123  19.146  1.00  0.00     0.068 C 
HETATM   13  C   UNL     1       6.657  40.136  16.042  1.00  0.00     0.171 C 
HETATM   14  C   UNL     1       7.742  43.995  18.054  1.00  0.00    -0.016 C 
HETATM   15  C   UNL     1       7.814  43.229  16.875  1.00  0.00    -0.038 C 
HETATM   16  C   UNL     1       8.069  46.086  15.907  1.00  0.00     0.003 C 
ENDROOT
BRANCH   5  17
HETATM   17  O   UNL     1       8.875  40.813  15.343  1.00  0.00    -0.364 OA
ATOM     18  HO  UNL     1       8.363  40.792  14.543  1.00  0.00     0.213 HD
ENDBRANCH   5  17
BRANCH   5  19
HETATM   19  O   UNL     1       8.658  39.607  17.240  1.00  0.00    -0.364 OA
ATOM     20  HO  UNL     1       7.962  38.983  17.412  1.00  0.00     0.213 HD
ENDBRANCH   5  19
BRANCH   6  21
HETATM   21  O   UNL     1       9.043  45.489  19.360  1.00  0.00    -0.360 OA
ATOM     22  HO  UNL     1       9.533  46.302  19.413  1.00  0.00     0.217 HD
ENDBRANCH   6  21
TORSDOF 3
ENDMDL
MODEL 7
REMARK VINA RESULT:      -5.2      3.881      6.220
REMARK  3 active torsions:
REMARK  status: ('A' for Active; 'I' for Inactive)
REMARK    1  A    between atoms: C_5  and  O_16 
REMARK    2  A    between atoms: C_5  and  O_18 
REMARK    3  A    between atoms: C_6  and  O_14 
ROOT
HETATM    1  C   UNL     1       7.524  41.317  18.899  1.00  0.00     0.102 C 
HETATM    2  C   UNL     1       8.863  41.537  18.222  1.00  0.00     0.105 C 
HETATM    3  C   UNL     1       8.803  43.023  16.111  1.00  0.00     0.008 C 
HETATM    4  C   UNL     1       8.849  44.297  15.582  1.00  0.00     0.001 C 
HETATM    5  C   UNL     1       9.477  40.259  17.681  1.00  0.00     0.177 C 
HETATM    6  C   UNL     1       8.250  44.987  18.492  1.00  0.00     0.072 C 
HETATM    7  C   UNL     1       8.640  45.858  17.481  1.00  0.00     0.037 C 
HETATM    8  N   UNL     1       6.629  40.666  17.928  1.00  0.00    -0.355 N 
ATOM      9  HN  UNL     1       5.640  40.914  17.937  1.00  0.00     0.162 HD
HETATM   10  O   UNL     1       6.225  39.111  16.359  1.00  0.00    -0.273 OA
HETATM   11  C   UNL     1       7.056  39.753  17.024  1.00  0.00     0.223 C 
HETATM   12  C   UNL     1       7.073  42.763  19.181  1.00  0.00     0.068 C 
HETATM   13  C   UNL     1       8.534  39.454  16.781  1.00  0.00     0.171 C 
HETATM   14  C   UNL     1       7.939  43.628  18.313  1.00  0.00    -0.016 C 
HETATM   15  C   UNL     1       8.679  42.789  17.457  1.00  0.00    -0.038 C 
HETATM   16  C   UNL     1       8.937  45.529  16.197  1.00  0.00     0.003 C 
ENDROOT
BRANCH   5  17
HETATM   17  O   UNL     1      10.687  40.531  17.044  1.00  0.00    -0.364 OA
ATOM     18  HO  UNL     1      10.537  40.986  16.224  1.00  0.00     0.213 HD
ENDBRANCH   5  17
BRANCH   5  19
HETATM   19  O   UNL     1       9.773  39.489  18.826  1.00  0.00    -0.364 OA
ATOM     20  HO  UNL     1      10.709  39.589  18.951  1.00  0.00     0.213 HD
ENDBRANCH   5  19
BRANCH   6  21
HETATM   21  O   UNL     1       8.220  45.485  19.762  1.00  0.00    -0.360 OA
ATOM     22  HO  UNL     1       7.792  46.325  19.886  1.00  0.00     0.217 HD
ENDBRANCH   6  21
TORSDOF 3
ENDMDL
MODEL 8
REMARK VINA RESULT:      -5.2      4.068      7.423
REMARK  3 active torsions:
REMARK  status: ('A' for Active; 'I' for Inactive)
REMARK    1  A    between atoms: C_5  and  O_16 
REMARK    2  A    between atoms: C_5  and  O_18 
REMARK    3  A    between atoms: C_6  and  O_14 
ROOT
HETATM    1  C   UNL     1       6.263  41.241  16.564  1.00  0.00     0.102 C 
HETATM    2  C   UNL     1       7.580  41.836  16.105  1.00  0.00     0.105 C 
HETATM    3  C   UNL     1       7.812  44.388  16.427  1.00  0.00     0.008 C 
HETATM    4  C   UNL     1       8.164  45.429  17.261  1.00  0.00     0.001 C 
HETATM    5  C   UNL     1       7.813  41.692  14.612  1.00  0.00     0.177 C 
HETATM    6  C   UNL     1       7.903  43.201  19.327  1.00  0.00     0.072 C 
HETATM    7  C   UNL     1       8.460  44.462  19.512  1.00  0.00     0.037 C 
HETATM    8  N   UNL     1       5.185  41.881  15.793  1.00  0.00    -0.355 N 
ATOM      9  HN  UNL     1       4.297  42.064  16.260  1.00  0.00     0.162 HD
HETATM   10  O   UNL     1       4.316  42.606  13.854  1.00  0.00    -0.273 OA
HETATM   11  C   UNL     1       5.316  42.239  14.495  1.00  0.00     0.223 C 
HETATM   12  C   UNL     1       6.219  41.678  18.042  1.00  0.00     0.068 C 
HETATM   13  C   UNL     1       6.652  42.203  13.754  1.00  0.00     0.171 C 
HETATM   14  C   UNL     1       7.239  42.771  18.165  1.00  0.00    -0.016 C 
HETATM   15  C   UNL     1       7.694  43.096  16.872  1.00  0.00    -0.038 C 
HETATM   16  C   UNL     1       8.600  45.431  18.571  1.00  0.00     0.003 C 
ENDROOT
BRANCH   5  17
HETATM   17  O   UNL     1       9.022  42.285  14.248  1.00  0.00    -0.364 OA
ATOM     18  HO  UNL     1       9.562  41.670  13.766  1.00  0.00     0.213 HD
ENDBRANCH   5  17
BRANCH   5  19
HETATM   19  O   UNL     1       7.951  40.303  14.402  1.00  0.00    -0.364 OA
ATOM     20  HO  UNL     1       8.435  39.990  15.157  1.00  0.00     0.213 HD
ENDBRANCH   5  19
BRANCH   6  21
HETATM   21  O   UNL     1       8.063  42.298  20.339  1.00  0.00    -0.360 OA
ATOM     22  HO  UNL     1       8.912  42.274  20.765  1.00  0.00     0.217 HD
ENDBRANCH   6  21
TORSDOF 3
ENDMDL
MODEL 9
REMARK VINA RESULT:      -5.1      4.968      6.778
REMARK  3 active torsions:
REMARK  status: ('A' for Active; 'I' for Inactive)
REMARK    1  A    between atoms: C_5  and  O_16 
REMARK    2  A    between atoms: C_5  and  O_18 
REMARK    3  A    between atoms: C_6  and  O_14 
ROOT
HETATM    1  C   UNL     1       8.813  39.833  16.600  1.00  0.00     0.102 C 
HETATM    2  C   UNL     1       7.449  40.424  16.897  1.00  0.00     0.105 C 
HETATM    3  C   UNL     1       7.385  42.148  18.819  1.00  0.00     0.008 C 
HETATM    4  C   UNL     1       7.527  43.464  19.207  1.00  0.00     0.001 C 
HETATM    5  C   UNL     1       6.441  39.394  17.373  1.00  0.00     0.177 C 
HETATM    6  C   UNL     1       8.913  43.593  16.494  1.00  0.00     0.072 C 
HETATM    7  C   UNL     1       8.525  44.661  17.295  1.00  0.00     0.037 C 
HETATM    8  N   UNL     1       9.284  39.152  17.818  1.00  0.00    -0.355 N 
ATOM      9  HN  UNL     1      10.279  39.182  18.037  1.00  0.00     0.162 HD
HETATM   10  O   UNL     1       8.940  37.784  19.566  1.00  0.00    -0.273 OA
HETATM   11  C   UNL     1       8.459  38.487  18.660  1.00  0.00     0.223 C 
HETATM   12  C   UNL     1       9.649  41.096  16.318  1.00  0.00     0.068 C 
HETATM   13  C   UNL     1       6.936  38.544  18.547  1.00  0.00     0.171 C 
HETATM   14  C   UNL     1       8.842  42.238  16.862  1.00  0.00    -0.016 C 
HETATM   15  C   UNL     1       7.750  41.704  17.573  1.00  0.00    -0.038 C 
HETATM   16  C   UNL     1       7.876  44.588  18.486  1.00  0.00     0.003 C 
ENDROOT
BRANCH   5  17
HETATM   17  O   UNL     1       5.219  40.003  17.659  1.00  0.00    -0.364 OA
ATOM     18  HO  UNL     1       5.142  40.173  18.590  1.00  0.00     0.213 HD
ENDBRANCH   5  17
BRANCH   5  19
HETATM   19  O   UNL     1       6.236  38.550  16.260  1.00  0.00    -0.364 OA
ATOM     20  HO  UNL     1       7.012  38.664  15.724  1.00  0.00     0.213 HD
ENDBRANCH   5  19
BRANCH   6  21
HETATM   21  O   UNL     1       9.348  43.888  15.234  1.00  0.00    -0.360 OA
ATOM     22  HO  UNL     1       8.742  44.349  14.666  1.00  0.00     0.217 HD
ENDBRANCH   6  21
TORSDOF 3
ENDMDL
