REMARK  8 active torsions:
REMARK  status: ('A' for Active; 'I' for Inactive)
REMARK    1  A    between atoms: O_2  and  C_3 
REMARK    2  A    between atoms: O_2  and  O_16 
REMARK    3  A    between atoms: C_3  and  O_10 
REMARK    4  A    between atoms: C_3  and  C_17 
REMARK    5  A    between atoms: N_4  and  C_20 
REMARK    6  A    between atoms: O_7  and  C_15 
REMARK    7  A    between atoms: C_8  and  O_16 
REMARK    8  A    between atoms: C_19  and  C_20 
ROOT
HETATM    1  C   UNL     1      23.280  -6.886  18.837  1.00  0.00     0.015 C 
HETATM    2  O   UNL     1      21.852  -4.460  19.036  1.00  0.00     0.000 OA
HETATM    3  C   UNL     1      21.611  -6.284  16.986  1.00  0.00     0.199 A 
HETATM    4  C   UNL     1      22.821  -4.845  19.998  1.00  0.00     0.009 C 
HETATM    5  C   UNL     1      22.146  -6.637  18.005  1.00  0.00    -0.039 A 
HETATM    6  C   UNL     1      23.741  -5.829  19.603  1.00  0.00    -0.034 C 
HETATM    7  C   UNL     1      21.231  -5.516  18.239  1.00  0.00     0.065 A 
ENDROOT
BRANCH   3   8
HETATM    8  O   UNL     1      21.717  -5.834  15.669  1.00  0.00    -0.227 OA
BRANCH   8   9
HETATM    9  O   UNL     1      22.593  -6.284  14.684  1.00  0.00    -0.196 OA
BRANCH   9  10
HETATM   10  C   UNL     1      23.799  -5.523  14.331  1.00  0.00     0.396 C 
BRANCH  10  11
HETATM   11  O   UNL     1      24.765  -5.769  15.351  1.00  0.00    -0.360 OA
ATOM     12  HO  UNL     1      25.545  -5.277  15.123  1.00  0.00     0.213 HD
ENDBRANCH  10  11
BRANCH  10  13
HETATM   13  C   UNL     1      23.874  -3.988  14.012  1.00  0.00     0.233 C 
HETATM   14  O   UNL     1      22.590  -3.415  14.109  1.00  0.00    -0.644 OA
HETATM   15  O   UNL     1      24.707  -2.858  14.197  1.00  0.00    -0.644 OA
ENDBRANCH  10  13
ENDBRANCH   9  10
ENDBRANCH   8   9
ENDBRANCH   3   8
BRANCH   2  16
HETATM   16  C   UNL     1      21.181  -3.192  19.023  1.00  0.00     0.279 C 
HETATM   17  O   UNL     1      20.525  -2.871  18.009  1.00  0.00    -0.639 OA
HETATM   18  O   UNL     1      21.259  -2.474  20.043  1.00  0.00    -0.639 OA
ENDBRANCH   2  16
BRANCH   6  19
HETATM   19  C   UNL     1      25.181  -5.780  20.065  1.00  0.00     0.239 C 
BRANCH  19  20
HETATM   20  N   UNL     1      25.963  -5.205  18.991  1.00  0.00    -0.151 N 
HETATM   21  O   UNL     1      25.922  -5.632  17.824  1.00  0.00    -0.536 OA
HETATM   22  O   UNL     1      26.626  -4.131  19.207  1.00  0.00    -0.536 OA
ENDBRANCH  19  20
ENDBRANCH   6  19
TORSDOF 8
