MODEL 1
REMARK VINA RESULT:      -9.7      0.000      0.000
REMARK  2 active torsions:
REMARK  status: ('A' for Active; 'I' for Inactive)
REMARK    1  A    between atoms: C_1  and  O_10 
REMARK    2  A    between atoms: C_1  and  O_18 
ROOT
HETATM    1  C   UNL     1      16.494  94.709  43.717  1.00  0.00     0.167 C 
HETATM    2  N   UNL     1      22.895  92.794  44.254  1.00  0.00    -0.333 N 
ATOM      3  HN  UNL     1      23.894  92.604  44.327  1.00  0.00     0.168 HD
HETATM    4  C   UNL     1      22.107  91.722  44.062  1.00  0.00     0.245 C 
HETATM    5  C   UNL     1      21.314  94.716  44.339  1.00  0.00    -0.010 C 
HETATM    6  C   UNL     1      20.992  91.901  43.206  1.00  0.00     0.075 C 
HETATM    7  C   UNL     1      22.538  94.075  44.361  1.00  0.00     0.103 C 
HETATM    8  C   UNL     1      17.590  93.997  44.539  1.00  0.00     0.108 C 
HETATM    9  C   UNL     1      18.534  95.937  43.578  1.00  0.00    -0.046 C 
HETATM   10  C   UNL     1      20.604  97.103  44.142  1.00  0.00     0.002 C 
HETATM   11  C   UNL     1      21.398  96.081  44.573  1.00  0.00     0.013 C 
HETATM   12  O   UNL     1      22.395  90.612  44.520  1.00  0.00    -0.268 OA
HETATM   13  C   UNL     1      20.092  92.916  43.211  1.00  0.00     0.018 C 
HETATM   14  C   UNL     1      17.164  95.890  43.004  1.00  0.00     0.107 C 
HETATM   15  C   UNL     1      19.312  97.075  43.686  1.00  0.00     0.008 C 
HETATM   16  C   UNL     1      18.852  94.725  44.169  1.00  0.00    -0.035 C 
HETATM   17  C   UNL     1      20.102  94.119  43.938  1.00  0.00    -0.017 C 
ENDROOT
BRANCH   1  18
HETATM   18  O   UNL     1      15.933  93.798  42.808  1.00  0.00    -0.365 OA
ATOM     19  HO  UNL     1      16.584  93.145  42.579  1.00  0.00     0.213 HD
ENDBRANCH   1  18
BRANCH   1  20
HETATM   20  O   UNL     1      15.423  95.200  44.458  1.00  0.00    -0.365 OA
ATOM     21  HO  UNL     1      14.916  94.543  44.919  1.00  0.00     0.213 HD
ENDBRANCH   1  20
TORSDOF 2
ENDMDL
MODEL 2
REMARK VINA RESULT:      -9.6      1.979      5.076
REMARK  2 active torsions:
REMARK  status: ('A' for Active; 'I' for Inactive)
REMARK    1  A    between atoms: C_1  and  O_10 
REMARK    2  A    between atoms: C_1  and  O_18 
ROOT
HETATM    1  C   UNL     1      21.553  92.064  43.640  1.00  0.00     0.167 C 
HETATM    2  N   UNL     1      17.153  97.070  44.356  1.00  0.00    -0.333 N 
ATOM      3  HN  UNL     1      16.564  97.892  44.494  1.00  0.00     0.168 HD
HETATM    4  C   UNL     1      16.503  95.903  44.207  1.00  0.00     0.245 C 
HETATM    5  C   UNL     1      19.561  96.466  44.172  1.00  0.00    -0.010 C 
HETATM    6  C   UNL     1      17.107  94.763  44.795  1.00  0.00     0.075 C 
HETATM    7  C   UNL     1      18.468  97.292  44.348  1.00  0.00     0.103 C 
HETATM    8  C   UNL     1      20.471  92.968  43.007  1.00  0.00     0.108 C 
HETATM    9  C   UNL     1      21.810  94.302  44.422  1.00  0.00    -0.046 C 
HETATM   10  C   UNL     1      22.019  96.733  44.527  1.00  0.00     0.002 C 
HETATM   11  C   UNL     1      20.773  97.143  44.156  1.00  0.00     0.013 C 
HETATM   12  O   UNL     1      15.388  95.841  43.680  1.00  0.00    -0.268 OA
HETATM   13  C   UNL     1      18.405  94.376  44.720  1.00  0.00     0.018 C 
HETATM   14  C   UNL     1      22.323  92.926  44.648  1.00  0.00     0.107 C 
HETATM   15  C   UNL     1      22.521  95.464  44.659  1.00  0.00     0.008 C 
HETATM   16  C   UNL     1      20.594  94.263  43.759  1.00  0.00    -0.035 C 
HETATM   17  C   UNL     1      19.514  95.057  44.191  1.00  0.00    -0.017 C 
ENDROOT
BRANCH   1  18
HETATM   18  O   UNL     1      20.933  90.966  44.257  1.00  0.00    -0.365 OA
ATOM     19  HO  UNL     1      21.559  90.256  44.331  1.00  0.00     0.213 HD
ENDBRANCH   1  18
BRANCH   1  20
HETATM   20  O   UNL     1      22.468  91.519  42.744  1.00  0.00    -0.365 OA
ATOM     21  HO  UNL     1      23.358  91.839  42.832  1.00  0.00     0.213 HD
ENDBRANCH   1  20
TORSDOF 2
ENDMDL
MODEL 3
REMARK VINA RESULT:      -9.0      2.239      3.637
REMARK  2 active torsions:
REMARK  status: ('A' for Active; 'I' for Inactive)
REMARK    1  A    between atoms: C_1  and  O_10 
REMARK    2  A    between atoms: C_1  and  O_18 
ROOT
HETATM    1  C   UNL     1      16.860  95.260  43.382  1.00  0.00     0.167 C 
HETATM    2  N   UNL     1      23.383  96.040  44.715  1.00  0.00    -0.333 N 
ATOM      3  HN  UNL     1      24.380  96.055  44.929  1.00  0.00     0.168 HD
HETATM    4  C   UNL     1      22.764  97.234  44.723  1.00  0.00     0.245 C 
HETATM    5  C   UNL     1      21.590  94.418  44.119  1.00  0.00    -0.010 C 
HETATM    6  C   UNL     1      21.441  97.257  45.229  1.00  0.00     0.075 C 
HETATM    7  C   UNL     1      22.860  94.839  44.462  1.00  0.00     0.103 C 
HETATM    8  C   UNL     1      18.246  95.766  42.925  1.00  0.00     0.108 C 
HETATM    9  C   UNL     1      18.544  93.701  44.031  1.00  0.00    -0.046 C 
HETATM   10  C   UNL     1      20.463  92.191  44.017  1.00  0.00     0.002 C 
HETATM   11  C   UNL     1      21.505  93.057  43.863  1.00  0.00     0.013 C 
HETATM   12  O   UNL     1      23.351  98.274  44.408  1.00  0.00    -0.268 OA
HETATM   13  C   UNL     1      20.421  96.412  44.936  1.00  0.00     0.018 C 
HETATM   14  C   UNL     1      17.096  93.989  44.206  1.00  0.00     0.107 C 
HETATM   15  C   UNL     1      19.119  92.446  44.098  1.00  0.00     0.008 C 
HETATM   16  C   UNL     1      19.213  94.835  43.600  1.00  0.00    -0.035 C 
HETATM   17  C   UNL     1      20.432  95.219  44.192  1.00  0.00    -0.017 C 
ENDROOT
BRANCH   1  18
HETATM   18  O   UNL     1      16.229  96.263  44.136  1.00  0.00    -0.365 OA
ATOM     19  HO  UNL     1      15.995  96.983  43.563  1.00  0.00     0.213 HD
ENDBRANCH   1  18
BRANCH   1  20
HETATM   20  O   UNL     1      15.973  94.955  42.355  1.00  0.00    -0.365 OA
ATOM     21  HO  UNL     1      16.124  95.418  41.540  1.00  0.00     0.213 HD
ENDBRANCH   1  20
TORSDOF 2
ENDMDL
MODEL 4
REMARK VINA RESULT:      -7.3      2.929      4.354
REMARK  2 active torsions:
REMARK  status: ('A' for Active; 'I' for Inactive)
REMARK    1  A    between atoms: C_1  and  O_10 
REMARK    2  A    between atoms: C_1  and  O_18 
ROOT
HETATM    1  C   UNL     1      22.729  97.486  44.736  1.00  0.00     0.167 C 
HETATM    2  N   UNL     1      20.070  91.432  43.643  1.00  0.00    -0.333 N 
ATOM      3  HN  UNL     1      19.583  90.542  43.533  1.00  0.00     0.168 HD
HETATM    4  C   UNL     1      21.359  91.444  43.265  1.00  0.00     0.245 C 
HETATM    5  C   UNL     1      19.628  93.758  44.412  1.00  0.00    -0.010 C 
HETATM    6  C   UNL     1      22.242  92.226  44.052  1.00  0.00     0.075 C 
HETATM    7  C   UNL     1      19.344  92.433  44.142  1.00  0.00     0.103 C 
HETATM    8  C   UNL     1      22.243  96.425  43.724  1.00  0.00     0.108 C 
HETATM    9  C   UNL     1      20.727  96.466  45.534  1.00  0.00    -0.046 C 
HETATM   10  C   UNL     1      18.464  95.563  45.689  1.00  0.00     0.002 C 
HETATM   11  C   UNL     1      18.531  94.482  44.859  1.00  0.00     0.013 C 
HETATM   12  O   UNL     1      21.776  90.730  42.348  1.00  0.00    -0.268 OA
HETATM   13  C   UNL     1      22.063  93.497  44.490  1.00  0.00     0.018 C 
HETATM   14  C   UNL     1      21.803  97.402  45.954  1.00  0.00     0.107 C 
HETATM   15  C   UNL     1      19.431  96.476  46.017  1.00  0.00     0.008 C 
HETATM   16  C   UNL     1      21.143  95.706  44.452  1.00  0.00    -0.035 C 
HETATM   17  C   UNL     1      20.922  94.316  44.424  1.00  0.00    -0.017 C 
ENDROOT
BRANCH   1  18
HETATM   18  O   UNL     1      24.066  97.223  45.075  1.00  0.00    -0.365 OA
ATOM     19  HO  UNL     1      24.599  97.974  44.846  1.00  0.00     0.213 HD
ENDBRANCH   1  18
BRANCH   1  20
HETATM   20  O   UNL     1      22.716  98.798  44.270  1.00  0.00    -0.365 OA
ATOM     21  HO  UNL     1      22.615  99.463  44.939  1.00  0.00     0.213 HD
ENDBRANCH   1  20
TORSDOF 2
ENDMDL
