MODEL 1
REMARK VINA RESULT:      -7.9      0.000      0.000
REMARK  2 active torsions:
REMARK  status: ('A' for Active; 'I' for Inactive)
REMARK    1  A    between atoms: N_1  and  C_10 
REMARK    2  A    between atoms: C_11  and  C_17 
ROOT
HETATM    1  C   UNL     1      21.635  95.959  45.282  1.00  0.00     0.165 A 
HETATM    2  C   UNL     1      20.349  92.901  43.519  1.00  0.00     0.042 C 
HETATM    3  C   UNL     1      21.106  91.758  43.214  1.00  0.00     0.026 C 
HETATM    4  C   UNL     1      20.552  95.321  44.484  1.00  0.00     0.032 A 
HETATM    5  C   UNL     1      21.005  93.971  44.106  1.00  0.00    -0.013 A 
HETATM    6  C   UNL     1      22.798  94.992  45.335  1.00  0.00     0.123 A 
HETATM    7  C   UNL     1      22.502  91.830  43.216  1.00  0.00     0.029 C 
HETATM    8  C   UNL     1      22.334  93.828  44.516  1.00  0.00    -0.040 A 
HETATM    9  O   UNL     1      21.617  97.069  45.754  1.00  0.00    -0.292 OA
HETATM   10  C   UNL     1      23.106  92.798  44.011  1.00  0.00     0.011 C 
ENDROOT
BRANCH   4  11
HETATM   11  C   UNL     1      19.141  95.748  44.654  1.00  0.00    -0.015 C 
HETATM   12  C   UNL     1      18.572  96.784  43.919  1.00  0.00    -0.051 C 
HETATM   13  C   UNL     1      17.183  96.893  43.858  1.00  0.00     0.007 C 
HETATM   14  C   UNL     1      19.444  97.781  43.204  1.00  0.00     0.049 C 
HETATM   15  C   UNL     1      16.402  96.191  44.770  1.00  0.00     0.001 C 
HETATM   16  C   UNL     1      16.999  95.334  45.678  1.00  0.00     0.001 C 
HETATM   17  C   UNL     1      18.357  95.065  45.575  1.00  0.00     0.013 C 
ENDBRANCH   4  11
BRANCH   3  18
HETATM   18  N   UNL     1      20.528  90.570  42.916  1.00  0.00    -0.399 N 
ATOM     19  HN2 UNL     1      19.535  90.454  43.118  1.00  0.00     0.156 HD
ATOM     20  HN1 UNL     1      21.053  89.802  42.499  1.00  0.00     0.156 HD
ENDBRANCH   3  18
TORSDOF 2
ENDMDL
MODEL 2
REMARK VINA RESULT:      -6.8      1.755      5.089
REMARK  2 active torsions:
REMARK  status: ('A' for Active; 'I' for Inactive)
REMARK    1  A    between atoms: N_1  and  C_10 
REMARK    2  A    between atoms: C_11  and  C_17 
ROOT
HETATM    1  C   UNL     1      20.726  96.395  44.121  1.00  0.00     0.165 A 
HETATM    2  C   UNL     1      17.670  94.262  43.641  1.00  0.00     0.042 C 
HETATM    3  C   UNL     1      16.356  94.741  43.509  1.00  0.00     0.026 C 
HETATM    4  C   UNL     1      20.113  95.038  44.150  1.00  0.00     0.032 A 
HETATM    5  C   UNL     1      18.671  95.188  43.890  1.00  0.00    -0.013 A 
HETATM    6  C   UNL     1      19.614  97.397  43.898  1.00  0.00     0.123 A 
HETATM    7  C   UNL     1      16.046  96.039  43.924  1.00  0.00     0.029 C 
HETATM    8  C   UNL     1      18.378  96.554  43.843  1.00  0.00    -0.040 A 
HETATM    9  O   UNL     1      21.889  96.658  44.301  1.00  0.00    -0.292 OA
HETATM   10  C   UNL     1      17.066  96.983  43.936  1.00  0.00     0.011 C 
ENDROOT
BRANCH   4  11
HETATM   11  C   UNL     1      20.930  93.837  43.847  1.00  0.00    -0.015 C 
HETATM   12  C   UNL     1      22.179  93.609  44.420  1.00  0.00    -0.051 C 
HETATM   13  C   UNL     1      22.720  92.325  44.385  1.00  0.00     0.007 C 
HETATM   14  C   UNL     1      22.941  94.738  45.062  1.00  0.00     0.049 C 
HETATM   15  C   UNL     1      22.182  91.380  43.518  1.00  0.00     0.001 C 
HETATM   16  C   UNL     1      21.071  91.694  42.755  1.00  0.00     0.001 C 
HETATM   17  C   UNL     1      20.410  92.895  42.969  1.00  0.00     0.013 C 
ENDBRANCH   4  11
BRANCH   3  18
HETATM   18  N   UNL     1      15.364  93.982  42.986  1.00  0.00    -0.399 N 
ATOM     19  HN2 UNL     1      15.549  92.993  42.821  1.00  0.00     0.156 HD
ATOM     20  HN1 UNL     1      14.448  94.370  42.758  1.00  0.00     0.156 HD
ENDBRANCH   3  18
TORSDOF 2
ENDMDL
MODEL 3
REMARK VINA RESULT:      -6.6      2.678      3.605
REMARK  2 active torsions:
REMARK  status: ('A' for Active; 'I' for Inactive)
REMARK    1  A    between atoms: N_1  and  C_10 
REMARK    2  A    between atoms: C_11  and  C_17 
ROOT
HETATM    1  C   UNL     1      19.379  93.206  44.019  1.00  0.00     0.165 A 
HETATM    2  C   UNL     1      20.853  96.619  44.564  1.00  0.00     0.042 C 
HETATM    3  C   UNL     1      22.225  96.914  44.619  1.00  0.00     0.026 C 
HETATM    4  C   UNL     1      19.169  94.627  44.417  1.00  0.00     0.032 A 
HETATM    5  C   UNL     1      20.484  95.290  44.433  1.00  0.00    -0.013 A 
HETATM    6  C   UNL     1      20.868  92.992  43.849  1.00  0.00     0.123 A 
HETATM    7  C   UNL     1      23.146  95.888  44.847  1.00  0.00     0.029 C 
HETATM    8  C   UNL     1      21.464  94.319  44.201  1.00  0.00    -0.040 A 
HETATM    9  O   UNL     1      18.525  92.361  43.907  1.00  0.00    -0.292 OA
HETATM   10  C   UNL     1      22.789  94.595  44.480  1.00  0.00     0.011 C 
ENDROOT
BRANCH   4  11
HETATM   11  C   UNL     1      17.864  95.290  44.176  1.00  0.00    -0.015 C 
HETATM   12  C   UNL     1      17.463  96.437  44.854  1.00  0.00    -0.051 C 
HETATM   13  C   UNL     1      16.420  97.205  44.338  1.00  0.00     0.007 C 
HETATM   14  C   UNL     1      18.142  96.842  46.136  1.00  0.00     0.049 C 
HETATM   15  C   UNL     1      15.591  96.662  43.361  1.00  0.00     0.001 C 
HETATM   16  C   UNL     1      15.851  95.400  42.856  1.00  0.00     0.001 C 
HETATM   17  C   UNL     1      17.021  94.746  43.215  1.00  0.00     0.013 C 
ENDBRANCH   4  11
BRANCH   3  18
HETATM   18  N   UNL     1      22.697  98.172  44.456  1.00  0.00    -0.399 N 
ATOM     19  HN2 UNL     1      23.549  98.300  43.909  1.00  0.00     0.156 HD
ATOM     20  HN1 UNL     1      22.228  98.984  44.858  1.00  0.00     0.156 HD
ENDBRANCH   3  18
TORSDOF 2
ENDMDL
MODEL 4
REMARK VINA RESULT:      -6.5      2.510      3.332
REMARK  2 active torsions:
REMARK  status: ('A' for Active; 'I' for Inactive)
REMARK    1  A    between atoms: N_1  and  C_10 
REMARK    2  A    between atoms: C_11  and  C_17 
ROOT
HETATM    1  C   UNL     1      18.665  93.167  43.919  1.00  0.00     0.165 A 
HETATM    2  C   UNL     1      21.286  95.765  44.630  1.00  0.00     0.042 C 
HETATM    3  C   UNL     1      22.674  95.552  44.593  1.00  0.00     0.026 C 
HETATM    4  C   UNL     1      18.997  94.518  44.455  1.00  0.00     0.032 A 
HETATM    5  C   UNL     1      20.461  94.672  44.416  1.00  0.00    -0.013 A 
HETATM    6  C   UNL     1      19.969  92.466  43.606  1.00  0.00     0.123 A 
HETATM    7  C   UNL     1      23.178  94.250  44.651  1.00  0.00     0.029 C 
HETATM    8  C   UNL     1      21.016  93.452  44.018  1.00  0.00    -0.040 A 
HETATM    9  O   UNL     1      17.562  92.693  43.808  1.00  0.00    -0.292 OA
HETATM   10  C   UNL     1      22.365  93.213  44.206  1.00  0.00     0.011 C 
ENDROOT
BRANCH   4  11
HETATM   11  C   UNL     1      18.004  95.618  44.384  1.00  0.00    -0.015 C 
HETATM   12  C   UNL     1      18.138  96.804  45.102  1.00  0.00    -0.051 C 
HETATM   13  C   UNL     1      17.391  97.918  44.724  1.00  0.00     0.007 C 
HETATM   14  C   UNL     1      19.073  96.880  46.280  1.00  0.00     0.049 C 
HETATM   15  C   UNL     1      16.305  97.754  43.869  1.00  0.00     0.001 C 
HETATM   16  C   UNL     1      16.021  96.506  43.342  1.00  0.00     0.001 C 
HETATM   17  C   UNL     1      16.907  95.458  43.547  1.00  0.00     0.013 C 
ENDBRANCH   4  11
BRANCH   3  18
HETATM   18  N   UNL     1      23.556  96.575  44.499  1.00  0.00    -0.399 N 
ATOM     19  HN2 UNL     1      23.585  97.108  43.629  1.00  0.00     0.156 HD
ATOM     20  HN1 UNL     1      24.181  96.824  45.266  1.00  0.00     0.156 HD
ENDBRANCH   3  18
TORSDOF 2
ENDMDL
MODEL 5
REMARK VINA RESULT:      -6.4      2.038      5.058
REMARK  2 active torsions:
REMARK  status: ('A' for Active; 'I' for Inactive)
REMARK    1  A    between atoms: N_1  and  C_10 
REMARK    2  A    between atoms: C_11  and  C_17 
ROOT
HETATM    1  C   UNL     1      21.849  96.171  44.577  1.00  0.00     0.165 A 
HETATM    2  C   UNL     1      18.432  94.819  45.364  1.00  0.00     0.042 C 
HETATM    3  C   UNL     1      17.313  95.591  45.717  1.00  0.00     0.026 C 
HETATM    4  C   UNL     1      20.996  94.990  44.887  1.00  0.00     0.032 A 
HETATM    5  C   UNL     1      19.638  95.478  45.182  1.00  0.00    -0.013 A 
HETATM    6  C   UNL     1      20.997  97.410  44.749  1.00  0.00     0.123 A 
HETATM    7  C   UNL     1      17.489  96.902  46.167  1.00  0.00     0.029 C 
HETATM    8  C   UNL     1      19.672  96.876  45.196  1.00  0.00    -0.040 A 
HETATM    9  O   UNL     1      23.022  96.153  44.296  1.00  0.00    -0.292 OA
HETATM   10  C   UNL     1      18.628  97.587  45.758  1.00  0.00     0.011 C 
ENDROOT
BRANCH   4  11
HETATM   11  C   UNL     1      21.340  93.652  44.346  1.00  0.00    -0.015 C 
HETATM   12  C   UNL     1      20.465  92.907  43.559  1.00  0.00    -0.051 C 
HETATM   13  C   UNL     1      20.965  91.854  42.795  1.00  0.00     0.007 C 
HETATM   14  C   UNL     1      18.995  93.229  43.539  1.00  0.00     0.049 C 
HETATM   15  C   UNL     1      22.236  91.356  43.066  1.00  0.00     0.001 C 
HETATM   16  C   UNL     1      23.021  91.953  44.036  1.00  0.00     0.001 C 
HETATM   17  C   UNL     1      22.600  93.137  44.626  1.00  0.00     0.013 C 
ENDBRANCH   4  11
BRANCH   3  18
HETATM   18  N   UNL     1      16.051  95.107  45.636  1.00  0.00    -0.399 N 
ATOM     19  HN2 UNL     1      15.562  95.184  44.744  1.00  0.00     0.156 HD
ATOM     20  HN1 UNL     1      15.585  94.672  46.432  1.00  0.00     0.156 HD
ENDBRANCH   3  18
TORSDOF 2
ENDMDL
MODEL 6
REMARK VINA RESULT:      -6.0      2.787      5.607
REMARK  2 active torsions:
REMARK  status: ('A' for Active; 'I' for Inactive)
REMARK    1  A    between atoms: N_1  and  C_10 
REMARK    2  A    between atoms: C_11  and  C_17 
ROOT
HETATM    1  C   UNL     1      18.013  94.070  43.924  1.00  0.00     0.165 A 
HETATM    2  C   UNL     1      20.598  96.146  45.694  1.00  0.00     0.042 C 
HETATM    3  C   UNL     1      20.329  97.253  46.515  1.00  0.00     0.026 C 
HETATM    4  C   UNL     1      19.449  94.434  44.088  1.00  0.00     0.032 A 
HETATM    5  C   UNL     1      19.526  95.542  45.056  1.00  0.00    -0.013 A 
HETATM    6  C   UNL     1      17.198  95.026  44.768  1.00  0.00     0.123 A 
HETATM    7  C   UNL     1      19.090  97.894  46.432  1.00  0.00     0.029 C 
HETATM    8  C   UNL     1      18.222  95.940  45.366  1.00  0.00    -0.040 A 
HETATM    9  O   UNL     1      17.572  93.210  43.203  1.00  0.00    -0.292 OA
HETATM   10  C   UNL     1      17.999  97.154  45.989  1.00  0.00     0.011 C 
ENDROOT
BRANCH   4  11
HETATM   11  C   UNL     1      20.513  93.433  43.826  1.00  0.00    -0.015 C 
HETATM   12  C   UNL     1      21.857  93.671  44.097  1.00  0.00    -0.051 C 
HETATM   13  C   UNL     1      22.738  92.594  44.175  1.00  0.00     0.007 C 
HETATM   14  C   UNL     1      22.358  95.077  44.294  1.00  0.00     0.049 C 
HETATM   15  C   UNL     1      22.349  91.356  43.673  1.00  0.00     0.001 C 
HETATM   16  C   UNL     1      21.072  91.183  43.169  1.00  0.00     0.001 C 
HETATM   17  C   UNL     1      20.138  92.200  43.308  1.00  0.00     0.013 C 
ENDBRANCH   4  11
BRANCH   3  18
HETATM   18  N   UNL     1      21.238  97.730  47.398  1.00  0.00    -0.399 N 
ATOM     19  HN2 UNL     1      21.401  98.737  47.426  1.00  0.00     0.156 HD
ATOM     20  HN1 UNL     1      21.755  97.117  48.028  1.00  0.00     0.156 HD
ENDBRANCH   3  18
TORSDOF 2
ENDMDL
MODEL 7
REMARK VINA RESULT:      -5.7      3.045      5.338
REMARK  2 active torsions:
REMARK  status: ('A' for Active; 'I' for Inactive)
REMARK    1  A    between atoms: N_1  and  C_10 
REMARK    2  A    between atoms: C_11  and  C_17 
ROOT
HETATM    1  C   UNL     1      19.948  94.180  43.949  1.00  0.00     0.165 A 
HETATM    2  C   UNL     1      17.492  97.020  43.778  1.00  0.00     0.042 C 
HETATM    3  C   UNL     1      16.113  96.890  43.544  1.00  0.00     0.026 C 
HETATM    4  C   UNL     1      19.716  95.649  43.853  1.00  0.00     0.032 A 
HETATM    5  C   UNL     1      18.264  95.870  43.732  1.00  0.00    -0.013 A 
HETATM    6  C   UNL     1      18.605  93.494  43.822  1.00  0.00     0.123 A 
HETATM    7  C   UNL     1      15.613  95.712  42.984  1.00  0.00     0.029 C 
HETATM    8  C   UNL     1      17.643  94.622  43.617  1.00  0.00    -0.040 A 
HETATM    9  O   UNL     1      21.016  93.630  44.052  1.00  0.00    -0.292 OA
HETATM   10  C   UNL     1      16.337  94.540  43.169  1.00  0.00     0.011 C 
ENDROOT
BRANCH   4  11
HETATM   11  C   UNL     1      20.696  96.604  44.427  1.00  0.00    -0.015 C 
HETATM   12  C   UNL     1      20.833  96.813  45.796  1.00  0.00    -0.051 C 
HETATM   13  C   UNL     1      21.988  97.427  46.279  1.00  0.00     0.007 C 
HETATM   14  C   UNL     1      19.745  96.389  46.746  1.00  0.00     0.049 C 
HETATM   15  C   UNL     1      22.821  98.106  45.395  1.00  0.00     0.001 C 
HETATM   16  C   UNL     1      22.542  98.103  44.039  1.00  0.00     0.001 C 
HETATM   17  C   UNL     1      21.521  97.300  43.552  1.00  0.00     0.013 C 
ENDBRANCH   4  11
BRANCH   3  18
HETATM   18  N   UNL     1      15.237  97.877  43.847  1.00  0.00    -0.399 N 
ATOM     19  HN2 UNL     1      15.331  98.770  43.363  1.00  0.00     0.156 HD
ATOM     20  HN1 UNL     1      14.495  97.750  44.536  1.00  0.00     0.156 HD
ENDBRANCH   3  18
TORSDOF 2
ENDMDL
MODEL 8
REMARK VINA RESULT:      -5.6      1.958      2.915
REMARK  2 active torsions:
REMARK  status: ('A' for Active; 'I' for Inactive)
REMARK    1  A    between atoms: N_1  and  C_10 
REMARK    2  A    between atoms: C_11  and  C_17 
ROOT
HETATM    1  C   UNL     1      18.794  97.243  45.893  1.00  0.00     0.165 A 
HETATM    2  C   UNL     1      20.848  94.629  44.140  1.00  0.00     0.042 C 
HETATM    3  C   UNL     1      22.220  94.404  44.339  1.00  0.00     0.026 C 
HETATM    4  C   UNL     1      18.902  96.248  44.789  1.00  0.00     0.032 A 
HETATM    5  C   UNL     1      20.264  95.689  44.815  1.00  0.00    -0.013 A 
HETATM    6  C   UNL     1      20.148  97.331  46.564  1.00  0.00     0.123 A 
HETATM    7  C   UNL     1      23.005  95.392  44.937  1.00  0.00     0.029 C 
HETATM    8  C   UNL     1      21.002  96.388  45.776  1.00  0.00    -0.040 A 
HETATM    9  O   UNL     1      17.824  97.904  46.167  1.00  0.00    -0.292 OA
HETATM   10  C   UNL     1      22.382  96.298  45.789  1.00  0.00     0.011 C 
ENDROOT
BRANCH   4  11
HETATM   11  C   UNL     1      17.690  95.562  44.275  1.00  0.00    -0.015 C 
HETATM   12  C   UNL     1      16.665  96.233  43.614  1.00  0.00    -0.051 C 
HETATM   13  C   UNL     1      15.755  95.504  42.850  1.00  0.00     0.007 C 
HETATM   14  C   UNL     1      16.534  97.728  43.730  1.00  0.00     0.049 C 
HETATM   15  C   UNL     1      15.678  94.124  43.013  1.00  0.00     0.001 C 
HETATM   16  C   UNL     1      16.550  93.477  43.871  1.00  0.00     0.001 C 
HETATM   17  C   UNL     1      17.594  94.186  44.448  1.00  0.00     0.013 C 
ENDBRANCH   4  11
BRANCH   3  18
HETATM   18  N   UNL     1      22.819  93.247  43.969  1.00  0.00    -0.399 N 
ATOM     19  HN2 UNL     1      22.319  92.373  44.128  1.00  0.00     0.156 HD
ATOM     20  HN1 UNL     1      23.744  93.230  43.540  1.00  0.00     0.156 HD
ENDBRANCH   3  18
TORSDOF 2
ENDMDL
MODEL 9
REMARK VINA RESULT:      -5.6      2.108      4.452
REMARK  2 active torsions:
REMARK  status: ('A' for Active; 'I' for Inactive)
REMARK    1  A    between atoms: N_1  and  C_10 
REMARK    2  A    between atoms: C_11  and  C_17 
ROOT
HETATM    1  C   UNL     1      18.117  97.354  44.278  1.00  0.00     0.165 A 
HETATM    2  C   UNL     1      19.801  93.995  44.229  1.00  0.00     0.042 C 
HETATM    3  C   UNL     1      19.170  92.772  43.946  1.00  0.00     0.026 C 
HETATM    4  C   UNL     1      19.316  96.533  44.612  1.00  0.00     0.032 A 
HETATM    5  C   UNL     1      19.010  95.131  44.279  1.00  0.00    -0.013 A 
HETATM    6  C   UNL     1      17.039  96.412  43.787  1.00  0.00     0.123 A 
HETATM    7  C   UNL     1      17.778  92.675  44.028  1.00  0.00     0.029 C 
HETATM    8  C   UNL     1      17.667  95.058  43.898  1.00  0.00    -0.040 A 
HETATM    9  O   UNL     1      18.003  98.546  44.425  1.00  0.00    -0.292 OA
HETATM   10  C   UNL     1      17.029  93.832  43.846  1.00  0.00     0.011 C 
ENDROOT
BRANCH   4  11
HETATM   11  C   UNL     1      20.666  97.148  44.631  1.00  0.00    -0.015 C 
HETATM   12  C   UNL     1      21.508  97.088  45.738  1.00  0.00    -0.051 C 
HETATM   13  C   UNL     1      22.867  97.353  45.576  1.00  0.00     0.007 C 
HETATM   14  C   UNL     1      20.957  96.750  47.097  1.00  0.00     0.049 C 
HETATM   15  C   UNL     1      23.307  97.979  44.413  1.00  0.00     0.001 C 
HETATM   16  C   UNL     1      22.410  98.266  43.399  1.00  0.00     0.001 C 
HETATM   17  C   UNL     1      21.108  97.792  43.481  1.00  0.00     0.013 C 
ENDBRANCH   4  11
BRANCH   3  18
HETATM   18  N   UNL     1      19.868  91.668  43.590  1.00  0.00    -0.399 N 
ATOM     19  HN2 UNL     1      20.682  91.412  44.149  1.00  0.00     0.156 HD
ATOM     20  HN1 UNL     1      19.603  91.094  42.790  1.00  0.00     0.156 HD
ENDBRANCH   3  18
TORSDOF 2
ENDMDL
