MODEL 1
REMARK VINA RESULT:     -11.7      0.000      0.000
REMARK  2 active torsions:
REMARK  status: ('A' for Active; 'I' for Inactive)
REMARK    1  A    between atoms: N_10  and  C_20 
REMARK    2  A    between atoms: C_23  and  C_31 
ROOT
HETATM    1  C   UNL     1     -48.926   2.276   8.373  1.00  0.00     0.010 C 
HETATM    2  C   UNL     1     -47.951   2.722  10.545  1.00  0.00     0.005 C 
HETATM    3  C   UNL     1     -45.448  -1.426  10.640  1.00  0.00     0.017 C 
HETATM    4  C   UNL     1     -46.832   0.883   8.352  1.00  0.00     0.039 C 
HETATM    5  C   UNL     1     -49.051   1.895   9.874  1.00  0.00    -0.006 C 
HETATM    6  C   UNL     1     -47.396   2.303   8.219  1.00  0.00    -0.010 C 
HETATM    7  C   UNL     1     -48.083  -1.688  10.912  1.00  0.00     0.046 C 
HETATM    8  C   UNL     1     -48.496  -4.183  13.668  1.00  0.00     0.000 C 
HETATM    9  C   UNL     1     -46.874  -1.056  10.251  1.00  0.00    -0.065 C 
HETATM   10  C   UNL     1     -44.708  -0.314  11.406  1.00  0.00     0.015 C 
HETATM   11  C   UNL     1     -48.778  -3.118  12.814  1.00  0.00     0.005 C 
HETATM   12  C   UNL     1     -47.764  -2.341  12.249  1.00  0.00    -0.059 C 
HETATM   13  C   UNL     1     -45.461  -2.748  11.430  1.00  0.00     0.027 C 
HETATM   14  C   UNL     1     -44.498  -0.783  12.835  1.00  0.00     0.010 C 
HETATM   15  C   UNL     1     -47.296   0.268   9.663  1.00  0.00    -0.071 C 
HETATM   16  C   UNL     1     -46.951   3.114   9.438  1.00  0.00     0.005 C 
HETATM   17  C   UNL     1     -47.198  -4.326  14.177  1.00  0.00    -0.003 C 
HETATM   18  C   UNL     1     -46.139  -3.690  13.600  1.00  0.00    -0.012 C 
HETATM   19  C   UNL     1     -46.313  -2.508  12.695  1.00  0.00     0.003 C 
HETATM   20  C   UNL     1     -45.793  -1.289  13.481  1.00  0.00     0.025 C 
HETATM   21  C   UNL     1     -48.804   0.369   9.836  1.00  0.00     0.020 C 
HETATM   22  C   UNL     1     -49.072  -0.494  11.085  1.00  0.00     0.023 C 
ENDROOT
BRANCH  14  23
HETATM   23  C   UNL     1     -43.584  -0.042  13.779  1.00  0.00     0.091 C 
HETATM   24  N   UNL     1     -42.247  -0.586  13.685  1.00  0.00    -0.354 N 
HETATM   25  C   UNL     1     -41.305   0.271  14.100  1.00  0.00     0.248 C 
ATOM     26  HN  UNL     1     -42.043  -1.523  13.339  1.00  0.00     0.162 HD
HETATM   27  O   UNL     1     -40.201   0.006  14.524  1.00  0.00    -0.271 OA
HETATM   28  C   UNL     1     -41.880   1.677  13.953  1.00  0.00     0.276 C 
HETATM   29  C   UNL     1     -43.394   1.460  13.940  1.00  0.00     0.068 C 
BRANCH  28  30
HETATM   30  N   UNL     1     -41.526   2.668  14.966  1.00  0.00    -0.066 N 
ATOM     31  HN3 UNL     1     -41.452   3.586  14.527  1.00  0.00     0.275 HD
ATOM     32  HN2 UNL     1     -42.324   2.814  15.586  1.00  0.00     0.275 HD
ATOM     33  HN1 UNL     1     -40.693   2.497  15.528  1.00  0.00     0.275 HD
ENDBRANCH  28  30
ENDBRANCH  14  23
TORSDOF 2
ENDMDL
MODEL 2
REMARK VINA RESULT:     -10.1      3.313      6.374
REMARK  2 active torsions:
REMARK  status: ('A' for Active; 'I' for Inactive)
REMARK    1  A    between atoms: N_10  and  C_20 
REMARK    2  A    between atoms: C_23  and  C_31 
ROOT
HETATM    1  C   UNL     1     -49.054  -4.195  13.541  1.00  0.00     0.010 C 
HETATM    2  C   UNL     1     -48.317  -4.461  11.249  1.00  0.00     0.005 C 
HETATM    3  C   UNL     1     -45.635  -0.425  11.297  1.00  0.00     0.017 C 
HETATM    4  C   UNL     1     -46.903  -2.894  13.483  1.00  0.00     0.039 C 
HETATM    5  C   UNL     1     -49.306  -3.661  12.104  1.00  0.00    -0.006 C 
HETATM    6  C   UNL     1     -47.520  -4.297  13.536  1.00  0.00    -0.010 C 
HETATM    7  C   UNL     1     -48.268  -0.034  11.318  1.00  0.00     0.046 C 
HETATM    8  C   UNL     1     -48.821   2.737   8.867  1.00  0.00     0.000 C 
HETATM    9  C   UNL     1     -47.033  -0.775  11.791  1.00  0.00    -0.065 C 
HETATM   10  C   UNL     1     -45.027  -1.484  10.358  1.00  0.00     0.015 C 
HETATM   11  C   UNL     1     -49.072   1.604   9.640  1.00  0.00     0.005 C 
HETATM   12  C   UNL     1     -48.047   0.735  10.023  1.00  0.00    -0.059 C 
HETATM   13  C   UNL     1     -45.659   0.968  10.641  1.00  0.00     0.027 C 
HETATM   14  C   UNL     1     -44.933  -0.884   8.966  1.00  0.00     0.010 C 
HETATM   15  C   UNL     1     -47.461  -2.134  12.290  1.00  0.00    -0.071 C 
HETATM   16  C   UNL     1     -47.235  -5.000  12.208  1.00  0.00     0.005 C 
HETATM   17  C   UNL     1     -47.573   2.878   8.246  1.00  0.00    -0.003 C 
HETATM   18  C   UNL     1     -46.496   2.146   8.650  1.00  0.00    -0.012 C 
HETATM   19  C   UNL     1     -46.640   0.889   9.451  1.00  0.00     0.003 C 
HETATM   20  C   UNL     1     -46.258  -0.266   8.505  1.00  0.00     0.025 C 
HETATM   21  C   UNL     1     -48.981  -2.158  12.261  1.00  0.00     0.020 C 
HETATM   22  C   UNL     1     -49.326  -1.165  11.133  1.00  0.00     0.023 C 
ENDROOT
BRANCH  14  23
HETATM   23  C   UNL     1     -44.152  -1.563   7.869  1.00  0.00     0.091 C 
HETATM   24  N   UNL     1     -43.491  -0.565   7.056  1.00  0.00    -0.354 N 
HETATM   25  C   UNL     1     -42.438  -1.051   6.387  1.00  0.00     0.248 C 
ATOM     26  HN  UNL     1     -43.796   0.407   6.999  1.00  0.00     0.162 HD
HETATM   27  O   UNL     1     -41.953  -0.624   5.362  1.00  0.00    -0.271 OA
HETATM   28  C   UNL     1     -41.946  -2.277   7.152  1.00  0.00     0.276 C 
HETATM   29  C   UNL     1     -43.159  -2.713   7.976  1.00  0.00     0.068 C 
BRANCH  28  30
HETATM   30  N   UNL     1     -41.439  -3.406   6.376  1.00  0.00    -0.066 N 
ATOM     31  HN3 UNL     1     -40.605  -3.780   6.832  1.00  0.00     0.275 HD
ATOM     32  HN2 UNL     1     -42.080  -4.194   6.471  1.00  0.00     0.275 HD
ATOM     33  HN1 UNL     1     -41.240  -3.253   5.388  1.00  0.00     0.275 HD
ENDBRANCH  28  30
ENDBRANCH  14  23
TORSDOF 2
ENDMDL
MODEL 3
REMARK VINA RESULT:      -9.5      3.146      6.343
REMARK  2 active torsions:
REMARK  status: ('A' for Active; 'I' for Inactive)
REMARK    1  A    between atoms: N_10  and  C_20 
REMARK    2  A    between atoms: C_23  and  C_31 
ROOT
HETATM    1  C   UNL     1     -48.580  -5.834  13.092  1.00  0.00     0.010 C 
HETATM    2  C   UNL     1     -47.557  -5.551  10.915  1.00  0.00     0.005 C 
HETATM    3  C   UNL     1     -45.509  -1.312  12.065  1.00  0.00     0.017 C 
HETATM    4  C   UNL     1     -46.647  -4.298  13.570  1.00  0.00     0.039 C 
HETATM    5  C   UNL     1     -48.741  -5.061  11.755  1.00  0.00    -0.006 C 
HETATM    6  C   UNL     1     -47.056  -5.748  13.283  1.00  0.00    -0.010 C 
HETATM    7  C   UNL     1     -48.156  -1.252  11.789  1.00  0.00     0.046 C 
HETATM    8  C   UNL     1     -48.823   1.862   9.827  1.00  0.00     0.000 C 
HETATM    9  C   UNL     1     -46.889  -1.918  12.287  1.00  0.00    -0.065 C 
HETATM   10  C   UNL     1     -44.652  -2.082  11.043  1.00  0.00     0.015 C 
HETATM   11  C   UNL     1     -48.993   0.577  10.340  1.00  0.00     0.005 C 
HETATM   12  C   UNL     1     -47.903  -0.221  10.699  1.00  0.00    -0.059 C 
HETATM   13  C   UNL     1     -45.660   0.171  11.675  1.00  0.00     0.027 C 
HETATM   14  C   UNL     1     -44.488  -1.212   9.809  1.00  0.00     0.010 C 
HETATM   15  C   UNL     1     -47.170  -3.390  12.469  1.00  0.00    -0.071 C 
HETATM   16  C   UNL     1     -46.524  -6.135  11.902  1.00  0.00     0.005 C 
HETATM   17  C   UNL     1     -47.546   2.272   9.421  1.00  0.00    -0.003 C 
HETATM   18  C   UNL     1     -46.427   1.610   9.832  1.00  0.00    -0.012 C 
HETATM   19  C   UNL     1     -46.478   0.211  10.365  1.00  0.00     0.003 C 
HETATM   20  C   UNL     1     -45.828  -0.679   9.288  1.00  0.00     0.025 C 
HETATM   21  C   UNL     1     -48.657  -3.591  12.225  1.00  0.00     0.020 C 
HETATM   22  C   UNL     1     -49.012  -2.443  11.257  1.00  0.00     0.023 C 
ENDROOT
BRANCH  14  23
HETATM   23  C   UNL     1     -43.498  -1.562   8.727  1.00  0.00     0.091 C 
HETATM   24  N   UNL     1     -43.073  -2.936   8.884  1.00  0.00    -0.354 N 
HETATM   25  C   UNL     1     -42.592  -3.465   7.752  1.00  0.00     0.248 C 
ATOM     26  HN  UNL     1     -43.135  -3.447   9.764  1.00  0.00     0.162 HD
HETATM   27  O   UNL     1     -41.814  -4.388   7.642  1.00  0.00    -0.271 OA
HETATM   28  C   UNL     1     -43.200  -2.679   6.594  1.00  0.00     0.276 C 
HETATM   29  C   UNL     1     -43.613  -1.348   7.224  1.00  0.00     0.068 C 
BRANCH  28  30
HETATM   30  N   UNL     1     -42.364  -2.438   5.420  1.00  0.00    -0.066 N 
ATOM     31  HN3 UNL     1     -42.174  -1.438   5.343  1.00  0.00     0.275 HD
ATOM     32  HN2 UNL     1     -41.426  -2.800   5.596  1.00  0.00     0.275 HD
ATOM     33  HN1 UNL     1     -42.694  -2.787   4.521  1.00  0.00     0.275 HD
ENDBRANCH  28  30
ENDBRANCH  14  23
TORSDOF 2
ENDMDL
