MODEL 1
REMARK VINA RESULT:      -9.0      0.000      0.000
REMARK  0 active torsions:
REMARK  status: ('A' for Active; 'I' for Inactive)
ROOT
HETATM    1  C   UNL     1       4.683  43.843   3.786  1.00  0.00     0.001 C 
HETATM    2  C   UNL     1       4.476  47.072   8.439  1.00  0.00     0.018 C 
HETATM    3  O   UNL     1       1.897  46.941   9.689  1.00  0.00    -0.267 OA
HETATM    4  C   UNL     1       5.494  44.397   4.795  1.00  0.00     0.012 C 
HETATM    5  C   UNL     1       3.342  44.227   3.657  1.00  0.00     0.001 C 
HETATM    6  C   UNL     1       2.982  46.910   6.336  1.00  0.00    -0.008 C 
HETATM    7  C   UNL     1       4.921  45.266   5.759  1.00  0.00    -0.025 C 
HETATM    8  C   UNL     1       3.582  45.816   5.528  1.00  0.00    -0.015 C 
HETATM    9  C   UNL     1       5.554  46.258   8.042  1.00  0.00     0.002 C 
HETATM   10  C   UNL     1       2.025  47.397   8.560  1.00  0.00     0.256 C 
HETATM   11  C   UNL     1       1.075  48.400   6.574  1.00  0.00     0.092 C 
HETATM   12  C   UNL     1       1.979  47.742   5.756  1.00  0.00     0.030 C 
HETATM   13  C   UNL     1       5.670  45.417   6.970  1.00  0.00     0.012 C 
HETATM   14  C   UNL     1       2.816  45.231   4.484  1.00  0.00     0.013 C 
HETATM   15  C   UNL     1       3.230  47.108   7.752  1.00  0.00     0.043 C 
HETATM   16  N   UNL     1       1.082  48.220   7.952  1.00  0.00    -0.333 N 
ATOM     17  HN  UNL     1       0.386  48.697   8.525  1.00  0.00     0.168 HD
ENDROOT
TORSDOF 0
ENDMDL
MODEL 2
REMARK VINA RESULT:      -8.4      2.288      3.320
REMARK  0 active torsions:
REMARK  status: ('A' for Active; 'I' for Inactive)
ROOT
HETATM    1  C   UNL     1       6.219  44.374   5.563  1.00  0.00     0.001 C 
HETATM    2  C   UNL     1       1.309  47.085   6.375  1.00  0.00     0.018 C 
HETATM    3  O   UNL     1      -0.922  45.293   6.164  1.00  0.00    -0.267 OA
HETATM    4  C   UNL     1       5.659  45.501   6.196  1.00  0.00     0.012 C 
HETATM    5  C   UNL     1       5.463  43.610   4.666  1.00  0.00     0.001 C 
HETATM    6  C   UNL     1       2.176  45.529   4.502  1.00  0.00    -0.008 C 
HETATM    7  C   UNL     1       4.285  45.800   6.011  1.00  0.00    -0.025 C 
HETATM    8  C   UNL     1       3.539  45.128   4.943  1.00  0.00    -0.015 C 
HETATM    9  C   UNL     1       2.497  47.288   7.100  1.00  0.00     0.002 C 
HETATM   10  C   UNL     1      -0.191  45.500   5.204  1.00  0.00     0.256 C 
HETATM   11  C   UNL     1       0.402  45.125   2.890  1.00  0.00     0.092 C 
HETATM   12  C   UNL     1       1.754  45.233   3.172  1.00  0.00     0.030 C 
HETATM   13  C   UNL     1       3.704  46.652   7.005  1.00  0.00     0.012 C 
HETATM   14  C   UNL     1       4.161  44.010   4.327  1.00  0.00     0.013 C 
HETATM   15  C   UNL     1       1.161  46.072   5.385  1.00  0.00     0.043 C 
HETATM   16  N   UNL     1      -0.557  45.238   3.889  1.00  0.00    -0.333 N 
ATOM     17  HN  UNL     1      -1.544  45.127   3.653  1.00  0.00     0.168 HD
ENDROOT
TORSDOF 0
ENDMDL
MODEL 3
REMARK VINA RESULT:      -8.2      2.824      4.483
REMARK  0 active torsions:
REMARK  status: ('A' for Active; 'I' for Inactive)
ROOT
HETATM    1  C   UNL     1       4.741  46.845   8.019  1.00  0.00     0.001 C 
HETATM    2  C   UNL     1       3.013  44.076   3.386  1.00  0.00     0.018 C 
HETATM    3  O   UNL     1       1.256  45.693   1.796  1.00  0.00    -0.267 OA
HETATM    4  C   UNL     1       5.113  45.818   7.130  1.00  0.00     0.012 C 
HETATM    5  C   UNL     1       3.459  47.405   7.964  1.00  0.00     0.001 C 
HETATM    6  C   UNL     1       1.755  45.327   5.265  1.00  0.00    -0.008 C 
HETATM    7  C   UNL     1       4.223  45.424   6.098  1.00  0.00    -0.025 C 
HETATM    8  C   UNL     1       2.826  45.865   6.146  1.00  0.00    -0.015 C 
HETATM    9  C   UNL     1       4.313  44.060   3.924  1.00  0.00     0.002 C 
HETATM   10  C   UNL     1       0.946  45.360   2.932  1.00  0.00     0.256 C 
HETATM   11  C   UNL     1      -0.625  45.359   4.772  1.00  0.00     0.092 C 
HETATM   12  C   UNL     1       0.399  45.369   5.704  1.00  0.00     0.030 C 
HETATM   13  C   UNL     1       4.826  44.729   5.002  1.00  0.00     0.012 C 
HETATM   14  C   UNL     1       2.504  46.890   7.075  1.00  0.00     0.013 C 
HETATM   15  C   UNL     1       1.966  44.894   3.896  1.00  0.00     0.043 C 
HETATM   16  N   UNL     1      -0.362  45.373   3.407  1.00  0.00    -0.333 N 
ATOM     17  HN  UNL     1      -1.138  45.393   2.745  1.00  0.00     0.168 HD
ENDROOT
TORSDOF 0
ENDMDL
MODEL 4
REMARK VINA RESULT:      -8.1      2.233      3.667
REMARK  0 active torsions:
REMARK  status: ('A' for Active; 'I' for Inactive)
ROOT
HETATM    1  C   UNL     1       6.533  45.108   7.162  1.00  0.00     0.001 C 
HETATM    2  C   UNL     1       1.310  47.129   6.295  1.00  0.00     0.018 C 
HETATM    3  O   UNL     1      -0.541  45.020   5.699  1.00  0.00    -0.267 OA
HETATM    4  C   UNL     1       5.688  46.187   7.484  1.00  0.00     0.012 C 
HETATM    5  C   UNL     1       6.158  44.174   6.190  1.00  0.00     0.001 C 
HETATM    6  C   UNL     1       2.851  45.574   4.921  1.00  0.00    -0.008 C 
HETATM    7  C   UNL     1       4.397  46.268   6.902  1.00  0.00    -0.025 C 
HETATM    8  C   UNL     1       4.070  45.412   5.757  1.00  0.00    -0.015 C 
HETATM    9  C   UNL     1       2.211  47.560   7.286  1.00  0.00     0.002 C 
HETATM   10  C   UNL     1       0.402  45.256   4.955  1.00  0.00     0.256 C 
HETATM   11  C   UNL     1       1.668  44.790   2.947  1.00  0.00     0.092 C 
HETATM   12  C   UNL     1       2.861  45.116   3.570  1.00  0.00     0.030 C 
HETATM   13  C   UNL     1       3.462  47.101   7.595  1.00  0.00     0.012 C 
HETATM   14  C   UNL     1       4.969  44.351   5.467  1.00  0.00     0.013 C 
HETATM   15  C   UNL     1       1.570  46.031   5.427  1.00  0.00     0.043 C 
HETATM   16  N   UNL     1       0.458  44.840   3.629  1.00  0.00    -0.333 N 
ATOM     17  HN  UNL     1      -0.401  44.569   3.150  1.00  0.00     0.168 HD
ENDROOT
TORSDOF 0
ENDMDL
MODEL 5
REMARK VINA RESULT:      -8.0      1.469      3.110
REMARK  0 active torsions:
REMARK  status: ('A' for Active; 'I' for Inactive)
ROOT
HETATM    1  C   UNL     1       5.194  43.970   3.923  1.00  0.00     0.001 C 
HETATM    2  C   UNL     1       0.359  46.274   5.773  1.00  0.00     0.018 C 
HETATM    3  O   UNL     1       0.717  49.031   6.480  1.00  0.00    -0.267 OA
HETATM    4  C   UNL     1       3.794  43.849   3.830  1.00  0.00     0.012 C 
HETATM    5  C   UNL     1       5.775  44.831   4.863  1.00  0.00     0.001 C 
HETATM    6  C   UNL     1       2.748  46.165   6.752  1.00  0.00    -0.008 C 
HETATM    7  C   UNL     1       2.962  44.687   4.615  1.00  0.00    -0.025 C 
HETATM    8  C   UNL     1       3.547  45.449   5.722  1.00  0.00    -0.015 C 
HETATM    9  C   UNL     1       0.492  45.385   4.691  1.00  0.00     0.002 C 
HETATM   10  C   UNL     1       1.313  48.147   7.081  1.00  0.00     0.256 C 
HETATM   11  C   UNL     1       2.843  47.444   8.817  1.00  0.00     0.092 C 
HETATM   12  C   UNL     1       3.312  46.397   8.041  1.00  0.00     0.030 C 
HETATM   13  C   UNL     1       1.615  44.822   4.150  1.00  0.00     0.012 C 
HETATM   14  C   UNL     1       4.965  45.521   5.778  1.00  0.00     0.013 C 
HETATM   15  C   UNL     1       1.468  46.798   6.496  1.00  0.00     0.043 C 
HETATM   16  N   UNL     1       1.873  48.318   8.342  1.00  0.00    -0.333 N 
ATOM     17  HN  UNL     1       1.568  49.096   8.928  1.00  0.00     0.168 HD
ENDROOT
TORSDOF 0
ENDMDL
MODEL 6
REMARK VINA RESULT:      -7.9      3.314      4.960
REMARK  0 active torsions:
REMARK  status: ('A' for Active; 'I' for Inactive)
ROOT
HETATM    1  C   UNL     1       4.187  46.470   7.194  1.00  0.00     0.001 C 
HETATM    2  C   UNL     1       2.337  44.191   2.347  1.00  0.00     0.018 C 
HETATM    3  O   UNL     1       0.600  45.991   0.941  1.00  0.00    -0.267 OA
HETATM    4  C   UNL     1       4.524  45.523   6.207  1.00  0.00     0.012 C 
HETATM    5  C   UNL     1       2.919  47.062   7.211  1.00  0.00     0.001 C 
HETATM    6  C   UNL     1       1.133  45.288   4.353  1.00  0.00    -0.008 C 
HETATM    7  C   UNL     1       3.612  45.249   5.156  1.00  0.00    -0.025 C 
HETATM    8  C   UNL     1       2.227  45.715   5.265  1.00  0.00    -0.015 C 
HETATM    9  C   UNL     1       3.643  44.094   2.862  1.00  0.00     0.002 C 
HETATM   10  C   UNL     1       0.295  45.559   2.045  1.00  0.00     0.256 C 
HETATM   11  C   UNL     1      -1.252  45.421   3.899  1.00  0.00     0.092 C 
HETATM   12  C   UNL     1      -0.217  45.319   4.814  1.00  0.00     0.030 C 
HETATM   13  C   UNL     1       4.184  44.646   3.990  1.00  0.00     0.012 C 
HETATM   14  C   UNL     1       1.941  46.655   6.291  1.00  0.00     0.013 C 
HETATM   15  C   UNL     1       1.316  44.981   2.947  1.00  0.00     0.043 C 
HETATM   16  N   UNL     1      -1.005  45.557   2.538  1.00  0.00    -0.333 N 
ATOM     17  HN  UNL     1      -1.788  45.657   1.893  1.00  0.00     0.168 HD
ENDROOT
TORSDOF 0
ENDMDL
MODEL 7
REMARK VINA RESULT:      -7.8      2.832      5.204
REMARK  0 active torsions:
REMARK  status: ('A' for Active; 'I' for Inactive)
ROOT
HETATM    1  C   UNL     1      -0.268  46.462   7.881  1.00  0.00     0.001 C 
HETATM    2  C   UNL     1       3.273  44.873   3.751  1.00  0.00     0.018 C 
HETATM    3  O   UNL     1       5.117  42.875   4.667  1.00  0.00    -0.267 OA
HETATM    4  C   UNL     1      -0.157  46.375   6.479  1.00  0.00     0.012 C 
HETATM    5  C   UNL     1       0.846  46.241   8.699  1.00  0.00     0.001 C 
HETATM    6  C   UNL     1       3.643  45.700   6.172  1.00  0.00    -0.008 C 
HETATM    7  C   UNL     1       1.063  45.948   5.896  1.00  0.00    -0.025 C 
HETATM    8  C   UNL     1       2.275  45.896   6.719  1.00  0.00    -0.015 C 
HETATM    9  C   UNL     1       1.895  45.123   3.611  1.00  0.00     0.002 C 
HETATM   10  C   UNL     1       5.115  43.997   5.155  1.00  0.00     0.256 C 
HETATM   11  C   UNL     1       6.013  45.619   6.708  1.00  0.00     0.092 C 
HETATM   12  C   UNL     1       4.767  46.192   6.899  1.00  0.00     0.030 C 
HETATM   13  C   UNL     1       0.964  45.462   4.553  1.00  0.00     0.012 C 
HETATM   14  C   UNL     1       2.105  46.010   8.125  1.00  0.00     0.013 C 
HETATM   15  C   UNL     1       3.947  44.892   5.005  1.00  0.00     0.043 C 
HETATM   16  N   UNL     1       6.186  44.529   5.865  1.00  0.00    -0.333 N 
ATOM     17  HN  UNL     1       7.113  44.112   5.765  1.00  0.00     0.168 HD
ENDROOT
TORSDOF 0
ENDMDL
MODEL 8
REMARK VINA RESULT:      -7.7      2.092      3.733
REMARK  0 active torsions:
REMARK  status: ('A' for Active; 'I' for Inactive)
ROOT
HETATM    1  C   UNL     1       5.717  45.971   6.489  1.00  0.00     0.001 C 
HETATM    2  C   UNL     1       0.266  45.417   5.040  1.00  0.00     0.018 C 
HETATM    3  O   UNL     1      -1.307  47.601   6.033  1.00  0.00    -0.267 OA
HETATM    4  C   UNL     1       4.874  45.390   5.522  1.00  0.00     0.012 C 
HETATM    5  C   UNL     1       5.182  46.544   7.649  1.00  0.00     0.001 C 
HETATM    6  C   UNL     1       1.459  45.821   7.297  1.00  0.00    -0.008 C 
HETATM    7  C   UNL     1       3.466  45.486   5.667  1.00  0.00    -0.025 C 
HETATM    8  C   UNL     1       2.903  45.912   6.952  1.00  0.00    -0.015 C 
HETATM    9  C   UNL     1       1.374  45.138   4.219  1.00  0.00     0.002 C 
HETATM   10  C   UNL     1      -0.736  46.839   6.802  1.00  0.00     0.256 C 
HETATM   11  C   UNL     1      -0.196  46.129   9.051  1.00  0.00     0.092 C 
HETATM   12  C   UNL     1       1.070  45.720   8.665  1.00  0.00     0.030 C 
HETATM   13  C   UNL     1       2.711  45.287   4.468  1.00  0.00     0.012 C 
HETATM   14  C   UNL     1       3.803  46.472   7.897  1.00  0.00     0.013 C 
HETATM   15  C   UNL     1       0.381  45.985   6.340  1.00  0.00     0.043 C 
HETATM   16  N   UNL     1      -1.081  46.696   8.142  1.00  0.00    -0.333 N 
ATOM     17  HN  UNL     1      -1.997  47.012   8.462  1.00  0.00     0.168 HD
ENDROOT
TORSDOF 0
ENDMDL
MODEL 9
REMARK VINA RESULT:      -7.7      1.996      2.535
REMARK  0 active torsions:
REMARK  status: ('A' for Active; 'I' for Inactive)
ROOT
HETATM    1  C   UNL     1       1.848  44.690   2.682  1.00  0.00     0.001 C 
HETATM    2  C   UNL     1       2.867  46.192   8.051  1.00  0.00     0.018 C 
HETATM    3  O   UNL     1       1.001  44.964   9.852  1.00  0.00    -0.267 OA
HETATM    4  C   UNL     1       2.875  45.127   3.542  1.00  0.00     0.012 C 
HETATM    5  C   UNL     1       0.514  44.695   3.104  1.00  0.00     0.001 C 
HETATM    6  C   UNL     1       0.744  46.241   6.577  1.00  0.00    -0.008 C 
HETATM    7  C   UNL     1       2.569  45.469   4.884  1.00  0.00    -0.025 C 
HETATM    8  C   UNL     1       1.170  45.656   5.279  1.00  0.00    -0.015 C 
HETATM    9  C   UNL     1       3.836  45.875   7.081  1.00  0.00     0.002 C 
HETATM   10  C   UNL     1       0.621  45.752   8.995  1.00  0.00     0.256 C 
HETATM   11  C   UNL     1      -1.153  46.983   7.905  1.00  0.00     0.092 C 
HETATM   12  C   UNL     1      -0.525  46.885   6.674  1.00  0.00     0.030 C 
HETATM   13  C   UNL     1       3.680  45.461   5.787  1.00  0.00     0.012 C 
HETATM   14  C   UNL     1       0.177  45.214   4.364  1.00  0.00     0.013 C 
HETATM   15  C   UNL     1       1.466  46.072   7.824  1.00  0.00     0.043 C 
HETATM   16  N   UNL     1      -0.602  46.412   9.046  1.00  0.00    -0.333 N 
ATOM     17  HN  UNL     1      -1.102  46.478   9.933  1.00  0.00     0.168 HD
ENDROOT
TORSDOF 0
ENDMDL
