MODEL 1
REMARK VINA RESULT:      -8.0      0.000      0.000
REMARK  8 active torsions:
REMARK  status: ('A' for Active; 'I' for Inactive)
REMARK    1  A    between atoms: O_3  and  C_10 
REMARK    2  A    between atoms: C_5  and  C_10 
REMARK    3  A    between atoms: C_5  and  C_16 
REMARK    4  A    between atoms: C_9  and  C_18 
REMARK    5  A    between atoms: P_14  and  O_15 
REMARK    6  A    between atoms: O_15  and  C_19 
REMARK    7  A    between atoms: C_17  and  C_18 
REMARK    8  A    between atoms: C_17  and  C_19 
ROOT
HETATM    1  C   UNL     1      -4.726  26.106  11.531  1.00  0.00    -0.038 C 
HETATM    2  C   UNL     1      -4.504  24.847  10.961  1.00  0.00     0.022 C 
HETATM    3  N   UNL     1      -4.313  24.732   9.639  1.00  0.00    -0.367 N 
ATOM      4  HN  UNL     1      -3.831  23.919   9.254  1.00  0.00     0.165 HD
HETATM    5  C   UNL     1      -4.762  25.697   8.837  1.00  0.00     0.103 C 
HETATM    6  C   UNL     1      -5.011  26.971   9.321  1.00  0.00     0.028 C 
HETATM    7  C   UNL     1      -5.128  27.136  10.694  1.00  0.00     0.025 C 
HETATM    8  C   UNL     1      -4.500  26.371  12.998  1.00  0.00     0.050 C 
ENDROOT
BRANCH   2   9
HETATM    9  C   UNL     1      -4.454  23.549  11.742  1.00  0.00     0.138 C 
BRANCH   9  10
HETATM   10  C   UNL     1      -3.121  22.912  12.036  1.00  0.00     0.156 C 
HETATM   11  O   UNL     1      -2.726  21.957  11.391  1.00  0.00    -0.295 OA
BRANCH  10  12
HETATM   12  C   UNL     1      -2.222  23.528  13.087  1.00  0.00     0.261 C 
BRANCH  12  13
HETATM   13  O   UNL     1      -1.312  24.394  12.408  1.00  0.00    -0.275 OA
BRANCH  13  14
HETATM   14  P   UNL     1       0.264  24.261  12.606  1.00  0.00     0.422 P 
HETATM   15  O   UNL     1       0.491  23.059  13.486  1.00  0.00    -0.617 OA
HETATM   16  O   UNL     1       0.726  25.495  13.305  1.00  0.00    -0.617 OA
HETATM   17  O   UNL     1       0.912  24.133  11.268  1.00  0.00    -0.617 OA
ENDBRANCH  13  14
ENDBRANCH  12  13
ENDBRANCH  10  12
ENDBRANCH   9  10
ENDBRANCH   2   9
BRANCH   6  18
HETATM   18  C   UNL     1      -5.020  28.126   8.351  1.00  0.00     0.184 C 
HETATM   19  O   UNL     1      -3.987  28.582   7.885  1.00  0.00    -0.290 OA
BRANCH  18  20
HETATM   20  C   UNL     1      -6.296  28.335   7.547  1.00  0.00     0.247 C 
BRANCH  20  21
HETATM   21  O   UNL     1      -7.431  28.370   8.395  1.00  0.00    -0.393 OA
ATOM     22  HO  UNL     1      -7.433  29.155   8.930  1.00  0.00     0.209 HD
ENDBRANCH  20  21
ENDBRANCH  18  20
ENDBRANCH   6  18
TORSDOF 8
ENDMDL
MODEL 2
REMARK VINA RESULT:      -7.8      1.628      1.844
REMARK  8 active torsions:
REMARK  status: ('A' for Active; 'I' for Inactive)
REMARK    1  A    between atoms: O_3  and  C_10 
REMARK    2  A    between atoms: C_5  and  C_10 
REMARK    3  A    between atoms: C_5  and  C_16 
REMARK    4  A    between atoms: C_9  and  C_18 
REMARK    5  A    between atoms: P_14  and  O_15 
REMARK    6  A    between atoms: O_15  and  C_19 
REMARK    7  A    between atoms: C_17  and  C_18 
REMARK    8  A    between atoms: C_17  and  C_19 
ROOT
HETATM    1  C   UNL     1      -4.809  26.028  11.620  1.00  0.00    -0.038 C 
HETATM    2  C   UNL     1      -4.511  24.763  11.100  1.00  0.00     0.022 C 
HETATM    3  N   UNL     1      -4.214  24.623   9.800  1.00  0.00    -0.367 N 
ATOM      4  HN  UNL     1      -3.683  23.816   9.474  1.00  0.00     0.165 HD
HETATM    5  C   UNL     1      -4.624  25.557   8.943  1.00  0.00     0.103 C 
HETATM    6  C   UNL     1      -4.944  26.834   9.374  1.00  0.00     0.028 C 
HETATM    7  C   UNL     1      -5.172  27.027  10.729  1.00  0.00     0.025 C 
HETATM    8  C   UNL     1      -4.706  26.332  13.093  1.00  0.00     0.050 C 
ENDROOT
BRANCH   2   9
HETATM    9  C   UNL     1      -4.489  23.484  11.914  1.00  0.00     0.138 C 
BRANCH   9  10
HETATM   10  C   UNL     1      -3.237  22.646  11.943  1.00  0.00     0.156 C 
HETATM   11  O   UNL     1      -2.838  22.081  10.940  1.00  0.00    -0.295 OA
BRANCH  10  12
HETATM   12  C   UNL     1      -2.415  22.585  13.213  1.00  0.00     0.261 C 
BRANCH  12  13
HETATM   13  O   UNL     1      -2.964  23.543  14.117  1.00  0.00    -0.275 OA
BRANCH  13  14
HETATM   14  P   UNL     1      -2.028  24.484  14.998  1.00  0.00     0.422 P 
HETATM   15  O   UNL     1      -1.171  23.577  15.842  1.00  0.00    -0.617 OA
HETATM   16  O   UNL     1      -2.919  25.299  15.873  1.00  0.00    -0.617 OA
HETATM   17  O   UNL     1      -1.229  25.361  14.090  1.00  0.00    -0.617 OA
ENDBRANCH  13  14
ENDBRANCH  12  13
ENDBRANCH  10  12
ENDBRANCH   9  10
ENDBRANCH   2   9
BRANCH   6  18
HETATM   18  C   UNL     1      -4.907  27.967   8.378  1.00  0.00     0.184 C 
HETATM   19  O   UNL     1      -3.869  28.307   7.830  1.00  0.00    -0.290 OA
BRANCH  18  20
HETATM   20  C   UNL     1      -6.209  28.290   7.660  1.00  0.00     0.247 C 
BRANCH  20  21
HETATM   21  O   UNL     1      -5.962  28.965   6.438  1.00  0.00    -0.393 OA
ATOM     22  HO  UNL     1      -6.744  28.992   5.899  1.00  0.00     0.209 HD
ENDBRANCH  20  21
ENDBRANCH  18  20
ENDBRANCH   6  18
TORSDOF 8
ENDMDL
MODEL 3
REMARK VINA RESULT:      -7.7      2.831      7.202
REMARK  8 active torsions:
REMARK  status: ('A' for Active; 'I' for Inactive)
REMARK    1  A    between atoms: O_3  and  C_10 
REMARK    2  A    between atoms: C_5  and  C_10 
REMARK    3  A    between atoms: C_5  and  C_16 
REMARK    4  A    between atoms: C_9  and  C_18 
REMARK    5  A    between atoms: P_14  and  O_15 
REMARK    6  A    between atoms: O_15  and  C_19 
REMARK    7  A    between atoms: C_17  and  C_18 
REMARK    8  A    between atoms: C_17  and  C_19 
ROOT
HETATM    1  C   UNL     1      -3.980  22.788  12.424  1.00  0.00    -0.038 C 
HETATM    2  C   UNL     1      -4.231  24.061  11.901  1.00  0.00     0.022 C 
HETATM    3  N   UNL     1      -3.364  25.060  12.118  1.00  0.00    -0.367 N 
ATOM      4  HN  UNL     1      -3.340  25.870  11.498  1.00  0.00     0.165 HD
HETATM    5  C   UNL     1      -2.535  24.978  13.158  1.00  0.00     0.103 C 
HETATM    6  C   UNL     1      -2.235  23.756  13.739  1.00  0.00     0.028 C 
HETATM    7  C   UNL     1      -3.067  22.681  13.462  1.00  0.00     0.025 C 
HETATM    8  C   UNL     1      -4.636  21.550  11.866  1.00  0.00     0.050 C 
ENDROOT
BRANCH   2   9
HETATM    9  C   UNL     1      -5.447  24.423  11.071  1.00  0.00     0.138 C 
BRANCH   9  10
HETATM   10  C   UNL     1      -5.543  25.796  10.458  1.00  0.00     0.156 C 
HETATM   11  O   UNL     1      -5.791  26.772  11.143  1.00  0.00    -0.295 OA
BRANCH  10  12
HETATM   12  C   UNL     1      -5.235  25.974   8.986  1.00  0.00     0.261 C 
BRANCH  12  13
HETATM   13  O   UNL     1      -6.344  26.658   8.403  1.00  0.00    -0.275 OA
BRANCH  13  14
HETATM   14  P   UNL     1      -6.249  28.195   7.994  1.00  0.00     0.422 P 
HETATM   15  O   UNL     1      -6.756  28.301   6.580  1.00  0.00    -0.617 OA
HETATM   16  O   UNL     1      -4.807  28.576   8.045  1.00  0.00    -0.617 OA
HETATM   17  O   UNL     1      -7.047  29.005   8.961  1.00  0.00    -0.617 OA
ENDBRANCH  13  14
ENDBRANCH  12  13
ENDBRANCH  10  12
ENDBRANCH   9  10
ENDBRANCH   2   9
BRANCH   6  18
HETATM   18  C   UNL     1      -0.961  23.626  14.537  1.00  0.00     0.184 C 
HETATM   19  O   UNL     1      -0.033  24.407  14.397  1.00  0.00    -0.290 OA
BRANCH  18  20
HETATM   20  C   UNL     1      -1.059  22.896  15.869  1.00  0.00     0.247 C 
BRANCH  20  21
HETATM   21  O   UNL     1      -1.816  23.645  16.805  1.00  0.00    -0.393 OA
ATOM     22  HO  UNL     1      -2.393  23.081  17.306  1.00  0.00     0.209 HD
ENDBRANCH  20  21
ENDBRANCH  18  20
ENDBRANCH   6  18
TORSDOF 8
ENDMDL
MODEL 4
REMARK VINA RESULT:      -7.6      2.807      7.219
REMARK  8 active torsions:
REMARK  status: ('A' for Active; 'I' for Inactive)
REMARK    1  A    between atoms: O_3  and  C_10 
REMARK    2  A    between atoms: C_5  and  C_10 
REMARK    3  A    between atoms: C_5  and  C_16 
REMARK    4  A    between atoms: C_9  and  C_18 
REMARK    5  A    between atoms: P_14  and  O_15 
REMARK    6  A    between atoms: O_15  and  C_19 
REMARK    7  A    between atoms: C_17  and  C_18 
REMARK    8  A    between atoms: C_17  and  C_19 
ROOT
HETATM    1  C   UNL     1      -3.803  22.696  12.291  1.00  0.00    -0.038 C 
HETATM    2  C   UNL     1      -3.932  23.976  11.742  1.00  0.00     0.022 C 
HETATM    3  N   UNL     1      -2.876  24.802  11.703  1.00  0.00    -0.367 N 
ATOM      4  HN  UNL     1      -2.844  25.572  11.035  1.00  0.00     0.165 HD
HETATM    5  C   UNL     1      -1.870  24.598  12.553  1.00  0.00     0.103 C 
HETATM    6  C   UNL     1      -1.673  23.361  13.146  1.00  0.00     0.028 C 
HETATM    7  C   UNL     1      -2.721  22.453  13.124  1.00  0.00     0.025 C 
HETATM    8  C   UNL     1      -4.772  21.586  11.971  1.00  0.00     0.050 C 
ENDROOT
BRANCH   2   9
HETATM    9  C   UNL     1      -5.215  24.533  11.156  1.00  0.00     0.138 C 
BRANCH   9  10
HETATM   10  C   UNL     1      -5.142  25.569  10.064  1.00  0.00     0.156 C 
HETATM   11  O   UNL     1      -4.515  25.358   9.041  1.00  0.00    -0.295 OA
BRANCH  10  12
HETATM   12  C   UNL     1      -5.937  26.849  10.203  1.00  0.00     0.261 C 
BRANCH  12  13
HETATM   13  O   UNL     1      -6.689  27.011   9.000  1.00  0.00    -0.275 OA
BRANCH  13  14
HETATM   14  P   UNL     1      -6.540  28.317   8.098  1.00  0.00     0.422 P 
HETATM   15  O   UNL     1      -7.436  29.366   8.702  1.00  0.00    -0.617 OA
HETATM   16  O   UNL     1      -7.021  27.965   6.731  1.00  0.00    -0.617 OA
HETATM   17  O   UNL     1      -5.104  28.724   8.067  1.00  0.00    -0.617 OA
ENDBRANCH  13  14
ENDBRANCH  12  13
ENDBRANCH  10  12
ENDBRANCH   9  10
ENDBRANCH   2   9
BRANCH   6  18
HETATM   18  C   UNL     1      -0.300  23.020  13.672  1.00  0.00     0.184 C 
HETATM   19  O   UNL     1      -0.086  21.986  14.285  1.00  0.00    -0.290 OA
BRANCH  18  20
HETATM   20  C   UNL     1       0.884  23.665  12.966  1.00  0.00     0.247 C 
BRANCH  20  21
HETATM   21  O   UNL     1       1.384  24.762  13.711  1.00  0.00    -0.393 OA
ATOM     22  HO  UNL     1       2.097  25.190  13.252  1.00  0.00     0.209 HD
ENDBRANCH  20  21
ENDBRANCH  18  20
ENDBRANCH   6  18
TORSDOF 8
ENDMDL
MODEL 5
REMARK VINA RESULT:      -7.3      2.670      7.065
REMARK  8 active torsions:
REMARK  status: ('A' for Active; 'I' for Inactive)
REMARK    1  A    between atoms: O_3  and  C_10 
REMARK    2  A    between atoms: C_5  and  C_10 
REMARK    3  A    between atoms: C_5  and  C_16 
REMARK    4  A    between atoms: C_9  and  C_18 
REMARK    5  A    between atoms: P_14  and  O_15 
REMARK    6  A    between atoms: O_15  and  C_19 
REMARK    7  A    between atoms: C_17  and  C_18 
REMARK    8  A    between atoms: C_17  and  C_19 
ROOT
HETATM    1  C   UNL     1      -3.960  25.107  12.471  1.00  0.00    -0.038 C 
HETATM    2  C   UNL     1      -4.760  24.461  11.521  1.00  0.00     0.022 C 
HETATM    3  N   UNL     1      -4.663  23.135  11.351  1.00  0.00    -0.367 N 
ATOM      4  HN  UNL     1      -5.432  22.608  10.936  1.00  0.00     0.165 HD
HETATM    5  C   UNL     1      -3.547  22.517  11.734  1.00  0.00     0.103 C 
HETATM    6  C   UNL     1      -2.696  23.088  12.667  1.00  0.00     0.028 C 
HETATM    7  C   UNL     1      -2.831  24.444  12.928  1.00  0.00     0.025 C 
HETATM    8  C   UNL     1      -4.315  26.463  13.028  1.00  0.00     0.050 C 
ENDROOT
BRANCH   2   9
HETATM    9  C   UNL     1      -5.772  25.159  10.635  1.00  0.00     0.138 C 
BRANCH   9  10
HETATM   10  C   UNL     1      -5.290  26.049   9.519  1.00  0.00     0.156 C 
HETATM   11  O   UNL     1      -5.016  25.590   8.424  1.00  0.00    -0.295 OA
BRANCH  10  12
HETATM   12  C   UNL     1      -5.237  27.547   9.736  1.00  0.00     0.261 C 
BRANCH  12  13
HETATM   13  O   UNL     1      -5.075  28.154   8.454  1.00  0.00    -0.275 OA
BRANCH  13  14
HETATM   14  P   UNL     1      -6.226  29.044   7.807  1.00  0.00     0.422 P 
HETATM   15  O   UNL     1      -6.445  28.523   6.410  1.00  0.00    -0.617 OA
HETATM   16  O   UNL     1      -5.721  30.447   7.752  1.00  0.00    -0.617 OA
HETATM   17  O   UNL     1      -7.448  28.953   8.660  1.00  0.00    -0.617 OA
ENDBRANCH  13  14
ENDBRANCH  12  13
ENDBRANCH  10  12
ENDBRANCH   9  10
ENDBRANCH   2   9
BRANCH   6  18
HETATM   18  C   UNL     1      -1.757  22.192  13.436  1.00  0.00     0.184 C 
HETATM   19  O   UNL     1      -2.078  21.063  13.774  1.00  0.00    -0.290 OA
BRANCH  18  20
HETATM   20  C   UNL     1      -0.268  22.476  13.294  1.00  0.00     0.247 C 
BRANCH  20  21
HETATM   21  O   UNL     1       0.108  22.541  11.929  1.00  0.00    -0.393 OA
ATOM     22  HO  UNL     1       0.965  22.939  11.830  1.00  0.00     0.209 HD
ENDBRANCH  20  21
ENDBRANCH  18  20
ENDBRANCH   6  18
TORSDOF 8
ENDMDL
MODEL 6
REMARK VINA RESULT:      -7.2      1.476      2.698
REMARK  8 active torsions:
REMARK  status: ('A' for Active; 'I' for Inactive)
REMARK    1  A    between atoms: O_3  and  C_10 
REMARK    2  A    between atoms: C_5  and  C_10 
REMARK    3  A    between atoms: C_5  and  C_16 
REMARK    4  A    between atoms: C_9  and  C_18 
REMARK    5  A    between atoms: P_14  and  O_15 
REMARK    6  A    between atoms: O_15  and  C_19 
REMARK    7  A    between atoms: C_17  and  C_18 
REMARK    8  A    between atoms: C_17  and  C_19 
ROOT
HETATM    1  C   UNL     1      -4.238  24.059  11.583  1.00  0.00    -0.038 C 
HETATM    2  C   UNL     1      -4.052  24.969  12.630  1.00  0.00     0.022 C 
HETATM    3  N   UNL     1      -4.406  26.253  12.476  1.00  0.00    -0.367 N 
ATOM      4  HN  UNL     1      -4.596  26.839  13.289  1.00  0.00     0.165 HD
HETATM    5  C   UNL     1      -4.506  26.749  11.243  1.00  0.00     0.103 C 
HETATM    6  C   UNL     1      -4.686  25.917  10.149  1.00  0.00     0.028 C 
HETATM    7  C   UNL     1      -4.411  24.567  10.304  1.00  0.00     0.025 C 
HETATM    8  C   UNL     1      -4.295  22.570  11.817  1.00  0.00     0.050 C 
ENDROOT
BRANCH   2   9
HETATM    9  C   UNL     1      -3.466  24.613  13.982  1.00  0.00     0.138 C 
BRANCH   9  10
HETATM   10  C   UNL     1      -1.972  24.482  14.130  1.00  0.00     0.156 C 
HETATM   11  O   UNL     1      -1.321  25.340  14.699  1.00  0.00    -0.295 OA
BRANCH  10  12
HETATM   12  C   UNL     1      -1.287  23.221  13.647  1.00  0.00     0.261 C 
BRANCH  12  13
HETATM   13  O   UNL     1      -0.574  23.558  12.457  1.00  0.00    -0.275 OA
BRANCH  13  14
HETATM   14  P   UNL     1       1.017  23.643  12.439  1.00  0.00     0.422 P 
HETATM   15  O   UNL     1       1.430  23.753  10.995  1.00  0.00    -0.617 OA
HETATM   16  O   UNL     1       1.533  22.369  13.019  1.00  0.00    -0.617 OA
HETATM   17  O   UNL     1       1.449  24.813  13.260  1.00  0.00    -0.617 OA
ENDBRANCH  13  14
ENDBRANCH  12  13
ENDBRANCH  10  12
ENDBRANCH   9  10
ENDBRANCH   2   9
BRANCH   6  18
HETATM   18  C   UNL     1      -5.287  26.495   8.891  1.00  0.00     0.184 C 
HETATM   19  O   UNL     1      -6.183  25.925   8.287  1.00  0.00    -0.290 OA
BRANCH  18  20
HETATM   20  C   UNL     1      -5.175  28.001   8.708  1.00  0.00     0.247 C 
BRANCH  20  21
HETATM   21  O   UNL     1      -3.979  28.343   8.029  1.00  0.00    -0.393 OA
ATOM     22  HO  UNL     1      -4.069  28.211   7.092  1.00  0.00     0.209 HD
ENDBRANCH  20  21
ENDBRANCH  18  20
ENDBRANCH   6  18
TORSDOF 8
ENDMDL
MODEL 7
REMARK VINA RESULT:      -7.2      3.117      7.461
REMARK  8 active torsions:
REMARK  status: ('A' for Active; 'I' for Inactive)
REMARK    1  A    between atoms: O_3  and  C_10 
REMARK    2  A    between atoms: C_5  and  C_10 
REMARK    3  A    between atoms: C_5  and  C_16 
REMARK    4  A    between atoms: C_9  and  C_18 
REMARK    5  A    between atoms: P_14  and  O_15 
REMARK    6  A    between atoms: O_15  and  C_19 
REMARK    7  A    between atoms: C_17  and  C_18 
REMARK    8  A    between atoms: C_17  and  C_19 
ROOT
HETATM    1  C   UNL     1      -3.938  23.097  12.614  1.00  0.00    -0.038 C 
HETATM    2  C   UNL     1      -3.751  24.471  12.427  1.00  0.00     0.022 C 
HETATM    3  N   UNL     1      -2.573  25.037  12.726  1.00  0.00    -0.367 N 
ATOM      4  HN  UNL     1      -2.301  25.924  12.302  1.00  0.00     0.165 HD
HETATM    5  C   UNL     1      -1.764  24.420  13.586  1.00  0.00     0.103 C 
HETATM    6  C   UNL     1      -1.883  23.062  13.834  1.00  0.00     0.028 C 
HETATM    7  C   UNL     1      -3.059  22.431  13.455  1.00  0.00     0.025 C 
HETATM    8  C   UNL     1      -5.026  22.333  11.903  1.00  0.00     0.050 C 
ENDROOT
BRANCH   2   9
HETATM    9  C   UNL     1      -4.808  25.415  11.887  1.00  0.00     0.138 C 
BRANCH   9  10
HETATM   10  C   UNL     1      -4.907  25.645  10.402  1.00  0.00     0.156 C 
HETATM   11  O   UNL     1      -3.975  25.382   9.663  1.00  0.00    -0.295 OA
BRANCH  10  12
HETATM   12  C   UNL     1      -6.217  26.123   9.811  1.00  0.00     0.261 C 
BRANCH  12  13
HETATM   13  O   UNL     1      -5.944  26.564   8.482  1.00  0.00    -0.275 OA
BRANCH  13  14
HETATM   14  P   UNL     1      -6.218  28.069   8.035  1.00  0.00     0.422 P 
HETATM   15  O   UNL     1      -6.976  28.005   6.735  1.00  0.00    -0.617 OA
HETATM   16  O   UNL     1      -4.890  28.712   7.816  1.00  0.00    -0.617 OA
HETATM   17  O   UNL     1      -6.974  28.767   9.117  1.00  0.00    -0.617 OA
ENDBRANCH  13  14
ENDBRANCH  12  13
ENDBRANCH  10  12
ENDBRANCH   9  10
ENDBRANCH   2   9
BRANCH   6  18
HETATM   18  C   UNL     1      -0.692  22.317  14.384  1.00  0.00     0.184 C 
HETATM   19  O   UNL     1      -0.723  21.774  15.478  1.00  0.00    -0.290 OA
BRANCH  18  20
HETATM   20  C   UNL     1       0.308  21.780  13.370  1.00  0.00     0.247 C 
BRANCH  20  21
HETATM   21  O   UNL     1       1.483  21.315  14.012  1.00  0.00    -0.393 OA
ATOM     22  HO  UNL     1       2.203  21.923  13.887  1.00  0.00     0.209 HD
ENDBRANCH  20  21
ENDBRANCH  18  20
ENDBRANCH   6  18
TORSDOF 8
ENDMDL
MODEL 8
REMARK VINA RESULT:      -7.1      2.038      3.134
REMARK  8 active torsions:
REMARK  status: ('A' for Active; 'I' for Inactive)
REMARK    1  A    between atoms: O_3  and  C_10 
REMARK    2  A    between atoms: C_5  and  C_10 
REMARK    3  A    between atoms: C_5  and  C_16 
REMARK    4  A    between atoms: C_9  and  C_18 
REMARK    5  A    between atoms: P_14  and  O_15 
REMARK    6  A    between atoms: O_15  and  C_19 
REMARK    7  A    between atoms: C_17  and  C_18 
REMARK    8  A    between atoms: C_17  and  C_19 
ROOT
HETATM    1  C   UNL     1      -4.040  24.333  11.559  1.00  0.00    -0.038 C 
HETATM    2  C   UNL     1      -3.838  25.257  12.590  1.00  0.00     0.022 C 
HETATM    3  N   UNL     1      -4.351  26.492  12.496  1.00  0.00    -0.367 N 
ATOM      4  HN  UNL     1      -4.510  27.053  13.333  1.00  0.00     0.165 HD
HETATM    5  C   UNL     1      -4.648  26.975  11.290  1.00  0.00     0.103 C 
HETATM    6  C   UNL     1      -4.859  26.129  10.213  1.00  0.00     0.028 C 
HETATM    7  C   UNL     1      -4.416  24.819  10.316  1.00  0.00     0.025 C 
HETATM    8  C   UNL     1      -3.901  22.847  11.777  1.00  0.00     0.050 C 
ENDROOT
BRANCH   2   9
HETATM    9  C   UNL     1      -3.062  24.969  13.860  1.00  0.00     0.138 C 
BRANCH   9  10
HETATM   10  C   UNL     1      -1.605  24.599  13.771  1.00  0.00     0.156 C 
HETATM   11  O   UNL     1      -0.910  25.005  12.856  1.00  0.00    -0.295 OA
BRANCH  10  12
HETATM   12  C   UNL     1      -0.976  23.790  14.885  1.00  0.00     0.261 C 
BRANCH  12  13
HETATM   13  O   UNL     1      -0.280  22.703  14.275  1.00  0.00    -0.275 OA
BRANCH  13  14
HETATM   14  P   UNL     1      -0.600  21.191  14.663  1.00  0.00     0.422 P 
HETATM   15  O   UNL     1       0.493  20.347  14.061  1.00  0.00    -0.617 OA
HETATM   16  O   UNL     1      -1.911  20.844  14.040  1.00  0.00    -0.617 OA
HETATM   17  O   UNL     1      -0.673  21.076  16.150  1.00  0.00    -0.617 OA
ENDBRANCH  13  14
ENDBRANCH  12  13
ENDBRANCH  10  12
ENDBRANCH   9  10
ENDBRANCH   2   9
BRANCH   6  18
HETATM   18  C   UNL     1      -5.663  26.636   9.040  1.00  0.00     0.184 C 
HETATM   19  O   UNL     1      -6.225  25.873   8.269  1.00  0.00    -0.290 OA
BRANCH  18  20
HETATM   20  C   UNL     1      -6.223  28.046   9.152  1.00  0.00     0.247 C 
BRANCH  20  21
HETATM   21  O   UNL     1      -7.419  28.179   8.403  1.00  0.00    -0.393 OA
ATOM     22  HO  UNL     1      -7.840  27.336   8.279  1.00  0.00     0.209 HD
ENDBRANCH  20  21
ENDBRANCH  18  20
ENDBRANCH   6  18
TORSDOF 8
ENDMDL
MODEL 9
REMARK VINA RESULT:      -7.1      3.535      7.211
REMARK  8 active torsions:
REMARK  status: ('A' for Active; 'I' for Inactive)
REMARK    1  A    between atoms: O_3  and  C_10 
REMARK    2  A    between atoms: C_5  and  C_10 
REMARK    3  A    between atoms: C_5  and  C_16 
REMARK    4  A    between atoms: C_9  and  C_18 
REMARK    5  A    between atoms: P_14  and  O_15 
REMARK    6  A    between atoms: O_15  and  C_19 
REMARK    7  A    between atoms: C_17  and  C_18 
REMARK    8  A    between atoms: C_17  and  C_19 
ROOT
HETATM    1  C   UNL     1      -3.393  24.279  12.871  1.00  0.00    -0.038 C 
HETATM    2  C   UNL     1      -4.588  24.478  12.170  1.00  0.00     0.022 C 
HETATM    3  N   UNL     1      -5.353  23.429  11.835  1.00  0.00    -0.367 N 
ATOM      4  HN  UNL     1      -6.347  23.554  11.639  1.00  0.00     0.165 HD
HETATM    5  C   UNL     1      -4.795  22.222  11.764  1.00  0.00     0.103 C 
HETATM    6  C   UNL     1      -3.609  21.941  12.424  1.00  0.00     0.028 C 
HETATM    7  C   UNL     1      -2.837  23.008  12.860  1.00  0.00     0.025 C 
HETATM    8  C   UNL     1      -2.732  25.383  13.657  1.00  0.00     0.050 C 
ENDROOT
BRANCH   2   9
HETATM    9  C   UNL     1      -5.117  25.833  11.744  1.00  0.00     0.138 C 
BRANCH   9  10
HETATM   10  C   UNL     1      -5.650  26.013  10.347  1.00  0.00     0.156 C 
HETATM   11  O   UNL     1      -6.624  25.391   9.962  1.00  0.00    -0.295 OA
BRANCH  10  12
HETATM   12  C   UNL     1      -5.022  27.052   9.442  1.00  0.00     0.261 C 
BRANCH  12  13
HETATM   13  O   UNL     1      -5.764  27.053   8.222  1.00  0.00    -0.275 OA
BRANCH  13  14
HETATM   14  P   UNL     1      -6.487  28.370   7.692  1.00  0.00     0.422 P 
HETATM   15  O   UNL     1      -7.358  28.870   8.815  1.00  0.00    -0.617 OA
HETATM   16  O   UNL     1      -7.335  27.971   6.531  1.00  0.00    -0.617 OA
HETATM   17  O   UNL     1      -5.449  29.359   7.276  1.00  0.00    -0.617 OA
ENDBRANCH  13  14
ENDBRANCH  12  13
ENDBRANCH  10  12
ENDBRANCH   9  10
ENDBRANCH   2   9
BRANCH   6  18
HETATM   18  C   UNL     1      -3.280  20.503  12.743  1.00  0.00     0.184 C 
HETATM   19  O   UNL     1      -3.286  20.083  13.890  1.00  0.00    -0.290 OA
BRANCH  18  20
HETATM   20  C   UNL     1      -3.495  19.488  11.630  1.00  0.00     0.247 C 
BRANCH  20  21
HETATM   21  O   UNL     1      -2.476  19.586  10.649  1.00  0.00    -0.393 OA
ATOM     22  HO  UNL     1      -2.087  20.453  10.646  1.00  0.00     0.209 HD
ENDBRANCH  20  21
ENDBRANCH  18  20
ENDBRANCH   6  18
TORSDOF 8
ENDMDL
