REMARK  7 active torsions:
REMARK  status: ('A' for Active; 'I' for Inactive)
REMARK    1  A    between atoms: C_1  and  O_4 
REMARK    2  A    between atoms: N_6  and  C_13 
REMARK    3  A    between atoms: N_6  and  C_14 
REMARK    4  A    between atoms: O_9  and  C_23 
REMARK    5  A    between atoms: C_13  and  C_25 
REMARK    6  A    between atoms: C_14  and  C_19 
REMARK    7  A    between atoms: O_15  and  C_18 
ROOT
HETATM    1  N   UNL     1      -4.449  26.967  11.656  1.00  0.00    -0.063 N 
ATOM      2  HN1 UNL     1      -3.925  27.787  11.350  1.00  0.00     0.278 HD
ATOM      3  HN2 UNL     1      -4.596  27.225  12.632  1.00  0.00     0.278 HD
ENDROOT
BRANCH   1   4
HETATM    4  C   UNL     1      -3.643  25.749  11.544  1.00  0.00     0.271 C 
BRANCH   4   5
HETATM    5  C   UNL     1      -2.863  25.458  12.806  1.00  0.00    -0.028 C 
HETATM    6  C   UNL     1      -1.510  25.177  12.731  1.00  0.00     0.045 C 
HETATM    7  C   UNL     1      -0.783  24.915  13.880  1.00  0.00     0.068 C 
HETATM    8  C   UNL     1      -1.373  25.080  15.127  1.00  0.00     0.073 C 
HETATM    9  C   UNL     1      -2.716  25.415  15.209  1.00  0.00     0.068 C 
HETATM   10  C   UNL     1      -3.435  25.655  14.047  1.00  0.00     0.045 C 
BRANCH   7  11
HETATM   11  O   UNL     1       0.576  24.819  13.813  1.00  0.00    -0.361 OA
ATOM     12  HO  UNL     1       1.075  24.639  14.601  1.00  0.00     0.217 HD
ENDBRANCH   7  11
BRANCH   9  13
HETATM   13  O   UNL     1      -3.187  25.942  16.373  1.00  0.00    -0.361 OA
ATOM     14  HO  UNL     1      -2.695  25.778  17.169  1.00  0.00     0.217 HD
ENDBRANCH   9  13
ENDBRANCH   4   5
ENDBRANCH   1   4
BRANCH   1  15
HETATM   15  C   UNL     1      -5.733  26.850  10.932  1.00  0.00     0.220 C 
HETATM   16  C   UNL     1      -6.199  25.413  10.757  1.00  0.00     0.045 C 
BRANCH  15  17
HETATM   17  C   UNL     1      -5.735  27.599   9.632  1.00  0.00     0.043 C 
HETATM   18  C   UNL     1      -6.196  28.882   9.468  1.00  0.00     0.052 C 
HETATM   19  C   UNL     1      -6.426  29.341   8.161  1.00  0.00     0.081 C 
HETATM   20  C   UNL     1      -6.531  28.379   7.142  1.00  0.00     0.127 C 
HETATM   21  N   UNL     1      -5.885  27.199   7.301  1.00  0.00    -0.330 N 
HETATM   22  C   UNL     1      -5.102  27.034   8.416  1.00  0.00     0.253 C 
ATOM     23  HN  UNL     1      -5.978  26.454   6.611  1.00  0.00     0.168 HD
HETATM   24  O   UNL     1      -4.046  26.438   8.446  1.00  0.00    -0.268 OA
BRANCH  19  25
HETATM   25  O   UNL     1      -5.900  30.525   7.752  1.00  0.00    -0.359 OA
ATOM     26  HO  UNL     1      -6.056  30.836   6.868  1.00  0.00     0.217 HD
ENDBRANCH  19  25
ENDBRANCH  15  17
ENDBRANCH   1  15
TORSDOF 7
