MODEL 1
REMARK VINA RESULT:     -11.2      0.000      0.000
REMARK  4 active torsions:
REMARK  status: ('A' for Active; 'I' for Inactive)
REMARK    1  A    between atoms: C_2  and  O_21 
REMARK    2  A    between atoms: C_5  and  C_9 
REMARK    3  A    between atoms: C_6  and  C_20 
REMARK    4  A    between atoms: C_9  and  C_11 
ROOT
HETATM    1  C   UNL     1      -2.489 102.527  23.749  1.00  0.00    -0.035 C 
HETATM    2  C   UNL     1      -4.232 101.924  21.676  1.00  0.00     0.014 C 
HETATM    3  C   UNL     1      -3.250 103.521  23.158  1.00  0.00     0.025 C 
HETATM    4  C   UNL     1      -2.489 101.257  23.186  1.00  0.00     0.011 C 
HETATM    5  C   UNL     1      -3.427 100.933  22.219  1.00  0.00     0.002 C 
HETATM    6  C   UNL     1      -4.259 103.182  22.260  1.00  0.00    -0.009 C 
ENDROOT
BRANCH   6   7
HETATM    7  C   UNL     1      -5.279 104.198  21.861  1.00  0.00     0.043 C 
HETATM    8  C   UNL     1      -6.434 104.395  22.594  1.00  0.00     0.044 C 
HETATM    9  C   UNL     1      -7.200 105.361  21.933  1.00  0.00    -0.007 C 
HETATM   10  C   UNL     1      -8.456 105.902  22.185  1.00  0.00     0.014 C 
HETATM   11  C   UNL     1      -6.370 105.930  20.947  1.00  0.00     0.043 C 
HETATM   12  C   UNL     1      -8.771 107.148  21.648  1.00  0.00     0.001 C 
HETATM   13  C   UNL     1      -7.909 107.768  20.743  1.00  0.00     0.002 C 
HETATM   14  C   UNL     1      -6.746 107.122  20.331  1.00  0.00     0.030 C 
HETATM   15  N   UNL     1      -5.336 105.022  20.749  1.00  0.00    -0.355 N 
ATOM     16  HN  UNL     1      -4.729 104.972  19.931  1.00  0.00     0.166 HD
ENDBRANCH   6   7
BRANCH   1  17
HETATM   17  C   UNL     1      -1.795 102.792  25.069  1.00  0.00     0.022 C 
BRANCH  17  18
HETATM   18  C   UNL     1      -2.474 102.723  26.420  1.00  0.00    -0.033 C 
HETATM   19  C   UNL     1      -3.262 103.801  26.808  1.00  0.00     0.011 C 
HETATM   20  C   UNL     1      -2.915 104.429  28.004  1.00  0.00     0.004 C 
HETATM   21  C   UNL     1      -2.269 103.663  28.977  1.00  0.00     0.036 C 
HETATM   22  C   UNL     1      -2.044 102.310  28.729  1.00  0.00     0.066 C 
HETATM   23  C   UNL     1      -2.095 101.827  27.421  1.00  0.00     0.048 C 
BRANCH  22  24
HETATM   24  O   UNL     1      -1.430 101.603  29.727  1.00  0.00    -0.361 OA
ATOM     25  HO  UNL     1      -0.570 101.906  29.992  1.00  0.00     0.217 HD
ENDBRANCH  22  24
ENDBRANCH  17  18
ENDBRANCH   1  17
TORSDOF 4
ENDMDL
MODEL 2
REMARK VINA RESULT:     -11.1      3.263      7.600
REMARK  4 active torsions:
REMARK  status: ('A' for Active; 'I' for Inactive)
REMARK    1  A    between atoms: C_2  and  O_21 
REMARK    2  A    between atoms: C_5  and  C_9 
REMARK    3  A    between atoms: C_6  and  C_20 
REMARK    4  A    between atoms: C_9  and  C_11 
ROOT
HETATM    1  C   UNL     1      -3.098 104.222  20.786  1.00  0.00    -0.035 C 
HETATM    2  C   UNL     1      -2.525 101.803  22.020  1.00  0.00     0.014 C 
HETATM    3  C   UNL     1      -3.144 104.107  22.165  1.00  0.00     0.025 C 
HETATM    4  C   UNL     1      -2.919 103.076  20.023  1.00  0.00     0.011 C 
HETATM    5  C   UNL     1      -2.538 101.893  20.635  1.00  0.00     0.002 C 
HETATM    6  C   UNL     1      -2.666 102.953  22.782  1.00  0.00    -0.009 C 
ENDROOT
BRANCH   6   7
HETATM    7  C   UNL     1      -2.422 102.939  24.256  1.00  0.00     0.043 C 
HETATM    8  C   UNL     1      -3.022 103.854  25.100  1.00  0.00     0.044 C 
HETATM    9  C   UNL     1      -2.549 103.616  26.395  1.00  0.00    -0.007 C 
HETATM   10  C   UNL     1      -2.768 104.253  27.611  1.00  0.00     0.014 C 
HETATM   11  C   UNL     1      -1.869 102.383  26.356  1.00  0.00     0.043 C 
HETATM   12  C   UNL     1      -2.546 103.545  28.791  1.00  0.00     0.001 C 
HETATM   13  C   UNL     1      -1.962 102.279  28.758  1.00  0.00     0.002 C 
HETATM   14  C   UNL     1      -1.549 101.731  27.546  1.00  0.00     0.030 C 
HETATM   15  N   UNL     1      -1.573 102.152  25.017  1.00  0.00    -0.355 N 
ATOM     16  HN  UNL     1      -0.860 101.518  24.660  1.00  0.00     0.166 HD
ENDBRANCH   6   7
BRANCH   1  17
HETATM   17  C   UNL     1      -3.090 105.593  20.143  1.00  0.00     0.022 C 
BRANCH  17  18
HETATM   18  C   UNL     1      -4.327 106.311  19.648  1.00  0.00    -0.033 C 
HETATM   19  C   UNL     1      -4.302 107.702  19.612  1.00  0.00     0.011 C 
HETATM   20  C   UNL     1      -5.291 108.363  20.340  1.00  0.00     0.004 C 
HETATM   21  C   UNL     1      -6.505 107.701  20.536  1.00  0.00     0.036 C 
HETATM   22  C   UNL     1      -6.688 106.444  19.963  1.00  0.00     0.066 C 
HETATM   23  C   UNL     1      -5.579 105.701  19.552  1.00  0.00     0.048 C 
BRANCH  22  24
HETATM   24  O   UNL     1      -7.905 105.853  20.167  1.00  0.00    -0.361 OA
ATOM     25  HO  UNL     1      -8.646 106.247  19.721  1.00  0.00     0.217 HD
ENDBRANCH  22  24
ENDBRANCH  17  18
ENDBRANCH   1  17
TORSDOF 4
ENDMDL
MODEL 3
REMARK VINA RESULT:     -11.0      0.662      1.242
REMARK  4 active torsions:
REMARK  status: ('A' for Active; 'I' for Inactive)
REMARK    1  A    between atoms: C_2  and  O_21 
REMARK    2  A    between atoms: C_5  and  C_9 
REMARK    3  A    between atoms: C_6  and  C_20 
REMARK    4  A    between atoms: C_9  and  C_11 
ROOT
HETATM    1  C   UNL     1      -2.464 102.471  23.776  1.00  0.00    -0.035 C 
HETATM    2  C   UNL     1      -4.246 101.965  21.710  1.00  0.00     0.014 C 
HETATM    3  C   UNL     1      -3.303 103.469  23.310  1.00  0.00     0.025 C 
HETATM    4  C   UNL     1      -2.412 101.264  23.090  1.00  0.00     0.011 C 
HETATM    5  C   UNL     1      -3.366 100.977  22.127  1.00  0.00     0.002 C 
HETATM    6  C   UNL     1      -4.324 103.157  22.417  1.00  0.00    -0.009 C 
ENDROOT
BRANCH   6   7
HETATM    7  C   UNL     1      -5.415 104.143  22.152  1.00  0.00     0.043 C 
HETATM    8  C   UNL     1      -5.513 104.810  20.946  1.00  0.00     0.044 C 
HETATM    9  C   UNL     1      -6.592 105.696  21.034  1.00  0.00    -0.007 C 
HETATM   10  C   UNL     1      -7.112 106.640  20.155  1.00  0.00     0.014 C 
HETATM   11  C   UNL     1      -7.298 105.358  22.205  1.00  0.00     0.043 C 
HETATM   12  C   UNL     1      -8.436 107.044  20.307  1.00  0.00     0.001 C 
HETATM   13  C   UNL     1      -9.178 106.635  21.416  1.00  0.00     0.002 C 
HETATM   14  C   UNL     1      -8.584 105.857  22.407  1.00  0.00     0.030 C 
HETATM   15  N   UNL     1      -6.413 104.622  22.985  1.00  0.00    -0.355 N 
ATOM     16  HN  UNL     1      -6.486 104.463  23.989  1.00  0.00     0.166 HD
ENDBRANCH   6   7
BRANCH   1  17
HETATM   17  C   UNL     1      -1.737 102.649  25.092  1.00  0.00     0.022 C 
BRANCH  17  18
HETATM   18  C   UNL     1      -2.408 102.632  26.448  1.00  0.00    -0.033 C 
HETATM   19  C   UNL     1      -3.152 103.747  26.821  1.00  0.00     0.011 C 
HETATM   20  C   UNL     1      -2.773 104.384  28.002  1.00  0.00     0.004 C 
HETATM   21  C   UNL     1      -2.151 103.612  28.985  1.00  0.00     0.036 C 
HETATM   22  C   UNL     1      -1.980 102.247  28.763  1.00  0.00     0.066 C 
HETATM   23  C   UNL     1      -2.058 101.741  27.464  1.00  0.00     0.048 C 
BRANCH  22  24
HETATM   24  O   UNL     1      -1.387 101.535  29.771  1.00  0.00    -0.361 OA
ATOM     25  HO  UNL     1      -1.502 101.873  30.651  1.00  0.00     0.217 HD
ENDBRANCH  22  24
ENDBRANCH  17  18
ENDBRANCH   1  17
TORSDOF 4
ENDMDL
MODEL 4
REMARK VINA RESULT:     -10.8      1.704      2.200
REMARK  4 active torsions:
REMARK  status: ('A' for Active; 'I' for Inactive)
REMARK    1  A    between atoms: C_2  and  O_21 
REMARK    2  A    between atoms: C_5  and  C_9 
REMARK    3  A    between atoms: C_6  and  C_20 
REMARK    4  A    between atoms: C_9  and  C_11 
ROOT
HETATM    1  C   UNL     1      -2.533 102.021  22.672  1.00  0.00    -0.035 C 
HETATM    2  C   UNL     1      -3.246 102.522  20.037  1.00  0.00     0.014 C 
HETATM    3  C   UNL     1      -3.007 103.266  22.295  1.00  0.00     0.025 C 
HETATM    4  C   UNL     1      -2.268 101.079  21.687  1.00  0.00     0.011 C 
HETATM    5  C   UNL     1      -2.714 101.291  20.392  1.00  0.00     0.002 C 
HETATM    6  C   UNL     1      -3.546 103.450  21.024  1.00  0.00    -0.009 C 
ENDROOT
BRANCH   6   7
HETATM    7  C   UNL     1      -4.334 104.680  20.716  1.00  0.00     0.043 C 
HETATM    8  C   UNL     1      -5.623 104.853  21.183  1.00  0.00     0.044 C 
HETATM    9  C   UNL     1      -6.103 106.066  20.677  1.00  0.00    -0.007 C 
HETATM   10  C   UNL     1      -7.332 106.709  20.776  1.00  0.00     0.014 C 
HETATM   11  C   UNL     1      -4.996 106.739  20.125  1.00  0.00     0.043 C 
HETATM   12  C   UNL     1      -7.389 108.086  20.572  1.00  0.00     0.001 C 
HETATM   13  C   UNL     1      -6.268 108.782  20.118  1.00  0.00     0.002 C 
HETATM   14  C   UNL     1      -5.093 108.095  19.818  1.00  0.00     0.030 C 
HETATM   15  N   UNL     1      -4.024 105.768  19.915  1.00  0.00    -0.355 N 
ATOM     16  HN  UNL     1      -3.226 105.842  19.285  1.00  0.00     0.166 HD
ENDBRANCH   6   7
BRANCH   1  17
HETATM   17  C   UNL     1      -2.455 101.655  24.139  1.00  0.00     0.022 C 
BRANCH  17  18
HETATM   18  C   UNL     1      -1.987 102.594  25.230  1.00  0.00    -0.033 C 
HETATM   19  C   UNL     1      -1.451 102.034  26.386  1.00  0.00     0.011 C 
HETATM   20  C   UNL     1      -2.072 102.370  27.588  1.00  0.00     0.004 C 
HETATM   21  C   UNL     1      -2.725 103.602  27.659  1.00  0.00     0.036 C 
HETATM   22  C   UNL     1      -2.688 104.450  26.554  1.00  0.00     0.066 C 
HETATM   23  C   UNL     1      -2.362 103.936  25.297  1.00  0.00     0.048 C 
BRANCH  22  24
HETATM   24  O   UNL     1      -3.323 105.655  26.688  1.00  0.00    -0.361 OA
ATOM     25  HO  UNL     1      -4.229 105.626  26.972  1.00  0.00     0.217 HD
ENDBRANCH  22  24
ENDBRANCH  17  18
ENDBRANCH   1  17
TORSDOF 4
ENDMDL
MODEL 5
REMARK VINA RESULT:     -10.8      3.199      7.452
REMARK  4 active torsions:
REMARK  status: ('A' for Active; 'I' for Inactive)
REMARK    1  A    between atoms: C_2  and  O_21 
REMARK    2  A    between atoms: C_5  and  C_9 
REMARK    3  A    between atoms: C_6  and  C_20 
REMARK    4  A    between atoms: C_9  and  C_11 
ROOT
HETATM    1  C   UNL     1      -4.272 103.587  20.873  1.00  0.00    -0.035 C 
HETATM    2  C   UNL     1      -1.851 102.533  21.724  1.00  0.00     0.014 C 
HETATM    3  C   UNL     1      -4.065 103.288  22.209  1.00  0.00     0.025 C 
HETATM    4  C   UNL     1      -3.314 103.204  19.944  1.00  0.00     0.011 C 
HETATM    5  C   UNL     1      -2.070 102.771  20.375  1.00  0.00     0.002 C 
HETATM    6  C   UNL     1      -2.791 102.948  22.656  1.00  0.00    -0.009 C 
ENDROOT
BRANCH   6   7
HETATM    7  C   UNL     1      -2.491 102.929  24.119  1.00  0.00     0.043 C 
HETATM    8  C   UNL     1      -2.997 103.888  24.976  1.00  0.00     0.044 C 
HETATM    9  C   UNL     1      -2.490 103.629  26.254  1.00  0.00    -0.007 C 
HETATM   10  C   UNL     1      -2.620 104.289  27.471  1.00  0.00     0.014 C 
HETATM   11  C   UNL     1      -1.895 102.354  26.202  1.00  0.00     0.043 C 
HETATM   12  C   UNL     1      -2.399 103.577  28.649  1.00  0.00     0.001 C 
HETATM   13  C   UNL     1      -1.901 102.275  28.607  1.00  0.00     0.002 C 
HETATM   14  C   UNL     1      -1.573 101.691  27.385  1.00  0.00     0.030 C 
HETATM   15  N   UNL     1      -1.667 102.094  24.856  1.00  0.00    -0.355 N 
ATOM     16  HN  UNL     1      -1.011 101.411  24.478  1.00  0.00     0.166 HD
ENDBRANCH   6   7
BRANCH   1  17
HETATM   17  C   UNL     1      -5.449 104.449  20.466  1.00  0.00     0.022 C 
BRANCH  17  18
HETATM   18  C   UNL     1      -6.564 104.868  21.399  1.00  0.00    -0.033 C 
HETATM   19  C   UNL     1      -7.430 103.884  21.864  1.00  0.00     0.011 C 
HETATM   20  C   UNL     1      -8.786 104.067  21.594  1.00  0.00     0.004 C 
HETATM   21  C   UNL     1      -9.248 105.376  21.447  1.00  0.00     0.036 C 
HETATM   22  C   UNL     1      -8.354 106.430  21.621  1.00  0.00     0.066 C 
HETATM   23  C   UNL     1      -6.980 106.193  21.547  1.00  0.00     0.048 C 
BRANCH  22  24
HETATM   24  O   UNL     1      -8.867 107.692  21.491  1.00  0.00    -0.361 OA
ATOM     25  HO  UNL     1      -8.898 108.220  22.280  1.00  0.00     0.217 HD
ENDBRANCH  22  24
ENDBRANCH  17  18
ENDBRANCH   1  17
TORSDOF 4
ENDMDL
MODEL 6
REMARK VINA RESULT:     -10.6      1.661      2.322
REMARK  4 active torsions:
REMARK  status: ('A' for Active; 'I' for Inactive)
REMARK    1  A    between atoms: C_2  and  O_21 
REMARK    2  A    between atoms: C_5  and  C_9 
REMARK    3  A    between atoms: C_6  and  C_20 
REMARK    4  A    between atoms: C_9  and  C_11 
ROOT
HETATM    1  C   UNL     1      -2.215 102.372  23.172  1.00  0.00    -0.035 C 
HETATM    2  C   UNL     1      -2.387 102.998  20.475  1.00  0.00     0.014 C 
HETATM    3  C   UNL     1      -2.961 103.458  22.748  1.00  0.00     0.025 C 
HETATM    4  C   UNL     1      -1.426 101.698  22.249  1.00  0.00     0.011 C 
HETATM    5  C   UNL     1      -1.586 101.946  20.895  1.00  0.00     0.002 C 
HETATM    6  C   UNL     1      -3.203 103.647  21.390  1.00  0.00    -0.009 C 
ENDROOT
BRANCH   6   7
HETATM    7  C   UNL     1      -4.248 104.616  20.943  1.00  0.00     0.043 C 
HETATM    8  C   UNL     1      -3.916 105.818  20.346  1.00  0.00     0.044 C 
HETATM    9  C   UNL     1      -5.103 106.516  20.102  1.00  0.00    -0.007 C 
HETATM   10  C   UNL     1      -5.364 107.777  19.577  1.00  0.00     0.014 C 
HETATM   11  C   UNL     1      -6.158 105.608  20.315  1.00  0.00     0.043 C 
HETATM   12  C   UNL     1      -6.620 108.031  19.028  1.00  0.00     0.001 C 
HETATM   13  C   UNL     1      -7.647 107.094  19.148  1.00  0.00     0.002 C 
HETATM   14  C   UNL     1      -7.439 105.916  19.862  1.00  0.00     0.030 C 
HETATM   15  N   UNL     1      -5.626 104.579  21.083  1.00  0.00    -0.355 N 
ATOM     16  HN  UNL     1      -6.155 103.915  21.648  1.00  0.00     0.166 HD
ENDBRANCH   6   7
BRANCH   1  17
HETATM   17  C   UNL     1      -2.381 101.846  24.582  1.00  0.00     0.022 C 
BRANCH  17  18
HETATM   18  C   UNL     1      -1.927 102.578  25.827  1.00  0.00    -0.033 C 
HETATM   19  C   UNL     1      -0.914 102.004  26.587  1.00  0.00     0.011 C 
HETATM   20  C   UNL     1      -1.209 101.740  27.924  1.00  0.00     0.004 C 
HETATM   21  C   UNL     1      -2.167 102.542  28.548  1.00  0.00     0.036 C 
HETATM   22  C   UNL     1      -2.744 103.587  27.828  1.00  0.00     0.066 C 
HETATM   23  C   UNL     1      -2.673 103.590  26.434  1.00  0.00     0.048 C 
BRANCH  22  24
HETATM   24  O   UNL     1      -3.658 104.355  28.497  1.00  0.00    -0.361 OA
ATOM     25  HO  UNL     1      -4.095 103.946  29.234  1.00  0.00     0.217 HD
ENDBRANCH  22  24
ENDBRANCH  17  18
ENDBRANCH   1  17
TORSDOF 4
ENDMDL
MODEL 7
REMARK VINA RESULT:     -10.5      3.245      7.985
REMARK  4 active torsions:
REMARK  status: ('A' for Active; 'I' for Inactive)
REMARK    1  A    between atoms: C_2  and  O_21 
REMARK    2  A    between atoms: C_5  and  C_9 
REMARK    3  A    between atoms: C_6  and  C_20 
REMARK    4  A    between atoms: C_9  and  C_11 
ROOT
HETATM    1  C   UNL     1      -3.309 103.983  20.989  1.00  0.00    -0.035 C 
HETATM    2  C   UNL     1      -1.744 102.063  22.242  1.00  0.00     0.014 C 
HETATM    3  C   UNL     1      -3.421 103.763  22.351  1.00  0.00     0.025 C 
HETATM    4  C   UNL     1      -2.522 103.122  20.233  1.00  0.00     0.011 C 
HETATM    5  C   UNL     1      -1.670 102.232  20.867  1.00  0.00     0.002 C 
HETATM    6  C   UNL     1      -2.501 102.944  23.001  1.00  0.00    -0.009 C 
ENDROOT
BRANCH   6   7
HETATM    7  C   UNL     1      -2.419 102.947  24.492  1.00  0.00     0.043 C 
HETATM    8  C   UNL     1      -1.670 102.010  25.180  1.00  0.00     0.044 C 
HETATM    9  C   UNL     1      -1.846 102.243  26.548  1.00  0.00    -0.007 C 
HETATM   10  C   UNL     1      -1.382 101.588  27.683  1.00  0.00     0.014 C 
HETATM   11  C   UNL     1      -2.492 103.489  26.666  1.00  0.00     0.043 C 
HETATM   12  C   UNL     1      -1.327 102.285  28.888  1.00  0.00     0.001 C 
HETATM   13  C   UNL     1      -1.877 103.563  28.991  1.00  0.00     0.002 C 
HETATM   14  C   UNL     1      -2.531 104.134  27.902  1.00  0.00     0.030 C 
HETATM   15  N   UNL     1      -3.065 103.741  25.425  1.00  0.00    -0.355 N 
ATOM     16  HN  UNL     1      -3.826 104.393  25.236  1.00  0.00     0.166 HD
ENDBRANCH   6   7
BRANCH   1  17
HETATM   17  C   UNL     1      -3.912 105.227  20.372  1.00  0.00     0.022 C 
BRANCH  17  18
HETATM   18  C   UNL     1      -5.297 105.295  19.766  1.00  0.00    -0.033 C 
HETATM   19  C   UNL     1      -5.400 105.333  18.379  1.00  0.00     0.011 C 
HETATM   20  C   UNL     1      -6.073 106.426  17.833  1.00  0.00     0.004 C 
HETATM   21  C   UNL     1      -7.055 107.040  18.613  1.00  0.00     0.036 C 
HETATM   22  C   UNL     1      -7.346 106.511  19.869  1.00  0.00     0.066 C 
HETATM   23  C   UNL     1      -6.433 105.658  20.491  1.00  0.00     0.048 C 
BRANCH  22  24
HETATM   24  O   UNL     1      -8.335 107.138  20.579  1.00  0.00    -0.361 OA
ATOM     25  HO  UNL     1      -9.049 107.507  20.073  1.00  0.00     0.217 HD
ENDBRANCH  22  24
ENDBRANCH  17  18
ENDBRANCH   1  17
TORSDOF 4
ENDMDL
MODEL 8
REMARK VINA RESULT:     -10.5      4.174      7.786
REMARK  4 active torsions:
REMARK  status: ('A' for Active; 'I' for Inactive)
REMARK    1  A    between atoms: C_2  and  O_21 
REMARK    2  A    between atoms: C_5  and  C_9 
REMARK    3  A    between atoms: C_6  and  C_20 
REMARK    4  A    between atoms: C_9  and  C_11 
ROOT
HETATM    1  C   UNL     1      -8.339 106.043  21.644  1.00  0.00    -0.035 C 
HETATM    2  C   UNL     1      -8.218 103.310  22.112  1.00  0.00     0.014 C 
HETATM    3  C   UNL     1      -7.120 105.415  21.837  1.00  0.00     0.025 C 
HETATM    4  C   UNL     1      -9.506 105.318  21.847  1.00  0.00     0.011 C 
HETATM    5  C   UNL     1      -9.447 103.940  21.982  1.00  0.00     0.002 C 
HETATM    6  C   UNL     1      -7.053 104.024  21.874  1.00  0.00    -0.009 C 
ENDROOT
BRANCH   6   7
HETATM    7  C   UNL     1      -5.732 103.336  21.768  1.00  0.00     0.043 C 
HETATM    8  C   UNL     1      -4.576 104.026  21.456  1.00  0.00     0.044 C 
HETATM    9  C   UNL     1      -3.532 103.098  21.376  1.00  0.00    -0.007 C 
HETATM   10  C   UNL     1      -2.186 103.220  21.049  1.00  0.00     0.014 C 
HETATM   11  C   UNL     1      -4.024 101.889  21.905  1.00  0.00     0.043 C 
HETATM   12  C   UNL     1      -1.296 102.242  21.489  1.00  0.00     0.001 C 
HETATM   13  C   UNL     1      -1.766 101.082  22.104  1.00  0.00     0.002 C 
HETATM   14  C   UNL     1      -3.136 100.868  22.240  1.00  0.00     0.030 C 
HETATM   15  N   UNL     1      -5.410 101.992  21.864  1.00  0.00    -0.355 N 
ATOM     16  HN  UNL     1      -6.070 101.216  21.899  1.00  0.00     0.166 HD
ENDBRANCH   6   7
BRANCH   1  17
HETATM   17  C   UNL     1      -8.383 107.446  21.077  1.00  0.00     0.022 C 
BRANCH  17  18
HETATM   18  C   UNL     1      -7.298 108.054  20.215  1.00  0.00    -0.033 C 
HETATM   19  C   UNL     1      -7.226 107.660  18.883  1.00  0.00     0.011 C 
HETATM   20  C   UNL     1      -6.018 107.105  18.461  1.00  0.00     0.004 C 
HETATM   21  C   UNL     1      -4.855 107.497  19.126  1.00  0.00     0.036 C 
HETATM   22  C   UNL     1      -4.947 108.449  20.139  1.00  0.00     0.066 C 
HETATM   23  C   UNL     1      -6.181 108.706  20.740  1.00  0.00     0.048 C 
BRANCH  22  24
HETATM   24  O   UNL     1      -3.772 108.815  20.739  1.00  0.00    -0.361 OA
ATOM     25  HO  UNL     1      -3.832 109.477  21.417  1.00  0.00     0.217 HD
ENDBRANCH  22  24
ENDBRANCH  17  18
ENDBRANCH   1  17
TORSDOF 4
ENDMDL
MODEL 9
REMARK VINA RESULT:     -10.4      4.258      7.580
REMARK  4 active torsions:
REMARK  status: ('A' for Active; 'I' for Inactive)
REMARK    1  A    between atoms: C_2  and  O_21 
REMARK    2  A    between atoms: C_5  and  C_9 
REMARK    3  A    between atoms: C_6  and  C_20 
REMARK    4  A    between atoms: C_9  and  C_11 
ROOT
HETATM    1  C   UNL     1      -6.612 107.508  20.394  1.00  0.00    -0.035 C 
HETATM    2  C   UNL     1      -3.900 107.127  19.945  1.00  0.00     0.014 C 
HETATM    3  C   UNL     1      -6.067 106.236  20.414  1.00  0.00     0.025 C 
HETATM    4  C   UNL     1      -5.816 108.572  19.988  1.00  0.00     0.011 C 
HETATM    5  C   UNL     1      -4.447 108.400  19.860  1.00  0.00     0.002 C 
HETATM    6  C   UNL     1      -4.684 106.071  20.385  1.00  0.00    -0.009 C 
ENDROOT
BRANCH   6   7
HETATM    7  C   UNL     1      -4.081 104.746  20.716  1.00  0.00     0.043 C 
HETATM    8  C   UNL     1      -2.715 104.583  20.850  1.00  0.00     0.044 C 
HETATM    9  C   UNL     1      -2.468 103.229  21.101  1.00  0.00    -0.007 C 
HETATM   10  C   UNL     1      -1.296 102.499  21.264  1.00  0.00     0.014 C 
HETATM   11  C   UNL     1      -3.715 102.636  21.380  1.00  0.00     0.043 C 
HETATM   12  C   UNL     1      -1.349 101.286  21.947  1.00  0.00     0.001 C 
HETATM   13  C   UNL     1      -2.576 100.735  22.317  1.00  0.00     0.002 C 
HETATM   14  C   UNL     1      -3.764 101.371  21.963  1.00  0.00     0.030 C 
HETATM   15  N   UNL     1      -4.673 103.502  20.867  1.00  0.00    -0.355 N 
ATOM     16  HN  UNL     1      -5.638 103.265  20.642  1.00  0.00     0.166 HD
ENDBRANCH   6   7
BRANCH   1  17
HETATM   17  C   UNL     1      -8.000 107.744  20.951  1.00  0.00     0.022 C 
BRANCH  17  18
HETATM   18  C   UNL     1      -8.814 106.702  21.688  1.00  0.00    -0.033 C 
HETATM   19  C   UNL     1      -8.523 106.478  23.030  1.00  0.00     0.011 C 
HETATM   20  C   UNL     1      -8.176 105.175  23.385  1.00  0.00     0.004 C 
HETATM   21  C   UNL     1      -8.685 104.133  22.609  1.00  0.00     0.036 C 
HETATM   22  C   UNL     1      -9.545 104.435  21.554  1.00  0.00     0.066 C 
HETATM   23  C   UNL     1      -9.582 105.733  21.041  1.00  0.00     0.048 C 
BRANCH  22  24
HETATM   24  O   UNL     1     -10.034 103.373  20.843  1.00  0.00    -0.361 OA
ATOM     25  HO  UNL     1     -10.411 102.663  21.350  1.00  0.00     0.217 HD
ENDBRANCH  22  24
ENDBRANCH  17  18
ENDBRANCH   1  17
TORSDOF 4
ENDMDL
