MODEL 1
REMARK VINA RESULT:     -10.0      0.000      0.000
REMARK  1 active torsions:
REMARK  status: ('A' for Active; 'I' for Inactive)
REMARK    1  A    between atoms: O_4  and  C_17 
ROOT
HETATM    1  C   UNL     1      18.517  61.586  23.888  1.00  0.00     0.036 C 
HETATM    2  C   UNL     1      20.359  59.970  24.551  1.00  0.00    -0.017 C 
HETATM    3  C   UNL     1      21.292  60.038  23.468  1.00  0.00     0.042 C 
HETATM    4  C   UNL     1      23.315  60.020  22.437  1.00  0.00     0.050 C 
HETATM    5  C   UNL     1      20.313  62.133  22.264  1.00  0.00     0.044 C 
HETATM    6  C   UNL     1      24.723  60.352  22.014  1.00  0.00    -0.039 C 
HETATM    7  C   UNL     1      24.678  61.374  21.016  1.00  0.00    -0.032 C 
HETATM    8  C   UNL     1      19.176  60.643  24.612  1.00  0.00    -0.001 C 
HETATM    9  N   UNL     1      27.919  58.975  21.163  1.00  0.00    -0.083 NA
HETATM   10  C   UNL     1      25.891  59.662  22.193  1.00  0.00     0.053 C 
HETATM   11  C   UNL     1      21.311  61.259  22.594  1.00  0.00    -0.044 C 
HETATM   12  C   UNL     1      22.574  61.252  21.945  1.00  0.00    -0.060 C 
HETATM   13  C   UNL     1      25.868  61.770  20.434  1.00  0.00     0.097 C 
HETATM   14  C   UNL     1      26.997  59.983  21.388  1.00  0.00     0.116 C 
HETATM   15  C   UNL     1      19.006  62.250  22.759  1.00  0.00     0.066 C 
HETATM   16  C   UNL     1      22.786  59.934  23.887  1.00  0.00     0.027 C 
HETATM   17  N   UNL     1      26.889  60.906  20.400  1.00  0.00    -0.354 N 
ATOM     18  HN  UNL     1      27.574  60.941  19.644  1.00  0.00     0.166 HD
HETATM   19  C   UNL     1      23.396  62.139  21.071  1.00  0.00     0.075 C 
ENDROOT
BRANCH  15  20
HETATM   20  O   UNL     1      18.128  62.967  22.041  1.00  0.00    -0.361 OA
ATOM     21  HO  UNL     1      17.594  62.497  21.412  1.00  0.00     0.217 HD
ENDBRANCH  15  20
TORSDOF 1
ENDMDL
MODEL 2
REMARK VINA RESULT:      -9.8      3.925      6.825
REMARK  1 active torsions:
REMARK  status: ('A' for Active; 'I' for Inactive)
REMARK    1  A    between atoms: O_4  and  C_17 
ROOT
HETATM    1  C   UNL     1      27.151  60.232  21.006  1.00  0.00     0.036 C 
HETATM    2  C   UNL     1      25.214  61.596  20.097  1.00  0.00    -0.017 C 
HETATM    3  C   UNL     1      24.066  61.063  20.766  1.00  0.00     0.042 C 
HETATM    4  C   UNL     1      22.022  61.073  21.757  1.00  0.00     0.050 C 
HETATM    5  C   UNL     1      25.307  59.634  22.558  1.00  0.00     0.044 C 
HETATM    6  C   UNL     1      20.869  61.357  22.685  1.00  0.00    -0.039 C 
HETATM    7  C   UNL     1      20.966  60.493  23.820  1.00  0.00    -0.032 C 
HETATM    8  C   UNL     1      26.488  61.136  20.239  1.00  0.00    -0.001 C 
HETATM    9  N   UNL     1      17.351  62.006  22.858  1.00  0.00    -0.083 NA
HETATM   10  C   UNL     1      19.694  62.021  22.465  1.00  0.00     0.053 C 
HETATM   11  C   UNL     1      24.247  60.348  22.074  1.00  0.00    -0.044 C 
HETATM   12  C   UNL     1      22.971  60.349  22.697  1.00  0.00    -0.060 C 
HETATM   13  C   UNL     1      19.953  60.537  24.761  1.00  0.00     0.097 C 
HETATM   14  C   UNL     1      18.628  61.826  23.360  1.00  0.00     0.116 C 
HETATM   15  C   UNL     1      26.607  59.481  22.053  1.00  0.00     0.066 C 
HETATM   16  C   UNL     1      22.982  62.115  21.137  1.00  0.00     0.027 C 
HETATM   17  N   UNL     1      18.734  60.938  24.380  1.00  0.00    -0.354 N 
ATOM     18  HN  UNL     1      17.901  60.582  24.848  1.00  0.00     0.166 HD
HETATM   19  C   UNL     1      22.358  59.987  24.008  1.00  0.00     0.075 C 
ENDROOT
BRANCH  15  20
HETATM   20  O   UNL     1      27.349  58.471  22.534  1.00  0.00    -0.361 OA
ATOM     21  HO  UNL     1      27.963  58.677  23.229  1.00  0.00     0.217 HD
ENDBRANCH  15  20
TORSDOF 1
ENDMDL
MODEL 3
REMARK VINA RESULT:      -9.6      2.138      3.098
REMARK  1 active torsions:
REMARK  status: ('A' for Active; 'I' for Inactive)
REMARK    1  A    between atoms: O_4  and  C_17 
ROOT
HETATM    1  C   UNL     1      20.216  59.917  24.581  1.00  0.00     0.036 C 
HETATM    2  C   UNL     1      22.635  59.661  23.858  1.00  0.00    -0.017 C 
HETATM    3  C   UNL     1      22.707  60.373  22.618  1.00  0.00     0.042 C 
HETATM    4  C   UNL     1      23.627  61.660  20.989  1.00  0.00     0.050 C 
HETATM    5  C   UNL     1      20.399  61.577  22.743  1.00  0.00     0.044 C 
HETATM    6  C   UNL     1      24.257  62.803  20.235  1.00  0.00    -0.039 C 
HETATM    7  C   UNL     1      23.226  63.687  19.788  1.00  0.00    -0.032 C 
HETATM    8  C   UNL     1      21.505  59.488  24.598  1.00  0.00    -0.001 C 
HETATM    9  N   UNL     1      26.746  63.686  17.815  1.00  0.00    -0.083 NA
HETATM   10  C   UNL     1      25.508  62.930  19.696  1.00  0.00     0.053 C 
HETATM   11  C   UNL     1      21.694  61.442  22.328  1.00  0.00    -0.044 C 
HETATM   12  C   UNL     1      22.263  62.249  21.307  1.00  0.00    -0.060 C 
HETATM   13  C   UNL     1      23.589  64.766  19.003  1.00  0.00     0.097 C 
HETATM   14  C   UNL     1      25.730  63.920  18.725  1.00  0.00     0.116 C 
HETATM   15  C   UNL     1      19.667  60.845  23.691  1.00  0.00     0.066 C 
HETATM   16  C   UNL     1      24.041  61.139  22.384  1.00  0.00     0.027 C 
HETATM   17  N   UNL     1      24.707  64.687  18.272  1.00  0.00    -0.354 N 
ATOM     18  HN  UNL     1      24.788  65.194  17.390  1.00  0.00     0.166 HD
HETATM   19  C   UNL     1      21.979  63.529  20.595  1.00  0.00     0.075 C 
ENDROOT
BRANCH  15  20
HETATM   20  O   UNL     1      18.330  60.964  23.674  1.00  0.00    -0.361 OA
ATOM     21  HO  UNL     1      17.842  60.309  23.190  1.00  0.00     0.217 HD
ENDBRANCH  15  20
TORSDOF 1
ENDMDL
MODEL 4
REMARK VINA RESULT:      -9.1      0.972      1.276
REMARK  1 active torsions:
REMARK  status: ('A' for Active; 'I' for Inactive)
REMARK    1  A    between atoms: O_4  and  C_17 
ROOT
HETATM    1  C   UNL     1      17.406  62.516  23.656  1.00  0.00     0.036 C 
HETATM    2  C   UNL     1      19.085  60.863  24.600  1.00  0.00    -0.017 C 
HETATM    3  C   UNL     1      20.098  60.780  23.592  1.00  0.00     0.042 C 
HETATM    4  C   UNL     1      22.188  60.553  22.731  1.00  0.00     0.050 C 
HETATM    5  C   UNL     1      19.349  62.810  22.139  1.00  0.00     0.044 C 
HETATM    6  C   UNL     1      23.642  60.764  22.396  1.00  0.00    -0.039 C 
HETATM    7  C   UNL     1      23.737  61.693  21.314  1.00  0.00    -0.032 C 
HETATM    8  C   UNL     1      17.947  61.606  24.508  1.00  0.00    -0.001 C 
HETATM    9  N   UNL     1      26.797  59.133  21.923  1.00  0.00    -0.083 NA
HETATM   10  C   UNL     1      24.746  60.026  22.725  1.00  0.00     0.053 C 
HETATM   11  C   UNL     1      20.261  61.914  22.622  1.00  0.00    -0.044 C 
HETATM   12  C   UNL     1      21.566  61.776  22.079  1.00  0.00    -0.060 C 
HETATM   13  C   UNL     1      24.990  61.965  20.797  1.00  0.00     0.097 C 
HETATM   14  C   UNL     1      25.927  60.209  21.987  1.00  0.00     0.116 C 
HETATM   15  C   UNL     1      18.019  63.047  22.517  1.00  0.00     0.066 C 
HETATM   16  C   UNL     1      21.547  60.628  24.137  1.00  0.00     0.027 C 
HETATM   17  N   UNL     1      25.953  61.044  20.918  1.00  0.00    -0.354 N 
ATOM     18  HN  UNL     1      26.693  60.971  20.219  1.00  0.00     0.166 HD
HETATM   19  C   UNL     1      22.506  62.532  21.200  1.00  0.00     0.075 C 
ENDROOT
BRANCH  15  20
HETATM   20  O   UNL     1      17.245  63.746  21.673  1.00  0.00    -0.361 OA
ATOM     21  HO  UNL     1      17.671  64.406  21.139  1.00  0.00     0.217 HD
ENDBRANCH  15  20
TORSDOF 1
ENDMDL
MODEL 5
REMARK VINA RESULT:      -9.0      3.901      6.422
REMARK  1 active torsions:
REMARK  status: ('A' for Active; 'I' for Inactive)
REMARK    1  A    between atoms: O_4  and  C_17 
ROOT
HETATM    1  C   UNL     1      26.648  60.935  20.527  1.00  0.00     0.036 C 
HETATM    2  C   UNL     1      25.346  59.859  22.422  1.00  0.00    -0.017 C 
HETATM    3  C   UNL     1      24.222  60.724  22.611  1.00  0.00     0.042 C 
HETATM    4  C   UNL     1      22.080  61.307  23.093  1.00  0.00     0.050 C 
HETATM    5  C   UNL     1      24.490  62.161  20.452  1.00  0.00     0.044 C 
HETATM    6  C   UNL     1      20.579  61.433  23.071  1.00  0.00    -0.039 C 
HETATM    7  C   UNL     1      20.214  62.445  22.130  1.00  0.00    -0.032 C 
HETATM    8  C   UNL     1      26.354  60.065  21.529  1.00  0.00    -0.001 C 
HETATM    9  N   UNL     1      17.629  61.559  25.099  1.00  0.00    -0.083 NA
HETATM   10  C   UNL     1      19.637  60.996  23.962  1.00  0.00     0.053 C 
HETATM   11  C   UNL     1      23.779  61.606  21.479  1.00  0.00    -0.044 C 
HETATM   12  C   UNL     1      22.440  61.975  21.776  1.00  0.00    -0.060 C 
HETATM   13  C   UNL     1      18.876  62.775  22.014  1.00  0.00     0.097 C 
HETATM   14  C   UNL     1      18.351  61.559  23.918  1.00  0.00     0.116 C 
HETATM   15  C   UNL     1      25.818  61.954  20.050  1.00  0.00     0.066 C 
HETATM   16  C   UNL     1      22.895  59.998  22.975  1.00  0.00     0.027 C 
HETATM   17  N   UNL     1      18.067  62.572  23.061  1.00  0.00    -0.354 N 
ATOM     18  HN  UNL     1      17.253  63.168  23.212  1.00  0.00     0.166 HD
HETATM   19  C   UNL     1      21.296  62.680  21.128  1.00  0.00     0.075 C 
ENDROOT
BRANCH  15  20
HETATM   20  O   UNL     1      26.368  62.858  19.225  1.00  0.00    -0.361 OA
ATOM     21  HO  UNL     1      26.407  62.637  18.302  1.00  0.00     0.217 HD
ENDBRANCH  15  20
TORSDOF 1
ENDMDL
MODEL 6
REMARK VINA RESULT:      -8.4      2.226      3.582
REMARK  1 active torsions:
REMARK  status: ('A' for Active; 'I' for Inactive)
REMARK    1  A    between atoms: O_4  and  C_17 
ROOT
HETATM    1  C   UNL     1      19.163  60.370  24.010  1.00  0.00     0.036 C 
HETATM    2  C   UNL     1      19.288  62.411  22.506  1.00  0.00    -0.017 C 
HETATM    3  C   UNL     1      20.689  62.594  22.279  1.00  0.00     0.042 C 
HETATM    4  C   UNL     1      22.576  63.146  21.142  1.00  0.00     0.050 C 
HETATM    5  C   UNL     1      21.523  60.319  23.241  1.00  0.00     0.044 C 
HETATM    6  C   UNL     1      23.684  63.197  20.122  1.00  0.00    -0.039 C 
HETATM    7  C   UNL     1      24.657  62.202  20.446  1.00  0.00    -0.032 C 
HETATM    8  C   UNL     1      18.740  61.451  23.303  1.00  0.00    -0.001 C 
HETATM    9  N   UNL     1      25.811  65.369  18.226  1.00  0.00    -0.083 NA
HETATM   10  C   UNL     1      24.016  64.170  19.219  1.00  0.00     0.053 C 
HETATM   11  C   UNL     1      21.615  61.424  22.441  1.00  0.00    -0.044 C 
HETATM   12  C   UNL     1      22.798  61.764  21.733  1.00  0.00    -0.060 C 
HETATM   13  C   UNL     1      25.802  62.135  19.673  1.00  0.00     0.097 C 
HETATM   14  C   UNL     1      25.299  64.153  18.647  1.00  0.00     0.116 C 
HETATM   15  C   UNL     1      20.465  59.861  24.040  1.00  0.00     0.066 C 
HETATM   16  C   UNL     1      21.058  63.085  20.851  1.00  0.00     0.027 C 
HETATM   17  N   UNL     1      26.220  63.237  19.040  1.00  0.00    -0.354 N 
ATOM     18  HN  UNL     1      27.212  63.386  18.856  1.00  0.00     0.166 HD
HETATM   19  C   UNL     1      24.078  61.127  21.307  1.00  0.00     0.075 C 
ENDROOT
BRANCH  15  20
HETATM   20  O   UNL     1      20.743  58.940  24.976  1.00  0.00    -0.361 OA
ATOM     21  HO  UNL     1      20.017  58.423  25.305  1.00  0.00     0.217 HD
ENDBRANCH  15  20
TORSDOF 1
ENDMDL
MODEL 7
REMARK VINA RESULT:      -8.2      3.781      5.523
REMARK  1 active torsions:
REMARK  status: ('A' for Active; 'I' for Inactive)
REMARK    1  A    between atoms: O_4  and  C_17 
ROOT
HETATM    1  C   UNL     1      22.050  59.566  24.062  1.00  0.00     0.036 C 
HETATM    2  C   UNL     1      23.635  60.612  22.378  1.00  0.00    -0.017 C 
HETATM    3  C   UNL     1      22.812  61.522  21.640  1.00  0.00     0.042 C 
HETATM    4  C   UNL     1      22.279  63.401  20.481  1.00  0.00     0.050 C 
HETATM    5  C   UNL     1      20.716  61.471  23.190  1.00  0.00     0.044 C 
HETATM    6  C   UNL     1      22.036  64.836  20.089  1.00  0.00    -0.039 C 
HETATM    7  C   UNL     1      20.728  65.218  20.518  1.00  0.00    -0.032 C 
HETATM    8  C   UNL     1      23.198  59.786  23.369  1.00  0.00    -0.001 C 
HETATM    9  N   UNL     1      22.425  67.256  17.476  1.00  0.00    -0.083 NA
HETATM   10  C   UNL     1      22.692  65.635  19.193  1.00  0.00     0.053 C 
HETATM   11  C   UNL     1      21.549  62.038  22.266  1.00  0.00    -0.044 C 
HETATM   12  C   UNL     1      21.209  63.213  21.543  1.00  0.00    -0.060 C 
HETATM   13  C   UNL     1      20.276  66.481  20.183  1.00  0.00     0.097 C 
HETATM   14  C   UNL     1      22.054  66.797  18.729  1.00  0.00     0.116 C 
HETATM   15  C   UNL     1      20.866  60.302  23.952  1.00  0.00     0.066 C 
HETATM   16  C   UNL     1      23.515  62.846  21.225  1.00  0.00     0.027 C 
HETATM   17  N   UNL     1      20.780  67.083  19.100  1.00  0.00    -0.354 N 
ATOM     18  HN  UNL     1      20.218  67.744  18.564  1.00  0.00     0.166 HD
HETATM   19  C   UNL     1      20.230  64.336  21.616  1.00  0.00     0.075 C 
ENDROOT
BRANCH  15  20
HETATM   20  O   UNL     1      19.770  59.793  24.535  1.00  0.00    -0.361 OA
ATOM     21  HO  UNL     1      19.896  59.289  25.330  1.00  0.00     0.217 HD
ENDBRANCH  15  20
TORSDOF 1
ENDMDL
MODEL 8
REMARK VINA RESULT:      -8.2      2.295      4.178
REMARK  1 active torsions:
REMARK  status: ('A' for Active; 'I' for Inactive)
REMARK    1  A    between atoms: O_4  and  C_17 
ROOT
HETATM    1  C   UNL     1      15.738  64.150  22.353  1.00  0.00     0.036 C 
HETATM    2  C   UNL     1      17.937  64.691  21.206  1.00  0.00    -0.017 C 
HETATM    3  C   UNL     1      18.914  63.970  21.963  1.00  0.00     0.042 C 
HETATM    4  C   UNL     1      20.807  62.775  22.348  1.00  0.00     0.050 C 
HETATM    5  C   UNL     1      17.285  62.490  23.361  1.00  0.00     0.044 C 
HETATM    6  C   UNL     1      21.868  61.705  22.327  1.00  0.00    -0.039 C 
HETATM    7  C   UNL     1      21.520  60.691  23.273  1.00  0.00    -0.032 C 
HETATM    8  C   UNL     1      16.604  64.737  21.485  1.00  0.00    -0.001 C 
HETATM    9  N   UNL     1      25.395  61.091  22.220  1.00  0.00    -0.083 NA
HETATM   10  C   UNL     1      23.140  61.724  21.824  1.00  0.00     0.053 C 
HETATM   11  C   UNL     1      18.483  62.778  22.767  1.00  0.00    -0.044 C 
HETATM   12  C   UNL     1      19.663  62.027  23.012  1.00  0.00    -0.060 C 
HETATM   13  C   UNL     1      22.410  59.650  23.468  1.00  0.00     0.097 C 
HETATM   14  C   UNL     1      24.054  60.750  22.258  1.00  0.00     0.116 C 
HETATM   15  C   UNL     1      16.047  63.144  23.273  1.00  0.00     0.066 C 
HETATM   16  C   UNL     1      20.077  63.371  21.122  1.00  0.00     0.027 C 
HETATM   17  N   UNL     1      23.708  59.853  23.216  1.00  0.00    -0.354 N 
ATOM     18  HN  UNL     1      24.424  59.343  23.734  1.00  0.00     0.166 HD
HETATM   19  C   UNL     1      20.060  60.708  23.586  1.00  0.00     0.075 C 
ENDROOT
BRANCH  15  20
HETATM   20  O   UNL     1      15.124  62.859  24.205  1.00  0.00    -0.361 OA
ATOM     21  HO  UNL     1      14.262  63.243  24.093  1.00  0.00     0.217 HD
ENDBRANCH  15  20
TORSDOF 1
ENDMDL
MODEL 9
REMARK VINA RESULT:      -8.0      4.683      7.147
REMARK  1 active torsions:
REMARK  status: ('A' for Active; 'I' for Inactive)
REMARK    1  A    between atoms: O_4  and  C_17 
ROOT
HETATM    1  C   UNL     1      22.425  59.487  23.851  1.00  0.00     0.036 C 
HETATM    2  C   UNL     1      20.041  59.937  24.598  1.00  0.00    -0.017 C 
HETATM    3  C   UNL     1      19.740  61.225  24.050  1.00  0.00     0.042 C 
HETATM    4  C   UNL     1      18.472  62.868  23.128  1.00  0.00     0.050 C 
HETATM    5  C   UNL     1      21.794  61.446  22.462  1.00  0.00     0.044 C 
HETATM    6  C   UNL     1      17.585  63.659  22.201  1.00  0.00    -0.039 C 
HETATM    7  C   UNL     1      18.399  64.289  21.209  1.00  0.00    -0.032 C 
HETATM    8  C   UNL     1      21.240  59.300  24.491  1.00  0.00    -0.001 C 
HETATM    9  N   UNL     1      14.787  65.890  22.032  1.00  0.00    -0.083 NA
HETATM   10  C   UNL     1      16.292  64.079  22.351  1.00  0.00     0.053 C 
HETATM   11  C   UNL     1      20.515  61.715  22.863  1.00  0.00    -0.044 C 
HETATM   12  C   UNL     1      19.728  62.745  22.282  1.00  0.00    -0.060 C 
HETATM   13  C   UNL     1      17.784  65.132  20.302  1.00  0.00     0.097 C 
HETATM   14  C   UNL     1      15.815  65.112  21.527  1.00  0.00     0.116 C 
HETATM   15  C   UNL     1      22.722  60.512  22.947  1.00  0.00     0.066 C 
HETATM   16  C   UNL     1      18.275  61.395  23.555  1.00  0.00     0.027 C 
HETATM   17  N   UNL     1      16.643  65.737  20.651  1.00  0.00    -0.354 N 
ATOM     18  HN  UNL     1      16.399  66.649  20.267  1.00  0.00     0.166 HD
HETATM   19  C   UNL     1      19.716  63.600  21.060  1.00  0.00     0.075 C 
ENDROOT
BRANCH  15  20
HETATM   20  O   UNL     1      24.009  60.674  22.604  1.00  0.00    -0.361 OA
ATOM     21  HO  UNL     1      24.579  59.919  22.690  1.00  0.00     0.217 HD
ENDBRANCH  15  20
TORSDOF 1
ENDMDL
