REMARK  2 active torsions:
REMARK  status: ('A' for Active; 'I' for Inactive)
REMARK    1  A    between atoms: O_7  and  C_15 
REMARK    2  A    between atoms: N_10  and  C_20 
ROOT
HETATM    1  C   UNL     1      61.094 -66.691   7.633  1.00  0.00     0.009 C 
HETATM    2  C   UNL     1      61.470 -71.551   6.029  1.00  0.00     0.023 C 
HETATM    3  C   UNL     1      60.442 -70.507   6.514  1.00  0.00     0.030 C 
HETATM    4  C   UNL     1      61.824 -72.705   6.720  1.00  0.00     0.026 C 
HETATM    5  C   UNL     1      60.805 -68.104   7.171  1.00  0.00     0.006 C 
HETATM    6  C   UNL     1      63.102 -68.161   5.344  1.00  0.00     0.012 C 
HETATM    7  C   UNL     1      59.116 -70.919   5.875  1.00  0.00     0.027 C 
HETATM    8  C   UNL     1      60.193 -70.241   8.020  1.00  0.00    -0.058 C 
HETATM    9  C   UNL     1      61.433 -73.170   7.973  1.00  0.00     0.002 C 
HETATM   10  C   UNL     1      60.452 -68.034   9.495  1.00  0.00     0.126 C 
HETATM   11  C   UNL     1      60.884 -72.461   9.031  1.00  0.00     0.000 C 
HETATM   12  C   UNL     1      60.813 -69.089   6.011  1.00  0.00     0.044 C 
HETATM   13  C   UNL     1      60.522 -71.123   9.061  1.00  0.00     0.004 C 
HETATM   14  C   UNL     1      62.460 -69.910   2.917  1.00  0.00     0.032 C 
HETATM   15  C   UNL     1      64.309 -68.306   3.169  1.00  0.00     0.025 C 
HETATM   16  C   UNL     1      59.941 -68.774   8.256  1.00  0.00     0.049 C 
HETATM   17  C   UNL     1      63.345 -68.977   2.426  1.00  0.00     0.031 C 
HETATM   18  C   UNL     1      60.559 -66.567   9.056  1.00  0.00     0.033 C 
HETATM   19  C   UNL     1      64.054 -67.772   4.430  1.00  0.00     0.029 C 
HETATM   20  C   UNL     1      62.211 -70.146   4.273  1.00  0.00     0.039 C 
HETATM   21  N   UNL     1      61.979 -71.413   4.755  1.00  0.00    -0.358 N 
ATOM     22  HN  UNL     1      62.179 -72.233   4.182  1.00  0.00     0.166 HD
HETATM   23  C   UNL     1      62.078 -69.076   5.187  1.00  0.00    -0.025 C 
ENDROOT
BRANCH  15  24
HETATM   24  N   UNL     1      65.534 -68.086   2.580  1.00  0.00    -0.399 N 
ATOM     25  HN2 UNL     1      65.721 -68.477   1.657  1.00  0.00     0.156 HD
ATOM     26  HN1 UNL     1      66.241 -67.594   3.125  1.00  0.00     0.156 HD
ENDBRANCH  15  24
BRANCH  10  27
HETATM   27  O   UNL     1      59.761 -68.242  10.696  1.00  0.00    -0.395 OA
ATOM     28  HO  UNL     1      60.078 -67.783  11.465  1.00  0.00     0.210 HD
ENDBRANCH  10  27
TORSDOF 2
