MODEL 1
REMARK VINA RESULT:      -6.9      0.000      0.000
REMARK  4 active torsions:
REMARK  status: ('A' for Active; 'I' for Inactive)
REMARK    1  A    between atoms: O_4  and  C_8 
REMARK    2  A    between atoms: O_6  and  C_16 
REMARK    3  A    between atoms: C_17  and  C_20 
REMARK    4  A    between atoms: C_19  and  C_20 
ROOT
HETATM    1  C   UNL     1      -0.037   5.733   9.951  1.00  0.00     0.074 C 
HETATM    2  C   UNL     1       2.120   5.807  11.245  1.00  0.00     0.078 C 
HETATM    3  C   UNL     1       1.488   5.703   9.859  1.00  0.00     0.220 C 
HETATM    4  N   UNL     1       1.824   4.398   9.305  1.00  0.00    -0.043 N 
ATOM      5  HN1 UNL     1       2.636   3.991   9.770  1.00  0.00     0.280 HD
ATOM      6  HN2 UNL     1       2.207   4.478   8.363  1.00  0.00     0.280 HD
HETATM    7  C   UNL     1       0.673   3.496   9.343  1.00  0.00     0.241 C 
HETATM    8  C   UNL     1      -0.460   4.269   9.985  1.00  0.00     0.020 C 
ENDROOT
BRANCH   8   9
HETATM    9  C   UNL     1      -1.830   4.045   9.346  1.00  0.00     0.045 C 
BRANCH   9  10
HETATM   10  C   UNL     1      -2.454   2.760   9.830  1.00  0.00    -0.058 C 
HETATM   11  C   UNL     1      -3.184   1.992   8.936  1.00  0.00     0.010 C 
HETATM   12  C   UNL     1      -3.558   0.694   9.003  1.00  0.00     0.037 C 
HETATM   13  C   UNL     1      -3.042  -0.342   9.755  1.00  0.00     0.065 C 
HETATM   14  C   UNL     1      -2.412  -0.110  10.981  1.00  0.00     0.036 C 
HETATM   15  C   UNL     1      -2.309   1.097  11.612  1.00  0.00     0.003 C 
HETATM   16  C   UNL     1      -2.325   2.390  11.161  1.00  0.00     0.007 C 
BRANCH  13  17
HETATM   17  O   UNL     1      -3.231  -1.616   9.319  1.00  0.00    -0.361 OA
ATOM     18  HO  UNL     1      -4.113  -1.890   9.093  1.00  0.00     0.217 HD
ENDBRANCH  13  17
ENDBRANCH   9  10
ENDBRANCH   8   9
BRANCH   3  19
HETATM   19  O   UNL     1       2.004   6.726   9.039  1.00  0.00    -0.365 OA
ATOM     20  HO  UNL     1       2.574   7.321   9.512  1.00  0.00     0.212 HD
ENDBRANCH   3  19
TORSDOF 4
ENDMDL
MODEL 2
REMARK VINA RESULT:      -6.7      2.626      3.579
REMARK  4 active torsions:
REMARK  status: ('A' for Active; 'I' for Inactive)
REMARK    1  A    between atoms: O_4  and  C_8 
REMARK    2  A    between atoms: O_6  and  C_16 
REMARK    3  A    between atoms: C_17  and  C_20 
REMARK    4  A    between atoms: C_19  and  C_20 
ROOT
HETATM    1  C   UNL     1      -2.498   2.617   9.493  1.00  0.00     0.074 C 
HETATM    2  C   UNL     1      -1.965   5.062   9.764  1.00  0.00     0.078 C 
HETATM    3  C   UNL     1      -1.524   3.741   9.139  1.00  0.00     0.220 C 
HETATM    4  N   UNL     1      -0.250   3.360   9.735  1.00  0.00    -0.043 N 
ATOM      5  HN1 UNL     1       0.220   4.161  10.157  1.00  0.00     0.280 HD
ATOM      6  HN2 UNL     1       0.443   3.130   9.023  1.00  0.00     0.280 HD
HETATM    7  C   UNL     1      -0.420   2.269  10.693  1.00  0.00     0.241 C 
HETATM    8  C   UNL     1      -1.901   1.951  10.727  1.00  0.00     0.020 C 
ENDROOT
BRANCH   8   9
HETATM    9  C   UNL     1      -2.234   0.461  10.802  1.00  0.00     0.045 C 
BRANCH   9  10
HETATM   10  C   UNL     1      -3.711   0.222  10.618  1.00  0.00    -0.058 C 
HETATM   11  C   UNL     1      -4.133  -0.992  10.101  1.00  0.00     0.010 C 
HETATM   12  C   UNL     1      -5.352  -1.579  10.135  1.00  0.00     0.037 C 
HETATM   13  C   UNL     1      -6.422  -1.357  10.978  1.00  0.00     0.065 C 
HETATM   14  C   UNL     1      -6.632  -0.113  11.579  1.00  0.00     0.036 C 
HETATM   15  C   UNL     1      -5.899   1.018  11.352  1.00  0.00     0.003 C 
HETATM   16  C   UNL     1      -4.615   1.229  10.926  1.00  0.00     0.007 C 
BRANCH  13  17
HETATM   17  O   UNL     1      -7.327  -2.357  11.153  1.00  0.00    -0.361 OA
ATOM     18  HO  UNL     1      -7.342  -3.069  10.523  1.00  0.00     0.217 HD
ENDBRANCH  13  17
ENDBRANCH   9  10
ENDBRANCH   8   9
BRANCH   3  19
HETATM   19  O   UNL     1      -1.377   3.915   7.749  1.00  0.00    -0.365 OA
ATOM     20  HO  UNL     1      -2.171   3.711   7.268  1.00  0.00     0.212 HD
ENDBRANCH   3  19
TORSDOF 4
ENDMDL
MODEL 3
REMARK VINA RESULT:      -6.5      2.151      2.831
REMARK  4 active torsions:
REMARK  status: ('A' for Active; 'I' for Inactive)
REMARK    1  A    between atoms: O_4  and  C_8 
REMARK    2  A    between atoms: O_6  and  C_16 
REMARK    3  A    between atoms: C_17  and  C_20 
REMARK    4  A    between atoms: C_19  and  C_20 
ROOT
HETATM    1  C   UNL     1      -1.370   3.888   8.864  1.00  0.00     0.074 C 
HETATM    2  C   UNL     1      -0.037   5.338  10.431  1.00  0.00     0.078 C 
HETATM    3  C   UNL     1      -0.003   4.126   9.504  1.00  0.00     0.220 C 
HETATM    4  N   UNL     1       0.265   2.944  10.313  1.00  0.00    -0.043 N 
ATOM      5  HN1 UNL     1       0.687   3.191  11.208  1.00  0.00     0.280 HD
ATOM      6  HN2 UNL     1       1.030   2.391   9.927  1.00  0.00     0.280 HD
HETATM    7  C   UNL     1      -0.944   2.140  10.491  1.00  0.00     0.241 C 
HETATM    8  C   UNL     1      -2.058   2.871   9.768  1.00  0.00     0.020 C 
ENDROOT
BRANCH   8   9
HETATM    9  C   UNL     1      -3.021   1.967   8.999  1.00  0.00     0.045 C 
BRANCH   9  10
HETATM   10  C   UNL     1      -3.686   0.972   9.917  1.00  0.00    -0.058 C 
HETATM   11  C   UNL     1      -4.818   1.360  10.617  1.00  0.00     0.010 C 
HETATM   12  C   UNL     1      -5.766   0.612  11.227  1.00  0.00     0.037 C 
HETATM   13  C   UNL     1      -6.111  -0.711  11.039  1.00  0.00     0.065 C 
HETATM   14  C   UNL     1      -5.179  -1.651  10.588  1.00  0.00     0.036 C 
HETATM   15  C   UNL     1      -3.850  -1.421  10.373  1.00  0.00     0.003 C 
HETATM   16  C   UNL     1      -3.135  -0.290  10.079  1.00  0.00     0.007 C 
BRANCH  13  17
HETATM   17  O   UNL     1      -7.365  -1.108  11.382  1.00  0.00    -0.361 OA
ATOM     18  HO  UNL     1      -7.577  -1.191  12.305  1.00  0.00     0.217 HD
ENDBRANCH  13  17
ENDBRANCH   9  10
ENDBRANCH   8   9
BRANCH   3  19
HETATM   19  O   UNL     1       1.019   4.303   8.550  1.00  0.00    -0.365 OA
ATOM     20  HO  UNL     1       0.867   3.808   7.753  1.00  0.00     0.212 HD
ENDBRANCH   3  19
TORSDOF 4
ENDMDL
MODEL 4
REMARK VINA RESULT:      -6.4      3.568      5.807
REMARK  4 active torsions:
REMARK  status: ('A' for Active; 'I' for Inactive)
REMARK    1  A    between atoms: O_4  and  C_8 
REMARK    2  A    between atoms: O_6  and  C_16 
REMARK    3  A    between atoms: C_17  and  C_20 
REMARK    4  A    between atoms: C_19  and  C_20 
ROOT
HETATM    1  C   UNL     1      -2.420   2.990  10.480  1.00  0.00     0.074 C 
HETATM    2  C   UNL     1      -1.868   0.583   9.988  1.00  0.00     0.078 C 
HETATM    3  C   UNL     1      -1.605   1.771  10.911  1.00  0.00     0.220 C 
HETATM    4  N   UNL     1      -0.209   2.158  10.764  1.00  0.00    -0.043 N 
ATOM      5  HN1 UNL     1       0.351   1.402  10.370  1.00  0.00     0.280 HD
ATOM      6  HN2 UNL     1       0.255   2.240  11.669  1.00  0.00     0.280 HD
HETATM    7  C   UNL     1      -0.081   3.387   9.981  1.00  0.00     0.241 C 
HETATM    8  C   UNL     1      -1.485   3.793   9.584  1.00  0.00     0.020 C 
ENDROOT
BRANCH   8   9
HETATM    9  C   UNL     1      -1.760   5.295   9.655  1.00  0.00     0.045 C 
BRANCH   9  10
HETATM   10  C   UNL     1      -2.118   5.848   8.298  1.00  0.00    -0.058 C 
HETATM   11  C   UNL     1      -2.715   5.010   7.370  1.00  0.00     0.010 C 
HETATM   12  C   UNL     1      -3.410   5.305   6.247  1.00  0.00     0.037 C 
HETATM   13  C   UNL     1      -4.051   6.472   5.880  1.00  0.00     0.065 C 
HETATM   14  C   UNL     1      -3.623   7.717   6.347  1.00  0.00     0.036 C 
HETATM   15  C   UNL     1      -2.517   7.947   7.115  1.00  0.00     0.003 C 
HETATM   16  C   UNL     1      -1.808   7.165   7.988  1.00  0.00     0.007 C 
BRANCH  13  17
HETATM   17  O   UNL     1      -5.066   6.396   4.979  1.00  0.00    -0.361 OA
ATOM     18  HO  UNL     1      -5.675   7.123   4.922  1.00  0.00     0.217 HD
ENDBRANCH  13  17
ENDBRANCH   9  10
ENDBRANCH   8   9
BRANCH   3  19
HETATM   19  O   UNL     1      -1.865   1.386  12.241  1.00  0.00    -0.365 OA
ATOM     20  HO  UNL     1      -2.213   2.097  12.767  1.00  0.00     0.212 HD
ENDBRANCH   3  19
TORSDOF 4
ENDMDL
MODEL 5
REMARK VINA RESULT:      -6.3      2.278      3.108
REMARK  4 active torsions:
REMARK  status: ('A' for Active; 'I' for Inactive)
REMARK    1  A    between atoms: O_4  and  C_8 
REMARK    2  A    between atoms: O_6  and  C_16 
REMARK    3  A    between atoms: C_17  and  C_20 
REMARK    4  A    between atoms: C_19  and  C_20 
ROOT
HETATM    1  C   UNL     1      -2.100   3.435   9.455  1.00  0.00     0.074 C 
HETATM    2  C   UNL     1      -1.968   5.869   8.825  1.00  0.00     0.078 C 
HETATM    3  C   UNL     1      -1.571   4.446   8.438  1.00  0.00     0.220 C 
HETATM    4  N   UNL     1      -0.119   4.348   8.504  1.00  0.00    -0.043 N 
ATOM      5  HN1 UNL     1       0.321   5.267   8.459  1.00  0.00     0.280 HD
ATOM      6  HN2 UNL     1       0.269   3.947   7.650  1.00  0.00     0.280 HD
HETATM    7  C   UNL     1       0.307   3.604   9.689  1.00  0.00     0.241 C 
HETATM    8  C   UNL     1      -0.954   3.227  10.438  1.00  0.00     0.020 C 
ENDROOT
BRANCH   8   9
HETATM    9  C   UNL     1      -0.948   1.819  11.033  1.00  0.00     0.045 C 
BRANCH   9  10
HETATM   10  C   UNL     1      -2.265   1.123  10.802  1.00  0.00    -0.058 C 
HETATM   11  C   UNL     1      -3.400   1.614  11.427  1.00  0.00     0.010 C 
HETATM   12  C   UNL     1      -4.708   1.402  11.154  1.00  0.00     0.037 C 
HETATM   13  C   UNL     1      -5.314   0.961   9.995  1.00  0.00     0.065 C 
HETATM   14  C   UNL     1      -4.643   0.133   9.090  1.00  0.00     0.036 C 
HETATM   15  C   UNL     1      -3.398  -0.400   9.266  1.00  0.00     0.003 C 
HETATM   16  C   UNL     1      -2.313  -0.014  10.008  1.00  0.00     0.007 C 
BRANCH  13  17
HETATM   17  O   UNL     1      -6.618   1.283   9.783  1.00  0.00    -0.361 OA
ATOM     18  HO  UNL     1      -6.820   1.957   9.144  1.00  0.00     0.217 HD
ENDBRANCH  13  17
ENDBRANCH   9  10
ENDBRANCH   8   9
BRANCH   3  19
HETATM   19  O   UNL     1      -2.016   4.183   7.128  1.00  0.00    -0.365 OA
ATOM     20  HO  UNL     1      -2.829   3.690   7.109  1.00  0.00     0.212 HD
ENDBRANCH   3  19
TORSDOF 4
ENDMDL
MODEL 6
REMARK VINA RESULT:      -6.3      3.610      7.362
REMARK  4 active torsions:
REMARK  status: ('A' for Active; 'I' for Inactive)
REMARK    1  A    between atoms: O_4  and  C_8 
REMARK    2  A    between atoms: O_6  and  C_16 
REMARK    3  A    between atoms: C_17  and  C_20 
REMARK    4  A    between atoms: C_19  and  C_20 
ROOT
HETATM    1  C   UNL     1      -6.062  -1.712  10.178  1.00  0.00     0.074 C 
HETATM    2  C   UNL     1      -8.269  -0.642   9.612  1.00  0.00     0.078 C 
HETATM    3  C   UNL     1      -7.121  -1.507   9.096  1.00  0.00     0.220 C 
HETATM    4  N   UNL     1      -6.453  -0.780   8.024  1.00  0.00    -0.043 N 
ATOM      5  HN1 UNL     1      -7.054  -0.053   7.633  1.00  0.00     0.280 HD
ATOM      6  HN2 UNL     1      -6.344  -1.357   7.190  1.00  0.00     0.280 HD
HETATM    7  C   UNL     1      -5.172  -0.235   8.473  1.00  0.00     0.241 C 
HETATM    8  C   UNL     1      -5.027  -0.620   9.931  1.00  0.00     0.020 C 
ENDROOT
BRANCH   8   9
HETATM    9  C   UNL     1      -3.619  -1.050  10.341  1.00  0.00     0.045 C 
BRANCH   9  10
HETATM   10  C   UNL     1      -2.765   0.142  10.692  1.00  0.00    -0.058 C 
HETATM   11  C   UNL     1      -1.399   0.076  10.468  1.00  0.00     0.010 C 
HETATM   12  C   UNL     1      -0.480   1.065  10.383  1.00  0.00     0.037 C 
HETATM   13  C   UNL     1      -0.643   2.411  10.122  1.00  0.00     0.065 C 
HETATM   14  C   UNL     1      -1.826   3.079  10.449  1.00  0.00     0.036 C 
HETATM   15  C   UNL     1      -2.888   2.543  11.121  1.00  0.00     0.003 C 
HETATM   16  C   UNL     1      -3.349   1.261  11.268  1.00  0.00     0.007 C 
BRANCH  13  17
HETATM   17  O   UNL     1       0.409   3.103   9.608  1.00  0.00    -0.361 OA
ATOM     18  HO  UNL     1       1.256   3.015  10.029  1.00  0.00     0.217 HD
ENDBRANCH  13  17
ENDBRANCH   9  10
ENDBRANCH   8   9
BRANCH   3  19
HETATM   19  O   UNL     1      -7.642  -2.721   8.607  1.00  0.00    -0.365 OA
ATOM     20  HO  UNL     1      -7.497  -2.833   7.675  1.00  0.00     0.212 HD
ENDBRANCH   3  19
TORSDOF 4
ENDMDL
MODEL 7
REMARK VINA RESULT:      -6.3      2.882      6.686
REMARK  4 active torsions:
REMARK  status: ('A' for Active; 'I' for Inactive)
REMARK    1  A    between atoms: O_4  and  C_8 
REMARK    2  A    between atoms: O_6  and  C_16 
REMARK    3  A    between atoms: C_17  and  C_20 
REMARK    4  A    between atoms: C_19  and  C_20 
ROOT
HETATM    1  C   UNL     1      -4.874   1.029  10.894  1.00  0.00     0.074 C 
HETATM    2  C   UNL     1      -6.195  -0.254   9.178  1.00  0.00     0.078 C 
HETATM    3  C   UNL     1      -5.615  -0.272  10.590  1.00  0.00     0.220 C 
HETATM    4  N   UNL     1      -4.607  -1.322  10.652  1.00  0.00    -0.043 N 
ATOM      5  HN1 UNL     1      -4.732  -2.006   9.904  1.00  0.00     0.280 HD
ATOM      6  HN2 UNL     1      -4.755  -1.938  11.452  1.00  0.00     0.280 HD
HETATM    7  C   UNL     1      -3.257  -0.761  10.648  1.00  0.00     0.241 C 
HETATM    8  C   UNL     1      -3.416   0.743  10.554  1.00  0.00     0.020 C 
ENDROOT
BRANCH   8   9
HETATM    9  C   UNL     1      -2.448   1.544  11.424  1.00  0.00     0.045 C 
BRANCH   9  10
HETATM   10  C   UNL     1      -1.688   2.557  10.604  1.00  0.00    -0.058 C 
HETATM   11  C   UNL     1      -2.379   3.621  10.047  1.00  0.00     0.010 C 
HETATM   12  C   UNL     1      -1.925   4.801   9.565  1.00  0.00     0.037 C 
HETATM   13  C   UNL     1      -0.736   5.460   9.807  1.00  0.00     0.065 C 
HETATM   14  C   UNL     1       0.428   4.765  10.147  1.00  0.00     0.036 C 
HETATM   15  C   UNL     1       0.564   3.407  10.193  1.00  0.00     0.003 C 
HETATM   16  C   UNL     1      -0.328   2.385  10.387  1.00  0.00     0.007 C 
BRANCH  13  17
HETATM   17  O   UNL     1      -0.695   6.807   9.625  1.00  0.00    -0.361 OA
ATOM     18  HO  UNL     1      -0.238   7.336  10.268  1.00  0.00     0.217 HD
ENDBRANCH  13  17
ENDBRANCH   9  10
ENDBRANCH   8   9
BRANCH   3  19
HETATM   19  O   UNL     1      -6.648  -0.536  11.510  1.00  0.00    -0.365 OA
ATOM     20  HO  UNL     1      -7.507  -0.542  11.104  1.00  0.00     0.212 HD
ENDBRANCH   3  19
TORSDOF 4
ENDMDL
MODEL 8
REMARK VINA RESULT:      -6.0      2.712      6.183
REMARK  4 active torsions:
REMARK  status: ('A' for Active; 'I' for Inactive)
REMARK    1  A    between atoms: O_4  and  C_8 
REMARK    2  A    between atoms: O_6  and  C_16 
REMARK    3  A    between atoms: C_17  and  C_20 
REMARK    4  A    between atoms: C_19  and  C_20 
ROOT
HETATM    1  C   UNL     1      -3.350   0.797   8.718  1.00  0.00     0.074 C 
HETATM    2  C   UNL     1      -3.256  -0.908   6.869  1.00  0.00     0.078 C 
HETATM    3  C   UNL     1      -4.140  -0.239   7.919  1.00  0.00     0.220 C 
HETATM    4  N   UNL     1      -4.547  -1.253   8.881  1.00  0.00    -0.043 N 
ATOM      5  HN1 UNL     1      -4.454  -2.194   8.497  1.00  0.00     0.280 HD
ATOM      6  HN2 UNL     1      -5.556  -1.245   9.031  1.00  0.00     0.280 HD
HETATM    7  C   UNL     1      -3.815  -1.112  10.140  1.00  0.00     0.241 C 
HETATM    8  C   UNL     1      -2.864   0.053   9.956  1.00  0.00     0.020 C 
ENDROOT
BRANCH   8   9
HETATM    9  C   UNL     1      -2.734   0.970  11.172  1.00  0.00     0.045 C 
BRANCH   9  10
HETATM   10  C   UNL     1      -1.900   2.185  10.853  1.00  0.00    -0.058 C 
HETATM   11  C   UNL     1      -0.519   2.075  10.884  1.00  0.00     0.010 C 
HETATM   12  C   UNL     1       0.433   2.872  10.346  1.00  0.00     0.037 C 
HETATM   13  C   UNL     1       0.345   3.793   9.321  1.00  0.00     0.065 C 
HETATM   14  C   UNL     1      -0.851   4.459   9.039  1.00  0.00     0.036 C 
HETATM   15  C   UNL     1      -2.008   4.365   9.759  1.00  0.00     0.003 C 
HETATM   16  C   UNL     1      -2.522   3.394  10.577  1.00  0.00     0.007 C 
BRANCH  13  17
HETATM   17  O   UNL     1       1.476   4.106   8.634  1.00  0.00    -0.361 OA
ATOM     18  HO  UNL     1       1.548   3.824   7.729  1.00  0.00     0.217 HD
ENDBRANCH  13  17
ENDBRANCH   9  10
ENDBRANCH   8   9
BRANCH   3  19
HETATM   19  O   UNL     1      -5.271   0.311   7.285  1.00  0.00    -0.365 OA
ATOM     20  HO  UNL     1      -5.900  -0.350   7.020  1.00  0.00     0.212 HD
ENDBRANCH   3  19
TORSDOF 4
ENDMDL
MODEL 9
REMARK VINA RESULT:      -6.0      3.540      5.226
REMARK  4 active torsions:
REMARK  status: ('A' for Active; 'I' for Inactive)
REMARK    1  A    between atoms: O_4  and  C_8 
REMARK    2  A    between atoms: O_6  and  C_16 
REMARK    3  A    between atoms: C_17  and  C_20 
REMARK    4  A    between atoms: C_19  and  C_20 
ROOT
HETATM    1  C   UNL     1      -2.688   0.890  11.321  1.00  0.00     0.074 C 
HETATM    2  C   UNL     1      -1.135   2.732  10.594  1.00  0.00     0.078 C 
HETATM    3  C   UNL     1      -2.587   2.267  10.668  1.00  0.00     0.220 C 
HETATM    4  N   UNL     1      -3.077   2.094   9.307  1.00  0.00    -0.043 N 
ATOM      5  HN1 UNL     1      -2.509   2.611   8.635  1.00  0.00     0.280 HD
ATOM      6  HN2 UNL     1      -3.965   2.576   9.164  1.00  0.00     0.280 HD
HETATM    7  C   UNL     1      -3.171   0.678   8.955  1.00  0.00     0.241 C 
HETATM    8  C   UNL     1      -2.686  -0.099  10.161  1.00  0.00     0.020 C 
ENDROOT
BRANCH   8   9
HETATM    9  C   UNL     1      -3.488  -1.362  10.473  1.00  0.00     0.045 C 
BRANCH   9  10
HETATM   10  C   UNL     1      -4.891  -1.266   9.928  1.00  0.00    -0.058 C 
HETATM   11  C   UNL     1      -5.151  -1.758   8.659  1.00  0.00     0.010 C 
HETATM   12  C   UNL     1      -6.325  -2.089   8.074  1.00  0.00     0.037 C 
HETATM   13  C   UNL     1      -7.546  -2.393   8.643  1.00  0.00     0.065 C 
HETATM   14  C   UNL     1      -7.923  -1.873   9.884  1.00  0.00     0.036 C 
HETATM   15  C   UNL     1      -7.213  -0.969  10.621  1.00  0.00     0.003 C 
HETATM   16  C   UNL     1      -5.882  -0.653  10.681  1.00  0.00     0.007 C 
BRANCH  13  17
HETATM   17  O   UNL     1      -8.421  -3.151   7.929  1.00  0.00    -0.361 OA
ATOM     18  HO  UNL     1      -8.137  -4.007   7.629  1.00  0.00     0.217 HD
ENDBRANCH  13  17
ENDBRANCH   9  10
ENDBRANCH   8   9
BRANCH   3  19
HETATM   19  O   UNL     1      -3.350   3.244  11.338  1.00  0.00    -0.365 OA
ATOM     20  HO  UNL     1      -4.215   2.932  11.578  1.00  0.00     0.212 HD
ENDBRANCH   3  19
TORSDOF 4
ENDMDL
