REMARK  3 active torsions:
REMARK  status: ('A' for Active; 'I' for Inactive)
REMARK    1  A    between atoms: C_11  and  C_14 
REMARK    2  A    between atoms: C_19  and  C_24 
REMARK    3  A    between atoms: C_23  and  C_25 
ROOT
HETATM    1  C   UNL     1      10.036  13.000  16.818  1.00  0.00     0.023 C 
HETATM    2  C   UNL     1      12.355  11.309  16.712  1.00  0.00     0.005 C 
HETATM    3  C   UNL     1      11.200  12.357  14.762  1.00  0.00     0.182 C 
HETATM    4  C   UNL     1      10.755  12.667  17.928  1.00  0.00    -0.048 C 
HETATM    5  C   UNL     1      12.233  11.674  15.409  1.00  0.00     0.056 C 
HETATM    6  O   UNL     1      11.157  12.308  13.486  1.00  0.00    -0.288 OA
HETATM    7  C   UNL     1      10.199  13.076  15.473  1.00  0.00     0.015 C 
HETATM    8  C   UNL     1      11.746  11.664  17.903  1.00  0.00     0.008 C 
ENDROOT
BRANCH   4   9
HETATM    9  C   UNL     1      10.259  13.357  19.193  1.00  0.00    -0.002 C 
HETATM   10  C   UNL     1      10.718  14.710  18.553  1.00  0.00     0.015 C 
HETATM   11  C   UNL     1      11.108  15.854  19.510  1.00  0.00     0.002 C 
HETATM   12  C   UNL     1      10.366  15.339  20.730  1.00  0.00     0.010 C 
HETATM   13  C   UNL     1      10.880  13.908  20.521  1.00  0.00     0.032 C 
HETATM   14  C   UNL     1      10.625  12.878  21.559  1.00  0.00    -0.047 C 
HETATM   15  C   UNL     1       9.683  11.952  21.102  1.00  0.00    -0.050 C 
HETATM   16  C   UNL     1      11.239  12.680  22.796  1.00  0.00     0.008 C 
HETATM   17  C   UNL     1       9.190  12.321  19.722  1.00  0.00     0.054 C 
HETATM   18  C   UNL     1       9.334  10.856  21.879  1.00  0.00     0.007 C 
HETATM   19  C   UNL     1       9.946  10.668  23.125  1.00  0.00     0.001 C 
HETATM   20  C   UNL     1      10.983  11.519  23.524  1.00  0.00     0.001 C 
ENDBRANCH   4   9
BRANCH   7  21
HETATM   21  C   UNL     1       9.282  13.860  14.752  1.00  0.00     0.016 C 
HETATM   22  C   UNL     1       7.924  13.583  14.676  1.00  0.00     0.012 C 
BRANCH  22  23
HETATM   23  C   UNL     1       7.340  12.289  14.782  1.00  0.00    -0.036 C 
HETATM   24  C   UNL     1       7.089  11.557  13.606  1.00  0.00     0.011 C 
HETATM   25  C   UNL     1       6.091  10.636  13.362  1.00  0.00     0.001 C 
HETATM   26  C   UNL     1       5.533   9.704  14.231  1.00  0.00     0.000 C 
HETATM   27  C   UNL     1       5.758   9.646  15.592  1.00  0.00     0.000 C 
HETATM   28  C   UNL     1       6.417  10.570  16.369  1.00  0.00     0.001 C 
HETATM   29  C   UNL     1       7.010  11.767  16.048  1.00  0.00     0.011 C 
ENDBRANCH  22  23
ENDBRANCH   7  21
TORSDOF 3
