REMARK  4 active torsions:
REMARK  status: ('A' for Active; 'I' for Inactive)
REMARK    1  A    between atoms: C_1  and  C_8 
REMARK    2  A    between atoms: O_2  and  C_7 
REMARK    3  A    between atoms: C_6  and  N_32 
REMARK    4  A    between atoms: C_11  and  C_29 
REMARK       I    between atoms: C_11  and  N_31 
ROOT
HETATM    1  O   UNL     1      -8.510 -14.364  12.956  1.00  0.00    -0.267 OA
HETATM    2  F   UNL     1     -11.148 -17.937  13.170  1.00  0.00    -0.205 F 
HETATM    3  C   UNL     1     -10.156 -15.883  13.661  1.00  0.00     0.097 C 
HETATM    4  C   UNL     1      -6.555 -16.182  13.971  1.00  0.00     0.263 C 
HETATM    5  C   UNL     1     -10.328 -17.241  13.957  1.00  0.00     0.134 C 
HETATM    6  C   UNL     1      -8.142 -16.156  15.880  1.00  0.00     0.163 C 
HETATM    7  C   UNL     1      -9.763 -17.892  15.059  1.00  0.00     0.041 C 
HETATM    8  C   UNL     1      -9.026 -17.340  16.046  1.00  0.00    -0.004 C 
HETATM    9  O   UNL     1      -6.359 -16.235  12.769  1.00  0.00    -0.267 OA
HETATM   10  C   UNL     1      -8.784 -15.306  13.661  1.00  0.00     0.266 C 
HETATM   11  N   UNL     1      -7.817 -15.887  14.473  1.00  0.00    -0.276 N 
ENDROOT
BRANCH   3  12
HETATM   12  C   UNL     1     -11.313 -15.011  13.677  1.00  0.00     0.051 C 
HETATM   13  C   UNL     1     -11.675 -14.305  14.835  1.00  0.00     0.031 C 
HETATM   14  C   UNL     1     -12.214 -13.047  14.662  1.00  0.00     0.016 C 
HETATM   15  C   UNL     1     -12.443 -12.641  13.336  1.00  0.00    -0.007 C 
HETATM   16  C   UNL     1     -12.705 -13.664  12.400  1.00  0.00     0.043 C 
HETATM   17  C   UNL     1     -12.428 -11.317  12.884  1.00  0.00     0.050 C 
HETATM   18  C   UNL     1     -13.471 -13.335  11.282  1.00  0.00     0.033 C 
HETATM   19  N   UNL     1     -12.099 -14.875  12.577  1.00  0.00    -0.355 N 
HETATM   20  C   UNL     1     -13.646 -12.002  10.933  1.00  0.00     0.039 C 
HETATM   21  C   UNL     1     -13.158 -10.994  11.740  1.00  0.00     0.066 C 
ATOM     22  HN  UNL     1     -12.230 -15.640  11.916  1.00  0.00     0.166 HD
BRANCH  21  23
HETATM   23  O   UNL     1     -13.473  -9.690  11.490  1.00  0.00    -0.361 OA
ATOM     24  HO  UNL     1     -13.970  -9.470  10.711  1.00  0.00     0.217 HD
ENDBRANCH  21  23
ENDBRANCH   3  12
BRANCH   4  25
HETATM   25  C   UNL     1      -5.394 -16.436  14.858  1.00  0.00     0.058 C 
HETATM   26  C   UNL     1      -5.102 -17.747  15.321  1.00  0.00     0.042 C 
HETATM   27  C   UNL     1      -4.515 -17.863  16.578  1.00  0.00     0.036 C 
HETATM   28  C   UNL     1      -3.817 -16.785  17.109  1.00  0.00    -0.060 C 
HETATM   29  C   UNL     1      -3.760 -15.586  16.402  1.00  0.00     0.008 C 
HETATM   30  C   UNL     1      -3.036 -16.929  18.396  1.00  0.00     0.048 C 
HETATM   31  C   UNL     1      -4.569 -15.398  15.286  1.00  0.00     0.020 C 
BRANCH  26  32
HETATM   32  N   UNL     1      -5.381 -18.836  14.536  1.00  0.00    -0.398 N 
ATOM     33  HN2 UNL     1      -5.171 -19.777  14.868  1.00  0.00     0.156 HD
ATOM     34  HN1 UNL     1      -5.811 -18.751  13.615  1.00  0.00     0.156 HD
ENDBRANCH  26  32
ENDBRANCH   4  25
TORSDOF 4
