REMARK  8 active torsions:
REMARK  status: ('A' for Active; 'I' for Inactive)
REMARK    1  A    between atoms: O_2  and  C_16 
REMARK    2  A    between atoms: C_6  and  C_20 
REMARK       I    between atoms: N_7  and  C_20 
REMARK    3  A    between atoms: C_10  and  C_11 
REMARK    4  A    between atoms: C_11  and  C_28 
REMARK    5  A    between atoms: C_12  and  C_28 
REMARK    6  A    between atoms: C_13  and  C_38 
REMARK    7  A    between atoms: C_19  and  N_29 
REMARK    8  A    between atoms: O_22  and  C_34 
ROOT
HETATM    1  C   UNL     1     -12.850  16.377   5.224  1.00  0.00     0.067 C 
HETATM    2  C   UNL     1     -10.019  21.283   6.647  1.00  0.00     0.044 C 
HETATM    3  C   UNL     1     -10.467  22.117   5.623  1.00  0.00     0.057 C 
HETATM    4  C   UNL     1     -13.608  17.528   5.001  1.00  0.00     0.115 C 
HETATM    5  C   UNL     1     -11.656  18.883   5.486  1.00  0.00     0.027 C 
HETATM    6  C   UNL     1     -10.820  20.004   5.284  1.00  0.00     0.046 C 
HETATM    7  C   UNL     1      -9.626  20.156   5.964  1.00  0.00     0.048 C 
HETATM    8  C   UNL     1     -11.647  16.505   5.918  1.00  0.00     0.021 C 
HETATM    9  C   UNL     1     -13.006  18.785   5.147  1.00  0.00     0.112 C 
HETATM   10  N   UNL     1     -11.115  21.237   4.802  1.00  0.00    -0.354 N 
ATOM     11  HN  UNL     1     -11.698  21.461   3.996  1.00  0.00     0.166 HD
HETATM   12  C   UNL     1     -11.041  17.748   6.025  1.00  0.00     0.018 C 
ENDROOT
BRANCH   9  13
HETATM   13  O   UNL     1     -13.774  19.891   5.039  1.00  0.00    -0.357 OA
ATOM     14  HO  UNL     1     -13.366  20.743   5.138  1.00  0.00     0.217 HD
ENDBRANCH   9  13
BRANCH   2  15
HETATM   15  C   UNL     1     -10.452  21.167   8.034  1.00  0.00     0.185 C 
HETATM   16  O   UNL     1     -11.446  21.799   8.423  1.00  0.00    -0.287 OA
BRANCH  15  17
HETATM   17  C   UNL     1      -9.705  20.301   8.835  1.00  0.00     0.067 C 
BRANCH  17  18
HETATM   18  C   UNL     1      -9.744  20.065  10.226  1.00  0.00    -0.032 C 
HETATM   19  C   UNL     1      -9.804  18.753  10.713  1.00  0.00     0.011 C 
HETATM   20  C   UNL     1      -9.470  18.482  12.035  1.00  0.00     0.001 C 
HETATM   21  C   UNL     1      -9.178  19.517  12.908  1.00  0.00     0.000 C 
HETATM   22  C   UNL     1      -9.259  20.837  12.466  1.00  0.00     0.001 C 
HETATM   23  C   UNL     1      -9.660  21.099  11.161  1.00  0.00     0.011 C 
ENDBRANCH  17  18
ENDBRANCH  15  17
ENDBRANCH   2  15
BRANCH   3  24
HETATM   24  C   UNL     1     -10.087  23.465   5.277  1.00  0.00    -0.006 C 
HETATM   25  C   UNL     1      -9.738  23.775   3.968  1.00  0.00     0.042 C 
HETATM   26  C   UNL     1      -9.646  25.106   3.558  1.00  0.00     0.026 C 
HETATM   27  C   UNL     1      -9.716  26.117   4.522  1.00  0.00     0.029 C 
HETATM   28  C   UNL     1      -9.834  25.786   5.861  1.00  0.00     0.003 C 
HETATM   29  C   UNL     1     -10.044  24.468   6.235  1.00  0.00     0.014 C 
BRANCH  26  30
HETATM   30  N   UNL     1      -9.654  25.429   2.237  1.00  0.00    -0.399 N 
ATOM     31  HN2 UNL     1      -9.603  24.692   1.534  1.00  0.00     0.156 HD
ATOM     32  HN1 UNL     1      -9.587  26.402   1.937  1.00  0.00     0.156 HD
ENDBRANCH  26  30
ENDBRANCH   3  24
BRANCH   4  33
HETATM   33  O   UNL     1     -14.926  17.417   4.667  1.00  0.00    -0.357 OA
ATOM     34  HO  UNL     1     -15.442  18.200   4.515  1.00  0.00     0.217 HD
ENDBRANCH   4  33
BRANCH   1  35
HETATM   35  C   UNL     1     -13.250  15.056   4.653  1.00  0.00     0.252 C 
HETATM   36  O   UNL     1     -14.339  14.563   4.952  1.00  0.00    -0.268 OA
HETATM   37  N   UNL     1     -12.310  14.400   3.936  1.00  0.00    -0.366 N 
ATOM     38  HN2 UNL     1     -12.583  13.498   3.546  1.00  0.00     0.159 HD
ATOM     39  HN1 UNL     1     -11.409  14.808   3.688  1.00  0.00     0.159 HD
ENDBRANCH   1  35
TORSDOF 8
