REMARK  2 active torsions:
REMARK  status: ('A' for Active; 'I' for Inactive)
REMARK    1  A    between atoms: C_4  and  C_11 
REMARK    2  A    between atoms: C_8  and  C_12 
ROOT
HETATM    1  O   UNL     1      22.255  65.659  15.837  1.00  0.00    -0.375 OA
HETATM    2  C   UNL     1      20.489  65.378  17.506  1.00  0.00     0.020 C 
HETATM    3  C   UNL     1      21.113  66.372  18.475  1.00  0.00     0.013 C 
HETATM    4  C   UNL     1      22.325  63.579  17.216  1.00  0.00     0.059 C 
HETATM    5  C   UNL     1      20.855  65.759  16.071  1.00  0.00     0.174 C 
HETATM    6  C   UNL     1      23.069  64.631  16.391  1.00  0.00     0.223 C 
HETATM    7  C   UNL     1      21.013  63.990  17.766  1.00  0.00     0.095 C 
ENDROOT
BRANCH   6   8
HETATM    8  C   UNL     1      24.154  65.304  17.204  1.00  0.00     0.203 C 
HETATM    9  O   UNL     1      24.284  66.527  17.158  1.00  0.00    -0.646 OA
HETATM   10  O   UNL     1      24.855  64.537  17.918  1.00  0.00    -0.646 OA
ENDBRANCH   6   8
BRANCH   7  11
HETATM   11  C   UNL     1      20.102  63.031  18.464  1.00  0.00     0.177 C 
HETATM   12  O   UNL     1      20.217  62.910  19.686  1.00  0.00    -0.648 OA
HETATM   13  O   UNL     1      19.222  62.468  17.755  1.00  0.00    -0.648 OA
ENDBRANCH   7  11
TORSDOF 2
