MODEL 1
REMARK VINA RESULT:      -6.0      0.000      0.000
REMARK  2 active torsions:
REMARK  status: ('A' for Active; 'I' for Inactive)
REMARK    1  A    between atoms: O_7  and  C_15 
REMARK    2  A    between atoms: C_13  and  C_15 
ROOT
HETATM    1  N   UNL     1      18.893  64.094  18.677  1.00  0.00    -0.059 N 
ATOM      2  HN1 UNL     1      18.164  63.683  19.259  1.00  0.00     0.278 HD
ATOM      3  HN2 UNL     1      18.939  64.946  19.237  1.00  0.00     0.278 HD
HETATM    4  O   UNL     1      17.213  62.445  16.845  1.00  0.00    -0.375 OA
HETATM    5  C   UNL     1      18.600  64.248  17.239  1.00  0.00     0.154 C 
HETATM    6  C   UNL     1      19.880  64.948  16.740  1.00  0.00     0.044 C 
HETATM    7  C   UNL     1      18.603  62.821  16.693  1.00  0.00     0.160 C 
HETATM    8  C   UNL     1      17.312  64.805  16.657  1.00  0.00     0.076 C 
HETATM    9  C   UNL     1      20.955  64.226  17.566  1.00  0.00     0.036 C 
HETATM   10  C   UNL     1      16.432  63.595  16.345  1.00  0.00     0.152 C 
HETATM   11  C   UNL     1      19.621  62.157  17.635  1.00  0.00     0.067 C 
HETATM   12  C   UNL     1      20.151  63.318  18.515  1.00  0.00     0.189 C 
ENDROOT
BRANCH  10  13
HETATM   13  C   UNL     1      15.319  63.775  17.424  1.00  0.00     0.143 C 
HETATM   14  C   UNL     1      15.250  65.245  17.820  1.00  0.00     0.042 C 
BRANCH  13  15
HETATM   15  O   UNL     1      15.738  63.027  18.570  1.00  0.00    -0.393 OA
ATOM     16  HO  UNL     1      15.654  62.104  18.365  1.00  0.00     0.210 HD
ENDBRANCH  13  15
ENDBRANCH  10  13
TORSDOF 2
ENDMDL
MODEL 2
REMARK VINA RESULT:      -5.8      1.618      2.307
REMARK  2 active torsions:
REMARK  status: ('A' for Active; 'I' for Inactive)
REMARK    1  A    between atoms: O_7  and  C_15 
REMARK    2  A    between atoms: C_13  and  C_15 
ROOT
HETATM    1  N   UNL     1      18.831  62.315  17.377  1.00  0.00    -0.059 N 
ATOM      2  HN1 UNL     1      18.721  61.876  16.464  1.00  0.00     0.278 HD
ATOM      3  HN2 UNL     1      18.697  61.436  17.878  1.00  0.00     0.278 HD
HETATM    4  O   UNL     1      17.552  64.367  15.631  1.00  0.00    -0.375 OA
HETATM    5  C   UNL     1      17.915  63.425  17.707  1.00  0.00     0.154 C 
HETATM    6  C   UNL     1      18.345  63.755  19.150  1.00  0.00     0.044 C 
HETATM    7  C   UNL     1      18.369  64.574  16.808  1.00  0.00     0.160 C 
HETATM    8  C   UNL     1      16.413  63.423  17.482  1.00  0.00     0.076 C 
HETATM    9  C   UNL     1      19.868  63.586  19.055  1.00  0.00     0.036 C 
HETATM   10  C   UNL     1      16.188  64.107  16.133  1.00  0.00     0.152 C 
HETATM   11  C   UNL     1      19.872  64.267  16.687  1.00  0.00     0.067 C 
HETATM   12  C   UNL     1      20.096  63.055  17.628  1.00  0.00     0.189 C 
ENDROOT
BRANCH  10  13
HETATM   13  C   UNL     1      15.713  62.889  15.281  1.00  0.00     0.143 C 
HETATM   14  C   UNL     1      14.469  62.290  15.927  1.00  0.00     0.042 C 
BRANCH  13  15
HETATM   15  O   UNL     1      16.759  61.913  15.347  1.00  0.00    -0.393 OA
ATOM     16  HO  UNL     1      17.272  62.085  16.128  1.00  0.00     0.210 HD
ENDBRANCH  13  15
ENDBRANCH  10  13
TORSDOF 2
ENDMDL
MODEL 3
REMARK VINA RESULT:      -5.4      1.685      4.085
REMARK  2 active torsions:
REMARK  status: ('A' for Active; 'I' for Inactive)
REMARK    1  A    between atoms: O_7  and  C_15 
REMARK    2  A    between atoms: C_13  and  C_15 
ROOT
HETATM    1  N   UNL     1      16.673  63.445  15.331  1.00  0.00    -0.059 N 
ATOM      2  HN1 UNL     1      17.099  62.519  15.340  1.00  0.00     0.278 HD
ATOM      3  HN2 UNL     1      17.136  63.711  14.461  1.00  0.00     0.278 HD
HETATM    4  O   UNL     1      17.055  62.747  18.206  1.00  0.00    -0.375 OA
HETATM    5  C   UNL     1      16.904  64.305  16.508  1.00  0.00     0.154 C 
HETATM    6  C   UNL     1      16.180  65.599  16.087  1.00  0.00     0.044 C 
HETATM    7  C   UNL     1      16.087  63.653  17.623  1.00  0.00     0.160 C 
HETATM    8  C   UNL     1      18.244  64.526  17.188  1.00  0.00     0.076 C 
HETATM    9  C   UNL     1      14.945  65.031  15.372  1.00  0.00     0.036 C 
HETATM   10  C   UNL     1      18.300  63.530  18.346  1.00  0.00     0.152 C 
HETATM   11  C   UNL     1      14.939  63.031  16.810  1.00  0.00     0.067 C 
HETATM   12  C   UNL     1      15.188  63.510  15.357  1.00  0.00     0.189 C 
ENDROOT
BRANCH  10  13
HETATM   13  C   UNL     1      19.402  62.558  17.823  1.00  0.00     0.143 C 
HETATM   14  C   UNL     1      20.539  63.377  17.224  1.00  0.00     0.042 C 
BRANCH  13  15
HETATM   15  O   UNL     1      18.805  61.794  16.769  1.00  0.00    -0.393 OA
ATOM     16  HO  UNL     1      17.866  61.928  16.805  1.00  0.00     0.210 HD
ENDBRANCH  13  15
ENDBRANCH  10  13
TORSDOF 2
ENDMDL
MODEL 4
REMARK VINA RESULT:      -5.3      1.713      4.019
REMARK  2 active torsions:
REMARK  status: ('A' for Active; 'I' for Inactive)
REMARK    1  A    between atoms: O_7  and  C_15 
REMARK    2  A    between atoms: C_13  and  C_15 
ROOT
HETATM    1  N   UNL     1      17.053  65.056  17.153  1.00  0.00    -0.059 N 
ATOM      2  HN1 UNL     1      17.567  65.277  16.301  1.00  0.00     0.278 HD
ATOM      3  HN2 UNL     1      17.002  66.032  17.443  1.00  0.00     0.278 HD
HETATM    4  O   UNL     1      18.853  62.730  16.655  1.00  0.00    -0.375 OA
HETATM    5  C   UNL     1      17.681  64.105  18.092  1.00  0.00     0.154 C 
HETATM    6  C   UNL     1      16.657  64.094  19.244  1.00  0.00     0.044 C 
HETATM    7  C   UNL     1      17.600  62.756  17.380  1.00  0.00     0.160 C 
HETATM    8  C   UNL     1      19.132  64.139  18.540  1.00  0.00     0.076 C 
HETATM    9  C   UNL     1      15.333  64.151  18.468  1.00  0.00     0.036 C 
HETATM   10  C   UNL     1      19.880  63.176  17.618  1.00  0.00     0.152 C 
HETATM   11  C   UNL     1      16.313  62.941  16.559  1.00  0.00     0.067 C 
HETATM   12  C   UNL     1      15.767  64.324  17.001  1.00  0.00     0.189 C 
ENDROOT
BRANCH  10  13
HETATM   13  C   UNL     1      20.735  64.189  16.795  1.00  0.00     0.143 C 
HETATM   14  C   UNL     1      21.004  65.419  17.653  1.00  0.00     0.042 C 
BRANCH  13  15
HETATM   15  O   UNL     1      19.930  64.592  15.682  1.00  0.00    -0.393 OA
ATOM     16  HO  UNL     1      19.060  64.230  15.803  1.00  0.00     0.210 HD
ENDBRANCH  13  15
ENDBRANCH  10  13
TORSDOF 2
ENDMDL
MODEL 5
REMARK VINA RESULT:      -5.2      1.785      4.304
REMARK  2 active torsions:
REMARK  status: ('A' for Active; 'I' for Inactive)
REMARK    1  A    between atoms: O_7  and  C_15 
REMARK    2  A    between atoms: C_13  and  C_15 
ROOT
HETATM    1  N   UNL     1      16.470  64.966  18.621  1.00  0.00    -0.059 N 
ATOM      2  HN1 UNL     1      17.218  65.624  18.840  1.00  0.00     0.278 HD
ATOM      3  HN2 UNL     1      16.319  64.725  19.601  1.00  0.00     0.278 HD
HETATM    4  O   UNL     1      18.370  64.841  16.324  1.00  0.00    -0.375 OA
HETATM    5  C   UNL     1      16.793  63.861  17.698  1.00  0.00     0.154 C 
HETATM    6  C   UNL     1      15.465  63.078  17.683  1.00  0.00     0.044 C 
HETATM    7  C   UNL     1      16.954  64.536  16.336  1.00  0.00     0.160 C 
HETATM    8  C   UNL     1      18.036  62.990  17.767  1.00  0.00     0.076 C 
HETATM    9  C   UNL     1      14.443  64.225  17.702  1.00  0.00     0.036 C 
HETATM   10  C   UNL     1      19.045  63.618  16.805  1.00  0.00     0.152 C 
HETATM   11  C   UNL     1      15.979  65.716  16.485  1.00  0.00     0.067 C 
HETATM   12  C   UNL     1      15.304  65.491  17.862  1.00  0.00     0.189 C 
ENDROOT
BRANCH  10  13
HETATM   13  C   UNL     1      20.097  64.159  17.822  1.00  0.00     0.143 C 
HETATM   14  C   UNL     1      20.827  65.341  17.196  1.00  0.00     0.042 C 
BRANCH  13  15
HETATM   15  O   UNL     1      21.048  63.108  18.023  1.00  0.00    -0.393 OA
ATOM     16  HO  UNL     1      21.367  63.168  18.915  1.00  0.00     0.210 HD
ENDBRANCH  13  15
ENDBRANCH  10  13
TORSDOF 2
ENDMDL
MODEL 6
REMARK VINA RESULT:      -5.1      1.554      2.164
REMARK  2 active torsions:
REMARK  status: ('A' for Active; 'I' for Inactive)
REMARK    1  A    between atoms: O_7  and  C_15 
REMARK    2  A    between atoms: C_13  and  C_15 
ROOT
HETATM    1  N   UNL     1      19.142  64.646  17.168  1.00  0.00    -0.059 N 
ATOM      2  HN1 UNL     1      18.824  65.607  17.290  1.00  0.00     0.278 HD
ATOM      3  HN2 UNL     1      19.555  64.839  16.255  1.00  0.00     0.278 HD
HETATM    4  O   UNL     1      16.608  64.477  18.732  1.00  0.00    -0.375 OA
HETATM    5  C   UNL     1      18.119  63.584  17.233  1.00  0.00     0.154 C 
HETATM    6  C   UNL     1      18.965  62.329  16.939  1.00  0.00     0.044 C 
HETATM    7  C   UNL     1      17.709  63.538  18.705  1.00  0.00     0.160 C 
HETATM    8  C   UNL     1      16.772  63.613  16.532  1.00  0.00     0.076 C 
HETATM    9  C   UNL     1      20.256  62.653  17.705  1.00  0.00     0.036 C 
HETATM   10  C   UNL     1      15.774  64.148  17.559  1.00  0.00     0.152 C 
HETATM   11  C   UNL     1      19.022  63.970  19.381  1.00  0.00     0.067 C 
HETATM   12  C   UNL     1      20.038  64.089  18.215  1.00  0.00     0.189 C 
ENDROOT
BRANCH  10  13
HETATM   13  C   UNL     1      15.456  65.543  16.935  1.00  0.00     0.143 C 
HETATM   14  C   UNL     1      14.046  65.516  16.359  1.00  0.00     0.042 C 
BRANCH  13  15
HETATM   15  O   UNL     1      16.374  65.723  15.851  1.00  0.00    -0.393 OA
ATOM     16  HO  UNL     1      17.001  65.010  15.876  1.00  0.00     0.210 HD
ENDBRANCH  13  15
ENDBRANCH  10  13
TORSDOF 2
ENDMDL
MODEL 7
REMARK VINA RESULT:      -4.8      1.964      4.150
REMARK  2 active torsions:
REMARK  status: ('A' for Active; 'I' for Inactive)
REMARK    1  A    between atoms: O_7  and  C_15 
REMARK    2  A    between atoms: C_13  and  C_15 
ROOT
HETATM    1  N   UNL     1      16.546  65.420  16.658  1.00  0.00    -0.059 N 
ATOM      2  HN1 UNL     1      17.534  65.484  16.417  1.00  0.00     0.278 HD
ATOM      3  HN2 UNL     1      16.491  66.402  16.930  1.00  0.00     0.278 HD
HETATM    4  O   UNL     1      17.719  62.753  17.300  1.00  0.00    -0.375 OA
HETATM    5  C   UNL     1      16.162  64.417  17.671  1.00  0.00     0.154 C 
HETATM    6  C   UNL     1      14.649  64.679  17.801  1.00  0.00     0.044 C 
HETATM    7  C   UNL     1      16.347  63.073  16.968  1.00  0.00     0.160 C 
HETATM    8  C   UNL     1      16.875  64.182  18.992  1.00  0.00     0.076 C 
HETATM    9  C   UNL     1      14.268  64.958  16.339  1.00  0.00     0.036 C 
HETATM   10  C   UNL     1      17.857  63.037  18.743  1.00  0.00     0.152 C 
HETATM   11  C   UNL     1      16.047  63.469  15.512  1.00  0.00     0.067 C 
HETATM   12  C   UNL     1      15.615  64.956  15.595  1.00  0.00     0.189 C 
ENDROOT
BRANCH  10  13
HETATM   13  C   UNL     1      19.210  63.807  18.836  1.00  0.00     0.143 C 
HETATM   14  C   UNL     1      19.856  63.839  17.456  1.00  0.00     0.042 C 
BRANCH  13  15
HETATM   15  O   UNL     1      20.056  63.042  19.702  1.00  0.00    -0.393 OA
ATOM     16  HO  UNL     1      19.536  62.759  20.444  1.00  0.00     0.210 HD
ENDBRANCH  13  15
ENDBRANCH  10  13
TORSDOF 2
ENDMDL
MODEL 8
REMARK VINA RESULT:      -4.7      2.723      4.820
REMARK  2 active torsions:
REMARK  status: ('A' for Active; 'I' for Inactive)
REMARK    1  A    between atoms: O_7  and  C_15 
REMARK    2  A    between atoms: C_13  and  C_15 
ROOT
HETATM    1  N   UNL     1      19.361  63.309  16.203  1.00  0.00    -0.059 N 
ATOM      2  HN1 UNL     1      20.235  62.926  15.843  1.00  0.00     0.278 HD
ATOM      3  HN2 UNL     1      19.017  63.548  15.272  1.00  0.00     0.278 HD
HETATM    4  O   UNL     1      21.422  63.879  18.283  1.00  0.00    -0.375 OA
HETATM    5  C   UNL     1      19.459  64.404  17.187  1.00  0.00     0.154 C 
HETATM    6  C   UNL     1      17.972  64.739  17.419  1.00  0.00     0.044 C 
HETATM    7  C   UNL     1      19.991  63.734  18.453  1.00  0.00     0.160 C 
HETATM    8  C   UNL     1      20.365  65.617  17.068  1.00  0.00     0.076 C 
HETATM    9  C   UNL     1      17.344  63.337  17.401  1.00  0.00     0.036 C 
HETATM   10  C   UNL     1      21.633  65.275  17.851  1.00  0.00     0.152 C 
HETATM   11  C   UNL     1      19.401  62.322  18.299  1.00  0.00     0.067 C 
HETATM   12  C   UNL     1      18.515  62.408  17.030  1.00  0.00     0.189 C 
ENDROOT
BRANCH  10  13
HETATM   13  C   UNL     1      22.655  65.144  16.680  1.00  0.00     0.143 C 
HETATM   14  C   UNL     1      24.042  64.900  17.260  1.00  0.00     0.042 C 
BRANCH  13  15
HETATM   15  O   UNL     1      22.672  66.409  16.010  1.00  0.00    -0.393 OA
ATOM     16  HO  UNL     1      21.774  66.706  15.922  1.00  0.00     0.210 HD
ENDBRANCH  13  15
ENDBRANCH  10  13
TORSDOF 2
ENDMDL
MODEL 9
REMARK VINA RESULT:      -4.7      2.372      4.469
REMARK  2 active torsions:
REMARK  status: ('A' for Active; 'I' for Inactive)
REMARK    1  A    between atoms: O_7  and  C_15 
REMARK    2  A    between atoms: C_13  and  C_15 
ROOT
HETATM    1  N   UNL     1      19.009  64.780  18.901  1.00  0.00    -0.059 N 
ATOM      2  HN1 UNL     1      19.113  65.735  18.559  1.00  0.00     0.278 HD
ATOM      3  HN2 UNL     1      19.247  65.037  19.860  1.00  0.00     0.278 HD
HETATM    4  O   UNL     1      20.005  64.542  16.100  1.00  0.00    -0.375 OA
HETATM    5  C   UNL     1      19.834  63.739  18.258  1.00  0.00     0.154 C 
HETATM    6  C   UNL     1      19.449  62.493  19.080  1.00  0.00     0.044 C 
HETATM    7  C   UNL     1      19.232  63.584  16.862  1.00  0.00     0.160 C 
HETATM    8  C   UNL     1      21.317  63.857  17.950  1.00  0.00     0.076 C 
HETATM    9  C   UNL     1      17.945  62.724  19.286  1.00  0.00     0.036 C 
HETATM   10  C   UNL     1      21.410  64.329  16.499  1.00  0.00     0.152 C 
HETATM   11  C   UNL     1      17.760  63.928  17.145  1.00  0.00     0.067 C 
HETATM   12  C   UNL     1      17.695  64.118  18.682  1.00  0.00     0.189 C 
ENDROOT
BRANCH  10  13
HETATM   13  C   UNL     1      21.952  65.776  16.713  1.00  0.00     0.143 C 
HETATM   14  C   UNL     1      23.456  65.711  16.947  1.00  0.00     0.042 C 
BRANCH  13  15
HETATM   15  O   UNL     1      21.338  66.268  17.910  1.00  0.00    -0.393 OA
ATOM     16  HO  UNL     1      21.627  67.163  18.041  1.00  0.00     0.210 HD
ENDBRANCH  13  15
ENDBRANCH  10  13
TORSDOF 2
ENDMDL
