MODEL 1
REMARK VINA RESULT:      -9.0      0.000      0.000
REMARK  5 active torsions:
REMARK  status: ('A' for Active; 'I' for Inactive)
REMARK    1  A    between atoms: C_1  and  O_25 
REMARK       I    between atoms: N_4  and  C_14 
REMARK    2  A    between atoms: N_4  and  C_22 
REMARK    3  A    between atoms: C_8  and  C_10 
REMARK    4  A    between atoms: C_8  and  C_12 
REMARK    5  A    between atoms: C_10  and  C_23 
ROOT
HETATM    1  C   UNL     1      14.482  13.099  19.246  1.00  0.00     0.030 C 
HETATM    2  C   UNL     1      13.924  13.153  20.524  1.00  0.00     0.014 C 
HETATM    3  C   UNL     1      13.987  10.744  19.106  1.00  0.00     0.042 C 
HETATM    4  C   UNL     1      12.665  10.685  22.910  1.00  0.00    -0.057 C 
HETATM    5  C   UNL     1      13.766   9.806  22.696  1.00  0.00     0.008 C 
HETATM    6  C   UNL     1      14.027   9.648  21.310  1.00  0.00     0.013 C 
HETATM    7  C   UNL     1      13.781  10.760  20.491  1.00  0.00    -0.024 C 
HETATM    8  C   UNL     1      13.382  11.991  21.082  1.00  0.00    -0.025 C 
HETATM    9  C   UNL     1      12.745  11.968  22.345  1.00  0.00     0.019 C 
HETATM   10  C   UNL     1      14.509  11.897  18.525  1.00  0.00     0.038 C 
ENDROOT
BRANCH   4  11
HETATM   11  C   UNL     1      11.522  10.120  23.689  1.00  0.00     0.043 C 
BRANCH  11  12
HETATM   12  C   UNL     1      10.248  10.841  23.259  1.00  0.00     0.043 C 
BRANCH  12  13
HETATM   13  C   UNL     1       9.704   9.952  22.166  1.00  0.00    -0.058 C 
HETATM   14  C   UNL     1       9.388   8.632  22.425  1.00  0.00     0.010 C 
HETATM   15  C   UNL     1       9.780   7.646  21.518  1.00  0.00     0.037 C 
HETATM   16  C   UNL     1      10.824   7.865  20.641  1.00  0.00     0.065 C 
HETATM   17  C   UNL     1      10.891   8.894  19.710  1.00  0.00     0.036 C 
HETATM   18  C   UNL     1      10.217  10.096  19.775  1.00  0.00     0.003 C 
HETATM   19  C   UNL     1       9.566  10.520  20.919  1.00  0.00     0.007 C 
BRANCH  16  20
HETATM   20  O   UNL     1      11.938   7.082  20.785  1.00  0.00    -0.361 OA
ATOM     21  HO  UNL     1      12.551   7.063  20.060  1.00  0.00     0.217 HD
ENDBRANCH  16  20
ENDBRANCH  12  13
ENDBRANCH  11  12
ENDBRANCH   4  11
BRANCH  10  22
HETATM   22  N   UNL     1      14.995  11.824  17.234  1.00  0.00    -0.301 N 
HETATM   23  C   UNL     1      15.247  10.715  16.470  1.00  0.00     0.288 C 
HETATM   24  O   UNL     1      16.327  10.101  16.607  1.00  0.00    -0.629 OA
HETATM   25  O   UNL     1      14.378  10.497  15.577  1.00  0.00    -0.629 OA
ATOM     26  HN  UNL     1      15.194  12.719  16.787  1.00  0.00     0.172 HD
ENDBRANCH  10  22
TORSDOF 5
ENDMDL
MODEL 2
REMARK VINA RESULT:      -8.7      1.129      1.477
REMARK  5 active torsions:
REMARK  status: ('A' for Active; 'I' for Inactive)
REMARK    1  A    between atoms: C_1  and  O_25 
REMARK       I    between atoms: N_4  and  C_14 
REMARK    2  A    between atoms: N_4  and  C_22 
REMARK    3  A    between atoms: C_8  and  C_10 
REMARK    4  A    between atoms: C_8  and  C_12 
REMARK    5  A    between atoms: C_10  and  C_23 
ROOT
HETATM    1  C   UNL     1      14.370  13.057  19.327  1.00  0.00     0.030 C 
HETATM    2  C   UNL     1      13.919  13.097  20.647  1.00  0.00     0.014 C 
HETATM    3  C   UNL     1      13.592  10.788  19.106  1.00  0.00     0.042 C 
HETATM    4  C   UNL     1      12.556  10.648  22.995  1.00  0.00    -0.057 C 
HETATM    5  C   UNL     1      13.528   9.664  22.648  1.00  0.00     0.008 C 
HETATM    6  C   UNL     1      13.665   9.562  21.240  1.00  0.00     0.013 C 
HETATM    7  C   UNL     1      13.491  10.742  20.501  1.00  0.00    -0.024 C 
HETATM    8  C   UNL     1      13.285  11.972  21.185  1.00  0.00    -0.025 C 
HETATM    9  C   UNL     1      12.745  11.945  22.492  1.00  0.00     0.019 C 
HETATM   10  C   UNL     1      14.202  11.907  18.545  1.00  0.00     0.038 C 
ENDROOT
BRANCH   4  11
HETATM   11  C   UNL     1      11.415  10.170  23.833  1.00  0.00     0.043 C 
BRANCH  11  12
HETATM   12  C   UNL     1      10.164  10.130  22.960  1.00  0.00     0.043 C 
BRANCH  12  13
HETATM   13  C   UNL     1       9.951   8.651  22.738  1.00  0.00    -0.058 C 
HETATM   14  C   UNL     1       9.942   7.773  23.804  1.00  0.00     0.010 C 
HETATM   15  C   UNL     1      10.641   6.568  23.701  1.00  0.00     0.037 C 
HETATM   16  C   UNL     1      11.674   6.422  22.797  1.00  0.00     0.065 C 
HETATM   17  C   UNL     1      11.572   6.601  21.423  1.00  0.00     0.036 C 
HETATM   18  C   UNL     1      10.625   7.358  20.768  1.00  0.00     0.003 C 
HETATM   19  C   UNL     1       9.791   8.240  21.433  1.00  0.00     0.007 C 
BRANCH  16  20
HETATM   20  O   UNL     1      12.927   6.211  23.306  1.00  0.00    -0.361 OA
ATOM     21  HO  UNL     1      13.255   5.319  23.297  1.00  0.00     0.217 HD
ENDBRANCH  16  20
ENDBRANCH  12  13
ENDBRANCH  11  12
ENDBRANCH   4  11
BRANCH  10  22
HETATM   22  N   UNL     1      14.580  11.857  17.217  1.00  0.00    -0.301 N 
HETATM   23  C   UNL     1      15.266  10.875  16.552  1.00  0.00     0.288 C 
HETATM   24  O   UNL     1      16.514  10.843  16.612  1.00  0.00    -0.629 OA
HETATM   25  O   UNL     1      14.539  10.151  15.811  1.00  0.00    -0.629 OA
ATOM     26  HN  UNL     1      14.310  12.663  16.653  1.00  0.00     0.172 HD
ENDBRANCH  10  22
TORSDOF 5
ENDMDL
MODEL 3
REMARK VINA RESULT:      -8.5      1.292      1.904
REMARK  5 active torsions:
REMARK  status: ('A' for Active; 'I' for Inactive)
REMARK    1  A    between atoms: C_1  and  O_25 
REMARK       I    between atoms: N_4  and  C_14 
REMARK    2  A    between atoms: N_4  and  C_22 
REMARK    3  A    between atoms: C_8  and  C_10 
REMARK    4  A    between atoms: C_8  and  C_12 
REMARK    5  A    between atoms: C_10  and  C_23 
ROOT
HETATM    1  C   UNL     1      14.557  13.058  19.161  1.00  0.00     0.030 C 
HETATM    2  C   UNL     1      13.980  13.122  20.431  1.00  0.00     0.014 C 
HETATM    3  C   UNL     1      13.965  10.728  18.986  1.00  0.00     0.042 C 
HETATM    4  C   UNL     1      12.578  10.683  22.766  1.00  0.00    -0.057 C 
HETATM    5  C   UNL     1      13.645   9.761  22.561  1.00  0.00     0.008 C 
HETATM    6  C   UNL     1      13.922   9.607  21.178  1.00  0.00     0.013 C 
HETATM    7  C   UNL     1      13.736  10.737  20.367  1.00  0.00    -0.024 C 
HETATM    8  C   UNL     1      13.380  11.977  20.965  1.00  0.00    -0.025 C 
HETATM    9  C   UNL     1      12.721  11.968  22.217  1.00  0.00     0.019 C 
HETATM   10  C   UNL     1      14.545  11.864  18.427  1.00  0.00     0.038 C 
ENDROOT
BRANCH   4  11
HETATM   11  C   UNL     1      11.399  10.159  23.520  1.00  0.00     0.043 C 
BRANCH  11  12
HETATM   12  C   UNL     1      11.101   8.748  23.023  1.00  0.00     0.043 C 
BRANCH  12  13
HETATM   13  C   UNL     1      10.070   8.976  21.943  1.00  0.00    -0.058 C 
HETATM   14  C   UNL     1      10.408   8.854  20.610  1.00  0.00     0.010 C 
HETATM   15  C   UNL     1       9.966   9.819  19.703  1.00  0.00     0.037 C 
HETATM   16  C   UNL     1       9.607  11.082  20.130  1.00  0.00     0.065 C 
HETATM   17  C   UNL     1       8.624  11.365  21.070  1.00  0.00     0.036 C 
HETATM   18  C   UNL     1       8.161  10.510  22.047  1.00  0.00     0.003 C 
HETATM   19  C   UNL     1       8.805   9.326  22.362  1.00  0.00     0.007 C 
BRANCH  16  20
HETATM   20  O   UNL     1      10.367  12.132  19.689  1.00  0.00    -0.361 OA
ATOM     21  HO  UNL     1       9.906  12.887  19.343  1.00  0.00     0.217 HD
ENDBRANCH  16  20
ENDBRANCH  12  13
ENDBRANCH  11  12
ENDBRANCH   4  11
BRANCH  10  22
HETATM   22  N   UNL     1      15.050  11.784  17.143  1.00  0.00    -0.301 N 
HETATM   23  C   UNL     1      15.296  10.672  16.382  1.00  0.00     0.288 C 
HETATM   24  O   UNL     1      16.364  10.041  16.535  1.00  0.00    -0.629 OA
HETATM   25  O   UNL     1      14.436  10.469  15.476  1.00  0.00    -0.629 OA
ATOM     26  HN  UNL     1      15.269  12.677  16.701  1.00  0.00     0.172 HD
ENDBRANCH  10  22
TORSDOF 5
ENDMDL
MODEL 4
REMARK VINA RESULT:      -8.5      2.074      3.364
REMARK  5 active torsions:
REMARK  status: ('A' for Active; 'I' for Inactive)
REMARK    1  A    between atoms: C_1  and  O_25 
REMARK       I    between atoms: N_4  and  C_14 
REMARK    2  A    between atoms: N_4  and  C_22 
REMARK    3  A    between atoms: C_8  and  C_10 
REMARK    4  A    between atoms: C_8  and  C_12 
REMARK    5  A    between atoms: C_10  and  C_23 
ROOT
HETATM    1  C   UNL     1      14.752  10.372  15.899  1.00  0.00     0.030 C 
HETATM    2  C   UNL     1      13.703  10.179  16.799  1.00  0.00     0.014 C 
HETATM    3  C   UNL     1      16.088  11.374  17.635  1.00  0.00     0.042 C 
HETATM    4  C   UNL     1      13.028  11.195  20.246  1.00  0.00    -0.057 C 
HETATM    5  C   UNL     1      13.482  12.526  20.022  1.00  0.00     0.008 C 
HETATM    6  C   UNL     1      14.716  12.530  19.321  1.00  0.00     0.013 C 
HETATM    7  C   UNL     1      14.917  11.498  18.391  1.00  0.00    -0.024 C 
HETATM    8  C   UNL     1      13.865  10.577  18.130  1.00  0.00    -0.025 C 
HETATM    9  C   UNL     1      12.879  10.366  19.122  1.00  0.00     0.019 C 
HETATM   10  C   UNL     1      15.954  10.961  16.312  1.00  0.00     0.038 C 
ENDROOT
BRANCH   4  11
HETATM   11  C   UNL     1      12.793  10.817  21.673  1.00  0.00     0.043 C 
BRANCH  11  12
HETATM   12  C   UNL     1      13.464   9.470  21.927  1.00  0.00     0.043 C 
BRANCH  12  13
HETATM   13  C   UNL     1      12.314   8.594  22.366  1.00  0.00    -0.058 C 
HETATM   14  C   UNL     1      12.161   8.246  23.694  1.00  0.00     0.010 C 
HETATM   15  C   UNL     1      11.853   6.924  24.021  1.00  0.00     0.037 C 
HETATM   16  C   UNL     1      12.133   5.893  23.146  1.00  0.00     0.065 C 
HETATM   17  C   UNL     1      11.659   5.790  21.845  1.00  0.00     0.036 C 
HETATM   18  C   UNL     1      11.234   6.832  21.048  1.00  0.00     0.003 C 
HETATM   19  C   UNL     1      11.459   8.157  21.378  1.00  0.00     0.007 C 
BRANCH  16  20
HETATM   20  O   UNL     1      13.054   4.963  23.549  1.00  0.00    -0.361 OA
ATOM     21  HO  UNL     1      13.414   5.058  24.422  1.00  0.00     0.217 HD
ENDBRANCH  16  20
ENDBRANCH  12  13
ENDBRANCH  11  12
ENDBRANCH   4  11
BRANCH  10  22
HETATM   22  N   UNL     1      17.033  11.108  15.462  1.00  0.00    -0.301 N 
HETATM   23  C   UNL     1      17.282  10.480  14.270  1.00  0.00     0.288 C 
HETATM   24  O   UNL     1      17.797   9.342  14.265  1.00  0.00    -0.629 OA
HETATM   25  O   UNL     1      17.074  11.206  13.254  1.00  0.00    -0.629 OA
ATOM     26  HN  UNL     1      17.743  11.776  15.764  1.00  0.00     0.172 HD
ENDBRANCH  10  22
TORSDOF 5
ENDMDL
MODEL 5
REMARK VINA RESULT:      -8.1      3.633      8.288
REMARK  5 active torsions:
REMARK  status: ('A' for Active; 'I' for Inactive)
REMARK    1  A    between atoms: C_1  and  O_25 
REMARK       I    between atoms: N_4  and  C_14 
REMARK    2  A    between atoms: N_4  and  C_22 
REMARK    3  A    between atoms: C_8  and  C_10 
REMARK    4  A    between atoms: C_8  and  C_12 
REMARK    5  A    between atoms: C_10  and  C_23 
ROOT
HETATM    1  C   UNL     1      13.501  12.263  21.308  1.00  0.00     0.030 C 
HETATM    2  C   UNL     1      14.112  12.702  20.132  1.00  0.00     0.014 C 
HETATM    3  C   UNL     1      13.789   9.969  20.626  1.00  0.00     0.042 C 
HETATM    4  C   UNL     1      15.253  11.101  17.050  1.00  0.00    -0.057 C 
HETATM    5  C   UNL     1      14.074  10.310  16.936  1.00  0.00     0.008 C 
HETATM    6  C   UNL     1      13.745   9.709  18.179  1.00  0.00     0.013 C 
HETATM    7  C   UNL     1      14.052  10.442  19.335  1.00  0.00    -0.024 C 
HETATM    8  C   UNL     1      14.577  11.758  19.211  1.00  0.00    -0.025 C 
HETATM    9  C   UNL     1      15.260  12.112  18.024  1.00  0.00     0.019 C 
HETATM   10  C   UNL     1      13.344  10.894  21.567  1.00  0.00     0.038 C 
ENDROOT
BRANCH   4  11
HETATM   11  C   UNL     1      16.376  10.736  16.132  1.00  0.00     0.043 C 
BRANCH  11  12
HETATM   12  C   UNL     1      15.790  10.443  14.754  1.00  0.00     0.043 C 
BRANCH  12  13
HETATM   13  C   UNL     1      17.006  10.067  13.940  1.00  0.00    -0.058 C 
HETATM   14  C   UNL     1      17.758  11.039  13.309  1.00  0.00     0.010 C 
HETATM   15  C   UNL     1      18.174  10.831  11.992  1.00  0.00     0.037 C 
HETATM   16  C   UNL     1      17.511   9.940  11.171  1.00  0.00     0.065 C 
HETATM   17  C   UNL     1      17.323   8.590  11.435  1.00  0.00     0.036 C 
HETATM   18  C   UNL     1      17.335   7.993  12.678  1.00  0.00     0.003 C 
HETATM   19  C   UNL     1      17.298   8.724  13.852  1.00  0.00     0.007 C 
BRANCH  16  20
HETATM   20  O   UNL     1      16.878  10.454  10.071  1.00  0.00    -0.361 OA
ATOM     21  HO  UNL     1      16.087  10.016   9.782  1.00  0.00     0.217 HD
ENDBRANCH  16  20
ENDBRANCH  12  13
ENDBRANCH  11  12
ENDBRANCH   4  11
BRANCH  10  22
HETATM   22  N   UNL     1      12.801  10.426  22.748  1.00  0.00    -0.301 N 
HETATM   23  C   UNL     1      12.437  11.128  23.867  1.00  0.00     0.288 C 
HETATM   24  O   UNL     1      13.302  11.430  24.717  1.00  0.00    -0.629 OA
HETATM   25  O   UNL     1      11.188  11.289  23.988  1.00  0.00    -0.629 OA
ATOM     26  HN  UNL     1      12.651   9.418  22.793  1.00  0.00     0.172 HD
ENDBRANCH  10  22
TORSDOF 5
ENDMDL
MODEL 6
REMARK VINA RESULT:      -7.9      1.679      2.367
REMARK  5 active torsions:
REMARK  status: ('A' for Active; 'I' for Inactive)
REMARK    1  A    between atoms: C_1  and  O_25 
REMARK       I    between atoms: N_4  and  C_14 
REMARK    2  A    between atoms: N_4  and  C_22 
REMARK    3  A    between atoms: C_8  and  C_10 
REMARK    4  A    between atoms: C_8  and  C_12 
REMARK    5  A    between atoms: C_10  and  C_23 
ROOT
HETATM    1  C   UNL     1      15.193  12.017  17.887  1.00  0.00     0.030 C 
HETATM    2  C   UNL     1      14.300  12.513  18.838  1.00  0.00     0.014 C 
HETATM    3  C   UNL     1      14.772   9.765  18.633  1.00  0.00     0.042 C 
HETATM    4  C   UNL     1      12.441  11.080  21.642  1.00  0.00    -0.057 C 
HETATM    5  C   UNL     1      13.563  10.333  22.101  1.00  0.00     0.008 C 
HETATM    6  C   UNL     1      14.202   9.663  21.026  1.00  0.00     0.013 C 
HETATM    7  C   UNL     1      14.187  10.311  19.781  1.00  0.00    -0.024 C 
HETATM    8  C   UNL     1      13.631  11.616  19.678  1.00  0.00    -0.025 C 
HETATM    9  C   UNL     1      12.667  12.026  20.629  1.00  0.00     0.019 C 
HETATM   10  C   UNL     1      15.427  10.640  17.772  1.00  0.00     0.038 C 
ENDROOT
BRANCH   4  11
HETATM   11  C   UNL     1      11.129  10.742  22.272  1.00  0.00     0.043 C 
BRANCH  11  12
HETATM   12  C   UNL     1      11.223   9.330  22.845  1.00  0.00     0.043 C 
BRANCH  12  13
HETATM   13  C   UNL     1      10.653   8.474  21.739  1.00  0.00    -0.058 C 
HETATM   14  C   UNL     1       9.439   8.789  21.160  1.00  0.00     0.010 C 
HETATM   15  C   UNL     1       8.510   7.773  20.928  1.00  0.00     0.037 C 
HETATM   16  C   UNL     1       8.561   6.590  21.639  1.00  0.00     0.065 C 
HETATM   17  C   UNL     1       9.648   5.727  21.689  1.00  0.00     0.036 C 
HETATM   18  C   UNL     1      10.964   6.061  21.450  1.00  0.00     0.003 C 
HETATM   19  C   UNL     1      11.393   7.373  21.366  1.00  0.00     0.007 C 
BRANCH  16  20
HETATM   20  O   UNL     1       7.504   6.308  22.463  1.00  0.00    -0.361 OA
ATOM     21  HO  UNL     1       7.639   5.648  23.132  1.00  0.00     0.217 HD
ENDBRANCH  16  20
ENDBRANCH  12  13
ENDBRANCH  11  12
ENDBRANCH   4  11
BRANCH  10  22
HETATM   22  N   UNL     1      16.256  10.113  16.799  1.00  0.00    -0.301 N 
HETATM   23  C   UNL     1      16.444  10.532  15.508  1.00  0.00     0.288 C 
HETATM   24  O   UNL     1      15.644  10.173  14.618  1.00  0.00    -0.629 OA
HETATM   25  O   UNL     1      17.527  11.160  15.324  1.00  0.00    -0.629 OA
ATOM     26  HN  UNL     1      16.803   9.300  17.081  1.00  0.00     0.172 HD
ENDBRANCH  10  22
TORSDOF 5
ENDMDL
MODEL 7
REMARK VINA RESULT:      -7.8      2.351      3.886
REMARK  5 active torsions:
REMARK  status: ('A' for Active; 'I' for Inactive)
REMARK    1  A    between atoms: C_1  and  O_25 
REMARK       I    between atoms: N_4  and  C_14 
REMARK    2  A    between atoms: N_4  and  C_22 
REMARK    3  A    between atoms: C_8  and  C_10 
REMARK    4  A    between atoms: C_8  and  C_12 
REMARK    5  A    between atoms: C_10  and  C_23 
ROOT
HETATM    1  C   UNL     1      14.525  10.056  16.524  1.00  0.00     0.030 C 
HETATM    2  C   UNL     1      13.597  10.044  17.566  1.00  0.00     0.014 C 
HETATM    3  C   UNL     1      15.916  11.594  17.751  1.00  0.00     0.042 C 
HETATM    4  C   UNL     1      13.166  11.921  20.674  1.00  0.00    -0.057 C 
HETATM    5  C   UNL     1      13.455  13.168  20.049  1.00  0.00     0.008 C 
HETATM    6  C   UNL     1      14.606  13.067  19.226  1.00  0.00     0.013 C 
HETATM    7  C   UNL     1      14.819  11.836  18.586  1.00  0.00    -0.024 C 
HETATM    8  C   UNL     1      13.849  10.804  18.713  1.00  0.00    -0.025 C 
HETATM    9  C   UNL     1      12.993  10.805  19.839  1.00  0.00     0.019 C 
HETATM   10  C   UNL     1      15.694  10.823  16.613  1.00  0.00     0.038 C 
ENDROOT
BRANCH   4  11
HETATM   11  C   UNL     1      13.115  11.936  22.168  1.00  0.00     0.043 C 
BRANCH  11  12
HETATM   12  C   UNL     1      11.903  11.122  22.614  1.00  0.00     0.043 C 
BRANCH  12  13
HETATM   13  C   UNL     1      12.492  10.151  23.609  1.00  0.00    -0.058 C 
HETATM   14  C   UNL     1      12.309   8.790  23.457  1.00  0.00     0.010 C 
HETATM   15  C   UNL     1      11.967   8.019  24.570  1.00  0.00     0.037 C 
HETATM   16  C   UNL     1      11.379   8.596  25.679  1.00  0.00     0.065 C 
HETATM   17  C   UNL     1      11.921   9.630  26.431  1.00  0.00     0.036 C 
HETATM   18  C   UNL     1      12.855  10.549  26.000  1.00  0.00     0.003 C 
HETATM   19  C   UNL     1      13.189  10.696  24.665  1.00  0.00     0.007 C 
BRANCH  16  20
HETATM   20  O   UNL     1      10.103   8.206  25.985  1.00  0.00    -0.361 OA
ATOM     21  HO  UNL     1      10.004   7.487  26.597  1.00  0.00     0.217 HD
ENDBRANCH  16  20
ENDBRANCH  12  13
ENDBRANCH  11  12
ENDBRANCH   4  11
BRANCH  10  22
HETATM   22  N   UNL     1      16.663  10.806  15.627  1.00  0.00    -0.301 N 
HETATM   23  C   UNL     1      16.585  10.313  14.352  1.00  0.00     0.288 C 
HETATM   24  O   UNL     1      16.763   9.093  14.148  1.00  0.00    -0.629 OA
HETATM   25  O   UNL     1      16.465  11.205  13.462  1.00  0.00    -0.629 OA
ATOM     26  HN  UNL     1      17.560  11.219  15.886  1.00  0.00     0.172 HD
ENDBRANCH  10  22
TORSDOF 5
ENDMDL
MODEL 8
REMARK VINA RESULT:      -7.8      1.692      3.103
REMARK  5 active torsions:
REMARK  status: ('A' for Active; 'I' for Inactive)
REMARK    1  A    between atoms: C_1  and  O_25 
REMARK       I    between atoms: N_4  and  C_14 
REMARK    2  A    between atoms: N_4  and  C_22 
REMARK    3  A    between atoms: C_8  and  C_10 
REMARK    4  A    between atoms: C_8  and  C_12 
REMARK    5  A    between atoms: C_10  and  C_23 
ROOT
HETATM    1  C   UNL     1      14.621  10.324  16.135  1.00  0.00     0.030 C 
HETATM    2  C   UNL     1      13.598  10.158  17.069  1.00  0.00     0.014 C 
HETATM    3  C   UNL     1      15.980  11.432  17.787  1.00  0.00     0.042 C 
HETATM    4  C   UNL     1      12.986  11.330  20.478  1.00  0.00    -0.057 C 
HETATM    5  C   UNL     1      13.412  12.657  20.178  1.00  0.00     0.008 C 
HETATM    6  C   UNL     1      14.629  12.646  19.449  1.00  0.00     0.013 C 
HETATM    7  C   UNL     1      14.825  11.574  18.565  1.00  0.00    -0.024 C 
HETATM    8  C   UNL     1      13.784  10.623  18.375  1.00  0.00    -0.025 C 
HETATM    9  C   UNL     1      12.826  10.446  19.399  1.00  0.00     0.019 C 
HETATM   10  C   UNL     1      15.822  10.953  16.490  1.00  0.00     0.038 C 
ENDROOT
BRANCH   4  11
HETATM   11  C   UNL     1      12.792  11.019  21.927  1.00  0.00     0.043 C 
BRANCH  11  12
HETATM   12  C   UNL     1      13.452   9.674  22.219  1.00  0.00     0.043 C 
BRANCH  12  13
HETATM   13  C   UNL     1      12.274   8.739  22.357  1.00  0.00    -0.058 C 
HETATM   14  C   UNL     1      12.003   7.799  21.381  1.00  0.00     0.010 C 
HETATM   15  C   UNL     1      10.687   7.623  20.951  1.00  0.00     0.037 C 
HETATM   16  C   UNL     1       9.747   8.621  21.118  1.00  0.00     0.065 C 
HETATM   17  C   UNL     1       9.383   9.189  22.332  1.00  0.00     0.036 C 
HETATM   18  C   UNL     1      10.149   9.220  23.478  1.00  0.00     0.003 C 
HETATM   19  C   UNL     1      11.493   8.891  23.481  1.00  0.00     0.007 C 
BRANCH  16  20
HETATM   20  O   UNL     1       9.224   9.184  19.985  1.00  0.00    -0.361 OA
ATOM     21  HO  UNL     1       8.850   8.596  19.340  1.00  0.00     0.217 HD
ENDBRANCH  16  20
ENDBRANCH  12  13
ENDBRANCH  11  12
ENDBRANCH   4  11
BRANCH  10  22
HETATM   22  N   UNL     1      16.879  11.075  15.607  1.00  0.00    -0.301 N 
HETATM   23  C   UNL     1      17.080  10.438  14.411  1.00  0.00     0.288 C 
HETATM   24  O   UNL     1      17.574   9.290  14.398  1.00  0.00    -0.629 OA
HETATM   25  O   UNL     1      16.856  11.162  13.398  1.00  0.00    -0.629 OA
ATOM     26  HN  UNL     1      17.609  11.731  15.884  1.00  0.00     0.172 HD
ENDBRANCH  10  22
TORSDOF 5
ENDMDL
MODEL 9
REMARK VINA RESULT:      -7.6      1.661      2.548
REMARK  5 active torsions:
REMARK  status: ('A' for Active; 'I' for Inactive)
REMARK    1  A    between atoms: C_1  and  O_25 
REMARK       I    between atoms: N_4  and  C_14 
REMARK    2  A    between atoms: N_4  and  C_22 
REMARK    3  A    between atoms: C_8  and  C_10 
REMARK    4  A    between atoms: C_8  and  C_12 
REMARK    5  A    between atoms: C_10  and  C_23 
ROOT
HETATM    1  C   UNL     1      13.168  11.131  19.230  1.00  0.00     0.030 C 
HETATM    2  C   UNL     1      12.032  11.303  20.022  1.00  0.00     0.014 C 
HETATM    3  C   UNL     1      14.103   9.624  20.861  1.00  0.00     0.042 C 
HETATM    4  C   UNL     1      11.049  10.298  23.397  1.00  0.00    -0.057 C 
HETATM    5  C   UNL     1      12.313  10.652  23.952  1.00  0.00     0.008 C 
HETATM    6  C   UNL     1      13.374  10.156  23.152  1.00  0.00     0.013 C 
HETATM    7  C   UNL     1      13.148  10.097  21.768  1.00  0.00    -0.024 C 
HETATM    8  C   UNL     1      11.935  10.613  21.235  1.00  0.00    -0.025 C 
HETATM    9  C   UNL     1      10.796  10.683  22.071  1.00  0.00     0.019 C 
HETATM   10  C   UNL     1      14.206  10.283  19.639  1.00  0.00     0.038 C 
ENDROOT
BRANCH   4  11
HETATM   11  C   UNL     1      10.141   9.516  24.290  1.00  0.00     0.043 C 
BRANCH  11  12
HETATM   12  C   UNL     1      10.962   8.425  24.971  1.00  0.00     0.043 C 
BRANCH  12  13
HETATM   13  C   UNL     1      10.694   7.210  24.114  1.00  0.00    -0.058 C 
HETATM   14  C   UNL     1      11.724   6.368  23.744  1.00  0.00     0.010 C 
HETATM   15  C   UNL     1      11.798   5.920  22.424  1.00  0.00     0.037 C 
HETATM   16  C   UNL     1      11.178   6.614  21.404  1.00  0.00     0.065 C 
HETATM   17  C   UNL     1       9.822   6.908  21.338  1.00  0.00     0.036 C 
HETATM   18  C   UNL     1       8.952   6.984  22.405  1.00  0.00     0.003 C 
HETATM   19  C   UNL     1       9.390   7.011  23.717  1.00  0.00     0.007 C 
BRANCH  16  20
HETATM   20  O   UNL     1      11.982   7.168  20.444  1.00  0.00    -0.361 OA
ATOM     21  HO  UNL     1      11.966   8.114  20.357  1.00  0.00     0.217 HD
ENDBRANCH  16  20
ENDBRANCH  12  13
ENDBRANCH  11  12
ENDBRANCH   4  11
BRANCH  10  22
HETATM   22  N   UNL     1      15.314  10.041  18.849  1.00  0.00    -0.301 N 
HETATM   23  C   UNL     1      15.610  10.534  17.606  1.00  0.00     0.288 C 
HETATM   24  O   UNL     1      15.123   9.989  16.592  1.00  0.00    -0.629 OA
HETATM   25  O   UNL     1      16.485  11.447  17.610  1.00  0.00    -0.629 OA
ATOM     26  HN  UNL     1      16.007   9.407  19.247  1.00  0.00     0.172 HD
ENDBRANCH  10  22
TORSDOF 5
ENDMDL
