REMARK  1 active torsions:
REMARK  status: ('A' for Active; 'I' for Inactive)
REMARK    1  A    between atoms: C_7  and  C_9 
ROOT
HETATM    1  C   UNL     1       1.762  -3.188  18.730  1.00  0.00     0.001 C 
HETATM    2  C   UNL     1       2.561  -2.419  17.825  1.00  0.00     0.202 C 
HETATM    3  C   UNL     1       3.271  -1.104  19.686  1.00  0.00     0.059 C 
HETATM    4  C   UNL     1       4.275  -0.144  20.209  1.00  0.00     0.077 C 
HETATM    5  C   UNL     1       2.041  -1.395  20.295  1.00  0.00     0.069 C 
HETATM    6  O   UNL     1       3.565  -1.686  18.470  1.00  0.00    -0.351 OA
HETATM    7  C   UNL     1       1.460  -2.632  19.987  1.00  0.00     0.019 C 
ENDROOT
BRANCH   5   8
HETATM    8  C   UNL     1       1.377  -0.467  21.279  1.00  0.00     0.211 C 
HETATM    9  O   UNL     1       0.168  -0.206  21.096  1.00  0.00    -0.644 OA
HETATM   10  O   UNL     1       2.038   0.046  22.211  1.00  0.00    -0.644 OA
ENDBRANCH   5   8
TORSDOF 1
