REMARK  1 active torsions:
REMARK  status: ('A' for Active; 'I' for Inactive)
REMARK    1  A    between atoms: C_3  and  O_14 
ROOT
HETATM    1  N   UNL     1      15.231  10.658  13.113  1.00  0.00    -0.391 N 
ATOM      2  HN  UNL     1      15.166  11.567  13.570  1.00  0.00     0.159 HD
HETATM    3  C   UNL     1      17.630  10.333  13.407  1.00  0.00     0.141 C 
HETATM    4  C   UNL     1      16.337   8.498  12.651  1.00  0.00     0.037 C 
HETATM    5  C   UNL     1      13.829  10.082   9.664  1.00  0.00     0.025 A 
HETATM    6  C   UNL     1      15.720   9.893   5.560  1.00  0.00     0.001 C 
HETATM    7  C   UNL     1      15.474   9.409   8.015  1.00  0.00    -0.025 A 
HETATM    8  C   UNL     1      14.323  10.370  12.015  1.00  0.00     0.095 C 
HETATM    9  C   UNL     1      14.193   9.902   8.335  1.00  0.00    -0.025 A 
HETATM   10  C   UNL     1      17.880  10.295  11.909  1.00  0.00     0.043 C 
HETATM   11  C   UNL     1      17.077   9.084  11.432  1.00  0.00     0.024 C 
HETATM   12  C   UNL     1      13.504  10.790   6.094  1.00  0.00     0.001 C 
HETATM   13  C   UNL     1      16.073   9.450  10.356  1.00  0.00    -0.041 A 
HETATM   14  C   UNL     1      15.890   9.160   6.712  1.00  0.00     0.012 C 
HETATM   15  C   UNL     1      16.247   9.696  13.601  1.00  0.00     0.110 C 
HETATM   16  C   UNL     1      14.670  10.794   5.358  1.00  0.00     0.000 C 
HETATM   17  C   UNL     1      16.405   9.189   9.035  1.00  0.00     0.020 A 
HETATM   18  C   UNL     1      13.283  10.330   7.362  1.00  0.00     0.012 C 
HETATM   19  C   UNL     1      14.791   9.931  10.649  1.00  0.00    -0.014 A 
ENDROOT
BRANCH   3  20
HETATM   20  O   UNL     1      17.879  11.487  14.154  1.00  0.00    -0.393 OA
ATOM     21  HO  UNL     1      17.723  11.511  15.091  1.00  0.00     0.210 HD
ENDBRANCH   3  20
TORSDOF 1
