REMARK  4 active torsions:
REMARK  status: ('A' for Active; 'I' for Inactive)
REMARK    1  A    between atoms: C_4  and  C_29 
REMARK    2  A    between atoms: C_14  and  C_20 
REMARK    3  A    between atoms: C_20  and  C_32 
REMARK    4  A    between atoms: C_21  and  O_23 
ROOT
HETATM    1  C   UNL     1     -27.151  21.471 -19.099  1.00  0.00     0.079 C 
HETATM    2  C   UNL     1     -28.926  19.683 -19.102  1.00  0.00     0.020 C 
HETATM    3  C   UNL     1     -27.065  22.667 -18.183  1.00  0.00    -0.034 C 
HETATM    4  C   UNL     1     -27.450  24.828 -16.511  1.00  0.00     0.038 C 
HETATM    5  C   UNL     1     -29.192  20.578 -16.160  1.00  0.00     0.013 C 
HETATM    6  C   UNL     1     -26.493  24.895 -17.517  1.00  0.00     0.010 C 
HETATM    7  C   UNL     1     -29.857  18.400 -17.260  1.00  0.00     0.012 C 
HETATM    8  C   UNL     1     -27.976  22.558 -17.133  1.00  0.00     0.015 C 
HETATM    9  C   UNL     1     -28.268  23.702 -16.395  1.00  0.00     0.077 C 
HETATM   10  C   UNL     1     -28.254  20.681 -18.429  1.00  0.00    -0.042 C 
HETATM   11  C   UNL     1     -29.633  19.279 -16.227  1.00  0.00     0.002 C 
HETATM   12  C   UNL     1     -28.582  21.280 -17.199  1.00  0.00    -0.016 C 
HETATM   13  C   UNL     1     -29.676  18.613 -18.622  1.00  0.00    -0.025 C 
HETATM   14  C   UNL     1     -26.292  23.808 -18.363  1.00  0.00    -0.050 C 
ENDROOT
BRANCH  14  15
HETATM   15  C   UNL     1     -25.170  23.791 -19.373  1.00  0.00     0.044 C 
BRANCH  15  16
HETATM   16  C   UNL     1     -24.395  22.479 -19.208  1.00  0.00    -0.005 C 
HETATM   17  C   UNL     1     -23.162  22.399 -20.077  1.00  0.00    -0.002 C 
HETATM   18  C   UNL     1     -22.049  21.617 -19.420  1.00  0.00    -0.036 C 
HETATM   19  C   UNL     1     -22.959  22.971 -21.434  1.00  0.00     0.006 C 
HETATM   20  C   UNL     1     -21.888  20.288 -20.139  1.00  0.00     0.010 C 
HETATM   21  C   UNL     1     -20.733  22.375 -19.653  1.00  0.00     0.014 C 
HETATM   22  C   UNL     1     -22.473  21.611 -17.950  1.00  0.00     0.010 C 
HETATM   23  C   UNL     1     -21.054  20.646 -21.361  1.00  0.00     0.005 C 
HETATM   24  C   UNL     1     -20.549  22.092 -21.158  1.00  0.00    -0.014 C 
HETATM   25  C   UNL     1     -21.511  23.030 -21.894  1.00  0.00     0.005 C 
HETATM   26  C   UNL     1     -23.869  22.222 -17.797  1.00  0.00     0.006 C 
ENDBRANCH  15  16
ENDBRANCH  14  15
BRANCH   9  27
HETATM   27  O   UNL     1     -29.454  23.786 -15.737  1.00  0.00    -0.360 OA
ATOM     28  HO  UNL     1     -30.010  23.020 -15.658  1.00  0.00     0.217 HD
ENDBRANCH   9  27
BRANCH  13  29
HETATM   29  C   UNL     1     -30.327  17.698 -19.576  1.00  0.00    -0.026 C 
HETATM   30  C   UNL     1     -29.524  16.889 -20.362  1.00  0.00     0.012 C 
HETATM   31  C   UNL     1     -30.065  15.908 -21.183  1.00  0.00     0.001 C 
HETATM   32  C   UNL     1     -31.410  15.615 -21.104  1.00  0.00     0.000 C 
HETATM   33  C   UNL     1     -32.228  16.386 -20.283  1.00  0.00     0.001 C 
HETATM   34  C   UNL     1     -31.707  17.481 -19.581  1.00  0.00     0.012 C 
ENDBRANCH  13  29
TORSDOF 4
