MODEL 1
REMARK VINA RESULT:     -10.4      0.000      0.000
REMARK  7 active torsions:
REMARK  status: ('A' for Active; 'I' for Inactive)
REMARK    1  A    between atoms: C_3  and  C_19 
REMARK    2  A    between atoms: C_4  and  C_6 
REMARK    3  A    between atoms: C_5  and  C_12 
REMARK    4  A    between atoms: C_11  and  C_22 
REMARK    5  A    between atoms: C_11  and  C_30 
REMARK    6  A    between atoms: C_19  and  C_32 
REMARK    7  A    between atoms: C_27  and  C_30 
ROOT
HETATM    1  C   UNL     1     -49.771   4.897   7.101  1.00  0.00    -0.036 C 
HETATM    2  C   UNL     1     -45.737   2.471   6.385  1.00  0.00     0.004 C 
HETATM    3  C   UNL     1     -46.515   2.983   5.183  1.00  0.00     0.045 C 
HETATM    4  C   UNL     1     -49.413   5.389   5.836  1.00  0.00     0.012 C 
HETATM    5  C   UNL     1     -46.474   2.895   7.671  1.00  0.00     0.024 C 
HETATM    6  C   UNL     1     -47.704   3.634   7.174  1.00  0.00    -0.046 C 
HETATM    7  C   UNL     1     -47.577   3.845   5.799  1.00  0.00    -0.051 C 
HETATM    8  C   UNL     1     -48.346   4.803   5.141  1.00  0.00     0.008 C 
HETATM    9  C   UNL     1     -48.852   4.110   7.839  1.00  0.00     0.019 C 
ENDROOT
BRANCH   5  10
HETATM   10  C   UNL     1     -46.525   1.612   8.483  1.00  0.00     0.014 C 
BRANCH  10  11
HETATM   11  C   UNL     1     -45.838   1.559   9.847  1.00  0.00    -0.013 C 
HETATM   12  C   UNL     1     -45.500   3.014  10.149  1.00  0.00     0.010 C 
BRANCH  11  13
HETATM   13  C   UNL     1     -46.876   1.017  10.843  1.00  0.00    -0.001 C 
HETATM   14  C   UNL     1     -46.799  -0.493  10.979  1.00  0.00     0.108 C 
HETATM   15  C   UNL     1     -48.013  -1.216  11.502  1.00  0.00     0.217 C 
HETATM   16  O   UNL     1     -47.915  -2.382  11.867  1.00  0.00    -0.274 OA
HETATM   17  N   UNL     1     -49.227  -0.573  11.300  1.00  0.00    -0.361 N 
HETATM   18  C   UNL     1     -49.234   0.865  11.620  1.00  0.00     0.123 C 
ATOM     19  HN  UNL     1     -50.053  -1.061  10.956  1.00  0.00     0.162 HD
HETATM   20  C   UNL     1     -48.277   1.557  10.647  1.00  0.00     0.025 C 
ENDBRANCH  11  13
ENDBRANCH  10  11
ENDBRANCH   5  10
BRANCH   2  21
HETATM   21  C   UNL     1     -44.254   2.865   6.327  1.00  0.00     0.018 C 
HETATM   22  C   UNL     1     -43.844   3.629   5.066  1.00  0.00     0.034 C 
HETATM   23  C   UNL     1     -42.678   2.854   4.451  1.00  0.00     0.232 C 
HETATM   24  N   UNL     1     -42.786   1.474   4.966  1.00  0.00    -0.075 N 
HETATM   25  C   UNL     1     -43.467   1.545   6.266  1.00  0.00     0.237 C 
ATOM     26  HN2 UNL     1     -41.887   0.993   5.012  1.00  0.00     0.277 HD
ATOM     27  HN1 UNL     1     -43.242   0.838   4.311  1.00  0.00     0.277 HD
ENDBRANCH   2  21
BRANCH   1  28
HETATM   28  C   UNL     1     -51.174   5.085   7.622  1.00  0.00     0.007 C 
HETATM   29  C   UNL     1     -51.438   5.079   8.917  1.00  0.00    -0.021 C 
BRANCH  29  30
HETATM   30  C   UNL     1     -52.628   5.091   9.799  1.00  0.00     0.065 C 
BRANCH  30  31
HETATM   31  C   UNL     1     -52.610   4.248  11.055  1.00  0.00    -0.055 C 
HETATM   32  C   UNL     1     -53.784   3.627  11.497  1.00  0.00     0.007 C 
HETATM   33  C   UNL     1     -53.802   2.952  12.712  1.00  0.00     0.001 C 
HETATM   34  C   UNL     1     -52.607   2.752  13.407  1.00  0.00     0.000 C 
HETATM   35  C   UNL     1     -51.421   3.295  12.923  1.00  0.00     0.001 C 
HETATM   36  C   UNL     1     -51.436   4.116  11.797  1.00  0.00     0.007 C 
ENDBRANCH  30  31
ENDBRANCH  29  30
ENDBRANCH   1  28
TORSDOF 7
ENDMDL
MODEL 2
REMARK VINA RESULT:     -10.3      3.085      6.205
REMARK  7 active torsions:
REMARK  status: ('A' for Active; 'I' for Inactive)
REMARK    1  A    between atoms: C_3  and  C_19 
REMARK    2  A    between atoms: C_4  and  C_6 
REMARK    3  A    between atoms: C_5  and  C_12 
REMARK    4  A    between atoms: C_11  and  C_22 
REMARK    5  A    between atoms: C_11  and  C_30 
REMARK    6  A    between atoms: C_19  and  C_32 
REMARK    7  A    between atoms: C_27  and  C_30 
ROOT
HETATM    1  C   UNL     1     -47.455   2.263   9.611  1.00  0.00    -0.036 C 
HETATM    2  C   UNL     1     -48.425   4.895   5.763  1.00  0.00     0.004 C 
HETATM    3  C   UNL     1     -47.267   5.299   6.662  1.00  0.00     0.045 C 
HETATM    4  C   UNL     1     -46.196   2.845   9.390  1.00  0.00     0.012 C 
HETATM    5  C   UNL     1     -49.071   3.615   6.330  1.00  0.00     0.024 C 
HETATM    6  C   UNL     1     -48.274   3.316   7.588  1.00  0.00    -0.046 C 
HETATM    7  C   UNL     1     -47.153   4.148   7.618  1.00  0.00    -0.051 C 
HETATM    8  C   UNL     1     -46.058   3.857   8.431  1.00  0.00     0.008 C 
HETATM    9  C   UNL     1     -48.473   2.394   8.634  1.00  0.00     0.019 C 
ENDROOT
BRANCH   5  10
HETATM   10  C   UNL     1     -50.554   3.940   6.322  1.00  0.00     0.014 C 
BRANCH  10  11
HETATM   11  C   UNL     1     -51.042   5.241   6.958  1.00  0.00    -0.013 C 
HETATM   12  C   UNL     1     -52.121   5.738   6.004  1.00  0.00     0.010 C 
BRANCH  11  13
HETATM   13  C   UNL     1     -51.644   4.868   8.322  1.00  0.00    -0.001 C 
HETATM   14  C   UNL     1     -53.066   5.379   8.474  1.00  0.00     0.108 C 
HETATM   15  C   UNL     1     -53.612   5.538   9.869  1.00  0.00     0.217 C 
HETATM   16  O   UNL     1     -54.816   5.696  10.036  1.00  0.00    -0.274 OA
HETATM   17  N   UNL     1     -52.666   5.740  10.864  1.00  0.00    -0.361 N 
HETATM   18  C   UNL     1     -51.495   4.848  10.805  1.00  0.00     0.123 C 
ATOM     19  HN  UNL     1     -52.773   6.454  11.583  1.00  0.00     0.162 HD
HETATM   20  C   UNL     1     -50.746   5.156   9.507  1.00  0.00     0.025 C 
ENDBRANCH  11  13
ENDBRANCH  10  11
ENDBRANCH   5  10
BRANCH   2  21
HETATM   21  C   UNL     1     -48.012   4.814   4.287  1.00  0.00     0.018 C 
HETATM   22  C   UNL     1     -47.909   3.393   3.727  1.00  0.00     0.034 C 
HETATM   23  C   UNL     1     -46.505   3.260   3.139  1.00  0.00     0.232 C 
HETATM   24  N   UNL     1     -45.680   4.285   3.811  1.00  0.00    -0.075 N 
HETATM   25  C   UNL     1     -46.580   5.373   4.216  1.00  0.00     0.237 C 
ATOM     26  HN2 UNL     1     -44.898   4.606   3.240  1.00  0.00     0.277 HD
ATOM     27  HN1 UNL     1     -45.132   3.912   4.587  1.00  0.00     0.277 HD
ENDBRANCH   2  21
BRANCH   1  28
HETATM   28  C   UNL     1     -47.773   1.617  10.935  1.00  0.00     0.007 C 
HETATM   29  C   UNL     1     -48.548   0.549  11.016  1.00  0.00    -0.021 C 
BRANCH  29  30
HETATM   30  C   UNL     1     -49.190  -0.269  12.071  1.00  0.00     0.065 C 
BRANCH  30  31
HETATM   31  C   UNL     1     -48.441  -1.461  12.624  1.00  0.00    -0.055 C 
HETATM   32  C   UNL     1     -47.041  -1.477  12.605  1.00  0.00     0.007 C 
HETATM   33  C   UNL     1     -46.351  -2.616  13.000  1.00  0.00     0.001 C 
HETATM   34  C   UNL     1     -47.050  -3.680  13.575  1.00  0.00     0.000 C 
HETATM   35  C   UNL     1     -48.437  -3.630  13.676  1.00  0.00     0.001 C 
HETATM   36  C   UNL     1     -49.139  -2.562  13.121  1.00  0.00     0.007 C 
ENDBRANCH  30  31
ENDBRANCH  29  30
ENDBRANCH   1  28
TORSDOF 7
ENDMDL
MODEL 3
REMARK VINA RESULT:     -10.2      1.081      1.502
REMARK  7 active torsions:
REMARK  status: ('A' for Active; 'I' for Inactive)
REMARK    1  A    between atoms: C_3  and  C_19 
REMARK    2  A    between atoms: C_4  and  C_6 
REMARK    3  A    between atoms: C_5  and  C_12 
REMARK    4  A    between atoms: C_11  and  C_22 
REMARK    5  A    between atoms: C_11  and  C_30 
REMARK    6  A    between atoms: C_19  and  C_32 
REMARK    7  A    between atoms: C_27  and  C_30 
ROOT
HETATM    1  C   UNL     1     -48.704   5.391   6.412  1.00  0.00    -0.036 C 
HETATM    2  C   UNL     1     -45.158   2.225   6.136  1.00  0.00     0.004 C 
HETATM    3  C   UNL     1     -45.854   2.670   4.859  1.00  0.00     0.045 C 
HETATM    4  C   UNL     1     -48.284   5.610   5.090  1.00  0.00     0.012 C 
HETATM    5  C   UNL     1     -45.794   2.965   7.330  1.00  0.00     0.024 C 
HETATM    6  C   UNL     1     -46.885   3.818   6.708  1.00  0.00    -0.046 C 
HETATM    7  C   UNL     1     -46.743   3.787   5.319  1.00  0.00    -0.051 C 
HETATM    8  C   UNL     1     -47.345   4.749   4.509  1.00  0.00     0.008 C 
HETATM    9  C   UNL     1     -47.924   4.582   7.275  1.00  0.00     0.019 C 
ENDROOT
BRANCH   5  10
HETATM   10  C   UNL     1     -46.053   1.853   8.332  1.00  0.00     0.014 C 
BRANCH  10  11
HETATM   11  C   UNL     1     -45.448   1.947   9.732  1.00  0.00    -0.013 C 
HETATM   12  C   UNL     1     -45.073   3.417   9.876  1.00  0.00     0.010 C 
BRANCH  11  13
HETATM   13  C   UNL     1     -46.561   1.565  10.721  1.00  0.00    -0.001 C 
HETATM   14  C   UNL     1     -46.405   0.143  11.230  1.00  0.00     0.108 C 
HETATM   15  C   UNL     1     -47.624  -0.544  11.789  1.00  0.00     0.217 C 
HETATM   16  O   UNL     1     -47.496  -1.575  12.438  1.00  0.00    -0.274 OA
HETATM   17  N   UNL     1     -48.843  -0.080  11.314  1.00  0.00    -0.361 N 
HETATM   18  C   UNL     1     -48.981   1.386  11.268  1.00  0.00     0.123 C 
ATOM     19  HN  UNL     1     -49.589  -0.709  11.019  1.00  0.00     0.162 HD
HETATM   20  C   UNL     1     -47.960   1.913  10.257  1.00  0.00     0.025 C 
ENDBRANCH  11  13
ENDBRANCH  10  11
ENDBRANCH   5  10
BRANCH   2  21
HETATM   21  C   UNL     1     -43.631   2.344   6.036  1.00  0.00     0.018 C 
HETATM   22  C   UNL     1     -43.134   3.452   5.104  1.00  0.00     0.034 C 
HETATM   23  C   UNL     1     -42.193   2.783   4.102  1.00  0.00     0.232 C 
HETATM   24  N   UNL     1     -42.564   1.353   4.081  1.00  0.00    -0.075 N 
HETATM   25  C   UNL     1     -43.146   1.034   5.392  1.00  0.00     0.237 C 
ATOM     26  HN2 UNL     1     -41.786   0.742   3.831  1.00  0.00     0.277 HD
ATOM     27  HN1 UNL     1     -43.178   1.111   3.303  1.00  0.00     0.277 HD
ENDBRANCH   2  21
BRANCH   1  28
HETATM   28  C   UNL     1     -50.045   5.898   6.878  1.00  0.00     0.007 C 
HETATM   29  C   UNL     1     -51.076   5.084   7.036  1.00  0.00    -0.021 C 
BRANCH  29  30
HETATM   30  C   UNL     1     -52.525   5.185   7.327  1.00  0.00     0.065 C 
BRANCH  30  31
HETATM   31  C   UNL     1     -53.038   4.675   8.655  1.00  0.00    -0.055 C 
HETATM   32  C   UNL     1     -54.292   4.057   8.730  1.00  0.00     0.007 C 
HETATM   33  C   UNL     1     -54.819   3.695   9.963  1.00  0.00     0.001 C 
HETATM   34  C   UNL     1     -54.025   3.795  11.108  1.00  0.00     0.000 C 
HETATM   35  C   UNL     1     -52.743   4.328  11.022  1.00  0.00     0.001 C 
HETATM   36  C   UNL     1     -52.283   4.850   9.815  1.00  0.00     0.007 C 
ENDBRANCH  30  31
ENDBRANCH  29  30
ENDBRANCH   1  28
TORSDOF 7
ENDMDL
MODEL 4
REMARK VINA RESULT:     -10.2      2.722      6.204
REMARK  7 active torsions:
REMARK  status: ('A' for Active; 'I' for Inactive)
REMARK    1  A    between atoms: C_3  and  C_19 
REMARK    2  A    between atoms: C_4  and  C_6 
REMARK    3  A    between atoms: C_5  and  C_12 
REMARK    4  A    between atoms: C_11  and  C_22 
REMARK    5  A    between atoms: C_11  and  C_30 
REMARK    6  A    between atoms: C_19  and  C_32 
REMARK    7  A    between atoms: C_27  and  C_30 
ROOT
HETATM    1  C   UNL     1     -47.464   1.832   9.409  1.00  0.00    -0.036 C 
HETATM    2  C   UNL     1     -48.103   5.257   6.163  1.00  0.00     0.004 C 
HETATM    3  C   UNL     1     -46.688   4.817   6.505  1.00  0.00     0.045 C 
HETATM    4  C   UNL     1     -46.273   1.700   8.677  1.00  0.00     0.012 C 
HETATM    5  C   UNL     1     -49.097   4.423   6.997  1.00  0.00     0.024 C 
HETATM    6  C   UNL     1     -48.216   3.520   7.841  1.00  0.00    -0.046 C 
HETATM    7  C   UNL     1     -46.900   3.620   7.384  1.00  0.00    -0.051 C 
HETATM    8  C   UNL     1     -45.949   2.651   7.701  1.00  0.00     0.008 C 
HETATM    9  C   UNL     1     -48.505   2.659   8.918  1.00  0.00     0.019 C 
ENDROOT
BRANCH   5  10
HETATM   10  C   UNL     1     -50.036   5.471   7.570  1.00  0.00     0.014 C 
BRANCH  10  11
HETATM   11  C   UNL     1     -51.491   5.510   7.106  1.00  0.00    -0.013 C 
HETATM   12  C   UNL     1     -51.643   4.254   6.257  1.00  0.00     0.010 C 
BRANCH  11  13
HETATM   13  C   UNL     1     -52.361   5.425   8.372  1.00  0.00    -0.001 C 
HETATM   14  C   UNL     1     -51.532   5.140   9.611  1.00  0.00     0.108 C 
HETATM   15  C   UNL     1     -52.233   4.550  10.808  1.00  0.00     0.217 C 
HETATM   16  O   UNL     1     -51.673   4.544  11.898  1.00  0.00    -0.274 OA
HETATM   17  N   UNL     1     -53.384   3.826  10.531  1.00  0.00    -0.361 N 
HETATM   18  C   UNL     1     -54.311   4.463   9.579  1.00  0.00     0.123 C 
ATOM     19  HN  UNL     1     -53.574   2.919  10.955  1.00  0.00     0.162 HD
HETATM   20  C   UNL     1     -53.594   4.557   8.231  1.00  0.00     0.025 C 
ENDBRANCH  11  13
ENDBRANCH  10  11
ENDBRANCH   5  10
BRANCH   2  21
HETATM   21  C   UNL     1     -48.362   5.254   4.651  1.00  0.00     0.018 C 
HETATM   22  C   UNL     1     -47.780   4.051   3.903  1.00  0.00     0.034 C 
HETATM   23  C   UNL     1     -46.902   4.619   2.788  1.00  0.00     0.232 C 
HETATM   24  N   UNL     1     -46.539   5.988   3.209  1.00  0.00    -0.075 N 
HETATM   25  C   UNL     1     -47.610   6.473   4.090  1.00  0.00     0.237 C 
ATOM     26  HN2 UNL     1     -46.356   6.612   2.422  1.00  0.00     0.277 HD
ATOM     27  HN1 UNL     1     -45.615   6.042   3.637  1.00  0.00     0.277 HD
ENDBRANCH   2  21
BRANCH   1  28
HETATM   28  C   UNL     1     -47.590   1.210  10.777  1.00  0.00     0.007 C 
HETATM   29  C   UNL     1     -48.550   0.345  11.058  1.00  0.00    -0.021 C 
BRANCH  29  30
HETATM   30  C   UNL     1     -49.087  -0.357  12.246  1.00  0.00     0.065 C 
BRANCH  30  31
HETATM   31  C   UNL     1     -48.368  -1.589  12.751  1.00  0.00    -0.055 C 
HETATM   32  C   UNL     1     -46.971  -1.598  12.831  1.00  0.00     0.007 C 
HETATM   33  C   UNL     1     -46.300  -2.765  13.179  1.00  0.00     0.001 C 
HETATM   34  C   UNL     1     -47.028  -3.876  13.610  1.00  0.00     0.000 C 
HETATM   35  C   UNL     1     -48.419  -3.838  13.614  1.00  0.00     0.001 C 
HETATM   36  C   UNL     1     -49.089  -2.730  13.101  1.00  0.00     0.007 C 
ENDBRANCH  30  31
ENDBRANCH  29  30
ENDBRANCH   1  28
TORSDOF 7
ENDMDL
MODEL 5
REMARK VINA RESULT:     -10.0      4.162      6.909
REMARK  7 active torsions:
REMARK  status: ('A' for Active; 'I' for Inactive)
REMARK    1  A    between atoms: C_3  and  C_19 
REMARK    2  A    between atoms: C_4  and  C_6 
REMARK    3  A    between atoms: C_5  and  C_12 
REMARK    4  A    between atoms: C_11  and  C_22 
REMARK    5  A    between atoms: C_11  and  C_30 
REMARK    6  A    between atoms: C_19  and  C_32 
REMARK    7  A    between atoms: C_27  and  C_30 
ROOT
HETATM    1  C   UNL     1     -48.460   3.310   5.670  1.00  0.00    -0.036 C 
HETATM    2  C   UNL     1     -44.423   3.679   3.173  1.00  0.00     0.004 C 
HETATM    3  C   UNL     1     -44.449   4.169   4.613  1.00  0.00     0.045 C 
HETATM    4  C   UNL     1     -47.526   3.329   6.719  1.00  0.00     0.012 C 
HETATM    5  C   UNL     1     -45.812   3.114   2.816  1.00  0.00     0.024 C 
HETATM    6  C   UNL     1     -46.637   3.320   4.073  1.00  0.00    -0.046 C 
HETATM    7  C   UNL     1     -45.788   3.709   5.111  1.00  0.00    -0.051 C 
HETATM    8  C   UNL     1     -46.181   3.608   6.444  1.00  0.00     0.008 C 
HETATM    9  C   UNL     1     -48.015   3.175   4.331  1.00  0.00     0.019 C 
ENDROOT
BRANCH   5  10
HETATM   10  C   UNL     1     -46.121   3.769   1.480  1.00  0.00     0.014 C 
BRANCH  10  11
HETATM   11  C   UNL     1     -45.252   4.927   0.992  1.00  0.00    -0.013 C 
HETATM   12  C   UNL     1     -44.993   4.603  -0.474  1.00  0.00     0.010 C 
BRANCH  11  13
HETATM   13  C   UNL     1     -46.099   6.203   1.131  1.00  0.00    -0.001 C 
HETATM   14  C   UNL     1     -45.317   7.336   1.772  1.00  0.00     0.108 C 
HETATM   15  C   UNL     1     -46.096   8.452   2.419  1.00  0.00     0.217 C 
HETATM   16  O   UNL     1     -45.528   9.496   2.715  1.00  0.00    -0.274 OA
HETATM   17  N   UNL     1     -47.368   8.117   2.859  1.00  0.00    -0.361 N 
HETATM   18  C   UNL     1     -48.174   7.332   1.909  1.00  0.00     0.123 C 
ATOM     19  HN  UNL     1     -47.720   8.395   3.775  1.00  0.00     0.162 HD
HETATM   20  C   UNL     1     -47.477   5.983   1.719  1.00  0.00     0.025 C 
ENDBRANCH  11  13
ENDBRANCH  10  11
ENDBRANCH   5  10
BRANCH   2  21
HETATM   21  C   UNL     1     -43.247   2.730   2.905  1.00  0.00     0.018 C 
HETATM   22  C   UNL     1     -43.608   1.242   2.924  1.00  0.00     0.034 C 
HETATM   23  C   UNL     1     -42.668   0.583   3.934  1.00  0.00     0.232 C 
HETATM   24  N   UNL     1     -42.216   1.661   4.838  1.00  0.00    -0.075 N 
HETATM   25  C   UNL     1     -42.273   2.918   4.080  1.00  0.00     0.237 C 
ATOM     26  HN2 UNL     1     -41.298   1.482   5.246  1.00  0.00     0.277 HD
ATOM     27  HN1 UNL     1     -42.743   1.698   5.711  1.00  0.00     0.277 HD
ENDBRANCH   2  21
BRANCH   1  28
HETATM   28  C   UNL     1     -49.920   3.567   5.947  1.00  0.00     0.007 C 
HETATM   29  C   UNL     1     -50.379   4.787   6.163  1.00  0.00    -0.021 C 
BRANCH  29  30
HETATM   30  C   UNL     1     -51.645   5.430   6.586  1.00  0.00     0.065 C 
BRANCH  30  31
HETATM   31  C   UNL     1     -52.255   5.033   7.912  1.00  0.00    -0.055 C 
HETATM   32  C   UNL     1     -51.521   5.189   9.093  1.00  0.00     0.007 C 
HETATM   33  C   UNL     1     -52.028   4.716  10.298  1.00  0.00     0.001 C 
HETATM   34  C   UNL     1     -53.340   4.240  10.354  1.00  0.00     0.000 C 
HETATM   35  C   UNL     1     -54.104   4.167   9.193  1.00  0.00     0.001 C 
HETATM   36  C   UNL     1     -53.534   4.478   7.960  1.00  0.00     0.007 C 
ENDBRANCH  30  31
ENDBRANCH  29  30
ENDBRANCH   1  28
TORSDOF 7
ENDMDL
MODEL 6
REMARK VINA RESULT:      -9.9      2.853      5.963
REMARK  7 active torsions:
REMARK  status: ('A' for Active; 'I' for Inactive)
REMARK    1  A    between atoms: C_3  and  C_19 
REMARK    2  A    between atoms: C_4  and  C_6 
REMARK    3  A    between atoms: C_5  and  C_12 
REMARK    4  A    between atoms: C_11  and  C_22 
REMARK    5  A    between atoms: C_11  and  C_30 
REMARK    6  A    between atoms: C_19  and  C_32 
REMARK    7  A    between atoms: C_27  and  C_30 
ROOT
HETATM    1  C   UNL     1     -46.841   1.244   8.352  1.00  0.00    -0.036 C 
HETATM    2  C   UNL     1     -47.599   4.146   4.654  1.00  0.00     0.004 C 
HETATM    3  C   UNL     1     -46.171   3.784   5.029  1.00  0.00     0.045 C 
HETATM    4  C   UNL     1     -45.660   1.026   7.625  1.00  0.00     0.012 C 
HETATM    5  C   UNL     1     -48.563   3.427   5.618  1.00  0.00     0.024 C 
HETATM    6  C   UNL     1     -47.651   2.671   6.569  1.00  0.00    -0.046 C 
HETATM    7  C   UNL     1     -46.345   2.725   6.077  1.00  0.00    -0.051 C 
HETATM    8  C   UNL     1     -45.371   1.829   6.514  1.00  0.00     0.008 C 
HETATM    9  C   UNL     1     -47.906   1.972   7.765  1.00  0.00     0.019 C 
ENDROOT
BRANCH   5  10
HETATM   10  C   UNL     1     -49.512   4.531   6.050  1.00  0.00     0.014 C 
BRANCH  10  11
HETATM   11  C   UNL     1     -49.371   5.141   7.444  1.00  0.00    -0.013 C 
HETATM   12  C   UNL     1     -48.568   6.415   7.211  1.00  0.00     0.010 C 
BRANCH  11  13
HETATM   13  C   UNL     1     -50.792   5.469   7.930  1.00  0.00    -0.001 C 
HETATM   14  C   UNL     1     -51.072   4.885   9.303  1.00  0.00     0.108 C 
HETATM   15  C   UNL     1     -52.510   4.683   9.703  1.00  0.00     0.217 C 
HETATM   16  O   UNL     1     -52.789   4.463  10.876  1.00  0.00    -0.274 OA
HETATM   17  N   UNL     1     -53.406   4.518   8.656  1.00  0.00    -0.361 N 
HETATM   18  C   UNL     1     -53.249   5.469   7.542  1.00  0.00     0.123 C 
ATOM     19  HN  UNL     1     -54.121   3.791   8.658  1.00  0.00     0.162 HD
HETATM   20  C   UNL     1     -51.880   5.213   6.908  1.00  0.00     0.025 C 
ENDBRANCH  11  13
ENDBRANCH  10  11
ENDBRANCH   5  10
BRANCH   2  21
HETATM   21  C   UNL     1     -47.883   3.918   3.163  1.00  0.00     0.018 C 
HETATM   22  C   UNL     1     -46.994   2.865   2.496  1.00  0.00     0.034 C 
HETATM   23  C   UNL     1     -46.346   3.547   1.290  1.00  0.00     0.232 C 
HETATM   24  N   UNL     1     -46.387   4.997   1.568  1.00  0.00    -0.075 N 
HETATM   25  C   UNL     1     -47.531   5.239   2.458  1.00  0.00     0.237 C 
ATOM     26  HN2 UNL     1     -46.412   5.565   0.721  1.00  0.00     0.277 HD
ATOM     27  HN1 UNL     1     -45.508   5.357   1.942  1.00  0.00     0.277 HD
ENDBRANCH   2  21
BRANCH   1  28
HETATM   28  C   UNL     1     -46.933   0.826   9.798  1.00  0.00     0.007 C 
HETATM   29  C   UNL     1     -48.085   0.476  10.345  1.00  0.00    -0.021 C 
BRANCH  29  30
HETATM   30  C   UNL     1     -48.611   0.151  11.690  1.00  0.00     0.065 C 
BRANCH  30  31
HETATM   31  C   UNL     1     -48.206  -1.157  12.334  1.00  0.00    -0.055 C 
HETATM   32  C   UNL     1     -49.188  -2.047  12.786  1.00  0.00     0.007 C 
HETATM   33  C   UNL     1     -48.823  -3.192  13.484  1.00  0.00     0.001 C 
HETATM   34  C   UNL     1     -47.473  -3.537  13.585  1.00  0.00     0.000 C 
HETATM   35  C   UNL     1     -46.498  -2.696  13.058  1.00  0.00     0.001 C 
HETATM   36  C   UNL     1     -46.858  -1.465  12.512  1.00  0.00     0.007 C 
ENDBRANCH  30  31
ENDBRANCH  29  30
ENDBRANCH   1  28
TORSDOF 7
ENDMDL
MODEL 7
REMARK VINA RESULT:      -9.8      1.836      2.592
REMARK  7 active torsions:
REMARK  status: ('A' for Active; 'I' for Inactive)
REMARK    1  A    between atoms: C_3  and  C_19 
REMARK    2  A    between atoms: C_4  and  C_6 
REMARK    3  A    between atoms: C_5  and  C_12 
REMARK    4  A    between atoms: C_11  and  C_22 
REMARK    5  A    between atoms: C_11  and  C_30 
REMARK    6  A    between atoms: C_19  and  C_32 
REMARK    7  A    between atoms: C_27  and  C_30 
ROOT
HETATM    1  C   UNL     1     -48.513   5.252   6.450  1.00  0.00    -0.036 C 
HETATM    2  C   UNL     1     -45.178   1.921   5.780  1.00  0.00     0.004 C 
HETATM    3  C   UNL     1     -45.812   2.586   4.569  1.00  0.00     0.045 C 
HETATM    4  C   UNL     1     -48.049   5.625   5.178  1.00  0.00     0.012 C 
HETATM    5  C   UNL     1     -45.791   2.528   7.058  1.00  0.00     0.024 C 
HETATM    6  C   UNL     1     -46.809   3.532   6.547  1.00  0.00    -0.046 C 
HETATM    7  C   UNL     1     -46.636   3.686   5.169  1.00  0.00    -0.051 C 
HETATM    8  C   UNL     1     -47.154   4.791   4.495  1.00  0.00     0.008 C 
HETATM    9  C   UNL     1     -47.808   4.279   7.201  1.00  0.00     0.019 C 
ENDROOT
BRANCH   5  10
HETATM   10  C   UNL     1     -46.146   1.307   7.888  1.00  0.00     0.014 C 
BRANCH  10  11
HETATM   11  C   UNL     1     -46.686   1.494   9.306  1.00  0.00    -0.013 C 
HETATM   12  C   UNL     1     -48.029   0.774   9.288  1.00  0.00     0.010 C 
BRANCH  11  13
HETATM   13  C   UNL     1     -45.699   0.791  10.251  1.00  0.00    -0.001 C 
HETATM   14  C   UNL     1     -44.786  -0.168   9.508  1.00  0.00     0.108 C 
HETATM   15  C   UNL     1     -44.125  -1.267  10.298  1.00  0.00     0.217 C 
HETATM   16  O   UNL     1     -43.195  -1.895   9.805  1.00  0.00    -0.274 OA
HETATM   17  N   UNL     1     -44.788  -1.657  11.453  1.00  0.00    -0.361 N 
HETATM   18  C   UNL     1     -45.271  -0.553  12.300  1.00  0.00     0.123 C 
ATOM     19  HN  UNL     1     -44.930  -2.636  11.698  1.00  0.00     0.162 HD
HETATM   20  C   UNL     1     -46.328   0.213  11.501  1.00  0.00     0.025 C 
ENDBRANCH  11  13
ENDBRANCH  10  11
ENDBRANCH   5  10
BRANCH   2  21
HETATM   21  C   UNL     1     -43.644   1.947   5.720  1.00  0.00     0.018 C 
HETATM   22  C   UNL     1     -43.064   2.628   4.477  1.00  0.00     0.034 C 
HETATM   23  C   UNL     1     -42.121   1.614   3.830  1.00  0.00     0.232 C 
HETATM   24  N   UNL     1     -42.558   0.285   4.306  1.00  0.00    -0.075 N 
HETATM   25  C   UNL     1     -43.199   0.479   5.613  1.00  0.00     0.237 C 
ATOM     26  HN2 UNL     1     -41.801  -0.399   4.330  1.00  0.00     0.277 HD
ATOM     27  HN1 UNL     1     -43.155  -0.202   3.637  1.00  0.00     0.277 HD
ENDBRANCH   2  21
BRANCH   1  28
HETATM   28  C   UNL     1     -49.829   5.779   6.964  1.00  0.00     0.007 C 
HETATM   29  C   UNL     1     -50.944   5.075   6.863  1.00  0.00    -0.021 C 
BRANCH  29  30
HETATM   30  C   UNL     1     -52.393   5.267   7.100  1.00  0.00     0.065 C 
BRANCH  30  31
HETATM   31  C   UNL     1     -52.990   4.769   8.398  1.00  0.00    -0.055 C 
HETATM   32  C   UNL     1     -52.259   4.867   9.587  1.00  0.00     0.007 C 
HETATM   33  C   UNL     1     -52.752   4.304  10.758  1.00  0.00     0.001 C 
HETATM   34  C   UNL     1     -54.051   3.791  10.783  1.00  0.00     0.000 C 
HETATM   35  C   UNL     1     -54.814   3.772   9.619  1.00  0.00     0.001 C 
HETATM   36  C   UNL     1     -54.254   4.178   8.409  1.00  0.00     0.007 C 
ENDBRANCH  30  31
ENDBRANCH  29  30
ENDBRANCH   1  28
TORSDOF 7
ENDMDL
MODEL 8
REMARK VINA RESULT:      -9.7      2.120      3.235
REMARK  7 active torsions:
REMARK  status: ('A' for Active; 'I' for Inactive)
REMARK    1  A    between atoms: C_3  and  C_19 
REMARK    2  A    between atoms: C_4  and  C_6 
REMARK    3  A    between atoms: C_5  and  C_12 
REMARK    4  A    between atoms: C_11  and  C_22 
REMARK    5  A    between atoms: C_11  and  C_30 
REMARK    6  A    between atoms: C_19  and  C_32 
REMARK    7  A    between atoms: C_27  and  C_30 
ROOT
HETATM    1  C   UNL     1     -47.744   4.839   5.119  1.00  0.00    -0.036 C 
HETATM    2  C   UNL     1     -44.295   1.657   4.308  1.00  0.00     0.004 C 
HETATM    3  C   UNL     1     -45.477   1.726   3.354  1.00  0.00     0.045 C 
HETATM    4  C   UNL     1     -47.901   4.656   3.736  1.00  0.00     0.012 C 
HETATM    5  C   UNL     1     -44.480   2.725   5.405  1.00  0.00     0.024 C 
HETATM    6  C   UNL     1     -45.807   3.382   5.071  1.00  0.00    -0.046 C 
HETATM    7  C   UNL     1     -46.220   2.946   3.810  1.00  0.00    -0.051 C 
HETATM    8  C   UNL     1     -47.184   3.644   3.084  1.00  0.00     0.008 C 
HETATM    9  C   UNL     1     -46.610   4.299   5.777  1.00  0.00     0.019 C 
ENDROOT
BRANCH   5  10
HETATM   10  C   UNL     1     -44.213   1.957   6.688  1.00  0.00     0.014 C 
BRANCH  10  11
HETATM   11  C   UNL     1     -45.277   1.002   7.228  1.00  0.00    -0.013 C 
HETATM   12  C   UNL     1     -44.476  -0.168   7.787  1.00  0.00     0.010 C 
BRANCH  11  13
HETATM   13  C   UNL     1     -46.012   1.751   8.352  1.00  0.00    -0.001 C 
HETATM   14  C   UNL     1     -45.235   1.723   9.656  1.00  0.00     0.108 C 
HETATM   15  C   UNL     1     -45.995   1.958  10.935  1.00  0.00     0.217 C 
HETATM   16  O   UNL     1     -45.384   2.199  11.969  1.00  0.00    -0.274 OA
HETATM   17  N   UNL     1     -47.346   1.640  10.896  1.00  0.00    -0.361 N 
HETATM   18  C   UNL     1     -48.068   2.117   9.704  1.00  0.00     0.123 C 
ATOM     19  HN  UNL     1     -47.805   1.115  11.639  1.00  0.00     0.162 HD
HETATM   20  C   UNL     1     -47.478   1.396   8.490  1.00  0.00     0.025 C 
ENDBRANCH  11  13
ENDBRANCH  10  11
ENDBRANCH   5  10
BRANCH   2  21
HETATM   21  C   UNL     1     -42.950   1.710   3.571  1.00  0.00     0.018 C 
HETATM   22  C   UNL     1     -42.242   3.067   3.628  1.00  0.00     0.034 C 
HETATM   23  C   UNL     1     -41.968   3.472   2.179  1.00  0.00     0.232 C 
HETATM   24  N   UNL     1     -42.937   2.722   1.353  1.00  0.00    -0.075 N 
HETATM   25  C   UNL     1     -43.273   1.493   2.083  1.00  0.00     0.237 C 
ATOM     26  HN2 UNL     1     -42.601   2.545   0.406  1.00  0.00     0.277 HD
ATOM     27  HN1 UNL     1     -43.757   3.274   1.101  1.00  0.00     0.277 HD
ENDBRANCH   2  21
BRANCH   1  28
HETATM   28  C   UNL     1     -48.837   5.486   5.931  1.00  0.00     0.007 C 
HETATM   29  C   UNL     1     -50.102   5.122   5.804  1.00  0.00    -0.021 C 
BRANCH  29  30
HETATM   30  C   UNL     1     -51.431   5.569   6.281  1.00  0.00     0.065 C 
BRANCH  30  31
HETATM   31  C   UNL     1     -51.898   5.129   7.650  1.00  0.00    -0.055 C 
HETATM   32  C   UNL     1     -53.199   4.640   7.821  1.00  0.00     0.007 C 
HETATM   33  C   UNL     1     -53.673   4.348   9.095  1.00  0.00     0.001 C 
HETATM   34  C   UNL     1     -52.796   4.381  10.181  1.00  0.00     0.000 C 
HETATM   35  C   UNL     1     -51.476   4.783   9.998  1.00  0.00     0.001 C 
HETATM   36  C   UNL     1     -51.051   5.241   8.753  1.00  0.00     0.007 C 
ENDBRANCH  30  31
ENDBRANCH  29  30
ENDBRANCH   1  28
TORSDOF 7
ENDMDL
MODEL 9
REMARK VINA RESULT:      -9.7      2.801      8.560
REMARK  7 active torsions:
REMARK  status: ('A' for Active; 'I' for Inactive)
REMARK    1  A    between atoms: C_3  and  C_19 
REMARK    2  A    between atoms: C_4  and  C_6 
REMARK    3  A    between atoms: C_5  and  C_12 
REMARK    4  A    between atoms: C_11  and  C_22 
REMARK    5  A    between atoms: C_11  and  C_30 
REMARK    6  A    between atoms: C_19  and  C_32 
REMARK    7  A    between atoms: C_27  and  C_30 
ROOT
HETATM    1  C   UNL     1     -47.490   4.061   3.187  1.00  0.00    -0.036 C 
HETATM    2  C   UNL     1     -49.218   5.209   7.473  1.00  0.00     0.004 C 
HETATM    3  C   UNL     1     -48.457   6.258   6.678  1.00  0.00     0.045 C 
HETATM    4  C   UNL     1     -47.599   5.454   3.041  1.00  0.00     0.012 C 
HETATM    5  C   UNL     1     -49.281   3.909   6.647  1.00  0.00     0.024 C 
HETATM    6  C   UNL     1     -48.513   4.231   5.378  1.00  0.00    -0.046 C 
HETATM    7  C   UNL     1     -48.258   5.604   5.343  1.00  0.00    -0.051 C 
HETATM    8  C   UNL     1     -47.914   6.245   4.154  1.00  0.00     0.008 C 
HETATM    9  C   UNL     1     -48.068   3.423   4.313  1.00  0.00     0.019 C 
ENDROOT
BRANCH   5  10
HETATM   10  C   UNL     1     -48.863   2.842   7.644  1.00  0.00     0.014 C 
BRANCH  10  11
HETATM   11  C   UNL     1     -47.992   3.229   8.839  1.00  0.00    -0.013 C 
HETATM   12  C   UNL     1     -48.460   2.302   9.954  1.00  0.00     0.010 C 
BRANCH  11  13
HETATM   13  C   UNL     1     -46.538   2.923   8.443  1.00  0.00    -0.001 C 
HETATM   14  C   UNL     1     -46.427   1.638   7.641  1.00  0.00     0.108 C 
HETATM   15  C   UNL     1     -45.089   0.946   7.601  1.00  0.00     0.217 C 
HETATM   16  O   UNL     1     -44.885   0.066   6.774  1.00  0.00    -0.274 OA
HETATM   17  N   UNL     1     -44.254   1.194   8.681  1.00  0.00    -0.361 N 
HETATM   18  C   UNL     1     -44.156   2.607   9.087  1.00  0.00     0.123 C 
ATOM     19  HN  UNL     1     -43.745   0.451   9.160  1.00  0.00     0.162 HD
HETATM   20  C   UNL     1     -45.540   3.042   9.576  1.00  0.00     0.025 C 
ENDBRANCH  11  13
ENDBRANCH  10  11
ENDBRANCH   5  10
BRANCH   2  21
HETATM   21  C   UNL     1     -50.574   5.729   7.970  1.00  0.00     0.018 C 
HETATM   22  C   UNL     1     -51.168   4.948   9.146  1.00  0.00     0.034 C 
HETATM   23  C   UNL     1     -52.568   4.514   8.713  1.00  0.00     0.232 C 
HETATM   24  N   UNL     1     -52.563   4.526   7.236  1.00  0.00    -0.075 N 
HETATM   25  C   UNL     1     -51.561   5.512   6.811  1.00  0.00     0.237 C 
ATOM     26  HN2 UNL     1     -53.486   4.696   6.835  1.00  0.00     0.277 HD
ATOM     27  HN1 UNL     1     -52.411   3.602   6.830  1.00  0.00     0.277 HD
ENDBRANCH   2  21
BRANCH   1  28
HETATM   28  C   UNL     1     -46.649   3.259   2.228  1.00  0.00     0.007 C 
HETATM   29  C   UNL     1     -45.735   2.405   2.655  1.00  0.00    -0.021 C 
BRANCH  29  30
HETATM   30  C   UNL     1     -44.657   1.566   2.083  1.00  0.00     0.065 C 
BRANCH  30  31
HETATM   31  C   UNL     1     -43.377   2.234   1.631  1.00  0.00    -0.055 C 
HETATM   32  C   UNL     1     -42.444   2.670   2.579  1.00  0.00     0.007 C 
HETATM   33  C   UNL     1     -41.326   3.391   2.177  1.00  0.00     0.001 C 
HETATM   34  C   UNL     1     -41.049   3.530   0.815  1.00  0.00     0.000 C 
HETATM   35  C   UNL     1     -41.932   3.019  -0.131  1.00  0.00     0.001 C 
HETATM   36  C   UNL     1     -43.138   2.451   0.274  1.00  0.00     0.007 C 
ENDBRANCH  30  31
ENDBRANCH  29  30
ENDBRANCH   1  28
TORSDOF 7
ENDMDL
