MODEL 1
REMARK VINA RESULT:      -8.8      0.000      0.000
REMARK  4 active torsions:
REMARK  status: ('A' for Active; 'I' for Inactive)
REMARK       I    between atoms: N_3  and  C_24 
REMARK    1  A    between atoms: O_5  and  C_25 
REMARK    2  A    between atoms: O_9  and  C_22 
REMARK    3  A    between atoms: C_16  and  O_18 
REMARK    4  A    between atoms: C_17  and  C_24 
ROOT
HETATM    1  C   UNL     1       6.870  22.532 302.378  1.00  0.00     0.053 C 
HETATM    2  C   UNL     1       5.483  21.103 303.723  1.00  0.00     0.039 C 
HETATM    3  N   UNL     1       3.498  23.026 301.340  1.00  0.00    -0.351 N 
ATOM      4  HN  UNL     1       2.563  22.620 301.385  1.00  0.00     0.166 HD
HETATM    5  C   UNL     1       4.749  24.942 300.687  1.00  0.00     0.072 C 
HETATM    6  C   UNL     1       4.340  21.740 303.246  1.00  0.00     0.033 C 
HETATM    7  C   UNL     1       5.718  24.625 301.630  1.00  0.00     0.080 C 
HETATM    8  C   UNL     1       3.848  23.930 300.388  1.00  0.00     0.104 C 
HETATM    9  C   UNL     1       5.738  23.287 302.085  1.00  0.00     0.026 C 
HETATM   10  C   UNL     1       6.714  21.372 303.127  1.00  0.00     0.066 C 
HETATM   11  C   UNL     1       4.473  22.694 302.229  1.00  0.00     0.045 C 
ENDROOT
BRANCH   8  12
HETATM   12  C   UNL     1       3.278  23.900 299.032  1.00  0.00     0.278 C 
HETATM   13  N   UNL     1       3.596  22.830 298.201  1.00  0.00    -0.298 N 
HETATM   14  C   UNL     1       2.721  22.454 297.219  1.00  0.00     0.102 C 
HETATM   15  C   UNL     1       4.869  22.324 298.224  1.00  0.00     0.109 C 
HETATM   16  C   UNL     1       3.096  21.539 296.259  1.00  0.00     0.054 C 
HETATM   17  C   UNL     1       4.414  21.057 296.279  1.00  0.00     0.074 C 
HETATM   18  C   UNL     1       5.352  21.670 297.127  1.00  0.00    -0.013 C 
HETATM   19  C   UNL     1       6.795  21.746 296.736  1.00  0.00     0.052 C 
HETATM   20  O   UNL     1       2.625  24.833 298.614  1.00  0.00    -0.265 OA
BRANCH  17  21
HETATM   21  O   UNL     1       4.713  19.902 295.691  1.00  0.00    -0.360 OA
ATOM     22  HO  UNL     1       4.020  19.311 295.420  1.00  0.00     0.217 HD
ENDBRANCH  17  21
ENDBRANCH   8  12
BRANCH   7  23
HETATM   23  O   UNL     1       6.012  25.607 302.538  1.00  0.00    -0.360 OA
ATOM     24  HO  UNL     1       5.887  26.500 302.238  1.00  0.00     0.217 HD
ENDBRANCH   7  23
BRANCH  10  25
HETATM   25  O   UNL     1       7.750  20.489 303.191  1.00  0.00    -0.361 OA
ATOM     26  HO  UNL     1       7.557  19.561 303.255  1.00  0.00     0.217 HD
ENDBRANCH  10  25
TORSDOF 4
ENDMDL
MODEL 2
REMARK VINA RESULT:      -8.2      2.032      6.565
REMARK  4 active torsions:
REMARK  status: ('A' for Active; 'I' for Inactive)
REMARK       I    between atoms: N_3  and  C_24 
REMARK    1  A    between atoms: O_5  and  C_25 
REMARK    2  A    between atoms: O_9  and  C_22 
REMARK    3  A    between atoms: C_16  and  O_18 
REMARK    4  A    between atoms: C_17  and  C_24 
ROOT
HETATM    1  C   UNL     1       2.721  24.525 295.341  1.00  0.00     0.053 C 
HETATM    2  C   UNL     1       0.627  23.579 296.042  1.00  0.00     0.039 C 
HETATM    3  N   UNL     1       3.245  23.005 298.520  1.00  0.00    -0.351 N 
ATOM      4  HN  UNL     1       2.759  22.641 299.340  1.00  0.00     0.166 HD
HETATM    5  C   UNL     1       5.358  23.182 297.441  1.00  0.00     0.072 C 
HETATM    6  C   UNL     1       1.263  22.908 297.085  1.00  0.00     0.033 C 
HETATM    7  C   UNL     1       4.717  23.291 296.214  1.00  0.00     0.080 C 
HETATM    8  C   UNL     1       4.554  23.364 298.557  1.00  0.00     0.104 C 
HETATM    9  C   UNL     1       3.359  23.682 296.246  1.00  0.00     0.026 C 
HETATM   10  C   UNL     1       1.332  24.536 295.315  1.00  0.00     0.066 C 
HETATM   11  C   UNL     1       2.621  23.160 297.320  1.00  0.00     0.045 C 
ENDROOT
BRANCH   8  12
HETATM   12  C   UNL     1       5.179  23.926 299.765  1.00  0.00     0.278 C 
HETATM   13  N   UNL     1       5.894  23.073 300.600  1.00  0.00    -0.298 N 
HETATM   14  C   UNL     1       6.912  23.573 301.366  1.00  0.00     0.102 C 
HETATM   15  C   UNL     1       5.422  21.806 300.820  1.00  0.00     0.109 C 
HETATM   16  C   UNL     1       7.497  22.801 302.345  1.00  0.00     0.054 C 
HETATM   17  C   UNL     1       6.978  21.518 302.579  1.00  0.00     0.074 C 
HETATM   18  C   UNL     1       5.768  21.150 301.967  1.00  0.00    -0.013 C 
HETATM   19  C   UNL     1       4.827  20.206 302.650  1.00  0.00     0.052 C 
HETATM   20  O   UNL     1       4.997  25.084 300.075  1.00  0.00    -0.265 OA
BRANCH  17  21
HETATM   21  O   UNL     1       7.726  20.591 303.170  1.00  0.00    -0.360 OA
ATOM     22  HO  UNL     1       7.872  20.622 304.108  1.00  0.00     0.217 HD
ENDBRANCH  17  21
ENDBRANCH   8  12
BRANCH   7  23
HETATM   23  O   UNL     1       5.090  22.380 295.261  1.00  0.00    -0.360 OA
ATOM     24  HO  UNL     1       5.457  22.742 294.462  1.00  0.00     0.217 HD
ENDBRANCH   7  23
BRANCH  10  25
HETATM   25  O   UNL     1       0.697  25.536 294.641  1.00  0.00    -0.361 OA
ATOM     26  HO  UNL     1      -0.158  25.364 294.267  1.00  0.00     0.217 HD
ENDBRANCH  10  25
TORSDOF 4
ENDMDL
MODEL 3
REMARK VINA RESULT:      -8.0      2.677      3.916
REMARK  4 active torsions:
REMARK  status: ('A' for Active; 'I' for Inactive)
REMARK       I    between atoms: N_3  and  C_24 
REMARK    1  A    between atoms: O_5  and  C_25 
REMARK    2  A    between atoms: O_9  and  C_22 
REMARK    3  A    between atoms: C_16  and  O_18 
REMARK    4  A    between atoms: C_17  and  C_24 
ROOT
HETATM    1  C   UNL     1       8.420  19.971 302.008  1.00  0.00     0.053 C 
HETATM    2  C   UNL     1       8.106  17.677 301.366  1.00  0.00     0.039 C 
HETATM    3  N   UNL     1       6.226  19.934 299.201  1.00  0.00    -0.351 N 
ATOM      4  HN  UNL     1       5.893  19.350 298.433  1.00  0.00     0.166 HD
HETATM    5  C   UNL     1       5.897  21.989 300.355  1.00  0.00     0.072 C 
HETATM    6  C   UNL     1       7.074  18.044 300.506  1.00  0.00     0.033 C 
HETATM    7  C   UNL     1       6.448  21.428 301.500  1.00  0.00     0.080 C 
HETATM    8  C   UNL     1       6.116  21.288 299.178  1.00  0.00     0.104 C 
HETATM    9  C   UNL     1       7.254  20.282 301.313  1.00  0.00     0.026 C 
HETATM   10  C   UNL     1       8.897  18.668 301.946  1.00  0.00     0.066 C 
HETATM   11  C   UNL     1       6.809  19.405 300.311  1.00  0.00     0.045 C 
ENDROOT
BRANCH   8  12
HETATM   12  C   UNL     1       6.192  22.060 297.927  1.00  0.00     0.278 C 
HETATM   13  N   UNL     1       5.097  22.834 297.556  1.00  0.00    -0.298 N 
HETATM   14  C   UNL     1       5.285  23.945 296.782  1.00  0.00     0.102 C 
HETATM   15  C   UNL     1       3.834  22.347 297.771  1.00  0.00     0.109 C 
HETATM   16  C   UNL     1       4.209  24.608 296.233  1.00  0.00     0.054 C 
HETATM   17  C   UNL     1       2.927  24.076 296.436  1.00  0.00     0.074 C 
HETATM   18  C   UNL     1       2.801  22.794 296.999  1.00  0.00    -0.013 C 
HETATM   19  C   UNL     1       1.661  21.903 296.613  1.00  0.00     0.052 C 
HETATM   20  O   UNL     1       7.149  21.951 297.190  1.00  0.00    -0.265 OA
BRANCH  17  21
HETATM   21  O   UNL     1       1.854  24.853 296.321  1.00  0.00    -0.360 OA
ATOM     22  HO  UNL     1       1.096  24.553 295.833  1.00  0.00     0.217 HD
ENDBRANCH  17  21
ENDBRANCH   8  12
BRANCH   7  23
HETATM   23  O   UNL     1       5.668  21.477 302.625  1.00  0.00    -0.360 OA
ATOM     24  HO  UNL     1       4.861  20.976 302.593  1.00  0.00     0.217 HD
ENDBRANCH   7  23
BRANCH  10  25
HETATM   25  O   UNL     1      10.161  18.411 302.385  1.00  0.00    -0.361 OA
ATOM     26  HO  UNL     1      10.483  18.876 303.148  1.00  0.00     0.217 HD
ENDBRANCH  10  25
TORSDOF 4
ENDMDL
MODEL 4
REMARK VINA RESULT:      -7.9      3.011      5.208
REMARK  4 active torsions:
REMARK  status: ('A' for Active; 'I' for Inactive)
REMARK       I    between atoms: N_3  and  C_24 
REMARK    1  A    between atoms: O_5  and  C_25 
REMARK    2  A    between atoms: O_9  and  C_22 
REMARK    3  A    between atoms: C_16  and  O_18 
REMARK    4  A    between atoms: C_17  and  C_24 
ROOT
HETATM    1  C   UNL     1       6.571  23.534 299.133  1.00  0.00     0.053 C 
HETATM    2  C   UNL     1       6.417  25.798 298.342  1.00  0.00     0.039 C 
HETATM    3  N   UNL     1       4.179  23.586 296.493  1.00  0.00    -0.351 N 
ATOM      4  HN  UNL     1       3.591  24.208 295.937  1.00  0.00     0.166 HD
HETATM    5  C   UNL     1       4.971  21.353 296.714  1.00  0.00     0.072 C 
HETATM    6  C   UNL     1       5.668  25.379 297.244  1.00  0.00     0.033 C 
HETATM    7  C   UNL     1       6.103  21.825 297.364  1.00  0.00     0.080 C 
HETATM    8  C   UNL     1       3.923  22.256 296.601  1.00  0.00     0.104 C 
HETATM    9  C   UNL     1       6.013  23.118 297.928  1.00  0.00     0.026 C 
HETATM   10  C   UNL     1       6.680  24.898 299.374  1.00  0.00     0.066 C 
HETATM   11  C   UNL     1       5.268  24.038 297.173  1.00  0.00     0.045 C 
ENDROOT
BRANCH   8  12
HETATM   12  C   UNL     1       2.555  21.716 296.575  1.00  0.00     0.278 C 
HETATM   13  N   UNL     1       1.731  21.939 297.674  1.00  0.00    -0.298 N 
HETATM   14  C   UNL     1       0.375  21.976 297.506  1.00  0.00     0.102 C 
HETATM   15  C   UNL     1       2.271  21.883 298.933  1.00  0.00     0.109 C 
HETATM   16  C   UNL     1      -0.467  21.990 298.597  1.00  0.00     0.054 C 
HETATM   17  C   UNL     1       0.102  21.899 299.876  1.00  0.00     0.074 C 
HETATM   18  C   UNL     1       1.467  21.587 299.996  1.00  0.00    -0.013 C 
HETATM   19  C   UNL     1       1.968  20.804 301.169  1.00  0.00     0.052 C 
HETATM   20  O   UNL     1       2.185  21.013 295.659  1.00  0.00    -0.265 OA
BRANCH  17  21
HETATM   21  O   UNL     1      -0.572  22.328 300.940  1.00  0.00    -0.360 OA
ATOM     22  HO  UNL     1      -0.937  23.205 300.952  1.00  0.00     0.217 HD
ENDBRANCH  17  21
ENDBRANCH   8  12
BRANCH   7  23
HETATM   23  O   UNL     1       7.304  21.455 296.818  1.00  0.00    -0.360 OA
ATOM     24  HO  UNL     1       7.378  21.549 295.875  1.00  0.00     0.217 HD
ENDBRANCH   7  23
BRANCH  10  25
HETATM   25  O   UNL     1       6.964  25.320 300.638  1.00  0.00    -0.361 OA
ATOM     26  HO  UNL     1       7.856  25.568 300.847  1.00  0.00     0.217 HD
ENDBRANCH  10  25
TORSDOF 4
ENDMDL
MODEL 5
REMARK VINA RESULT:      -7.9      2.152      5.904
REMARK  4 active torsions:
REMARK  status: ('A' for Active; 'I' for Inactive)
REMARK       I    between atoms: N_3  and  C_24 
REMARK    1  A    between atoms: O_5  and  C_25 
REMARK    2  A    between atoms: O_9  and  C_22 
REMARK    3  A    between atoms: C_16  and  O_18 
REMARK    4  A    between atoms: C_17  and  C_24 
ROOT
HETATM    1  C   UNL     1       3.466  22.092 297.145  1.00  0.00     0.053 C 
HETATM    2  C   UNL     1       3.789  24.382 296.493  1.00  0.00     0.039 C 
HETATM    3  N   UNL     1       3.112  24.098 300.067  1.00  0.00    -0.351 N 
ATOM      4  HN  UNL     1       3.301  25.026 300.448  1.00  0.00     0.166 HD
HETATM    5  C   UNL     1       2.001  22.031 300.464  1.00  0.00     0.072 C 
HETATM    6  C   UNL     1       3.337  24.815 297.737  1.00  0.00     0.033 C 
HETATM    7  C   UNL     1       1.920  21.818 299.094  1.00  0.00     0.080 C 
HETATM    8  C   UNL     1       2.885  23.022 300.866  1.00  0.00     0.104 C 
HETATM    9  C   UNL     1       2.820  22.551 298.289  1.00  0.00     0.026 C 
HETATM   10  C   UNL     1       4.040  23.026 296.291  1.00  0.00     0.066 C 
HETATM   11  C   UNL     1       3.071  23.861 298.728  1.00  0.00     0.045 C 
ENDROOT
BRANCH   8  12
HETATM   12  C   UNL     1       3.529  22.872 302.181  1.00  0.00     0.278 C 
HETATM   13  N   UNL     1       4.917  22.802 302.237  1.00  0.00    -0.298 N 
HETATM   14  C   UNL     1       5.571  23.216 303.364  1.00  0.00     0.102 C 
HETATM   15  C   UNL     1       5.588  22.106 301.265  1.00  0.00     0.109 C 
HETATM   16  C   UNL     1       6.917  22.969 303.526  1.00  0.00     0.054 C 
HETATM   17  C   UNL     1       7.579  22.227 302.537  1.00  0.00     0.074 C 
HETATM   18  C   UNL     1       6.822  21.589 301.540  1.00  0.00    -0.013 C 
HETATM   19  C   UNL     1       7.286  20.297 300.942  1.00  0.00     0.052 C 
HETATM   20  O   UNL     1       2.862  22.719 303.182  1.00  0.00    -0.265 OA
BRANCH  17  21
HETATM   21  O   UNL     1       8.900  22.318 302.404  1.00  0.00    -0.360 OA
ATOM     22  HO  UNL     1       9.387  21.619 301.984  1.00  0.00     0.217 HD
ENDBRANCH  17  21
ENDBRANCH   8  12
BRANCH   7  23
HETATM   23  O   UNL     1       0.662  21.597 298.598  1.00  0.00    -0.360 OA
ATOM     24  HO  UNL     1       0.014  22.263 298.797  1.00  0.00     0.217 HD
ENDBRANCH   7  23
BRANCH  10  25
HETATM   25  O   UNL     1       4.899  22.591 295.327  1.00  0.00    -0.361 OA
ATOM     26  HO  UNL     1       4.936  23.061 294.502  1.00  0.00     0.217 HD
ENDBRANCH  10  25
TORSDOF 4
ENDMDL
MODEL 6
REMARK VINA RESULT:      -7.7      3.217      4.080
REMARK  4 active torsions:
REMARK  status: ('A' for Active; 'I' for Inactive)
REMARK       I    between atoms: N_3  and  C_24 
REMARK    1  A    between atoms: O_5  and  C_25 
REMARK    2  A    between atoms: O_9  and  C_22 
REMARK    3  A    between atoms: C_16  and  O_18 
REMARK    4  A    between atoms: C_17  and  C_24 
ROOT
HETATM    1  C   UNL     1       7.823  17.764 300.611  1.00  0.00     0.053 C 
HETATM    2  C   UNL     1       6.115  16.083 300.793  1.00  0.00     0.039 C 
HETATM    3  N   UNL     1       4.773  19.418 301.422  1.00  0.00    -0.351 N 
ATOM      4  HN  UNL     1       3.761  19.297 301.445  1.00  0.00     0.166 HD
HETATM    5  C   UNL     1       6.568  20.847 302.055  1.00  0.00     0.072 C 
HETATM    6  C   UNL     1       5.236  17.015 301.340  1.00  0.00     0.033 C 
HETATM    7  C   UNL     1       7.424  19.754 302.076  1.00  0.00     0.080 C 
HETATM    8  C   UNL     1       5.353  20.646 301.414  1.00  0.00     0.104 C 
HETATM    9  C   UNL     1       7.007  18.614 301.352  1.00  0.00     0.026 C 
HETATM   10  C   UNL     1       7.322  16.519 300.249  1.00  0.00     0.066 C 
HETATM   11  C   UNL     1       5.627  18.358 301.399  1.00  0.00     0.045 C 
ENDROOT
BRANCH   8  12
HETATM   12  C   UNL     1       4.723  21.806 300.764  1.00  0.00     0.278 C 
HETATM   13  N   UNL     1       4.701  21.858 299.374  1.00  0.00    -0.298 N 
HETATM   14  C   UNL     1       3.705  22.549 298.739  1.00  0.00     0.102 C 
HETATM   15  C   UNL     1       5.794  21.421 298.673  1.00  0.00     0.109 C 
HETATM   16  C   UNL     1       3.771  22.788 297.384  1.00  0.00     0.054 C 
HETATM   17  C   UNL     1       4.914  22.362 296.690  1.00  0.00     0.074 C 
HETATM   18  C   UNL     1       6.026  21.907 297.418  1.00  0.00    -0.013 C 
HETATM   19  C   UNL     1       7.414  22.117 296.899  1.00  0.00     0.052 C 
HETATM   20  O   UNL     1       4.318  22.740 301.424  1.00  0.00    -0.265 OA
BRANCH  17  21
HETATM   21  O   UNL     1       4.864  22.170 295.374  1.00  0.00    -0.360 OA
ATOM     22  HO  UNL     1       5.667  22.105 294.870  1.00  0.00     0.217 HD
ENDBRANCH  17  21
ENDBRANCH   8  12
BRANCH   7  23
HETATM   23  O   UNL     1       8.099  19.546 303.250  1.00  0.00    -0.360 OA
ATOM     24  HO  UNL     1       7.862  18.762 303.732  1.00  0.00     0.217 HD
ENDBRANCH   7  23
BRANCH  10  25
HETATM   25  O   UNL     1       7.988  15.794 299.307  1.00  0.00    -0.361 OA
ATOM     26  HO  UNL     1       7.749  15.901 298.394  1.00  0.00     0.217 HD
ENDBRANCH  10  25
TORSDOF 4
ENDMDL
MODEL 7
REMARK VINA RESULT:      -7.7      1.898      2.807
REMARK  4 active torsions:
REMARK  status: ('A' for Active; 'I' for Inactive)
REMARK       I    between atoms: N_3  and  C_24 
REMARK    1  A    between atoms: O_5  and  C_25 
REMARK    2  A    between atoms: O_9  and  C_22 
REMARK    3  A    between atoms: C_16  and  O_18 
REMARK    4  A    between atoms: C_17  and  C_24 
ROOT
HETATM    1  C   UNL     1       7.023  22.532 302.443  1.00  0.00     0.053 C 
HETATM    2  C   UNL     1       5.323  20.987 303.148  1.00  0.00     0.039 C 
HETATM    3  N   UNL     1       4.275  22.866 300.200  1.00  0.00    -0.351 N 
ATOM      4  HN  UNL     1       3.421  22.407 299.882  1.00  0.00     0.166 HD
HETATM    5  C   UNL     1       5.555  24.869 300.086  1.00  0.00     0.072 C 
HETATM    6  C   UNL     1       4.409  21.572 302.274  1.00  0.00     0.033 C 
HETATM    7  C   UNL     1       6.110  24.578 301.326  1.00  0.00     0.080 C 
HETATM    8  C   UNL     1       4.902  23.817 299.459  1.00  0.00     0.104 C 
HETATM    9  C   UNL     1       6.041  23.230 301.745  1.00  0.00     0.026 C 
HETATM   10  C   UNL     1       6.668  21.343 303.068  1.00  0.00     0.066 C 
HETATM   11  C   UNL     1       4.857  22.563 301.392  1.00  0.00     0.045 C 
ENDROOT
BRANCH   8  12
HETATM   12  C   UNL     1       4.894  23.796 297.988  1.00  0.00     0.278 C 
HETATM   13  N   UNL     1       3.703  24.077 297.326  1.00  0.00    -0.298 N 
HETATM   14  C   UNL     1       3.739  24.611 296.067  1.00  0.00     0.102 C 
HETATM   15  C   UNL     1       2.526  23.601 297.842  1.00  0.00     0.109 C 
HETATM   16  C   UNL     1       2.590  24.707 295.313  1.00  0.00     0.054 C 
HETATM   17  C   UNL     1       1.401  24.184 295.845  1.00  0.00     0.074 C 
HETATM   18  C   UNL     1       1.460  23.404 297.012  1.00  0.00    -0.013 C 
HETATM   19  C   UNL     1       0.486  22.289 297.232  1.00  0.00     0.052 C 
HETATM   20  O   UNL     1       5.879  23.451 297.369  1.00  0.00    -0.265 OA
BRANCH  17  21
HETATM   21  O   UNL     1       0.223  24.609 295.395  1.00  0.00    -0.360 OA
ATOM     22  HO  UNL     1      -0.039  24.429 294.500  1.00  0.00     0.217 HD
ENDBRANCH  17  21
ENDBRANCH   8  12
BRANCH   7  23
HETATM   23  O   UNL     1       5.973  25.548 302.284  1.00  0.00    -0.360 OA
ATOM     24  HO  UNL     1       5.393  25.337 303.007  1.00  0.00     0.217 HD
ENDBRANCH   7  23
BRANCH  10  25
HETATM   25  O   UNL     1       7.656  20.519 303.516  1.00  0.00    -0.361 OA
ATOM     26  HO  UNL     1       7.648  20.248 304.426  1.00  0.00     0.217 HD
ENDBRANCH  10  25
TORSDOF 4
ENDMDL
MODEL 8
REMARK VINA RESULT:      -7.6      2.941      5.129
REMARK  4 active torsions:
REMARK  status: ('A' for Active; 'I' for Inactive)
REMARK       I    between atoms: N_3  and  C_24 
REMARK    1  A    between atoms: O_5  and  C_25 
REMARK    2  A    between atoms: O_9  and  C_22 
REMARK    3  A    between atoms: C_16  and  O_18 
REMARK    4  A    between atoms: C_17  and  C_24 
ROOT
HETATM    1  C   UNL     1       4.742  23.710 297.409  1.00  0.00     0.053 C 
HETATM    2  C   UNL     1       6.371  21.957 297.190  1.00  0.00     0.039 C 
HETATM    3  N   UNL     1       5.120  22.193 300.610  1.00  0.00    -0.351 N 
ATOM      4  HN  UNL     1       5.479  21.363 301.082  1.00  0.00     0.166 HD
HETATM    5  C   UNL     1       4.225  24.373 300.939  1.00  0.00     0.072 C 
HETATM    6  C   UNL     1       6.428  21.818 298.575  1.00  0.00     0.033 C 
HETATM    7  C   UNL     1       4.693  24.748 299.686  1.00  0.00     0.080 C 
HETATM    8  C   UNL     1       4.198  23.008 301.185  1.00  0.00     0.104 C 
HETATM    9  C   UNL     1       4.976  23.701 298.781  1.00  0.00     0.026 C 
HETATM   10  C   UNL     1       5.379  22.757 296.624  1.00  0.00     0.066 C 
HETATM   11  C   UNL     1       5.534  22.552 299.365  1.00  0.00     0.045 C 
ENDROOT
BRANCH   8  12
HETATM   12  C   UNL     1       3.165  22.500 302.102  1.00  0.00     0.278 C 
HETATM   13  N   UNL     1       2.249  21.569 301.621  1.00  0.00    -0.298 N 
HETATM   14  C   UNL     1       1.671  20.680 302.484  1.00  0.00     0.102 C 
HETATM   15  C   UNL     1       1.768  21.707 300.345  1.00  0.00     0.109 C 
HETATM   16  C   UNL     1       0.618  19.890 302.077  1.00  0.00     0.054 C 
HETATM   17  C   UNL     1       0.117  20.069 300.778  1.00  0.00     0.074 C 
HETATM   18  C   UNL     1       0.553  21.171 300.024  1.00  0.00    -0.013 C 
HETATM   19  C   UNL     1      -0.361  21.827 299.036  1.00  0.00     0.052 C 
HETATM   20  O   UNL     1       3.055  22.952 303.222  1.00  0.00    -0.265 OA
BRANCH  17  21
HETATM   21  O   UNL     1      -0.570  19.095 300.187  1.00  0.00    -0.360 OA
ATOM     22  HO  UNL     1      -0.556  18.215 300.545  1.00  0.00     0.217 HD
ENDBRANCH  17  21
ENDBRANCH   8  12
BRANCH   7  23
HETATM   23  O   UNL     1       5.511  25.848 299.658  1.00  0.00    -0.360 OA
ATOM     24  HO  UNL     1       6.324  25.772 300.144  1.00  0.00     0.217 HD
ENDBRANCH   7  23
BRANCH  10  25
HETATM   25  O   UNL     1       4.958  22.577 295.341  1.00  0.00    -0.361 OA
ATOM     26  HO  UNL     1       4.026  22.509 295.171  1.00  0.00     0.217 HD
ENDBRANCH  10  25
TORSDOF 4
ENDMDL
MODEL 9
REMARK VINA RESULT:      -7.6      1.850      2.247
REMARK  4 active torsions:
REMARK  status: ('A' for Active; 'I' for Inactive)
REMARK       I    between atoms: N_3  and  C_24 
REMARK    1  A    between atoms: O_5  and  C_25 
REMARK    2  A    between atoms: O_9  and  C_22 
REMARK    3  A    between atoms: C_16  and  O_18 
REMARK    4  A    between atoms: C_17  and  C_24 
ROOT
HETATM    1  C   UNL     1       8.008  20.821 301.828  1.00  0.00     0.053 C 
HETATM    2  C   UNL     1       6.763  18.773 301.995  1.00  0.00     0.039 C 
HETATM    3  N   UNL     1       4.551  21.647 301.588  1.00  0.00    -0.351 N 
ATOM      4  HN  UNL     1       3.627  21.249 301.418  1.00  0.00     0.166 HD
HETATM    5  C   UNL     1       5.722  23.604 302.270  1.00  0.00     0.072 C 
HETATM    6  C   UNL     1       5.575  19.489 302.127  1.00  0.00     0.033 C 
HETATM    7  C   UNL     1       6.776  22.814 302.710  1.00  0.00     0.080 C 
HETATM    8  C   UNL     1       4.804  22.974 301.441  1.00  0.00     0.104 C 
HETATM    9  C   UNL     1       6.849  21.508 302.175  1.00  0.00     0.026 C 
HETATM   10  C   UNL     1       7.932  19.446 301.643  1.00  0.00     0.066 C 
HETATM   11  C   UNL     1       5.607  20.882 301.978  1.00  0.00     0.045 C 
ENDROOT
BRANCH   8  12
HETATM   12  C   UNL     1       4.112  23.798 300.437  1.00  0.00     0.278 C 
HETATM   13  N   UNL     1       4.232  23.450 299.095  1.00  0.00    -0.298 N 
HETATM   14  C   UNL     1       3.235  23.780 298.219  1.00  0.00     0.102 C 
HETATM   15  C   UNL     1       5.440  22.998 298.630  1.00  0.00     0.109 C 
HETATM   16  C   UNL     1       3.417  23.632 296.861  1.00  0.00     0.054 C 
HETATM   17  C   UNL     1       4.671  23.200 296.402  1.00  0.00     0.074 C 
HETATM   18  C   UNL     1       5.744  23.137 297.306  1.00  0.00    -0.013 C 
HETATM   19  C   UNL     1       7.145  23.393 296.843  1.00  0.00     0.052 C 
HETATM   20  O   UNL     1       3.529  24.810 300.763  1.00  0.00    -0.265 OA
BRANCH  17  21
HETATM   21  O   UNL     1       4.786  22.638 295.202  1.00  0.00    -0.360 OA
ATOM     22  HO  UNL     1       5.444  22.948 294.591  1.00  0.00     0.217 HD
ENDBRANCH  17  21
ENDBRANCH   8  12
BRANCH   7  23
HETATM   23  O   UNL     1       7.145  22.984 304.018  1.00  0.00    -0.360 OA
ATOM     24  HO  UNL     1       6.896  23.811 304.415  1.00  0.00     0.217 HD
ENDBRANCH   7  23
BRANCH  10  25
HETATM   25  O   UNL     1       8.975  18.807 301.045  1.00  0.00    -0.361 OA
ATOM     26  HO  UNL     1       9.782  19.286 300.899  1.00  0.00     0.217 HD
ENDBRANCH  10  25
TORSDOF 4
ENDMDL
