REMARK  8 active torsions:
REMARK  status: ('A' for Active; 'I' for Inactive)
REMARK    1  A    between atoms: C_1  and  C_29 
REMARK    2  A    between atoms: C_3  and  N_27 
REMARK    3  A    between atoms: C_4  and  C_22 
REMARK    4  A    between atoms: N_9  and  C_15 
REMARK    5  A    between atoms: N_9  and  C_20 
REMARK    6  A    between atoms: O_12  and  C_40 
REMARK    7  A    between atoms: C_16  and  C_39 
REMARK    8  A    between atoms: C_19  and  C_20 
ROOT
HETATM    1  C   UNL     1     -33.863 -15.498 -11.461  1.00  0.00     0.031 A 
HETATM    2  C   UNL     1     -34.541 -16.753 -11.444  1.00  0.00     0.044 A 
HETATM    3  C   UNL     1     -35.585 -16.715 -12.435  1.00  0.00     0.013 A 
HETATM    4  C   UNL     1     -35.561 -15.384 -13.001  1.00  0.00    -0.040 A 
HETATM    5  C   UNL     1     -34.499 -14.675 -12.402  1.00  0.00     0.011 A 
ENDROOT
BRANCH   2   6
HETATM    6  N   UNL     1     -34.201 -17.809 -10.643  1.00  0.00    -0.352 N 
HETATM    7  C   UNL     1     -33.976 -18.277  -9.430  1.00  0.00     0.176 C 
ATOM      8  HN  UNL     1     -34.054 -18.597 -11.274  1.00  0.00     0.166 HD
BRANCH   7   9
HETATM    9  N   UNL     1     -33.257 -17.898  -8.372  1.00  0.00    -0.386 N 
ATOM     10  HN  UNL     1     -33.191 -18.431  -7.505  1.00  0.00     0.160 HD
BRANCH   9  11
HETATM   11  C   UNL     1     -32.576 -16.626  -8.606  1.00  0.00     0.125 C 
BRANCH  11  12
HETATM   12  C   UNL     1     -32.719 -15.640  -7.463  1.00  0.00     0.004 C 
HETATM   13  C   UNL     1     -34.120 -15.372  -6.947  1.00  0.00     0.011 C 
HETATM   14  C   UNL     1     -34.181 -14.211  -5.942  1.00  0.00    -0.014 C 
HETATM   15  C   UNL     1     -33.234 -14.556  -4.789  1.00  0.00     0.005 C 
HETATM   16  C   UNL     1     -33.532 -12.982  -6.591  1.00  0.00     0.009 C 
HETATM   17  C   UNL     1     -31.854 -14.047  -5.194  1.00  0.00     0.005 C 
HETATM   18  C   UNL     1     -32.033 -13.352  -6.561  1.00  0.00    -0.014 C 
HETATM   19  C   UNL     1     -31.820 -14.414  -7.636  1.00  0.00     0.011 C 
ENDBRANCH  11  12
ENDBRANCH   9  11
ENDBRANCH   7   9
ENDBRANCH   2   6
BRANCH   3  20
HETATM   20  C   UNL     1     -36.468 -17.805 -12.855  1.00  0.00     0.049 C 
HETATM   21  C   UNL     1     -36.971 -18.003 -14.138  1.00  0.00    -0.036 C 
HETATM   22  C   UNL     1     -37.402 -16.901 -15.090  1.00  0.00     0.024 C 
HETATM   23  C   UNL     1     -37.121 -19.495 -14.382  1.00  0.00     0.115 C 
HETATM   24  C   UNL     1     -38.567 -17.414 -15.973  1.00  0.00     0.009 C 
HETATM   25  C   UNL     1     -38.294 -18.845 -16.500  1.00  0.00     0.003 C 
HETATM   26  C   UNL     1     -38.315 -19.797 -15.294  1.00  0.00     0.030 C 
HETATM   27  N   UNL     1     -37.202 -20.014 -13.011  1.00  0.00    -0.348 N 
HETATM   28  C   UNL     1     -36.915 -19.001 -12.106  1.00  0.00     0.253 C 
ATOM     29  HN  UNL     1     -37.434 -20.975 -12.761  1.00  0.00     0.163 HD
HETATM   30  O   UNL     1     -37.005 -19.077 -10.885  1.00  0.00    -0.268 OA
BRANCH  22  31
HETATM   31  C   UNL     1     -37.829 -15.614 -14.278  1.00  0.00     0.028 C 
HETATM   32  C   UNL     1     -36.564 -14.732 -13.955  1.00  0.00     0.030 C 
HETATM   33  C   UNL     1     -36.989 -13.422 -13.230  1.00  0.00     0.071 C 
HETATM   34  C   UNL     1     -38.068 -12.704 -14.074  1.00  0.00     0.319 C 
HETATM   35  N   UNL     1     -39.193 -13.594 -14.353  1.00  0.00    -0.049 N 
HETATM   36  C   UNL     1     -38.767 -14.751 -15.171  1.00  0.00     0.241 C 
ATOM     37  HN2 UNL     1     -39.969 -13.094 -14.786  1.00  0.00     0.280 HD
ATOM     38  HN1 UNL     1     -39.658 -13.891 -13.495  1.00  0.00     0.280 HD
BRANCH  34  39
HETATM   39  O   UNL     1     -38.555 -11.587 -13.356  1.00  0.00    -0.370 OA
ATOM     40  HO  UNL     1     -37.824 -11.008 -13.175  1.00  0.00     0.212 HD
ENDBRANCH  34  39
ENDBRANCH  22  31
ENDBRANCH   3  20
TORSDOF 8
