MODEL 1
REMARK VINA RESULT:      -7.1      0.000      0.000
REMARK  3 active torsions:
REMARK  status: ('A' for Active; 'I' for Inactive)
REMARK    1  A    between atoms: O_9  and  C_11 
REMARK    2  A    between atoms: C_11  and  O_13 
REMARK    3  A    between atoms: C_11  and  C_15 
ROOT
HETATM    1  C   UNL     1      15.299   5.102   0.197  1.00  0.00    -0.050 C 
HETATM    2  C   UNL     1      16.425   4.393  -0.172  1.00  0.00    -0.050 C 
HETATM    3  C   UNL     1      15.104   5.708   1.417  1.00  0.00     0.024 C 
HETATM    4  C   UNL     1      18.059   5.658   1.161  1.00  0.00     0.088 C 
HETATM    5  N   UNL     1      17.382   6.306   2.096  1.00  0.00    -0.375 N 
ATOM      6  HN  UNL     1      17.878   6.967   2.693  1.00  0.00     0.164 HD
HETATM    7  C   UNL     1      16.141   3.541  -1.367  1.00  0.00     0.049 C 
HETATM    8  C   UNL     1      16.079   6.125   2.282  1.00  0.00     0.088 C 
HETATM    9  C   UNL     1      14.740   3.950  -1.809  1.00  0.00     0.056 C 
HETATM   10  C   UNL     1      14.244   5.052  -0.869  1.00  0.00     0.049 C 
HETATM   11  C   UNL     1      17.706   4.692   0.262  1.00  0.00     0.024 C 
ENDROOT
BRANCH   9  12
HETATM   12  C   UNL     1      14.716   4.396  -3.270  1.00  0.00     0.159 C 
HETATM   13  C   UNL     1      13.313   4.670  -3.763  1.00  0.00     0.079 C 
BRANCH  12  14
HETATM   14  O   UNL     1      15.290   3.331  -4.009  1.00  0.00    -0.365 OA
ATOM     15  HO  UNL     1      16.087   3.623  -4.436  1.00  0.00     0.213 HD
ENDBRANCH  12  14
BRANCH  12  16
HETATM   16  O   UNL     1      15.499   5.531  -3.481  1.00  0.00    -0.365 OA
ATOM     17  HO  UNL     1      15.497   6.057  -2.690  1.00  0.00     0.213 HD
ENDBRANCH  12  16
ENDBRANCH   9  12
TORSDOF 3
ENDMDL
MODEL 2
REMARK VINA RESULT:      -6.9      3.138      5.213
REMARK  3 active torsions:
REMARK  status: ('A' for Active; 'I' for Inactive)
REMARK    1  A    between atoms: O_9  and  C_11 
REMARK    2  A    between atoms: C_11  and  O_13 
REMARK    3  A    between atoms: C_11  and  C_15 
ROOT
HETATM    1  C   UNL     1      15.072   4.488  -1.551  1.00  0.00    -0.050 C 
HETATM    2  C   UNL     1      13.796   4.793  -1.118  1.00  0.00    -0.050 C 
HETATM    3  C   UNL     1      15.393   3.990  -2.793  1.00  0.00     0.024 C 
HETATM    4  C   UNL     1      12.862   5.454  -3.295  1.00  0.00     0.088 C 
HETATM    5  N   UNL     1      13.653   4.949  -4.228  1.00  0.00    -0.375 N 
ATOM      6  HN  UNL     1      13.484   5.197  -5.203  1.00  0.00     0.164 HD
HETATM    7  C   UNL     1      13.761   4.908   0.372  1.00  0.00     0.049 C 
HETATM    8  C   UNL     1      14.659   4.129  -3.939  1.00  0.00     0.088 C 
HETATM    9  C   UNL     1      15.221   4.814   0.801  1.00  0.00     0.056 C 
HETATM   10  C   UNL     1      16.082   4.667  -0.455  1.00  0.00     0.049 C 
HETATM   11  C   UNL     1      12.793   5.276  -1.942  1.00  0.00     0.024 C 
ENDROOT
BRANCH   9  12
HETATM   12  C   UNL     1      15.641   6.020   1.641  1.00  0.00     0.159 C 
HETATM   13  C   UNL     1      15.531   5.751   3.125  1.00  0.00     0.079 C 
BRANCH  12  14
HETATM   14  O   UNL     1      14.766   7.072   1.272  1.00  0.00    -0.365 OA
ATOM     15  HO  UNL     1      15.090   7.899   1.610  1.00  0.00     0.213 HD
ENDBRANCH  12  14
BRANCH  12  16
HETATM   16  O   UNL     1      16.943   6.427   1.351  1.00  0.00    -0.365 OA
ATOM     17  HO  UNL     1      17.258   5.938   0.600  1.00  0.00     0.213 HD
ENDBRANCH  12  16
ENDBRANCH   9  12
TORSDOF 3
ENDMDL
MODEL 3
REMARK VINA RESULT:      -6.7      1.279      1.619
REMARK  3 active torsions:
REMARK  status: ('A' for Active; 'I' for Inactive)
REMARK    1  A    between atoms: O_9  and  C_11 
REMARK    2  A    between atoms: C_11  and  O_13 
REMARK    3  A    between atoms: C_11  and  C_15 
ROOT
HETATM    1  C   UNL     1      14.726   5.494   0.479  1.00  0.00    -0.050 C 
HETATM    2  C   UNL     1      15.499   4.694  -0.340  1.00  0.00    -0.050 C 
HETATM    3  C   UNL     1      15.038   5.845   1.773  1.00  0.00     0.024 C 
HETATM    4  C   UNL     1      17.696   5.329   0.562  1.00  0.00     0.088 C 
HETATM    5  N   UNL     1      17.489   5.867   1.753  1.00  0.00    -0.375 N 
ATOM      6  HN  UNL     1      18.277   6.284   2.249  1.00  0.00     0.164 HD
HETATM    7  C   UNL     1      14.691   4.186  -1.491  1.00  0.00     0.049 C 
HETATM    8  C   UNL     1      16.289   5.884   2.325  1.00  0.00     0.088 C 
HETATM    9  C   UNL     1      13.361   4.923  -1.384  1.00  0.00     0.056 C 
HETATM   10  C   UNL     1      13.429   5.864  -0.179  1.00  0.00     0.049 C 
HETATM   11  C   UNL     1      16.883   4.660  -0.308  1.00  0.00     0.024 C 
ENDROOT
BRANCH   9  12
HETATM   12  C   UNL     1      13.025   5.673  -2.673  1.00  0.00     0.159 C 
HETATM   13  C   UNL     1      11.955   4.974  -3.481  1.00  0.00     0.079 C 
BRANCH  12  14
HETATM   14  O   UNL     1      14.233   5.730  -3.413  1.00  0.00    -0.365 OA
ATOM     15  HO  UNL     1      14.451   4.867  -3.747  1.00  0.00     0.213 HD
ENDBRANCH  12  14
BRANCH  12  16
HETATM   16  O   UNL     1      12.618   6.983  -2.421  1.00  0.00    -0.365 OA
ATOM     17  HO  UNL     1      12.655   7.477  -3.232  1.00  0.00     0.213 HD
ENDBRANCH  12  16
ENDBRANCH   9  12
TORSDOF 3
ENDMDL
MODEL 4
REMARK VINA RESULT:      -6.3      2.160      3.357
REMARK  3 active torsions:
REMARK  status: ('A' for Active; 'I' for Inactive)
REMARK    1  A    between atoms: O_9  and  C_11 
REMARK    2  A    between atoms: C_11  and  O_13 
REMARK    3  A    between atoms: C_11  and  C_15 
ROOT
HETATM    1  C   UNL     1      13.379   4.861  -2.704  1.00  0.00    -0.050 C 
HETATM    2  C   UNL     1      14.554   4.188  -2.432  1.00  0.00    -0.050 C 
HETATM    3  C   UNL     1      12.468   5.283  -1.763  1.00  0.00     0.024 C 
HETATM    4  C   UNL     1      15.011   5.203  -0.239  1.00  0.00     0.088 C 
HETATM    5  N   UNL     1      13.874   5.721   0.196  1.00  0.00    -0.375 N 
ATOM      6  HN  UNL     1      13.881   6.274   1.053  1.00  0.00     0.164 HD
HETATM    7  C   UNL     1      15.080   3.529  -3.667  1.00  0.00     0.049 C 
HETATM    8  C   UNL     1      12.722   5.544  -0.444  1.00  0.00     0.088 C 
HETATM    9  C   UNL     1      14.176   4.032  -4.787  1.00  0.00     0.056 C 
HETATM   10  C   UNL     1      13.150   4.993  -4.181  1.00  0.00     0.049 C 
HETATM   11  C   UNL     1      15.317   4.389  -1.294  1.00  0.00     0.024 C 
ENDROOT
BRANCH   9  12
HETATM   12  C   UNL     1      14.979   4.690  -5.909  1.00  0.00     0.159 C 
HETATM   13  C   UNL     1      15.098   3.801  -7.126  1.00  0.00     0.079 C 
BRANCH  12  14
HETATM   14  O   UNL     1      16.264   4.945  -5.366  1.00  0.00    -0.365 OA
ATOM     15  HO  UNL     1      16.883   5.120  -6.065  1.00  0.00     0.213 HD
ENDBRANCH  12  14
BRANCH  12  16
HETATM   16  O   UNL     1      14.429   5.912  -6.294  1.00  0.00    -0.365 OA
ATOM     17  HO  UNL     1      14.793   6.599  -5.748  1.00  0.00     0.213 HD
ENDBRANCH  12  16
ENDBRANCH   9  12
TORSDOF 3
ENDMDL
MODEL 5
REMARK VINA RESULT:      -6.0      3.211      5.030
REMARK  3 active torsions:
REMARK  status: ('A' for Active; 'I' for Inactive)
REMARK    1  A    between atoms: O_9  and  C_11 
REMARK    2  A    between atoms: C_11  and  O_13 
REMARK    3  A    between atoms: C_11  and  C_15 
ROOT
HETATM    1  C   UNL     1      13.804   4.755  -2.235  1.00  0.00    -0.050 C 
HETATM    2  C   UNL     1      14.651   4.719  -3.325  1.00  0.00    -0.050 C 
HETATM    3  C   UNL     1      12.525   5.265  -2.237  1.00  0.00     0.024 C 
HETATM    4  C   UNL     1      12.931   4.473  -5.067  1.00  0.00     0.088 C 
HETATM    5  N   UNL     1      11.781   4.856  -4.536  1.00  0.00    -0.375 N 
ATOM      6  HN  UNL     1      10.925   4.734  -5.077  1.00  0.00     0.164 HD
HETATM    7  C   UNL     1      16.062   4.495  -2.887  1.00  0.00     0.049 C 
HETATM    8  C   UNL     1      11.703   5.393  -3.323  1.00  0.00     0.088 C 
HETATM    9  C   UNL     1      15.961   4.212  -1.392  1.00  0.00     0.056 C 
HETATM   10  C   UNL     1      14.484   4.258  -0.993  1.00  0.00     0.049 C 
HETATM   11  C   UNL     1      14.224   4.551  -4.633  1.00  0.00     0.024 C 
ENDROOT
BRANCH   9  12
HETATM   12  C   UNL     1      16.608   2.877  -1.024  1.00  0.00     0.159 C 
HETATM   13  C   UNL     1      17.988   3.053  -0.431  1.00  0.00     0.079 C 
BRANCH  12  14
HETATM   14  O   UNL     1      16.691   2.141  -2.234  1.00  0.00    -0.365 OA
ATOM     15  HO  UNL     1      15.903   2.272  -2.749  1.00  0.00     0.213 HD
ENDBRANCH  12  14
BRANCH  12  16
HETATM   16  O   UNL     1      15.823   2.146  -0.134  1.00  0.00    -0.365 OA
ATOM     17  HO  UNL     1      14.965   2.549  -0.078  1.00  0.00     0.213 HD
ENDBRANCH  12  16
ENDBRANCH   9  12
TORSDOF 3
ENDMDL
MODEL 6
REMARK VINA RESULT:      -5.7      2.921      4.754
REMARK  3 active torsions:
REMARK  status: ('A' for Active; 'I' for Inactive)
REMARK    1  A    between atoms: O_9  and  C_11 
REMARK    2  A    between atoms: C_11  and  O_13 
REMARK    3  A    between atoms: C_11  and  C_15 
ROOT
HETATM    1  C   UNL     1      15.309   4.044  -1.775  1.00  0.00    -0.050 C 
HETATM    2  C   UNL     1      14.708   4.149  -0.536  1.00  0.00    -0.050 C 
HETATM    3  C   UNL     1      14.657   4.118  -2.984  1.00  0.00     0.024 C 
HETATM    4  C   UNL     1      12.897   5.682  -1.180  1.00  0.00     0.088 C 
HETATM    5  N   UNL     1      12.778   5.614  -2.497  1.00  0.00    -0.375 N 
ATOM      6  HN  UNL     1      12.139   6.255  -2.967  1.00  0.00     0.164 HD
HETATM    7  C   UNL     1      15.610   3.619   0.532  1.00  0.00     0.049 C 
HETATM    8  C   UNL     1      13.463   4.740  -3.227  1.00  0.00     0.088 C 
HETATM    9  C   UNL     1      16.927   3.337  -0.180  1.00  0.00     0.056 C 
HETATM   10  C   UNL     1      16.771   3.730  -1.651  1.00  0.00     0.049 C 
HETATM   11  C   UNL     1      13.606   4.946  -0.274  1.00  0.00     0.024 C 
ENDROOT
BRANCH   9  12
HETATM   12  C   UNL     1      18.096   4.066   0.482  1.00  0.00     0.159 C 
HETATM   13  C   UNL     1      17.914   5.568   0.472  1.00  0.00     0.079 C 
BRANCH  12  14
HETATM   14  O   UNL     1      19.247   3.712  -0.265  1.00  0.00    -0.365 OA
ATOM     15  HO  UNL     1      19.259   4.186  -1.089  1.00  0.00     0.213 HD
ENDBRANCH  12  14
BRANCH  12  16
HETATM   16  O   UNL     1      18.295   3.644   1.797  1.00  0.00    -0.365 OA
ATOM     17  HO  UNL     1      18.289   4.403   2.368  1.00  0.00     0.213 HD
ENDBRANCH  12  16
ENDBRANCH   9  12
TORSDOF 3
ENDMDL
MODEL 7
REMARK VINA RESULT:      -5.4      3.039      4.622
REMARK  3 active torsions:
REMARK  status: ('A' for Active; 'I' for Inactive)
REMARK    1  A    between atoms: O_9  and  C_11 
REMARK    2  A    between atoms: C_11  and  O_13 
REMARK    3  A    between atoms: C_11  and  C_15 
ROOT
HETATM    1  C   UNL     1      13.248   4.767  -4.240  1.00  0.00    -0.050 C 
HETATM    2  C   UNL     1      14.355   4.048  -3.835  1.00  0.00    -0.050 C 
HETATM    3  C   UNL     1      12.200   5.140  -3.430  1.00  0.00     0.024 C 
HETATM    4  C   UNL     1      14.458   4.884  -1.524  1.00  0.00     0.088 C 
HETATM    5  N   UNL     1      13.271   5.395  -1.240  1.00  0.00    -0.375 N 
ATOM      6  HN  UNL     1      13.145   5.882  -0.353  1.00  0.00     0.164 HD
HETATM    7  C   UNL     1      15.068   3.472  -5.015  1.00  0.00     0.049 C 
HETATM    8  C   UNL     1      12.238   5.295  -2.071  1.00  0.00     0.088 C 
HETATM    9  C   UNL     1      14.365   4.079  -6.224  1.00  0.00     0.056 C 
HETATM   10  C   UNL     1      13.265   5.016  -5.720  1.00  0.00     0.049 C 
HETATM   11  C   UNL     1      14.923   4.145  -2.575  1.00  0.00     0.024 C 
ENDROOT
BRANCH   9  12
HETATM   12  C   UNL     1      15.348   4.800  -7.146  1.00  0.00     0.159 C 
HETATM   13  C   UNL     1      15.226   4.346  -8.583  1.00  0.00     0.079 C 
BRANCH  12  14
HETATM   14  O   UNL     1      16.640   4.494  -6.649  1.00  0.00    -0.365 OA
ATOM     15  HO  UNL     1      16.681   3.582  -6.387  1.00  0.00     0.213 HD
ENDBRANCH  12  14
BRANCH  12  16
HETATM   16  O   UNL     1      15.189   6.185  -7.095  1.00  0.00    -0.365 OA
ATOM     17  HO  UNL     1      14.282   6.397  -7.278  1.00  0.00     0.213 HD
ENDBRANCH  12  16
ENDBRANCH   9  12
TORSDOF 3
ENDMDL
MODEL 8
REMARK VINA RESULT:      -5.0      5.078      8.026
REMARK  3 active torsions:
REMARK  status: ('A' for Active; 'I' for Inactive)
REMARK    1  A    between atoms: O_9  and  C_11 
REMARK    2  A    between atoms: C_11  and  O_13 
REMARK    3  A    between atoms: C_11  and  C_15 
ROOT
HETATM    1  C   UNL     1      11.713   4.727  -6.401  1.00  0.00    -0.050 C 
HETATM    2  C   UNL     1      12.537   4.905  -7.495  1.00  0.00    -0.050 C 
HETATM    3  C   UNL     1      10.338   4.696  -6.437  1.00  0.00     0.024 C 
HETATM    4  C   UNL     1      11.096   3.822  -9.168  1.00  0.00     0.088 C 
HETATM    5  N   UNL     1       9.874   3.783  -8.664  1.00  0.00    -0.375 N 
ATOM      6  HN  UNL     1       9.147   3.280  -9.173  1.00  0.00     0.164 HD
HETATM    7  C   UNL     1      13.912   5.296  -7.059  1.00  0.00     0.049 C 
HETATM    8  C   UNL     1       9.560   4.376  -7.516  1.00  0.00     0.088 C 
HETATM    9  C   UNL     1      13.888   5.161  -5.541  1.00  0.00     0.056 C 
HETATM   10  C   UNL     1      12.499   4.672  -5.124  1.00  0.00     0.049 C 
HETATM   11  C   UNL     1      12.246   4.443  -8.768  1.00  0.00     0.024 C 
ENDROOT
BRANCH   9  12
HETATM   12  C   UNL     1      14.993   4.231  -5.038  1.00  0.00     0.159 C 
HETATM   13  C   UNL     1      14.918   4.006  -3.545  1.00  0.00     0.079 C 
BRANCH  12  14
HETATM   14  O   UNL     1      16.215   4.867  -5.373  1.00  0.00    -0.365 OA
ATOM     15  HO  UNL     1      16.269   5.714  -4.947  1.00  0.00     0.213 HD
ENDBRANCH  12  14
BRANCH  12  16
HETATM   16  O   UNL     1      14.965   2.994  -5.683  1.00  0.00    -0.365 OA
ATOM     17  HO  UNL     1      15.177   3.122  -6.601  1.00  0.00     0.213 HD
ENDBRANCH  12  16
ENDBRANCH   9  12
TORSDOF 3
ENDMDL
MODEL 9
REMARK VINA RESULT:      -4.9      2.847      3.972
REMARK  3 active torsions:
REMARK  status: ('A' for Active; 'I' for Inactive)
REMARK    1  A    between atoms: O_9  and  C_11 
REMARK    2  A    between atoms: C_11  and  O_13 
REMARK    3  A    between atoms: C_11  and  C_15 
ROOT
HETATM    1  C   UNL     1      17.290   4.943   1.104  1.00  0.00    -0.050 C 
HETATM    2  C   UNL     1      16.621   4.903  -0.104  1.00  0.00    -0.050 C 
HETATM    3  C   UNL     1      16.971   5.763   2.163  1.00  0.00     0.024 C 
HETATM    4  C   UNL     1      14.383   5.473   0.741  1.00  0.00     0.088 C 
HETATM    5  N   UNL     1      14.546   6.033   1.930  1.00  0.00    -0.375 N 
ATOM      6  HN  UNL     1      13.720   6.252   2.487  1.00  0.00     0.164 HD
HETATM    7  C   UNL     1      17.458   4.230  -1.144  1.00  0.00     0.049 C 
HETATM    8  C   UNL     1      15.747   6.318   2.421  1.00  0.00     0.088 C 
HETATM    9  C   UNL     1      18.663   3.692  -0.382  1.00  0.00     0.056 C 
HETATM   10  C   UNL     1      18.493   4.047   1.098  1.00  0.00     0.049 C 
HETATM   11  C   UNL     1      15.260   5.117  -0.244  1.00  0.00     0.024 C 
ENDROOT
BRANCH   9  12
HETATM   12  C   UNL     1      18.838   2.188  -0.589  1.00  0.00     0.159 C 
HETATM   13  C   UNL     1      17.602   1.542  -1.174  1.00  0.00     0.079 C 
BRANCH  12  14
HETATM   14  O   UNL     1      19.106   1.649   0.694  1.00  0.00    -0.365 OA
ATOM     15  HO  UNL     1      18.370   1.126   0.988  1.00  0.00     0.213 HD
ENDBRANCH  12  14
BRANCH  12  16
HETATM   16  O   UNL     1      19.929   1.899  -1.409  1.00  0.00    -0.365 OA
ATOM     17  HO  UNL     1      20.280   2.713  -1.751  1.00  0.00     0.213 HD
ENDBRANCH  12  16
ENDBRANCH   9  12
TORSDOF 3
ENDMDL
