REMARK  1 active torsions:
REMARK  status: ('A' for Active; 'I' for Inactive)
REMARK    1  A    between atoms: C_7  and  C_9 
ROOT
HETATM    1  C   UNL     1      18.500   4.873   1.788  1.00  0.00     0.000 C 
HETATM    2  C   UNL     1      17.220   5.318   1.619  1.00  0.00     0.001 C 
HETATM    3  C   UNL     1      19.371   4.373   0.875  1.00  0.00     0.000 C 
HETATM    4  C   UNL     1      16.634   4.079  -0.442  1.00  0.00    -0.026 C 
HETATM    5  C   UNL     1      17.743   3.250  -0.464  1.00  0.00     0.012 C 
HETATM    6  C   UNL     1      19.049   3.619  -0.239  1.00  0.00     0.001 C 
HETATM    7  C   UNL     1      16.376   4.976   0.593  1.00  0.00     0.012 C 
ENDROOT
BRANCH   4   8
HETATM    8  C   UNL     1      15.721   4.004  -1.539  1.00  0.00    -0.026 C 
HETATM    9  C   UNL     1      16.179   3.529  -2.753  1.00  0.00     0.012 C 
HETATM   10  C   UNL     1      15.788   3.879  -4.016  1.00  0.00     0.001 C 
HETATM   11  C   UNL     1      14.707   4.617  -4.353  1.00  0.00     0.000 C 
HETATM   12  C   UNL     1      13.703   5.070  -3.542  1.00  0.00     0.000 C 
HETATM   13  C   UNL     1      13.528   4.923  -2.189  1.00  0.00     0.001 C 
HETATM   14  C   UNL     1      14.393   4.321  -1.311  1.00  0.00     0.012 C 
ENDBRANCH   4   8
TORSDOF 1
