MODEL 1
REMARK VINA RESULT:      -7.7      0.000      0.000
REMARK  4 active torsions:
REMARK  status: ('A' for Active; 'I' for Inactive)
REMARK    1  A    between atoms: C_4  and  N_5 
REMARK       I    between atoms: N_5  and  C_20 
REMARK    2  A    between atoms: C_8  and  C_20 
REMARK    3  A    between atoms: C_11  and  N_24 
REMARK    4  A    between atoms: C_17  and  O_18 
ROOT
HETATM    1  C   UNL     1      16.256  42.598  33.094  1.00  0.00     0.044 C 
HETATM    2  C   UNL     1      18.103  44.293  33.753  1.00  0.00     0.010 C 
HETATM    3  C   UNL     1      17.609  42.299  35.022  1.00  0.00    -0.010 C 
HETATM    4  C   UNL     1      16.731  41.153  34.911  1.00  0.00     0.021 C 
HETATM    5  C   UNL     1      18.529  44.905  34.927  1.00  0.00     0.030 C 
HETATM    6  C   UNL     1      18.246  44.221  36.122  1.00  0.00     0.032 C 
HETATM    7  C   UNL     1      15.997  41.215  33.670  1.00  0.00     0.050 C 
HETATM    8  C   UNL     1      18.347  42.813  36.093  1.00  0.00    -0.024 C 
HETATM    9  C   UNL     1      19.206  41.986  36.998  1.00  0.00     0.051 C 
HETATM   10  C   UNL     1      17.393  43.125  33.911  1.00  0.00    -0.046 C 
ENDROOT
BRANCH   4  11
HETATM   11  C   UNL     1      16.860  39.988  35.776  1.00  0.00     0.253 C 
HETATM   12  N   UNL     1      17.858  39.117  35.457  1.00  0.00    -0.323 N 
ATOM     13  HN  UNL     1      18.323  39.256  34.560  1.00  0.00     0.169 HD
HETATM   14  O   UNL     1      16.077  39.788  36.688  1.00  0.00    -0.268 OA
BRANCH  12  15
HETATM   15  C   UNL     1      18.312  38.039  36.253  1.00  0.00     0.035 A 
HETATM   16  C   UNL     1      17.923  36.748  35.936  1.00  0.00     0.039 A 
HETATM   17  C   UNL     1      18.398  35.652  36.631  1.00  0.00    -0.027 A 
HETATM   18  C   UNL     1      17.977  34.255  36.296  1.00  0.00     0.051 C 
HETATM   19  C   UNL     1      19.295  35.863  37.684  1.00  0.00     0.071 A 
HETATM   20  C   UNL     1      19.646  37.157  38.053  1.00  0.00     0.039 A 
HETATM   21  C   UNL     1      19.192  38.242  37.308  1.00  0.00     0.032 A 
BRANCH  19  22
HETATM   22  O   UNL     1      19.832  34.760  38.300  1.00  0.00    -0.360 OA
ATOM     23  HO  UNL     1      19.794  33.896  37.907  1.00  0.00     0.217 HD
ENDBRANCH  19  22
ENDBRANCH  12  15
ENDBRANCH   4  11
BRANCH   6  24
HETATM   24  N   UNL     1      17.718  44.861  37.171  1.00  0.00    -0.399 N 
ATOM     25  HN2 UNL     1      17.770  44.474  38.113  1.00  0.00     0.156 HD
ATOM     26  HN1 UNL     1      17.120  45.677  37.040  1.00  0.00     0.156 HD
ENDBRANCH   6  24
TORSDOF 4
ENDMDL
MODEL 2
REMARK VINA RESULT:      -7.5      0.544      1.559
REMARK  4 active torsions:
REMARK  status: ('A' for Active; 'I' for Inactive)
REMARK    1  A    between atoms: C_4  and  N_5 
REMARK       I    between atoms: N_5  and  C_20 
REMARK    2  A    between atoms: C_8  and  C_20 
REMARK    3  A    between atoms: C_11  and  N_24 
REMARK    4  A    between atoms: C_17  and  O_18 
ROOT
HETATM    1  C   UNL     1      16.407  42.358  33.231  1.00  0.00     0.044 C 
HETATM    2  C   UNL     1      18.144  44.140  33.956  1.00  0.00     0.010 C 
HETATM    3  C   UNL     1      17.726  42.108  35.190  1.00  0.00    -0.010 C 
HETATM    4  C   UNL     1      16.913  40.918  35.044  1.00  0.00     0.021 C 
HETATM    5  C   UNL     1      18.508  44.759  35.147  1.00  0.00     0.030 C 
HETATM    6  C   UNL     1      18.232  44.047  36.327  1.00  0.00     0.032 C 
HETATM    7  C   UNL     1      16.209  40.956  33.786  1.00  0.00     0.050 C 
HETATM    8  C   UNL     1      18.408  42.647  36.285  1.00  0.00    -0.024 C 
HETATM    9  C   UNL     1      19.287  41.855  37.204  1.00  0.00     0.051 C 
HETATM   10  C   UNL     1      17.494  42.934  34.083  1.00  0.00    -0.046 C 
ENDROOT
BRANCH   4  11
HETATM   11  C   UNL     1      17.083  39.751  35.900  1.00  0.00     0.253 C 
HETATM   12  N   UNL     1      18.137  38.941  35.601  1.00  0.00    -0.323 N 
ATOM     13  HN  UNL     1      18.619  39.117  34.720  1.00  0.00     0.169 HD
HETATM   14  O   UNL     1      16.286  39.495  36.786  1.00  0.00    -0.268 OA
BRANCH  12  15
HETATM   15  C   UNL     1      18.627  37.880  36.397  1.00  0.00     0.035 A 
HETATM   16  C   UNL     1      19.243  38.163  37.606  1.00  0.00     0.039 A 
HETATM   17  C   UNL     1      19.669  37.162  38.459  1.00  0.00    -0.027 A 
HETATM   18  C   UNL     1      20.339  37.462  39.763  1.00  0.00     0.051 C 
HETATM   19  C   UNL     1      19.470  35.830  38.080  1.00  0.00     0.071 A 
HETATM   20  C   UNL     1      18.910  35.530  36.843  1.00  0.00     0.039 A 
HETATM   21  C   UNL     1      18.446  36.555  36.023  1.00  0.00     0.032 A 
BRANCH  19  22
HETATM   22  O   UNL     1      19.811  34.850  38.980  1.00  0.00    -0.360 OA
ATOM     23  HO  UNL     1      19.270  34.081  39.116  1.00  0.00     0.217 HD
ENDBRANCH  19  22
ENDBRANCH  12  15
ENDBRANCH   4  11
BRANCH   6  24
HETATM   24  N   UNL     1      17.644  44.646  37.369  1.00  0.00    -0.399 N 
ATOM     25  HN2 UNL     1      17.977  44.504  38.323  1.00  0.00     0.156 HD
ATOM     26  HN1 UNL     1      16.758  45.139  37.258  1.00  0.00     0.156 HD
ENDBRANCH   6  24
TORSDOF 4
ENDMDL
MODEL 3
REMARK VINA RESULT:      -7.5      3.082      4.829
REMARK  4 active torsions:
REMARK  status: ('A' for Active; 'I' for Inactive)
REMARK    1  A    between atoms: C_4  and  N_5 
REMARK       I    between atoms: N_5  and  C_20 
REMARK    2  A    between atoms: C_8  and  C_20 
REMARK    3  A    between atoms: C_11  and  N_24 
REMARK    4  A    between atoms: C_17  and  O_18 
ROOT
HETATM    1  C   UNL     1      21.348  40.812  41.314  1.00  0.00     0.044 C 
HETATM    2  C   UNL     1      21.152  43.027  39.983  1.00  0.00     0.010 C 
HETATM    3  C   UNL     1      20.199  40.937  39.239  1.00  0.00    -0.010 C 
HETATM    4  C   UNL     1      20.068  39.585  39.742  1.00  0.00     0.021 C 
HETATM    5  C   UNL     1      21.281  43.412  38.653  1.00  0.00     0.030 C 
HETATM    6  C   UNL     1      21.058  42.411  37.691  1.00  0.00     0.032 C 
HETATM    7  C   UNL     1      20.617  39.500  41.073  1.00  0.00     0.050 C 
HETATM    8  C   UNL     1      20.031  41.481  37.963  1.00  0.00    -0.024 C 
HETATM    9  C   UNL     1      18.863  41.194  37.071  1.00  0.00     0.051 C 
HETATM   10  C   UNL     1      20.888  41.693  40.197  1.00  0.00    -0.046 C 
ENDROOT
BRANCH   4  11
HETATM   11  C   UNL     1      19.207  38.598  39.103  1.00  0.00     0.253 C 
HETATM   12  N   UNL     1      19.803  37.802  38.171  1.00  0.00    -0.323 N 
ATOM     13  HN  UNL     1      20.744  38.061  37.877  1.00  0.00     0.169 HD
HETATM   14  O   UNL     1      18.015  38.543  39.353  1.00  0.00    -0.268 OA
BRANCH  12  15
HETATM   15  C   UNL     1      19.239  36.651  37.574  1.00  0.00     0.035 A 
HETATM   16  C   UNL     1      19.217  35.458  38.279  1.00  0.00     0.039 A 
HETATM   17  C   UNL     1      18.610  34.324  37.774  1.00  0.00    -0.027 A 
HETATM   18  C   UNL     1      18.588  33.032  38.530  1.00  0.00     0.051 C 
HETATM   19  C   UNL     1      18.005  34.392  36.514  1.00  0.00     0.071 A 
HETATM   20  C   UNL     1      18.073  35.563  35.769  1.00  0.00     0.039 A 
HETATM   21  C   UNL     1      18.648  36.706  36.318  1.00  0.00     0.032 A 
BRANCH  19  22
HETATM   22  O   UNL     1      17.323  33.286  36.070  1.00  0.00    -0.360 OA
ATOM     23  HO  UNL     1      17.228  32.506  36.604  1.00  0.00     0.217 HD
ENDBRANCH  19  22
ENDBRANCH  12  15
ENDBRANCH   4  11
BRANCH   6  24
HETATM   24  N   UNL     1      21.907  42.237  36.673  1.00  0.00    -0.399 N 
ATOM     25  HN2 UNL     1      22.574  41.465  36.662  1.00  0.00     0.156 HD
ATOM     26  HN1 UNL     1      22.017  42.951  35.953  1.00  0.00     0.156 HD
ENDBRANCH   6  24
TORSDOF 4
ENDMDL
MODEL 4
REMARK VINA RESULT:      -7.2      1.668      2.705
REMARK  4 active torsions:
REMARK  status: ('A' for Active; 'I' for Inactive)
REMARK    1  A    between atoms: C_4  and  N_5 
REMARK       I    between atoms: N_5  and  C_20 
REMARK    2  A    between atoms: C_8  and  C_20 
REMARK    3  A    between atoms: C_11  and  N_24 
REMARK    4  A    between atoms: C_17  and  O_18 
ROOT
HETATM    1  C   UNL     1      19.589  43.475  35.981  1.00  0.00     0.044 C 
HETATM    2  C   UNL     1      17.469  44.069  34.612  1.00  0.00     0.010 C 
HETATM    3  C   UNL     1      17.762  41.972  35.774  1.00  0.00    -0.010 C 
HETATM    4  C   UNL     1      18.744  41.364  36.647  1.00  0.00     0.021 C 
HETATM    5  C   UNL     1      16.654  43.416  33.693  1.00  0.00     0.030 C 
HETATM    6  C   UNL     1      16.637  42.012  33.764  1.00  0.00     0.032 C 
HETATM    7  C   UNL     1      19.803  42.304  36.927  1.00  0.00     0.050 C 
HETATM    8  C   UNL     1      16.692  41.436  35.051  1.00  0.00    -0.024 C 
HETATM    9  C   UNL     1      15.691  40.476  35.615  1.00  0.00     0.051 C 
HETATM   10  C   UNL     1      18.214  43.254  35.435  1.00  0.00    -0.046 C 
ENDROOT
BRANCH   4  11
HETATM   11  C   UNL     1      18.482  40.125  37.369  1.00  0.00     0.253 C 
HETATM   12  N   UNL     1      19.031  38.998  36.836  1.00  0.00    -0.323 N 
ATOM     13  HN  UNL     1      19.435  39.078  35.903  1.00  0.00     0.169 HD
HETATM   14  O   UNL     1      17.762  40.107  38.352  1.00  0.00    -0.268 OA
BRANCH  12  15
HETATM   15  C   UNL     1      19.094  37.728  37.454  1.00  0.00     0.035 A 
HETATM   16  C   UNL     1      18.422  36.659  36.885  1.00  0.00     0.039 A 
HETATM   17  C   UNL     1      18.513  35.381  37.403  1.00  0.00    -0.027 A 
HETATM   18  C   UNL     1      17.784  34.223  36.794  1.00  0.00     0.051 C 
HETATM   19  C   UNL     1      19.307  35.172  38.536  1.00  0.00     0.071 A 
HETATM   20  C   UNL     1      19.938  36.245  39.154  1.00  0.00     0.039 A 
HETATM   21  C   UNL     1      19.871  37.514  38.586  1.00  0.00     0.032 A 
BRANCH  19  22
HETATM   22  O   UNL     1      19.464  33.882  38.980  1.00  0.00    -0.360 OA
ATOM     23  HO  UNL     1      18.767  33.415  39.425  1.00  0.00     0.217 HD
ENDBRANCH  19  22
ENDBRANCH  12  15
ENDBRANCH   4  11
BRANCH   6  24
HETATM   24  N   UNL     1      16.764  41.268  32.659  1.00  0.00    -0.399 N 
ATOM     25  HN2 UNL     1      17.350  41.567  31.880  1.00  0.00     0.156 HD
ATOM     26  HN1 UNL     1      16.163  40.459  32.502  1.00  0.00     0.156 HD
ENDBRANCH   6  24
TORSDOF 4
ENDMDL
MODEL 5
REMARK VINA RESULT:      -7.2      2.307      7.105
REMARK  4 active torsions:
REMARK  status: ('A' for Active; 'I' for Inactive)
REMARK    1  A    between atoms: C_4  and  N_5 
REMARK       I    between atoms: N_5  and  C_20 
REMARK    2  A    between atoms: C_8  and  C_20 
REMARK    3  A    between atoms: C_11  and  N_24 
REMARK    4  A    between atoms: C_17  and  O_18 
ROOT
HETATM    1  C   UNL     1      18.907  38.339  40.802  1.00  0.00     0.044 C 
HETATM    2  C   UNL     1      20.520  36.662  39.662  1.00  0.00     0.010 C 
HETATM    3  C   UNL     1      18.756  37.821  38.490  1.00  0.00    -0.010 C 
HETATM    4  C   UNL     1      17.760  38.829  38.787  1.00  0.00     0.021 C 
HETATM    5  C   UNL     1      20.401  35.615  38.755  1.00  0.00     0.030 C 
HETATM    6  C   UNL     1      19.287  35.659  37.898  1.00  0.00     0.032 C 
HETATM    7  C   UNL     1      17.916  39.288  40.146  1.00  0.00     0.050 C 
HETATM    8  C   UNL     1      18.896  36.929  37.422  1.00  0.00    -0.024 C 
HETATM    9  C   UNL     1      18.758  37.311  35.981  1.00  0.00     0.051 C 
HETATM   10  C   UNL     1      19.494  37.579  39.656  1.00  0.00    -0.046 C 
ENDROOT
BRANCH   4  11
HETATM   11  C   UNL     1      16.977  39.479  37.745  1.00  0.00     0.253 C 
HETATM   12  N   UNL     1      17.581  40.520  37.108  1.00  0.00    -0.323 N 
ATOM     13  HN  UNL     1      18.451  40.866  37.512  1.00  0.00     0.169 HD
HETATM   14  O   UNL     1      15.829  39.139  37.512  1.00  0.00    -0.268 OA
BRANCH  12  15
HETATM   15  C   UNL     1      17.116  41.168  35.939  1.00  0.00     0.035 A 
HETATM   16  C   UNL     1      17.307  40.567  34.705  1.00  0.00     0.039 A 
HETATM   17  C   UNL     1      16.805  41.117  33.541  1.00  0.00    -0.027 A 
HETATM   18  C   UNL     1      17.013  40.475  32.205  1.00  0.00     0.051 C 
HETATM   19  C   UNL     1      16.086  42.315  33.622  1.00  0.00     0.071 A 
HETATM   20  C   UNL     1      15.940  42.961  34.844  1.00  0.00     0.039 A 
HETATM   21  C   UNL     1      16.413  42.364  36.009  1.00  0.00     0.032 A 
BRANCH  19  22
HETATM   22  O   UNL     1      15.512  42.797  32.471  1.00  0.00    -0.360 OA
ATOM     23  HO  UNL     1      16.034  43.125  31.748  1.00  0.00     0.217 HD
ENDBRANCH  19  22
ENDBRANCH  12  15
ENDBRANCH   4  11
BRANCH   6  24
HETATM   24  N   UNL     1      18.524  34.576  37.707  1.00  0.00    -0.399 N 
ATOM     25  HN2 UNL     1      18.885  33.636  37.867  1.00  0.00     0.156 HD
ATOM     26  HN1 UNL     1      17.613  34.651  37.254  1.00  0.00     0.156 HD
ENDBRANCH   6  24
TORSDOF 4
ENDMDL
MODEL 6
REMARK VINA RESULT:      -6.8      4.093      5.950
REMARK  4 active torsions:
REMARK  status: ('A' for Active; 'I' for Inactive)
REMARK    1  A    between atoms: C_4  and  N_5 
REMARK       I    between atoms: N_5  and  C_20 
REMARK    2  A    between atoms: C_8  and  C_20 
REMARK    3  A    between atoms: C_11  and  N_24 
REMARK    4  A    between atoms: C_17  and  O_18 
ROOT
HETATM    1  C   UNL     1      20.846  41.940  39.715  1.00  0.00     0.044 C 
HETATM    2  C   UNL     1      22.630  40.911  41.289  1.00  0.00     0.010 C 
HETATM    3  C   UNL     1      20.811  39.647  40.329  1.00  0.00    -0.010 C 
HETATM    4  C   UNL     1      19.724  39.877  39.400  1.00  0.00     0.021 C 
HETATM    5  C   UNL     1      22.628  40.043  42.375  1.00  0.00     0.030 C 
HETATM    6  C   UNL     1      21.541  39.154  42.458  1.00  0.00     0.032 C 
HETATM    7  C   UNL     1      19.799  41.221  38.880  1.00  0.00     0.050 C 
HETATM    8  C   UNL     1      21.058  38.619  41.245  1.00  0.00    -0.024 C 
HETATM    9  C   UNL     1      20.933  37.161  40.929  1.00  0.00     0.051 C 
HETATM   10  C   UNL     1      21.530  40.841  40.465  1.00  0.00    -0.046 C 
ENDROOT
BRANCH   4  11
HETATM   11  C   UNL     1      18.921  38.789  38.858  1.00  0.00     0.253 C 
HETATM   12  N   UNL     1      19.519  38.027  37.901  1.00  0.00    -0.323 N 
ATOM     13  HN  UNL     1      20.402  38.369  37.524  1.00  0.00     0.169 HD
HETATM   14  O   UNL     1      17.765  38.622  39.207  1.00  0.00    -0.268 OA
BRANCH  12  15
HETATM   15  C   UNL     1      19.031  36.806  37.380  1.00  0.00     0.035 A 
HETATM   16  C   UNL     1      19.063  35.667  38.168  1.00  0.00     0.039 A 
HETATM   17  C   UNL     1      18.528  34.467  37.737  1.00  0.00    -0.027 A 
HETATM   18  C   UNL     1      18.564  33.233  38.583  1.00  0.00     0.051 C 
HETATM   19  C   UNL     1      17.942  34.412  36.468  1.00  0.00     0.071 A 
HETATM   20  C   UNL     1      17.958  35.530  35.642  1.00  0.00     0.039 A 
HETATM   21  C   UNL     1      18.459  36.739  36.115  1.00  0.00     0.032 A 
BRANCH  19  22
HETATM   22  O   UNL     1      17.331  33.240  36.095  1.00  0.00    -0.360 OA
ATOM     23  HO  UNL     1      16.535  32.933  36.513  1.00  0.00     0.217 HD
ENDBRANCH  19  22
ENDBRANCH  12  15
ENDBRANCH   4  11
BRANCH   6  24
HETATM   24  N   UNL     1      20.879  38.985  43.608  1.00  0.00    -0.399 N 
ATOM     25  HN2 UNL     1      21.355  39.035  44.509  1.00  0.00     0.156 HD
ATOM     26  HN1 UNL     1      19.914  38.654  43.613  1.00  0.00     0.156 HD
ENDBRANCH   6  24
TORSDOF 4
ENDMDL
MODEL 7
REMARK VINA RESULT:      -6.8      3.765      4.342
REMARK  4 active torsions:
REMARK  status: ('A' for Active; 'I' for Inactive)
REMARK    1  A    between atoms: C_4  and  N_5 
REMARK       I    between atoms: N_5  and  C_20 
REMARK    2  A    between atoms: C_8  and  C_20 
REMARK    3  A    between atoms: C_11  and  N_24 
REMARK    4  A    between atoms: C_17  and  O_18 
ROOT
HETATM    1  C   UNL     1      13.633  42.085  35.085  1.00  0.00     0.044 C 
HETATM    2  C   UNL     1      15.499  42.199  33.290  1.00  0.00     0.010 C 
HETATM    3  C   UNL     1      15.762  41.086  35.417  1.00  0.00    -0.010 C 
HETATM    4  C   UNL     1      14.943  40.787  36.573  1.00  0.00     0.021 C 
HETATM    5  C   UNL     1      16.867  42.449  33.281  1.00  0.00     0.030 C 
HETATM    6  C   UNL     1      17.556  42.185  34.478  1.00  0.00     0.032 C 
HETATM    7  C   UNL     1      13.592  41.241  36.350  1.00  0.00     0.050 C 
HETATM    8  C   UNL     1      17.145  41.054  35.215  1.00  0.00    -0.024 C 
HETATM    9  C   UNL     1      18.030  39.920  35.630  1.00  0.00     0.051 C 
HETATM   10  C   UNL     1      14.975  41.788  34.494  1.00  0.00    -0.046 C 
ENDROOT
BRANCH   4  11
HETATM   11  C   UNL     1      15.380  39.871  37.619  1.00  0.00     0.253 C 
HETATM   12  N   UNL     1      15.783  40.447  38.785  1.00  0.00    -0.323 N 
ATOM     13  HN  UNL     1      15.906  41.459  38.781  1.00  0.00     0.169 HD
HETATM   14  O   UNL     1      15.433  38.668  37.424  1.00  0.00    -0.268 OA
BRANCH  12  15
HETATM   15  C   UNL     1      16.050  39.775  40.000  1.00  0.00     0.035 A 
HETATM   16  C   UNL     1      14.994  39.369  40.800  1.00  0.00     0.039 A 
HETATM   17  C   UNL     1      15.194  38.641  41.958  1.00  0.00    -0.027 A 
HETATM   18  C   UNL     1      14.056  38.204  42.828  1.00  0.00     0.051 C 
HETATM   19  C   UNL     1      16.503  38.311  42.324  1.00  0.00     0.071 A 
HETATM   20  C   UNL     1      17.576  38.764  41.565  1.00  0.00     0.039 A 
HETATM   21  C   UNL     1      17.348  39.455  40.378  1.00  0.00     0.032 A 
BRANCH  19  22
HETATM   22  O   UNL     1      16.678  37.506  43.423  1.00  0.00    -0.360 OA
ATOM     23  HO  UNL     1      16.099  36.777  43.610  1.00  0.00     0.217 HD
ENDBRANCH  19  22
ENDBRANCH  12  15
ENDBRANCH   4  11
BRANCH   6  24
HETATM   24  N   UNL     1      18.418  43.073  34.984  1.00  0.00    -0.399 N 
ATOM     25  HN2 UNL     1      19.186  43.448  34.426  1.00  0.00     0.156 HD
ATOM     26  HN1 UNL     1      18.426  43.287  35.982  1.00  0.00     0.156 HD
ENDBRANCH   6  24
TORSDOF 4
ENDMDL
MODEL 8
REMARK VINA RESULT:      -6.7      3.960      6.548
REMARK  4 active torsions:
REMARK  status: ('A' for Active; 'I' for Inactive)
REMARK    1  A    between atoms: C_4  and  N_5 
REMARK       I    between atoms: N_5  and  C_20 
REMARK    2  A    between atoms: C_8  and  C_20 
REMARK    3  A    between atoms: C_11  and  N_24 
REMARK    4  A    between atoms: C_17  and  O_18 
ROOT
HETATM    1  C   UNL     1      15.864  42.568  33.235  1.00  0.00     0.044 C 
HETATM    2  C   UNL     1      13.977  41.845  34.859  1.00  0.00     0.010 C 
HETATM    3  C   UNL     1      16.233  42.331  35.569  1.00  0.00    -0.010 C 
HETATM    4  C   UNL     1      17.463  42.804  34.968  1.00  0.00     0.021 C 
HETATM    5  C   UNL     1      13.858  40.963  35.928  1.00  0.00     0.030 C 
HETATM    6  C   UNL     1      15.044  40.662  36.621  1.00  0.00     0.032 C 
HETATM    7  C   UNL     1      17.243  43.111  33.575  1.00  0.00     0.050 C 
HETATM    8  C   UNL     1      15.968  41.715  36.795  1.00  0.00    -0.024 C 
HETATM    9  C   UNL     1      16.504  42.188  38.110  1.00  0.00     0.051 C 
HETATM   10  C   UNL     1      15.256  42.262  34.567  1.00  0.00    -0.046 C 
ENDROOT
BRANCH   4  11
HETATM   11  C   UNL     1      18.613  43.209  35.766  1.00  0.00     0.253 C 
HETATM   12  N   UNL     1      18.517  44.423  36.376  1.00  0.00    -0.323 N 
ATOM     13  HN  UNL     1      17.736  45.018  36.100  1.00  0.00     0.169 HD
HETATM   14  O   UNL     1      19.617  42.519  35.824  1.00  0.00    -0.268 OA
BRANCH  12  15
HETATM   15  C   UNL     1      19.398  44.938  37.355  1.00  0.00     0.035 A 
HETATM   16  C   UNL     1      19.679  44.184  38.483  1.00  0.00     0.039 A 
HETATM   17  C   UNL     1      20.591  44.604  39.433  1.00  0.00    -0.027 A 
HETATM   18  C   UNL     1      20.894  43.795  40.656  1.00  0.00     0.051 C 
HETATM   19  C   UNL     1      21.243  45.827  39.241  1.00  0.00     0.071 A 
HETATM   20  C   UNL     1      20.926  46.623  38.146  1.00  0.00     0.039 A 
HETATM   21  C   UNL     1      20.040  46.157  37.179  1.00  0.00     0.032 A 
BRANCH  19  22
HETATM   22  O   UNL     1      22.216  46.183  40.142  1.00  0.00    -0.360 OA
ATOM     23  HO  UNL     1      22.148  45.970  41.065  1.00  0.00     0.217 HD
ENDBRANCH  19  22
ENDBRANCH  12  15
ENDBRANCH   4  11
BRANCH   6  24
HETATM   24  N   UNL     1      15.362  39.397  36.920  1.00  0.00    -0.399 N 
ATOM     25  HN2 UNL     1      16.333  39.092  36.980  1.00  0.00     0.156 HD
ATOM     26  HN1 UNL     1      14.647  38.670  36.948  1.00  0.00     0.156 HD
ENDBRANCH   6  24
TORSDOF 4
ENDMDL
MODEL 9
REMARK VINA RESULT:      -6.6      3.413      4.117
REMARK  4 active torsions:
REMARK  status: ('A' for Active; 'I' for Inactive)
REMARK    1  A    between atoms: C_4  and  N_5 
REMARK       I    between atoms: N_5  and  C_20 
REMARK    2  A    between atoms: C_8  and  C_20 
REMARK    3  A    between atoms: C_11  and  N_24 
REMARK    4  A    between atoms: C_17  and  O_18 
ROOT
HETATM    1  C   UNL     1      13.741  42.114  34.856  1.00  0.00     0.044 C 
HETATM    2  C   UNL     1      15.742  42.357  33.227  1.00  0.00     0.010 C 
HETATM    3  C   UNL     1      15.864  41.157  35.319  1.00  0.00    -0.010 C 
HETATM    4  C   UNL     1      14.963  40.785  36.389  1.00  0.00     0.021 C 
HETATM    5  C   UNL     1      17.099  42.643  33.341  1.00  0.00     0.030 C 
HETATM    6  C   UNL     1      17.695  42.343  34.578  1.00  0.00     0.032 C 
HETATM    7  C   UNL     1      13.622  41.214  36.075  1.00  0.00     0.050 C 
HETATM    8  C   UNL     1      17.260  41.170  35.231  1.00  0.00    -0.024 C 
HETATM    9  C   UNL     1      18.142  40.042  35.668  1.00  0.00     0.051 C 
HETATM   10  C   UNL     1      15.134  41.879  34.365  1.00  0.00    -0.046 C 
ENDROOT
BRANCH   4  11
HETATM   11  C   UNL     1      15.341  39.834  37.428  1.00  0.00     0.253 C 
HETATM   12  N   UNL     1      15.847  40.372  38.572  1.00  0.00    -0.323 N 
ATOM     13  HN  UNL     1      16.074  41.366  38.553  1.00  0.00     0.169 HD
HETATM   14  O   UNL     1      15.260  38.632  37.244  1.00  0.00    -0.268 OA
BRANCH  12  15
HETATM   15  C   UNL     1      16.086  39.683  39.784  1.00  0.00     0.035 A 
HETATM   16  C   UNL     1      17.381  39.322  40.118  1.00  0.00     0.039 A 
HETATM   17  C   UNL     1      17.682  38.718  41.324  1.00  0.00    -0.027 A 
HETATM   18  C   UNL     1      19.079  38.322  41.688  1.00  0.00     0.051 C 
HETATM   19  C   UNL     1      16.641  38.466  42.225  1.00  0.00     0.071 A 
HETATM   20  C   UNL     1      15.329  38.766  41.878  1.00  0.00     0.039 A 
HETATM   21  C   UNL     1      15.057  39.418  40.678  1.00  0.00     0.032 A 
BRANCH  19  22
HETATM   22  O   UNL     1      16.969  37.954  43.456  1.00  0.00    -0.360 OA
ATOM     23  HO  UNL     1      16.360  37.970  44.186  1.00  0.00     0.217 HD
ENDBRANCH  19  22
ENDBRANCH  12  15
ENDBRANCH   4  11
BRANCH   6  24
HETATM   24  N   UNL     1      18.487  43.230  35.191  1.00  0.00    -0.399 N 
ATOM     25  HN2 UNL     1      19.256  43.686  34.701  1.00  0.00     0.156 HD
ATOM     26  HN1 UNL     1      18.441  43.364  36.202  1.00  0.00     0.156 HD
ENDBRANCH   6  24
TORSDOF 4
ENDMDL
