MODEL 1
REMARK VINA RESULT:     -12.8      0.000      0.000
REMARK  1 active torsions:
REMARK  status: ('A' for Active; 'I' for Inactive)
REMARK    1  A    between atoms: C_4  and  C_6 
ROOT
HETATM    1  C   UNL     1     -31.641  21.149 -20.996  1.00  0.00     0.245 C 
HETATM    2  C   UNL     1     -28.770  21.114 -16.915  1.00  0.00    -0.008 C 
HETATM    3  C   UNL     1     -27.762  24.892 -15.494  1.00  0.00     0.030 C 
HETATM    4  C   UNL     1     -27.652  23.280 -17.370  1.00  0.00     0.014 C 
HETATM    5  C   UNL     1     -26.364  23.896 -17.713  1.00  0.00    -0.013 C 
HETATM    6  O   UNL     1     -32.573  21.293 -21.782  1.00  0.00    -0.268 OA
HETATM    7  N   UNL     1     -29.390  23.053 -15.622  1.00  0.00    -0.364 N 
ATOM      8  HN  UNL     1     -30.150  23.537 -15.146  1.00  0.00     0.165 HD
HETATM    9  N   UNL     1     -30.891  22.262 -20.668  1.00  0.00    -0.333 N 
ATOM     10  HN  UNL     1     -31.373  23.146 -20.833  1.00  0.00     0.168 HD
HETATM   11  C   UNL     1     -28.268  23.738 -16.142  1.00  0.00     0.044 C 
HETATM   12  C   UNL     1     -26.136  25.222 -17.277  1.00  0.00     0.013 C 
HETATM   13  C   UNL     1     -29.386  21.695 -15.802  1.00  0.00     0.100 C 
HETATM   14  C   UNL     1     -28.353  22.084 -17.917  1.00  0.00     0.001 C 
HETATM   15  C   UNL     1     -26.763  25.670 -16.095  1.00  0.00     0.003 C 
HETATM   16  C   UNL     1     -29.486  20.232 -18.836  1.00  0.00    -0.023 C 
HETATM   17  C   UNL     1     -30.485  19.473 -19.550  1.00  0.00     0.018 C 
HETATM   18  C   UNL     1     -31.401  19.815 -20.416  1.00  0.00     0.075 C 
HETATM   19  C   UNL     1     -29.605  22.409 -20.156  1.00  0.00     0.104 C 
HETATM   20  C   UNL     1     -29.117  21.651 -19.093  1.00  0.00     0.002 C 
HETATM   21  C   UNL     1     -28.977  19.880 -17.580  1.00  0.00     0.026 C 
ENDROOT
BRANCH   5  22
HETATM   22  C   UNL     1     -25.232  23.185 -18.400  1.00  0.00    -0.025 C 
HETATM   23  C   UNL     1     -24.170  22.661 -17.667  1.00  0.00     0.015 C 
HETATM   24  C   UNL     1     -22.939  22.243 -18.094  1.00  0.00     0.043 C 
HETATM   25  C   UNL     1     -22.335  22.113 -19.328  1.00  0.00     0.116 C 
HETATM   26  C   UNL     1     -22.931  22.267 -20.592  1.00  0.00     0.042 C 
HETATM   27  F   UNL     1     -21.072  21.636 -19.303  1.00  0.00    -0.206 F 
HETATM   28  C   UNL     1     -24.189  22.848 -20.736  1.00  0.00     0.004 C 
HETATM   29  C   UNL     1     -25.133  23.249 -19.806  1.00  0.00     0.012 C 
ENDBRANCH   5  22
TORSDOF 1
ENDMDL
MODEL 2
REMARK VINA RESULT:     -12.2      0.654      1.291
REMARK  1 active torsions:
REMARK  status: ('A' for Active; 'I' for Inactive)
REMARK    1  A    between atoms: C_4  and  C_6 
ROOT
HETATM    1  C   UNL     1     -31.645  21.237 -21.019  1.00  0.00     0.245 C 
HETATM    2  C   UNL     1     -28.720  21.121 -16.978  1.00  0.00    -0.008 C 
HETATM    3  C   UNL     1     -27.760  24.868 -15.447  1.00  0.00     0.030 C 
HETATM    4  C   UNL     1     -27.647  23.320 -17.376  1.00  0.00     0.014 C 
HETATM    5  C   UNL     1     -26.374  23.970 -17.715  1.00  0.00    -0.013 C 
HETATM    6  O   UNL     1     -32.591  21.390 -21.787  1.00  0.00    -0.268 OA
HETATM    7  N   UNL     1     -29.356  23.005 -15.615  1.00  0.00    -0.364 N 
ATOM      8  HN  UNL     1     -30.118  23.460 -15.114  1.00  0.00     0.165 HD
HETATM    9  N   UNL     1     -30.911  22.352 -20.664  1.00  0.00    -0.333 N 
ATOM     10  HN  UNL     1     -31.410  23.232 -20.794  1.00  0.00     0.168 HD
HETATM   11  C   UNL     1     -28.253  23.727 -16.126  1.00  0.00     0.044 C 
HETATM   12  C   UNL     1     -26.164  25.286 -17.239  1.00  0.00     0.013 C 
HETATM   13  C   UNL     1     -29.331  21.654 -15.839  1.00  0.00     0.100 C 
HETATM   14  C   UNL     1     -28.333  22.131 -17.953  1.00  0.00     0.001 C 
HETATM   15  C   UNL     1     -26.782  25.683 -16.036  1.00  0.00     0.003 C 
HETATM   16  C   UNL     1     -29.446  20.289 -18.918  1.00  0.00    -0.023 C 
HETATM   17  C   UNL     1     -30.441  19.535 -19.644  1.00  0.00     0.018 C 
HETATM   18  C   UNL     1     -31.374  19.890 -20.486  1.00  0.00     0.075 C 
HETATM   19  C   UNL     1     -29.621  22.505 -20.164  1.00  0.00     0.104 C 
HETATM   20  C   UNL     1     -29.106  21.722 -19.133  1.00  0.00     0.002 C 
HETATM   21  C   UNL     1     -28.913  19.905 -17.681  1.00  0.00     0.026 C 
ENDROOT
BRANCH   5  22
HETATM   22  C   UNL     1     -25.239  23.302 -18.440  1.00  0.00    -0.025 C 
HETATM   23  C   UNL     1     -25.275  23.140 -19.824  1.00  0.00     0.015 C 
HETATM   24  C   UNL     1     -24.513  22.335 -20.626  1.00  0.00     0.043 C 
HETATM   25  C   UNL     1     -23.444  21.489 -20.414  1.00  0.00     0.116 C 
HETATM   26  C   UNL     1     -22.709  21.322 -19.227  1.00  0.00     0.042 C 
HETATM   27  F   UNL     1     -22.968  20.875 -21.518  1.00  0.00    -0.206 F 
HETATM   28  C   UNL     1     -23.167  21.824 -18.011  1.00  0.00     0.004 C 
HETATM   29  C   UNL     1     -24.245  22.635 -17.695  1.00  0.00     0.012 C 
ENDBRANCH   5  22
TORSDOF 1
ENDMDL
MODEL 3
REMARK VINA RESULT:     -11.1      1.241      1.491
REMARK  1 active torsions:
REMARK  status: ('A' for Active; 'I' for Inactive)
REMARK    1  A    between atoms: C_4  and  C_6 
ROOT
HETATM    1  C   UNL     1     -31.152  22.314 -22.801  1.00  0.00     0.245 C 
HETATM    2  C   UNL     1     -28.809  20.796 -18.665  1.00  0.00    -0.008 C 
HETATM    3  C   UNL     1     -27.821  23.860 -16.031  1.00  0.00     0.030 C 
HETATM    4  C   UNL     1     -27.551  22.900 -18.298  1.00  0.00     0.014 C 
HETATM    5  C   UNL     1     -26.205  23.487 -18.294  1.00  0.00    -0.013 C 
HETATM    6  O   UNL     1     -31.974  22.767 -23.594  1.00  0.00    -0.268 OA
HETATM    7  N   UNL     1     -29.499  22.286 -16.900  1.00  0.00    -0.364 N 
ATOM      8  HN  UNL     1     -30.290  22.659 -16.376  1.00  0.00     0.165 HD
HETATM    9  N   UNL     1     -30.401  23.209 -22.064  1.00  0.00    -0.333 N 
ATOM     10  HN  UNL     1     -30.820  24.136 -21.991  1.00  0.00     0.168 HD
HETATM   11  C   UNL     1     -28.292  23.006 -17.058  1.00  0.00     0.044 C 
HETATM   12  C   UNL     1     -25.975  24.593 -17.442  1.00  0.00     0.013 C 
HETATM   13  C   UNL     1     -29.532  21.054 -17.496  1.00  0.00     0.100 C 
HETATM   14  C   UNL     1     -28.231  21.991 -19.263  1.00  0.00     0.001 C 
HETATM   15  C   UNL     1     -26.722  24.703 -16.251  1.00  0.00     0.003 C 
HETATM   16  C   UNL     1     -29.322  20.608 -20.830  1.00  0.00    -0.023 C 
HETATM   17  C   UNL     1     -30.257  20.188 -21.846  1.00  0.00     0.018 C 
HETATM   18  C   UNL     1     -31.044  20.852 -22.649  1.00  0.00     0.075 C 
HETATM   19  C   UNL     1     -29.183  23.088 -21.402  1.00  0.00     0.104 C 
HETATM   20  C   UNL     1     -28.863  22.003 -20.587  1.00  0.00     0.002 C 
HETATM   21  C   UNL     1     -28.986  19.847 -19.703  1.00  0.00     0.026 C 
ENDROOT
BRANCH   5  22
HETATM   22  C   UNL     1     -25.029  22.934 -19.050  1.00  0.00    -0.025 C 
HETATM   23  C   UNL     1     -23.924  22.422 -18.373  1.00  0.00     0.015 C 
HETATM   24  C   UNL     1     -22.669  22.142 -18.841  1.00  0.00     0.043 C 
HETATM   25  C   UNL     1     -22.068  22.179 -20.083  1.00  0.00     0.116 C 
HETATM   26  C   UNL     1     -22.685  22.412 -21.325  1.00  0.00     0.042 C 
HETATM   27  F   UNL     1     -20.773  21.799 -20.107  1.00  0.00    -0.206 F 
HETATM   28  C   UNL     1     -23.984  22.908 -21.409  1.00  0.00     0.004 C 
HETATM   29  C   UNL     1     -24.947  23.143 -20.442  1.00  0.00     0.012 C 
ENDBRANCH   5  22
TORSDOF 1
ENDMDL
MODEL 4
REMARK VINA RESULT:     -10.6      2.779      5.127
REMARK  1 active torsions:
REMARK  status: ('A' for Active; 'I' for Inactive)
REMARK    1  A    between atoms: C_4  and  C_6 
ROOT
HETATM    1  C   UNL     1     -30.492  18.534 -21.476  1.00  0.00     0.245 C 
HETATM    2  C   UNL     1     -27.917  22.750 -22.175  1.00  0.00    -0.008 C 
HETATM    3  C   UNL     1     -23.862  22.449 -21.296  1.00  0.00     0.030 C 
HETATM    4  C   UNL     1     -26.187  22.279 -20.462  1.00  0.00     0.014 C 
HETATM    5  C   UNL     1     -25.663  22.716 -19.161  1.00  0.00    -0.013 C 
HETATM    6  O   UNL     1     -30.931  17.390 -21.564  1.00  0.00    -0.268 OA
HETATM    7  N   UNL     1     -25.707  22.095 -22.883  1.00  0.00    -0.364 N 
ATOM      8  HN  UNL     1     -25.164  21.587 -23.580  1.00  0.00     0.165 HD
HETATM    9  N   UNL     1     -29.278  18.715 -20.843  1.00  0.00    -0.333 N 
ATOM     10  HN  UNL     1     -28.702  17.874 -20.808  1.00  0.00     0.168 HD
HETATM   11  C   UNL     1     -25.244  22.287 -21.561  1.00  0.00     0.044 C 
HETATM   12  C   UNL     1     -24.292  22.487 -18.898  1.00  0.00     0.013 C 
HETATM   13  C   UNL     1     -26.933  22.637 -23.163  1.00  0.00     0.100 C 
HETATM   14  C   UNL     1     -27.580  22.054 -20.941  1.00  0.00     0.001 C 
HETATM   15  C   UNL     1     -23.384  22.467 -19.977  1.00  0.00     0.003 C 
HETATM   16  C   UNL     1     -29.782  21.633 -21.670  1.00  0.00    -0.023 C 
HETATM   17  C   UNL     1     -30.946  20.904 -22.118  1.00  0.00     0.018 C 
HETATM   18  C   UNL     1     -31.259  19.637 -22.084  1.00  0.00     0.075 C 
HETATM   19  C   UNL     1     -28.690  19.826 -20.244  1.00  0.00     0.104 C 
HETATM   20  C   UNL     1     -28.682  21.092 -20.827  1.00  0.00     0.002 C 
HETATM   21  C   UNL     1     -29.330  22.827 -22.245  1.00  0.00     0.026 C 
ENDROOT
BRANCH   5  22
HETATM   22  C   UNL     1     -26.452  23.479 -18.134  1.00  0.00    -0.025 C 
HETATM   23  C   UNL     1     -26.056  24.754 -17.736  1.00  0.00     0.015 C 
HETATM   24  C   UNL     1     -26.447  25.487 -16.648  1.00  0.00     0.043 C 
HETATM   25  C   UNL     1     -27.366  25.303 -15.635  1.00  0.00     0.116 C 
HETATM   26  C   UNL     1     -28.322  24.277 -15.525  1.00  0.00     0.042 C 
HETATM   27  F   UNL     1     -27.445  26.310 -14.740  1.00  0.00    -0.206 F 
HETATM   28  C   UNL     1     -28.266  23.142 -16.330  1.00  0.00     0.004 C 
HETATM   29  C   UNL     1     -27.459  22.812 -17.407  1.00  0.00     0.012 C 
ENDBRANCH   5  22
TORSDOF 1
ENDMDL
MODEL 5
REMARK VINA RESULT:      -9.9      2.911      4.849
REMARK  1 active torsions:
REMARK  status: ('A' for Active; 'I' for Inactive)
REMARK    1  A    between atoms: C_4  and  C_6 
ROOT
HETATM    1  C   UNL     1     -30.514  18.478 -20.043  1.00  0.00     0.245 C 
HETATM    2  C   UNL     1     -28.788  22.943 -21.450  1.00  0.00    -0.008 C 
HETATM    3  C   UNL     1     -26.420  22.867 -24.869  1.00  0.00     0.030 C 
HETATM    4  C   UNL     1     -26.731  22.090 -22.539  1.00  0.00     0.014 C 
HETATM    5  C   UNL     1     -25.265  22.065 -22.442  1.00  0.00    -0.013 C 
HETATM    6  O   UNL     1     -31.112  17.406 -19.990  1.00  0.00    -0.268 OA
HETATM    7  N   UNL     1     -28.661  22.903 -23.857  1.00  0.00    -0.364 N 
ATOM      8  HN  UNL     1     -29.182  22.774 -24.724  1.00  0.00     0.165 HD
HETATM    9  N   UNL     1     -29.407  18.564 -20.865  1.00  0.00    -0.333 N 
ATOM     10  HN  UNL     1     -29.384  17.856 -21.599  1.00  0.00     0.168 HD
HETATM   11  C   UNL     1     -27.275  22.638 -23.764  1.00  0.00     0.044 C 
HETATM   12  C   UNL     1     -24.532  21.936 -23.645  1.00  0.00     0.013 C 
HETATM   13  C   UNL     1     -29.256  23.345 -22.705  1.00  0.00     0.100 C 
HETATM   14  C   UNL     1     -27.793  21.882 -21.515  1.00  0.00     0.001 C 
HETATM   15  C   UNL     1     -25.083  22.447 -24.838  1.00  0.00     0.003 C 
HETATM   16  C   UNL     1     -29.467  21.483 -19.904  1.00  0.00    -0.023 C 
HETATM   17  C   UNL     1     -30.555  20.833 -19.212  1.00  0.00     0.018 C 
HETATM   18  C   UNL     1     -31.031  19.618 -19.264  1.00  0.00     0.075 C 
HETATM   19  C   UNL     1     -28.318  19.431 -20.884  1.00  0.00     0.104 C 
HETATM   20  C   UNL     1     -28.442  20.812 -20.748  1.00  0.00     0.002 C 
HETATM   21  C   UNL     1     -29.418  22.855 -20.183  1.00  0.00     0.026 C 
ENDROOT
BRANCH   5  22
HETATM   22  C   UNL     1     -24.489  22.270 -21.171  1.00  0.00    -0.025 C 
HETATM   23  C   UNL     1     -23.096  22.286 -21.182  1.00  0.00     0.015 C 
HETATM   24  C   UNL     1     -22.216  22.175 -20.141  1.00  0.00     0.043 C 
HETATM   25  C   UNL     1     -22.343  22.085 -18.770  1.00  0.00     0.116 C 
HETATM   26  C   UNL     1     -23.517  22.230 -18.009  1.00  0.00     0.042 C 
HETATM   27  F   UNL     1     -21.182  21.999 -18.088  1.00  0.00    -0.206 F 
HETATM   28  C   UNL     1     -24.776  22.223 -18.607  1.00  0.00     0.004 C 
HETATM   29  C   UNL     1     -25.167  22.216 -19.936  1.00  0.00     0.012 C 
ENDBRANCH   5  22
TORSDOF 1
ENDMDL
