REMARK  2 active torsions:
REMARK  status: ('A' for Active; 'I' for Inactive)
REMARK    1  A    between atoms: C_9  and  C_10 
REMARK    2  A    between atoms: O_12  and  C_14 
ROOT
HETATM    1  O   UNL     1      19.708 -16.206 -19.407  1.00  0.00    -0.372 OA
HETATM    2  C   UNL     1      18.428 -16.223 -16.154  1.00  0.00     0.018 C 
HETATM    3  C   UNL     1      17.808 -15.632 -17.432  1.00  0.00     0.030 C 
HETATM    4  C   UNL     1      20.652 -15.874 -17.185  1.00  0.00     0.043 C 
HETATM    5  C   UNL     1      18.768 -14.490 -17.860  1.00  0.00     0.067 C 
HETATM    6  C   UNL     1      18.356 -16.488 -19.795  1.00  0.00     0.184 C 
HETATM    7  C   UNL     1      20.019 -15.190 -18.437  1.00  0.00     0.133 C 
HETATM    8  C   UNL     1      17.489 -16.649 -18.524  1.00  0.00     0.156 C 
HETATM    9  N   UNL     1      19.149 -12.873 -15.896  1.00  0.00    -0.405 N 
ATOM     10  HN1 UNL     1      19.516 -12.582 -14.990  1.00  0.00     0.155 HD
ATOM     11  HN2 UNL     1      18.864 -11.947 -16.216  1.00  0.00     0.155 HD
HETATM   12  C   UNL     1      19.749 -15.423 -16.007  1.00  0.00     0.034 C 
HETATM   13  C   UNL     1      19.326 -14.047 -16.483  1.00  0.00    -0.009 C 
ENDROOT
BRANCH   6  14
HETATM   14  C   UNL     1      18.221 -17.817 -20.508  1.00  0.00    -0.027 C 
HETATM   15  C   UNL     1      19.320 -18.609 -20.793  1.00  0.00     0.010 C 
HETATM   16  C   UNL     1      19.138 -19.907 -21.261  1.00  0.00     0.001 C 
HETATM   17  C   UNL     1      17.863 -20.445 -21.339  1.00  0.00     0.000 C 
HETATM   18  C   UNL     1      16.762 -19.654 -21.039  1.00  0.00     0.001 C 
HETATM   19  C   UNL     1      16.952 -18.285 -20.850  1.00  0.00     0.010 C 
ENDBRANCH   6  14
BRANCH   8  20
HETATM   20  O   UNL     1      16.115 -16.519 -18.896  1.00  0.00    -0.392 OA
ATOM     21  HO  UNL     1      15.916 -17.152 -19.576  1.00  0.00     0.210 HD
ENDBRANCH   8  20
TORSDOF 2
