REMARK  3 active torsions:
REMARK  status: ('A' for Active; 'I' for Inactive)
REMARK    1  A    between atoms: O_2  and  C_16 
REMARK    2  A    between atoms: N_13  and  C_19 
REMARK    3  A    between atoms: C_16  and  O_20 
ROOT
HETATM    1  C   UNL     1      18.019   8.251 120.966  1.00  0.00     0.249 C 
HETATM    2  C   UNL     1      18.808   8.958 118.645  1.00  0.00     0.078 C 
HETATM    3  N   UNL     1      16.615   7.821 119.671  1.00  0.00    -0.334 N 
ATOM      4  HN  UNL     1      16.011   7.403 118.964  1.00  0.00     0.164 HD
HETATM    5  N   UNL     1      17.210  10.252 119.932  1.00  0.00     0.017 N 
ATOM      6  HN1 UNL     1      16.827  10.357 120.872  1.00  0.00     0.287 HD
ATOM      7  HN2 UNL     1      16.371  10.525 119.420  1.00  0.00     0.287 HD
HETATM    8  C   UNL     1      17.655   8.862 119.631  1.00  0.00     0.273 C 
HETATM    9  C   UNL     1      18.358  11.130 119.673  1.00  0.00     0.337 C 
HETATM   10  C   UNL     1      19.229  10.414 118.631  1.00  0.00     0.106 C 
HETATM   11  C   UNL     1      16.770   7.622 121.051  1.00  0.00     0.155 C 
HETATM   12  O   UNL     1      18.973   8.305 121.708  1.00  0.00    -0.284 OA
ENDROOT
BRANCH  11  13
HETATM   13  N   UNL     1      15.874   7.363 122.073  1.00  0.00    -0.346 N 
HETATM   14  C   UNL     1      14.557   7.159 122.058  1.00  0.00    -0.004 C 
HETATM   15  C   UNL     1      13.819   6.020 121.457  1.00  0.00     0.060 C 
HETATM   16  C   UNL     1      13.622   8.061 122.831  1.00  0.00     0.130 C 
HETATM   17  C   UNL     1      12.364   6.442 121.480  1.00  0.00     0.084 C 
HETATM   18  C   UNL     1      12.272   7.494 122.534  1.00  0.00     0.132 C 
HETATM   19  O   UNL     1      11.206   7.964 122.982  1.00  0.00    -0.298 OA
ATOM     20  HN  UNL     1      16.295   7.321 123.001  1.00  0.00     0.167 HD
ENDBRANCH  11  13
BRANCH   9  21
HETATM   21  O   UNL     1      19.026  11.228 120.887  1.00  0.00    -0.344 OA
ATOM     22  HO  UNL     1      19.769  11.796 120.719  1.00  0.00     0.215 HD
ENDBRANCH   9  21
BRANCH   9  23
HETATM   23  O   UNL     1      17.972  12.378 119.225  1.00  0.00    -0.344 OA
ATOM     24  HO  UNL     1      17.515  12.311 118.395  1.00  0.00     0.215 HD
ENDBRANCH   9  23
TORSDOF 3
