ATOM      1  N   ASP A 192       9.845   6.528 118.910  1.00 32.97    -0.068 N 
ATOM      2  HN1 ASP A 192      10.721   6.154 119.275  1.00  0.00     0.275 HD
ATOM      3  HN2 ASP A 192       9.329   5.849 118.350  1.00  0.00     0.275 HD
ATOM      4  HN3 ASP A 192       9.143   6.667 119.636  1.00  0.00     0.275 HD
ATOM      5  CA  ASP A 192      10.153   7.772 118.164  1.00 35.90     0.254 C 
ATOM      6  C   ASP A 192       8.821   8.341 117.609  1.00 32.15     0.264 C 
ATOM      7  O   ASP A 192       8.127   7.669 116.891  1.00 34.28    -0.305 OA
ATOM      8  CB  ASP A 192      11.207   7.479 117.022  1.00 39.93     0.153 C 
ATOM      9  CG  ASP A 192      12.608   6.964 117.567  1.00 45.92     0.174 C 
ATOM     10  OD1 ASP A 192      13.162   7.671 118.438  1.00 52.07    -0.648 OA
ATOM     11  OD2 ASP A 192      13.169   5.871 117.161  1.00 57.38    -0.648 OA
ATOM     12  N   LYS A 234      12.712  19.237 119.430  1.00 31.55    -0.069 N 
ATOM     13  HN1 LYS A 234      12.782  19.318 118.416  1.00  0.00     0.275 HD
ATOM     14  HN2 LYS A 234      13.261  19.942 119.922  1.00  0.00     0.275 HD
ATOM     15  HN3 LYS A 234      11.795  19.507 119.785  1.00  0.00     0.275 HD
ATOM     16  CA  LYS A 234      13.079  17.887 119.796  1.00 31.37     0.244 C 
ATOM     17  C   LYS A 234      12.975  17.767 121.294  1.00 26.63     0.263 C 
ATOM     18  O   LYS A 234      13.508  18.569 122.052  1.00 25.01    -0.305 OA
ATOM     19  CB  LYS A 234      14.494  17.597 119.299  1.00 35.27     0.040 C 
ATOM     20  CG  LYS A 234      15.053  16.194 119.527  1.00 39.49     0.004 C 
ATOM     21  CD  LYS A 234      16.180  15.897 118.513  1.00 43.07     0.027 C 
ATOM     22  CE  LYS A 234      17.305  15.000 119.041  1.00 47.58     0.229 C 
ATOM     23  NZ  LYS A 234      18.417  15.712 119.792  1.00 46.91    -0.079 N 
ATOM     24  HZ1 LYS A 234      19.166  15.115 120.143  1.00  0.00     0.274 HD
ATOM     25  HZ2 LYS A 234      18.024  16.263 120.555  1.00  0.00     0.274 HD
ATOM     26  HZ3 LYS A 234      18.807  16.456 119.213  1.00  0.00     0.274 HD
ATOM     27  N   MET A 236      13.434  14.771 124.313  1.00 23.92    -0.069 N 
ATOM     28  HN1 MET A 236      13.589  14.948 123.320  1.00  0.00     0.275 HD
ATOM     29  HN2 MET A 236      13.889  15.468 124.902  1.00  0.00     0.275 HD
ATOM     30  HN3 MET A 236      12.469  14.952 124.588  1.00  0.00     0.275 HD
ATOM     31  CA  MET A 236      13.860  13.392 124.653  1.00 24.08     0.244 C 
ATOM     32  C   MET A 236      13.633  13.133 126.106  1.00 22.87     0.263 C 
ATOM     33  O   MET A 236      14.023  13.949 126.953  1.00 23.17    -0.305 OA
ATOM     34  CB  MET A 236      15.349  13.183 124.368  1.00 27.49     0.050 C 
ATOM     35  CG  MET A 236      15.704  13.342 122.884  1.00 33.17     0.076 C 
ATOM     36  SD  MET A 236      17.470  13.559 122.582  1.00 40.45    -0.173 SA
ATOM     37  CE  MET A 236      18.115  12.119 123.475  1.00 37.15     0.089 C 
ATOM     38  N   ASP A 256      11.361   9.620 122.141  1.00 27.88    -0.068 N 
ATOM     39  HN1 ASP A 256      12.194   9.241 122.592  1.00  0.00     0.275 HD
ATOM     40  HN2 ASP A 256      10.889   8.941 121.545  1.00  0.00     0.275 HD
ATOM     41  HN3 ASP A 256      10.594   9.781 122.794  1.00  0.00     0.275 HD
ATOM     42  CA  ASP A 256      11.761  10.833 121.419  1.00 30.67     0.254 C 
ATOM     43  C   ASP A 256      10.508  11.403 120.740  1.00 30.23     0.264 C 
ATOM     44  O   ASP A 256       9.692  10.637 120.191  1.00 27.77    -0.305 OA
ATOM     45  CB  ASP A 256      12.799  10.510 120.335  1.00 32.42     0.153 C 
ATOM     46  CG  ASP A 256      14.066   9.822 120.878  1.00 40.14     0.174 C 
ATOM     47  OD1 ASP A 256      14.529  10.158 121.999  1.00 45.04    -0.648 OA
ATOM     48  OD2 ASP A 256      14.627   8.941 120.159  1.00 47.35    -0.648 OA
ATOM     49  N   ARG A 258       9.722  14.476 117.802  1.00 32.46    -0.069 N 
ATOM     50  HN1 ARG A 258      10.484  13.943 118.221  1.00  0.00     0.275 HD
ATOM     51  HN2 ARG A 258       9.063  13.861 117.324  1.00  0.00     0.275 HD
ATOM     52  HN3 ARG A 258       9.103  14.855 118.519  1.00  0.00     0.275 HD
ATOM     53  CA  ARG A 258      10.206  15.546 116.895  1.00 36.46     0.244 C 
ATOM     54  C   ARG A 258       9.063  16.346 116.267  1.00 34.60     0.263 C 
ATOM     55  O   ARG A 258       8.154  15.770 115.687  1.00 33.54    -0.305 OA
ATOM     56  CB  ARG A 258      11.058  14.958 115.789  1.00 42.50     0.041 C 
ATOM     57  CG  ARG A 258      12.242  14.140 116.285  1.00 53.37     0.023 C 
ATOM     58  CD  ARG A 258      12.557  12.963 115.359  1.00 63.99     0.138 C 
ATOM     59  NE  ARG A 258      13.313  11.881 116.020  1.00 76.12    -0.227 N 
ATOM     60  HE  ARG A 258      12.789  11.054 116.305  1.00  0.00     0.177 HD
ATOM     61  CZ  ARG A 258      14.629  11.891 116.278  1.00 76.41     0.665 C 
ATOM     62  NH1 ARG A 258      15.385  12.944 115.952  1.00 69.95    -0.235 N 
ATOM     63 1HH1 ARG A 258      16.386  12.952 116.148  1.00  0.00     0.174 HD
ATOM     64 2HH1 ARG A 258      14.955  13.748 115.495  1.00  0.00     0.174 HD
ATOM     65  NH2 ARG A 258      15.193  10.835 116.878  1.00 78.31    -0.235 N 
ATOM     66 1HH2 ARG A 258      16.194  10.843 117.074  1.00  0.00     0.174 HD
ATOM     67 2HH2 ARG A 258      14.616  10.031 117.127  1.00  0.00     0.174 HD
ATOM     68  N   TYR A 271      11.957   9.262 106.257  1.00 55.84    -0.066 N 
ATOM     69  HN1 TYR A 271      11.926   9.772 105.374  1.00  0.00     0.275 HD
ATOM     70  HN2 TYR A 271      11.308   9.674 106.928  1.00  0.00     0.275 HD
ATOM     71  HN3 TYR A 271      11.536   8.339 106.150  1.00  0.00     0.275 HD
ATOM     72  CA  TYR A 271      13.286   9.148 106.841  1.00 54.16     0.278 C 
ATOM     73  C   TYR A 271      13.333   8.374 108.182  1.00 56.34     0.249 C 
ATOM     74  O   TYR A 271      14.121   7.422 108.311  1.00 54.88    -0.271 OA
ATOM     75  CB  TYR A 271      13.950  10.515 106.978  1.00 57.21     0.081 C 
ATOM     76  CG  TYR A 271      15.310  10.413 107.636  1.00 67.93    -0.056 A 
ATOM     77  CD1 TYR A 271      16.413   9.908 106.941  1.00 70.46     0.010 A 
ATOM     78  CD2 TYR A 271      15.484  10.779 108.968  1.00 70.51     0.010 A 
ATOM     79  CE1 TYR A 271      17.652   9.805 107.552  1.00 74.07     0.037 A 
ATOM     80  CE2 TYR A 271      16.713  10.674 109.587  1.00 71.59     0.037 A 
ATOM     81  CZ  TYR A 271      17.792  10.190 108.880  1.00 75.33     0.065 A 
ATOM     82  OH  TYR A 271      19.008  10.094 109.520  1.00 84.47    -0.361 OA
ATOM     83  HH  TYR A 271      19.104  10.357 110.428  1.00  0.00     0.217 HD
ATOM     84  N   PHE A 272      12.513   8.734 109.175  1.00 52.70    -0.348 N 
ATOM     85  HN  PHE A 272      11.813   9.463 109.037  1.00  0.00     0.163 HD
ATOM     86  CA  PHE A 272      12.647   8.049 110.477  1.00 53.52     0.150 C 
ATOM     87  C   PHE A 272      11.953   6.668 110.489  1.00 53.75     0.256 C 
ATOM     88  O   PHE A 272      12.122   5.864 111.426  1.00 47.11    -0.305 OA
ATOM     89  CB  PHE A 272      12.187   8.941 111.642  1.00 54.79     0.070 C 
ATOM     90  CG  PHE A 272      13.085  10.137 111.887  1.00 52.28    -0.056 A 
ATOM     91  CD1 PHE A 272      14.221  10.020 112.665  1.00 53.71     0.007 A 
ATOM     92  CD2 PHE A 272      12.787  11.373 111.342  1.00 49.53     0.007 A 
ATOM     93  CE1 PHE A 272      15.041  11.115 112.893  1.00 49.83     0.001 A 
ATOM     94  CE2 PHE A 272      13.605  12.461 111.557  1.00 46.95     0.001 A 
ATOM     95  CZ  PHE A 272      14.727  12.336 112.340  1.00 45.19     0.000 A 
ATOM     96  N   GLU A 295      16.373  13.969 104.977  1.00 68.48    -0.069 N 
ATOM     97  HN1 GLU A 295      17.101  13.273 105.139  1.00  0.00     0.275 HD
ATOM     98  HN2 GLU A 295      16.803  14.865 104.748  1.00  0.00     0.275 HD
ATOM     99  HN3 GLU A 295      15.892  13.762 104.102  1.00  0.00     0.275 HD
ATOM    100  CA  GLU A 295      15.383  14.158 106.051  1.00 71.02     0.244 C 
ATOM    101  C   GLU A 295      14.280  15.212 105.806  1.00 68.16     0.263 C 
ATOM    102  O   GLU A 295      13.128  14.984 106.155  1.00 66.54    -0.305 OA
ATOM    103  CB  GLU A 295      16.142  14.480 107.352  1.00 74.90     0.050 C 
ATOM    104  CG  GLU A 295      15.308  15.110 108.467  1.00 74.48     0.115 C 
ATOM    105  CD  GLU A 295      15.940  14.978 109.843  1.00 76.29     0.172 C 
ATOM    106  OE1 GLU A 295      15.402  15.584 110.802  1.00 68.74    -0.648 OA
ATOM    107  OE2 GLU A 295      16.962  14.265 109.973  1.00 80.30    -0.648 OA
ATOM    108  N   ASP A 190      13.044   1.907 121.395  1.00 41.29    -0.068 N 
ATOM    109  HN1 ASP A 190      13.885   1.620 121.895  1.00  0.00     0.275 HD
ATOM    110  HN2 ASP A 190      13.222   2.054 120.401  1.00  0.00     0.275 HD
ATOM    111  HN3 ASP A 190      12.369   1.146 121.315  1.00  0.00     0.275 HD
ATOM    112  CA  ASP A 190      12.472   3.071 122.019  1.00 38.51     0.254 C 
ATOM    113  C   ASP A 190      11.210   3.501 121.269  1.00 37.40     0.264 C 
ATOM    114  O   ASP A 190      10.783   2.829 120.329  1.00 36.82    -0.305 OA
ATOM    115  CB  ASP A 190      13.536   4.176 122.054  1.00 43.30     0.153 C 
ATOM    116  CG  ASP A 190      13.958   4.705 120.652  1.00 45.51     0.174 C 
ATOM    117  OD1 ASP A 190      13.784   4.082 119.548  1.00 57.22    -0.648 OA
ATOM    118  OD2 ASP A 190      14.500   5.824 120.696  1.00 49.18    -0.648 OA
ATOM    119  N   ARG A 254      12.386   4.762 126.781  1.00 28.66    -0.069 N 
ATOM    120  HN1 ARG A 254      13.073   4.477 127.479  1.00  0.00     0.275 HD
ATOM    121  HN2 ARG A 254      12.179   4.009 126.125  1.00  0.00     0.275 HD
ATOM    122  HN3 ARG A 254      11.457   4.871 127.188  1.00  0.00     0.275 HD
ATOM    123  CA  ARG A 254      12.819   5.970 126.096  1.00 28.20     0.244 C 
ATOM    124  C   ARG A 254      11.803   6.392 125.064  1.00 25.28     0.263 C 
ATOM    125  O   ARG A 254      11.279   5.573 124.321  1.00 23.91    -0.305 OA
ATOM    126  CB  ARG A 254      14.142   5.755 125.375  1.00 29.65     0.041 C 
ATOM    127  CG  ARG A 254      15.328   5.636 126.305  1.00 32.25     0.023 C 
ATOM    128  CD  ARG A 254      15.785   6.969 126.778  1.00 33.00     0.138 C 
ATOM    129  NE  ARG A 254      16.415   7.643 125.667  1.00 35.34    -0.227 N 
ATOM    130  HE  ARG A 254      17.360   7.345 125.426  1.00  0.00     0.177 HD
ATOM    131  CZ  ARG A 254      15.886   8.613 124.927  1.00 35.71     0.665 C 
ATOM    132  NH1 ARG A 254      14.649   9.078 125.140  1.00 34.96    -0.235 N 
ATOM    133 1HH1 ARG A 254      14.243   9.822 124.572  1.00  0.00     0.174 HD
ATOM    134 2HH1 ARG A 254      14.094   8.701 125.909  1.00  0.00     0.174 HD
ATOM    135  NH2 ARG A 254      16.609   9.104 123.925  1.00 37.80    -0.235 N 
ATOM    136 1HH2 ARG A 254      16.203   9.848 123.357  1.00  0.00     0.174 HD
ATOM    137 2HH2 ARG A 254      17.552   8.750 123.763  1.00  0.00     0.174 HD
ATOM    138  N   GLY A 189      13.364  -0.642 120.223  1.00 35.89    -0.073 N 
ATOM    139  HN1 GLY A 189      13.674  -1.451 119.685  1.00  0.00     0.274 HD
ATOM    140  HN2 GLY A 189      13.093   0.114 119.594  1.00  0.00     0.274 HD
ATOM    141  HN3 GLY A 189      12.466  -0.839 120.665  1.00  0.00     0.274 HD
ATOM    142  CA  GLY A 189      14.325  -0.146 121.226  1.00 40.94     0.298 C 
ATOM    143  C   GLY A 189      13.858   1.071 122.035  1.00 44.16     0.258 C 
ATOM    144  O   GLY A 189      14.239   1.254 123.202  1.00 42.39    -0.305 OA
ATOM    145  N   ILE A 255      11.577   7.688 124.995  1.00 23.81    -0.069 N 
ATOM    146  HN1 ILE A 255      11.184   6.822 125.364  1.00  0.00     0.275 HD
ATOM    147  HN2 ILE A 255      11.801   8.352 125.736  1.00  0.00     0.275 HD
ATOM    148  HN3 ILE A 255      12.518   7.553 124.626  1.00  0.00     0.275 HD
ATOM    149  CA  ILE A 255      10.691   8.254 124.015  1.00 25.36     0.247 C 
ATOM    150  C   ILE A 255      11.273   9.536 123.469  1.00 24.97     0.264 C 
ATOM    151  O   ILE A 255      11.621  10.402 124.233  1.00 23.46    -0.305 OA
ATOM    152  CB  ILE A 255       9.273   8.531 124.580  1.00 25.30     0.018 C 
ATOM    153  CG1 ILE A 255       8.425   9.196 123.510  1.00 26.75     0.002 C 
ATOM    154  CG2 ILE A 255       9.335   9.440 125.794  1.00 25.60     0.012 C 
ATOM    155  CD1 ILE A 255       6.960   9.171 123.818  1.00 29.99     0.005 C 
ATOM    156  N   SER A 104      23.400   6.034 129.853  1.00 20.06    -0.067 N 
ATOM    157  HN1 SER A 104      23.136   5.141 129.437  1.00  0.00     0.275 HD
ATOM    158  HN2 SER A 104      23.007   6.172 130.784  1.00  0.00     0.275 HD
ATOM    159  HN3 SER A 104      24.384   6.076 130.119  1.00  0.00     0.275 HD
ATOM    160  CA  SER A 104      23.017   7.080 128.909  1.00 18.65     0.267 C 
ATOM    161  C   SER A 104      23.405   8.395 129.522  1.00 18.55     0.266 C 
ATOM    162  O   SER A 104      23.047   8.700 130.675  1.00 17.16    -0.305 OA
ATOM    163  CB  SER A 104      21.542   7.078 128.598  1.00 18.54     0.204 C 
ATOM    164  OG  SER A 104      21.285   8.154 127.703  1.00 19.41    -0.398 OA
ATOM    165  HG  SER A 104      20.355   8.153 127.507  1.00  0.00     0.209 HD
ATOM    166  N   LEU A 228      15.170  14.418 129.558  1.00 25.25    -0.066 N 
ATOM    167  HN1 LEU A 228      14.875  13.586 130.070  1.00  0.00     0.275 HD
ATOM    168  HN2 LEU A 228      14.630  14.546 128.702  1.00  0.00     0.275 HD
ATOM    169  HN3 LEU A 228      14.898  15.275 130.040  1.00  0.00     0.275 HD
ATOM    170  CA  LEU A 228      16.602  14.378 129.293  1.00 26.45     0.275 C 
ATOM    171  C   LEU A 228      17.038  15.608 128.536  1.00 27.23     0.248 C 
ATOM    172  O   LEU A 228      18.053  16.192 128.825  1.00 33.47    -0.271 OA
ATOM    173  CB  LEU A 228      16.939  13.153 128.435  1.00 25.28     0.046 C 
ATOM    174  CG  LEU A 228      16.641  11.808 129.095  1.00 24.80    -0.020 C 
ATOM    175  CD1 LEU A 228      16.912  10.653 128.126  1.00 25.07     0.009 C 
ATOM    176  CD2 LEU A 228      17.474  11.653 130.360  1.00 24.44     0.009 C 
ATOM    177  N   SER A 229      16.310  15.946 127.499  1.00 27.29    -0.346 N 
ATOM    178  HN  SER A 229      15.568  15.321 127.184  1.00  0.00     0.163 HD
ATOM    179  CA  SER A 229      16.537  17.175 126.800  1.00 27.34     0.169 C 
ATOM    180  C   SER A 229      15.200  17.644 126.240  1.00 27.15     0.258 C 
ATOM    181  O   SER A 229      14.319  16.824 125.995  1.00 27.36    -0.305 OA
ATOM    182  CB  SER A 229      17.565  16.937 125.697  1.00 26.68     0.196 C 
ATOM    183  OG  SER A 229      17.059  16.099 124.683  1.00 28.41    -0.398 OA
ATOM    184  HG  SER A 229      17.699  15.951 123.997  1.00  0.00     0.209 HD
ATOM    185  N   GLY A 237      13.017  12.004 126.428  1.00 21.42    -0.073 N 
ATOM    186  HN1 GLY A 237      13.322  12.960 126.244  1.00  0.00     0.274 HD
ATOM    187  HN2 GLY A 237      12.251  11.745 125.806  1.00  0.00     0.274 HD
ATOM    188  HN3 GLY A 237      13.723  11.336 126.118  1.00  0.00     0.274 HD
ATOM    189  CA  GLY A 237      12.656  11.759 127.813  1.00 21.92     0.298 C 
ATOM    190  C   GLY A 237      12.208  10.354 128.084  1.00 21.23     0.258 C 
ATOM    191  O   GLY A 237      12.413   9.465 127.275  1.00 20.31    -0.305 OA
ATOM    192  N   PHE A 146      16.649   0.940 130.524  1.00 27.00    -0.069 N 
ATOM    193  HN1 PHE A 146      16.239   1.668 131.109  1.00  0.00     0.275 HD
ATOM    194  HN2 PHE A 146      17.468   0.538 130.979  1.00  0.00     0.275 HD
ATOM    195  HN3 PHE A 146      16.042   0.121 130.500  1.00  0.00     0.275 HD
ATOM    196  CA  PHE A 146      16.979   1.367 129.171  1.00 29.31     0.248 C 
ATOM    197  C   PHE A 146      17.590   0.281 128.298  1.00 33.60     0.264 C 
ATOM    198  O   PHE A 146      17.571   0.420 127.070  1.00 41.05    -0.305 OA
ATOM    199  CB  PHE A 146      17.878   2.584 129.136  1.00 27.67     0.078 C 
ATOM    200  CG  PHE A 146      17.213   3.842 129.606  1.00 29.47    -0.056 A 
ATOM    201  CD1 PHE A 146      15.847   3.996 129.561  1.00 30.03     0.007 A 
ATOM    202  CD2 PHE A 146      17.965   4.884 130.093  1.00 28.71     0.007 A 
ATOM    203  CE1 PHE A 146      15.249   5.165 129.998  1.00 29.38     0.001 A 
ATOM    204  CE2 PHE A 146      17.365   6.043 130.533  1.00 28.87     0.001 A 
ATOM    205  CZ  PHE A 146      16.005   6.180 130.488  1.00 27.88     0.000 A 
ATOM    206  N   GLY A 105      24.171   9.141 128.743  1.00 18.70    -0.073 N 
ATOM    207  HN1 GLY A 105      23.171   9.169 128.542  1.00  0.00     0.274 HD
ATOM    208  HN2 GLY A 105      24.395   8.439 129.449  1.00  0.00     0.274 HD
ATOM    209  HN3 GLY A 105      24.702   8.750 127.965  1.00  0.00     0.274 HD
ATOM    210  CA  GLY A 105      24.653  10.442 129.115  1.00 18.89     0.298 C 
ATOM    211  C   GLY A 105      26.131  10.400 129.412  1.00 18.31     0.258 C 
ATOM    212  O   GLY A 105      26.779  11.423 129.459  1.00 17.18    -0.305 OA
ATOM    213  N   HIS A 135      20.954  14.505 132.658  1.00 19.83    -0.069 N 
ATOM    214  HN1 HIS A 135      20.558  15.325 132.198  1.00  0.00     0.275 HD
ATOM    215  HN2 HIS A 135      21.904  14.671 132.990  1.00  0.00     0.275 HD
ATOM    216  HN3 HIS A 135      20.515  14.320 133.560  1.00  0.00     0.275 HD
ATOM    217  CA  HIS A 135      20.875  13.348 131.753  1.00 19.04     0.249 C 
ATOM    218  C   HIS A 135      21.465  12.127 132.439  1.00 19.45     0.264 C 
ATOM    219  O   HIS A 135      20.843  11.047 132.455  1.00 19.74    -0.305 OA
ATOM    220  CB  HIS A 135      21.590  13.622 130.401  1.00 18.49     0.098 C 
ATOM    221  CG  HIS A 135      21.346  12.569 129.337  1.00 19.62     0.028 A 
ATOM    222  ND1 HIS A 135      21.101  12.885 128.019  1.00 20.22    -0.355 N 
ATOM    223  HD1 HIS A 135      21.079  13.832 127.642  1.00  0.00     0.166 HD
ATOM    224  CD2 HIS A 135      21.287  11.217 129.398  1.00 20.61     0.114 A 
ATOM    225  CE1 HIS A 135      20.899  11.787 127.313  1.00 20.08     0.180 A 
ATOM    226  NE2 HIS A 135      21.013  10.757 128.126  1.00 21.87    -0.360 N 
ATOM    227  HE2 HIS A 135      20.915   9.778 127.859  1.00  0.00     0.166 HD
TER     228      HIS A 135 
