MODEL 1
REMARK VINA RESULT:      -8.7      0.000      0.000
REMARK  0 active torsions:
REMARK  status: ('A' for Active; 'I' for Inactive)
ROOT
HETATM    1  C   UNL     1     -34.699   9.786  -3.415  1.00  0.00     0.118 C 
HETATM    2  C   UNL     1     -33.884   9.157  -7.825  1.00  0.00     0.001 C 
HETATM    3  C   UNL     1     -32.396   8.710  -5.990  1.00  0.00     0.013 C 
HETATM    4  C   UNL     1     -35.291  10.407  -4.671  1.00  0.00     0.172 C 
HETATM    5  C   UNL     1     -34.548  10.117  -7.081  1.00  0.00     0.016 C 
HETATM    6  C   UNL     1     -34.280  10.178  -5.727  1.00  0.00     0.021 C 
HETATM    7  C   UNL     1     -32.604   8.622  -2.909  1.00  0.00     0.039 C 
HETATM    8  C   UNL     1     -32.811   8.468  -7.296  1.00  0.00     0.001 C 
HETATM    9  O   UNL     1     -36.256  11.119  -4.733  1.00  0.00    -0.291 OA
HETATM   10  C   UNL     1     -35.392   6.680  -1.613  1.00  0.00     0.015 C 
HETATM   11  C   UNL     1     -33.239   9.450  -5.173  1.00  0.00    -0.015 C 
HETATM   12  N   UNL     1     -32.661   6.865  -1.330  1.00  0.00    -0.365 N 
ATOM     13  HN  UNL     1     -31.648   6.777  -1.407  1.00  0.00     0.165 HD
HETATM   14  C   UNL     1     -33.366   6.062  -0.534  1.00  0.00     0.088 C 
HETATM   15  C   UNL     1     -33.341   7.803  -2.036  1.00  0.00     0.042 C 
HETATM   16  C   UNL     1     -34.751   7.835  -2.067  1.00  0.00    -0.012 C 
HETATM   17  C   UNL     1     -33.390   9.359  -3.778  1.00  0.00    -0.029 C 
HETATM   18  C   UNL     1     -35.454   8.943  -2.613  1.00  0.00     0.004 C 
HETATM   19  C   UNL     1     -34.702   5.833  -0.766  1.00  0.00     0.018 C 
ENDROOT
TORSDOF 0
ENDMDL
MODEL 2
REMARK VINA RESULT:      -8.7      1.498      2.066
REMARK  0 active torsions:
REMARK  status: ('A' for Active; 'I' for Inactive)
ROOT
HETATM    1  C   UNL     1     -34.126   8.532  -1.971  1.00  0.00     0.118 C 
HETATM    2  C   UNL     1     -35.148   9.962  -6.145  1.00  0.00     0.001 C 
HETATM    3  C   UNL     1     -33.062   9.031  -5.394  1.00  0.00     0.013 C 
HETATM    4  C   UNL     1     -35.155   9.519  -2.499  1.00  0.00     0.172 C 
HETATM    5  C   UNL     1     -35.440  10.398  -4.864  1.00  0.00     0.016 C 
HETATM    6  C   UNL     1     -34.654   9.924  -3.832  1.00  0.00     0.021 C 
HETATM    7  C   UNL     1     -32.028   7.619  -2.849  1.00  0.00     0.039 C 
HETATM    8  C   UNL     1     -33.968   9.299  -6.416  1.00  0.00     0.001 C 
HETATM    9  O   UNL     1     -36.050  10.024  -1.877  1.00  0.00    -0.291 OA
HETATM   10  C   UNL     1     -34.110   4.888  -1.654  1.00  0.00     0.015 C 
HETATM   11  C   UNL     1     -33.494   9.210  -4.088  1.00  0.00    -0.015 C 
HETATM   12  N   UNL     1     -31.489   5.377  -2.335  1.00  0.00    -0.365 N 
ATOM     13  HN  UNL     1     -30.593   5.496  -2.806  1.00  0.00     0.165 HD
HETATM   14  C   UNL     1     -31.836   4.211  -1.791  1.00  0.00     0.088 C 
HETATM   15  C   UNL     1     -32.374   6.401  -2.239  1.00  0.00     0.042 C 
HETATM   16  C   UNL     1     -33.679   6.214  -1.735  1.00  0.00    -0.012 C 
HETATM   17  C   UNL     1     -33.079   8.516  -2.938  1.00  0.00    -0.029 C 
HETATM   18  C   UNL     1     -34.517   7.319  -1.424  1.00  0.00     0.004 C 
HETATM   19  C   UNL     1     -33.159   3.887  -1.597  1.00  0.00     0.018 C 
ENDROOT
TORSDOF 0
ENDMDL
MODEL 3
REMARK VINA RESULT:      -8.6      2.271      5.508
REMARK  0 active torsions:
REMARK  status: ('A' for Active; 'I' for Inactive)
ROOT
HETATM    1  C   UNL     1     -33.725   9.766  -2.452  1.00  0.00     0.118 C 
HETATM    2  C   UNL     1     -35.299   5.902  -0.689  1.00  0.00     0.001 C 
HETATM    3  C   UNL     1     -36.351   7.278  -2.357  1.00  0.00     0.013 C 
HETATM    4  C   UNL     1     -33.455   9.046  -1.138  1.00  0.00     0.172 C 
HETATM    5  C   UNL     1     -34.611   6.995  -0.190  1.00  0.00     0.016 C 
HETATM    6  C   UNL     1     -34.619   8.154  -0.941  1.00  0.00     0.021 C 
HETATM    7  C   UNL     1     -35.548   9.707  -4.087  1.00  0.00     0.039 C 
HETATM    8  C   UNL     1     -36.171   6.039  -1.750  1.00  0.00     0.001 C 
HETATM    9  O   UNL     1     -32.601   9.313  -0.337  1.00  0.00    -0.291 OA
HETATM   10  C   UNL     1     -32.372   9.371  -5.826  1.00  0.00     0.015 C 
HETATM   11  C   UNL     1     -35.451   8.285  -2.042  1.00  0.00    -0.015 C 
HETATM   12  N   UNL     1     -35.001   9.971  -6.371  1.00  0.00    -0.365 N 
ATOM     13  HN  UNL     1     -35.996   9.956  -6.599  1.00  0.00     0.165 HD
HETATM   14  C   UNL     1     -34.076  10.087  -7.322  1.00  0.00     0.088 C 
HETATM   15  C   UNL     1     -34.574   9.872  -5.087  1.00  0.00     0.042 C 
HETATM   16  C   UNL     1     -33.207   9.730  -4.766  1.00  0.00    -0.012 C 
HETATM   17  C   UNL     1     -35.026   9.350  -2.856  1.00  0.00    -0.029 C 
HETATM   18  C   UNL     1     -32.744   9.857  -3.429  1.00  0.00     0.004 C 
HETATM   19  C   UNL     1     -32.792   9.637  -7.116  1.00  0.00     0.018 C 
ENDROOT
TORSDOF 0
ENDMDL
MODEL 4
REMARK VINA RESULT:      -8.5      2.357      5.621
REMARK  0 active torsions:
REMARK  status: ('A' for Active; 'I' for Inactive)
ROOT
HETATM    1  C   UNL     1     -33.000   8.600  -3.210  1.00  0.00     0.118 C 
HETATM    2  C   UNL     1     -35.142   5.101  -1.292  1.00  0.00     0.001 C 
HETATM    3  C   UNL     1     -36.118   7.153  -2.078  1.00  0.00     0.013 C 
HETATM    4  C   UNL     1     -32.534   7.490  -2.280  1.00  0.00     0.172 C 
HETATM    5  C   UNL     1     -33.925   5.730  -1.093  1.00  0.00     0.016 C 
HETATM    6  C   UNL     1     -33.764   6.995  -1.622  1.00  0.00     0.021 C 
HETATM    7  C   UNL     1     -35.181   9.589  -3.729  1.00  0.00     0.039 C 
HETATM    8  C   UNL     1     -36.233   5.802  -1.765  1.00  0.00     0.001 C 
HETATM    9  O   UNL     1     -31.399   7.233  -1.982  1.00  0.00    -0.291 OA
HETATM   10  C   UNL     1     -33.470   8.775  -6.832  1.00  0.00     0.015 C 
HETATM   11  C   UNL     1     -34.841   7.690  -2.150  1.00  0.00    -0.015 C 
HETATM   12  N   UNL     1     -35.578  10.305  -5.946  1.00  0.00    -0.365 N 
ATOM     13  HN  UNL     1     -36.484  10.671  -5.654  1.00  0.00     0.165 HD
HETATM   14  C   UNL     1     -35.175  10.387  -7.213  1.00  0.00     0.088 C 
HETATM   15  C   UNL     1     -34.739   9.715  -5.057  1.00  0.00     0.042 C 
HETATM   16  C   UNL     1     -33.557   9.062  -5.468  1.00  0.00    -0.012 C 
HETATM   17  C   UNL     1     -34.394   8.751  -2.958  1.00  0.00    -0.029 C 
HETATM   18  C   UNL     1     -32.574   8.651  -4.529  1.00  0.00     0.004 C 
HETATM   19  C   UNL     1     -34.236   9.515  -7.713  1.00  0.00     0.018 C 
ENDROOT
TORSDOF 0
ENDMDL
MODEL 5
REMARK VINA RESULT:      -8.2      1.524      2.373
REMARK  0 active torsions:
REMARK  status: ('A' for Active; 'I' for Inactive)
ROOT
HETATM    1  C   UNL     1     -34.425   8.174  -1.487  1.00  0.00     0.118 C 
HETATM    2  C   UNL     1     -33.870  10.056  -5.569  1.00  0.00     0.001 C 
HETATM    3  C   UNL     1     -32.344   8.598  -4.418  1.00  0.00     0.013 C 
HETATM    4  C   UNL     1     -35.017   9.414  -2.140  1.00  0.00     0.172 C 
HETATM    5  C   UNL     1     -34.413  10.473  -4.366  1.00  0.00     0.016 C 
HETATM    6  C   UNL     1     -34.079   9.761  -3.231  1.00  0.00     0.021 C 
HETATM    7  C   UNL     1     -32.418   6.827  -1.887  1.00  0.00     0.039 C 
HETATM    8  C   UNL     1     -32.838   9.140  -5.600  1.00  0.00     0.001 C 
HETATM    9  O   UNL     1     -35.919  10.086  -1.717  1.00  0.00    -0.291 OA
HETATM   10  C   UNL     1     -35.302   4.627  -1.637  1.00  0.00     0.015 C 
HETATM   11  C   UNL     1     -33.081   8.800  -3.260  1.00  0.00    -0.015 C 
HETATM   12  N   UNL     1     -32.555   4.495  -1.535  1.00  0.00    -0.365 N 
ATOM     13  HN  UNL     1     -31.558   4.417  -1.734  1.00  0.00     0.165 HD
HETATM   14  C   UNL     1     -33.290   3.420  -1.253  1.00  0.00     0.088 C 
HETATM   15  C   UNL     1     -33.182   5.698  -1.548  1.00  0.00     0.042 C 
HETATM   16  C   UNL     1     -34.585   5.808  -1.434  1.00  0.00    -0.012 C 
HETATM   17  C   UNL     1     -33.176   7.959  -2.137  1.00  0.00    -0.029 C 
HETATM   18  C   UNL     1     -35.213   7.065  -1.219  1.00  0.00     0.004 C 
HETATM   19  C   UNL     1     -34.650   3.421  -1.457  1.00  0.00     0.018 C 
ENDROOT
TORSDOF 0
ENDMDL
MODEL 6
REMARK VINA RESULT:      -7.9      2.461      5.749
REMARK  0 active torsions:
REMARK  status: ('A' for Active; 'I' for Inactive)
ROOT
HETATM    1  C   UNL     1     -32.999   7.735  -1.997  1.00  0.00     0.118 C 
HETATM    2  C   UNL     1     -34.637   3.543  -1.500  1.00  0.00     0.001 C 
HETATM    3  C   UNL     1     -35.878   5.603  -1.492  1.00  0.00     0.013 C 
HETATM    4  C   UNL     1     -32.369   6.431  -1.531  1.00  0.00     0.172 C 
HETATM    5  C   UNL     1     -33.497   4.203  -1.076  1.00  0.00     0.016 C 
HETATM    6  C   UNL     1     -33.506   5.584  -1.108  1.00  0.00     0.021 C 
HETATM    7  C   UNL     1     -35.299   8.567  -2.137  1.00  0.00     0.039 C 
HETATM    8  C   UNL     1     -35.820   4.227  -1.694  1.00  0.00     0.001 C 
HETATM    9  O   UNL     1     -31.202   6.227  -1.339  1.00  0.00    -0.291 OA
HETATM   10  C   UNL     1     -33.623   9.149  -5.312  1.00  0.00     0.015 C 
HETATM   11  C   UNL     1     -34.677   6.283  -1.355  1.00  0.00    -0.015 C 
HETATM   12  N   UNL     1     -35.862   9.981  -3.945  1.00  0.00    -0.365 N 
ATOM     13  HN  UNL     1     -36.793  10.101  -3.547  1.00  0.00     0.165 HD
HETATM   14  C   UNL     1     -35.520  10.565  -5.092  1.00  0.00     0.088 C 
HETATM   15  C   UNL     1     -34.926   9.219  -3.326  1.00  0.00     0.042 C 
HETATM   16  C   UNL     1     -33.692   8.911  -3.937  1.00  0.00    -0.012 C 
HETATM   17  C   UNL     1     -34.390   7.611  -1.718  1.00  0.00    -0.029 C 
HETATM   18  C   UNL     1     -32.632   8.312  -3.204  1.00  0.00     0.004 C 
HETATM   19  C   UNL     1     -34.504  10.057  -5.868  1.00  0.00     0.018 C 
ENDROOT
TORSDOF 0
ENDMDL
MODEL 7
REMARK VINA RESULT:      -7.0      3.236      5.835
REMARK  0 active torsions:
REMARK  status: ('A' for Active; 'I' for Inactive)
ROOT
HETATM    1  C   UNL     1     -32.926   6.086  -1.454  1.00  0.00     0.118 C 
HETATM    2  C   UNL     1     -33.994   2.196  -3.513  1.00  0.00     0.001 C 
HETATM    3  C   UNL     1     -35.416   3.546  -2.121  1.00  0.00     0.013 C 
HETATM    4  C   UNL     1     -32.086   4.919  -1.953  1.00  0.00     0.172 C 
HETATM    5  C   UNL     1     -32.867   2.687  -2.875  1.00  0.00     0.016 C 
HETATM    6  C   UNL     1     -33.026   3.780  -2.045  1.00  0.00     0.021 C 
HETATM    7  C   UNL     1     -35.283   6.355  -0.842  1.00  0.00     0.039 C 
HETATM    8  C   UNL     1     -35.256   2.606  -3.135  1.00  0.00     0.001 C 
HETATM    9  O   UNL     1     -30.889   4.881  -2.034  1.00  0.00    -0.291 OA
HETATM   10  C   UNL     1     -34.325   9.031  -3.110  1.00  0.00     0.015 C 
HETATM   11  C   UNL     1     -34.288   4.236  -1.700  1.00  0.00    -0.015 C 
HETATM   12  N   UNL     1     -36.330   8.417  -1.328  1.00  0.00    -0.365 N 
ATOM     13  HN  UNL     1     -37.173   8.087  -0.859  1.00  0.00     0.165 HD
HETATM   14  C   UNL     1     -36.279   9.622  -1.892  1.00  0.00     0.088 C 
HETATM   15  C   UNL     1     -35.218   7.643  -1.400  1.00  0.00     0.042 C 
HETATM   16  C   UNL     1     -34.101   8.015  -2.178  1.00  0.00    -0.012 C 
HETATM   17  C   UNL     1     -34.216   5.543  -1.188  1.00  0.00    -0.029 C 
HETATM   18  C   UNL     1     -32.862   7.326  -2.072  1.00  0.00     0.004 C 
HETATM   19  C   UNL     1     -35.387   9.892  -2.903  1.00  0.00     0.018 C 
ENDROOT
TORSDOF 0
ENDMDL
MODEL 8
REMARK VINA RESULT:      -6.5      2.809      4.517
REMARK  0 active torsions:
REMARK  status: ('A' for Active; 'I' for Inactive)
ROOT
HETATM    1  C   UNL     1     -34.508   5.650  -1.051  1.00  0.00     0.118 C 
HETATM    2  C   UNL     1     -35.108   9.580  -3.220  1.00  0.00     0.001 C 
HETATM    3  C   UNL     1     -33.280   8.975  -1.779  1.00  0.00     0.013 C 
HETATM    4  C   UNL     1     -35.745   6.351  -1.591  1.00  0.00     0.172 C 
HETATM    5  C   UNL     1     -35.941   8.682  -2.575  1.00  0.00     0.016 C 
HETATM    6  C   UNL     1     -35.360   7.775  -1.712  1.00  0.00     0.021 C 
HETATM    7  C   UNL     1     -32.262   6.396  -0.417  1.00  0.00     0.039 C 
HETATM    8  C   UNL     1     -33.796   9.739  -2.822  1.00  0.00     0.001 C 
HETATM    9  O   UNL     1     -36.850   5.888  -1.681  1.00  0.00    -0.291 OA
HETATM   10  C   UNL     1     -31.985   3.508  -2.609  1.00  0.00     0.015 C 
HETATM   11  C   UNL     1     -34.028   7.891  -1.345  1.00  0.00    -0.015 C 
HETATM   12  N   UNL     1     -30.448   4.941  -0.833  1.00  0.00    -0.365 N 
ATOM     13  HN  UNL     1     -29.825   5.603  -0.369  1.00  0.00     0.165 HD
HETATM   14  C   UNL     1     -29.984   3.809  -1.362  1.00  0.00     0.088 C 
HETATM   15  C   UNL     1     -31.779   5.183  -0.936  1.00  0.00     0.042 C 
HETATM   16  C   UNL     1     -32.627   4.363  -1.710  1.00  0.00    -0.012 C 
HETATM   17  C   UNL     1     -33.563   6.684  -0.794  1.00  0.00    -0.029 C 
HETATM   18  C   UNL     1     -34.041   4.479  -1.632  1.00  0.00     0.004 C 
HETATM   19  C   UNL     1     -30.667   3.169  -2.370  1.00  0.00     0.018 C 
ENDROOT
TORSDOF 0
ENDMDL
MODEL 9
REMARK VINA RESULT:      -6.1      3.495      5.000
REMARK  0 active torsions:
REMARK  status: ('A' for Active; 'I' for Inactive)
ROOT
HETATM    1  C   UNL     1     -33.224   5.101  -1.226  1.00  0.00     0.118 C 
HETATM    2  C   UNL     1     -33.476   9.112  -3.314  1.00  0.00     0.001 C 
HETATM    3  C   UNL     1     -31.690   7.507  -3.451  1.00  0.00     0.013 C 
HETATM    4  C   UNL     1     -33.994   6.377  -0.919  1.00  0.00     0.172 C 
HETATM    5  C   UNL     1     -33.836   8.636  -2.065  1.00  0.00     0.016 C 
HETATM    6  C   UNL     1     -33.274   7.446  -1.646  1.00  0.00     0.021 C 
HETATM    7  C   UNL     1     -31.230   4.588  -2.554  1.00  0.00     0.039 C 
HETATM    8  C   UNL     1     -32.407   8.568  -3.997  1.00  0.00     0.001 C 
HETATM    9  O   UNL     1     -34.853   6.514  -0.091  1.00  0.00    -0.291 OA
HETATM   10  C   UNL     1     -33.887   2.271  -3.445  1.00  0.00     0.015 C 
HETATM   11  C   UNL     1     -32.236   6.860  -2.353  1.00  0.00    -0.015 C 
HETATM   12  N   UNL     1     -31.159   2.523  -3.701  1.00  0.00    -0.365 N 
ATOM     13  HN  UNL     1     -30.205   2.733  -3.997  1.00  0.00     0.165 HD
HETATM   14  C   UNL     1     -31.766   1.398  -4.074  1.00  0.00     0.088 C 
HETATM   15  C   UNL     1     -31.854   3.381  -2.913  1.00  0.00     0.042 C 
HETATM   16  C   UNL     1     -33.222   3.186  -2.626  1.00  0.00    -0.012 C 
HETATM   17  C   UNL     1     -32.089   5.511  -1.983  1.00  0.00    -0.029 C 
HETATM   18  C   UNL     1     -33.884   3.949  -1.626  1.00  0.00     0.004 C 
HETATM   19  C   UNL     1     -33.139   1.315  -4.107  1.00  0.00     0.018 C 
ENDROOT
TORSDOF 0
ENDMDL
