REMARK  3 active torsions:
REMARK  status: ('A' for Active; 'I' for Inactive)
REMARK    1  A    between atoms: C_1  and  N_25 
REMARK    2  A    between atoms: C_5  and  C_17 
REMARK       I    between atoms: N_25  and  C_34 
REMARK    3  A    between atoms: C_31  and  C_34 
ROOT
HETATM    1  O   UNL     1      17.780  -1.395  26.276  1.00  0.00    -0.353 OA
HETATM    2  C   UNL     1      16.735  -1.148  25.279  1.00  0.00     0.158 C 
HETATM    3  C   UNL     1      14.385  -0.940  25.127  1.00  0.00     0.227 C 
HETATM    4  N   UNL     1      14.685  -2.379  24.911  1.00  0.00    -0.059 N 
ATOM      5  HN1 UNL     1      14.275  -2.748  24.053  1.00  0.00     0.278 HD
ATOM      6  HN2 UNL     1      14.196  -2.991  25.564  1.00  0.00     0.278 HD
HETATM    7  O   UNL     1      18.908  -3.825  26.764  1.00  0.00    -0.346 OA
HETATM    8  C   UNL     1      18.123  -2.796  26.162  1.00  0.00     0.267 C 
HETATM    9  C   UNL     1      16.135  -2.531  24.963  1.00  0.00     0.224 C 
HETATM   10  C   UNL     1      16.916  -4.875  26.004  1.00  0.00     0.053 C 
HETATM   11  C   UNL     1      18.270  -5.119  26.677  1.00  0.00     0.217 C 
HETATM   12  C   UNL     1      15.565  -0.417  25.977  1.00  0.00     0.072 C 
HETATM   13  C   UNL     1      16.716  -3.379  26.084  1.00  0.00     0.077 C 
ENDROOT
BRANCH  11  14
HETATM   14  C   UNL     1      19.088  -6.056  25.784  1.00  0.00     0.252 C 
HETATM   15  N   UNL     1      18.312  -6.856  24.990  1.00  0.00    -0.315 N 
ATOM     16  HN  UNL     1      17.463  -7.261  25.384  1.00  0.00     0.170 HD
HETATM   17  O   UNL     1      20.286  -6.120  25.866  1.00  0.00    -0.270 OA
BRANCH  15  18
HETATM   18  C   UNL     1      18.633  -7.137  23.675  1.00  0.00     0.081 C 
HETATM   19  C   UNL     1      19.435  -8.407  23.440  1.00  0.00     0.076 C 
HETATM   20  C   UNL     1      18.913  -9.396  22.407  1.00  0.00     0.014 C 
HETATM   21  C   UNL     1      17.470  -9.353  21.926  1.00  0.00     0.015 C 
HETATM   22  C   UNL     1      16.574  -8.339  22.624  1.00  0.00     0.060 C 
HETATM   23  C   UNL     1      17.459  -8.865  20.488  1.00  0.00     0.239 C 
HETATM   24  C   UNL     1      16.943  -7.013  21.952  1.00  0.00     0.285 C 
HETATM   25  N   UNL     1      18.136  -6.456  22.619  1.00  0.00    -0.352 N 
HETATM   26  N   UNL     1      17.266  -7.398  20.562  1.00  0.00    -0.054 N 
ATOM     27  HN  UNL     1      18.568  -5.591  22.295  1.00  0.00     0.162 HD
ATOM     28  HN2 UNL     1      16.566  -7.067  19.898  1.00  0.00     0.279 HD
ATOM     29  HN1 UNL     1      18.068  -6.885  20.196  1.00  0.00     0.279 HD
ENDBRANCH  15  18
ENDBRANCH  11  14
BRANCH   3  30
HETATM   30  C   UNL     1      13.045  -0.910  25.801  1.00  0.00     0.040 C 
HETATM   31  C   UNL     1      11.954  -0.247  25.041  1.00  0.00     0.253 C 
HETATM   32  O   UNL     1      11.792  -0.481  23.855  1.00  0.00    -0.268 OA
HETATM   33  N   UNL     1      11.173   0.656  25.703  1.00  0.00    -0.332 N 
HETATM   34  C   UNL     1      10.767   0.727  26.978  1.00  0.00     0.115 C 
ATOM     35  HN  UNL     1      10.835   1.420  25.117  1.00  0.00     0.168 HD
HETATM   36  C   UNL     1      11.152  -0.008  28.069  1.00  0.00     0.049 C 
HETATM   37  C   UNL     1      11.899  -1.196  27.995  1.00  0.00     0.026 C 
HETATM   38 CL   UNL     1      10.816   0.672  29.633  1.00  0.00    -0.083 Cl
HETATM   39  C   UNL     1      12.843  -1.513  27.011  1.00  0.00     0.017 C 
ENDBRANCH   3  30
TORSDOF 3
