REMARK  3 active torsions:
REMARK  status: ('A' for Active; 'I' for Inactive)
REMARK    1  A    between atoms: C_9  and  C_17 
REMARK    2  A    between atoms: C_15  and  C_19 
REMARK    3  A    between atoms: C_18  and  C_19 
ROOT
HETATM    1  C   UNL     1      -6.152  17.493  28.995  1.00  0.00     0.012 C 
HETATM    2  C   UNL     1      -6.952  18.437  29.620  1.00  0.00    -0.026 C 
HETATM    3  C   UNL     1      -6.926  19.780  29.247  1.00  0.00     0.013 C 
HETATM    4  C   UNL     1      -5.079  17.614  28.141  1.00  0.00     0.001 C 
HETATM    5  C   UNL     1      -6.094  20.438  28.362  1.00  0.00     0.008 C 
HETATM    6  C   UNL     1      -5.480  19.840  27.264  1.00  0.00    -0.054 C 
HETATM    7  C   UNL     1      -4.645  18.736  27.442  1.00  0.00     0.007 C 
ENDROOT
BRANCH   6   8
HETATM    8  C   UNL     1      -5.692  20.403  25.877  1.00  0.00     0.082 C 
BRANCH   8   9
HETATM    9  C   UNL     1      -4.630  19.935  24.901  1.00  0.00     0.002 C 
HETATM   10  C   UNL     1      -4.843  18.868  24.024  1.00  0.00     0.194 C 
HETATM   11  F   UNL     1      -5.914  18.083  24.227  1.00  0.00    -0.186 F 
HETATM   12  N   UNL     1      -4.070  18.671  22.949  1.00  0.00    -0.343 N 
HETATM   13  C   UNL     1      -3.002  19.459  22.750  1.00  0.00     0.090 C 
ATOM     14  HN  UNL     1      -4.291  17.928  22.286  1.00  0.00     0.167 HD
HETATM   15  C   UNL     1      -2.600  20.358  23.705  1.00  0.00     0.018 C 
HETATM   16  C   UNL     1      -3.399  20.568  24.822  1.00  0.00     0.013 C 
ENDBRANCH   8   9
ENDBRANCH   6   8
BRANCH   2  17
HETATM   17  C   UNL     1      -7.816  18.027  30.735  1.00  0.00    -0.026 C 
HETATM   18  C   UNL     1      -8.262  16.705  30.832  1.00  0.00     0.012 C 
HETATM   19  C   UNL     1      -9.429  16.421  31.527  1.00  0.00     0.001 C 
HETATM   20  C   UNL     1     -10.061  17.421  32.270  1.00  0.00     0.000 C 
HETATM   21  C   UNL     1      -9.473  18.679  32.362  1.00  0.00     0.001 C 
HETATM   22  C   UNL     1      -8.338  18.983  31.610  1.00  0.00     0.012 C 
ENDBRANCH   2  17
TORSDOF 3
