MODEL 1
REMARK VINA RESULT:     -12.0      0.000      0.000
REMARK  4 active torsions:
REMARK  status: ('A' for Active; 'I' for Inactive)
REMARK    1  A    between atoms: C_1  and  C_20 
REMARK    2  A    between atoms: C_2  and  C_25 
REMARK    3  A    between atoms: CA_4  and  C_14 
REMARK    4  A    between atoms: C_8  and  N_15 
ROOT
HETATM    1  C   UNL     1      11.210  12.912  16.906  1.00  0.00    -0.042 C 
HETATM    2  C   UNL     1      12.661  13.023  16.543  1.00  0.00     0.040 C 
HETATM    3  C   UNL     1      10.450  12.528  15.715  1.00  0.00    -0.050 C 
HETATM    4  C   UNL     1      11.454  12.192  14.633  1.00  0.00     0.039 C 
HETATM    5  C   UNL     1      12.748  11.990  15.410  1.00  0.00     0.009 C 
HETATM    6  C   UNL     1       9.149  12.711  15.482  1.00  0.00     0.019 C 
ENDROOT
BRANCH   1   7
HETATM    7  C   UNL     1      10.507  13.416  18.115  1.00  0.00    -0.029 C 
HETATM    8  C   UNL     1       9.663  12.607  18.872  1.00  0.00     0.014 C 
HETATM    9  C   UNL     1       9.445  12.916  20.211  1.00  0.00     0.030 C 
HETATM   10  C   UNL     1      10.051  14.059  20.748  1.00  0.00     0.025 C 
HETATM   11  C   UNL     1      10.504  15.064  19.880  1.00  0.00     0.030 C 
HETATM   12  C   UNL     1      10.715  14.735  18.540  1.00  0.00     0.014 C 
BRANCH  10  13
HETATM   13  N   UNL     1      10.416  14.078  22.065  1.00  0.00    -0.399 N 
ATOM     14  HN2 UNL     1       9.780  13.710  22.772  1.00  0.00     0.156 HD
ATOM     15  HN1 UNL     1      11.382  14.281  22.322  1.00  0.00     0.156 HD
ENDBRANCH  10  13
ENDBRANCH   1   7
BRANCH   6  16
HETATM   16  C   UNL     1       7.869  12.157  15.211  1.00  0.00    -0.028 C 
HETATM   17  C   UNL     1       7.060  11.695  16.279  1.00  0.00     0.048 C 
HETATM   18  CA  UNL     1       5.958  10.919  15.941  1.00  0.00     0.113 C 
HETATM   19  N   UNL     1       5.263  11.284  14.796  1.00  0.00    -0.318 N 
HETATM   20  C   UNL     1       6.050  11.469  13.693  1.00  0.00     0.246 C 
ATOM     21  HN  UNL     1       4.251  11.403  14.778  1.00  0.00     0.169 HD
HETATM   22  C   UNL     1       7.352  12.030  13.904  1.00  0.00     0.085 C 
HETATM   23  O   UNL     1       5.610  11.162  12.565  1.00  0.00    -0.268 OA
BRANCH  18  24
HETATM   24  C   UNL     1       5.877   9.468  16.313  1.00  0.00     0.227 C 
HETATM   25  O   UNL     1       6.106   8.576  15.466  1.00  0.00    -0.643 OA
HETATM   26  OXT UNL     1       5.576   9.183  17.504  1.00  0.00    -0.643 OA
ENDBRANCH  18  24
ENDBRANCH   6  16
TORSDOF 4
ENDMDL
MODEL 2
REMARK VINA RESULT:     -11.5      2.111      3.770
REMARK  4 active torsions:
REMARK  status: ('A' for Active; 'I' for Inactive)
REMARK    1  A    between atoms: C_1  and  C_20 
REMARK    2  A    between atoms: C_2  and  C_25 
REMARK    3  A    between atoms: CA_4  and  C_14 
REMARK    4  A    between atoms: C_8  and  N_15 
ROOT
HETATM    1  C   UNL     1      10.567  13.783  18.686  1.00  0.00    -0.042 C 
HETATM    2  C   UNL     1      11.017  14.184  20.059  1.00  0.00     0.040 C 
HETATM    3  C   UNL     1       9.310  13.040  18.795  1.00  0.00    -0.050 C 
HETATM    4  C   UNL     1       8.851  13.148  20.234  1.00  0.00     0.039 C 
HETATM    5  C   UNL     1       9.663  14.317  20.771  1.00  0.00     0.009 C 
HETATM    6  C   UNL     1       8.792  12.178  17.918  1.00  0.00     0.019 C 
ENDROOT
BRANCH   1   7
HETATM    7  C   UNL     1      11.339  13.770  17.415  1.00  0.00    -0.029 C 
HETATM    8  C   UNL     1      12.445  12.944  17.230  1.00  0.00     0.014 C 
HETATM    9  C   UNL     1      12.811  12.578  15.939  1.00  0.00     0.030 C 
HETATM   10  C   UNL     1      12.078  13.085  14.859  1.00  0.00     0.025 C 
HETATM   11  C   UNL     1      11.289  14.231  15.046  1.00  0.00     0.030 C 
HETATM   12  C   UNL     1      10.934  14.584  16.349  1.00  0.00     0.014 C 
BRANCH  10  13
HETATM   13  N   UNL     1      11.938  12.338  13.723  1.00  0.00    -0.399 N 
ATOM     14  HN2 UNL     1      11.019  11.983  13.461  1.00  0.00     0.156 HD
ATOM     15  HN1 UNL     1      12.701  12.291  13.047  1.00  0.00     0.156 HD
ENDBRANCH  10  13
ENDBRANCH   1   7
BRANCH   6  16
HETATM   16  C   UNL     1       7.730  11.816  17.047  1.00  0.00    -0.028 C 
HETATM   17  C   UNL     1       6.827  10.789  17.422  1.00  0.00     0.048 C 
HETATM   18  CA  UNL     1       5.994  10.293  16.427  1.00  0.00     0.113 C 
HETATM   19  N   UNL     1       5.490  11.211  15.517  1.00  0.00    -0.318 N 
HETATM   20  C   UNL     1       6.432  12.030  14.960  1.00  0.00     0.246 C 
ATOM     21  HN  UNL     1       4.499  11.271  15.284  1.00  0.00     0.169 HD
HETATM   22  C   UNL     1       7.526  12.432  15.793  1.00  0.00     0.085 C 
HETATM   23  O   UNL     1       6.301  12.400  13.774  1.00  0.00    -0.268 OA
BRANCH  18  24
HETATM   24  C   UNL     1       6.127   8.886  15.922  1.00  0.00     0.227 C 
HETATM   25  O   UNL     1       5.880   8.610  14.727  1.00  0.00    -0.643 OA
HETATM   26  OXT UNL     1       6.500   8.002  16.739  1.00  0.00    -0.643 OA
ENDBRANCH  18  24
ENDBRANCH   6  16
TORSDOF 4
ENDMDL
MODEL 3
REMARK VINA RESULT:     -10.9      3.489      6.636
REMARK  4 active torsions:
REMARK  status: ('A' for Active; 'I' for Inactive)
REMARK    1  A    between atoms: C_1  and  C_20 
REMARK    2  A    between atoms: C_2  and  C_25 
REMARK    3  A    between atoms: CA_4  and  C_14 
REMARK    4  A    between atoms: C_8  and  N_15 
ROOT
HETATM    1  C   UNL     1      10.409  12.558  15.458  1.00  0.00    -0.042 C 
HETATM    2  C   UNL     1      11.292  11.960  14.404  1.00  0.00     0.040 C 
HETATM    3  C   UNL     1      11.225  12.902  16.624  1.00  0.00    -0.050 C 
HETATM    4  C   UNL     1      12.674  12.710  16.227  1.00  0.00     0.039 C 
HETATM    5  C   UNL     1      12.616  12.676  14.706  1.00  0.00     0.009 C 
HETATM    6  C   UNL     1      10.821  13.063  17.885  1.00  0.00     0.019 C 
ENDROOT
BRANCH   1   7
HETATM    7  C   UNL     1       8.926  12.530  15.561  1.00  0.00    -0.029 C 
HETATM    8  C   UNL     1       8.106  13.135  14.612  1.00  0.00     0.014 C 
HETATM    9  C   UNL     1       6.803  12.676  14.447  1.00  0.00     0.030 C 
HETATM   10  C   UNL     1       6.341  11.643  15.272  1.00  0.00     0.025 C 
HETATM   11  C   UNL     1       7.011  11.379  16.477  1.00  0.00     0.030 C 
HETATM   12  C   UNL     1       8.317  11.849  16.624  1.00  0.00     0.014 C 
BRANCH  10  13
HETATM   13  N   UNL     1       5.418  10.756  14.795  1.00  0.00    -0.399 N 
ATOM     14  HN2 UNL     1       4.758  11.049  14.075  1.00  0.00     0.156 HD
ATOM     15  HN1 UNL     1       5.504   9.763  15.016  1.00  0.00     0.156 HD
ENDBRANCH  10  13
ENDBRANCH   1   7
BRANCH   6  16
HETATM   16  C   UNL     1      10.688  13.900  19.025  1.00  0.00    -0.028 C 
HETATM   17  C   UNL     1       9.412  14.099  19.610  1.00  0.00     0.048 C 
HETATM   18  CA  UNL     1       9.299  15.130  20.532  1.00  0.00     0.113 C 
HETATM   19  N   UNL     1      10.372  15.322  21.392  1.00  0.00    -0.318 N 
HETATM   20  C   UNL     1      11.588  15.394  20.770  1.00  0.00     0.246 C 
ATOM     21  HN  UNL     1      10.263  15.403  22.402  1.00  0.00     0.169 HD
HETATM   22  C   UNL     1      11.782  14.568  19.615  1.00  0.00     0.085 C 
HETATM   23  O   UNL     1      12.469  16.151  21.228  1.00  0.00    -0.268 OA
BRANCH  18  24
HETATM   24  C   UNL     1       8.469  16.349  20.249  1.00  0.00     0.227 C 
HETATM   25  O   UNL     1       9.009  17.423  19.905  1.00  0.00    -0.643 OA
HETATM   26  OXT UNL     1       7.218  16.247  20.366  1.00  0.00    -0.643 OA
ENDBRANCH  18  24
ENDBRANCH   6  16
TORSDOF 4
ENDMDL
MODEL 4
REMARK VINA RESULT:     -10.9      3.463      6.777
REMARK  4 active torsions:
REMARK  status: ('A' for Active; 'I' for Inactive)
REMARK    1  A    between atoms: C_1  and  C_20 
REMARK    2  A    between atoms: C_2  and  C_25 
REMARK    3  A    between atoms: CA_4  and  C_14 
REMARK    4  A    between atoms: C_8  and  N_15 
ROOT
HETATM    1  C   UNL     1       9.655  13.237  15.229  1.00  0.00    -0.042 C 
HETATM    2  C   UNL     1      10.531  13.232  14.013  1.00  0.00     0.040 C 
HETATM    3  C   UNL     1      10.489  13.447  16.415  1.00  0.00    -0.050 C 
HETATM    4  C   UNL     1      11.882  13.783  15.927  1.00  0.00     0.039 C 
HETATM    5  C   UNL     1      11.658  14.168  14.472  1.00  0.00     0.009 C 
HETATM    6  C   UNL     1      10.207  13.125  17.679  1.00  0.00     0.019 C 
ENDROOT
BRANCH   1   7
HETATM    7  C   UNL     1       8.249  12.774  15.372  1.00  0.00    -0.029 C 
HETATM    8  C   UNL     1       7.282  13.035  14.405  1.00  0.00     0.014 C 
HETATM    9  C   UNL     1       6.177  12.196  14.305  1.00  0.00     0.030 C 
HETATM   10  C   UNL     1       6.050  11.135  15.210  1.00  0.00     0.025 C 
HETATM   11  C   UNL     1       6.773  11.171  16.412  1.00  0.00     0.030 C 
HETATM   12  C   UNL     1       7.878  12.021  16.494  1.00  0.00     0.014 C 
BRANCH  10  13
HETATM   13  N   UNL     1       5.435   9.979  14.818  1.00  0.00    -0.399 N 
ATOM     14  HN2 UNL     1       5.045   9.350  15.520  1.00  0.00     0.156 HD
ATOM     15  HN1 UNL     1       5.200   9.834  13.835  1.00  0.00     0.156 HD
ENDBRANCH  10  13
ENDBRANCH   1   7
BRANCH   6  16
HETATM   16  C   UNL     1      10.001  13.533  19.024  1.00  0.00    -0.028 C 
HETATM   17  C   UNL     1      10.417  14.822  19.442  1.00  0.00     0.048 C 
HETATM   18  CA  UNL     1      10.446  15.058  20.810  1.00  0.00     0.113 C 
HETATM   19  N   UNL     1       9.421  14.502  21.564  1.00  0.00    -0.318 N 
HETATM   20  C   UNL     1       9.210  13.170  21.332  1.00  0.00     0.246 C 
ATOM     21  HN  UNL     1       8.873  15.040  22.233  1.00  0.00     0.169 HD
HETATM   22  C   UNL     1       9.399  12.701  19.992  1.00  0.00     0.085 C 
HETATM   23  O   UNL     1       8.854  12.432  22.274  1.00  0.00    -0.268 OA
BRANCH  18  24
HETATM   24  C   UNL     1      11.737  15.286  21.540  1.00  0.00     0.227 C 
HETATM   25  O   UNL     1      12.777  15.595  20.918  1.00  0.00    -0.643 OA
HETATM   26  OXT UNL     1      11.732  15.160  22.794  1.00  0.00    -0.643 OA
ENDBRANCH  18  24
ENDBRANCH   6  16
TORSDOF 4
ENDMDL
MODEL 5
REMARK VINA RESULT:     -10.4      2.324      3.996
REMARK  4 active torsions:
REMARK  status: ('A' for Active; 'I' for Inactive)
REMARK    1  A    between atoms: C_1  and  C_20 
REMARK    2  A    between atoms: C_2  and  C_25 
REMARK    3  A    between atoms: CA_4  and  C_14 
REMARK    4  A    between atoms: C_8  and  N_15 
ROOT
HETATM    1  C   UNL     1      10.725  13.665  17.098  1.00  0.00    -0.042 C 
HETATM    2  C   UNL     1      11.644  14.059  18.216  1.00  0.00     0.040 C 
HETATM    3  C   UNL     1       9.678  12.789  17.630  1.00  0.00    -0.050 C 
HETATM    4  C   UNL     1       9.815  12.794  19.138  1.00  0.00     0.039 C 
HETATM    5  C   UNL     1      10.673  14.022  19.405  1.00  0.00     0.009 C 
HETATM    6  C   UNL     1       8.930  11.911  16.960  1.00  0.00     0.019 C 
ENDROOT
BRANCH   1   7
HETATM    7  C   UNL     1      10.933  13.781  15.631  1.00  0.00    -0.029 C 
HETATM    8  C   UNL     1       9.915  14.182  14.768  1.00  0.00     0.014 C 
HETATM    9  C   UNL     1      10.248  14.761  13.548  1.00  0.00     0.030 C 
HETATM   10  C   UNL     1      11.600  14.885  13.205  1.00  0.00     0.025 C 
HETATM   11  C   UNL     1      12.549  14.088  13.863  1.00  0.00     0.030 C 
HETATM   12  C   UNL     1      12.196  13.514  15.086  1.00  0.00     0.014 C 
BRANCH  10  13
HETATM   13  N   UNL     1      12.009  15.934  12.430  1.00  0.00    -0.399 N 
ATOM     14  HN2 UNL     1      11.609  16.860  12.579  1.00  0.00     0.156 HD
ATOM     15  HN1 UNL     1      12.835  15.838  11.838  1.00  0.00     0.156 HD
ENDBRANCH  10  13
ENDBRANCH   1   7
BRANCH   6  16
HETATM   16  C   UNL     1       7.644  11.472  16.544  1.00  0.00    -0.028 C 
HETATM   17  C   UNL     1       6.816  10.756  17.445  1.00  0.00     0.048 C 
HETATM   18  CA  UNL     1       5.707  10.119  16.905  1.00  0.00     0.113 C 
HETATM   19  N   UNL     1       5.030  10.788  15.895  1.00  0.00    -0.318 N 
HETATM   20  C   UNL     1       5.831  11.247  14.886  1.00  0.00     0.246 C 
ATOM     21  HN  UNL     1       4.020  10.927  15.904  1.00  0.00     0.169 HD
HETATM   22  C   UNL     1       7.139  11.708  15.247  1.00  0.00     0.085 C 
HETATM   23  O   UNL     1       5.398  11.260  13.715  1.00  0.00    -0.268 OA
BRANCH  18  24
HETATM   24  C   UNL     1       5.598   8.623  16.877  1.00  0.00     0.227 C 
HETATM   25  O   UNL     1       6.311   7.944  16.104  1.00  0.00    -0.643 OA
HETATM   26  OXT UNL     1       4.772   8.079  17.658  1.00  0.00    -0.643 OA
ENDBRANCH  18  24
ENDBRANCH   6  16
TORSDOF 4
ENDMDL
MODEL 6
REMARK VINA RESULT:     -10.3      2.149      4.356
REMARK  4 active torsions:
REMARK  status: ('A' for Active; 'I' for Inactive)
REMARK    1  A    between atoms: C_1  and  C_20 
REMARK    2  A    between atoms: C_2  and  C_25 
REMARK    3  A    between atoms: CA_4  and  C_14 
REMARK    4  A    between atoms: C_8  and  N_15 
ROOT
HETATM    1  C   UNL     1      10.793  13.839  18.629  1.00  0.00    -0.042 C 
HETATM    2  C   UNL     1      11.216  14.380  19.962  1.00  0.00     0.040 C 
HETATM    3  C   UNL     1       9.626  12.973  18.815  1.00  0.00    -0.050 C 
HETATM    4  C   UNL     1       9.179  13.130  20.253  1.00  0.00     0.039 C 
HETATM    5  C   UNL     1       9.866  14.415  20.693  1.00  0.00     0.009 C 
HETATM    6  C   UNL     1       9.193  12.002  18.010  1.00  0.00     0.019 C 
ENDROOT
BRANCH   1   7
HETATM    7  C   UNL     1      11.544  13.821  17.346  1.00  0.00    -0.029 C 
HETATM    8  C   UNL     1      12.654  13.003  17.149  1.00  0.00     0.014 C 
HETATM    9  C   UNL     1      13.002  12.629  15.854  1.00  0.00     0.030 C 
HETATM   10  C   UNL     1      12.246  13.120  14.783  1.00  0.00     0.025 C 
HETATM   11  C   UNL     1      11.451  14.261  14.973  1.00  0.00     0.030 C 
HETATM   12  C   UNL     1      11.114  14.622  16.279  1.00  0.00     0.014 C 
BRANCH  10  13
HETATM   13  N   UNL     1      12.093  12.362  13.656  1.00  0.00    -0.399 N 
ATOM     14  HN2 UNL     1      11.996  12.817  12.749  1.00  0.00     0.156 HD
ATOM     15  HN1 UNL     1      12.262  11.356  13.692  1.00  0.00     0.156 HD
ENDBRANCH  10  13
ENDBRANCH   1   7
BRANCH   6  16
HETATM   16  C   UNL     1       8.165  11.468  17.187  1.00  0.00    -0.028 C 
HETATM   17  C   UNL     1       8.271  11.558  15.776  1.00  0.00     0.048 C 
HETATM   18  CA  UNL     1       7.126  11.277  15.043  1.00  0.00     0.113 C 
HETATM   19  N   UNL     1       6.325  10.242  15.504  1.00  0.00    -0.318 N 
HETATM   20  C   UNL     1       6.010  10.320  16.833  1.00  0.00     0.246 C 
ATOM     21  HN  UNL     1       5.998   9.486  14.903  1.00  0.00     0.169 HD
HETATM   22  C   UNL     1       7.011  10.847  17.712  1.00  0.00     0.085 C 
HETATM   23  O   UNL     1       4.892   9.926  17.224  1.00  0.00    -0.268 OA
BRANCH  18  24
HETATM   24  C   UNL     1       6.421  12.340  14.252  1.00  0.00     0.227 C 
HETATM   25  O   UNL     1       6.713  13.547  14.401  1.00  0.00    -0.643 OA
HETATM   26  OXT UNL     1       5.533  11.972  13.436  1.00  0.00    -0.643 OA
ENDBRANCH  18  24
ENDBRANCH   6  16
TORSDOF 4
ENDMDL
MODEL 7
REMARK VINA RESULT:     -10.1      3.715      5.552
REMARK  4 active torsions:
REMARK  status: ('A' for Active; 'I' for Inactive)
REMARK    1  A    between atoms: C_1  and  C_20 
REMARK    2  A    between atoms: C_2  and  C_25 
REMARK    3  A    between atoms: CA_4  and  C_14 
REMARK    4  A    between atoms: C_8  and  N_15 
ROOT
HETATM    1  C   UNL     1       9.659  13.587  20.759  1.00  0.00    -0.042 C 
HETATM    2  C   UNL     1       8.745  12.783  21.633  1.00  0.00     0.040 C 
HETATM    3  C   UNL     1       9.919  12.839  19.527  1.00  0.00    -0.050 C 
HETATM    4  C   UNL     1       8.995  11.640  19.530  1.00  0.00     0.039 C 
HETATM    5  C   UNL     1       7.950  12.008  20.573  1.00  0.00     0.009 C 
HETATM    6  C   UNL     1      10.950  12.974  18.691  1.00  0.00     0.019 C 
ENDROOT
BRANCH   1   7
HETATM    7  C   UNL     1      10.495  14.765  21.112  1.00  0.00    -0.029 C 
HETATM    8  C   UNL     1      11.200  14.839  22.311  1.00  0.00     0.014 C 
HETATM    9  C   UNL     1      12.324  15.656  22.389  1.00  0.00     0.030 C 
HETATM   10  C   UNL     1      12.690  16.411  21.269  1.00  0.00     0.025 C 
HETATM   11  C   UNL     1      11.736  16.656  20.268  1.00  0.00     0.030 C 
HETATM   12  C   UNL     1      10.614  15.828  20.207  1.00  0.00     0.014 C 
BRANCH  10  13
HETATM   13  N   UNL     1      14.008  16.687  21.037  1.00  0.00    -0.399 N 
ATOM     14  HN2 UNL     1      14.725  16.035  21.356  1.00  0.00     0.156 HD
ATOM     15  HN1 UNL     1      14.267  17.435  20.394  1.00  0.00     0.156 HD
ENDBRANCH  10  13
ENDBRANCH   1   7
BRANCH   6  16
HETATM   16  C   UNL     1      11.433  13.271  17.388  1.00  0.00    -0.028 C 
HETATM   17  C   UNL     1      10.978  14.433  16.715  1.00  0.00     0.048 C 
HETATM   18  CA  UNL     1      11.262  14.522  15.358  1.00  0.00     0.113 C 
HETATM   19  N   UNL     1      12.503  14.056  14.946  1.00  0.00    -0.318 N 
HETATM   20  C   UNL     1      12.814  12.803  15.398  1.00  0.00     0.246 C 
ATOM     21  HN  UNL     1      13.130  14.602  14.356  1.00  0.00     0.169 HD
HETATM   22  C   UNL     1      12.357  12.448  16.709  1.00  0.00     0.085 C 
HETATM   23  O   UNL     1      13.482  12.036  14.674  1.00  0.00    -0.268 OA
BRANCH  18  24
HETATM   24  C   UNL     1      10.175  14.473  14.324  1.00  0.00     0.227 C 
HETATM   25  O   UNL     1      10.247  15.171  13.288  1.00  0.00    -0.643 OA
HETATM   26  OXT UNL     1       9.198  13.705  14.535  1.00  0.00    -0.643 OA
ENDBRANCH  18  24
ENDBRANCH   6  16
TORSDOF 4
ENDMDL
MODEL 8
REMARK VINA RESULT:      -9.8      0.873      2.254
REMARK  4 active torsions:
REMARK  status: ('A' for Active; 'I' for Inactive)
REMARK    1  A    between atoms: C_1  and  C_20 
REMARK    2  A    between atoms: C_2  and  C_25 
REMARK    3  A    between atoms: CA_4  and  C_14 
REMARK    4  A    between atoms: C_8  and  N_15 
ROOT
HETATM    1  C   UNL     1      11.444  13.114  16.894  1.00  0.00    -0.042 C 
HETATM    2  C   UNL     1      12.869  13.384  16.514  1.00  0.00     0.040 C 
HETATM    3  C   UNL     1      10.730  12.598  15.724  1.00  0.00    -0.050 C 
HETATM    4  C   UNL     1      11.763  12.344  14.647  1.00  0.00     0.039 C 
HETATM    5  C   UNL     1      13.074  12.328  15.419  1.00  0.00     0.009 C 
HETATM    6  C   UNL     1       9.415  12.616  15.496  1.00  0.00     0.019 C 
ENDROOT
BRANCH   1   7
HETATM    7  C   UNL     1      10.691  13.575  18.090  1.00  0.00    -0.029 C 
HETATM    8  C   UNL     1       9.838  12.731  18.798  1.00  0.00     0.014 C 
HETATM    9  C   UNL     1       9.569  13.004  20.136  1.00  0.00     0.030 C 
HETATM   10  C   UNL     1      10.134  14.144  20.720  1.00  0.00     0.025 C 
HETATM   11  C   UNL     1      10.596  15.179  19.892  1.00  0.00     0.030 C 
HETATM   12  C   UNL     1      10.858  14.887  18.553  1.00  0.00     0.014 C 
BRANCH  10  13
HETATM   13  N   UNL     1      10.455  14.138  22.048  1.00  0.00    -0.399 N 
ATOM     14  HN2 UNL     1      10.155  13.361  22.638  1.00  0.00     0.156 HD
ATOM     15  HN1 UNL     1      11.141  14.800  22.410  1.00  0.00     0.156 HD
ENDBRANCH  10  13
ENDBRANCH   1   7
BRANCH   6  16
HETATM   16  C   UNL     1       8.210  11.903  15.256  1.00  0.00    -0.028 C 
HETATM   17  C   UNL     1       7.904  11.453  13.947  1.00  0.00     0.048 C 
HETATM   18  CA  UNL     1       6.605  11.016  13.723  1.00  0.00     0.113 C 
HETATM   19  N   UNL     1       6.000  10.297  14.744  1.00  0.00    -0.318 N 
HETATM   20  C   UNL     1       6.079  10.888  15.975  1.00  0.00     0.246 C 
ATOM     21  HN  UNL     1       5.536   9.402  14.590  1.00  0.00     0.169 HD
HETATM   22  C   UNL     1       7.274  11.619  16.275  1.00  0.00     0.085 C 
HETATM   23  O   UNL     1       5.132  10.762  16.779  1.00  0.00    -0.268 OA
BRANCH  18  24
HETATM   24  C   UNL     1       5.671  11.765  12.817  1.00  0.00     0.227 C 
HETATM   25  O   UNL     1       5.004  11.162  11.947  1.00  0.00    -0.643 OA
HETATM   26  OXT UNL     1       5.581  13.013  12.969  1.00  0.00    -0.643 OA
ENDBRANCH  18  24
ENDBRANCH   6  16
TORSDOF 4
ENDMDL
MODEL 9
REMARK VINA RESULT:      -9.7      2.452      4.410
REMARK  4 active torsions:
REMARK  status: ('A' for Active; 'I' for Inactive)
REMARK    1  A    between atoms: C_1  and  C_20 
REMARK    2  A    between atoms: C_2  and  C_25 
REMARK    3  A    between atoms: CA_4  and  C_14 
REMARK    4  A    between atoms: C_8  and  N_15 
ROOT
HETATM    1  C   UNL     1       9.694  13.542  20.683  1.00  0.00    -0.042 C 
HETATM    2  C   UNL     1       9.190  12.874  21.928  1.00  0.00     0.040 C 
HETATM    3  C   UNL     1       9.414  12.678  19.534  1.00  0.00    -0.050 C 
HETATM    4  C   UNL     1       8.541  11.545  20.029  1.00  0.00     0.039 C 
HETATM    5  C   UNL     1       8.015  12.066  21.359  1.00  0.00     0.009 C 
HETATM    6  C   UNL     1      10.023  12.676  18.347  1.00  0.00     0.019 C 
ENDROOT
BRANCH   1   7
HETATM    7  C   UNL     1      10.630  14.689  20.550  1.00  0.00    -0.029 C 
HETATM    8  C   UNL     1      10.206  16.010  20.681  1.00  0.00     0.014 C 
HETATM    9  C   UNL     1      11.125  16.984  21.058  1.00  0.00     0.030 C 
HETATM   10  C   UNL     1      12.461  16.613  21.256  1.00  0.00     0.025 C 
HETATM   11  C   UNL     1      12.928  15.415  20.694  1.00  0.00     0.030 C 
HETATM   12  C   UNL     1      11.992  14.450  20.319  1.00  0.00     0.014 C 
BRANCH  10  13
HETATM   13  N   UNL     1      13.218  17.274  22.182  1.00  0.00    -0.399 N 
ATOM     14  HN2 UNL     1      12.833  17.469  23.106  1.00  0.00     0.156 HD
ATOM     15  HN1 UNL     1      14.217  17.407  22.022  1.00  0.00     0.156 HD
ENDBRANCH  10  13
ENDBRANCH   1   7
BRANCH   6  16
HETATM   16  C   UNL     1       9.946  12.831  16.937  1.00  0.00    -0.028 C 
HETATM   17  C   UNL     1       8.742  13.286  16.342  1.00  0.00     0.048 C 
HETATM   18  CA  UNL     1       8.635  13.152  14.963  1.00  0.00     0.113 C 
HETATM   19  N   UNL     1       9.782  13.392  14.220  1.00  0.00    -0.318 N 
HETATM   20  C   UNL     1      10.891  12.724  14.660  1.00  0.00     0.246 C 
ATOM     21  HN  UNL     1       9.797  14.015  13.412  1.00  0.00     0.169 HD
HETATM   22  C   UNL     1      11.026  12.540  16.075  1.00  0.00     0.085 C 
HETATM   23  O   UNL     1      11.734  12.318  13.833  1.00  0.00    -0.268 OA
BRANCH  18  24
HETATM   24  C   UNL     1       7.644  12.213  14.341  1.00  0.00     0.227 C 
HETATM   25  O   UNL     1       7.803  11.799  13.171  1.00  0.00    -0.643 OA
HETATM   26  OXT UNL     1       6.656  11.855  15.038  1.00  0.00    -0.643 OA
ENDBRANCH  18  24
ENDBRANCH   6  16
TORSDOF 4
ENDMDL
