REMARK  3 active torsions:
REMARK  status: ('A' for Active; 'I' for Inactive)
REMARK    1  A    between atoms: C_12  and  C_21 
REMARK    2  A    between atoms: C_13  and  O_25 
REMARK    3  A    between atoms: C_22  and  O_30 
ROOT
HETATM    1  C   UNL     1       0.127  -9.775  17.714  1.00  0.00     0.013 C 
HETATM    2  C   UNL     1      -1.741 -10.087  15.947  1.00  0.00    -0.026 C 
HETATM    3  C   UNL     1      -2.244 -11.221  22.104  1.00  0.00     0.016 C 
HETATM    4  C   UNL     1       0.312 -11.251  18.087  1.00  0.00     0.006 C 
HETATM    5  C   UNL     1      -1.178 -13.030  18.792  1.00  0.00     0.014 C 
HETATM    6  C   UNL     1       0.274 -12.289  16.972  1.00  0.00    -0.004 C 
HETATM    7  C   UNL     1      -2.062 -12.559  16.412  1.00  0.00     0.013 C 
HETATM    8  C   UNL     1       0.257 -11.046  22.031  1.00  0.00     0.161 C 
HETATM    9  C   UNL     1      -1.448 -11.519  15.470  1.00  0.00     0.008 C 
HETATM   10  C   UNL     1       0.061 -11.755  15.558  1.00  0.00     0.014 C 
HETATM   11  C   UNL     1      -1.023 -11.250  22.758  1.00  0.00     0.020 C 
HETATM   12  C   UNL     1       0.096  -8.872  18.955  1.00  0.00     0.018 C 
HETATM   13  C   UNL     1      -0.988  -9.400  16.800  1.00  0.00    -0.025 C 
HETATM   14  C   UNL     1      -0.362 -11.848  19.322  1.00  0.00     0.020 C 
HETATM   15  C   UNL     1       0.549  -9.724  21.333  1.00  0.00     0.093 C 
HETATM   16  O   UNL     1       1.072 -11.950  21.930  1.00  0.00    -0.292 OA
HETATM   17  C   UNL     1      -1.162 -10.770  20.029  1.00  0.00    -0.071 C 
HETATM   18  C   UNL     1      -0.950 -13.141  17.279  1.00  0.00    -0.009 C 
HETATM   19  C   UNL     1      -0.487  -9.449  20.242  1.00  0.00     0.023 C 
HETATM   20  C   UNL     1      -2.320 -11.052  20.707  1.00  0.00     0.005 C 
ENDROOT
BRANCH  11  21
HETATM   21  C   UNL     1      -0.978 -11.468  24.146  1.00  0.00    -0.020 C 
HETATM   22  C   UNL     1       0.173 -12.020  24.686  1.00  0.00     0.012 C 
HETATM   23  C   UNL     1       0.323 -12.723  25.853  1.00  0.00     0.004 C 
HETATM   24  C   UNL     1      -0.406 -12.782  27.013  1.00  0.00     0.039 C 
HETATM   25  C   UNL     1      -1.642 -12.161  27.141  1.00  0.00     0.098 C 
HETATM   26  C   UNL     1      -1.982 -11.036  26.359  1.00  0.00     0.099 C 
HETATM   27  C   UNL     1      -2.021 -11.085  24.976  1.00  0.00     0.051 C 
BRANCH  25  28
HETATM   28  O   UNL     1      -2.501 -12.550  28.117  1.00  0.00    -0.358 OA
ATOM     29  HO  UNL     1      -3.346 -12.125  28.205  1.00  0.00     0.217 HD
ENDBRANCH  25  28
BRANCH  26  30
HETATM   30  O   UNL     1      -2.338  -9.911  27.046  1.00  0.00    -0.358 OA
ATOM     31  HO  UNL     1      -2.567  -9.154  26.520  1.00  0.00     0.217 HD
ENDBRANCH  26  30
ENDBRANCH  11  21
TORSDOF 3
