MODEL 1
REMARK VINA RESULT:     -11.8      0.000      0.000
REMARK  10 active torsions:
REMARK  status: ('A' for Active; 'I' for Inactive)
REMARK    1  A    between atoms: C_1  and  C_4 
REMARK    2  A    between atoms: O_9  and  C_21 
REMARK    3  A    between atoms: N_13  and  C_28 
REMARK    4  A    between atoms: N_13  and  C_36 
REMARK    5  A    between atoms: C_15  and  O_24 
REMARK    6  A    between atoms: C_15  and  N_27 
REMARK    7  A    between atoms: C_16  and  C_34 
REMARK    8  A    between atoms: C_20  and  C_34 
REMARK    9  A    between atoms: C_20  and  C_42 
REMARK   10  A    between atoms: C_39  and  O_40 
ROOT
HETATM    1  C   UNL     1     -15.844   5.851  -5.175  1.00  0.00     0.003 C 
HETATM    2  C   UNL     1     -15.564   8.173  -4.463  1.00  0.00     0.006 C 
HETATM    3  C   UNL     1     -16.962   7.651  -4.182  1.00  0.00    -0.009 C 
HETATM    4  C   UNL     1     -14.806   6.955  -4.972  1.00  0.00     0.016 C 
HETATM    5  C   UNL     1     -17.064   6.939  -2.809  1.00  0.00    -0.010 C 
HETATM    6  C   UNL     1     -15.933   4.936  -3.941  1.00  0.00     0.016 C 
HETATM    7  C   UNL     1     -17.164   6.617  -5.310  1.00  0.00     0.020 C 
HETATM    8  C   UNL     1     -16.862   5.427  -2.834  1.00  0.00     0.006 C 
ENDROOT
BRANCH   1   9
HETATM    9  C   UNL     1     -15.483   5.012  -6.388  1.00  0.00     0.019 C 
HETATM   10  N   UNL     1     -14.282   4.436  -6.395  1.00  0.00    -0.345 N 
HETATM   11  C   UNL     1     -13.965   3.263  -6.985  1.00  0.00     0.101 C 
ATOM     12  HN  UNL     1     -13.531   4.927  -5.909  1.00  0.00     0.167 HD
HETATM   13  C   UNL     1     -14.905   2.327  -7.452  1.00  0.00     0.048 C 
HETATM   14  C   UNL     1     -15.939   2.567  -8.336  1.00  0.00     0.004 C 
HETATM   15  C   UNL     1     -16.657   3.767  -8.267  1.00  0.00     0.002 C 
HETATM   16  C   UNL     1     -16.405   4.817  -7.411  1.00  0.00     0.026 C 
BRANCH  11  17
HETATM   17  N   UNL     1     -12.619   2.974  -7.053  1.00  0.00    -0.371 N 
ATOM     18  HN  UNL     1     -12.028   3.376  -7.780  1.00  0.00     0.161 HD
BRANCH  17  19
HETATM   19  C   UNL     1     -12.078   2.080  -6.055  1.00  0.00     0.088 C 
HETATM   20  C   UNL     1     -10.578   2.124  -5.826  1.00  0.00     0.059 C 
HETATM   21  C   UNL     1     -10.301   0.753  -5.215  1.00  0.00     0.148 C 
HETATM   22  C   UNL     1     -11.592  -0.036  -5.119  1.00  0.00     0.148 C 
HETATM   23  C   UNL     1     -12.443   0.620  -6.205  1.00  0.00     0.059 C 
BRANCH  21  24
HETATM   24  O   UNL     1      -9.495   0.737  -4.074  1.00  0.00    -0.393 OA
ATOM     25  HO  UNL     1      -8.901   0.001  -3.990  1.00  0.00     0.210 HD
ENDBRANCH  21  24
BRANCH  22  26
HETATM   26  O   UNL     1     -11.266  -1.373  -5.469  1.00  0.00    -0.393 OA
ATOM     27  HO  UNL     1     -10.401  -1.342  -5.860  1.00  0.00     0.210 HD
ENDBRANCH  22  26
ENDBRANCH  17  19
ENDBRANCH  11  17
ENDBRANCH   1   9
BRANCH   5  28
HETATM   28  C   UNL     1     -16.002   7.561  -1.898  1.00  0.00     0.005 C 
BRANCH  28  29
HETATM   29  C   UNL     1     -15.877   7.091  -0.467  1.00  0.00     0.010 C 
BRANCH  29  30
HETATM   30  C   UNL     1     -15.862   8.198   0.585  1.00  0.00     0.042 C 
HETATM   31  C   UNL     1     -16.528   7.760   1.892  1.00  0.00     0.140 C 
HETATM   32  C   UNL     1     -17.967   8.211   1.776  1.00  0.00     0.062 C 
HETATM   33  C   UNL     1     -18.016   9.256   0.698  1.00  0.00     0.005 C 
HETATM   34  C   UNL     1     -16.665   9.367   0.049  1.00  0.00     0.010 C 
BRANCH  31  35
HETATM   35  O   UNL     1     -16.532   6.354   1.987  1.00  0.00    -0.370 OA
ATOM     36  HO  UNL     1     -17.070   6.022   1.279  1.00  0.00     0.212 HD
ENDBRANCH  31  35
BRANCH  31  37
HETATM   37  N   UNL     1     -15.837   8.312   3.054  1.00  0.00    -0.334 N 
HETATM   38  C   UNL     1     -16.535   8.749   4.148  1.00  0.00     0.093 C 
HETATM   39  C   UNL     1     -16.022   9.813   4.874  1.00  0.00     0.017 C 
HETATM   40  C   UNL     1     -14.707  10.229   4.664  1.00  0.00     0.003 C 
HETATM   41  C   UNL     1     -13.905   9.488   3.800  1.00  0.00     0.017 C 
HETATM   42  C   UNL     1     -14.447   8.402   3.110  1.00  0.00     0.093 C 
ENDBRANCH  31  37
ENDBRANCH  29  30
ENDBRANCH  28  29
ENDBRANCH   5  28
TORSDOF 10
ENDMDL
MODEL 2
REMARK VINA RESULT:     -10.9      2.025      9.883
REMARK  10 active torsions:
REMARK  status: ('A' for Active; 'I' for Inactive)
REMARK    1  A    between atoms: C_1  and  C_4 
REMARK    2  A    between atoms: O_9  and  C_21 
REMARK    3  A    between atoms: N_13  and  C_28 
REMARK    4  A    between atoms: N_13  and  C_36 
REMARK    5  A    between atoms: C_15  and  O_24 
REMARK    6  A    between atoms: C_15  and  N_27 
REMARK    7  A    between atoms: C_16  and  C_34 
REMARK    8  A    between atoms: C_20  and  C_34 
REMARK    9  A    between atoms: C_20  and  C_42 
REMARK   10  A    between atoms: C_39  and  O_40 
ROOT
HETATM    1  C   UNL     1     -16.079   6.892  -3.302  1.00  0.00     0.003 C 
HETATM    2  C   UNL     1     -17.727   6.370  -5.031  1.00  0.00     0.006 C 
HETATM    3  C   UNL     1     -16.950   7.637  -5.343  1.00  0.00    -0.009 C 
HETATM    4  C   UNL     1     -17.054   5.817  -3.783  1.00  0.00     0.016 C 
HETATM    5  C   UNL     1     -15.632   7.352  -6.106  1.00  0.00    -0.010 C 
HETATM    6  C   UNL     1     -14.661   6.639  -3.842  1.00  0.00     0.016 C 
HETATM    7  C   UNL     1     -16.619   8.179  -3.936  1.00  0.00     0.020 C 
HETATM    8  C   UNL     1     -14.387   7.197  -5.237  1.00  0.00     0.006 C 
ENDROOT
BRANCH   1   9
HETATM    9  C   UNL     1     -16.033   6.917  -1.785  1.00  0.00     0.019 C 
HETATM   10  N   UNL     1     -16.359   8.060  -1.185  1.00  0.00    -0.345 N 
HETATM   11  C   UNL     1     -16.944   8.184   0.027  1.00  0.00     0.101 C 
ATOM     12  HN  UNL     1     -16.147   8.923  -1.686  1.00  0.00     0.167 HD
HETATM   13  C   UNL     1     -17.552   7.129   0.730  1.00  0.00     0.048 C 
HETATM   14  C   UNL     1     -16.975   5.918   1.060  1.00  0.00     0.004 C 
HETATM   15  C   UNL     1     -16.118   5.278   0.155  1.00  0.00     0.002 C 
HETATM   16  C   UNL     1     -15.719   5.766  -1.070  1.00  0.00     0.026 C 
BRANCH  11  17
HETATM   17  N   UNL     1     -16.985   9.463   0.542  1.00  0.00    -0.371 N 
ATOM     18  HN  UNL     1     -17.566  10.185   0.118  1.00  0.00     0.161 HD
BRANCH  17  19
HETATM   19  C   UNL     1     -16.172   9.739   1.703  1.00  0.00     0.088 C 
HETATM   20  C   UNL     1     -14.950   8.864   1.918  1.00  0.00     0.059 C 
HETATM   21  C   UNL     1     -14.701   9.014   3.417  1.00  0.00     0.148 C 
HETATM   22  C   UNL     1     -15.751   9.924   4.023  1.00  0.00     0.148 C 
HETATM   23  C   UNL     1     -16.902   9.784   3.027  1.00  0.00     0.059 C 
BRANCH  21  24
HETATM   24  O   UNL     1     -13.383   9.270   3.800  1.00  0.00    -0.393 OA
ATOM     25  HO  UNL     1     -12.740   9.299   3.102  1.00  0.00     0.210 HD
ENDBRANCH  21  24
BRANCH  22  26
HETATM   26  O   UNL     1     -16.093   9.355   5.277  1.00  0.00    -0.393 OA
ATOM     27  HO  UNL     1     -15.314   9.413   5.817  1.00  0.00     0.210 HD
ENDBRANCH  22  26
ENDBRANCH  17  19
ENDBRANCH  11  17
ENDBRANCH   1   9
BRANCH   5  28
HETATM   28  C   UNL     1     -15.840   6.058  -6.899  1.00  0.00     0.005 C 
BRANCH  28  29
HETATM   29  C   UNL     1     -14.641   5.238  -7.320  1.00  0.00     0.010 C 
BRANCH  29  30
HETATM   30  C   UNL     1     -14.338   4.027  -6.441  1.00  0.00     0.042 C 
HETATM   31  C   UNL     1     -13.577   2.938  -7.203  1.00  0.00     0.140 C 
HETATM   32  C   UNL     1     -14.642   1.999  -7.724  1.00  0.00     0.062 C 
HETATM   33  C   UNL     1     -15.885   2.253  -6.921  1.00  0.00     0.005 C 
HETATM   34  C   UNL     1     -15.658   3.422  -6.003  1.00  0.00     0.010 C 
BRANCH  31  35
HETATM   35  O   UNL     1     -12.921   3.495  -8.317  1.00  0.00    -0.370 OA
ATOM     36  HO  UNL     1     -12.995   2.875  -9.032  1.00  0.00     0.212 HD
ENDBRANCH  31  35
BRANCH  31  37
HETATM   37  N   UNL     1     -12.590   2.282  -6.350  1.00  0.00    -0.334 N 
HETATM   38  C   UNL     1     -11.395   2.886  -6.062  1.00  0.00     0.093 C 
HETATM   39  C   UNL     1     -10.280   2.083  -5.877  1.00  0.00     0.017 C 
HETATM   40  C   UNL     1     -10.434   0.707  -5.708  1.00  0.00     0.003 C 
HETATM   41  C   UNL     1     -11.723   0.187  -5.621  1.00  0.00     0.017 C 
HETATM   42  C   UNL     1     -12.823   1.031  -5.780  1.00  0.00     0.093 C 
ENDBRANCH  31  37
ENDBRANCH  29  30
ENDBRANCH  28  29
ENDBRANCH   5  28
TORSDOF 10
ENDMDL
MODEL 3
REMARK VINA RESULT:     -10.0      2.054      9.755
REMARK  10 active torsions:
REMARK  status: ('A' for Active; 'I' for Inactive)
REMARK    1  A    between atoms: C_1  and  C_4 
REMARK    2  A    between atoms: O_9  and  C_21 
REMARK    3  A    between atoms: N_13  and  C_28 
REMARK    4  A    between atoms: N_13  and  C_36 
REMARK    5  A    between atoms: C_15  and  O_24 
REMARK    6  A    between atoms: C_15  and  N_27 
REMARK    7  A    between atoms: C_16  and  C_34 
REMARK    8  A    between atoms: C_20  and  C_34 
REMARK    9  A    between atoms: C_20  and  C_42 
REMARK   10  A    between atoms: C_39  and  O_40 
ROOT
HETATM    1  C   UNL     1     -16.835   4.791  -4.991  1.00  0.00     0.003 C 
HETATM    2  C   UNL     1     -16.281   2.583  -4.098  1.00  0.00     0.006 C 
HETATM    3  C   UNL     1     -17.418   2.527  -5.102  1.00  0.00    -0.009 C 
HETATM    4  C   UNL     1     -15.814   4.031  -4.143  1.00  0.00     0.016 C 
HETATM    5  C   UNL     1     -16.915   2.382  -6.561  1.00  0.00    -0.010 C 
HETATM    6  C   UNL     1     -16.379   4.887  -6.458  1.00  0.00     0.016 C 
HETATM    7  C   UNL     1     -18.086   3.908  -4.927  1.00  0.00     0.020 C 
HETATM    8  C   UNL     1     -16.740   3.688  -7.331  1.00  0.00     0.006 C 
ENDROOT
BRANCH   1   9
HETATM    9  C   UNL     1     -17.032   6.192  -4.441  1.00  0.00     0.019 C 
HETATM   10  N   UNL     1     -17.302   6.303  -3.141  1.00  0.00    -0.345 N 
HETATM   11  C   UNL     1     -16.951   7.334  -2.341  1.00  0.00     0.101 C 
ATOM     12  HN  UNL     1     -17.822   5.540  -2.709  1.00  0.00     0.167 HD
HETATM   13  C   UNL     1     -16.012   8.323  -2.683  1.00  0.00     0.048 C 
HETATM   14  C   UNL     1     -16.025   9.119  -3.812  1.00  0.00     0.004 C 
HETATM   15  C   UNL     1     -16.422   8.584  -5.044  1.00  0.00     0.002 C 
HETATM   16  C   UNL     1     -16.876   7.302  -5.264  1.00  0.00     0.026 C 
BRANCH  11  17
HETATM   17  N   UNL     1     -17.526   7.339  -1.089  1.00  0.00    -0.371 N 
ATOM     18  HN  UNL     1     -18.474   6.993  -0.940  1.00  0.00     0.161 HD
BRANCH  17  19
HETATM   19  C   UNL     1     -16.736   7.854   0.006  1.00  0.00     0.088 C 
HETATM   20  C   UNL     1     -16.582   6.965   1.227  1.00  0.00     0.059 C 
HETATM   21  C   UNL     1     -16.244   7.972   2.323  1.00  0.00     0.148 C 
HETATM   22  C   UNL     1     -16.224   9.373   1.744  1.00  0.00     0.148 C 
HETATM   23  C   UNL     1     -17.127   9.221   0.521  1.00  0.00     0.059 C 
BRANCH  21  24
HETATM   24  O   UNL     1     -15.168   7.644   3.152  1.00  0.00    -0.393 OA
ATOM     25  HO  UNL     1     -15.369   7.524   4.072  1.00  0.00     0.210 HD
ENDBRANCH  21  24
BRANCH  22  26
HETATM   26  O   UNL     1     -16.825  10.213   2.717  1.00  0.00    -0.393 OA
ATOM     27  HO  UNL     1     -17.735  10.308   2.460  1.00  0.00     0.210 HD
ENDBRANCH  22  26
ENDBRANCH  17  19
ENDBRANCH  11  17
ENDBRANCH   1   9
BRANCH   5  28
HETATM   28  C   UNL     1     -15.565   1.661  -6.503  1.00  0.00     0.005 C 
BRANCH  28  29
HETATM   29  C   UNL     1     -14.735   1.527  -7.760  1.00  0.00     0.010 C 
BRANCH  29  30
HETATM   30  C   UNL     1     -13.255   1.869  -7.605  1.00  0.00     0.042 C 
HETATM   31  C   UNL     1     -12.736   1.559  -6.198  1.00  0.00     0.140 C 
HETATM   32  C   UNL     1     -12.875   2.854  -5.429  1.00  0.00     0.062 C 
HETATM   33  C   UNL     1     -13.010   3.956  -6.440  1.00  0.00     0.005 C 
HETATM   34  C   UNL     1     -13.093   3.361  -7.819  1.00  0.00     0.010 C 
BRANCH  31  35
HETATM   35  O   UNL     1     -13.565   0.606  -5.575  1.00  0.00    -0.370 OA
ATOM     36  HO  UNL     1     -13.747  -0.074  -6.212  1.00  0.00     0.212 HD
ENDBRANCH  31  35
BRANCH  31  37
HETATM   37  N   UNL     1     -11.369   1.048  -6.235  1.00  0.00    -0.334 N 
HETATM   38  C   UNL     1     -10.956   0.213  -7.237  1.00  0.00     0.093 C 
HETATM   39  C   UNL     1     -10.001  -0.749  -6.941  1.00  0.00     0.017 C 
HETATM   40  C   UNL     1      -9.287  -0.675  -5.745  1.00  0.00     0.003 C 
HETATM   41  C   UNL     1      -9.478   0.433  -4.923  1.00  0.00     0.017 C 
HETATM   42  C   UNL     1     -10.425   1.398  -5.270  1.00  0.00     0.093 C 
ENDBRANCH  31  37
ENDBRANCH  29  30
ENDBRANCH  28  29
ENDBRANCH   5  28
TORSDOF 10
ENDMDL
MODEL 4
REMARK VINA RESULT:      -9.9      2.153     10.562
REMARK  10 active torsions:
REMARK  status: ('A' for Active; 'I' for Inactive)
REMARK    1  A    between atoms: C_1  and  C_4 
REMARK    2  A    between atoms: O_9  and  C_21 
REMARK    3  A    between atoms: N_13  and  C_28 
REMARK    4  A    between atoms: N_13  and  C_36 
REMARK    5  A    between atoms: C_15  and  O_24 
REMARK    6  A    between atoms: C_15  and  N_27 
REMARK    7  A    between atoms: C_16  and  C_34 
REMARK    8  A    between atoms: C_20  and  C_34 
REMARK    9  A    between atoms: C_20  and  C_42 
REMARK   10  A    between atoms: C_39  and  O_40 
ROOT
HETATM    1  C   UNL     1     -16.159   7.007  -1.631  1.00  0.00     0.003 C 
HETATM    2  C   UNL     1     -15.094   4.899  -2.266  1.00  0.00     0.006 C 
HETATM    3  C   UNL     1     -16.239   5.266  -3.194  1.00  0.00    -0.009 C 
HETATM    4  C   UNL     1     -14.958   6.105  -1.347  1.00  0.00     0.016 C 
HETATM    5  C   UNL     1     -15.786   6.180  -4.361  1.00  0.00    -0.010 C 
HETATM    6  C   UNL     1     -15.806   8.097  -2.658  1.00  0.00     0.016 C 
HETATM    7  C   UNL     1     -17.183   6.057  -2.262  1.00  0.00     0.020 C 
HETATM    8  C   UNL     1     -15.937   7.680  -4.121  1.00  0.00     0.006 C 
ENDROOT
BRANCH   1   9
HETATM    9  C   UNL     1     -16.631   7.669  -0.349  1.00  0.00     0.019 C 
HETATM   10  N   UNL     1     -15.858   7.532   0.727  1.00  0.00    -0.345 N 
HETATM   11  C   UNL     1     -15.723   8.428   1.730  1.00  0.00     0.101 C 
ATOM     12  HN  UNL     1     -15.317   6.670   0.802  1.00  0.00     0.167 HD
HETATM   13  C   UNL     1     -16.162   9.762   1.669  1.00  0.00     0.048 C 
HETATM   14  C   UNL     1     -17.436  10.199   1.363  1.00  0.00     0.004 C 
HETATM   15  C   UNL     1     -18.182   9.548   0.372  1.00  0.00     0.002 C 
HETATM   16  C   UNL     1     -17.795   8.430  -0.335  1.00  0.00     0.026 C 
BRANCH  11  17
HETATM   17  N   UNL     1     -15.044   7.980   2.843  1.00  0.00    -0.371 N 
ATOM     18  HN  UNL     1     -14.436   7.163   2.798  1.00  0.00     0.161 HD
BRANCH  17  19
HETATM   19  C   UNL     1     -15.226   8.713   4.074  1.00  0.00     0.088 C 
HETATM   20  C   UNL     1     -14.308   9.897   4.318  1.00  0.00     0.059 C 
HETATM   21  C   UNL     1     -14.357  10.041   5.837  1.00  0.00     0.148 C 
HETATM   22  C   UNL     1     -15.255   8.970   6.424  1.00  0.00     0.148 C 
HETATM   23  C   UNL     1     -15.207   7.891   5.343  1.00  0.00     0.059 C 
BRANCH  21  24
HETATM   24  O   UNL     1     -14.555  11.333   6.328  1.00  0.00    -0.393 OA
ATOM     25  HO  UNL     1     -14.072  11.562   7.114  1.00  0.00     0.210 HD
ENDBRANCH  21  24
BRANCH  22  26
HETATM   26  O   UNL     1     -14.618   8.526   7.612  1.00  0.00    -0.393 OA
ATOM     27  HO  UNL     1     -15.294   8.489   8.279  1.00  0.00     0.210 HD
ENDBRANCH  22  26
ENDBRANCH  17  19
ENDBRANCH  11  17
ENDBRANCH   1   9
BRANCH   5  28
HETATM   28  C   UNL     1     -14.310   5.873  -4.629  1.00  0.00     0.005 C 
BRANCH  28  29
HETATM   29  C   UNL     1     -13.923   5.080  -5.856  1.00  0.00     0.010 C 
BRANCH  29  30
HETATM   30  C   UNL     1     -13.632   3.600  -5.612  1.00  0.00     0.042 C 
HETATM   31  C   UNL     1     -12.997   2.929  -6.833  1.00  0.00     0.140 C 
HETATM   32  C   UNL     1     -14.153   2.333  -7.606  1.00  0.00     0.062 C 
HETATM   33  C   UNL     1     -15.317   2.246  -6.661  1.00  0.00     0.005 C 
HETATM   34  C   UNL     1     -14.952   2.898  -5.356  1.00  0.00     0.010 C 
BRANCH  31  35
HETATM   35  O   UNL     1     -12.391   3.896  -7.657  1.00  0.00    -0.370 OA
ATOM     36  HO  UNL     1     -11.730   4.340  -7.139  1.00  0.00     0.212 HD
ENDBRANCH  31  35
BRANCH  31  37
HETATM   37  N   UNL     1     -11.993   1.945  -6.438  1.00  0.00    -0.334 N 
HETATM   38  C   UNL     1     -12.328   0.631  -6.256  1.00  0.00     0.093 C 
HETATM   39  C   UNL     1     -11.640  -0.098  -5.296  1.00  0.00     0.017 C 
HETATM   40  C   UNL     1     -10.465   0.414  -4.746  1.00  0.00     0.003 C 
HETATM   41  C   UNL     1      -9.952   1.604  -5.257  1.00  0.00     0.017 C 
HETATM   42  C   UNL     1     -10.656   2.293  -6.247  1.00  0.00     0.093 C 
ENDBRANCH  31  37
ENDBRANCH  29  30
ENDBRANCH  28  29
ENDBRANCH   5  28
TORSDOF 10
ENDMDL
MODEL 5
REMARK VINA RESULT:      -9.5      2.017      9.949
REMARK  10 active torsions:
REMARK  status: ('A' for Active; 'I' for Inactive)
REMARK    1  A    between atoms: C_1  and  C_4 
REMARK    2  A    between atoms: O_9  and  C_21 
REMARK    3  A    between atoms: N_13  and  C_28 
REMARK    4  A    between atoms: N_13  and  C_36 
REMARK    5  A    between atoms: C_15  and  O_24 
REMARK    6  A    between atoms: C_15  and  N_27 
REMARK    7  A    between atoms: C_16  and  C_34 
REMARK    8  A    between atoms: C_20  and  C_34 
REMARK    9  A    between atoms: C_20  and  C_42 
REMARK   10  A    between atoms: C_39  and  O_40 
ROOT
HETATM    1  C   UNL     1     -16.883   6.557  -3.823  1.00  0.00     0.003 C 
HETATM    2  C   UNL     1     -18.358   4.897  -4.847  1.00  0.00     0.006 C 
HETATM    3  C   UNL     1     -17.519   5.633  -5.878  1.00  0.00    -0.009 C 
HETATM    4  C   UNL     1     -17.832   5.399  -3.511  1.00  0.00     0.016 C 
HETATM    5  C   UNL     1     -16.138   4.969  -6.103  1.00  0.00    -0.010 C 
HETATM    6  C   UNL     1     -15.424   6.075  -3.902  1.00  0.00     0.016 C 
HETATM    7  C   UNL     1     -17.320   7.015  -5.219  1.00  0.00     0.020 C 
HETATM    8  C   UNL     1     -14.993   5.525  -5.260  1.00  0.00     0.006 C 
ENDROOT
BRANCH   1   9
HETATM    9  C   UNL     1     -16.993   7.627  -2.753  1.00  0.00     0.019 C 
HETATM   10  N   UNL     1     -17.216   7.219  -1.504  1.00  0.00    -0.345 N 
HETATM   11  C   UNL     1     -16.789   7.832  -0.378  1.00  0.00     0.101 C 
ATOM     12  HN  UNL     1     -17.760   6.364  -1.387  1.00  0.00     0.167 HD
HETATM   13  C   UNL     1     -15.814   8.843  -0.343  1.00  0.00     0.048 C 
HETATM   14  C   UNL     1     -15.823  10.024  -1.061  1.00  0.00     0.004 C 
HETATM   15  C   UNL     1     -16.284  10.039  -2.383  1.00  0.00     0.002 C 
HETATM   16  C   UNL     1     -16.808   8.968  -3.073  1.00  0.00     0.026 C 
BRANCH  11  17
HETATM   17  N   UNL     1     -17.325   7.355   0.799  1.00  0.00    -0.371 N 
ATOM     18  HN  UNL     1     -18.093   6.685   0.798  1.00  0.00     0.161 HD
BRANCH  17  19
HETATM   19  C   UNL     1     -16.756   7.842   2.035  1.00  0.00     0.088 C 
HETATM   20  C   UNL     1     -17.043   9.286   2.408  1.00  0.00     0.059 C 
HETATM   21  C   UNL     1     -15.892   9.613   3.356  1.00  0.00     0.148 C 
HETATM   22  C   UNL     1     -14.986   8.407   3.497  1.00  0.00     0.148 C 
HETATM   23  C   UNL     1     -15.265   7.649   2.200  1.00  0.00     0.059 C 
BRANCH  21  24
HETATM   24  O   UNL     1     -16.238  10.254   4.547  1.00  0.00    -0.393 OA
ATOM     25  HO  UNL     1     -15.875  11.122   4.678  1.00  0.00     0.210 HD
ENDBRANCH  21  24
BRANCH  22  26
HETATM   26  O   UNL     1     -13.658   8.908   3.515  1.00  0.00    -0.393 OA
ATOM     27  HO  UNL     1     -13.641   9.637   2.906  1.00  0.00     0.210 HD
ENDBRANCH  22  26
ENDBRANCH  17  19
ENDBRANCH  11  17
ENDBRANCH   1   9
BRANCH   5  28
HETATM   28  C   UNL     1     -16.297   3.478  -5.790  1.00  0.00     0.005 C 
BRANCH  28  29
HETATM   29  C   UNL     1     -15.234   2.765  -4.986  1.00  0.00     0.010 C 
BRANCH  29  30
HETATM   30  C   UNL     1     -14.452   1.694  -5.743  1.00  0.00     0.042 C 
HETATM   31  C   UNL     1     -13.118   2.223  -6.276  1.00  0.00     0.140 C 
HETATM   32  C   UNL     1     -13.407   2.678  -7.690  1.00  0.00     0.062 C 
HETATM   33  C   UNL     1     -14.689   2.019  -8.111  1.00  0.00     0.005 C 
HETATM   34  C   UNL     1     -15.274   1.272  -6.945  1.00  0.00     0.010 C 
BRANCH  31  35
HETATM   35  O   UNL     1     -12.717   3.355  -5.541  1.00  0.00    -0.370 OA
ATOM     36  HO  UNL     1     -11.770   3.409  -5.594  1.00  0.00     0.212 HD
ENDBRANCH  31  35
BRANCH  31  37
HETATM   37  N   UNL     1     -12.071   1.208  -6.194  1.00  0.00    -0.334 N 
HETATM   38  C   UNL     1     -12.188   0.142  -5.344  1.00  0.00     0.093 C 
HETATM   39  C   UNL     1     -11.034  -0.382  -4.781  1.00  0.00     0.017 C 
HETATM   40  C   UNL     1      -9.786  -0.017  -5.287  1.00  0.00     0.003 C 
HETATM   41  C   UNL     1      -9.738   0.786  -6.423  1.00  0.00     0.017 C 
HETATM   42  C   UNL     1     -10.923   1.269  -6.983  1.00  0.00     0.093 C 
ENDBRANCH  31  37
ENDBRANCH  29  30
ENDBRANCH  28  29
ENDBRANCH   5  28
TORSDOF 10
ENDMDL
MODEL 6
REMARK VINA RESULT:      -9.1      2.355      9.867
REMARK  10 active torsions:
REMARK  status: ('A' for Active; 'I' for Inactive)
REMARK    1  A    between atoms: C_1  and  C_4 
REMARK    2  A    between atoms: O_9  and  C_21 
REMARK    3  A    between atoms: N_13  and  C_28 
REMARK    4  A    between atoms: N_13  and  C_36 
REMARK    5  A    between atoms: C_15  and  O_24 
REMARK    6  A    between atoms: C_15  and  N_27 
REMARK    7  A    between atoms: C_16  and  C_34 
REMARK    8  A    between atoms: C_20  and  C_34 
REMARK    9  A    between atoms: C_20  and  C_42 
REMARK   10  A    between atoms: C_39  and  O_40 
ROOT
HETATM    1  C   UNL     1     -16.011   7.271  -3.203  1.00  0.00     0.003 C 
HETATM    2  C   UNL     1     -17.498   6.615  -5.029  1.00  0.00     0.006 C 
HETATM    3  C   UNL     1     -16.945   8.017  -5.215  1.00  0.00    -0.009 C 
HETATM    4  C   UNL     1     -16.773   6.087  -3.800  1.00  0.00     0.016 C 
HETATM    5  C   UNL     1     -15.578   8.023  -5.945  1.00  0.00    -0.010 C 
HETATM    6  C   UNL     1     -14.557   7.307  -3.705  1.00  0.00     0.016 C 
HETATM    7  C   UNL     1     -16.749   8.493  -3.760  1.00  0.00     0.020 C 
HETATM    8  C   UNL     1     -14.348   8.014  -5.042  1.00  0.00     0.006 C 
ENDROOT
BRANCH   1   9
HETATM    9  C   UNL     1     -16.009   7.181  -1.688  1.00  0.00     0.019 C 
HETATM   10  N   UNL     1     -16.395   8.263  -1.013  1.00  0.00    -0.345 N 
HETATM   11  C   UNL     1     -17.019   8.273   0.186  1.00  0.00     0.101 C 
ATOM     12  HN  UNL     1     -16.202   9.169  -1.441  1.00  0.00     0.167 HD
HETATM   13  C   UNL     1     -17.605   7.146   0.788  1.00  0.00     0.048 C 
HETATM   14  C   UNL     1     -16.992   5.934   1.044  1.00  0.00     0.004 C 
HETATM   15  C   UNL     1     -16.086   5.397   0.121  1.00  0.00     0.002 C 
HETATM   16  C   UNL     1     -15.671   5.991  -1.051  1.00  0.00     0.026 C 
BRANCH  11  17
HETATM   17  N   UNL     1     -17.122   9.506   0.793  1.00  0.00    -0.371 N 
ATOM     18  HN  UNL     1     -17.749  10.224   0.430  1.00  0.00     0.161 HD
BRANCH  17  19
HETATM   19  C   UNL     1     -16.309   9.743   1.963  1.00  0.00     0.088 C 
HETATM   20  C   UNL     1     -14.924   9.121   1.982  1.00  0.00     0.059 C 
HETATM   21  C   UNL     1     -14.614   9.059   3.475  1.00  0.00     0.148 C 
HETATM   22  C   UNL     1     -15.785   9.609   4.265  1.00  0.00     0.148 C 
HETATM   23  C   UNL     1     -16.945   9.403   3.293  1.00  0.00     0.059 C 
BRANCH  21  24
HETATM   24  O   UNL     1     -13.353   9.517   3.863  1.00  0.00    -0.393 OA
ATOM     25  HO  UNL     1     -12.645   9.369   3.247  1.00  0.00     0.210 HD
ENDBRANCH  21  24
BRANCH  22  26
HETATM   26  O   UNL     1     -15.923   8.772   5.404  1.00  0.00    -0.393 OA
ATOM     27  HO  UNL     1     -16.849   8.571   5.475  1.00  0.00     0.210 HD
ENDBRANCH  22  26
ENDBRANCH  17  19
ENDBRANCH  11  17
ENDBRANCH   1   9
BRANCH   5  28
HETATM   28  C   UNL     1     -15.539   6.780  -6.840  1.00  0.00     0.005 C 
BRANCH  28  29
HETATM   29  C   UNL     1     -14.241   6.024  -7.011  1.00  0.00     0.010 C 
BRANCH  29  30
HETATM   30  C   UNL     1     -14.388   4.561  -7.425  1.00  0.00     0.042 C 
HETATM   31  C   UNL     1     -14.206   3.607  -6.242  1.00  0.00     0.140 C 
HETATM   32  C   UNL     1     -12.744   3.221  -6.262  1.00  0.00     0.062 C 
HETATM   33  C   UNL     1     -12.222   3.542  -7.633  1.00  0.00     0.005 C 
HETATM   34  C   UNL     1     -13.292   4.242  -8.424  1.00  0.00     0.010 C 
BRANCH  31  35
HETATM   35  O   UNL     1     -14.450   4.284  -5.031  1.00  0.00    -0.370 OA
ATOM     36  HO  UNL     1     -13.834   5.004  -4.978  1.00  0.00     0.212 HD
ENDBRANCH  31  35
BRANCH  31  37
HETATM   37  N   UNL     1     -15.111   2.463  -6.336  1.00  0.00    -0.334 N 
HETATM   38  C   UNL     1     -14.957   1.522  -7.318  1.00  0.00     0.093 C 
HETATM   39  C   UNL     1     -16.092   0.898  -7.815  1.00  0.00     0.017 C 
HETATM   40  C   UNL     1     -17.305   1.020  -7.138  1.00  0.00     0.003 C 
HETATM   41  C   UNL     1     -17.320   1.682  -5.912  1.00  0.00     0.017 C 
HETATM   42  C   UNL     1     -16.151   2.270  -5.428  1.00  0.00     0.093 C 
ENDBRANCH  31  37
ENDBRANCH  29  30
ENDBRANCH  28  29
ENDBRANCH   5  28
TORSDOF 10
ENDMDL
