REMARK  3 active torsions:
REMARK  status: ('A' for Active; 'I' for Inactive)
REMARK    1  A    between atoms: C_6  and  C_17 
REMARK    2  A    between atoms: N_11  and  C_14 
REMARK    3  A    between atoms: C_19  and  C_22 
ROOT
HETATM    1  O   UNL     1       6.645 -13.059  -7.721  1.00  0.00    -0.266 OA
HETATM    2  O   UNL     1       9.127  -9.711  -9.244  1.00  0.00    -0.268 OA
HETATM    3  N   UNL     1       7.718 -11.068  -8.135  1.00  0.00    -0.289 N 
ATOM      4  HN  UNL     1       6.848 -10.558  -8.289  1.00  0.00     0.172 HD
HETATM    5  C   UNL     1       7.696 -12.413  -7.796  1.00  0.00     0.276 C 
HETATM    6  C   UNL     1       8.945 -10.425  -8.261  1.00  0.00     0.248 C 
HETATM    7  C   UNL     1       9.032 -13.027  -7.541  1.00  0.00     0.118 C 
HETATM    8  C   UNL     1       9.898 -12.117  -6.852  1.00  0.00    -0.016 C 
HETATM    9  C   UNL     1       9.956 -10.809  -7.342  1.00  0.00     0.084 C 
ENDROOT
BRANCH   7  10
HETATM   10  N   UNL     1       9.316 -14.407  -7.628  1.00  0.00    -0.260 N 
HETATM   11  C   UNL     1       8.469 -15.457  -7.792  1.00  0.00     0.269 C 
HETATM   12  O   UNL     1       7.357 -15.515  -7.207  1.00  0.00    -0.266 OA
HETATM   13  C   UNL     1       9.186 -16.474  -8.417  1.00  0.00     0.164 C 
HETATM   14  N   UNL     1      10.483 -16.241  -8.118  1.00  0.00    -0.350 N 
HETATM   15  C   UNL     1      10.526 -15.065  -7.460  1.00  0.00     0.095 C 
ATOM     16  HN  UNL     1      11.277 -16.840  -8.346  1.00  0.00     0.166 HD
BRANCH  15  17
HETATM   17  C   UNL     1      11.227 -14.931  -6.112  1.00  0.00     0.055 C 
HETATM   18  C   UNL     1      10.437 -13.975  -5.226  1.00  0.00     0.021 C 
HETATM   19  C   UNL     1      10.650 -12.523  -5.610  1.00  0.00     0.022 C 
HETATM   20  C   UNL     1      12.132 -12.181  -5.685  1.00  0.00     0.009 C 
HETATM   21  C   UNL     1      13.077 -13.347  -5.376  1.00  0.00     0.001 C 
HETATM   22  C   UNL     1      12.702 -14.579  -6.201  1.00  0.00     0.012 C 
ENDBRANCH  15  17
ENDBRANCH   7  10
TORSDOF 3
