REMARK  3 active torsions:
REMARK  status: ('A' for Active; 'I' for Inactive)
REMARK    1  A    between atoms: C_1  and  O_9 
REMARK    2  A    between atoms: C_2  and  O_15 
REMARK    3  A    between atoms: C_8  and  O_13 
ROOT
HETATM    1  C   UNL     1      -6.268  14.945 -18.297  1.00  0.00     0.148 C 
HETATM    2  C   UNL     1      -2.301  16.808 -16.395  1.00  0.00     0.148 C 
HETATM    3  C   UNL     1      -3.138  12.968 -16.938  1.00  0.00     0.016 C 
HETATM    4  C   UNL     1      -2.051  13.884 -16.343  1.00  0.00     0.038 C 
HETATM    5  C   UNL     1      -4.362  13.852 -17.142  1.00  0.00     0.047 C 
HETATM    6  C   UNL     1      -5.663  16.330 -18.021  1.00  0.00     0.043 C 
HETATM    7  C   UNL     1      -3.523  17.450 -17.096  1.00  0.00     0.045 C 
HETATM    8  C   UNL     1      -5.296  13.749 -18.359  1.00  0.00     0.155 C 
HETATM    9  C   UNL     1      -3.784  15.199 -17.228  1.00  0.00    -0.064 C 
HETATM   10  C   UNL     1      -4.607  16.382 -16.919  1.00  0.00     0.020 C 
HETATM   11  C   UNL     1      -2.429  15.312 -16.676  1.00  0.00    -0.048 C 
ENDROOT
BRANCH   1  12
HETATM   12  O   UNL     1      -6.935  15.014 -19.549  1.00  0.00    -0.393 OA
ATOM     13  HO  UNL     1      -7.309  14.158 -19.720  1.00  0.00     0.210 HD
ENDBRANCH   1  12
BRANCH   8  14
HETATM   14  O   UNL     1      -6.103  12.577 -18.207  1.00  0.00    -0.392 OA
ATOM     15  HO  UNL     1      -5.504  11.840 -18.245  1.00  0.00     0.210 HD
ENDBRANCH   8  14
BRANCH   2  16
HETATM   16  O   UNL     1      -1.099  17.286 -16.979  1.00  0.00    -0.391 OA
ATOM     17  HO  UNL     1      -0.349  16.892 -16.549  1.00  0.00     0.210 HD
ENDBRANCH   2  16
TORSDOF 3
