MODEL 1
REMARK VINA RESULT:      -7.3      0.000      0.000
REMARK  3 active torsions:
REMARK  status: ('A' for Active; 'I' for Inactive)
REMARK    1  A    between atoms: C_2  and  C_17 
REMARK    2  A    between atoms: C_4  and  O_15 
REMARK       I    between atoms: N_5  and  C_9 
REMARK    3  A    between atoms: C_9  and  C_13 
ROOT
HETATM    1  C   UNL     1       2.352 -37.798  15.183  1.00  0.00     0.013 C 
HETATM    2  C   UNL     1       1.336 -37.896  17.350  1.00  0.00     0.031 C 
HETATM    3  C   UNL     1       2.189 -37.251  16.455  1.00  0.00     0.018 C 
HETATM    4  C   UNL     1       1.617 -38.936  14.831  1.00  0.00    -0.026 C 
HETATM    5  C   UNL     1       0.293 -38.641  16.815  1.00  0.00     0.018 C 
HETATM    6  C   UNL     1       0.502 -39.266  15.590  1.00  0.00     0.013 C 
ENDROOT
BRANCH   4   7
HETATM    7  C   UNL     1       1.876 -39.656  13.568  1.00  0.00    -0.023 C 
HETATM    8  C   UNL     1       1.362 -39.121  12.382  1.00  0.00     0.012 C 
HETATM    9  C   UNL     1       1.691 -39.704  11.167  1.00  0.00     0.004 C 
HETATM   10  C   UNL     1       2.257 -40.969  11.148  1.00  0.00     0.036 C 
HETATM   11  C   UNL     1       2.419 -41.649  12.351  1.00  0.00     0.066 C 
HETATM   12  C   UNL     1       2.445 -40.924  13.543  1.00  0.00     0.048 C 
BRANCH  11  13
HETATM   13  O   UNL     1       2.160 -42.989  12.346  1.00  0.00    -0.361 OA
ATOM     14  HO  UNL     1       2.501 -43.492  11.616  1.00  0.00     0.217 HD
ENDBRANCH  11  13
ENDBRANCH   4   7
BRANCH   2  15
HETATM   15  C   UNL     1       1.544 -37.845  18.796  1.00  0.00     0.249 C 
HETATM   16  N   UNL     1       0.509 -38.123  19.633  1.00  0.00    -0.366 N 
ATOM     17  HN2 UNL     1       0.654 -38.087  20.643  1.00  0.00     0.159 HD
ATOM     18  HN1 UNL     1      -0.315 -38.605  19.277  1.00  0.00     0.159 HD
HETATM   19  O   UNL     1       2.539 -37.262  19.226  1.00  0.00    -0.268 OA
ENDBRANCH   2  15
TORSDOF 3
ENDMDL
MODEL 2
REMARK VINA RESULT:      -7.2      1.097      1.594
REMARK  3 active torsions:
REMARK  status: ('A' for Active; 'I' for Inactive)
REMARK    1  A    between atoms: C_2  and  C_17 
REMARK    2  A    between atoms: C_4  and  O_15 
REMARK       I    between atoms: N_5  and  C_9 
REMARK    3  A    between atoms: C_9  and  C_13 
ROOT
HETATM    1  C   UNL     1       2.358 -37.933  15.270  1.00  0.00     0.013 C 
HETATM    2  C   UNL     1       1.325 -37.890  17.431  1.00  0.00     0.031 C 
HETATM    3  C   UNL     1       2.224 -37.333  16.522  1.00  0.00     0.018 C 
HETATM    4  C   UNL     1       1.552 -39.032  14.952  1.00  0.00    -0.026 C 
HETATM    5  C   UNL     1       0.239 -38.583  16.913  1.00  0.00     0.018 C 
HETATM    6  C   UNL     1       0.413 -39.262  15.712  1.00  0.00     0.013 C 
ENDROOT
BRANCH   4   7
HETATM    7  C   UNL     1       1.771 -39.811  13.715  1.00  0.00    -0.023 C 
HETATM    8  C   UNL     1       2.826 -40.728  13.686  1.00  0.00     0.012 C 
HETATM    9  C   UNL     1       2.981 -41.561  12.588  1.00  0.00     0.004 C 
HETATM   10  C   UNL     1       2.299 -41.279  11.415  1.00  0.00     0.036 C 
HETATM   11  C   UNL     1       1.526 -40.124  11.352  1.00  0.00     0.066 C 
HETATM   12  C   UNL     1       1.087 -39.533  12.538  1.00  0.00     0.048 C 
BRANCH  11  13
HETATM   13  O   UNL     1       1.556 -39.419  10.182  1.00  0.00    -0.361 OA
ATOM     14  HO  UNL     1       1.161 -39.828   9.421  1.00  0.00     0.217 HD
ENDBRANCH  11  13
ENDBRANCH   4   7
BRANCH   2  15
HETATM   15  C   UNL     1       1.527 -37.803  18.877  1.00  0.00     0.249 C 
HETATM   16  N   UNL     1       0.485 -38.041  19.716  1.00  0.00    -0.366 N 
ATOM     17  HN2 UNL     1       0.626 -37.980  20.725  1.00  0.00     0.159 HD
ATOM     18  HN1 UNL     1      -0.345 -38.521  19.369  1.00  0.00     0.159 HD
HETATM   19  O   UNL     1       2.530 -37.224  19.295  1.00  0.00    -0.268 OA
ENDBRANCH   2  15
TORSDOF 3
ENDMDL
MODEL 3
REMARK VINA RESULT:      -6.9      2.593      6.339
REMARK  3 active torsions:
REMARK  status: ('A' for Active; 'I' for Inactive)
REMARK    1  A    between atoms: C_2  and  C_17 
REMARK    2  A    between atoms: C_4  and  O_15 
REMARK       I    between atoms: N_5  and  C_9 
REMARK    3  A    between atoms: C_9  and  C_13 
ROOT
HETATM    1  C   UNL     1       0.021 -38.690  14.409  1.00  0.00     0.013 C 
HETATM    2  C   UNL     1       1.655 -39.005  12.687  1.00  0.00     0.031 C 
HETATM    3  C   UNL     1       0.319 -39.012  13.086  1.00  0.00     0.018 C 
HETATM    4  C   UNL     1       1.060 -38.321  15.272  1.00  0.00    -0.026 C 
HETATM    5  C   UNL     1       2.523 -38.165  13.372  1.00  0.00     0.018 C 
HETATM    6  C   UNL     1       2.272 -37.930  14.719  1.00  0.00     0.013 C 
ENDROOT
BRANCH   4   7
HETATM    7  C   UNL     1       0.827 -38.139  16.719  1.00  0.00    -0.023 C 
HETATM    8  C   UNL     1      -0.390 -37.585  17.131  1.00  0.00     0.012 C 
HETATM    9  C   UNL     1      -0.689 -37.515  18.483  1.00  0.00     0.004 C 
HETATM   10  C   UNL     1       0.319 -37.700  19.416  1.00  0.00     0.036 C 
HETATM   11  C   UNL     1       1.623 -37.886  18.966  1.00  0.00     0.066 C 
HETATM   12  C   UNL     1       1.834 -38.326  17.658  1.00  0.00     0.048 C 
BRANCH  11  13
HETATM   13  O   UNL     1       2.617 -37.273  19.673  1.00  0.00    -0.361 OA
ATOM     14  HO  UNL     1       2.446 -36.392  19.984  1.00  0.00     0.217 HD
ENDBRANCH  11  13
ENDBRANCH   4   7
BRANCH   2  15
HETATM   15  C   UNL     1       2.154 -39.879  11.626  1.00  0.00     0.249 C 
HETATM   16  N   UNL     1       3.318 -40.557  11.806  1.00  0.00    -0.366 N 
ATOM     17  HN2 UNL     1       3.667 -41.166  11.066  1.00  0.00     0.159 HD
ATOM     18  HN1 UNL     1       3.703 -40.663  12.744  1.00  0.00     0.159 HD
HETATM   19  O   UNL     1       1.690 -39.751  10.493  1.00  0.00    -0.268 OA
ENDBRANCH   2  15
TORSDOF 3
ENDMDL
MODEL 4
REMARK VINA RESULT:      -6.7      3.145      6.398
REMARK  3 active torsions:
REMARK  status: ('A' for Active; 'I' for Inactive)
REMARK    1  A    between atoms: C_2  and  C_17 
REMARK    2  A    between atoms: C_4  and  O_15 
REMARK       I    between atoms: N_5  and  C_9 
REMARK    3  A    between atoms: C_9  and  C_13 
ROOT
HETATM    1  C   UNL     1       2.560 -41.002  13.821  1.00  0.00     0.013 C 
HETATM    2  C   UNL     1       2.779 -41.325  11.458  1.00  0.00     0.031 C 
HETATM    3  C   UNL     1       2.927 -41.820  12.753  1.00  0.00     0.018 C 
HETATM    4  C   UNL     1       2.011 -39.743  13.558  1.00  0.00    -0.026 C 
HETATM    5  C   UNL     1       1.796 -40.367  11.247  1.00  0.00     0.018 C 
HETATM    6  C   UNL     1       1.508 -39.491  12.288  1.00  0.00     0.013 C 
ENDROOT
BRANCH   4   7
HETATM    7  C   UNL     1       1.767 -38.770  14.643  1.00  0.00    -0.023 C 
HETATM    8  C   UNL     1       2.485 -37.569  14.632  1.00  0.00     0.012 C 
HETATM    9  C   UNL     1       2.190 -36.585  15.564  1.00  0.00     0.004 C 
HETATM   10  C   UNL     1       1.421 -36.903  16.672  1.00  0.00     0.036 C 
HETATM   11  C   UNL     1       1.021 -38.223  16.854  1.00  0.00     0.066 C 
HETATM   12  C   UNL     1       0.995 -39.083  15.755  1.00  0.00     0.048 C 
BRANCH  11  13
HETATM   13  O   UNL     1       1.046 -38.710  18.130  1.00  0.00    -0.361 OA
ATOM     14  HO  UNL     1       1.302 -38.106  18.817  1.00  0.00     0.217 HD
ENDBRANCH  11  13
ENDBRANCH   4   7
BRANCH   2  15
HETATM   15  C   UNL     1       3.651 -41.744  10.361  1.00  0.00     0.249 C 
HETATM   16  N   UNL     1       3.134 -42.466   9.332  1.00  0.00    -0.366 N 
ATOM     17  HN2 UNL     1       3.742 -42.760   8.566  1.00  0.00     0.159 HD
ATOM     18  HN1 UNL     1       2.125 -42.495   9.189  1.00  0.00     0.159 HD
HETATM   19  O   UNL     1       4.869 -41.710  10.533  1.00  0.00    -0.268 OA
ENDBRANCH   2  15
TORSDOF 3
ENDMDL
MODEL 5
REMARK VINA RESULT:      -6.6      2.984      6.525
REMARK  3 active torsions:
REMARK  status: ('A' for Active; 'I' for Inactive)
REMARK    1  A    between atoms: C_2  and  C_17 
REMARK    2  A    between atoms: C_4  and  O_15 
REMARK       I    between atoms: N_5  and  C_9 
REMARK    3  A    between atoms: C_9  and  C_13 
ROOT
HETATM    1  C   UNL     1       1.506 -38.897  12.344  1.00  0.00     0.013 C 
HETATM    2  C   UNL     1       1.753 -40.989  11.204  1.00  0.00     0.031 C 
HETATM    3  C   UNL     1       1.473 -39.624  11.155  1.00  0.00     0.018 C 
HETATM    4  C   UNL     1       1.867 -39.546  13.530  1.00  0.00    -0.026 C 
HETATM    5  C   UNL     1       2.579 -41.436  12.227  1.00  0.00     0.018 C 
HETATM    6  C   UNL     1       2.530 -40.764  13.444  1.00  0.00     0.013 C 
ENDROOT
BRANCH   4   7
HETATM    7  C   UNL     1       1.752 -38.873  14.840  1.00  0.00    -0.023 C 
HETATM    8  C   UNL     1       0.675 -39.210  15.666  1.00  0.00     0.012 C 
HETATM    9  C   UNL     1       0.605 -38.688  16.950  1.00  0.00     0.004 C 
HETATM   10  C   UNL     1       1.414 -37.617  17.296  1.00  0.00     0.036 C 
HETATM   11  C   UNL     1       2.227 -37.049  16.320  1.00  0.00     0.066 C 
HETATM   12  C   UNL     1       2.561 -37.800  15.192  1.00  0.00     0.048 C 
BRANCH  11  13
HETATM   13  O   UNL     1       2.340 -35.688  16.321  1.00  0.00    -0.361 OA
ATOM     14  HO  UNL     1       2.347 -35.256  17.167  1.00  0.00     0.217 HD
ENDBRANCH  11  13
ENDBRANCH   4   7
BRANCH   2  15
HETATM   15  C   UNL     1       1.168 -41.938  10.258  1.00  0.00     0.249 C 
HETATM   16  N   UNL     1       1.478 -43.258  10.352  1.00  0.00    -0.366 N 
ATOM     17  HN2 UNL     1       1.070 -43.920   9.691  1.00  0.00     0.159 HD
ATOM     18  HN1 UNL     1       1.895 -43.621  11.208  1.00  0.00     0.159 HD
HETATM   19  O   UNL     1       0.664 -41.500   9.223  1.00  0.00    -0.268 OA
ENDBRANCH   2  15
TORSDOF 3
ENDMDL
MODEL 6
REMARK VINA RESULT:      -6.6      2.911      6.393
REMARK  3 active torsions:
REMARK  status: ('A' for Active; 'I' for Inactive)
REMARK    1  A    between atoms: C_2  and  C_17 
REMARK    2  A    between atoms: C_4  and  O_15 
REMARK       I    between atoms: N_5  and  C_9 
REMARK    3  A    between atoms: C_9  and  C_13 
ROOT
HETATM    1  C   UNL     1       1.634 -39.645  12.037  1.00  0.00     0.013 C 
HETATM    2  C   UNL     1       2.334 -41.870  11.488  1.00  0.00     0.031 C 
HETATM    3  C   UNL     1       1.817 -40.641  11.078  1.00  0.00     0.018 C 
HETATM    4  C   UNL     1       2.021 -39.893  13.359  1.00  0.00    -0.026 C 
HETATM    5  C   UNL     1       3.151 -41.877  12.611  1.00  0.00     0.018 C 
HETATM    6  C   UNL     1       2.895 -40.943  13.608  1.00  0.00     0.013 C 
ENDROOT
BRANCH   4   7
HETATM    7  C   UNL     1       1.693 -38.947  14.445  1.00  0.00    -0.023 C 
HETATM    8  C   UNL     1       2.437 -37.766  14.544  1.00  0.00     0.012 C 
HETATM    9  C   UNL     1       2.075 -36.802  15.473  1.00  0.00     0.004 C 
HETATM   10  C   UNL     1       1.191 -37.131  16.489  1.00  0.00     0.036 C 
HETATM   11  C   UNL     1       0.743 -38.445  16.588  1.00  0.00     0.066 C 
HETATM   12  C   UNL     1       0.806 -39.271  15.464  1.00  0.00     0.048 C 
BRANCH  11  13
HETATM   13  O   UNL     1       0.628 -38.969  17.843  1.00  0.00    -0.361 OA
ATOM     14  HO  UNL     1      -0.122 -38.696  18.358  1.00  0.00     0.217 HD
ENDBRANCH  11  13
ENDBRANCH   4   7
BRANCH   2  15
HETATM   15  C   UNL     1       1.997 -43.120  10.809  1.00  0.00     0.249 C 
HETATM   16  N   UNL     1       2.160 -44.302  11.459  1.00  0.00    -0.366 N 
ATOM     17  HN2 UNL     1       1.926 -45.175  10.985  1.00  0.00     0.159 HD
ATOM     18  HN1 UNL     1       2.263 -44.313  12.474  1.00  0.00     0.159 HD
HETATM   19  O   UNL     1       1.873 -43.108   9.584  1.00  0.00    -0.268 OA
ENDBRANCH   2  15
TORSDOF 3
ENDMDL
MODEL 7
REMARK VINA RESULT:      -6.6      2.027      2.461
REMARK  3 active torsions:
REMARK  status: ('A' for Active; 'I' for Inactive)
REMARK    1  A    between atoms: C_2  and  C_17 
REMARK    2  A    between atoms: C_4  and  O_15 
REMARK       I    between atoms: N_5  and  C_9 
REMARK    3  A    between atoms: C_9  and  C_13 
ROOT
HETATM    1  C   UNL     1       1.824 -37.933  12.625  1.00  0.00     0.013 C 
HETATM    2  C   UNL     1       1.683 -37.144  14.882  1.00  0.00     0.031 C 
HETATM    3  C   UNL     1       1.707 -36.866  13.516  1.00  0.00     0.018 C 
HETATM    4  C   UNL     1       1.860 -39.239  13.126  1.00  0.00    -0.026 C 
HETATM    5  C   UNL     1       1.202 -38.387  15.274  1.00  0.00     0.018 C 
HETATM    6  C   UNL     1       1.413 -39.464  14.421  1.00  0.00     0.013 C 
ENDROOT
BRANCH   4   7
HETATM    7  C   UNL     1       2.156 -40.389  12.248  1.00  0.00    -0.023 C 
HETATM    8  C   UNL     1       1.820 -40.295  10.893  1.00  0.00     0.012 C 
HETATM    9  C   UNL     1       2.195 -41.305  10.021  1.00  0.00     0.004 C 
HETATM   10  C   UNL     1       2.618 -42.523  10.528  1.00  0.00     0.036 C 
HETATM   11  C   UNL     1       2.590 -42.721  11.905  1.00  0.00     0.066 C 
HETATM   12  C   UNL     1       2.583 -41.612  12.752  1.00  0.00     0.048 C 
BRANCH  11  13
HETATM   13  O   UNL     1       2.186 -43.949  12.347  1.00  0.00    -0.361 OA
ATOM     14  HO  UNL     1       2.134 -44.073  13.288  1.00  0.00     0.217 HD
ENDBRANCH  11  13
ENDBRANCH   4   7
BRANCH   2  15
HETATM   15  C   UNL     1       2.189 -36.199  15.877  1.00  0.00     0.249 C 
HETATM   16  N   UNL     1       2.936 -35.137  15.475  1.00  0.00    -0.366 N 
ATOM     17  HN2 UNL     1       3.289 -34.478  16.169  1.00  0.00     0.159 HD
ATOM     18  HN1 UNL     1       2.931 -34.855  14.496  1.00  0.00     0.159 HD
HETATM   19  O   UNL     1       2.196 -36.539  17.060  1.00  0.00    -0.268 OA
ENDBRANCH   2  15
TORSDOF 3
ENDMDL
MODEL 8
REMARK VINA RESULT:      -6.5      3.686      5.240
REMARK  3 active torsions:
REMARK  status: ('A' for Active; 'I' for Inactive)
REMARK    1  A    between atoms: C_2  and  C_17 
REMARK    2  A    between atoms: C_4  and  O_15 
REMARK       I    between atoms: N_5  and  C_9 
REMARK    3  A    between atoms: C_9  and  C_13 
ROOT
HETATM    1  C   UNL     1       2.475 -41.022  11.038  1.00  0.00     0.013 C 
HETATM    2  C   UNL     1       2.086 -39.278  12.633  1.00  0.00     0.031 C 
HETATM    3  C   UNL     1       1.900 -39.790  11.350  1.00  0.00     0.018 C 
HETATM    4  C   UNL     1       3.169 -41.721  12.031  1.00  0.00    -0.026 C 
HETATM    5  C   UNL     1       2.293 -40.188  13.661  1.00  0.00     0.018 C 
HETATM    6  C   UNL     1       2.958 -41.371  13.359  1.00  0.00     0.013 C 
ENDROOT
BRANCH   4   7
HETATM    7  C   UNL     1       3.942 -42.939  11.714  1.00  0.00    -0.023 C 
HETATM    8  C   UNL     1       3.532 -44.151  12.280  1.00  0.00     0.012 C 
HETATM    9  C   UNL     1       4.159 -45.330  11.906  1.00  0.00     0.004 C 
HETATM   10  C   UNL     1       5.366 -45.276  11.227  1.00  0.00     0.036 C 
HETATM   11  C   UNL     1       5.950 -44.034  10.997  1.00  0.00     0.066 C 
HETATM   12  C   UNL     1       5.151 -42.890  11.031  1.00  0.00     0.048 C 
BRANCH  11  13
HETATM   13  O   UNL     1       7.306 -43.951  11.133  1.00  0.00    -0.361 OA
ATOM     14  HO  UNL     1       7.829 -44.542  10.604  1.00  0.00     0.217 HD
ENDBRANCH  11  13
ENDBRANCH   4   7
BRANCH   2  15
HETATM   15  C   UNL     1       2.118 -37.840  12.899  1.00  0.00     0.249 C 
HETATM   16  N   UNL     1       0.959 -37.130  12.893  1.00  0.00    -0.366 N 
ATOM     17  HN2 UNL     1       0.982 -36.127  13.079  1.00  0.00     0.159 HD
ATOM     18  HN1 UNL     1       0.066 -37.617  12.961  1.00  0.00     0.159 HD
HETATM   19  O   UNL     1       3.196 -37.252  12.817  1.00  0.00    -0.268 OA
ENDBRANCH   2  15
TORSDOF 3
ENDMDL
MODEL 9
REMARK VINA RESULT:      -6.4      2.203      2.794
REMARK  3 active torsions:
REMARK  status: ('A' for Active; 'I' for Inactive)
REMARK    1  A    between atoms: C_2  and  C_17 
REMARK    2  A    between atoms: C_4  and  O_15 
REMARK       I    between atoms: N_5  and  C_9 
REMARK    3  A    between atoms: C_9  and  C_13 
ROOT
HETATM    1  C   UNL     1       2.207 -37.976  12.771  1.00  0.00     0.013 C 
HETATM    2  C   UNL     1       1.742 -36.987  14.903  1.00  0.00     0.031 C 
HETATM    3  C   UNL     1       2.119 -36.836  13.569  1.00  0.00     0.018 C 
HETATM    4  C   UNL     1       1.865 -39.218  13.318  1.00  0.00    -0.026 C 
HETATM    5  C   UNL     1       0.944 -38.078  15.222  1.00  0.00     0.018 C 
HETATM    6  C   UNL     1       1.110 -39.244  14.484  1.00  0.00     0.013 C 
ENDROOT
BRANCH   4   7
HETATM    7  C   UNL     1       2.103 -40.474  12.578  1.00  0.00    -0.023 C 
HETATM    8  C   UNL     1       2.919 -41.447  13.166  1.00  0.00     0.012 C 
HETATM    9  C   UNL     1       3.062 -42.683  12.555  1.00  0.00     0.004 C 
HETATM   10  C   UNL     1       2.660 -42.845  11.238  1.00  0.00     0.036 C 
HETATM   11  C   UNL     1       2.183 -41.738  10.543  1.00  0.00     0.066 C 
HETATM   12  C   UNL     1       1.700 -40.642  11.259  1.00  0.00     0.048 C 
BRANCH  11  13
HETATM   13  O   UNL     1       2.559 -41.616   9.236  1.00  0.00    -0.361 OA
ATOM     14  HO  UNL     1       2.063 -42.113   8.596  1.00  0.00     0.217 HD
ENDBRANCH  11  13
ENDBRANCH   4   7
BRANCH   2  15
HETATM   15  C   UNL     1       2.202 -36.075  15.949  1.00  0.00     0.249 C 
HETATM   16  N   UNL     1       2.936 -34.982  15.612  1.00  0.00    -0.366 N 
ATOM     17  HN2 UNL     1       3.257 -34.346  16.342  1.00  0.00     0.159 HD
ATOM     18  HN1 UNL     1       2.949 -34.659  14.645  1.00  0.00     0.159 HD
HETATM   19  O   UNL     1       2.186 -36.465  17.117  1.00  0.00    -0.268 OA
ENDBRANCH   2  15
TORSDOF 3
ENDMDL
