MODEL 1
REMARK VINA RESULT:      -9.2      0.000      0.000
REMARK  5 active torsions:
REMARK  status: ('A' for Active; 'I' for Inactive)
REMARK    1  A    between atoms: N_4  and  C_11 
REMARK    2  A    between atoms: C_6  and  C_17 
REMARK    3  A    between atoms: O_13  and  C_26 
REMARK    4  A    between atoms: O_15  and  C_32 
REMARK    5  A    between atoms: O_22  and  C_26 
ROOT
HETATM    1  C   UNL     1      12.467  18.406  -5.903  1.00  0.00     0.005 C 
HETATM    2  N   UNL     1      11.945  16.323 -10.903  1.00  0.00    -0.323 N 
HETATM    3  C   UNL     1      10.143  15.577  -9.340  1.00  0.00     0.033 C 
HETATM    4  C   UNL     1      13.026  17.134 -10.730  1.00  0.00     0.231 A 
HETATM    5  O   UNL     1      10.430  18.623  -6.967  1.00  0.00    -0.340 OA
HETATM    6  C   UNL     1      10.784  16.725 -10.104  1.00  0.00     0.096 A 
HETATM    7  C   UNL     1      11.287  17.897  -9.264  1.00  0.00     0.058 A 
HETATM    8  C   UNL     1      10.772  18.349  -3.348  1.00  0.00     0.003 C 
HETATM    9  C   UNL     1      11.103  18.710  -5.738  1.00  0.00     0.080 C 
HETATM   10  C   UNL     1      13.450  18.413  -4.936  1.00  0.00     0.014 C 
HETATM   11  O   UNL     1      14.050  17.111 -11.391  1.00  0.00    -0.272 OA
HETATM   12  C   UNL     1      12.033  17.928  -3.001  1.00  0.00     0.000 C 
HETATM   13  C   UNL     1      10.375  18.892  -4.555  1.00  0.00     0.037 C 
HETATM   14  C   UNL     1      13.245  18.162  -3.593  1.00  0.00     0.001 C 
HETATM   15  C   UNL     1      12.614  17.974  -7.283  1.00  0.00    -0.008 C 
HETATM   16  C   UNL     1      12.758  18.125  -9.640  1.00  0.00     0.120 A 
HETATM   17  C   UNL     1      11.219  17.719  -7.767  1.00  0.00     0.168 C 
HETATM   18  C   UNL     1      13.602  17.861  -8.394  1.00  0.00     0.164 C 
ENDROOT
BRANCH   2  19
HETATM   19  C   UNL     1      12.085  15.161 -11.637  1.00  0.00     0.095 C 
HETATM   20  C   UNL     1      11.353  14.309 -12.245  1.00  0.00     0.024 C 
BRANCH  20  21
HETATM   21  C   UNL     1      10.243  14.042 -13.118  1.00  0.00    -0.060 C 
HETATM   22  C   UNL     1       8.905  14.589 -12.870  1.00  0.00     0.043 C 
HETATM   23  C   UNL     1       8.070  14.838 -14.100  1.00  0.00     0.073 C 
HETATM   24  C   UNL     1       8.827  14.762 -15.425  1.00  0.00     0.162 C 
HETATM   25  C   UNL     1       9.760  13.564 -15.515  1.00  0.00     0.096 C 
HETATM   26  C   UNL     1      10.486  13.263 -14.243  1.00  0.00    -0.014 C 
BRANCH  24  27
HETATM   27  O   UNL     1       7.910  14.650 -16.487  1.00  0.00    -0.365 OA
ATOM     28  HO  UNL     1       7.889  13.752 -16.797  1.00  0.00     0.213 HD
ENDBRANCH  24  27
BRANCH  24  29
HETATM   29  O   UNL     1       9.621  15.926 -15.548  1.00  0.00    -0.365 OA
ATOM     30  HO  UNL     1      10.053  15.966 -16.393  1.00  0.00     0.213 HD
ENDBRANCH  24  29
ENDBRANCH  20  21
ENDBRANCH   2  19
BRANCH  18  31
HETATM   31  O   UNL     1      14.184  16.579  -8.390  1.00  0.00    -0.390 OA
ATOM     32  HO  UNL     1      14.083  16.175  -9.244  1.00  0.00     0.210 HD
ENDBRANCH  18  31
TORSDOF 5
ENDMDL
MODEL 2
REMARK VINA RESULT:      -8.6      4.045      8.496
REMARK  5 active torsions:
REMARK  status: ('A' for Active; 'I' for Inactive)
REMARK    1  A    between atoms: N_4  and  C_11 
REMARK    2  A    between atoms: C_6  and  C_17 
REMARK    3  A    between atoms: O_13  and  C_26 
REMARK    4  A    between atoms: O_15  and  C_32 
REMARK    5  A    between atoms: O_22  and  C_26 
ROOT
HETATM    1  C   UNL     1       8.038  18.696  -8.551  1.00  0.00     0.005 C 
HETATM    2  N   UNL     1      13.162  17.569  -7.112  1.00  0.00    -0.323 N 
HETATM    3  C   UNL     1      12.008  19.093  -5.503  1.00  0.00     0.033 C 
HETATM    4  C   UNL     1      12.753  16.989  -8.274  1.00  0.00     0.231 A 
HETATM    5  O   UNL     1       8.426  17.936  -6.406  1.00  0.00    -0.340 OA
HETATM    6  C   UNL     1      12.090  17.708  -6.122  1.00  0.00     0.096 A 
HETATM    7  C   UNL     1      10.839  17.215  -6.846  1.00  0.00     0.058 A 
HETATM    8  C   UNL     1       5.711  20.217  -7.255  1.00  0.00     0.003 C 
HETATM    9  C   UNL     1       7.498  18.556  -7.259  1.00  0.00     0.080 C 
HETATM   10  C   UNL     1       7.421  19.230  -9.664  1.00  0.00     0.014 C 
HETATM   11  O   UNL     1      13.477  16.618  -9.182  1.00  0.00    -0.272 OA
HETATM   12  C   UNL     1       5.884  20.746  -8.512  1.00  0.00     0.000 C 
HETATM   13  C   UNL     1       6.313  19.089  -6.733  1.00  0.00     0.037 C 
HETATM   14  C   UNL     1       6.440  20.203  -9.639  1.00  0.00     0.001 C 
HETATM   15  C   UNL     1       9.422  18.265  -8.453  1.00  0.00    -0.008 C 
HETATM   16  C   UNL     1      11.267  16.797  -8.259  1.00  0.00     0.120 A 
HETATM   17  C   UNL     1       9.717  18.215  -6.985  1.00  0.00     0.168 C 
HETATM   18  C   UNL     1      10.553  17.713  -9.252  1.00  0.00     0.164 C 
ENDROOT
BRANCH   2  19
HETATM   19  C   UNL     1      14.434  18.105  -7.038  1.00  0.00     0.095 C 
HETATM   20  C   UNL     1      15.279  18.468  -6.152  1.00  0.00     0.024 C 
BRANCH  20  21
HETATM   21  C   UNL     1      15.943  18.205  -4.905  1.00  0.00    -0.060 C 
HETATM   22  C   UNL     1      15.245  18.274  -3.617  1.00  0.00     0.043 C 
HETATM   23  C   UNL     1      15.777  17.360  -2.543  1.00  0.00     0.073 C 
HETATM   24  C   UNL     1      16.764  16.298  -3.024  1.00  0.00     0.162 C 
HETATM   25  C   UNL     1      17.814  16.843  -3.980  1.00  0.00     0.096 C 
HETATM   26  C   UNL     1      17.284  17.842  -4.959  1.00  0.00    -0.014 C 
BRANCH  24  27
HETATM   27  O   UNL     1      17.453  15.758  -1.921  1.00  0.00    -0.365 OA
ATOM     28  HO  UNL     1      16.901  15.122  -1.481  1.00  0.00     0.213 HD
ENDBRANCH  24  27
BRANCH  24  29
HETATM   29  O   UNL     1      16.038  15.302  -3.718  1.00  0.00    -0.365 OA
ATOM     30  HO  UNL     1      15.352  14.930  -3.176  1.00  0.00     0.213 HD
ENDBRANCH  24  29
ENDBRANCH  20  21
ENDBRANCH   2  19
BRANCH  18  31
HETATM   31  O   UNL     1      11.372  18.762  -9.713  1.00  0.00    -0.390 OA
ATOM     32  HO  UNL     1      11.567  18.641 -10.635  1.00  0.00     0.210 HD
ENDBRANCH  18  31
TORSDOF 5
ENDMDL
MODEL 3
REMARK VINA RESULT:      -8.6      3.984      8.378
REMARK  5 active torsions:
REMARK  status: ('A' for Active; 'I' for Inactive)
REMARK    1  A    between atoms: N_4  and  C_11 
REMARK    2  A    between atoms: C_6  and  C_17 
REMARK    3  A    between atoms: O_13  and  C_26 
REMARK    4  A    between atoms: O_15  and  C_32 
REMARK    5  A    between atoms: O_22  and  C_26 
ROOT
HETATM    1  C   UNL     1       8.568  18.312  -8.622  1.00  0.00     0.005 C 
HETATM    2  N   UNL     1      13.967  18.491  -7.966  1.00  0.00    -0.323 N 
HETATM    3  C   UNL     1      12.750  20.111  -6.503  1.00  0.00     0.033 C 
HETATM    4  C   UNL     1      13.531  17.594  -8.894  1.00  0.00     0.231 A 
HETATM    5  O   UNL     1       9.412  18.150  -6.480  1.00  0.00    -0.340 OA
HETATM    6  C   UNL     1      13.042  18.658  -6.841  1.00  0.00     0.096 A 
HETATM    7  C   UNL     1      11.836  17.795  -7.209  1.00  0.00     0.058 A 
HETATM    8  C   UNL     1       6.176  19.646  -7.242  1.00  0.00     0.003 C 
HETATM    9  C   UNL     1       8.261  18.379  -7.250  1.00  0.00     0.080 C 
HETATM   10  C   UNL     1       7.699  18.454  -9.684  1.00  0.00     0.014 C 
HETATM   11  O   UNL     1      14.182  17.161  -9.830  1.00  0.00    -0.272 OA
HETATM   12  C   UNL     1       6.050  19.893  -8.588  1.00  0.00     0.000 C 
HETATM   13  C   UNL     1       7.076  18.796  -6.629  1.00  0.00     0.037 C 
HETATM   14  C   UNL     1       6.545  19.214  -9.669  1.00  0.00     0.001 C 
HETATM   15  C   UNL     1      10.013  18.172  -8.700  1.00  0.00    -0.008 C 
HETATM   16  C   UNL     1      12.140  17.146  -8.566  1.00  0.00     0.120 A 
HETATM   17  C   UNL     1      10.516  18.516  -7.331  1.00  0.00     0.168 C 
HETATM   18  C   UNL     1      11.111  17.664  -9.570  1.00  0.00     0.164 C 
ENDROOT
BRANCH   2  19
HETATM   19  C   UNL     1      15.089  19.249  -8.237  1.00  0.00     0.095 C 
HETATM   20  C   UNL     1      16.113  19.710  -7.628  1.00  0.00     0.024 C 
BRANCH  20  21
HETATM   21  C   UNL     1      17.187  19.501  -6.696  1.00  0.00    -0.060 C 
HETATM   22  C   UNL     1      17.105  18.512  -5.616  1.00  0.00     0.043 C 
HETATM   23  C   UNL     1      18.418  17.908  -5.191  1.00  0.00     0.073 C 
HETATM   24  C   UNL     1      19.595  18.188  -6.125  1.00  0.00     0.162 C 
HETATM   25  C   UNL     1      19.672  19.639  -6.574  1.00  0.00     0.096 C 
HETATM   26  C   UNL     1      18.342  20.255  -6.873  1.00  0.00    -0.014 C 
BRANCH  24  27
HETATM   27  O   UNL     1      20.803  17.897  -5.463  1.00  0.00    -0.365 OA
ATOM     28  HO  UNL     1      21.536  18.121  -6.024  1.00  0.00     0.213 HD
ENDBRANCH  24  27
BRANCH  24  29
HETATM   29  O   UNL     1      19.436  17.395  -7.285  1.00  0.00    -0.365 OA
ATOM     30  HO  UNL     1      19.432  16.468  -7.076  1.00  0.00     0.213 HD
ENDBRANCH  24  29
ENDBRANCH  20  21
ENDBRANCH   2  19
BRANCH  18  31
HETATM   31  O   UNL     1      11.610  18.709 -10.372  1.00  0.00    -0.390 OA
ATOM     32  HO  UNL     1      12.552  18.777 -10.268  1.00  0.00     0.210 HD
ENDBRANCH  18  31
TORSDOF 5
ENDMDL
MODEL 4
REMARK VINA RESULT:      -8.0      4.018      8.331
REMARK  5 active torsions:
REMARK  status: ('A' for Active; 'I' for Inactive)
REMARK    1  A    between atoms: N_4  and  C_11 
REMARK    2  A    between atoms: C_6  and  C_17 
REMARK    3  A    between atoms: O_13  and  C_26 
REMARK    4  A    between atoms: O_15  and  C_32 
REMARK    5  A    between atoms: O_22  and  C_26 
ROOT
HETATM    1  C   UNL     1       7.892  18.670  -8.564  1.00  0.00     0.005 C 
HETATM    2  N   UNL     1      13.051  17.586  -7.217  1.00  0.00    -0.323 N 
HETATM    3  C   UNL     1      11.901  19.071  -5.568  1.00  0.00     0.033 C 
HETATM    4  C   UNL     1      12.631  17.018  -8.381  1.00  0.00     0.231 A 
HETATM    5  O   UNL     1       8.321  17.883  -6.437  1.00  0.00    -0.340 OA
HETATM    6  C   UNL     1      11.992  17.696  -6.209  1.00  0.00     0.096 A 
HETATM    7  C   UNL     1      10.736  17.199  -6.923  1.00  0.00     0.058 A 
HETATM    8  C   UNL     1       5.566  20.142  -7.211  1.00  0.00     0.003 C 
HETATM    9  C   UNL     1       7.373  18.504  -7.266  1.00  0.00     0.080 C 
HETATM   10  C   UNL     1       7.252  19.213  -9.659  1.00  0.00     0.014 C 
HETATM   11  O   UNL     1      13.346  16.671  -9.306  1.00  0.00    -0.272 OA
HETATM   12  C   UNL     1       5.714  20.692  -8.462  1.00  0.00     0.000 C 
HETATM   13  C   UNL     1       6.190  19.014  -6.716  1.00  0.00     0.037 C 
HETATM   14  C   UNL     1       6.260  20.173  -9.605  1.00  0.00     0.001 C 
HETATM   15  C   UNL     1       9.283  18.255  -8.493  1.00  0.00    -0.008 C 
HETATM   16  C   UNL     1      11.148  16.808  -8.348  1.00  0.00     0.120 A 
HETATM   17  C   UNL     1       9.599  18.187  -7.030  1.00  0.00     0.168 C 
HETATM   18  C   UNL     1      10.409  17.730  -9.316  1.00  0.00     0.164 C 
ENDROOT
BRANCH   2  19
HETATM   19  C   UNL     1      14.316  18.136  -7.154  1.00  0.00     0.095 C 
HETATM   20  C   UNL     1      14.870  19.287  -7.147  1.00  0.00     0.024 C 
BRANCH  20  21
HETATM   21  C   UNL     1      14.886  20.641  -6.665  1.00  0.00    -0.060 C 
HETATM   22  C   UNL     1      13.724  21.528  -6.787  1.00  0.00     0.043 C 
HETATM   23  C   UNL     1      13.594  22.575  -5.710  1.00  0.00     0.073 C 
HETATM   24  C   UNL     1      14.511  22.383  -4.503  1.00  0.00     0.162 C 
HETATM   25  C   UNL     1      15.940  22.030  -4.886  1.00  0.00     0.096 C 
HETATM   26  C   UNL     1      16.045  21.084  -6.038  1.00  0.00    -0.014 C 
BRANCH  24  27
HETATM   27  O   UNL     1      14.566  23.576  -3.757  1.00  0.00    -0.365 OA
ATOM     28  HO  UNL     1      13.758  24.061  -3.872  1.00  0.00     0.213 HD
ENDBRANCH  24  27
BRANCH  24  29
HETATM   29  O   UNL     1      14.005  21.312  -3.730  1.00  0.00    -0.365 OA
ATOM     30  HO  UNL     1      13.159  21.525  -3.352  1.00  0.00     0.213 HD
ENDBRANCH  24  29
ENDBRANCH  20  21
ENDBRANCH   2  19
BRANCH  18  31
HETATM   31  O   UNL     1      11.208  18.796  -9.773  1.00  0.00    -0.390 OA
ATOM     32  HO  UNL     1      12.072  18.477 -10.004  1.00  0.00     0.210 HD
ENDBRANCH  18  31
TORSDOF 5
ENDMDL
MODEL 5
REMARK VINA RESULT:      -8.0      3.439      8.995
REMARK  5 active torsions:
REMARK  status: ('A' for Active; 'I' for Inactive)
REMARK    1  A    between atoms: N_4  and  C_11 
REMARK    2  A    between atoms: C_6  and  C_17 
REMARK    3  A    between atoms: O_13  and  C_26 
REMARK    4  A    between atoms: O_15  and  C_32 
REMARK    5  A    between atoms: O_22  and  C_26 
ROOT
HETATM    1  C   UNL     1      11.527  17.147  -9.252  1.00  0.00     0.005 C 
HETATM    2  N   UNL     1      14.303  19.491  -5.202  1.00  0.00    -0.323 N 
HETATM    3  C   UNL     1      15.541  17.601  -6.269  1.00  0.00     0.033 C 
HETATM    4  C   UNL     1      13.073  20.024  -5.437  1.00  0.00     0.231 A 
HETATM    5  O   UNL     1      13.695  17.823  -9.665  1.00  0.00    -0.340 OA
HETATM    6  C   UNL     1      14.965  18.999  -6.414  1.00  0.00     0.096 A 
HETATM    7  C   UNL     1      13.927  19.192  -7.518  1.00  0.00     0.058 A 
HETATM    8  C   UNL     1      12.145  14.970 -11.322  1.00  0.00     0.003 C 
HETATM    9  C   UNL     1      12.624  17.042 -10.128  1.00  0.00     0.080 C 
HETATM   10  C   UNL     1      10.290  16.551  -9.384  1.00  0.00     0.014 C 
HETATM   11  O   UNL     1      12.394  20.640  -4.632  1.00  0.00    -0.272 OA
HETATM   12  C   UNL     1      10.984  14.600 -10.687  1.00  0.00     0.000 C 
HETATM   13  C   UNL     1      12.809  16.176 -11.214  1.00  0.00     0.037 C 
HETATM   14  C   UNL     1      10.049  15.353 -10.028  1.00  0.00     0.001 C 
HETATM   15  C   UNL     1      11.997  17.923  -8.117  1.00  0.00    -0.008 C 
HETATM   16  C   UNL     1      12.682  19.812  -6.867  1.00  0.00     0.120 A 
HETATM   17  C   UNL     1      13.490  17.942  -8.242  1.00  0.00     0.168 C 
HETATM   18  C   UNL     1      11.535  18.813  -7.014  1.00  0.00     0.164 C 
ENDROOT
BRANCH   2  19
HETATM   19  C   UNL     1      14.721  19.310  -3.898  1.00  0.00     0.095 C 
HETATM   20  C   UNL     1      14.354  18.689  -2.843  1.00  0.00     0.024 C 
BRANCH  20  21
HETATM   21  C   UNL     1      13.845  17.490  -2.236  1.00  0.00    -0.060 C 
HETATM   22  C   UNL     1      13.776  17.318  -0.781  1.00  0.00     0.043 C 
HETATM   23  C   UNL     1      12.665  16.427  -0.287  1.00  0.00     0.073 C 
HETATM   24  C   UNL     1      11.607  16.069  -1.329  1.00  0.00     0.162 C 
HETATM   25  C   UNL     1      12.200  15.670  -2.673  1.00  0.00     0.096 C 
HETATM   26  C   UNL     1      13.380  16.491  -3.084  1.00  0.00    -0.014 C 
BRANCH  24  27
HETATM   27  O   UNL     1      10.847  14.975  -0.874  1.00  0.00    -0.365 OA
ATOM     28  HO  UNL     1       9.925  15.205  -0.877  1.00  0.00     0.213 HD
ENDBRANCH  24  27
BRANCH  24  29
HETATM   29  O   UNL     1      10.797  17.208  -1.547  1.00  0.00    -0.365 OA
ATOM     30  HO  UNL     1      11.057  17.674  -2.333  1.00  0.00     0.213 HD
ENDBRANCH  24  29
ENDBRANCH  20  21
ENDBRANCH   2  19
BRANCH  18  31
HETATM   31  O   UNL     1      11.316  18.057  -5.846  1.00  0.00    -0.390 OA
ATOM     32  HO  UNL     1      11.068  17.170  -6.077  1.00  0.00     0.210 HD
ENDBRANCH  18  31
TORSDOF 5
ENDMDL
MODEL 6
REMARK VINA RESULT:      -7.9      1.990      2.172
REMARK  5 active torsions:
REMARK  status: ('A' for Active; 'I' for Inactive)
REMARK    1  A    between atoms: N_4  and  C_11 
REMARK    2  A    between atoms: C_6  and  C_17 
REMARK    3  A    between atoms: O_13  and  C_26 
REMARK    4  A    between atoms: O_15  and  C_32 
REMARK    5  A    between atoms: O_22  and  C_26 
ROOT
HETATM    1  C   UNL     1      14.418  19.429  -7.411  1.00  0.00     0.005 C 
HETATM    2  N   UNL     1      11.047  16.476 -10.497  1.00  0.00    -0.323 N 
HETATM    3  C   UNL     1      10.057  17.100  -8.289  1.00  0.00     0.033 C 
HETATM    4  C   UNL     1      12.264  16.726 -11.055  1.00  0.00     0.231 A 
HETATM    5  O   UNL     1      12.279  20.225  -7.759  1.00  0.00    -0.340 OA
HETATM    6  C   UNL     1      10.565  17.566  -9.644  1.00  0.00     0.096 A 
HETATM    7  C   UNL     1      11.714  18.571  -9.625  1.00  0.00     0.058 A 
HETATM    8  C   UNL     1      14.178  20.870  -4.715  1.00  0.00     0.003 C 
HETATM    9  C   UNL     1      13.442  20.346  -6.980  1.00  0.00     0.080 C 
HETATM   10  C   UNL     1      15.694  19.268  -6.913  1.00  0.00     0.014 C 
HETATM   11  O   UNL     1      12.805  16.058 -11.920  1.00  0.00    -0.272 OA
HETATM   12  C   UNL     1      15.275  20.046  -4.632  1.00  0.00     0.000 C 
HETATM   13  C   UNL     1      13.438  21.165  -5.843  1.00  0.00     0.037 C 
HETATM   14  C   UNL     1      16.079  19.530  -5.612  1.00  0.00     0.001 C 
HETATM   15  C   UNL     1      13.772  18.604  -8.418  1.00  0.00    -0.008 C 
HETATM   16  C   UNL     1      12.834  17.996 -10.503  1.00  0.00     0.120 A 
HETATM   17  C   UNL     1      12.306  18.877  -8.271  1.00  0.00     0.168 C 
HETATM   18  C   UNL     1      14.047  17.748  -9.607  1.00  0.00     0.164 C 
ENDROOT
BRANCH   2  19
HETATM   19  C   UNL     1      10.488  15.221 -10.635  1.00  0.00     0.095 C 
HETATM   20  C   UNL     1       9.539  14.651 -11.273  1.00  0.00     0.024 C 
BRANCH  20  21
HETATM   21  C   UNL     1       8.816  14.474 -12.502  1.00  0.00    -0.060 C 
HETATM   22  C   UNL     1       7.672  15.318 -12.864  1.00  0.00     0.043 C 
HETATM   23  C   UNL     1       7.461  15.522 -14.343  1.00  0.00     0.073 C 
HETATM   24  C   UNL     1       8.619  15.071 -15.232  1.00  0.00     0.162 C 
HETATM   25  C   UNL     1       9.177  13.709 -14.846  1.00  0.00     0.096 C 
HETATM   26  C   UNL     1       9.261  13.483 -13.370  1.00  0.00    -0.014 C 
BRANCH  24  27
HETATM   27  O   UNL     1       8.179  14.972 -16.566  1.00  0.00    -0.365 OA
ATOM     28  HO  UNL     1       7.898  14.082 -16.744  1.00  0.00     0.213 HD
ENDBRANCH  24  27
BRANCH  24  29
HETATM   29  O   UNL     1       9.668  16.010 -15.101  1.00  0.00    -0.365 OA
ATOM     30  HO  UNL     1      10.494  15.583 -14.901  1.00  0.00     0.213 HD
ENDBRANCH  24  29
ENDBRANCH  20  21
ENDBRANCH   2  19
BRANCH  18  31
HETATM   31  O   UNL     1      14.168  16.402  -9.213  1.00  0.00    -0.390 OA
ATOM     32  HO  UNL     1      14.499  16.353  -8.324  1.00  0.00     0.210 HD
ENDBRANCH  18  31
TORSDOF 5
ENDMDL
MODEL 7
REMARK VINA RESULT:      -7.8      3.320      9.444
REMARK  5 active torsions:
REMARK  status: ('A' for Active; 'I' for Inactive)
REMARK    1  A    between atoms: N_4  and  C_11 
REMARK    2  A    between atoms: C_6  and  C_17 
REMARK    3  A    between atoms: O_13  and  C_26 
REMARK    4  A    between atoms: O_15  and  C_32 
REMARK    5  A    between atoms: O_22  and  C_26 
ROOT
HETATM    1  C   UNL     1      11.094  16.852  -9.161  1.00  0.00     0.005 C 
HETATM    2  N   UNL     1      12.974  18.805  -4.443  1.00  0.00    -0.323 N 
HETATM    3  C   UNL     1      14.718  17.600  -5.766  1.00  0.00     0.033 C 
HETATM    4  C   UNL     1      11.655  19.047  -4.678  1.00  0.00     0.231 A 
HETATM    5  O   UNL     1      13.012  18.137  -9.199  1.00  0.00    -0.340 OA
HETATM    6  C   UNL     1      13.790  18.798  -5.661  1.00  0.00     0.096 A 
HETATM    7  C   UNL     1      12.781  18.974  -6.795  1.00  0.00     0.058 A 
HETATM    8  C   UNL     1      12.359  15.456 -11.581  1.00  0.00     0.003 C 
HETATM    9  C   UNL     1      12.211  17.240  -9.925  1.00  0.00     0.080 C 
HETATM   10  C   UNL     1      10.071  16.009  -9.541  1.00  0.00     0.014 C 
HETATM   11  O   UNL     1      10.804  19.261  -3.831  1.00  0.00    -0.272 OA
HETATM   12  C   UNL     1      11.318  14.663 -11.160  1.00  0.00     0.000 C 
HETATM   13  C   UNL     1      12.665  16.731 -11.149  1.00  0.00     0.037 C 
HETATM   14  C   UNL     1      10.190  14.975 -10.450  1.00  0.00     0.001 C 
HETATM   15  C   UNL     1      11.293  17.433  -7.843  1.00  0.00    -0.008 C 
HETATM   16  C   UNL     1      11.392  19.084  -6.152  1.00  0.00     0.120 A 
HETATM   17  C   UNL     1      12.728  17.861  -7.813  1.00  0.00     0.168 C 
HETATM   18  C   UNL     1      10.564  17.890  -6.626  1.00  0.00     0.164 C 
ENDROOT
BRANCH   2  19
HETATM   19  C   UNL     1      13.375  18.435  -3.174  1.00  0.00     0.095 C 
HETATM   20  C   UNL     1      14.380  17.897  -2.597  1.00  0.00     0.024 C 
BRANCH  20  21
HETATM   21  C   UNL     1      15.806  17.800  -2.449  1.00  0.00    -0.060 C 
HETATM   22  C   UNL     1      16.463  16.570  -1.993  1.00  0.00     0.043 C 
HETATM   23  C   UNL     1      17.858  16.349  -2.519  1.00  0.00     0.073 C 
HETATM   24  C   UNL     1      18.275  17.272  -3.664  1.00  0.00     0.162 C 
HETATM   25  C   UNL     1      17.902  18.727  -3.427  1.00  0.00     0.096 C 
HETATM   26  C   UNL     1      16.562  18.916  -2.790  1.00  0.00    -0.014 C 
BRANCH  24  27
HETATM   27  O   UNL     1      19.673  17.225  -3.822  1.00  0.00    -0.365 OA
ATOM     28  HO  UNL     1      20.004  18.099  -3.995  1.00  0.00     0.213 HD
ENDBRANCH  24  27
BRANCH  24  29
HETATM   29  O   UNL     1      17.607  16.850  -4.837  1.00  0.00    -0.365 OA
ATOM     30  HO  UNL     1      16.695  16.644  -4.663  1.00  0.00     0.213 HD
ENDBRANCH  24  29
ENDBRANCH  20  21
ENDBRANCH   2  19
BRANCH  18  31
HETATM   31  O   UNL     1      10.515  16.850  -5.677  1.00  0.00    -0.390 OA
ATOM     32  HO  UNL     1       9.694  16.886  -5.200  1.00  0.00     0.210 HD
ENDBRANCH  18  31
TORSDOF 5
ENDMDL
MODEL 8
REMARK VINA RESULT:      -7.7      4.433      8.250
REMARK  5 active torsions:
REMARK  status: ('A' for Active; 'I' for Inactive)
REMARK    1  A    between atoms: N_4  and  C_11 
REMARK    2  A    between atoms: C_6  and  C_17 
REMARK    3  A    between atoms: O_13  and  C_26 
REMARK    4  A    between atoms: O_15  and  C_32 
REMARK    5  A    between atoms: O_22  and  C_26 
ROOT
HETATM    1  C   UNL     1      12.392  17.611  -8.173  1.00  0.00     0.005 C 
HETATM    2  N   UNL     1       8.292  19.553  -5.169  1.00  0.00    -0.323 N 
HETATM    3  C   UNL     1       7.683  19.248  -7.574  1.00  0.00     0.033 C 
HETATM    4  C   UNL     1       9.450  19.337  -4.486  1.00  0.00     0.231 A 
HETATM    5  O   UNL     1      10.352  16.537  -8.288  1.00  0.00    -0.340 OA
HETATM    6  C   UNL     1       8.072  18.595  -6.257  1.00  0.00     0.096 A 
HETATM    7  C   UNL     1       9.339  17.742  -6.274  1.00  0.00     0.058 A 
HETATM    8  C   UNL     1      12.692  16.680 -11.080  1.00  0.00     0.003 C 
HETATM    9  C   UNL     1      11.610  16.689  -8.894  1.00  0.00     0.080 C 
HETATM   10  C   UNL     1      13.689  18.000  -8.440  1.00  0.00     0.014 C 
HETATM   11  O   UNL     1       9.782  19.886  -3.450  1.00  0.00    -0.272 OA
HETATM   12  C   UNL     1      13.671  17.620 -10.857  1.00  0.00     0.000 C 
HETATM   13  C   UNL     1      11.861  16.102 -10.141  1.00  0.00     0.037 C 
HETATM   14  C   UNL     1      14.267  18.028  -9.695  1.00  0.00     0.001 C 
HETATM   15  C   UNL     1      11.519  18.159  -7.149  1.00  0.00    -0.008 C 
HETATM   16  C   UNL     1      10.250  18.261  -5.154  1.00  0.00     0.120 A 
HETATM   17  C   UNL     1      10.133  17.760  -7.557  1.00  0.00     0.168 C 
HETATM   18  C   UNL     1      11.523  18.802  -5.804  1.00  0.00     0.164 C 
ENDROOT
BRANCH   2  19
HETATM   19  C   UNL     1       7.557  20.692  -4.906  1.00  0.00     0.095 C 
HETATM   20  C   UNL     1       6.428  21.205  -5.212  1.00  0.00     0.024 C 
BRANCH  20  21
HETATM   21  C   UNL     1       5.014  21.038  -5.411  1.00  0.00    -0.060 C 
HETATM   22  C   UNL     1       4.382  21.231  -6.721  1.00  0.00     0.043 C 
HETATM   23  C   UNL     1       3.147  20.403  -6.970  1.00  0.00     0.073 C 
HETATM   24  C   UNL     1       2.899  19.285  -5.959  1.00  0.00     0.162 C 
HETATM   25  C   UNL     1       3.094  19.727  -4.516  1.00  0.00     0.096 C 
HETATM   26  C   UNL     1       4.255  20.648  -4.315  1.00  0.00    -0.014 C 
BRANCH  24  27
HETATM   27  O   UNL     1       1.571  18.830  -6.074  1.00  0.00    -0.365 OA
ATOM     28  HO  UNL     1       1.498  18.248  -6.821  1.00  0.00     0.213 HD
ENDBRANCH  24  27
BRANCH  24  29
HETATM   29  O   UNL     1       3.826  18.247  -6.212  1.00  0.00    -0.365 OA
ATOM     30  HO  UNL     1       4.558  18.280  -5.607  1.00  0.00     0.213 HD
ENDBRANCH  24  29
ENDBRANCH  20  21
ENDBRANCH   2  19
BRANCH  18  31
HETATM   31  O   UNL     1      11.512  20.204  -5.942  1.00  0.00    -0.390 OA
ATOM     32  HO  UNL     1      10.760  20.568  -5.490  1.00  0.00     0.210 HD
ENDBRANCH  18  31
TORSDOF 5
ENDMDL
MODEL 9
REMARK VINA RESULT:      -7.7      4.398      8.686
REMARK  5 active torsions:
REMARK  status: ('A' for Active; 'I' for Inactive)
REMARK    1  A    between atoms: N_4  and  C_11 
REMARK    2  A    between atoms: C_6  and  C_17 
REMARK    3  A    between atoms: O_13  and  C_26 
REMARK    4  A    between atoms: O_15  and  C_32 
REMARK    5  A    between atoms: O_22  and  C_26 
ROOT
HETATM    1  C   UNL     1      11.542  17.552  -7.639  1.00  0.00     0.005 C 
HETATM    2  N   UNL     1      15.924  20.218  -5.823  1.00  0.00    -0.323 N 
HETATM    3  C   UNL     1      13.910  21.682  -6.042  1.00  0.00     0.033 C 
HETATM    4  C   UNL     1      16.124  18.897  -6.084  1.00  0.00     0.231 A 
HETATM    5  O   UNL     1      11.332  18.813  -5.716  1.00  0.00    -0.340 OA
HETATM    6  C   UNL     1      14.575  20.515  -5.331  1.00  0.00     0.096 A 
HETATM    7  C   UNL     1      13.843  19.176  -5.399  1.00  0.00     0.058 A 
HETATM    8  C   UNL     1       8.590  18.274  -8.058  1.00  0.00     0.003 C 
HETATM    9  C   UNL     1      10.637  18.145  -6.737  1.00  0.00     0.080 C 
HETATM   10  C   UNL     1      11.241  16.791  -8.749  1.00  0.00     0.014 C 
HETATM   11  O   UNL     1      17.194  18.374  -6.347  1.00  0.00    -0.272 OA
HETATM   12  C   UNL     1       9.050  17.760  -9.247  1.00  0.00     0.000 C 
HETATM   13  C   UNL     1       9.247  18.283  -6.843  1.00  0.00     0.037 C 
HETATM   14  C   UNL     1      10.093  16.913  -9.509  1.00  0.00     0.001 C 
HETATM   15  C   UNL     1      12.863  17.998  -7.227  1.00  0.00    -0.008 C 
HETATM   16  C   UNL     1      14.840  18.141  -5.937  1.00  0.00     0.120 A 
HETATM   17  C   UNL     1      12.619  19.134  -6.282  1.00  0.00     0.168 C 
HETATM   18  C   UNL     1      14.307  17.633  -7.276  1.00  0.00     0.164 C 
ENDROOT
BRANCH   2  19
HETATM   19  C   UNL     1      16.893  21.132  -6.189  1.00  0.00     0.095 C 
HETATM   20  C   UNL     1      18.135  21.157  -6.485  1.00  0.00     0.024 C 
BRANCH  20  21
HETATM   21  C   UNL     1      19.244  20.571  -7.187  1.00  0.00    -0.060 C 
HETATM   22  C   UNL     1      20.424  20.050  -6.488  1.00  0.00     0.043 C 
HETATM   23  C   UNL     1      21.130  18.909  -7.175  1.00  0.00     0.073 C 
HETATM   24  C   UNL     1      20.364  18.273  -8.334  1.00  0.00     0.162 C 
HETATM   25  C   UNL     1      19.736  19.295  -9.270  1.00  0.00     0.096 C 
HETATM   26  C   UNL     1      19.150  20.480  -8.570  1.00  0.00    -0.014 C 
BRANCH  24  27
HETATM   27  O   UNL     1      21.242  17.491  -9.108  1.00  0.00    -0.365 OA
ATOM     28  HO  UNL     1      21.396  17.917  -9.943  1.00  0.00     0.213 HD
ENDBRANCH  24  27
BRANCH  24  29
HETATM   29  O   UNL     1      19.314  17.494  -7.795  1.00  0.00    -0.365 OA
ATOM     30  HO  UNL     1      19.464  16.565  -7.932  1.00  0.00     0.213 HD
ENDBRANCH  24  29
ENDBRANCH  20  21
ENDBRANCH   2  19
BRANCH  18  31
HETATM   31  O   UNL     1      14.923  18.255  -8.379  1.00  0.00    -0.390 OA
ATOM     32  HO  UNL     1      15.614  17.699  -8.720  1.00  0.00     0.210 HD
ENDBRANCH  18  31
TORSDOF 5
ENDMDL
