REMARK  5 active torsions:
REMARK  status: ('A' for Active; 'I' for Inactive)
REMARK    1  A    between atoms: N_4  and  C_11 
REMARK    2  A    between atoms: C_6  and  C_17 
REMARK    3  A    between atoms: O_13  and  C_26 
REMARK    4  A    between atoms: O_15  and  C_32 
REMARK    5  A    between atoms: O_22  and  C_26 
ROOT
HETATM    1  C   UNL     1      12.534  17.132  -5.651  1.00  0.00     0.005 C 
HETATM    2  N   UNL     1      12.223  16.524 -11.049  1.00  0.00    -0.323 N 
HETATM    3  C   UNL     1      10.506  15.192  -9.815  1.00  0.00     0.033 C 
HETATM    4  C   UNL     1      13.216  17.352 -10.622  1.00  0.00     0.231 A 
HETATM    5  O   UNL     1      10.485  17.445  -6.667  1.00  0.00    -0.340 OA
HETATM    6  C   UNL     1      11.027  16.566 -10.202  1.00  0.00     0.096 A 
HETATM    7  C   UNL     1      11.410  17.493  -9.050  1.00  0.00     0.058 A 
HETATM    8  C   UNL     1      10.854  16.183  -3.267  1.00  0.00     0.003 C 
HETATM    9  C   UNL     1      11.146  17.242  -5.445  1.00  0.00     0.080 C 
HETATM   10  C   UNL     1      13.512  16.957  -4.694  1.00  0.00     0.014 C 
HETATM   11  O   UNL     1      14.237  17.619 -11.233  1.00  0.00    -0.272 OA
HETATM   12  C   UNL     1      12.152  15.805  -3.018  1.00  0.00     0.000 C 
HETATM   13  C   UNL     1      10.404  17.007  -4.280  1.00  0.00     0.037 C 
HETATM   14  C   UNL     1      13.334  16.314  -3.484  1.00  0.00     0.001 C 
HETATM   15  C   UNL     1      12.723  17.128  -7.092  1.00  0.00    -0.008 C 
HETATM   16  C   UNL     1      12.850  17.960  -9.303  1.00  0.00     0.120 A 
HETATM   17  C   UNL     1      11.361  16.888  -7.668  1.00  0.00     0.168 C 
HETATM   18  C   UNL     1      13.717  17.434  -8.160  1.00  0.00     0.164 C 
ENDROOT
BRANCH   2  19
HETATM   19  C   UNL     1      12.479  15.640 -12.079  1.00  0.00     0.095 C 
HETATM   20  C   UNL     1      11.969  14.592 -12.602  1.00  0.00     0.024 C 
BRANCH  20  21
HETATM   21  C   UNL     1      10.802  13.891 -13.063  1.00  0.00    -0.060 C 
HETATM   22  C   UNL     1       9.538  14.579 -13.347  1.00  0.00     0.043 C 
HETATM   23  C   UNL     1       8.683  13.946 -14.415  1.00  0.00     0.073 C 
HETATM   24  C   UNL     1       9.373  12.862 -15.242  1.00  0.00     0.162 C 
HETATM   25  C   UNL     1      10.175  11.883 -14.398  1.00  0.00     0.096 C 
HETATM   26  C   UNL     1      10.918  12.521 -13.268  1.00  0.00    -0.014 C 
BRANCH  24  27
HETATM   27  O   UNL     1       8.406  12.111 -15.937  1.00  0.00    -0.365 OA
ATOM     28  HO  UNL     1       8.835  11.437 -16.451  1.00  0.00     0.213 HD
ENDBRANCH  24  27
BRANCH  24  29
HETATM   29  O   UNL     1      10.276  13.492 -16.130  1.00  0.00    -0.365 OA
ATOM     30  HO  UNL     1      10.929  13.999 -15.661  1.00  0.00     0.213 HD
ENDBRANCH  24  29
ENDBRANCH  20  21
ENDBRANCH   2  19
BRANCH  18  31
HETATM   31  O   UNL     1      14.426  16.267  -8.505  1.00  0.00    -0.390 OA
ATOM     32  HO  UNL     1      15.059  16.462  -9.186  1.00  0.00     0.210 HD
ENDBRANCH  18  31
TORSDOF 5
