MODEL 1
REMARK VINA RESULT:     -10.0      0.000      0.000
REMARK  1 active torsions:
REMARK  status: ('A' for Active; 'I' for Inactive)
REMARK    1  A    between atoms: C_11  and  O_22 
ROOT
HETATM    1  C   UNL     1     -28.226 -33.381 -73.889  1.00  0.00    -0.025 A 
HETATM    2  C   UNL     1     -29.233 -27.832 -74.351  1.00  0.00     0.014 C 
HETATM    3  C   UNL     1     -24.800 -27.910 -74.329  1.00  0.00     0.245 C 
HETATM    4  O   UNL     1     -24.023 -26.957 -74.442  1.00  0.00    -0.268 OA
HETATM    5  C   UNL     1     -28.902 -34.319 -76.018  1.00  0.00     0.012 A 
HETATM    6  C   UNL     1     -30.911 -28.785 -71.231  1.00  0.00     0.029 C 
HETATM    7  C   UNL     1     -27.268 -29.405 -73.097  1.00  0.00     0.018 C 
HETATM    8  C   UNL     1     -27.540 -32.252 -73.407  1.00  0.00     0.024 C 
HETATM    9  C   UNL     1     -28.594 -29.340 -72.569  1.00  0.00     0.055 C 
HETATM   10  C   UNL     1     -29.609 -26.714 -75.017  1.00  0.00     0.004 C 
HETATM   11  C   UNL     1     -31.566 -26.029 -73.771  1.00  0.00     0.066 C 
HETATM   12  C   UNL     1     -29.439 -35.411 -75.350  1.00  0.00     0.001 A 
HETATM   13  C   UNL     1     -29.403 -35.471 -73.963  1.00  0.00     0.001 A 
HETATM   14  C   UNL     1     -31.449 -26.973 -72.778  1.00  0.00     0.049 C 
HETATM   15  C   UNL     1     -30.616 -28.024 -72.381  1.00  0.00    -0.020 C 
HETATM   16  C   UNL     1     -26.181 -28.798 -72.440  1.00  0.00     0.106 C 
HETATM   17  C   UNL     1     -26.427 -29.360 -75.437  1.00  0.00     0.018 C 
HETATM   18  C   UNL     1     -28.334 -33.277 -75.286  1.00  0.00    -0.025 A 
HETATM   19  C   UNL     1     -27.397 -31.372 -74.488  1.00  0.00    -0.023 C 
HETATM   20  N   UNL     1     -28.994 -30.163 -71.564  1.00  0.00    -0.364 N 
ATOM     21  HN  UNL     1     -28.395 -30.921 -71.235  1.00  0.00     0.165 HD
HETATM   22  C   UNL     1     -30.199 -29.948 -71.020  1.00  0.00     0.089 C 
HETATM   23  C   UNL     1     -28.727 -34.497 -73.248  1.00  0.00     0.012 A 
HETATM   24  N   UNL     1     -25.075 -28.346 -73.066  1.00  0.00    -0.333 N 
ATOM     25  HN  UNL     1     -24.258 -28.326 -72.455  1.00  0.00     0.168 HD
HETATM   26  C   UNL     1     -30.606 -25.803 -74.774  1.00  0.00     0.036 C 
HETATM   27  C   UNL     1     -27.032 -30.020 -74.347  1.00  0.00    -0.012 C 
HETATM   28  C   UNL     1     -25.272 -28.667 -75.433  1.00  0.00     0.075 C 
HETATM   29  C   UNL     1     -27.755 -32.039 -75.672  1.00  0.00     0.024 C 
HETATM   30  C   UNL     1     -29.483 -28.392 -73.117  1.00  0.00     0.002 C 
ENDROOT
BRANCH  11  31
HETATM   31  O   UNL     1     -32.705 -25.276 -73.916  1.00  0.00    -0.361 OA
ATOM     32  HO  UNL     1     -33.421 -25.559 -74.473  1.00  0.00     0.217 HD
ENDBRANCH  11  31
TORSDOF 1
ENDMDL
MODEL 2
REMARK VINA RESULT:      -8.5      4.048      8.106
REMARK  1 active torsions:
REMARK  status: ('A' for Active; 'I' for Inactive)
REMARK    1  A    between atoms: C_11  and  O_22 
ROOT
HETATM    1  C   UNL     1     -32.787 -25.504 -78.143  1.00  0.00    -0.025 A 
HETATM    2  C   UNL     1     -31.974 -28.259 -73.267  1.00  0.00     0.014 C 
HETATM    3  C   UNL     1     -35.513 -25.775 -72.282  1.00  0.00     0.245 C 
HETATM    4  O   UNL     1     -36.154 -25.752 -71.227  1.00  0.00    -0.268 OA
HETATM    5  C   UNL     1     -33.565 -27.194 -79.694  1.00  0.00     0.012 A 
HETATM    6  C   UNL     1     -28.816 -26.475 -73.819  1.00  0.00     0.029 C 
HETATM    7  C   UNL     1     -32.878 -25.694 -73.982  1.00  0.00     0.018 C 
HETATM    8  C   UNL     1     -32.990 -25.133 -76.801  1.00  0.00     0.024 C 
HETATM    9  C   UNL     1     -31.498 -26.040 -74.111  1.00  0.00     0.055 C 
HETATM   10  C   UNL     1     -32.014 -29.347 -72.462  1.00  0.00     0.004 C 
HETATM   11  C   UNL     1     -29.668 -29.698 -71.986  1.00  0.00     0.066 C 
HETATM   12  C   UNL     1     -32.792 -26.614 -80.691  1.00  0.00     0.001 A 
HETATM   13  C   UNL     1     -31.995 -25.513 -80.408  1.00  0.00     0.001 A 
HETATM   14  C   UNL     1     -29.217 -28.559 -72.611  1.00  0.00     0.049 C 
HETATM   15  C   UNL     1     -29.700 -27.447 -73.307  1.00  0.00    -0.020 C 
HETATM   16  C   UNL     1     -33.324 -24.794 -72.996  1.00  0.00     0.106 C 
HETATM   17  C   UNL     1     -34.946 -27.038 -74.297  1.00  0.00     0.018 C 
HETATM   18  C   UNL     1     -33.530 -26.667 -78.404  1.00  0.00    -0.025 A 
HETATM   19  C   UNL     1     -33.706 -26.174 -76.197  1.00  0.00    -0.023 C 
HETATM   20  N   UNL     1     -30.619 -25.217 -74.741  1.00  0.00    -0.364 N 
ATOM     21  HN  UNL     1     -30.940 -24.383 -75.234  1.00  0.00     0.165 HD
HETATM   22  C   UNL     1     -29.319 -25.535 -74.696  1.00  0.00     0.089 C 
HETATM   23  C   UNL     1     -32.060 -24.917 -79.161  1.00  0.00     0.012 A 
HETATM   24  N   UNL     1     -34.561 -24.815 -72.456  1.00  0.00    -0.333 N 
ATOM     25  HN  UNL     1     -34.849 -23.905 -72.097  1.00  0.00     0.168 HD
HETATM   26  C   UNL     1     -31.025 -30.013 -71.784  1.00  0.00     0.036 C 
HETATM   27  C   UNL     1     -33.845 -26.316 -74.803  1.00  0.00    -0.012 C 
HETATM   28  C   UNL     1     -35.833 -26.630 -73.370  1.00  0.00     0.075 C 
HETATM   29  C   UNL     1     -34.160 -27.056 -77.192  1.00  0.00     0.024 C 
HETATM   30  C   UNL     1     -31.065 -27.264 -73.559  1.00  0.00     0.002 C 
ENDROOT
BRANCH  11  31
HETATM   31  O   UNL     1     -28.805 -30.686 -71.582  1.00  0.00    -0.361 OA
ATOM     32  HO  UNL     1     -27.928 -30.486 -71.276  1.00  0.00     0.217 HD
ENDBRANCH  11  31
TORSDOF 1
ENDMDL
MODEL 3
REMARK VINA RESULT:      -8.3      4.475      6.937
REMARK  1 active torsions:
REMARK  status: ('A' for Active; 'I' for Inactive)
REMARK    1  A    between atoms: C_11  and  O_22 
ROOT
HETATM    1  C   UNL     1     -29.239 -27.061 -72.986  1.00  0.00    -0.025 A 
HETATM    2  C   UNL     1     -33.784 -27.078 -76.356  1.00  0.00     0.014 C 
HETATM    3  C   UNL     1     -33.233 -22.733 -75.663  1.00  0.00     0.245 C 
HETATM    4  O   UNL     1     -33.889 -21.800 -76.136  1.00  0.00    -0.268 OA
HETATM    5  C   UNL     1     -27.403 -27.752 -74.407  1.00  0.00     0.012 A 
HETATM    6  C   UNL     1     -34.813 -29.086 -73.463  1.00  0.00     0.029 C 
HETATM    7  C   UNL     1     -32.899 -25.492 -74.208  1.00  0.00     0.018 C 
HETATM    8  C   UNL     1     -30.367 -26.225 -73.055  1.00  0.00     0.024 C 
HETATM    9  C   UNL     1     -33.380 -26.819 -73.983  1.00  0.00     0.055 C 
HETATM   10  C   UNL     1     -34.418 -27.215 -77.545  1.00  0.00     0.004 C 
HETATM   11  C   UNL     1     -35.871 -29.102 -77.117  1.00  0.00     0.066 C 
HETATM   12  C   UNL     1     -26.895 -28.507 -73.359  1.00  0.00     0.001 A 
HETATM   13  C   UNL     1     -27.571 -28.570 -72.148  1.00  0.00     0.001 A 
HETATM   14  C   UNL     1     -35.585 -29.210 -75.777  1.00  0.00     0.049 C 
HETATM   15  C   UNL     1     -34.815 -28.595 -74.785  1.00  0.00    -0.020 C 
HETATM   16  C   UNL     1     -33.635 -24.362 -73.806  1.00  0.00     0.106 C 
HETATM   17  C   UNL     1     -31.610 -24.510 -76.095  1.00  0.00     0.018 C 
HETATM   18  C   UNL     1     -28.602 -27.061 -74.238  1.00  0.00    -0.025 A 
HETATM   19  C   UNL     1     -30.523 -25.866 -74.401  1.00  0.00    -0.023 C 
HETATM   20  N   UNL     1     -33.261 -27.415 -72.767  1.00  0.00    -0.364 N 
ATOM     21  HN  UNL     1     -32.729 -26.976 -72.016  1.00  0.00     0.165 HD
HETATM   22  C   UNL     1     -33.864 -28.598 -72.588  1.00  0.00     0.089 C 
HETATM   23  C   UNL     1     -28.692 -27.784 -71.943  1.00  0.00     0.012 A 
HETATM   24  N   UNL     1     -33.562 -23.157 -74.410  1.00  0.00    -0.333 N 
ATOM     25  HN  UNL     1     -33.809 -22.389 -73.786  1.00  0.00     0.168 HD
HETATM   26  C   UNL     1     -35.425 -28.056 -77.946  1.00  0.00     0.036 C 
HETATM   27  C   UNL     1     -31.696 -25.286 -74.920  1.00  0.00    -0.012 C 
HETATM   28  C   UNL     1     -32.067 -23.257 -76.281  1.00  0.00     0.075 C 
HETATM   29  C   UNL     1     -29.378 -26.257 -75.115  1.00  0.00     0.024 C 
HETATM   30  C   UNL     1     -33.991 -27.497 -75.059  1.00  0.00     0.002 C 
ENDROOT
BRANCH  11  31
HETATM   31  O   UNL     1     -36.556 -30.084 -77.787  1.00  0.00    -0.361 OA
ATOM     32  HO  UNL     1     -37.246 -30.585 -77.367  1.00  0.00     0.217 HD
ENDBRANCH  11  31
TORSDOF 1
ENDMDL
MODEL 4
REMARK VINA RESULT:      -7.8      3.979      8.044
REMARK  1 active torsions:
REMARK  status: ('A' for Active; 'I' for Inactive)
REMARK    1  A    between atoms: C_11  and  O_22 
ROOT
HETATM    1  C   UNL     1     -34.016 -26.191 -77.660  1.00  0.00    -0.025 A 
HETATM    2  C   UNL     1     -31.668 -28.347 -72.985  1.00  0.00     0.014 C 
HETATM    3  C   UNL     1     -35.127 -26.152 -71.286  1.00  0.00     0.245 C 
HETATM    4  O   UNL     1     -35.479 -26.089 -70.105  1.00  0.00    -0.268 OA
HETATM    5  C   UNL     1     -34.943 -28.098 -78.832  1.00  0.00     0.012 A 
HETATM    6  C   UNL     1     -28.998 -26.313 -74.467  1.00  0.00     0.029 C 
HETATM    7  C   UNL     1     -33.034 -25.972 -73.618  1.00  0.00     0.018 C 
HETATM    8  C   UNL     1     -33.921 -25.710 -76.342  1.00  0.00     0.024 C 
HETATM    9  C   UNL     1     -31.699 -26.187 -74.078  1.00  0.00     0.055 C 
HETATM   10  C   UNL     1     -31.369 -29.347 -72.124  1.00  0.00     0.004 C 
HETATM   11  C   UNL     1     -28.953 -29.407 -72.253  1.00  0.00     0.066 C 
HETATM   12  C   UNL     1     -34.524 -27.545 -80.034  1.00  0.00     0.001 A 
HETATM   13  C   UNL     1     -33.825 -26.345 -80.048  1.00  0.00     0.001 A 
HETATM   14  C   UNL     1     -28.819 -28.297 -73.053  1.00  0.00     0.049 C 
HETATM   15  C   UNL     1     -29.596 -27.315 -73.675  1.00  0.00    -0.020 C 
HETATM   16  C   UNL     1     -33.327 -25.028 -72.615  1.00  0.00     0.106 C 
HETATM   17  C   UNL     1     -34.932 -27.545 -73.287  1.00  0.00     0.018 C 
HETATM   18  C   UNL     1     -34.651 -27.444 -77.636  1.00  0.00    -0.025 A 
HETATM   19  C   UNL     1     -34.326 -26.754 -75.500  1.00  0.00    -0.023 C 
HETATM   20  N   UNL     1     -31.117 -25.345 -74.972  1.00  0.00    -0.364 N 
ATOM     21  HN  UNL     1     -31.653 -24.601 -75.421  1.00  0.00     0.165 HD
HETATM   22  C   UNL     1     -29.818 -25.522 -75.246  1.00  0.00     0.089 C 
HETATM   23  C   UNL     1     -33.648 -25.637 -78.871  1.00  0.00     0.012 A 
HETATM   24  N   UNL     1     -34.376 -25.121 -71.771  1.00  0.00    -0.333 N 
ATOM     25  HN  UNL     1     -34.675 -24.214 -71.414  1.00  0.00     0.168 HD
HETATM   26  C   UNL     1     -30.165 -29.837 -71.682  1.00  0.00     0.036 C 
HETATM   27  C   UNL     1     -34.091 -26.768 -74.112  1.00  0.00    -0.012 C 
HETATM   28  C   UNL     1     -35.601 -27.139 -72.190  1.00  0.00     0.075 C 
HETATM   29  C   UNL     1     -34.903 -27.772 -76.277  1.00  0.00     0.024 C 
HETATM   30  C   UNL     1     -30.993 -27.299 -73.574  1.00  0.00     0.002 C 
ENDROOT
BRANCH  11  31
HETATM   31  O   UNL     1     -27.900 -30.257 -72.020  1.00  0.00    -0.361 OA
ATOM     32  HO  UNL     1     -27.406 -30.225 -71.210  1.00  0.00     0.217 HD
ENDBRANCH  11  31
TORSDOF 1
ENDMDL
MODEL 5
REMARK VINA RESULT:      -7.6      3.982      8.165
REMARK  1 active torsions:
REMARK  status: ('A' for Active; 'I' for Inactive)
REMARK    1  A    between atoms: C_11  and  O_22 
ROOT
HETATM    1  C   UNL     1     -35.633 -25.489 -71.770  1.00  0.00    -0.025 A 
HETATM    2  C   UNL     1     -30.380 -26.922 -73.312  1.00  0.00     0.014 C 
HETATM    3  C   UNL     1     -31.971 -25.251 -77.099  1.00  0.00     0.245 C 
HETATM    4  O   UNL     1     -31.379 -25.109 -78.173  1.00  0.00    -0.268 OA
HETATM    5  C   UNL     1     -35.353 -23.607 -70.272  1.00  0.00     0.012 A 
HETATM    6  C   UNL     1     -31.860 -30.074 -72.156  1.00  0.00     0.029 C 
HETATM    7  C   UNL     1     -32.890 -26.881 -74.580  1.00  0.00     0.018 C 
HETATM    8  C   UNL     1     -35.098 -25.957 -72.984  1.00  0.00     0.024 C 
HETATM    9  C   UNL     1     -32.592 -27.866 -73.590  1.00  0.00     0.055 C 
HETATM   10  C   UNL     1     -29.035 -26.767 -73.342  1.00  0.00     0.004 C 
HETATM   11  C   UNL     1     -28.280 -28.793 -72.254  1.00  0.00     0.066 C 
HETATM   12  C   UNL     1     -36.366 -24.114 -69.469  1.00  0.00     0.001 A 
HETATM   13  C   UNL     1     -36.981 -25.317 -69.793  1.00  0.00     0.001 A 
HETATM   14  C   UNL     1     -29.518 -29.381 -72.156  1.00  0.00     0.049 C 
HETATM   15  C   UNL     1     -30.855 -29.142 -72.489  1.00  0.00    -0.020 C 
HETATM   16  C   UNL     1     -33.006 -27.215 -75.943  1.00  0.00     0.106 C 
HETATM   17  C   UNL     1     -32.208 -24.498 -74.785  1.00  0.00     0.018 C 
HETATM   18  C   UNL     1     -34.952 -24.317 -71.403  1.00  0.00    -0.025 A 
HETATM   19  C   UNL     1     -33.968 -25.175 -73.257  1.00  0.00    -0.023 C 
HETATM   20  N   UNL     1     -33.556 -28.692 -73.104  1.00  0.00    -0.364 N 
ATOM     21  HN  UNL     1     -34.537 -28.559 -73.352  1.00  0.00     0.165 HD
HETATM   22  C   UNL     1     -33.178 -29.686 -72.290  1.00  0.00     0.089 C 
HETATM   23  C   UNL     1     -36.668 -25.953 -70.981  1.00  0.00     0.012 A 
HETATM   24  N   UNL     1     -32.750 -26.361 -76.956  1.00  0.00    -0.333 N 
ATOM     25  HN  UNL     1     -33.255 -26.601 -77.809  1.00  0.00     0.168 HD
HETATM   26  C   UNL     1     -28.016 -27.600 -72.952  1.00  0.00     0.036 C 
HETATM   27  C   UNL     1     -32.997 -25.520 -74.217  1.00  0.00    -0.012 C 
HETATM   28  C   UNL     1     -32.014 -24.249 -76.094  1.00  0.00     0.075 C 
HETATM   29  C   UNL     1     -33.942 -24.083 -72.373  1.00  0.00     0.024 C 
HETATM   30  C   UNL     1     -31.263 -27.965 -73.128  1.00  0.00     0.002 C 
ENDROOT
BRANCH  11  31
HETATM   31  O   UNL     1     -27.191 -29.291 -71.582  1.00  0.00    -0.361 OA
ATOM     32  HO  UNL     1     -26.982 -29.012 -70.698  1.00  0.00     0.217 HD
ENDBRANCH  11  31
TORSDOF 1
ENDMDL
MODEL 6
REMARK VINA RESULT:      -7.5      5.732      9.224
REMARK  1 active torsions:
REMARK  status: ('A' for Active; 'I' for Inactive)
REMARK    1  A    between atoms: C_11  and  O_22 
ROOT
HETATM    1  C   UNL     1     -28.695 -37.091 -79.260  1.00  0.00    -0.025 A 
HETATM    2  C   UNL     1     -29.343 -36.913 -73.641  1.00  0.00     0.014 C 
HETATM    3  C   UNL     1     -33.363 -38.264 -74.936  1.00  0.00     0.245 C 
HETATM    4  O   UNL     1     -34.329 -38.559 -74.227  1.00  0.00    -0.268 OA
HETATM    5  C   UNL     1     -27.200 -38.956 -79.659  1.00  0.00     0.012 A 
HETATM    6  C   UNL     1     -28.392 -33.485 -74.537  1.00  0.00     0.029 C 
HETATM    7  C   UNL     1     -31.001 -36.415 -75.857  1.00  0.00     0.018 C 
HETATM    8  C   UNL     1     -29.799 -36.782 -78.445  1.00  0.00     0.024 C 
HETATM    9  C   UNL     1     -29.960 -35.501 -75.508  1.00  0.00     0.055 C 
HETATM   10  C   UNL     1     -29.157 -37.368 -72.379  1.00  0.00     0.004 C 
HETATM   11  C   UNL     1     -27.930 -35.543 -71.371  1.00  0.00     0.066 C 
HETATM   12  C   UNL     1     -26.565 -38.216 -80.646  1.00  0.00     0.001 A 
HETATM   13  C   UNL     1     -26.964 -36.913 -80.913  1.00  0.00     0.001 A 
HETATM   14  C   UNL     1     -28.024 -34.689 -72.444  1.00  0.00     0.049 C 
HETATM   15  C   UNL     1     -28.573 -34.626 -73.728  1.00  0.00    -0.020 C 
HETATM   16  C   UNL     1     -32.359 -36.093 -75.673  1.00  0.00     0.106 C 
HETATM   17  C   UNL     1     -31.130 -38.894 -75.707  1.00  0.00     0.018 C 
HETATM   18  C   UNL     1     -28.240 -38.379 -78.930  1.00  0.00    -0.025 A 
HETATM   19  C   UNL     1     -29.897 -37.805 -77.492  1.00  0.00    -0.023 C 
HETATM   20  N   UNL     1     -29.624 -34.469 -76.326  1.00  0.00    -0.364 N 
ATOM     21  HN  UNL     1     -30.030 -34.382 -77.258  1.00  0.00     0.165 HD
HETATM   22  C   UNL     1     -28.744 -33.568 -75.869  1.00  0.00     0.089 C 
HETATM   23  C   UNL     1     -28.076 -36.389 -80.277  1.00  0.00     0.012 A 
HETATM   24  N   UNL     1     -33.331 -37.004 -75.457  1.00  0.00    -0.333 N 
ATOM     25  HN  UNL     1     -34.251 -36.675 -75.750  1.00  0.00     0.168 HD
HETATM   26  C   UNL     1     -28.594 -36.779 -71.275  1.00  0.00     0.036 C 
HETATM   27  C   UNL     1     -30.681 -37.709 -76.326  1.00  0.00    -0.012 C 
HETATM   28  C   UNL     1     -32.394 -39.209 -75.366  1.00  0.00     0.075 C 
HETATM   29  C   UNL     1     -29.038 -38.855 -77.856  1.00  0.00     0.024 C 
HETATM   30  C   UNL     1     -29.288 -35.695 -74.283  1.00  0.00     0.002 C 
ENDROOT
BRANCH  11  31
HETATM   31  O   UNL     1     -27.082 -35.288 -70.321  1.00  0.00    -0.361 OA
ATOM     32  HO  UNL     1     -27.411 -35.110 -69.448  1.00  0.00     0.217 HD
ENDBRANCH  11  31
TORSDOF 1
ENDMDL
MODEL 7
REMARK VINA RESULT:      -7.4      4.552      7.629
REMARK  1 active torsions:
REMARK  status: ('A' for Active; 'I' for Inactive)
REMARK    1  A    between atoms: C_11  and  O_22 
ROOT
HETATM    1  C   UNL     1     -35.594 -29.187 -76.188  1.00  0.00    -0.025 A 
HETATM    2  C   UNL     1     -31.484 -29.220 -72.299  1.00  0.00     0.014 C 
HETATM    3  C   UNL     1     -35.039 -28.344 -69.797  1.00  0.00     0.245 C 
HETATM    4  O   UNL     1     -35.087 -28.198 -68.572  1.00  0.00    -0.268 OA
HETATM    5  C   UNL     1     -35.817 -31.497 -76.883  1.00  0.00     0.012 A 
HETATM    6  C   UNL     1     -30.453 -26.610 -74.663  1.00  0.00     0.029 C 
HETATM    7  C   UNL     1     -33.878 -27.789 -72.659  1.00  0.00     0.018 C 
HETATM    8  C   UNL     1     -35.412 -28.459 -74.998  1.00  0.00     0.024 C 
HETATM    9  C   UNL     1     -32.742 -27.525 -73.484  1.00  0.00     0.055 C 
HETATM   10  C   UNL     1     -30.570 -29.818 -71.498  1.00  0.00     0.004 C 
HETATM   11  C   UNL     1     -28.495 -28.908 -72.348  1.00  0.00     0.066 C 
HETATM   12  C   UNL     1     -35.993 -31.071 -78.192  1.00  0.00     0.001 A 
HETATM   13  C   UNL     1     -35.933 -29.719 -78.504  1.00  0.00     0.001 A 
HETATM   14  C   UNL     1     -29.070 -28.023 -73.229  1.00  0.00     0.049 C 
HETATM   15  C   UNL     1     -30.329 -27.590 -73.656  1.00  0.00    -0.020 C 
HETATM   16  C   UNL     1     -34.312 -26.870 -71.685  1.00  0.00     0.106 C 
HETATM   17  C   UNL     1     -34.725 -29.901 -71.656  1.00  0.00     0.018 C 
HETATM   18  C   UNL     1     -35.572 -30.558 -75.882  1.00  0.00    -0.025 A 
HETATM   19  C   UNL     1     -35.090 -29.387 -74.000  1.00  0.00    -0.023 C 
HETATM   20  N   UNL     1     -32.834 -26.714 -74.571  1.00  0.00    -0.364 N 
ATOM     21  HN  UNL     1     -33.736 -26.361 -74.890  1.00  0.00     0.165 HD
HETATM   22  C   UNL     1     -31.701 -26.395 -75.212  1.00  0.00     0.089 C 
HETATM   23  C   UNL     1     -35.816 -28.783 -77.490  1.00  0.00     0.012 A 
HETATM   24  N   UNL     1     -34.971 -27.215 -70.559  1.00  0.00    -0.333 N 
ATOM     25  HN  UNL     1     -35.551 -26.459 -70.195  1.00  0.00     0.168 HD
HETATM   26  C   UNL     1     -29.209 -29.674 -71.408  1.00  0.00     0.036 C 
HETATM   27  C   UNL     1     -34.548 -29.029 -72.751  1.00  0.00    -0.012 C 
HETATM   28  C   UNL     1     -35.220 -29.596 -70.441  1.00  0.00     0.075 C 
HETATM   29  C   UNL     1     -35.315 -30.684 -74.490  1.00  0.00     0.024 C 
HETATM   30  C   UNL     1     -31.514 -28.127 -73.139  1.00  0.00     0.002 C 
ENDROOT
BRANCH  11  31
HETATM   31  O   UNL     1     -27.152 -29.188 -72.384  1.00  0.00    -0.361 OA
ATOM     32  HO  UNL     1     -26.780 -29.755 -73.049  1.00  0.00     0.217 HD
ENDBRANCH  11  31
TORSDOF 1
ENDMDL
MODEL 8
REMARK VINA RESULT:      -7.4      4.565      7.862
REMARK  1 active torsions:
REMARK  status: ('A' for Active; 'I' for Inactive)
REMARK    1  A    between atoms: C_11  and  O_22 
ROOT
HETATM    1  C   UNL     1     -27.606 -32.142 -74.516  1.00  0.00    -0.025 A 
HETATM    2  C   UNL     1     -32.581 -34.767 -75.136  1.00  0.00     0.014 C 
HETATM    3  C   UNL     1     -30.069 -38.041 -73.514  1.00  0.00     0.245 C 
HETATM    4  O   UNL     1     -30.411 -39.195 -73.239  1.00  0.00    -0.268 OA
HETATM    5  C   UNL     1     -27.943 -30.587 -72.690  1.00  0.00     0.012 A 
HETATM    6  C   UNL     1     -31.768 -33.590 -78.515  1.00  0.00     0.029 C 
HETATM    7  C   UNL     1     -29.883 -35.523 -75.377  1.00  0.00     0.018 C 
HETATM    8  C   UNL     1     -27.941 -33.468 -74.845  1.00  0.00     0.024 C 
HETATM    9  C   UNL     1     -30.494 -34.686 -76.360  1.00  0.00     0.055 C 
HETATM   10  C   UNL     1     -33.863 -35.042 -74.797  1.00  0.00     0.004 C 
HETATM   11  C   UNL     1     -35.068 -34.276 -76.751  1.00  0.00     0.066 C 
HETATM   12  C   UNL     1     -27.182 -29.646 -73.370  1.00  0.00     0.001 A 
HETATM   13  C   UNL     1     -26.670 -29.935 -74.628  1.00  0.00     0.001 A 
HETATM   14  C   UNL     1     -33.957 -33.987 -77.507  1.00  0.00     0.049 C 
HETATM   15  C   UNL     1     -32.561 -34.038 -77.439  1.00  0.00    -0.020 C 
HETATM   16  C   UNL     1     -29.539 -36.859 -75.656  1.00  0.00     0.106 C 
HETATM   17  C   UNL     1     -30.208 -35.674 -72.916  1.00  0.00     0.018 C 
HETATM   18  C   UNL     1     -28.195 -31.824 -73.281  1.00  0.00    -0.025 A 
HETATM   19  C   UNL     1     -28.888 -33.893 -73.903  1.00  0.00    -0.023 C 
HETATM   20  N   UNL     1     -29.757 -34.088 -77.334  1.00  0.00    -0.364 N 
ATOM     21  HN  UNL     1     -28.738 -34.133 -77.325  1.00  0.00     0.165 HD
HETATM   22  C   UNL     1     -30.412 -33.439 -78.306  1.00  0.00     0.089 C 
HETATM   23  C   UNL     1     -26.816 -31.207 -75.156  1.00  0.00     0.012 A 
HETATM   24  N   UNL     1     -29.479 -37.836 -74.726  1.00  0.00    -0.333 N 
ATOM     25  HN  UNL     1     -28.847 -38.592 -74.990  1.00  0.00     0.168 HD
HETATM   26  C   UNL     1     -35.035 -34.919 -75.500  1.00  0.00     0.036 C 
HETATM   27  C   UNL     1     -29.682 -35.044 -74.063  1.00  0.00    -0.012 C 
HETATM   28  C   UNL     1     -30.103 -36.974 -72.578  1.00  0.00     0.075 C 
HETATM   29  C   UNL     1     -28.953 -32.951 -72.863  1.00  0.00     0.024 C 
HETATM   30  C   UNL     1     -31.890 -34.496 -76.298  1.00  0.00     0.002 C 
ENDROOT
BRANCH  11  31
HETATM   31  O   UNL     1     -36.322 -33.864 -77.128  1.00  0.00    -0.361 OA
ATOM     32  HO  UNL     1     -37.105 -34.260 -76.765  1.00  0.00     0.217 HD
ENDBRANCH  11  31
TORSDOF 1
ENDMDL
MODEL 9
REMARK VINA RESULT:      -7.3      4.448      8.764
REMARK  1 active torsions:
REMARK  status: ('A' for Active; 'I' for Inactive)
REMARK    1  A    between atoms: C_11  and  O_22 
ROOT
HETATM    1  C   UNL     1     -35.820 -24.118 -73.378  1.00  0.00    -0.025 A 
HETATM    2  C   UNL     1     -30.653 -26.090 -74.576  1.00  0.00     0.014 C 
HETATM    3  C   UNL     1     -32.217 -25.229 -78.636  1.00  0.00     0.245 C 
HETATM    4  O   UNL     1     -31.633 -25.355 -79.716  1.00  0.00    -0.268 OA
HETATM    5  C   UNL     1     -35.442 -21.965 -72.335  1.00  0.00     0.012 A 
HETATM    6  C   UNL     1     -32.254 -28.838 -72.747  1.00  0.00     0.029 C 
HETATM    7  C   UNL     1     -33.174 -26.218 -75.816  1.00  0.00     0.018 C 
HETATM    8  C   UNL     1     -35.321 -24.866 -74.459  1.00  0.00     0.024 C 
HETATM    9  C   UNL     1     -32.907 -26.972 -74.632  1.00  0.00     0.055 C 
HETATM   10  C   UNL     1     -29.304 -26.006 -74.643  1.00  0.00     0.004 C 
HETATM   11  C   UNL     1     -28.623 -27.772 -73.135  1.00  0.00     0.066 C 
HETATM   12  C   UNL     1     -36.465 -22.236 -71.437  1.00  0.00     0.001 A 
HETATM   13  C   UNL     1     -37.136 -23.452 -71.484  1.00  0.00     0.001 A 
HETATM   14  C   UNL     1     -29.884 -28.267 -72.906  1.00  0.00     0.049 C 
HETATM   15  C   UNL     1     -31.213 -28.049 -73.280  1.00  0.00    -0.020 C 
HETATM   16  C   UNL     1     -33.322 -26.840 -77.070  1.00  0.00     0.106 C 
HETATM   17  C   UNL     1     -32.393 -23.973 -76.545  1.00  0.00     0.018 C 
HETATM   18  C   UNL     1     -35.085 -22.925 -73.281  1.00  0.00    -0.025 A 
HETATM   19  C   UNL     1     -34.162 -24.215 -74.901  1.00  0.00    -0.023 C 
HETATM   20  N   UNL     1     -33.900 -27.626 -73.974  1.00  0.00    -0.364 N 
ATOM     21  HN  UNL     1     -34.877 -27.508 -74.243  1.00  0.00     0.165 HD
HETATM   22  C   UNL     1     -33.555 -28.431 -72.960  1.00  0.00     0.089 C 
HETATM   23  C   UNL     1     -36.864 -24.348 -72.503  1.00  0.00     0.012 A 
HETATM   24  N   UNL     1     -33.042 -26.244 -78.248  1.00  0.00    -0.333 N 
ATOM     25  HN  UNL     1     -33.567 -26.644 -79.026  1.00  0.00     0.168 HD
HETATM   26  C   UNL     1     -28.316 -26.776 -74.081  1.00  0.00     0.036 C 
HETATM   27  C   UNL     1     -33.218 -24.807 -75.763  1.00  0.00    -0.012 C 
HETATM   28  C   UNL     1     -32.204 -24.028 -77.878  1.00  0.00     0.075 C 
HETATM   29  C   UNL     1     -34.078 -22.957 -74.282  1.00  0.00     0.024 C 
HETATM   30  C   UNL     1     -31.578 -27.026 -74.164  1.00  0.00     0.002 C 
ENDROOT
BRANCH  11  31
HETATM   31  O   UNL     1     -27.549 -28.157 -72.372  1.00  0.00    -0.361 OA
ATOM     32  HO  UNL     1     -26.672 -28.203 -72.734  1.00  0.00     0.217 HD
ENDBRANCH  11  31
TORSDOF 1
ENDMDL
