REMARK  4 active torsions:
REMARK  status: ('A' for Active; 'I' for Inactive)
REMARK    1  A    between atoms: O_4  and  C_7 
REMARK    2  A    between atoms: C_6  and  C_8 
REMARK    3  A    between atoms: C_8  and  C_13 
REMARK       I    between atoms: C_13  and  N_24 
REMARK    4  A    between atoms: C_16  and  O_21 
ROOT
HETATM    1  C   UNL     1      10.503  13.164  19.694  1.00  0.00     0.006 C 
HETATM    2  C   UNL     1      11.046  14.033  17.317  1.00  0.00     0.059 C 
HETATM    3  C   UNL     1      10.832  12.597  16.801  1.00  0.00     0.075 C 
HETATM    4  C   UNL     1       9.675  12.668  22.017  1.00  0.00     0.037 C 
HETATM    5  O   UNL     1       9.849  14.895  21.265  1.00  0.00    -0.350 OA
HETATM    6  C   UNL     1      10.913  15.757  20.832  1.00  0.00     0.180 C 
HETATM    7  C   UNL     1       9.994  10.353  21.215  1.00  0.00     0.001 C 
HETATM    8  C   UNL     1      10.635  11.792  19.237  1.00  0.00    -0.043 C 
HETATM    9  C   UNL     1      10.990  15.678  19.326  1.00  0.00     0.062 C 
HETATM   10  C   UNL     1      10.280  10.631  19.892  1.00  0.00     0.008 C 
HETATM   11  C   UNL     1       9.709  11.317  22.184  1.00  0.00     0.003 C 
HETATM   12  C   UNL     1      10.777  14.301  18.762  1.00  0.00    -0.063 C 
HETATM   13  C   UNL     1      10.055  13.547  21.001  1.00  0.00     0.079 C 
HETATM   14  C   UNL     1      11.173  11.542  17.848  1.00  0.00     0.064 C 
ENDROOT
BRANCH   3  15
HETATM   15  C   UNL     1       9.395  12.459  16.269  1.00  0.00    -0.040 C 
HETATM   16  C   UNL     1       8.437  11.768  16.995  1.00  0.00     0.011 C 
HETATM   17  C   UNL     1       7.236  11.227  16.613  1.00  0.00     0.040 C 
HETATM   18  C   UNL     1       6.593  11.203  15.382  1.00  0.00     0.098 C 
HETATM   19  C   UNL     1       7.186  11.715  14.180  1.00  0.00     0.098 C 
HETATM   20  C   UNL     1       8.071  12.778  14.176  1.00  0.00     0.040 C 
HETATM   21  C   UNL     1       9.060  13.084  15.076  1.00  0.00     0.011 C 
BRANCH  18  22
HETATM   22  O   UNL     1       5.332  10.725  15.266  1.00  0.00    -0.358 OA
ATOM     23  HO  UNL     1       4.939  10.386  16.062  1.00  0.00     0.217 HD
ENDBRANCH  18  22
BRANCH  19  24
HETATM   24  O   UNL     1       6.894  11.093  13.022  1.00  0.00    -0.358 OA
ATOM     25  HO  UNL     1       7.287  11.432  12.226  1.00  0.00     0.217 HD
ENDBRANCH  19  24
ENDBRANCH   3  15
BRANCH   3  26
HETATM   26  C   UNL     1      11.803  12.354  15.669  1.00  0.00     0.229 C 
HETATM   27  O   UNL     1      11.982  13.220  14.810  1.00  0.00    -0.273 OA
HETATM   28  N   UNL     1      12.464  11.195  15.612  1.00  0.00    -0.369 N 
ATOM     29  HN2 UNL     1      12.316  10.479  16.323  1.00  0.00     0.159 HD
ATOM     30  HN1 UNL     1      13.119  11.031  14.848  1.00  0.00     0.159 HD
ENDBRANCH   3  26
TORSDOF 4
