MODEL 1
REMARK VINA RESULT:      -8.6      0.000      0.000
REMARK  2 active torsions:
REMARK  status: ('A' for Active; 'I' for Inactive)
REMARK    1  A    between atoms: C_1  and  C_4 
REMARK    2  A    between atoms: C_6  and  C_9 
ROOT
HETATM    1  C   UNL     1     -11.202 -27.526   2.938  1.00  0.00     0.043 C 
HETATM    2  N   UNL     1      -9.115 -26.414   2.445  1.00  0.00    -0.395 N 
ATOM      3  HN  UNL     1      -8.472 -25.988   1.777  1.00  0.00     0.159 HD
HETATM    4  C   UNL     1      -9.564 -27.573   4.546  1.00  0.00     0.139 C 
HETATM    5  N   UNL     1     -10.963 -27.149   4.261  1.00  0.00    -0.387 N 
ATOM      6  HN  UNL     1     -11.610 -26.683   4.897  1.00  0.00     0.159 HD
HETATM    7  C   UNL     1      -8.760 -26.493   3.851  1.00  0.00     0.138 C 
HETATM    8  C   UNL     1     -10.308 -26.910   2.025  1.00  0.00     0.112 C 
ENDROOT
BRANCH   1   9
HETATM    9  C   UNL     1     -12.613 -27.719   2.611  1.00  0.00     0.031 C 
HETATM   10  C   UNL     1     -13.417 -27.753   1.562  1.00  0.00     0.013 C 
BRANCH  10  11
HETATM   11  C   UNL     1     -14.631 -28.633   1.461  1.00  0.00    -0.036 C 
HETATM   12  C   UNL     1     -15.191 -28.836   0.214  1.00  0.00     0.011 C 
HETATM   13  C   UNL     1     -16.286 -29.680   0.070  1.00  0.00     0.001 C 
HETATM   14  C   UNL     1     -16.806 -30.323   1.183  1.00  0.00     0.000 C 
HETATM   15  C   UNL     1     -16.339 -29.999   2.447  1.00  0.00     0.001 C 
HETATM   16  C   UNL     1     -15.230 -29.175   2.591  1.00  0.00     0.011 C 
ENDBRANCH  10  11
ENDBRANCH   1   9
TORSDOF 2
ENDMDL
MODEL 2
REMARK VINA RESULT:      -8.1      5.522      8.896
REMARK  2 active torsions:
REMARK  status: ('A' for Active; 'I' for Inactive)
REMARK    1  A    between atoms: C_1  and  C_4 
REMARK    2  A    between atoms: C_6  and  C_9 
ROOT
HETATM    1  C   UNL     1     -18.243 -32.475  -1.898  1.00  0.00     0.043 C 
HETATM    2  N   UNL     1     -20.221 -33.849  -1.713  1.00  0.00    -0.395 N 
ATOM      3  HN  UNL     1     -20.825 -34.468  -1.171  1.00  0.00     0.159 HD
HETATM    4  C   UNL     1     -19.320 -33.057  -3.839  1.00  0.00     0.139 C 
HETATM    5  N   UNL     1     -18.875 -31.906  -3.006  1.00  0.00    -0.387 N 
ATOM      6  HN  UNL     1     -19.004 -30.914  -3.201  1.00  0.00     0.159 HD
HETATM    7  C   UNL     1     -20.550 -33.532  -3.092  1.00  0.00     0.138 C 
HETATM    8  C   UNL     1     -19.105 -33.318  -1.150  1.00  0.00     0.112 C 
ENDROOT
BRANCH   1   9
HETATM    9  C   UNL     1     -17.274 -31.600  -1.242  1.00  0.00     0.031 C 
HETATM   10  C   UNL     1     -17.104 -30.327  -0.926  1.00  0.00     0.013 C 
BRANCH  10  11
HETATM   11  C   UNL     1     -16.391 -29.855   0.310  1.00  0.00    -0.036 C 
HETATM   12  C   UNL     1     -16.818 -30.332   1.535  1.00  0.00     0.011 C 
HETATM   13  C   UNL     1     -16.156 -29.957   2.698  1.00  0.00     0.001 C 
HETATM   14  C   UNL     1     -15.061 -29.109   2.620  1.00  0.00     0.000 C 
HETATM   15  C   UNL     1     -14.733 -28.516   1.411  1.00  0.00     0.001 C 
HETATM   16  C   UNL     1     -15.378 -28.907   0.245  1.00  0.00     0.011 C 
ENDBRANCH  10  11
ENDBRANCH   1   9
TORSDOF 2
ENDMDL
MODEL 3
REMARK VINA RESULT:      -8.1      0.976      1.839
REMARK  2 active torsions:
REMARK  status: ('A' for Active; 'I' for Inactive)
REMARK    1  A    between atoms: C_1  and  C_4 
REMARK    2  A    between atoms: C_6  and  C_9 
ROOT
HETATM    1  C   UNL     1     -11.214 -27.558   3.025  1.00  0.00     0.043 C 
HETATM    2  N   UNL     1      -9.186 -28.589   3.838  1.00  0.00    -0.395 N 
ATOM      3  HN  UNL     1      -8.714 -29.304   4.393  1.00  0.00     0.159 HD
HETATM    4  C   UNL     1      -9.257 -26.378   2.805  1.00  0.00     0.139 C 
HETATM    5  N   UNL     1     -10.397 -26.974   2.055  1.00  0.00    -0.387 N 
ATOM      6  HN  UNL     1     -10.550 -26.959   1.047  1.00  0.00     0.159 HD
HETATM    7  C   UNL     1      -8.412 -27.597   3.114  1.00  0.00     0.138 C 
HETATM    8  C   UNL     1     -10.543 -28.560   3.773  1.00  0.00     0.112 C 
ENDROOT
BRANCH   1   9
HETATM    9  C   UNL     1     -12.610 -27.714   2.624  1.00  0.00     0.031 C 
HETATM   10  C   UNL     1     -13.356 -27.753   1.533  1.00  0.00     0.013 C 
BRANCH  10  11
HETATM   11  C   UNL     1     -14.592 -28.595   1.388  1.00  0.00    -0.036 C 
HETATM   12  C   UNL     1     -15.137 -29.160   2.527  1.00  0.00     0.011 C 
HETATM   13  C   UNL     1     -16.306 -29.907   2.443  1.00  0.00     0.001 C 
HETATM   14  C   UNL     1     -16.926 -30.075   1.215  1.00  0.00     0.000 C 
HETATM   15  C   UNL     1     -16.296 -29.637   0.060  1.00  0.00     0.001 C 
HETATM   16  C   UNL     1     -15.141 -28.870   0.143  1.00  0.00     0.011 C 
ENDBRANCH  10  11
ENDBRANCH   1   9
TORSDOF 2
ENDMDL
MODEL 4
REMARK VINA RESULT:      -7.6      2.356      6.335
REMARK  2 active torsions:
REMARK  status: ('A' for Active; 'I' for Inactive)
REMARK    1  A    between atoms: C_1  and  C_4 
REMARK    2  A    between atoms: C_6  and  C_9 
ROOT
HETATM    1  C   UNL     1     -14.265 -28.271   1.650  1.00  0.00     0.043 C 
HETATM    2  N   UNL     1     -16.173 -29.304   0.588  1.00  0.00    -0.395 N 
ATOM      3  HN  UNL     1     -16.670 -29.597  -0.253  1.00  0.00     0.159 HD
HETATM    4  C   UNL     1     -16.148 -28.590   2.923  1.00  0.00     0.139 C 
HETATM    5  N   UNL     1     -14.699 -28.916   2.809  1.00  0.00    -0.387 N 
ATOM      6  HN  UNL     1     -14.142 -29.488   3.444  1.00  0.00     0.159 HD
HETATM    7  C   UNL     1     -16.762 -29.521   1.897  1.00  0.00     0.138 C 
HETATM    8  C   UNL     1     -14.956 -28.706   0.490  1.00  0.00     0.112 C 
ENDROOT
BRANCH   1   9
HETATM    9  C   UNL     1     -12.832 -27.985   1.619  1.00  0.00     0.031 C 
HETATM   10  C   UNL     1     -11.982 -27.019   1.924  1.00  0.00     0.013 C 
BRANCH  10  11
HETATM   11  C   UNL     1     -10.587 -27.255   2.431  1.00  0.00    -0.036 C 
HETATM   12  C   UNL     1      -9.635 -26.277   2.210  1.00  0.00     0.011 C 
HETATM   13  C   UNL     1      -8.346 -26.436   2.703  1.00  0.00     0.001 C 
HETATM   14  C   UNL     1      -8.023 -27.575   3.424  1.00  0.00     0.000 C 
HETATM   15  C   UNL     1      -8.933 -28.616   3.512  1.00  0.00     0.001 C 
HETATM   16  C   UNL     1     -10.229 -28.450   3.041  1.00  0.00     0.011 C 
ENDBRANCH  10  11
ENDBRANCH   1   9
TORSDOF 2
ENDMDL
MODEL 5
REMARK VINA RESULT:      -7.6      4.406      6.617
REMARK  2 active torsions:
REMARK  status: ('A' for Active; 'I' for Inactive)
REMARK    1  A    between atoms: C_1  and  C_4 
REMARK    2  A    between atoms: C_6  and  C_9 
ROOT
HETATM    1  C   UNL     1     -16.474 -30.161   0.415  1.00  0.00     0.043 C 
HETATM    2  N   UNL     1     -15.006 -28.374   1.114  1.00  0.00    -0.395 N 
ATOM      3  HN  UNL     1     -14.296 -27.673   0.900  1.00  0.00     0.159 HD
HETATM    4  C   UNL     1     -16.113 -29.899   2.666  1.00  0.00     0.139 C 
HETATM    5  N   UNL     1     -17.159 -29.917   1.607  1.00  0.00    -0.387 N 
ATOM      6  HN  UNL     1     -18.163 -29.780   1.726  1.00  0.00     0.159 HD
HETATM    7  C   UNL     1     -15.491 -28.531   2.474  1.00  0.00     0.138 C 
HETATM    8  C   UNL     1     -15.504 -29.166   0.128  1.00  0.00     0.112 C 
ENDROOT
BRANCH   1   9
HETATM    9  C   UNL     1     -17.293 -30.753  -0.641  1.00  0.00     0.031 C 
HETATM   10  C   UNL     1     -17.246 -31.721  -1.541  1.00  0.00     0.013 C 
BRANCH  10  11
HETATM   11  C   UNL     1     -18.442 -32.518  -1.981  1.00  0.00    -0.036 C 
HETATM   12  C   UNL     1     -18.854 -32.408  -3.296  1.00  0.00     0.011 C 
HETATM   13  C   UNL     1     -19.926 -33.163  -3.755  1.00  0.00     0.001 C 
HETATM   14  C   UNL     1     -20.573 -34.032  -2.890  1.00  0.00     0.000 C 
HETATM   15  C   UNL     1     -20.255 -34.026  -1.541  1.00  0.00     0.001 C 
HETATM   16  C   UNL     1     -19.169 -33.290  -1.085  1.00  0.00     0.011 C 
ENDBRANCH  10  11
ENDBRANCH   1   9
TORSDOF 2
ENDMDL
MODEL 6
REMARK VINA RESULT:      -7.2      4.349      7.617
REMARK  2 active torsions:
REMARK  status: ('A' for Active; 'I' for Inactive)
REMARK    1  A    between atoms: C_1  and  C_4 
REMARK    2  A    between atoms: C_6  and  C_9 
ROOT
HETATM    1  C   UNL     1      -9.216 -28.359   4.320  1.00  0.00     0.043 C 
HETATM    2  N   UNL     1     -10.407 -28.052   2.240  1.00  0.00    -0.395 N 
ATOM      3  HN  UNL     1     -10.921 -28.435   1.447  1.00  0.00     0.159 HD
HETATM    4  C   UNL     1      -8.990 -26.340   3.252  1.00  0.00     0.139 C 
HETATM    5  N   UNL     1      -9.429 -26.994   4.516  1.00  0.00    -0.387 N 
ATOM      6  HN  UNL     1      -9.804 -26.540   5.349  1.00  0.00     0.159 HD
HETATM    7  C   UNL     1     -10.158 -26.624   2.328  1.00  0.00     0.138 C 
HETATM    8  C   UNL     1      -9.953 -28.875   3.222  1.00  0.00     0.112 C 
ENDROOT
BRANCH   1   9
HETATM    9  C   UNL     1      -9.049 -29.127   5.552  1.00  0.00     0.031 C 
HETATM   10  C   UNL     1      -9.322 -30.321   6.050  1.00  0.00     0.013 C 
BRANCH  10  11
HETATM   11  C   UNL     1      -8.447 -31.041   7.037  1.00  0.00    -0.036 C 
HETATM   12  C   UNL     1      -9.020 -31.497   8.210  1.00  0.00     0.011 C 
HETATM   13  C   UNL     1      -8.256 -32.208   9.127  1.00  0.00     0.001 C 
HETATM   14  C   UNL     1      -6.920 -32.464   8.856  1.00  0.00     0.000 C 
HETATM   15  C   UNL     1      -6.316 -31.876   7.756  1.00  0.00     0.001 C 
HETATM   16  C   UNL     1      -7.082 -31.185   6.826  1.00  0.00     0.011 C 
ENDBRANCH  10  11
ENDBRANCH   1   9
TORSDOF 2
ENDMDL
MODEL 7
REMARK VINA RESULT:      -7.1      4.046      7.581
REMARK  2 active torsions:
REMARK  status: ('A' for Active; 'I' for Inactive)
REMARK    1  A    between atoms: C_1  and  C_4 
REMARK    2  A    between atoms: C_6  and  C_9 
ROOT
HETATM    1  C   UNL     1      -9.549 -28.121   4.773  1.00  0.00     0.043 C 
HETATM    2  N   UNL     1      -8.702 -26.264   3.481  1.00  0.00    -0.395 N 
ATOM      3  HN  UNL     1      -8.156 -25.405   3.414  1.00  0.00     0.159 HD
HETATM    4  C   UNL     1     -10.524 -27.708   2.736  1.00  0.00     0.139 C 
HETATM    5  N   UNL     1      -9.791 -28.727   3.538  1.00  0.00    -0.387 N 
ATOM      6  HN  UNL     1      -9.524 -29.667   3.248  1.00  0.00     0.159 HD
HETATM    7  C   UNL     1      -9.408 -26.773   2.318  1.00  0.00     0.138 C 
HETATM    8  C   UNL     1      -8.774 -26.938   4.658  1.00  0.00     0.112 C 
ENDROOT
BRANCH   1   9
HETATM    9  C   UNL     1      -9.349 -29.059   5.875  1.00  0.00     0.031 C 
HETATM   10  C   UNL     1      -9.403 -30.356   6.130  1.00  0.00     0.013 C 
BRANCH  10  11
HETATM   11  C   UNL     1      -8.502 -31.060   7.105  1.00  0.00    -0.036 C 
HETATM   12  C   UNL     1      -7.164 -31.192   6.782  1.00  0.00     0.011 C 
HETATM   13  C   UNL     1      -6.289 -31.796   7.677  1.00  0.00     0.001 C 
HETATM   14  C   UNL     1      -6.763 -32.255   8.896  1.00  0.00     0.000 C 
HETATM   15  C   UNL     1      -8.125 -32.257   9.149  1.00  0.00     0.001 C 
HETATM   16  C   UNL     1      -8.999 -31.633   8.267  1.00  0.00     0.011 C 
ENDBRANCH  10  11
ENDBRANCH   1   9
TORSDOF 2
ENDMDL
MODEL 8
REMARK VINA RESULT:      -6.8      4.814      7.010
REMARK  2 active torsions:
REMARK  status: ('A' for Active; 'I' for Inactive)
REMARK    1  A    between atoms: C_1  and  C_4 
REMARK    2  A    between atoms: C_6  and  C_9 
ROOT
HETATM    1  C   UNL     1      -8.377 -31.317   7.095  1.00  0.00     0.043 C 
HETATM    2  N   UNL     1      -6.308 -31.922   8.185  1.00  0.00    -0.395 N 
ATOM      3  HN  UNL     1      -5.290 -31.987   8.184  1.00  0.00     0.159 HD
HETATM    4  C   UNL     1      -8.503 -32.686   8.934  1.00  0.00     0.139 C 
HETATM    5  N   UNL     1      -8.939 -31.378   8.372  1.00  0.00    -0.387 N 
ATOM      6  HN  UNL     1      -9.525 -30.675   8.823  1.00  0.00     0.159 HD
HETATM    7  C   UNL     1      -7.068 -32.397   9.328  1.00  0.00     0.138 C 
HETATM    8  C   UNL     1      -6.961 -31.392   7.118  1.00  0.00     0.112 C 
ENDROOT
BRANCH   1   9
HETATM    9  C   UNL     1      -9.079 -30.432   6.169  1.00  0.00     0.031 C 
HETATM   10  C   UNL     1      -9.515 -29.186   6.086  1.00  0.00     0.013 C 
BRANCH  10  11
HETATM   11  C   UNL     1      -9.558 -28.393   4.810  1.00  0.00    -0.036 C 
HETATM   12  C   UNL     1     -10.206 -28.943   3.719  1.00  0.00     0.011 C 
HETATM   13  C   UNL     1     -10.309 -28.223   2.535  1.00  0.00     0.001 C 
HETATM   14  C   UNL     1      -9.767 -26.949   2.458  1.00  0.00     0.000 C 
HETATM   15  C   UNL     1      -8.991 -26.466   3.500  1.00  0.00     0.001 C 
HETATM   16  C   UNL     1      -8.906 -27.173   4.692  1.00  0.00     0.011 C 
ENDBRANCH  10  11
ENDBRANCH   1   9
TORSDOF 2
ENDMDL
MODEL 9
REMARK VINA RESULT:      -6.8      3.915      6.250
REMARK  2 active torsions:
REMARK  status: ('A' for Active; 'I' for Inactive)
REMARK    1  A    between atoms: C_1  and  C_4 
REMARK    2  A    between atoms: C_6  and  C_9 
ROOT
HETATM    1  C   UNL     1      -5.183 -27.504   3.976  1.00  0.00     0.043 C 
HETATM    2  N   UNL     1      -2.993 -27.032   3.071  1.00  0.00    -0.395 N 
ATOM      3  HN  UNL     1      -2.193 -27.299   2.498  1.00  0.00     0.159 HD
HETATM    4  C   UNL     1      -3.977 -25.805   4.940  1.00  0.00     0.139 C 
HETATM    5  N   UNL     1      -5.249 -26.135   4.239  1.00  0.00    -0.387 N 
ATOM      6  HN  UNL     1      -6.008 -25.496   4.002  1.00  0.00     0.159 HD
HETATM    7  C   UNL     1      -2.985 -25.772   3.794  1.00  0.00     0.138 C 
HETATM    8  C   UNL     1      -4.072 -27.852   3.164  1.00  0.00     0.112 C 
ENDROOT
BRANCH   1   9
HETATM    9  C   UNL     1      -6.483 -28.150   3.806  1.00  0.00     0.031 C 
HETATM   10  C   UNL     1      -7.488 -28.615   4.527  1.00  0.00     0.013 C 
BRANCH  10  11
HETATM   11  C   UNL     1      -8.926 -28.572   4.092  1.00  0.00    -0.036 C 
HETATM   12  C   UNL     1      -9.867 -29.216   4.874  1.00  0.00     0.011 C 
HETATM   13  C   UNL     1     -11.213 -29.161   4.532  1.00  0.00     0.001 C 
HETATM   14  C   UNL     1     -11.606 -28.451   3.408  1.00  0.00     0.000 C 
HETATM   15  C   UNL     1     -10.648 -27.937   2.547  1.00  0.00     0.001 C 
HETATM   16  C   UNL     1      -9.305 -27.971   2.899  1.00  0.00     0.011 C 
ENDBRANCH  10  11
ENDBRANCH   1   9
TORSDOF 2
ENDMDL
