MODEL 1
REMARK VINA RESULT:      -8.7      0.000      0.000
REMARK  0 active torsions:
REMARK  status: ('A' for Active; 'I' for Inactive)
ROOT
HETATM    1  C   UNL     1      23.865  65.382  19.513  1.00  0.00     0.062 C 
HETATM    2  C   UNL     1      20.777  61.635  22.550  1.00  0.00    -0.068 C 
HETATM    3  C   UNL     1      20.742  63.654  20.926  1.00  0.00     0.008 C 
HETATM    4  C   UNL     1      19.154  59.734  22.600  1.00  0.00     0.019 C 
HETATM    5  C   UNL     1      22.183  61.107  22.866  1.00  0.00     0.019 C 
HETATM    6  C   UNL     1      22.034  64.047  20.380  1.00  0.00    -0.045 C 
HETATM    7  C   UNL     1      23.796  62.227  21.284  1.00  0.00    -0.029 C 
HETATM    8  C   UNL     1      18.408  61.880  23.537  1.00  0.00     0.019 C 
HETATM    9  C   UNL     1      22.061  59.703  23.490  1.00  0.00     0.009 C 
HETATM   10  C   UNL     1      20.634  63.029  22.179  1.00  0.00     0.004 C 
HETATM   11  C   UNL     1      23.014  60.969  21.574  1.00  0.00     0.050 C 
HETATM   12  C   UNL     1      25.155  62.504  21.455  1.00  0.00     0.096 C 
HETATM   13  N   UNL     1      25.471  63.685  20.856  1.00  0.00    -0.368 N 
ATOM     14  HN  UNL     1      26.406  64.089  20.792  1.00  0.00     0.165 HD
HETATM   15  C   UNL     1      24.333  64.236  20.356  1.00  0.00     0.020 C 
HETATM   16  C   UNL     1      20.052  60.484  24.750  1.00  0.00     0.013 C 
HETATM   17  C   UNL     1      21.484  59.979  24.880  1.00  0.00     0.002 C 
HETATM   18  C   UNL     1      23.279  63.400  20.689  1.00  0.00     0.000 C 
HETATM   19  C   UNL     1      22.339  65.214  19.461  1.00  0.00     0.045 C 
HETATM   20  C   UNL     1      19.637  60.986  23.371  1.00  0.00    -0.024 C 
ENDROOT
TORSDOF 0
ENDMDL
MODEL 2
REMARK VINA RESULT:      -8.5      2.226      6.070
REMARK  0 active torsions:
REMARK  status: ('A' for Active; 'I' for Inactive)
ROOT
HETATM    1  C   UNL     1      20.124  59.366  25.277  1.00  0.00     0.062 C 
HETATM    2  C   UNL     1      22.016  63.027  21.300  1.00  0.00    -0.068 C 
HETATM    3  C   UNL     1      22.559  60.970  22.781  1.00  0.00     0.008 C 
HETATM    4  C   UNL     1      22.813  63.435  18.966  1.00  0.00     0.019 C 
HETATM    5  C   UNL     1      20.574  63.537  21.438  1.00  0.00     0.019 C 
HETATM    6  C   UNL     1      21.438  60.420  23.532  1.00  0.00    -0.045 C 
HETATM    7  C   UNL     1      19.279  61.828  22.763  1.00  0.00    -0.029 C 
HETATM    8  C   UNL     1      24.423  63.792  20.788  1.00  0.00     0.019 C 
HETATM    9  C   UNL     1      20.259  64.469  20.251  1.00  0.00     0.009 C 
HETATM   10  C   UNL     1      22.607  62.327  22.424  1.00  0.00     0.004 C 
HETATM   11  C   UNL     1      19.576  62.363  21.384  1.00  0.00     0.050 C 
HETATM   12  C   UNL     1      18.157  62.004  23.578  1.00  0.00     0.096 C 
HETATM   13  N   UNL     1      18.216  61.160  24.645  1.00  0.00    -0.368 N 
ATOM     14  HN  UNL     1      17.497  61.056  25.362  1.00  0.00     0.165 HD
HETATM   15  C   UNL     1      19.393  60.481  24.596  1.00  0.00     0.020 C 
HETATM   16  C   UNL     1      22.572  65.392  20.416  1.00  0.00     0.013 C 
HETATM   17  C   UNL     1      21.090  65.719  20.548  1.00  0.00     0.002 C 
HETATM   18  C   UNL     1      20.101  60.944  23.499  1.00  0.00     0.000 C 
HETATM   19  C   UNL     1      21.456  59.269  24.519  1.00  0.00     0.045 C 
HETATM   20  C   UNL     1      22.941  63.912  20.433  1.00  0.00    -0.024 C 
ENDROOT
TORSDOF 0
ENDMDL
MODEL 3
REMARK VINA RESULT:      -8.4      1.468      3.314
REMARK  0 active torsions:
REMARK  status: ('A' for Active; 'I' for Inactive)
ROOT
HETATM    1  C   UNL     1      26.280  61.621  19.725  1.00  0.00     0.062 C 
HETATM    2  C   UNL     1      21.565  60.976  22.911  1.00  0.00    -0.068 C 
HETATM    3  C   UNL     1      24.090  60.452  22.653  1.00  0.00     0.008 C 
HETATM    4  C   UNL     1      20.344  61.412  25.049  1.00  0.00     0.019 C 
HETATM    5  C   UNL     1      20.996  61.883  21.810  1.00  0.00     0.019 C 
HETATM    6  C   UNL     1      24.766  61.133  21.557  1.00  0.00    -0.045 C 
HETATM    7  C   UNL     1      22.937  62.783  20.478  1.00  0.00    -0.029 C 
HETATM    8  C   UNL     1      20.933  59.081  24.539  1.00  0.00     0.019 C 
HETATM    9  C   UNL     1      19.636  62.440  22.277  1.00  0.00     0.009 C 
HETATM   10  C   UNL     1      22.718  60.156  22.597  1.00  0.00     0.004 C 
HETATM   11  C   UNL     1      21.929  63.084  21.560  1.00  0.00     0.050 C 
HETATM   12  C   UNL     1      22.980  63.197  19.144  1.00  0.00     0.096 C 
HETATM   13  N   UNL     1      24.182  62.875  18.592  1.00  0.00    -0.368 N 
ATOM     14  HN  UNL     1      24.485  63.111  17.646  1.00  0.00     0.165 HD
HETATM   15  C   UNL     1      24.911  62.188  19.511  1.00  0.00     0.020 C 
HETATM   16  C   UNL     1      19.122  60.220  23.295  1.00  0.00     0.013 C 
HETATM   17  C   UNL     1      18.713  61.221  22.222  1.00  0.00     0.002 C 
HETATM   18  C   UNL     1      24.128  62.041  20.645  1.00  0.00     0.000 C 
HETATM   19  C   UNL     1      26.212  60.986  21.122  1.00  0.00     0.045 C 
HETATM   20  C   UNL     1      20.515  60.400  23.890  1.00  0.00    -0.024 C 
ENDROOT
TORSDOF 0
ENDMDL
MODEL 4
REMARK VINA RESULT:      -8.3      1.722      5.532
REMARK  0 active torsions:
REMARK  status: ('A' for Active; 'I' for Inactive)
ROOT
HETATM    1  C   UNL     1      22.334  59.915  23.731  1.00  0.00     0.062 C 
HETATM    2  C   UNL     1      22.959  64.344  20.153  1.00  0.00    -0.068 C 
HETATM    3  C   UNL     1      21.443  63.167  21.895  1.00  0.00     0.008 C 
HETATM    4  C   UNL     1      23.202  66.809  19.812  1.00  0.00     0.019 C 
HETATM    5  C   UNL     1      24.323  63.669  19.949  1.00  0.00     0.019 C 
HETATM    6  C   UNL     1      22.044  62.040  22.595  1.00  0.00    -0.045 C 
HETATM    7  C   UNL     1      24.598  61.934  21.758  1.00  0.00    -0.029 C 
HETATM    8  C   UNL     1      21.162  65.745  18.948  1.00  0.00     0.019 C 
HETATM    9  C   UNL     1      25.263  64.652  19.224  1.00  0.00     0.009 C 
HETATM   10  C   UNL     1      21.848  63.527  20.599  1.00  0.00     0.004 C 
HETATM   11  C   UNL     1      24.967  63.326  21.307  1.00  0.00     0.050 C 
HETATM   12  C   UNL     1      25.346  60.754  21.746  1.00  0.00     0.096 C 
HETATM   13  N   UNL     1      24.701  59.783  22.451  1.00  0.00    -0.368 N 
ATOM     14  HN  UNL     1      25.058  58.846  22.636  1.00  0.00     0.165 HD
HETATM   15  C   UNL     1      23.503  60.274  22.867  1.00  0.00     0.020 C 
HETATM   16  C   UNL     1      23.337  65.393  17.820  1.00  0.00     0.013 C 
HETATM   17  C   UNL     1      24.697  64.706  17.804  1.00  0.00     0.002 C 
HETATM   18  C   UNL     1      23.381  61.563  22.373  1.00  0.00     0.000 C 
HETATM   19  C   UNL     1      21.394  61.126  23.616  1.00  0.00     0.045 C 
HETATM   20  C   UNL     1      22.655  65.506  19.179  1.00  0.00    -0.024 C 
ENDROOT
TORSDOF 0
ENDMDL
MODEL 5
REMARK VINA RESULT:      -8.2      1.912      5.422
REMARK  0 active torsions:
REMARK  status: ('A' for Active; 'I' for Inactive)
ROOT
HETATM    1  C   UNL     1      18.404  61.050  23.263  1.00  0.00     0.062 C 
HETATM    2  C   UNL     1      23.007  63.105  20.543  1.00  0.00    -0.068 C 
HETATM    3  C   UNL     1      20.524  63.483  21.184  1.00  0.00     0.008 C 
HETATM    4  C   UNL     1      24.780  64.857  20.350  1.00  0.00     0.019 C 
HETATM    5  C   UNL     1      23.621  61.828  21.135  1.00  0.00     0.019 C 
HETATM    6  C   UNL     1      19.960  62.519  22.118  1.00  0.00    -0.045 C 
HETATM    7  C   UNL     1      21.994  60.908  22.826  1.00  0.00    -0.029 C 
HETATM    8  C   UNL     1      23.142  64.702  18.524  1.00  0.00     0.019 C 
HETATM    9  C   UNL     1      25.156  61.918  21.030  1.00  0.00     0.009 C 
HETATM   10  C   UNL     1      21.575  63.139  20.319  1.00  0.00     0.004 C 
HETATM   11  C   UNL     1      23.265  61.697  22.629  1.00  0.00     0.050 C 
HETATM   12  C   UNL     1      21.807  59.589  23.248  1.00  0.00     0.096 C 
HETATM   13  N   UNL     1      20.489  59.359  23.499  1.00  0.00    -0.368 N 
ATOM     14  HN  UNL     1      20.095  58.492  23.866  1.00  0.00     0.165 HD
HETATM   15  C   UNL     1      19.786  60.478  23.178  1.00  0.00     0.020 C 
HETATM   16  C   UNL     1      24.899  62.979  18.785  1.00  0.00     0.013 C 
HETATM   17  C   UNL     1      25.421  61.758  19.531  1.00  0.00     0.002 C 
HETATM   18  C   UNL     1      20.681  61.409  22.676  1.00  0.00     0.000 C 
HETATM   19  C   UNL     1      18.534  62.444  22.629  1.00  0.00     0.045 C 
HETATM   20  C   UNL     1      23.912  63.861  19.543  1.00  0.00    -0.024 C 
ENDROOT
TORSDOF 0
ENDMDL
MODEL 6
REMARK VINA RESULT:      -7.7      1.366      3.144
REMARK  0 active torsions:
REMARK  status: ('A' for Active; 'I' for Inactive)
ROOT
HETATM    1  C   UNL     1      24.641  65.115  19.073  1.00  0.00     0.062 C 
HETATM    2  C   UNL     1      21.410  61.746  22.392  1.00  0.00    -0.068 C 
HETATM    3  C   UNL     1      23.804  62.357  21.609  1.00  0.00     0.008 C 
HETATM    4  C   UNL     1      20.735  61.001  24.681  1.00  0.00     0.019 C 
HETATM    5  C   UNL     1      20.310  62.644  21.808  1.00  0.00     0.019 C 
HETATM    6  C   UNL     1      23.910  63.545  20.773  1.00  0.00    -0.045 C 
HETATM    7  C   UNL     1      21.434  64.589  20.665  1.00  0.00    -0.029 C 
HETATM    8  C   UNL     1      21.872  59.359  23.248  1.00  0.00     0.019 C 
HETATM    9  C   UNL     1      19.022  62.455  22.634  1.00  0.00     0.009 C 
HETATM   10  C   UNL     1      22.635  61.580  21.635  1.00  0.00     0.004 C 
HETATM   11  C   UNL     1      20.712  64.129  21.907  1.00  0.00     0.050 C 
HETATM   12  C   UNL     1      20.984  65.368  19.596  1.00  0.00     0.096 C 
HETATM   13  N   UNL     1      22.030  65.726  18.803  1.00  0.00    -0.368 N 
ATOM     14  HN  UNL     1      21.978  66.336  17.986  1.00  0.00     0.165 HD
HETATM   15  C   UNL     1      23.158  65.137  19.282  1.00  0.00     0.020 C 
HETATM   16  C   UNL     1      19.530  60.016  22.793  1.00  0.00     0.013 C 
HETATM   17  C   UNL     1      18.552  61.051  22.248  1.00  0.00     0.002 C 
HETATM   18  C   UNL     1      22.797  64.360  20.371  1.00  0.00     0.000 C 
HETATM   19  C   UNL     1      25.154  64.114  20.120  1.00  0.00     0.045 C 
HETATM   20  C   UNL     1      20.900  60.539  23.213  1.00  0.00    -0.024 C 
ENDROOT
TORSDOF 0
ENDMDL
MODEL 7
REMARK VINA RESULT:      -7.6      2.019      6.140
REMARK  0 active torsions:
REMARK  status: ('A' for Active; 'I' for Inactive)
ROOT
HETATM    1  C   UNL     1      23.670  60.151  23.022  1.00  0.00     0.062 C 
HETATM    2  C   UNL     1      23.633  65.020  20.006  1.00  0.00    -0.068 C 
HETATM    3  C   UNL     1      25.007  62.960  20.773  1.00  0.00     0.008 C 
HETATM    4  C   UNL     1      23.787  66.175  17.795  1.00  0.00     0.019 C 
HETATM    5  C   UNL     1      22.169  65.006  20.468  1.00  0.00     0.019 C 
HETATM    6  C   UNL     1      24.258  61.931  21.481  1.00  0.00    -0.045 C 
HETATM    7  C   UNL     1      21.689  62.724  21.424  1.00  0.00    -0.029 C 
HETATM    8  C   UNL     1      25.584  66.598  19.417  1.00  0.00     0.019 C 
HETATM    9  C   UNL     1      21.375  66.034  19.639  1.00  0.00     0.009 C 
HETATM   10  C   UNL     1      24.612  64.307  20.804  1.00  0.00     0.004 C 
HETATM   11  C   UNL     1      21.536  63.622  20.222  1.00  0.00     0.050 C 
HETATM   12  C   UNL     1      20.756  62.349  22.395  1.00  0.00     0.096 C 
HETATM   13  N   UNL     1      21.261  61.348  23.169  1.00  0.00    -0.368 N 
ATOM     14  HN  UNL     1      20.762  60.864  23.916  1.00  0.00     0.165 HD
HETATM   15  C   UNL     1      22.540  61.103  22.779  1.00  0.00     0.020 C 
HETATM   16  C   UNL     1      23.335  67.576  19.750  1.00  0.00     0.013 C 
HETATM   17  C   UNL     1      21.881  67.381  20.161  1.00  0.00     0.002 C 
HETATM   18  C   UNL     1      22.853  62.001  21.770  1.00  0.00     0.000 C 
HETATM   19  C   UNL     1      24.791  60.652  22.098  1.00  0.00     0.045 C 
HETATM   20  C   UNL     1      24.084  66.324  19.306  1.00  0.00    -0.024 C 
ENDROOT
TORSDOF 0
ENDMDL
MODEL 8
REMARK VINA RESULT:      -7.2      2.162      5.448
REMARK  0 active torsions:
REMARK  status: ('A' for Active; 'I' for Inactive)
ROOT
HETATM    1  C   UNL     1      25.710  59.973  22.129  1.00  0.00     0.062 C 
HETATM    2  C   UNL     1      23.097  64.782  20.438  1.00  0.00    -0.068 C 
HETATM    3  C   UNL     1      25.206  63.285  20.255  1.00  0.00     0.008 C 
HETATM    4  C   UNL     1      22.064  66.130  18.605  1.00  0.00     0.019 C 
HETATM    5  C   UNL     1      21.987  64.197  21.323  1.00  0.00     0.019 C 
HETATM    6  C   UNL     1      25.120  61.991  20.917  1.00  0.00    -0.045 C 
HETATM    7  C   UNL     1      22.604  61.810  21.850  1.00  0.00    -0.029 C 
HETATM    8  C   UNL     1      24.120  67.005  19.629  1.00  0.00     0.019 C 
HETATM    9  C   UNL     1      20.673  64.949  21.036  1.00  0.00     0.009 C 
HETATM   10  C   UNL     1      24.468  64.391  20.707  1.00  0.00     0.004 C 
HETATM   11  C   UNL     1      21.754  62.710  20.989  1.00  0.00     0.050 C 
HETATM   12  C   UNL     1      22.259  61.030  22.957  1.00  0.00     0.096 C 
HETATM   13  N   UNL     1      23.289  60.205  23.290  1.00  0.00    -0.368 N 
ATOM     14  HN  UNL     1      23.274  59.502  24.029  1.00  0.00     0.165 HD
HETATM   15  C   UNL     1      24.342  60.476  22.473  1.00  0.00     0.020 C 
HETATM   16  C   UNL     1      21.975  67.072  20.862  1.00  0.00     0.013 C 
HETATM   17  C   UNL     1      20.908  66.328  21.657  1.00  0.00     0.002 C 
HETATM   18  C   UNL     1      23.972  61.522  21.642  1.00  0.00     0.000 C 
HETATM   19  C   UNL     1      26.200  60.933  21.034  1.00  0.00     0.045 C 
HETATM   20  C   UNL     1      22.843  66.223  19.939  1.00  0.00    -0.024 C 
ENDROOT
TORSDOF 0
ENDMDL
MODEL 9
REMARK VINA RESULT:      -7.2      2.251      4.771
REMARK  0 active torsions:
REMARK  status: ('A' for Active; 'I' for Inactive)
ROOT
HETATM    1  C   UNL     1      25.852  60.102  21.691  1.00  0.00     0.062 C 
HETATM    2  C   UNL     1      21.887  64.186  21.052  1.00  0.00    -0.068 C 
HETATM    3  C   UNL     1      22.640  62.089  22.377  1.00  0.00     0.008 C 
HETATM    4  C   UNL     1      20.696  66.182  21.971  1.00  0.00     0.019 C 
HETATM    5  C   UNL     1      22.887  64.644  19.980  1.00  0.00     0.019 C 
HETATM    6  C   UNL     1      23.972  61.591  22.064  1.00  0.00    -0.045 C 
HETATM    7  C   UNL     1      25.021  63.345  20.317  1.00  0.00    -0.029 C 
HETATM    8  C   UNL     1      19.376  64.138  21.628  1.00  0.00     0.019 C 
HETATM    9  C   UNL     1      22.538  66.084  19.554  1.00  0.00     0.009 C 
HETATM   10  C   UNL     1      21.875  62.786  21.426  1.00  0.00     0.004 C 
HETATM   11  C   UNL     1      24.320  64.661  20.546  1.00  0.00     0.050 C 
HETATM   12  C   UNL     1      26.001  62.995  19.384  1.00  0.00     0.096 C 
HETATM   13  N   UNL     1      26.510  61.767  19.677  1.00  0.00    -0.368 N 
ATOM     14  HN  UNL     1      27.272  61.304  19.181  1.00  0.00     0.165 HD
HETATM   15  C   UNL     1      25.834  61.261  20.743  1.00  0.00     0.020 C 
HETATM   16  C   UNL     1      20.116  65.494  19.695  1.00  0.00     0.013 C 
HETATM   17  C   UNL     1      21.241  65.917  18.758  1.00  0.00     0.002 C 
HETATM   18  C   UNL     1      24.853  62.176  21.092  1.00  0.00     0.000 C 
HETATM   19  C   UNL     1      24.659  60.360  22.625  1.00  0.00     0.045 C 
HETATM   20  C   UNL     1      20.540  64.945  21.054  1.00  0.00    -0.024 C 
ENDROOT
TORSDOF 0
ENDMDL
