MODEL 1
REMARK VINA RESULT:     -10.8      0.000      0.000
REMARK  0 active torsions:
REMARK  status: ('A' for Active; 'I' for Inactive)
ROOT
HETATM    1  C   UNL     1      18.383   3.620  11.701  1.00  0.00     0.029 C 
HETATM    2  C   UNL     1      18.233   3.371  13.200  1.00  0.00     0.012 C 
HETATM    3  C   UNL     1      18.743   2.086  13.797  1.00  0.00    -0.007 C 
HETATM    4  C   UNL     1      14.632   5.526  11.083  1.00  0.00     0.001 C 
HETATM    5  C   UNL     1      16.267   4.433  12.436  1.00  0.00    -0.051 C 
HETATM    6  C   UNL     1      20.274   0.476  10.800  1.00  0.00     0.007 C 
HETATM    7  C   UNL     1      20.566   0.684  13.803  1.00  0.00    -0.046 C 
HETATM    8  C   UNL     1      19.436   2.264  15.147  1.00  0.00     0.024 C 
HETATM    9  C   UNL     1      18.637   2.327  10.916  1.00  0.00     0.049 C 
HETATM   10  C   UNL     1      17.753   0.961  14.082  1.00  0.00     0.015 C 
HETATM   11  C   UNL     1      21.528  -0.231  13.471  1.00  0.00     0.008 C 
HETATM   12  C   UNL     1      16.763   4.913  10.153  1.00  0.00     0.008 C 
HETATM   13  C   UNL     1      15.521   5.533  10.028  1.00  0.00     0.001 C 
HETATM   14  C   UNL     1      19.910   0.813  15.174  1.00  0.00     0.020 C 
HETATM   15  C   UNL     1      19.825   1.470  12.938  1.00  0.00    -0.036 C 
HETATM   16  C   UNL     1      22.019  -0.533  12.231  1.00  0.00     0.001 C 
HETATM   17  C   UNL     1      15.041   5.070  12.339  1.00  0.00     0.007 C 
HETATM   18  C   UNL     1      17.085   4.294  11.345  1.00  0.00    -0.047 C 
HETATM   19  C   UNL     1      21.494  -0.141  11.036  1.00  0.00     0.001 C 
HETATM   20  C   UNL     1      16.802   3.701  13.626  1.00  0.00     0.045 C 
HETATM   21  C   UNL     1      19.711   1.466  11.589  1.00  0.00    -0.050 C 
HETATM   22  C   UNL     1      18.556   0.097  15.069  1.00  0.00     0.010 C 
ENDROOT
TORSDOF 0
ENDMDL
MODEL 2
REMARK VINA RESULT:     -10.7      1.764      6.304
REMARK  0 active torsions:
REMARK  status: ('A' for Active; 'I' for Inactive)
ROOT
HETATM    1  C   UNL     1      18.720   3.414  11.752  1.00  0.00     0.029 C 
HETATM    2  C   UNL     1      17.799   3.981  10.674  1.00  0.00     0.012 C 
HETATM    3  C   UNL     1      16.445   4.517  11.057  1.00  0.00    -0.007 C 
HETATM    4  C   UNL     1      20.292   0.178   9.484  1.00  0.00     0.001 C 
HETATM    5  C   UNL     1      18.879   2.079   9.784  1.00  0.00    -0.051 C 
HETATM    6  C   UNL     1      16.554   4.121  14.765  1.00  0.00     0.007 C 
HETATM    7  C   UNL     1      15.395   5.873  12.590  1.00  0.00    -0.046 C 
HETATM    8  C   UNL     1      16.058   5.799  10.323  1.00  0.00     0.024 C 
HETATM    9  C   UNL     1      17.964   3.052  13.037  1.00  0.00     0.049 C 
HETATM   10  C   UNL     1      15.217   3.636  10.849  1.00  0.00     0.015 C 
HETATM   11  C   UNL     1      14.840   6.398  13.726  1.00  0.00     0.008 C 
HETATM   12  C   UNL     1      20.400   1.461  11.515  1.00  0.00     0.008 C 
HETATM   13  C   UNL     1      20.873   0.426  10.710  1.00  0.00     0.001 C 
HETATM   14  C   UNL     1      14.814   6.000  11.186  1.00  0.00     0.020 C 
HETATM   15  C   UNL     1      16.407   4.932  12.512  1.00  0.00    -0.036 C 
HETATM   16  C   UNL     1      15.192   6.167  15.026  1.00  0.00     0.001 C 
HETATM   17  C   UNL     1      19.357   1.075   8.958  1.00  0.00     0.007 C 
HETATM   18  C   UNL     1      19.342   2.226  11.066  1.00  0.00    -0.047 C 
HETATM   19  C   UNL     1      16.030   5.190  15.476  1.00  0.00     0.001 C 
HETATM   20  C   UNL     1      17.745   3.011   9.494  1.00  0.00     0.045 C 
HETATM   21  C   UNL     1      17.009   4.173  13.458  1.00  0.00    -0.050 C 
HETATM   22  C   UNL     1      14.087   4.678  10.903  1.00  0.00     0.010 C 
ENDROOT
TORSDOF 0
ENDMDL
MODEL 3
REMARK VINA RESULT:     -10.4      1.029      5.818
REMARK  0 active torsions:
REMARK  status: ('A' for Active; 'I' for Inactive)
ROOT
HETATM    1  C   UNL     1      18.892   1.422  11.573  1.00  0.00     0.029 C 
HETATM    2  C   UNL     1      18.543   1.798  13.011  1.00  0.00     0.012 C 
HETATM    3  C   UNL     1      17.805   3.081  13.288  1.00  0.00    -0.007 C 
HETATM    4  C   UNL     1      22.735  -0.224  12.353  1.00  0.00     0.001 C 
HETATM    5  C   UNL     1      20.701   0.838  13.011  1.00  0.00    -0.051 C 
HETATM    6  C   UNL     1      17.234   4.328   9.819  1.00  0.00     0.007 C 
HETATM    7  C   UNL     1      16.008   4.331  12.583  1.00  0.00    -0.046 C 
HETATM    8  C   UNL     1      16.727   2.954  14.363  1.00  0.00     0.024 C 
HETATM    9  C   UNL     1      18.839   2.626  10.624  1.00  0.00     0.049 C 
HETATM   10  C   UNL     1      18.594   4.299  13.757  1.00  0.00     0.015 C 
HETATM   11  C   UNL     1      15.158   5.139  11.877  1.00  0.00     0.008 C 
HETATM   12  C   UNL     1      20.985   0.145  10.747  1.00  0.00     0.008 C 
HETATM   13  C   UNL     1      22.232  -0.382  11.079  1.00  0.00     0.001 C 
HETATM   14  C   UNL     1      16.197   4.361  14.096  1.00  0.00     0.020 C 
HETATM   15  C   UNL     1      17.025   3.542  12.076  1.00  0.00    -0.036 C 
HETATM   16  C   UNL     1      15.075   5.305  10.523  1.00  0.00     0.001 C 
HETATM   17  C   UNL     1      21.923   0.294  13.367  1.00  0.00     0.007 C 
HETATM   18  C   UNL     1      20.269   0.828  11.710  1.00  0.00    -0.047 C 
HETATM   19  C   UNL     1      15.974   4.863   9.597  1.00  0.00     0.001 C 
HETATM   20  C   UNL     1      19.777   1.616  13.895  1.00  0.00     0.045 C 
HETATM   21  C   UNL     1      17.564   3.450  10.837  1.00  0.00    -0.050 C 
HETATM   22  C   UNL     1      17.476   5.171  14.352  1.00  0.00     0.010 C 
ENDROOT
TORSDOF 0
ENDMDL
MODEL 4
REMARK VINA RESULT:     -10.3      1.789      3.488
REMARK  0 active torsions:
REMARK  status: ('A' for Active; 'I' for Inactive)
ROOT
HETATM    1  C   UNL     1      19.231   2.411  11.699  1.00  0.00     0.029 C 
HETATM    2  C   UNL     1      18.440   3.520  12.390  1.00  0.00     0.012 C 
HETATM    3  C   UNL     1      18.111   3.400  13.854  1.00  0.00    -0.007 C 
HETATM    4  C   UNL     1      17.132   2.461   8.001  1.00  0.00     0.001 C 
HETATM    5  C   UNL     1      17.531   3.210  10.232  1.00  0.00    -0.051 C 
HETATM    6  C   UNL     1      19.847   0.210  14.707  1.00  0.00     0.007 C 
HETATM    7  C   UNL     1      19.046   2.875  15.889  1.00  0.00    -0.046 C 
HETATM    8  C   UNL     1      18.252   4.709  14.629  1.00  0.00     0.024 C 
HETATM    9  C   UNL     1      19.206   1.096  12.488  1.00  0.00     0.049 C 
HETATM   10  C   UNL     1      16.720   2.926  14.261  1.00  0.00     0.015 C 
HETATM   11  C   UNL     1      19.594   2.224  16.961  1.00  0.00     0.008 C 
HETATM   12  C   UNL     1      18.999   1.606   9.252  1.00  0.00     0.008 C 
HETATM   13  C   UNL     1      18.269   1.683   8.067  1.00  0.00     0.001 C 
HETATM   14  C   UNL     1      18.039   4.018  15.974  1.00  0.00     0.020 C 
HETATM   15  C   UNL     1      19.079   2.478  14.564  1.00  0.00    -0.036 C 
HETATM   16  C   UNL     1      20.343   1.081  16.966  1.00  0.00     0.001 C 
HETATM   17  C   UNL     1      16.811   3.322   9.055  1.00  0.00     0.007 C 
HETATM   18  C   UNL     1      18.564   2.316  10.353  1.00  0.00    -0.047 C 
HETATM   19  C   UNL     1      20.518   0.224  15.921  1.00  0.00     0.001 C 
HETATM   20  C   UNL     1      17.227   3.884  11.533  1.00  0.00     0.045 C 
HETATM   21  C   UNL     1      19.491   1.330  13.976  1.00  0.00    -0.050 C 
HETATM   22  C   UNL     1      16.660   3.391  15.726  1.00  0.00     0.010 C 
ENDROOT
TORSDOF 0
ENDMDL
MODEL 5
REMARK VINA RESULT:     -10.3      1.214      1.696
REMARK  0 active torsions:
REMARK  status: ('A' for Active; 'I' for Inactive)
ROOT
HETATM    1  C   UNL     1      18.237   3.843  12.520  1.00  0.00     0.029 C 
HETATM    2  C   UNL     1      17.805   4.030  13.973  1.00  0.00     0.012 C 
HETATM    3  C   UNL     1      18.153   2.981  14.995  1.00  0.00    -0.007 C 
HETATM    4  C   UNL     1      14.730   5.414  10.698  1.00  0.00     0.001 C 
HETATM    5  C   UNL     1      16.050   4.789  12.587  1.00  0.00    -0.051 C 
HETATM    6  C   UNL     1      20.152   0.612  12.921  1.00  0.00     0.007 C 
HETATM    7  C   UNL     1      19.895   1.677  15.739  1.00  0.00    -0.046 C 
HETATM    8  C   UNL     1      18.591   3.552  16.342  1.00  0.00     0.024 C 
HETATM    9  C   UNL     1      18.586   2.384  12.197  1.00  0.00     0.049 C 
HETATM   10  C   UNL     1      17.090   1.965  15.400  1.00  0.00     0.015 C 
HETATM   11  C   UNL     1      20.870   0.725  15.866  1.00  0.00     0.008 C 
HETATM   12  C   UNL     1      16.974   4.605  10.395  1.00  0.00     0.008 C 
HETATM   13  C   UNL     1      15.797   5.137   9.870  1.00  0.00     0.001 C 
HETATM   14  C   UNL     1      19.003   2.180  16.869  1.00  0.00     0.020 C 
HETATM   15  C   UNL     1      19.353   2.166  14.564  1.00  0.00    -0.036 C 
HETATM   16  C   UNL     1      21.569   0.091  14.878  1.00  0.00     0.001 C 
HETATM   17  C   UNL     1      14.885   5.346  12.086  1.00  0.00     0.007 C 
HETATM   18  C   UNL     1      17.050   4.359  11.751  1.00  0.00    -0.047 C 
HETATM   19  C   UNL     1      21.287   0.113  13.544  1.00  0.00     0.001 C 
HETATM   20  C   UNL     1      16.333   4.439  14.014  1.00  0.00     0.045 C 
HETATM   21  C   UNL     1      19.489   1.774  13.275  1.00  0.00    -0.050 C 
HETATM   22  C   UNL     1      17.668   1.436  16.724  1.00  0.00     0.010 C 
ENDROOT
TORSDOF 0
ENDMDL
MODEL 6
REMARK VINA RESULT:     -10.2      1.825      4.891
REMARK  0 active torsions:
REMARK  status: ('A' for Active; 'I' for Inactive)
ROOT
HETATM    1  C   UNL     1      17.680   2.281  13.912  1.00  0.00     0.029 C 
HETATM    2  C   UNL     1      16.679   3.205  13.221  1.00  0.00     0.012 C 
HETATM    3  C   UNL     1      16.904   3.610  11.789  1.00  0.00    -0.007 C 
HETATM    4  C   UNL     1      17.608   4.152  17.731  1.00  0.00     0.001 C 
HETATM    5  C   UNL     1      16.947   3.953  15.445  1.00  0.00    -0.051 C 
HETATM    6  C   UNL     1      19.979   1.659  10.980  1.00  0.00     0.007 C 
HETATM    7  C   UNL     1      17.456   2.756   9.725  1.00  0.00    -0.046 C 
HETATM    8  C   UNL     1      15.631   3.629  10.945  1.00  0.00     0.024 C 
HETATM    9  C   UNL     1      19.033   2.240  13.190  1.00  0.00     0.049 C 
HETATM   10  C   UNL     1      17.513   4.977  11.495  1.00  0.00     0.015 C 
HETATM   11  C   UNL     1      18.116   2.220   8.653  1.00  0.00     0.008 C 
HETATM   12  C   UNL     1      18.369   2.296  16.405  1.00  0.00     0.008 C 
HETATM   13  C   UNL     1      18.290   2.957  17.630  1.00  0.00     0.001 C 
HETATM   14  C   UNL     1      16.408   3.862   9.651  1.00  0.00     0.020 C 
HETATM   15  C   UNL     1      17.778   2.610  11.063  1.00  0.00    -0.036 C 
HETATM   16  C   UNL     1      19.191   1.376   8.655  1.00  0.00     0.001 C 
HETATM   17  C   UNL     1      16.833   4.608  16.660  1.00  0.00     0.007 C 
HETATM   18  C   UNL     1      17.758   2.856  15.301  1.00  0.00    -0.047 C 
HETATM   19  C   UNL     1      19.974   1.066   9.727  1.00  0.00     0.001 C 
HETATM   20  C   UNL     1      16.372   4.391  14.136  1.00  0.00     0.045 C 
HETATM   21  C   UNL     1      18.855   2.066  11.678  1.00  0.00    -0.050 C 
HETATM   22  C   UNL     1      17.133   5.165  10.017  1.00  0.00     0.010 C 
ENDROOT
TORSDOF 0
ENDMDL
MODEL 7
REMARK VINA RESULT:     -10.1      1.658      3.840
REMARK  0 active torsions:
REMARK  status: ('A' for Active; 'I' for Inactive)
ROOT
HETATM    1  C   UNL     1      17.193   2.896  14.026  1.00  0.00     0.029 C 
HETATM    2  C   UNL     1      17.041   3.420  12.599  1.00  0.00     0.012 C 
HETATM    3  C   UNL     1      18.128   3.161  11.590  1.00  0.00    -0.007 C 
HETATM    4  C   UNL     1      15.490   6.242  16.023  1.00  0.00     0.001 C 
HETATM    5  C   UNL     1      16.202   5.063  14.073  1.00  0.00    -0.051 C 
HETATM    6  C   UNL     1      20.476   1.075  13.604  1.00  0.00     0.007 C 
HETATM    7  C   UNL     1      19.493   1.499  10.776  1.00  0.00    -0.046 C 
HETATM    8  C   UNL     1      17.609   2.803  10.200  1.00  0.00     0.024 C 
HETATM    9  C   UNL     1      18.648   2.555  14.371  1.00  0.00     0.049 C 
HETATM   10  C   UNL     1      19.133   4.269  11.289  1.00  0.00     0.015 C 
HETATM   11  C   UNL     1      20.469   0.553  10.615  1.00  0.00     0.008 C 
HETATM   12  C   UNL     1      16.339   4.000  16.204  1.00  0.00     0.008 C 
HETATM   13  C   UNL     1      15.765   5.128  16.788  1.00  0.00     0.001 C 
HETATM   14  C   UNL     1      19.006   2.454   9.691  1.00  0.00     0.020 C 
HETATM   15  C   UNL     1      18.956   1.952  11.968  1.00  0.00    -0.036 C 
HETATM   16  C   UNL     1      21.088  -0.198  11.575  1.00  0.00     0.001 C 
HETATM   17  C   UNL     1      15.605   6.181  14.631  1.00  0.00     0.007 C 
HETATM   18  C   UNL     1      16.627   4.019  14.854  1.00  0.00    -0.047 C 
HETATM   19  C   UNL     1      21.018  -0.005  12.923  1.00  0.00     0.001 C 
HETATM   20  C   UNL     1      16.602   4.883  12.642  1.00  0.00     0.045 C 
HETATM   21  C   UNL     1      19.311   1.738  13.257  1.00  0.00    -0.050 C 
HETATM   22  C   UNL     1      19.715   3.791   9.948  1.00  0.00     0.010 C 
ENDROOT
TORSDOF 0
ENDMDL
MODEL 8
REMARK VINA RESULT:     -10.1      1.725      3.041
REMARK  0 active torsions:
REMARK  status: ('A' for Active; 'I' for Inactive)
ROOT
HETATM    1  C   UNL     1      17.931   4.276  13.263  1.00  0.00     0.029 C 
HETATM    2  C   UNL     1      18.646   3.217  14.099  1.00  0.00     0.012 C 
HETATM    3  C   UNL     1      19.002   1.892  13.479  1.00  0.00    -0.007 C 
HETATM    4  C   UNL     1      15.342   5.726  16.309  1.00  0.00     0.001 C 
HETATM    5  C   UNL     1      17.044   4.274  15.475  1.00  0.00    -0.051 C 
HETATM    6  C   UNL     1      17.858   2.428   9.969  1.00  0.00     0.007 C 
HETATM    7  C   UNL     1      19.941   0.960  11.598  1.00  0.00    -0.046 C 
HETATM    8  C   UNL     1      20.379   1.370  13.883  1.00  0.00     0.024 C 
HETATM    9  C   UNL     1      17.263   3.683  12.015  1.00  0.00     0.049 C 
HETATM   10  C   UNL     1      18.104   0.688  13.746  1.00  0.00     0.015 C 
HETATM   11  C   UNL     1      20.183   0.511  10.327  1.00  0.00     0.008 C 
HETATM   12  C   UNL     1      16.184   6.002  14.073  1.00  0.00     0.008 C 
HETATM   13  C   UNL     1      15.371   6.428  15.122  1.00  0.00     0.001 C 
HETATM   14  C   UNL     1      20.316   0.221  12.878  1.00  0.00     0.020 C 
HETATM   15  C   UNL     1      19.105   1.997  11.973  1.00  0.00    -0.036 C 
HETATM   16  C   UNL     1      19.713   1.015   9.147  1.00  0.00     0.001 C 
HETATM   17  C   UNL     1      16.265   4.701  16.537  1.00  0.00     0.007 C 
HETATM   18  C   UNL     1      16.954   4.868  14.242  1.00  0.00    -0.047 C 
HETATM   19  C   UNL     1      18.721   1.940   8.999  1.00  0.00     0.001 C 
HETATM   20  C   UNL     1      17.938   3.075  15.447  1.00  0.00     0.045 C 
HETATM   21  C   UNL     1      18.209   2.732  11.273  1.00  0.00    -0.050 C 
HETATM   22  C   UNL     1      19.035  -0.474  13.362  1.00  0.00     0.010 C 
ENDROOT
TORSDOF 0
ENDMDL
MODEL 9
REMARK VINA RESULT:      -9.9      2.869      5.692
REMARK  0 active torsions:
REMARK  status: ('A' for Active; 'I' for Inactive)
ROOT
HETATM    1  C   UNL     1      16.032   5.904  14.947  1.00  0.00     0.029 C 
HETATM    2  C   UNL     1      17.259   4.996  14.923  1.00  0.00     0.012 C 
HETATM    3  C   UNL     1      17.475   4.064  13.761  1.00  0.00    -0.007 C 
HETATM    4  C   UNL     1      15.201   5.598  19.106  1.00  0.00     0.001 C 
HETATM    5  C   UNL     1      16.450   5.072  17.140  1.00  0.00    -0.051 C 
HETATM    6  C   UNL     1      14.591   4.979  11.580  1.00  0.00     0.007 C 
HETATM    7  C   UNL     1      17.446   3.990  11.462  1.00  0.00    -0.046 C 
HETATM    8  C   UNL     1      18.929   3.976  13.301  1.00  0.00     0.024 C 
HETATM    9  C   UNL     1      14.933   5.427  13.988  1.00  0.00     0.049 C 
HETATM   10  C   UNL     1      17.089   2.596  13.910  1.00  0.00     0.015 C 
HETATM   11  C   UNL     1      17.066   3.967  10.147  1.00  0.00     0.008 C 
HETATM   12  C   UNL     1      14.682   6.669  17.017  1.00  0.00     0.008 C 
HETATM   13  C   UNL     1      14.475   6.525  18.387  1.00  0.00     0.001 C 
HETATM   14  C   UNL     1      18.563   3.149  12.070  1.00  0.00     0.020 C 
HETATM   15  C   UNL     1      16.755   4.550  12.522  1.00  0.00    -0.036 C 
HETATM   16  C   UNL     1      15.965   4.538   9.573  1.00  0.00     0.001 C 
HETATM   17  C   UNL     1      16.278   4.937  18.508  1.00  0.00     0.007 C 
HETATM   18  C   UNL     1      15.621   5.870  16.394  1.00  0.00    -0.047 C 
HETATM   19  C   UNL     1      14.892   5.066  10.228  1.00  0.00     0.001 C 
HETATM   20  C   UNL     1      17.400   4.302  16.279  1.00  0.00     0.045 C 
HETATM   21  C   UNL     1      15.508   5.070  12.613  1.00  0.00    -0.050 C 
HETATM   22  C   UNL     1      17.878   1.958  12.755  1.00  0.00     0.010 C 
ENDROOT
TORSDOF 0
ENDMDL
