REMARK  2 active torsions:
REMARK  status: ('A' for Active; 'I' for Inactive)
REMARK    1  A    between atoms: O_6  and  C_10 
REMARK    2  A    between atoms: C_10  and  O_12 
ROOT
HETATM    1  N   UNL     1      23.105  14.987  11.755  1.00  0.00    -0.359 N 
ATOM      2  HN  UNL     1      22.753  14.146  12.212  1.00  0.00     0.159 HD
HETATM    3  C   UNL     1      22.825  17.369  11.366  1.00  0.00     0.147 C 
HETATM    4  O   UNL     1      23.238  18.051  12.268  1.00  0.00    -0.296 OA
HETATM    5  C   UNL     1      25.051  15.955  10.279  1.00  0.00     0.061 C 
HETATM    6  C   UNL     1      24.443  16.859   9.524  1.00  0.00    -0.016 C 
HETATM    7  C   UNL     1      22.146  16.035  11.659  1.00  0.00     0.198 C 
HETATM    8  C   UNL     1      24.468  14.888  11.333  1.00  0.00     0.261 C 
HETATM    9  C   UNL     1      23.223  17.662   9.931  1.00  0.00     0.107 C 
ENDROOT
BRANCH   8  10
HETATM   10  O   UNL     1      24.524  13.752  10.672  1.00  0.00    -0.346 OA
ATOM     11  HO  UNL     1      25.429  13.686  10.392  1.00  0.00     0.215 HD
ENDBRANCH   8  10
BRANCH   8  12
HETATM   12  O   UNL     1      25.194  14.932  12.440  1.00  0.00    -0.346 OA
ATOM     13  HO  UNL     1      26.099  14.866  12.160  1.00  0.00     0.215 HD
ENDBRANCH   8  12
TORSDOF 2
