MODEL 1
REMARK VINA RESULT:      -7.8      0.000      0.000
REMARK  5 active torsions:
REMARK  status: ('A' for Active; 'I' for Inactive)
REMARK       I    between atoms: N_3  and  C_9 
REMARK    1  A    between atoms: N_3  and  C_35 
REMARK    2  A    between atoms: O_5  and  C_12 
REMARK    3  A    between atoms: C_8  and  C_27 
REMARK    4  A    between atoms: C_8  and  C_35 
REMARK       I    between atoms: C_9  and  N_30 
REMARK    5  A    between atoms: C_12  and  O_16 
REMARK       I    between atoms: N_18  and  C_22 
REMARK       I    between atoms: N_20  and  C_22 
ROOT
HETATM    1  C   UNL     1      18.024  -1.273 116.193  1.00  0.00     0.106 A 
HETATM    2  N   UNL     1      14.911  -3.006 115.449  1.00  0.00    -0.346 N 
ATOM      3  HN  UNL     1      14.559  -2.254 114.857  1.00  0.00     0.163 HD
HETATM    4  C   UNL     1      16.036  -2.813 116.192  1.00  0.00     0.309 C 
HETATM    5  N   UNL     1      17.137   2.094 113.428  1.00  0.00    -0.329 N 
ATOM      6  HN  UNL     1      17.949   1.955 112.828  1.00  0.00     0.168 HD
HETATM    7  C   UNL     1      16.076   5.590 114.072  1.00  0.00     0.301 C 
HETATM    8  O   UNL     1      13.606   1.647 116.121  1.00  0.00    -0.246 OA
HETATM    9  C   UNL     1      20.296  -0.717 116.561  1.00  0.00     0.005 A 
HETATM   10  N   UNL     1      17.635  -0.169 116.882  1.00  0.00    -0.287 N 
HETATM   11  N   UNL     1      15.165   0.214 116.706  1.00  0.00    -0.283 N 
ATOM     12  HN  UNL     1      14.528  -0.079 117.447  1.00  0.00     0.173 HD
HETATM   13  N   UNL     1      15.501   1.730 114.886  1.00  0.00    -0.242 N 
HETATM   14  C   UNL     1      19.358  -1.630 116.078  1.00  0.00     0.044 A 
HETATM   15  C   UNL     1      14.732   1.197 115.903  1.00  0.00     0.335 C 
HETATM   16  C   UNL     1      16.485   3.258 113.634  1.00  0.00     0.193 C 
HETATM   17  O   UNL     1      16.451  -3.621 116.996  1.00  0.00    -0.253 OA
HETATM   18  C   UNL     1      15.349   3.002 114.385  1.00  0.00     0.165 C 
HETATM   19  C   UNL     1      14.566   5.230 113.905  1.00  0.00     0.223 C 
HETATM   20  N   UNL     1      14.375   3.929 114.538  1.00  0.00    -0.364 N 
ATOM     21  HN  UNL     1      13.535   3.725 115.079  1.00  0.00     0.161 HD
HETATM   22  N   UNL     1      16.723  -1.620 115.996  1.00  0.00    -0.119 NA
HETATM   23  C   UNL     1      16.524   1.164 114.153  1.00  0.00     0.197 C 
HETATM   24  O   UNL     1      16.885   4.564 113.496  1.00  0.00    -0.269 OA
HETATM   25  C   UNL     1      16.350  -0.432 116.645  1.00  0.00     0.185 A 
HETATM   26  C   UNL     1      19.875   0.431 117.253  1.00  0.00     0.018 A 
HETATM   27  C   UNL     1      18.519   0.680 117.473  1.00  0.00     0.101 A 
ENDROOT
BRANCH   2  28
HETATM   28  C   UNL     1      14.210  -4.282 115.499  1.00  0.00     0.134 C 
BRANCH  28  29
HETATM   29  C   UNL     1      13.897  -4.777 114.125  1.00  0.00     0.133 C 
BRANCH  29  30
HETATM   30  C   UNL     1      13.877  -4.034 112.813  1.00  0.00     0.174 C 
HETATM   31  O   UNL     1      12.817  -3.671 112.303  1.00  0.00    -0.648 OA
HETATM   32  O   UNL     1      15.025  -3.876 112.292  1.00  0.00    -0.648 OA
ENDBRANCH  29  30
ENDBRANCH  28  29
ENDBRANCH   2  28
BRANCH   7  33
HETATM   33  O   UNL     1      16.323   6.831 113.512  1.00  0.00    -0.342 OA
ATOM     34  HO  UNL     1      15.495   7.290 113.431  1.00  0.00     0.215 HD
ENDBRANCH   7  33
BRANCH   7  35
HETATM   35  O   UNL     1      16.400   5.653 115.432  1.00  0.00    -0.342 OA
ATOM     36  HO  UNL     1      16.038   4.885 115.859  1.00  0.00     0.215 HD
ENDBRANCH   7  35
TORSDOF 5
ENDMDL
MODEL 2
REMARK VINA RESULT:      -7.7      3.502      6.325
REMARK  5 active torsions:
REMARK  status: ('A' for Active; 'I' for Inactive)
REMARK       I    between atoms: N_3  and  C_9 
REMARK    1  A    between atoms: N_3  and  C_35 
REMARK    2  A    between atoms: O_5  and  C_12 
REMARK    3  A    between atoms: C_8  and  C_27 
REMARK    4  A    between atoms: C_8  and  C_35 
REMARK       I    between atoms: C_9  and  N_30 
REMARK    5  A    between atoms: C_12  and  O_16 
REMARK       I    between atoms: N_18  and  C_22 
REMARK       I    between atoms: N_20  and  C_22 
ROOT
HETATM    1  C   UNL     1      16.283   0.452 117.758  1.00  0.00     0.106 A 
HETATM    2  N   UNL     1      16.545   2.746 120.571  1.00  0.00    -0.346 N 
ATOM      3  HN  UNL     1      16.180   3.538 120.043  1.00  0.00     0.163 HD
HETATM    4  C   UNL     1      16.857   1.587 119.928  1.00  0.00     0.309 C 
HETATM    5  N   UNL     1      14.301   3.448 115.138  1.00  0.00    -0.329 N 
ATOM      6  HN  UNL     1      13.443   2.914 114.998  1.00  0.00     0.168 HD
HETATM    7  C   UNL     1      15.566   5.419 112.262  1.00  0.00     0.301 C 
HETATM    8  O   UNL     1      18.020   5.345 116.715  1.00  0.00    -0.246 OA
HETATM    9  C   UNL     1      15.870  -1.422 116.371  1.00  0.00     0.005 A 
HETATM   10  N   UNL     1      17.155   0.947 116.841  1.00  0.00    -0.287 N 
HETATM   11  N   UNL     1      17.895   3.270 117.422  1.00  0.00    -0.283 N 
ATOM     12  HN  UNL     1      18.786   3.442 117.888  1.00  0.00     0.173 HD
HETATM   13  N   UNL     1      16.207   4.193 116.001  1.00  0.00    -0.242 N 
HETATM   14  C   UNL     1      15.675  -0.782 117.596  1.00  0.00     0.044 A 
HETATM   15  C   UNL     1      17.382   4.292 116.722  1.00  0.00     0.335 C 
HETATM   16  C   UNL     1      14.820   4.363 114.293  1.00  0.00     0.193 C 
HETATM   17  O   UNL     1      17.391   0.645 120.473  1.00  0.00    -0.253 OA
HETATM   18  C   UNL     1      15.900   4.973 114.910  1.00  0.00     0.165 C 
HETATM   19  C   UNL     1      15.915   6.641 113.170  1.00  0.00     0.223 C 
HETATM   20  N   UNL     1      16.463   6.096 114.408  1.00  0.00    -0.364 N 
ATOM     21  HN  UNL     1      17.247   6.547 114.879  1.00  0.00     0.161 HD
HETATM   22  N   UNL     1      16.530   1.510 118.578  1.00  0.00    -0.119 NA
HETATM   23  C   UNL     1      15.115   3.369 116.185  1.00  0.00     0.197 C 
HETATM   24  O   UNL     1      14.658   4.552 112.943  1.00  0.00    -0.269 OA
HETATM   25  C   UNL     1      17.366   2.036 117.580  1.00  0.00     0.185 A 
HETATM   26  C   UNL     1      16.759  -0.885 115.425  1.00  0.00     0.018 A 
HETATM   27  C   UNL     1      17.464   0.292 115.690  1.00  0.00     0.101 A 
ENDROOT
BRANCH   2  28
HETATM   28  C   UNL     1      16.733   2.858 122.012  1.00  0.00     0.134 C 
BRANCH  28  29
HETATM   29  C   UNL     1      16.783   4.289 122.438  1.00  0.00     0.133 C 
BRANCH  29  30
HETATM   30  C   UNL     1      17.358   5.488 121.726  1.00  0.00     0.174 C 
HETATM   31  O   UNL     1      17.177   5.660 120.520  1.00  0.00    -0.648 OA
HETATM   32  O   UNL     1      18.061   6.241 122.469  1.00  0.00    -0.648 OA
ENDBRANCH  29  30
ENDBRANCH  28  29
ENDBRANCH   2  28
BRANCH   7  33
HETATM   33  O   UNL     1      15.061   5.867 111.054  1.00  0.00    -0.342 OA
ATOM     34  HO  UNL     1      14.183   5.518 110.952  1.00  0.00     0.215 HD
ENDBRANCH   7  33
BRANCH   7  35
HETATM   35  O   UNL     1      16.725   4.677 112.002  1.00  0.00    -0.342 OA
ATOM     36  HO  UNL     1      16.485   3.760 111.951  1.00  0.00     0.215 HD
ENDBRANCH   7  35
TORSDOF 5
ENDMDL
MODEL 3
REMARK VINA RESULT:      -7.6      2.501      7.178
REMARK  5 active torsions:
REMARK  status: ('A' for Active; 'I' for Inactive)
REMARK       I    between atoms: N_3  and  C_9 
REMARK    1  A    between atoms: N_3  and  C_35 
REMARK    2  A    between atoms: O_5  and  C_12 
REMARK    3  A    between atoms: C_8  and  C_27 
REMARK    4  A    between atoms: C_8  and  C_35 
REMARK       I    between atoms: C_9  and  N_30 
REMARK    5  A    between atoms: C_12  and  O_16 
REMARK       I    between atoms: N_18  and  C_22 
REMARK       I    between atoms: N_20  and  C_22 
ROOT
HETATM    1  C   UNL     1      16.687   4.031 117.449  1.00  0.00     0.106 A 
HETATM    2  N   UNL     1      15.089   5.032 114.336  1.00  0.00    -0.346 N 
ATOM      3  HN  UNL     1      14.722   4.099 114.149  1.00  0.00     0.163 HD
HETATM    4  C   UNL     1      15.979   5.221 115.349  1.00  0.00     0.309 C 
HETATM    5  N   UNL     1      15.022  -0.089 117.305  1.00  0.00    -0.329 N 
ATOM      6  HN  UNL     1      14.506  -0.025 118.182  1.00  0.00     0.168 HD
HETATM    7  C   UNL     1      16.592  -3.349 116.488  1.00  0.00     0.301 C 
HETATM    8  O   UNL     1      17.017   0.654 113.382  1.00  0.00    -0.246 OA
HETATM    9  C   UNL     1      17.469   3.919 119.681  1.00  0.00     0.005 A 
HETATM   10  N   UNL     1      17.635   3.138 117.064  1.00  0.00    -0.287 N 
HETATM   11  N   UNL     1      17.304   2.391 114.695  1.00  0.00    -0.283 N 
ATOM     12  HN  UNL     1      17.838   2.801 113.930  1.00  0.00     0.173 HD
HETATM   13  N   UNL     1      16.096   0.466 115.442  1.00  0.00    -0.242 N 
HETATM   14  C   UNL     1      16.621   4.514 118.745  1.00  0.00     0.044 A 
HETATM   15  C   UNL     1      16.802   1.166 114.481  1.00  0.00     0.335 C 
HETATM   16  C   UNL     1      15.502  -1.217 116.741  1.00  0.00     0.193 C 
HETATM   17  O   UNL     1      16.534   6.278 115.561  1.00  0.00    -0.253 OA
HETATM   18  C   UNL     1      16.001  -0.906 115.485  1.00  0.00     0.165 C 
HETATM   19  C   UNL     1      16.149  -3.261 114.994  1.00  0.00     0.223 C 
HETATM   20  N   UNL     1      16.321  -1.869 114.590  1.00  0.00    -0.364 N 
ATOM     21  HN  UNL     1      16.671  -1.629 113.663  1.00  0.00     0.161 HD
HETATM   22  N   UNL     1      16.243   4.126 116.166  1.00  0.00    -0.119 NA
HETATM   23  C   UNL     1      15.346   0.922 116.506  1.00  0.00     0.197 C 
HETATM   24  O   UNL     1      15.823  -2.439 117.276  1.00  0.00    -0.269 OA
HETATM   25  C   UNL     1      17.182   3.144 115.811  1.00  0.00     0.185 A 
HETATM   26  C   UNL     1      18.430   2.980 119.269  1.00  0.00     0.018 A 
HETATM   27  C   UNL     1      18.558   2.627 117.924  1.00  0.00     0.101 A 
ENDROOT
BRANCH   2  28
HETATM   28  C   UNL     1      14.658   6.160 113.520  1.00  0.00     0.134 C 
BRANCH  28  29
HETATM   29  C   UNL     1      15.259   6.094 112.153  1.00  0.00     0.133 C 
BRANCH  29  30
HETATM   30  C   UNL     1      16.428   5.285 111.651  1.00  0.00     0.174 C 
HETATM   31  O   UNL     1      16.710   4.196 112.152  1.00  0.00    -0.648 OA
HETATM   32  O   UNL     1      17.090   5.853 110.727  1.00  0.00    -0.648 OA
ENDBRANCH  29  30
ENDBRANCH  28  29
ENDBRANCH   2  28
BRANCH   7  33
HETATM   33  O   UNL     1      16.478  -4.655 116.931  1.00  0.00    -0.342 OA
ATOM     34  HO  UNL     1      16.774  -5.231 116.235  1.00  0.00     0.215 HD
ENDBRANCH   7  33
BRANCH   7  35
HETATM   35  O   UNL     1      17.933  -2.964 116.608  1.00  0.00    -0.342 OA
ATOM     36  HO  UNL     1      18.138  -2.376 115.890  1.00  0.00     0.215 HD
ENDBRANCH   7  35
TORSDOF 5
ENDMDL
MODEL 4
REMARK VINA RESULT:      -7.4      3.694      6.546
REMARK  5 active torsions:
REMARK  status: ('A' for Active; 'I' for Inactive)
REMARK       I    between atoms: N_3  and  C_9 
REMARK    1  A    between atoms: N_3  and  C_35 
REMARK    2  A    between atoms: O_5  and  C_12 
REMARK    3  A    between atoms: C_8  and  C_27 
REMARK    4  A    between atoms: C_8  and  C_35 
REMARK       I    between atoms: C_9  and  N_30 
REMARK    5  A    between atoms: C_12  and  O_16 
REMARK       I    between atoms: N_18  and  C_22 
REMARK       I    between atoms: N_20  and  C_22 
ROOT
HETATM    1  C   UNL     1      16.605   4.423 113.497  1.00  0.00     0.106 A 
HETATM    2  N   UNL     1      16.603   2.136 116.328  1.00  0.00    -0.346 N 
ATOM      3  HN  UNL     1      16.327   2.858 116.994  1.00  0.00     0.163 HD
HETATM    4  C   UNL     1      16.952   2.482 115.058  1.00  0.00     0.309 C 
HETATM    5  N   UNL     1      15.040   7.829 115.887  1.00  0.00    -0.329 N 
ATOM      6  HN  UNL     1      14.188   7.959 115.341  1.00  0.00     0.168 HD
HETATM    7  C   UNL     1      16.696  10.875 117.206  1.00  0.00     0.301 C 
HETATM    8  O   UNL     1      18.603   6.238 118.054  1.00  0.00    -0.246 OA
HETATM    9  C   UNL     1      16.301   5.431 111.376  1.00  0.00     0.005 A 
HETATM   10  N   UNL     1      17.594   5.309 113.784  1.00  0.00    -0.287 N 
HETATM   11  N   UNL     1      18.331   5.137 116.173  1.00  0.00    -0.283 N 
ATOM     12  HN  UNL     1      19.165   4.611 116.435  1.00  0.00     0.173 HD
HETATM   13  N   UNL     1      16.852   6.913 116.787  1.00  0.00    -0.242 N 
HETATM   14  C   UNL     1      15.983   4.399 112.259  1.00  0.00     0.044 A 
HETATM   15  C   UNL     1      17.936   6.091 117.028  1.00  0.00     0.335 C 
HETATM   16  C   UNL     1      15.682   8.776 116.602  1.00  0.00     0.193 C 
HETATM   17  O   UNL     1      17.389   1.693 114.249  1.00  0.00    -0.253 OA
HETATM   18  C   UNL     1      16.700   8.171 117.323  1.00  0.00     0.165 C 
HETATM   19  C   UNL     1      16.972  10.204 118.589  1.00  0.00     0.223 C 
HETATM   20  N   UNL     1      17.353   8.823 118.313  1.00  0.00    -0.364 N 
ATOM     21  HN  UNL     1      18.089   8.363 118.849  1.00  0.00     0.161 HD
HETATM   22  N   UNL     1      16.785   3.816 114.702  1.00  0.00    -0.119 NA
HETATM   23  C   UNL     1      15.721   6.697 116.026  1.00  0.00     0.197 C 
HETATM   24  O   UNL     1      15.688  10.145 116.506  1.00  0.00    -0.269 OA
HETATM   25  C   UNL     1      17.749   4.792 115.003  1.00  0.00     0.185 A 
HETATM   26  C   UNL     1      17.312   6.352 111.699  1.00  0.00     0.018 A 
HETATM   27  C   UNL     1      18.017   6.253 112.901  1.00  0.00     0.101 A 
ENDROOT
BRANCH   2  28
HETATM   28  C   UNL     1      16.622   0.738 116.738  1.00  0.00     0.134 C 
BRANCH  28  29
HETATM   29  C   UNL     1      15.248   0.257 117.072  1.00  0.00     0.133 C 
BRANCH  29  30
HETATM   30  C   UNL     1      13.952   1.023 117.157  1.00  0.00     0.174 C 
HETATM   31  O   UNL     1      13.221   0.931 118.144  1.00  0.00    -0.648 OA
HETATM   32  O   UNL     1      13.686   1.704 116.118  1.00  0.00    -0.648 OA
ENDBRANCH  29  30
ENDBRANCH  28  29
ENDBRANCH   2  28
BRANCH   7  33
HETATM   33  O   UNL     1      16.351  12.202 117.394  1.00  0.00    -0.342 OA
ATOM     34  HO  UNL     1      17.009  12.742 116.972  1.00  0.00     0.215 HD
ENDBRANCH   7  33
BRANCH   7  35
HETATM   35  O   UNL     1      17.854  10.832 116.420  1.00  0.00    -0.342 OA
ATOM     36  HO  UNL     1      17.822  11.554 115.804  1.00  0.00     0.215 HD
ENDBRANCH   7  35
TORSDOF 5
ENDMDL
MODEL 5
REMARK VINA RESULT:      -7.4      2.007      2.914
REMARK  5 active torsions:
REMARK  status: ('A' for Active; 'I' for Inactive)
REMARK       I    between atoms: N_3  and  C_9 
REMARK    1  A    between atoms: N_3  and  C_35 
REMARK    2  A    between atoms: O_5  and  C_12 
REMARK    3  A    between atoms: C_8  and  C_27 
REMARK    4  A    between atoms: C_8  and  C_35 
REMARK       I    between atoms: C_9  and  N_30 
REMARK    5  A    between atoms: C_12  and  O_16 
REMARK       I    between atoms: N_18  and  C_22 
REMARK       I    between atoms: N_20  and  C_22 
ROOT
HETATM    1  C   UNL     1      17.873   1.441 118.406  1.00  0.00     0.106 A 
HETATM    2  N   UNL     1      17.660  -1.623 116.453  1.00  0.00    -0.346 N 
ATOM      3  HN  UNL     1      17.575  -1.128 115.565  1.00  0.00     0.163 HD
HETATM    4  C   UNL     1      17.587  -0.932 117.625  1.00  0.00     0.309 C 
HETATM    5  N   UNL     1      17.918   4.059 114.812  1.00  0.00    -0.329 N 
ATOM      6  HN  UNL     1      18.829   4.479 114.999  1.00  0.00     0.168 HD
HETATM    7  C   UNL     1      15.312   6.243 113.327  1.00  0.00     0.301 C 
HETATM    8  O   UNL     1      14.381   1.366 114.424  1.00  0.00    -0.246 OA
HETATM    9  C   UNL     1      18.482   3.120 119.960  1.00  0.00     0.005 A 
HETATM   10  N   UNL     1      16.666   2.037 118.224  1.00  0.00    -0.287 N 
HETATM   11  N   UNL     1      15.386   0.991 116.341  1.00  0.00    -0.283 N 
ATOM     12  HN  UNL     1      14.658   0.298 116.514  1.00  0.00     0.173 HD
HETATM   13  N   UNL     1      16.197   2.656 114.827  1.00  0.00    -0.242 N 
HETATM   14  C   UNL     1      18.787   1.911 119.334  1.00  0.00     0.044 A 
HETATM   15  C   UNL     1      15.309   1.657 115.180  1.00  0.00     0.335 C 
HETATM   16  C   UNL     1      16.908   4.620 114.115  1.00  0.00     0.193 C 
HETATM   17  O   UNL     1      17.574  -1.466 118.713  1.00  0.00    -0.253 OA
HETATM   18  C   UNL     1      15.906   3.677 113.952  1.00  0.00     0.165 C 
HETATM   19  C   UNL     1      14.846   5.124 112.343  1.00  0.00     0.223 C 
HETATM   20  N   UNL     1      14.882   3.871 113.089  1.00  0.00    -0.364 N 
ATOM     21  HN  UNL     1      14.159   3.163 112.964  1.00  0.00     0.161 HD
HETATM   22  N   UNL     1      17.527   0.455 117.534  1.00  0.00    -0.119 NA
HETATM   23  C   UNL     1      17.506   2.861 115.212  1.00  0.00     0.197 C 
HETATM   24  O   UNL     1      16.611   5.931 113.835  1.00  0.00    -0.269 OA
HETATM   25  C   UNL     1      16.319   1.133 117.308  1.00  0.00     0.185 A 
HETATM   26  C   UNL     1      17.236   3.734 119.744  1.00  0.00     0.018 A 
HETATM   27  C   UNL     1      16.283   3.150 118.907  1.00  0.00     0.101 A 
ENDROOT
BRANCH   2  28
HETATM   28  C   UNL     1      17.858  -3.067 116.465  1.00  0.00     0.134 C 
BRANCH  28  29
HETATM   29  C   UNL     1      16.611  -3.783 116.061  1.00  0.00     0.133 C 
BRANCH  29  30
HETATM   30  C   UNL     1      15.239  -3.236 115.757  1.00  0.00     0.174 C 
HETATM   31  O   UNL     1      14.762  -3.309 114.624  1.00  0.00    -0.648 OA
HETATM   32  O   UNL     1      14.678  -2.671 116.747  1.00  0.00    -0.648 OA
ENDBRANCH  29  30
ENDBRANCH  28  29
ENDBRANCH   2  28
BRANCH   7  33
HETATM   33  O   UNL     1      15.278   7.469 112.688  1.00  0.00    -0.342 OA
ATOM     34  HO  UNL     1      15.038   7.324 111.780  1.00  0.00     0.215 HD
ENDBRANCH   7  33
BRANCH   7  35
HETATM   35  O   UNL     1      14.445   6.298 114.425  1.00  0.00    -0.342 OA
ATOM     36  HO  UNL     1      13.765   6.933 114.234  1.00  0.00     0.215 HD
ENDBRANCH   7  35
TORSDOF 5
ENDMDL
MODEL 6
REMARK VINA RESULT:      -7.4      3.867      6.394
REMARK  5 active torsions:
REMARK  status: ('A' for Active; 'I' for Inactive)
REMARK       I    between atoms: N_3  and  C_9 
REMARK    1  A    between atoms: N_3  and  C_35 
REMARK    2  A    between atoms: O_5  and  C_12 
REMARK    3  A    between atoms: C_8  and  C_27 
REMARK    4  A    between atoms: C_8  and  C_35 
REMARK       I    between atoms: C_9  and  N_30 
REMARK    5  A    between atoms: C_12  and  O_16 
REMARK       I    between atoms: N_18  and  C_22 
REMARK       I    between atoms: N_20  and  C_22 
ROOT
HETATM    1  C   UNL     1      15.724   4.364 114.217  1.00  0.00     0.106 A 
HETATM    2  N   UNL     1      16.482   1.020 115.438  1.00  0.00    -0.346 N 
ATOM      3  HN  UNL     1      16.668   1.339 116.388  1.00  0.00     0.163 HD
HETATM    4  C   UNL     1      16.314   1.929 114.438  1.00  0.00     0.309 C 
HETATM    5  N   UNL     1      16.049   6.212 118.248  1.00  0.00    -0.329 N 
ATOM      6  HN  UNL     1      15.090   6.559 118.283  1.00  0.00     0.168 HD
HETATM    7  C   UNL     1      18.681   8.333 119.777  1.00  0.00     0.301 C 
HETATM    8  O   UNL     1      19.801   3.893 117.566  1.00  0.00    -0.246 OA
HETATM    9  C   UNL     1      14.748   6.238 113.149  1.00  0.00     0.005 A 
HETATM   10  N   UNL     1      16.895   5.040 114.348  1.00  0.00    -0.287 N 
HETATM   11  N   UNL     1      18.535   3.792 115.774  1.00  0.00    -0.283 N 
ATOM     12  HN  UNL     1      19.278   3.229 115.359  1.00  0.00     0.173 HD
HETATM   13  N   UNL     1      17.849   5.033 117.700  1.00  0.00    -0.242 N 
HETATM   14  C   UNL     1      14.640   4.904 113.545  1.00  0.00     0.044 A 
HETATM   15  C   UNL     1      18.744   4.224 117.026  1.00  0.00     0.335 C 
HETATM   16  C   UNL     1      17.110   6.733 118.899  1.00  0.00     0.193 C 
HETATM   17  O   UNL     1      16.195   1.622 113.271  1.00  0.00    -0.253 OA
HETATM   18  C   UNL     1      18.196   5.890 118.719  1.00  0.00     0.165 C 
HETATM   19  C   UNL     1      19.383   7.102 120.431  1.00  0.00     0.223 C 
HETATM   20  N   UNL     1      19.326   6.021 119.452  1.00  0.00    -0.364 N 
ATOM     21  HN  UNL     1      20.112   5.385 119.323  1.00  0.00     0.161 HD
HETATM   22  N   UNL     1      16.280   3.270 114.806  1.00  0.00    -0.119 NA
HETATM   23  C   UNL     1      16.484   5.166 117.554  1.00  0.00     0.197 C 
HETATM   24  O   UNL     1      17.346   7.987 119.402  1.00  0.00    -0.269 OA
HETATM   25  C   UNL     1      17.452   4.018 114.998  1.00  0.00     0.185 A 
HETATM   26  C   UNL     1      15.960   6.929 113.312  1.00  0.00     0.018 A 
HETATM   27  C   UNL     1      17.077   6.299 113.866  1.00  0.00     0.101 A 
ENDROOT
BRANCH   2  28
HETATM   28  C   UNL     1      16.397  -0.407 115.152  1.00  0.00     0.134 C 
BRANCH  28  29
HETATM   29  C   UNL     1      15.889  -1.162 116.338  1.00  0.00     0.133 C 
BRANCH  29  30
HETATM   30  C   UNL     1      14.887  -0.751 117.386  1.00  0.00     0.174 C 
HETATM   31  O   UNL     1      14.872   0.393 117.840  1.00  0.00    -0.648 OA
HETATM   32  O   UNL     1      14.125  -1.694 117.769  1.00  0.00    -0.648 OA
ENDBRANCH  29  30
ENDBRANCH  28  29
ENDBRANCH   2  28
BRANCH   7  33
HETATM   33  O   UNL     1      18.721   9.408 120.647  1.00  0.00    -0.342 OA
ATOM     34  HO  UNL     1      19.189   9.139 121.429  1.00  0.00     0.215 HD
ENDBRANCH   7  33
BRANCH   7  35
HETATM   35  O   UNL     1      19.355   8.695 118.604  1.00  0.00    -0.342 OA
ATOM     36  HO  UNL     1      18.715   8.780 117.908  1.00  0.00     0.215 HD
ENDBRANCH   7  35
TORSDOF 5
ENDMDL
MODEL 7
REMARK VINA RESULT:      -7.3      3.684      8.924
REMARK  5 active torsions:
REMARK  status: ('A' for Active; 'I' for Inactive)
REMARK       I    between atoms: N_3  and  C_9 
REMARK    1  A    between atoms: N_3  and  C_35 
REMARK    2  A    between atoms: O_5  and  C_12 
REMARK    3  A    between atoms: C_8  and  C_27 
REMARK    4  A    between atoms: C_8  and  C_35 
REMARK       I    between atoms: C_9  and  N_30 
REMARK    5  A    between atoms: C_12  and  O_16 
REMARK       I    between atoms: N_18  and  C_22 
REMARK       I    between atoms: N_20  and  C_22 
ROOT
HETATM    1  C   UNL     1      16.788   8.138 114.701  1.00  0.00     0.106 A 
HETATM    2  N   UNL     1      18.333   7.325 111.508  1.00  0.00    -0.346 N 
ATOM      3  HN  UNL     1      17.907   6.399 111.464  1.00  0.00     0.163 HD
HETATM    4  C   UNL     1      18.241   8.060 112.650  1.00  0.00     0.309 C 
HETATM    5  N   UNL     1      14.400   4.389 114.818  1.00  0.00    -0.329 N 
ATOM      6  HN  UNL     1      13.488   4.845 114.837  1.00  0.00     0.168 HD
HETATM    7  C   UNL     1      14.792   1.285 116.811  1.00  0.00     0.301 C 
HETATM    8  O   UNL     1      18.648   3.213 114.115  1.00  0.00    -0.246 OA
HETATM    9  C   UNL     1      15.667   9.217 116.486  1.00  0.00     0.005 A 
HETATM   10  N   UNL     1      17.328   7.245 115.570  1.00  0.00    -0.287 N 
HETATM   11  N   UNL     1      18.519   5.390 114.377  1.00  0.00    -0.283 N 
ATOM     12  HN  UNL     1      19.532   5.400 114.257  1.00  0.00     0.173 HD
HETATM   13  N   UNL     1      16.567   4.014 114.510  1.00  0.00    -0.242 N 
HETATM   14  C   UNL     1      16.009   9.198 115.133  1.00  0.00     0.044 A 
HETATM   15  C   UNL     1      17.925   4.190 114.320  1.00  0.00     0.335 C 
HETATM   16  C   UNL     1      14.694   3.169 115.315  1.00  0.00     0.193 C 
HETATM   17  O   UNL     1      18.810   9.119 112.809  1.00  0.00    -0.253 OA
HETATM   18  C   UNL     1      15.992   2.846 114.954  1.00  0.00     0.165 C 
HETATM   19  C   UNL     1      15.596   0.580 115.673  1.00  0.00     0.223 C 
HETATM   20  N   UNL     1      16.478   1.591 115.098  1.00  0.00    -0.364 N 
ATOM     21  HN  UNL     1      17.429   1.359 114.814  1.00  0.00     0.161 HD
HETATM   22  N   UNL     1      17.446   7.544 113.667  1.00  0.00    -0.119 NA
HETATM   23  C   UNL     1      15.518   4.885 114.299  1.00  0.00     0.197 C 
HETATM   24  O   UNL     1      14.085   2.407 116.280  1.00  0.00    -0.269 OA
HETATM   25  C   UNL     1      17.928   6.589 114.576  1.00  0.00     0.185 A 
HETATM   26  C   UNL     1      16.220   8.272 117.368  1.00  0.00     0.018 A 
HETATM   27  C   UNL     1      17.117   7.303 116.913  1.00  0.00     0.101 A 
ENDROOT
BRANCH   2  28
HETATM   28  C   UNL     1      19.038   7.857 110.348  1.00  0.00     0.134 C 
BRANCH  28  29
HETATM   29  C   UNL     1      20.320   7.126 110.117  1.00  0.00     0.133 C 
BRANCH  29  30
HETATM   30  C   UNL     1      21.591   7.128 110.928  1.00  0.00     0.174 C 
HETATM   31  O   UNL     1      21.573   7.343 112.140  1.00  0.00    -0.648 OA
HETATM   32  O   UNL     1      22.643   6.941 110.240  1.00  0.00    -0.648 OA
ENDBRANCH  29  30
ENDBRANCH  28  29
ENDBRANCH   2  28
BRANCH   7  33
HETATM   33  O   UNL     1      13.949   0.371 117.419  1.00  0.00    -0.342 OA
ATOM     34  HO  UNL     1      13.186   0.256 116.864  1.00  0.00     0.215 HD
ENDBRANCH   7  33
BRANCH   7  35
HETATM   35  O   UNL     1      15.675   1.777 117.779  1.00  0.00    -0.342 OA
ATOM     36  HO  UNL     1      15.196   2.374 118.342  1.00  0.00     0.215 HD
ENDBRANCH   7  35
TORSDOF 5
ENDMDL
MODEL 8
REMARK VINA RESULT:      -7.2      4.622     10.130
REMARK  5 active torsions:
REMARK  status: ('A' for Active; 'I' for Inactive)
REMARK       I    between atoms: N_3  and  C_9 
REMARK    1  A    between atoms: N_3  and  C_35 
REMARK    2  A    between atoms: O_5  and  C_12 
REMARK    3  A    between atoms: C_8  and  C_27 
REMARK    4  A    between atoms: C_8  and  C_35 
REMARK       I    between atoms: C_9  and  N_30 
REMARK    5  A    between atoms: C_12  and  O_16 
REMARK       I    between atoms: N_18  and  C_22 
REMARK       I    between atoms: N_20  and  C_22 
ROOT
HETATM    1  C   UNL     1      19.462   8.464 112.741  1.00  0.00     0.106 A 
HETATM    2  N   UNL     1      18.647  10.446 115.682  1.00  0.00    -0.346 N 
ATOM      3  HN  UNL     1      18.316   9.641 116.213  1.00  0.00     0.163 HD
HETATM    4  C   UNL     1      18.927  10.315 114.356  1.00  0.00     0.309 C 
HETATM    5  N   UNL     1      18.504   4.605 114.731  1.00  0.00    -0.329 N 
ATOM      6  HN  UNL     1      19.436   4.202 114.635  1.00  0.00     0.168 HD
HETATM    7  C   UNL     1      15.613   2.307 114.379  1.00  0.00     0.301 C 
HETATM    8  O   UNL     1      14.965   7.271 115.273  1.00  0.00    -0.246 OA
HETATM    9  C   UNL     1      20.520   7.523 110.843  1.00  0.00     0.005 A 
HETATM   10  N   UNL     1      18.263   7.984 112.319  1.00  0.00    -0.287 N 
HETATM   11  N   UNL     1      16.477   8.292 114.050  1.00  0.00    -0.283 N 
ATOM     12  HN  UNL     1      15.820   9.070 114.002  1.00  0.00     0.173 HD
HETATM   13  N   UNL     1      16.840   6.070 114.859  1.00  0.00    -0.242 N 
HETATM   14  C   UNL     1      20.613   8.322 111.983  1.00  0.00     0.044 A 
HETATM   15  C   UNL     1      16.077   7.217 114.745  1.00  0.00     0.335 C 
HETATM   16  C   UNL     1      17.344   3.921 114.822  1.00  0.00     0.193 C 
HETATM   17  O   UNL     1      19.221  11.250 113.641  1.00  0.00    -0.253 OA
HETATM   18  C   UNL     1      16.323   4.817 115.098  1.00  0.00     0.165 C 
HETATM   19  C   UNL     1      14.864   2.961 115.582  1.00  0.00     0.223 C 
HETATM   20  N   UNL     1      15.096   4.399 115.486  1.00  0.00    -0.364 N 
ATOM     21  HN  UNL     1      14.357   5.067 115.703  1.00  0.00     0.161 HD
HETATM   22  N   UNL     1      18.864   9.032 113.823  1.00  0.00    -0.119 NA
HETATM   23  C   UNL     1      18.207   5.898 114.790  1.00  0.00     0.197 C 
HETATM   24  O   UNL     1      16.998   2.655 114.422  1.00  0.00    -0.269 OA
HETATM   25  C   UNL     1      17.652   8.460 113.404  1.00  0.00     0.185 A 
HETATM   26  C   UNL     1      19.275   7.017 110.433  1.00  0.00     0.018 A 
HETATM   27  C   UNL     1      18.112   7.304 111.150  1.00  0.00     0.101 A 
ENDROOT
BRANCH   2  28
HETATM   28  C   UNL     1      18.818  11.733 116.344  1.00  0.00     0.134 C 
BRANCH  28  29
HETATM   29  C   UNL     1      17.498  12.328 116.712  1.00  0.00     0.133 C 
BRANCH  29  30
HETATM   30  C   UNL     1      16.113  11.739 116.614  1.00  0.00     0.174 C 
HETATM   31  O   UNL     1      15.321  11.815 117.554  1.00  0.00    -0.648 OA
HETATM   32  O   UNL     1      15.885  11.136 115.519  1.00  0.00    -0.648 OA
ENDBRANCH  29  30
ENDBRANCH  28  29
ENDBRANCH   2  28
BRANCH   7  33
HETATM   33  O   UNL     1      15.413   0.938 114.395  1.00  0.00    -0.342 OA
ATOM     34  HO  UNL     1      14.479   0.774 114.345  1.00  0.00     0.215 HD
ENDBRANCH   7  33
BRANCH   7  35
HETATM   35  O   UNL     1      15.102   2.808 113.175  1.00  0.00    -0.342 OA
ATOM     36  HO  UNL     1      14.387   2.246 112.899  1.00  0.00     0.215 HD
ENDBRANCH   7  35
TORSDOF 5
ENDMDL
MODEL 9
REMARK VINA RESULT:      -7.2      3.626      7.226
REMARK  5 active torsions:
REMARK  status: ('A' for Active; 'I' for Inactive)
REMARK       I    between atoms: N_3  and  C_9 
REMARK    1  A    between atoms: N_3  and  C_35 
REMARK    2  A    between atoms: O_5  and  C_12 
REMARK    3  A    between atoms: C_8  and  C_27 
REMARK    4  A    between atoms: C_8  and  C_35 
REMARK       I    between atoms: C_9  and  N_30 
REMARK    5  A    between atoms: C_12  and  O_16 
REMARK       I    between atoms: N_18  and  C_22 
REMARK       I    between atoms: N_20  and  C_22 
ROOT
HETATM    1  C   UNL     1      16.804   1.648 114.547  1.00  0.00     0.106 A 
HETATM    2  N   UNL     1      17.040   4.938 113.011  1.00  0.00    -0.346 N 
ATOM      3  HN  UNL     1      17.430   5.372 113.847  1.00  0.00     0.163 HD
HETATM    4  C   UNL     1      16.556   3.667 113.069  1.00  0.00     0.309 C 
HETATM    5  N   UNL     1      18.814   2.944 118.295  1.00  0.00    -0.329 N 
ATOM      6  HN  UNL     1      19.598   2.295 118.224  1.00  0.00     0.168 HD
HETATM    7  C   UNL     1      17.482   3.641 121.686  1.00  0.00     0.301 C 
HETATM    8  O   UNL     1      15.469   5.803 117.548  1.00  0.00    -0.246 OA
HETATM    9  C   UNL     1      16.895  -0.676 114.993  1.00  0.00     0.005 A 
HETATM   10  N   UNL     1      15.902   1.812 115.550  1.00  0.00    -0.287 N 
HETATM   11  N   UNL     1      15.455   4.234 116.011  1.00  0.00    -0.283 N 
ATOM     12  HN  UNL     1      14.634   4.704 115.630  1.00  0.00     0.173 HD
HETATM   13  N   UNL     1      17.083   4.230 117.763  1.00  0.00    -0.242 N 
HETATM   14  C   UNL     1      17.269   0.395 114.180  1.00  0.00     0.044 A 
HETATM   15  C   UNL     1      15.997   4.780 117.108  1.00  0.00     0.335 C 
HETATM   16  C   UNL     1      18.311   3.468 119.432  1.00  0.00     0.193 C 
HETATM   17  O   UNL     1      15.985   3.128 112.145  1.00  0.00    -0.253 OA
HETATM   18  C   UNL     1      17.360   4.420 119.098  1.00  0.00     0.165 C 
HETATM   19  C   UNL     1      17.345   5.167 121.389  1.00  0.00     0.223 C 
HETATM   20  N   UNL     1      16.865   5.282 120.015  1.00  0.00    -0.364 N 
ATOM     21  HN  UNL     1      16.179   5.990 119.755  1.00  0.00     0.161 HD
HETATM   22  N   UNL     1      16.742   2.977 114.262  1.00  0.00    -0.119 NA
HETATM   23  C   UNL     1      18.100   3.430 117.285  1.00  0.00     0.197 C 
HETATM   24  O   UNL     1      18.360   3.038 120.734  1.00  0.00    -0.269 OA
HETATM   25  C   UNL     1      15.872   3.130 115.353  1.00  0.00     0.185 A 
HETATM   26  C   UNL     1      15.977  -0.484 116.039  1.00  0.00     0.018 A 
HETATM   27  C   UNL     1      15.421   0.773 116.285  1.00  0.00     0.101 A 
ENDROOT
BRANCH   2  28
HETATM   28  C   UNL     1      17.002   5.680 111.757  1.00  0.00     0.134 C 
BRANCH  28  29
HETATM   29  C   UNL     1      16.601   7.101 111.985  1.00  0.00     0.133 C 
BRANCH  29  30
HETATM   30  C   UNL     1      15.824   7.713 113.123  1.00  0.00     0.174 C 
HETATM   31  O   UNL     1      16.162   8.788 113.619  1.00  0.00    -0.648 OA
HETATM   32  O   UNL     1      14.853   7.000 113.527  1.00  0.00    -0.648 OA
ENDBRANCH  29  30
ENDBRANCH  28  29
ENDBRANCH   2  28
BRANCH   7  33
HETATM   33  O   UNL     1      17.912   3.458 122.989  1.00  0.00    -0.342 OA
ATOM     34  HO  UNL     1      17.851   4.291 123.441  1.00  0.00     0.215 HD
ENDBRANCH   7  33
BRANCH   7  35
HETATM   35  O   UNL     1      16.236   3.018 121.546  1.00  0.00    -0.342 OA
ATOM     36  HO  UNL     1      15.668   3.598 121.052  1.00  0.00     0.215 HD
ENDBRANCH   7  35
TORSDOF 5
ENDMDL
