MODEL 1
REMARK VINA RESULT:      -9.6      0.000      0.000
REMARK  4 active torsions:
REMARK  status: ('A' for Active; 'I' for Inactive)
REMARK    1  A    between atoms: O_4  and  C_8 
REMARK    2  A    between atoms: C_8  and  C_12 
REMARK    3  A    between atoms: C_8  and  O_13 
REMARK    4  A    between atoms: C_8  and  O_24 
ROOT
HETATM    1  C   UNL     1      -1.056   7.777  20.958  1.00  0.00     0.142 C 
HETATM    2  O   UNL     1       6.365   4.406  14.669  1.00  0.00    -0.292 OA
HETATM    3  C   UNL     1       7.565   5.991  15.925  1.00  0.00     0.011 C 
HETATM    4  C   UNL     1       8.593   6.093  14.984  1.00  0.00     0.016 C 
HETATM    5  C   UNL     1       1.489   8.539  20.144  1.00  0.00    -0.003 C 
HETATM    6  C   UNL     1       0.760   7.579  19.392  1.00  0.00    -0.022 C 
HETATM    7  C   UNL     1       6.342   5.164  15.628  1.00  0.00     0.159 C 
HETATM    8  C   UNL     1       2.873   8.819  20.044  1.00  0.00     0.026 C 
HETATM    9  C   UNL     1      10.190   7.736  15.995  1.00  0.00     0.034 C 
HETATM   10  C   UNL     1       3.780   8.256  19.148  1.00  0.00    -0.026 C 
HETATM   11  C   UNL     1       8.093   7.914  17.392  1.00  0.00    -0.032 C 
HETATM   12  C   UNL     1       5.056   8.857  18.980  1.00  0.00    -0.065 C 
HETATM   13  C   UNL     1       6.805  10.141  17.971  1.00  0.00     0.040 C 
HETATM   14  C   UNL     1       3.432   7.030  18.412  1.00  0.00    -0.048 C 
HETATM   15  C   UNL     1       4.387   4.930  17.331  1.00  0.00     0.012 C 
HETATM   16  C   UNL     1       5.408  10.261  18.570  1.00  0.00     0.040 C 
HETATM   17  C   UNL     1       9.339   8.377  16.907  1.00  0.00     0.027 C 
HETATM   18  C   UNL     1       2.339   7.093  17.534  1.00  0.00     0.009 C 
HETATM   19  C   UNL     1       7.681   6.583  17.184  1.00  0.00     0.026 C 
HETATM   20  C   UNL     1      -0.384   7.000  20.015  1.00  0.00     0.037 C 
HETATM   21  C   UNL     1       9.831   6.661  15.208  1.00  0.00     0.016 C 
HETATM   22  C   UNL     1       0.787   9.282  21.113  1.00  0.00     0.153 C 
HETATM   23  C   UNL     1       5.028   5.705  16.175  1.00  0.00     0.084 C 
HETATM   24  C   UNL     1       4.236   5.758  18.614  1.00  0.00     0.040 C 
HETATM   25  C   UNL     1       1.041   7.241  18.051  1.00  0.00     0.013 C 
HETATM   26  C   UNL     1       7.215   8.710  18.190  1.00  0.00    -0.065 C 
HETATM   27  C   UNL     1       6.296   8.079  19.154  1.00  0.00     0.070 C 
HETATM   28  O   UNL     1      -0.460   8.876  21.516  1.00  0.00    -0.334 OA
ENDROOT
BRANCH   9  29
HETATM   29  C   UNL     1      11.656   8.224  15.816  1.00  0.00     0.307 C 
BRANCH  29  30
HETATM   30  O   UNL     1      11.959   8.070  14.445  1.00  0.00    -0.340 OA
ATOM     31  HO  UNL     1      11.560   8.808  13.998  1.00  0.00     0.216 HD
ENDBRANCH  29  30
BRANCH  29  32
HETATM   32  O   UNL     1      11.789   9.561  16.105  1.00  0.00    -0.340 OA
ATOM     33  HO  UNL     1      11.054  10.005  15.697  1.00  0.00     0.216 HD
ENDBRANCH  29  32
BRANCH  29  34
HETATM   34  O   UNL     1      12.532   7.531  16.546  1.00  0.00    -0.340 OA
ATOM     35  HO  UNL     1      12.065   6.962  17.146  1.00  0.00     0.216 HD
ENDBRANCH  29  34
ENDBRANCH   9  29
TORSDOF 4
ENDMDL
MODEL 2
REMARK VINA RESULT:      -7.9      1.986      8.984
REMARK  4 active torsions:
REMARK  status: ('A' for Active; 'I' for Inactive)
REMARK    1  A    between atoms: O_4  and  C_8 
REMARK    2  A    between atoms: C_8  and  C_12 
REMARK    3  A    between atoms: C_8  and  O_13 
REMARK    4  A    between atoms: C_8  and  O_24 
ROOT
HETATM    1  C   UNL     1      12.353   8.298  15.655  1.00  0.00     0.142 C 
HETATM    2  O   UNL     1       3.467  10.410  20.403  1.00  0.00    -0.292 OA
HETATM    3  C   UNL     1       2.878   8.438  19.266  1.00  0.00     0.011 C 
HETATM    4  C   UNL     1       1.505   8.679  19.370  1.00  0.00     0.016 C 
HETATM    5  C   UNL     1       9.687   7.528  15.521  1.00  0.00    -0.003 C 
HETATM    6  C   UNL     1      10.049   8.716  16.210  1.00  0.00    -0.022 C 
HETATM    7  C   UNL     1       3.869   9.473  19.729  1.00  0.00     0.159 C 
HETATM    8  C   UNL     1       8.448   6.847  15.602  1.00  0.00     0.026 C 
HETATM    9  C   UNL     1       0.448   6.696  18.263  1.00  0.00     0.034 C 
HETATM   10  C   UNL     1       7.320   7.242  16.319  1.00  0.00    -0.026 C 
HETATM   11  C   UNL     1       2.893   6.568  17.644  1.00  0.00    -0.032 C 
HETATM   12  C   UNL     1       6.074   6.612  16.057  1.00  0.00    -0.065 C 
HETATM   13  C   UNL     1       3.859   6.312  15.203  1.00  0.00     0.040 C 
HETATM   14  C   UNL     1       7.427   8.273  17.363  1.00  0.00    -0.048 C 
HETATM   15  C   UNL     1       6.439   9.094  19.563  1.00  0.00     0.012 C 
HETATM   16  C   UNL     1       5.307   6.503  14.766  1.00  0.00     0.040 C 
HETATM   17  C   UNL     1       1.525   6.245  17.486  1.00  0.00     0.027 C 
HETATM   18  C   UNL     1       7.834   9.555  16.964  1.00  0.00     0.009 C 
HETATM   19  C   UNL     1       3.360   7.210  18.807  1.00  0.00     0.026 C 
HETATM   20  C   UNL     1      11.431   8.892  16.515  1.00  0.00     0.037 C 
HETATM   21  C   UNL     1       0.510   7.747  19.156  1.00  0.00     0.016 C 
HETATM   22  C   UNL     1      10.654   6.932  14.688  1.00  0.00     0.153 C 
HETATM   23  C   UNL     1       5.145   9.583  18.905  1.00  0.00     0.084 C 
HETATM   24  C   UNL     1       7.110   7.938  18.809  1.00  0.00     0.040 C 
HETATM   25  C   UNL     1       9.152   9.759  16.521  1.00  0.00     0.013 C 
HETATM   26  C   UNL     1       3.902   6.196  16.702  1.00  0.00    -0.065 C 
HETATM   27  C   UNL     1       5.293   5.982  17.137  1.00  0.00     0.070 C 
HETATM   28  O   UNL     1      11.969   7.313  14.785  1.00  0.00    -0.334 OA
ENDROOT
BRANCH   9  29
HETATM   29  C   UNL     1      -0.939   6.001  18.158  1.00  0.00     0.307 C 
BRANCH  29  30
HETATM   30  O   UNL     1      -0.760   4.884  17.313  1.00  0.00    -0.340 OA
ATOM     31  HO  UNL     1      -1.629   4.618  17.034  1.00  0.00     0.216 HD
ENDBRANCH  29  30
BRANCH  29  32
HETATM   32  O   UNL     1      -1.361   5.516  19.374  1.00  0.00    -0.340 OA
ATOM     33  HO  UNL     1      -1.665   6.262  19.878  1.00  0.00     0.216 HD
ENDBRANCH  29  32
BRANCH  29  34
HETATM   34  O   UNL     1      -1.887   6.795  17.654  1.00  0.00    -0.340 OA
ATOM     35  HO  UNL     1      -2.440   7.115  18.357  1.00  0.00     0.216 HD
ENDBRANCH  29  34
ENDBRANCH   9  29
TORSDOF 4
ENDMDL
MODEL 3
REMARK VINA RESULT:      -7.7      2.304      4.427
REMARK  4 active torsions:
REMARK  status: ('A' for Active; 'I' for Inactive)
REMARK    1  A    between atoms: O_4  and  C_8 
REMARK    2  A    between atoms: C_8  and  C_12 
REMARK    3  A    between atoms: C_8  and  O_13 
REMARK    4  A    between atoms: C_8  and  O_24 
ROOT
HETATM    1  C   UNL     1      -4.065   6.366  18.837  1.00  0.00     0.142 C 
HETATM    2  O   UNL     1       5.352  10.134  20.598  1.00  0.00    -0.292 OA
HETATM    3  C   UNL     1       5.761   8.870  18.657  1.00  0.00     0.011 C 
HETATM    4  C   UNL     1       7.141   8.825  18.867  1.00  0.00     0.016 C 
HETATM    5  C   UNL     1      -1.450   5.901  18.020  1.00  0.00    -0.003 C 
HETATM    6  C   UNL     1      -1.704   6.667  19.189  1.00  0.00    -0.022 C 
HETATM    7  C   UNL     1       4.854   9.479  19.694  1.00  0.00     0.159 C 
HETATM    8  C   UNL     1      -0.227   5.816  17.313  1.00  0.00     0.026 C 
HETATM    9  C   UNL     1       8.018   7.537  16.906  1.00  0.00     0.034 C 
HETATM   10  C   UNL     1       0.985   6.412  17.659  1.00  0.00    -0.026 C 
HETATM   11  C   UNL     1       5.516   7.198  16.849  1.00  0.00    -0.032 C 
HETATM   12  C   UNL     1       2.177   5.988  17.014  1.00  0.00    -0.065 C 
HETATM   13  C   UNL     1       4.273   4.876  16.702  1.00  0.00     0.040 C 
HETATM   14  C   UNL     1       1.021   7.496  18.653  1.00  0.00    -0.048 C 
HETATM   15  C   UNL     1       2.272   9.595  19.373  1.00  0.00     0.012 C 
HETATM   16  C   UNL     1       2.789   4.615  16.938  1.00  0.00     0.040 C 
HETATM   17  C   UNL     1       6.850   6.873  16.506  1.00  0.00     0.027 C 
HETATM   18  C   UNL     1       0.603   7.191  19.957  1.00  0.00     0.009 C 
HETATM   19  C   UNL     1       5.200   8.428  17.457  1.00  0.00     0.026 C 
HETATM   20  C   UNL     1      -3.037   7.134  19.382  1.00  0.00     0.037 C 
HETATM   21  C   UNL     1       8.083   8.466  17.925  1.00  0.00     0.016 C 
HETATM   22  C   UNL     1      -2.520   5.164  17.475  1.00  0.00     0.153 C 
HETATM   23  C   UNL     1       3.495   8.810  19.860  1.00  0.00     0.084 C 
HETATM   24  C   UNL     1       1.493   8.885  18.259  1.00  0.00     0.040 C 
HETATM   25  C   UNL     1      -0.752   6.909  20.202  1.00  0.00     0.013 C 
HETATM   26  C   UNL     1       4.398   6.365  16.532  1.00  0.00    -0.065 C 
HETATM   27  C   UNL     1       3.061   6.949  16.329  1.00  0.00     0.070 C 
HETATM   28  O   UNL     1      -3.806   5.424  17.877  1.00  0.00    -0.334 OA
ENDROOT
BRANCH   9  29
HETATM   29  C   UNL     1       9.368   7.250  16.188  1.00  0.00     0.307 C 
BRANCH  29  30
HETATM   30  O   UNL     1       9.671   8.408  15.438  1.00  0.00    -0.340 OA
ATOM     31  HO  UNL     1      10.580   8.325  15.175  1.00  0.00     0.216 HD
ENDBRANCH  29  30
BRANCH  29  32
HETATM   32  O   UNL     1      10.396   7.077  17.084  1.00  0.00    -0.340 OA
ATOM     33  HO  UNL     1      10.052   6.554  17.800  1.00  0.00     0.216 HD
ENDBRANCH  29  32
BRANCH  29  34
HETATM   34  O   UNL     1       9.315   6.193  15.375  1.00  0.00    -0.340 OA
ATOM     35  HO  UNL     1       8.583   5.639  15.622  1.00  0.00     0.216 HD
ENDBRANCH  29  34
ENDBRANCH   9  29
TORSDOF 4
ENDMDL
MODEL 4
REMARK VINA RESULT:      -7.7      1.390      1.906
REMARK  4 active torsions:
REMARK  status: ('A' for Active; 'I' for Inactive)
REMARK    1  A    between atoms: O_4  and  C_8 
REMARK    2  A    between atoms: C_8  and  C_12 
REMARK    3  A    between atoms: C_8  and  O_13 
REMARK    4  A    between atoms: C_8  and  O_24 
ROOT
HETATM    1  C   UNL     1      -2.741   7.005  21.170  1.00  0.00     0.142 C 
HETATM    2  O   UNL     1       4.718   5.470  14.243  1.00  0.00    -0.292 OA
HETATM    3  C   UNL     1       5.905   6.670  15.881  1.00  0.00     0.011 C 
HETATM    4  C   UNL     1       6.935   7.025  15.006  1.00  0.00     0.016 C 
HETATM    5  C   UNL     1      -0.199   7.971  20.600  1.00  0.00    -0.003 C 
HETATM    6  C   UNL     1      -0.919   7.242  19.616  1.00  0.00    -0.022 C 
HETATM    7  C   UNL     1       4.688   5.945  15.369  1.00  0.00     0.159 C 
HETATM    8  C   UNL     1       1.184   8.274  20.585  1.00  0.00     0.026 C 
HETATM    9  C   UNL     1       8.519   8.347  16.425  1.00  0.00     0.034 C 
HETATM   10  C   UNL     1       2.097   7.975  19.574  1.00  0.00    -0.026 C 
HETATM   11  C   UNL     1       6.417   8.135  17.809  1.00  0.00    -0.032 C 
HETATM   12  C   UNL     1       3.370   8.606  19.579  1.00  0.00    -0.065 C 
HETATM   13  C   UNL     1       5.113  10.121  18.955  1.00  0.00     0.040 C 
HETATM   14  C   UNL     1       1.759   6.988  18.537  1.00  0.00    -0.048 C 
HETATM   15  C   UNL     1       2.730   5.257  16.941  1.00  0.00     0.012 C 
HETATM   16  C   UNL     1       3.714  10.070  19.559  1.00  0.00     0.040 C 
HETATM   17  C   UNL     1       7.661   8.718  17.471  1.00  0.00     0.027 C 
HETATM   18  C   UNL     1       0.668   7.276  17.703  1.00  0.00     0.009 C 
HETATM   19  C   UNL     1       6.014   6.906  17.253  1.00  0.00     0.026 C 
HETATM   20  C   UNL     1      -2.061   6.512  20.058  1.00  0.00     0.037 C 
HETATM   21  C   UNL     1       8.168   7.518  15.379  1.00  0.00     0.016 C 
HETATM   22  C   UNL     1      -0.908   8.425  21.730  1.00  0.00     0.153 C 
HETATM   23  C   UNL     1       3.369   6.315  16.035  1.00  0.00     0.084 C 
HETATM   24  C   UNL     1       2.570   5.712  18.397  1.00  0.00     0.040 C 
HETATM   25  C   UNL     1      -0.632   7.274  18.235  1.00  0.00     0.013 C 
HETATM   26  C   UNL     1       5.532   8.686  18.787  1.00  0.00    -0.065 C 
HETATM   27  C   UNL     1       4.614   7.816  19.544  1.00  0.00     0.070 C 
HETATM   28  O   UNL     1      -2.154   7.919  22.004  1.00  0.00    -0.334 OA
ENDROOT
BRANCH   9  29
HETATM   29  C   UNL     1       9.982   8.873  16.388  1.00  0.00     0.307 C 
BRANCH  29  30
HETATM   30  O   UNL     1      10.812   7.751  16.609  1.00  0.00    -0.340 OA
ATOM     31  HO  UNL     1      11.150   7.839  17.493  1.00  0.00     0.216 HD
ENDBRANCH  29  30
BRANCH  29  32
HETATM   32  O   UNL     1      10.314   9.375  15.152  1.00  0.00    -0.340 OA
ATOM     33  HO  UNL     1       9.513   9.397  14.640  1.00  0.00     0.216 HD
ENDBRANCH  29  32
BRANCH  29  34
HETATM   34  O   UNL     1      10.230   9.800  17.316  1.00  0.00    -0.340 OA
ATOM     35  HO  UNL     1      10.277  10.656  16.904  1.00  0.00     0.216 HD
ENDBRANCH  29  34
ENDBRANCH   9  29
TORSDOF 4
ENDMDL
