REMARK  3 active torsions:
REMARK  status: ('A' for Active; 'I' for Inactive)
REMARK    1  A    between atoms: C_7  and  C_8 
REMARK    2  A    between atoms: O_13  and  C_20 
REMARK    3  A    between atoms: O_17  and  C_19 
ROOT
HETATM    1  C   UNL     1      50.030  41.588  -3.777  1.00  0.00     0.033 C 
HETATM    2  C   UNL     1      49.340  41.261  -4.930  1.00  0.00     0.019 C 
HETATM    3  C   UNL     1      49.851  41.047  -2.500  1.00  0.00     0.064 C 
HETATM    4  C   UNL     1      50.596  41.496  -1.344  1.00  0.00     0.061 C 
HETATM    5  N   UNL     1      48.000  39.384  -4.107  1.00  0.00    -0.355 N 
ATOM      6  HN  UNL     1      47.596  38.556  -4.545  1.00  0.00     0.166 HD
HETATM    7  C   UNL     1      47.054  38.521  -2.063  1.00  0.00     0.108 C 
HETATM    8  N   UNL     1      49.018  40.054  -2.074  1.00  0.00    -0.312 N 
HETATM    9  C   UNL     1      48.138  39.294  -2.784  1.00  0.00     0.087 C 
HETATM   10  C   UNL     1      47.594  38.051  -0.716  1.00  0.00     0.128 C 
HETATM   11  C   UNL     1      48.089  39.280   0.081  1.00  0.00     0.079 C 
HETATM   12  C   UNL     1      49.354  39.734  -0.673  1.00  0.00     0.193 C 
HETATM   13  N   UNL     1      49.937  41.009  -0.263  1.00  0.00    -0.366 N 
ATOM     14  HN  UNL     1      49.863  41.447   0.655  1.00  0.00     0.162 HD
HETATM   15  C   UNL     1      48.295  40.358  -4.952  1.00  0.00     0.089 C 
ENDROOT
BRANCH   4  16
HETATM   16  C   UNL     1      51.224  42.852  -1.505  1.00  0.00    -0.022 C 
HETATM   17  C   UNL     1      50.938  43.876  -0.419  1.00  0.00     0.154 C 
HETATM   18  C   UNL     1      52.109  44.856  -0.445  1.00  0.00     0.027 C 
HETATM   19  C   UNL     1      53.264  44.147  -1.140  1.00  0.00     0.000 C 
HETATM   20  C   UNL     1      52.419  45.271   0.994  1.00  0.00     0.035 C 
HETATM   21  C   UNL     1      54.105  45.105  -1.973  1.00  0.00     0.032 C 
HETATM   22  C   UNL     1      52.689  42.949  -1.902  1.00  0.00     0.044 C 
HETATM   23  C   UNL     1      54.603  46.305  -1.223  1.00  0.00    -0.027 C 
HETATM   24  C   UNL     1      54.430  46.571   0.148  1.00  0.00    -0.008 C 
HETATM   25  C   UNL     1      53.482  46.320   1.098  1.00  0.00    -0.026 C 
BRANCH  17  26
HETATM   26  O   UNL     1      49.718  44.543  -0.734  1.00  0.00    -0.391 OA
ATOM     27  HO  UNL     1      49.539  45.183  -0.055  1.00  0.00     0.210 HD
ENDBRANCH  17  26
ENDBRANCH   4  16
BRANCH  10  28
HETATM   28  O   UNL     1      46.618  37.303  -0.019  1.00  0.00    -0.395 OA
ATOM     29  HO  UNL     1      46.954  37.010   0.820  1.00  0.00     0.210 HD
ENDBRANCH  10  28
TORSDOF 3
