REMARK  0 active torsions:
REMARK  status: ('A' for Active; 'I' for Inactive)
ROOT
HETATM    1  C   UNL     1      20.019  23.481  28.155  1.00  0.00    -0.003 C 
HETATM    2  C   UNL     1      20.815  24.407  29.093  1.00  0.00     0.008 C 
HETATM    3  C   UNL     1      18.562  25.203  27.304  1.00  0.00     0.011 C 
HETATM    4  C   UNL     1      22.045  25.046  28.454  1.00  0.00     0.118 C 
HETATM    5  C   UNL     1      18.651  23.488  28.905  1.00  0.00     0.010 C 
HETATM    6  C   UNL     1      19.802  25.532  29.424  1.00  0.00     0.011 C 
HETATM    7  C   UNL     1      19.672  24.233  26.864  1.00  0.00     0.008 C 
HETATM    8  C   UNL     1      18.473  25.002  28.828  1.00  0.00    -0.013 C 
HETATM    9  C   UNL     1      20.860  25.030  26.258  1.00  0.00     0.118 C 
HETATM   10  N   UNL     1      22.127  24.898  26.987  1.00  0.00    -0.420 N 
ATOM     11  HN  UNL     1      23.010  24.715  26.510  1.00  0.00     0.153 HD
ENDROOT
TORSDOF 0
