REMARK  6 active torsions:
REMARK  status: ('A' for Active; 'I' for Inactive)
REMARK    1  A    between atoms: C_4  and  C_28 
REMARK    2  A    between atoms: C_8  and  C_18 
REMARK    3  A    between atoms: C_13  and  N_24 
REMARK    4  A    between atoms: C_13  and  C_33 
REMARK    5  A    between atoms: C_14  and  C_16 
REMARK       I    between atoms: C_15  and  N_24 
REMARK    6  A    between atoms: C_15  and  C_29 
ROOT
HETATM    1  C   UNL     1     -28.485  22.141 -18.611  1.00  0.00    -0.001 C 
HETATM    2  C   UNL     1     -27.744  22.656 -19.699  1.00  0.00    -0.042 C 
HETATM    3  C   UNL     1     -27.354  23.712 -17.170  1.00  0.00     0.059 C 
HETATM    4  C   UNL     1     -28.228  22.488 -21.126  1.00  0.00     0.049 C 
HETATM    5  C   UNL     1     -26.307  23.760 -18.098  1.00  0.00     0.028 C 
HETATM    6  C   UNL     1     -28.335  22.725 -17.339  1.00  0.00     0.069 C 
HETATM    7  C   UNL     1     -26.599  23.427 -19.425  1.00  0.00    -0.033 C 
ENDROOT
BRANCH   7   8
HETATM    8  C   UNL     1     -25.746  23.980 -20.544  1.00  0.00     0.161 C 
BRANCH   8   9
HETATM    9  N   UNL     1     -25.140  22.894 -21.323  1.00  0.00    -0.356 N 
HETATM   10  C   UNL     1     -24.193  22.092 -20.789  1.00  0.00     0.222 C 
HETATM   11  O   UNL     1     -24.434  21.236 -19.947  1.00  0.00    -0.273 OA
ATOM     12  HN  UNL     1     -25.440  22.742 -22.286  1.00  0.00     0.162 HD
BRANCH  10  13
HETATM   13  C   UNL     1     -22.801  22.295 -21.332  1.00  0.00     0.078 C 
HETATM   14  C   UNL     1     -21.698  21.902 -20.383  1.00  0.00     0.018 C 
HETATM   15  C   UNL     1     -20.890  20.646 -20.634  1.00  0.00    -0.014 C 
HETATM   16  C   UNL     1     -21.205  19.665 -19.510  1.00  0.00     0.010 C 
HETATM   17  C   UNL     1     -21.105  19.973 -21.991  1.00  0.00    -0.015 C 
HETATM   18  C   UNL     1     -22.196  18.914 -21.909  1.00  0.00     0.010 C 
HETATM   19  C   UNL     1     -21.449  20.979 -23.079  1.00  0.00     0.005 C 
HETATM   20  C   UNL     1     -22.675  21.809 -22.760  1.00  0.00     0.014 C 
ENDBRANCH  10  13
ENDBRANCH   8   9
ENDBRANCH   7   8
BRANCH   1  21
HETATM   21  C   UNL     1     -29.402  20.992 -18.748  1.00  0.00    -0.024 C 
HETATM   22  C   UNL     1     -30.627  21.185 -19.366  1.00  0.00     0.012 C 
HETATM   23  C   UNL     1     -31.472  20.258 -19.955  1.00  0.00     0.001 C 
HETATM   24  C   UNL     1     -31.224  18.924 -20.253  1.00  0.00     0.000 C 
HETATM   25  C   UNL     1     -30.471  18.105 -19.431  1.00  0.00     0.000 C 
HETATM   26  C   UNL     1     -29.621  18.524 -18.426  1.00  0.00     0.001 C 
HETATM   27  C   UNL     1     -29.061  19.761 -18.157  1.00  0.00     0.012 C 
ENDBRANCH   1  21
BRANCH   3  28
HETATM   28  C   UNL     1     -27.458  24.789 -16.126  1.00  0.00     0.210 C 
HETATM   29  O   UNL     1     -26.474  25.528 -15.925  1.00  0.00    -0.644 OA
HETATM   30  O   UNL     1     -28.540  24.948 -15.500  1.00  0.00    -0.644 OA
ENDBRANCH   3  28
BRANCH   6  31
HETATM   31  C   UNL     1     -29.202  22.230 -16.208  1.00  0.00     0.211 C 
HETATM   32  O   UNL     1     -30.299  22.802 -16.004  1.00  0.00    -0.644 OA
HETATM   33  O   UNL     1     -28.834  21.250 -15.526  1.00  0.00    -0.644 OA
ENDBRANCH   6  31
TORSDOF 6
