REMARK  1 active torsions:
REMARK  status: ('A' for Active; 'I' for Inactive)
REMARK    1  A    between atoms: C_8  and  N_11 
ROOT
HETATM    1  C   UNL     1      36.195  80.701  62.524  1.00  0.00     0.102 C 
HETATM    2  N   UNL     1      36.680  81.165  63.682  1.00  0.00    -0.352 N 
ATOM      3  HN  UNL     1      37.070  82.106  63.736  1.00  0.00     0.166 HD
HETATM    4  C   UNL     1      33.321  78.518  61.688  1.00  0.00     0.007 C 
HETATM    5  C   UNL     1      35.284  79.635  62.517  1.00  0.00    -0.010 C 
HETATM    6  C   UNL     1      35.264  78.782  63.647  1.00  0.00    -0.021 C 
HETATM    7  C   UNL     1      34.238  79.554  61.589  1.00  0.00     0.014 C 
HETATM    8  C   UNL     1      36.649  80.376  64.779  1.00  0.00     0.099 C 
HETATM    9  C   UNL     1      34.357  77.712  63.686  1.00  0.00     0.019 C 
HETATM   10  C   UNL     1      32.102  76.803  63.008  1.00  0.00     0.048 C 
HETATM   11  C   UNL     1      35.915  79.193  64.808  1.00  0.00     0.060 C 
HETATM   12  C   UNL     1      33.307  77.679  62.800  1.00  0.00    -0.061 C 
ENDROOT
BRANCH   8  13
HETATM   13  N   UNL     1      36.901  80.994  65.973  1.00  0.00    -0.385 N 
ATOM     14  HN2 UNL     1      37.439  81.861  65.952  1.00  0.00     0.157 HD
ATOM     15  HN1 UNL     1      36.878  80.399  66.801  1.00  0.00     0.157 HD
ENDBRANCH   8  13
TORSDOF 1
