MODEL 1
REMARK VINA RESULT:      -6.5      0.000      0.000
REMARK  2 active torsions:
REMARK  status: ('A' for Active; 'I' for Inactive)
REMARK    1  A    between atoms: C_6  and  O_8 
REMARK    2  A    between atoms: C_6  and  O_12 
ROOT
HETATM    1  C   UNL     1     -14.816   2.888  34.943  1.00  0.00     0.005 A 
HETATM    2  C   UNL     1     -14.455   1.486  35.428  1.00  0.00    -0.006 A 
HETATM    3  C   UNL     1     -15.024   0.363  34.528  1.00  0.00    -0.004 C 
HETATM    4  C   UNL     1     -14.740  -0.871  35.418  1.00  0.00     0.073 C 
HETATM    5  C   UNL     1     -13.558   3.636  34.558  1.00  0.00     0.001 A 
HETATM    6  C   UNL     1     -13.222  -1.065  35.223  1.00  0.00     0.163 C 
HETATM    7  C   UNL     1     -12.764   0.112  34.333  1.00  0.00     0.052 C 
HETATM    8  C   UNL     1     -14.002   0.201  33.406  1.00  0.00     0.015 C 
HETATM    9  C   UNL     1     -12.414   2.639  34.672  1.00  0.00     0.005 A 
HETATM   10  C   UNL     1     -12.940   1.339  35.268  1.00  0.00    -0.001 A 
ENDROOT
BRANCH   6  11
HETATM   11  O   UNL     1     -12.964  -2.282  34.564  1.00  0.00    -0.365 OA
ATOM     12  HO  UNL     1     -13.473  -2.341  33.764  1.00  0.00     0.213 HD
ENDBRANCH   6  11
BRANCH   6  13
HETATM   13  O   UNL     1     -12.526  -1.057  36.452  1.00  0.00    -0.365 OA
ATOM     14  HO  UNL     1     -11.861  -1.734  36.488  1.00  0.00     0.213 HD
ENDBRANCH   6  13
TORSDOF 2
ENDMDL
MODEL 2
REMARK VINA RESULT:      -6.3      1.449      2.108
REMARK  2 active torsions:
REMARK  status: ('A' for Active; 'I' for Inactive)
REMARK    1  A    between atoms: C_6  and  O_8 
REMARK    2  A    between atoms: C_6  and  O_12 
ROOT
HETATM    1  C   UNL     1     -16.270   0.070  34.389  1.00  0.00     0.005 A 
HETATM    2  C   UNL     1     -15.064  -0.238  35.274  1.00  0.00    -0.006 A 
HETATM    3  C   UNL     1     -14.161  -1.360  34.707  1.00  0.00    -0.004 C 
HETATM    4  C   UNL     1     -13.243  -1.615  35.927  1.00  0.00     0.073 C 
HETATM    5  C   UNL     1     -16.173   1.487  33.868  1.00  0.00     0.001 A 
HETATM    6  C   UNL     1     -12.291  -0.403  35.871  1.00  0.00     0.163 C 
HETATM    7  C   UNL     1     -12.801   0.472  34.704  1.00  0.00     0.052 C 
HETATM    8  C   UNL     1     -13.222  -0.657  33.731  1.00  0.00     0.015 C 
HETATM    9  C   UNL     1     -14.822   2.020  34.320  1.00  0.00     0.005 A 
HETATM   10  C   UNL     1     -14.162   0.998  35.238  1.00  0.00    -0.001 A 
ENDROOT
BRANCH   6  11
HETATM   11  O   UNL     1     -10.975  -0.824  35.604  1.00  0.00    -0.365 OA
ATOM     12  HO  UNL     1     -10.853  -1.725  35.878  1.00  0.00     0.213 HD
ENDBRANCH   6  11
BRANCH   6  13
HETATM   13  O   UNL     1     -12.297   0.330  37.079  1.00  0.00    -0.365 OA
ATOM     14  HO  UNL     1     -13.001   0.058  37.656  1.00  0.00     0.213 HD
ENDBRANCH   6  13
TORSDOF 2
ENDMDL
MODEL 3
REMARK VINA RESULT:      -5.6      2.116      3.376
REMARK  2 active torsions:
REMARK  status: ('A' for Active; 'I' for Inactive)
REMARK    1  A    between atoms: C_6  and  O_8 
REMARK    2  A    between atoms: C_6  and  O_12 
ROOT
HETATM    1  C   UNL     1     -11.586   0.653  36.280  1.00  0.00     0.005 A 
HETATM    2  C   UNL     1     -13.042   0.963  35.937  1.00  0.00    -0.006 A 
HETATM    3  C   UNL     1     -13.198   1.818  34.656  1.00  0.00    -0.004 C 
HETATM    4  C   UNL     1     -14.699   2.182  34.753  1.00  0.00     0.073 C 
HETATM    5  C   UNL     1     -11.349  -0.840  36.198  1.00  0.00     0.001 A 
HETATM    6  C   UNL     1     -15.378   0.866  34.323  1.00  0.00     0.163 C 
HETATM    7  C   UNL     1     -14.228  -0.146  34.117  1.00  0.00     0.052 C 
HETATM    8  C   UNL     1     -13.177   0.815  33.507  1.00  0.00     0.015 C 
HETATM    9  C   UNL     1     -12.635  -1.450  35.662  1.00  0.00     0.005 A 
HETATM   10  C   UNL     1     -13.701  -0.366  35.562  1.00  0.00    -0.001 A 
ENDROOT
BRANCH   6  11
HETATM   11  O   UNL     1     -16.071   1.043  33.112  1.00  0.00    -0.365 OA
ATOM     12  HO  UNL     1     -16.977   1.278  33.279  1.00  0.00     0.213 HD
ENDBRANCH   6  11
BRANCH   6  13
HETATM   13  O   UNL     1     -16.283   0.394  35.300  1.00  0.00    -0.365 OA
ATOM     14  HO  UNL     1     -17.096   0.090  34.913  1.00  0.00     0.213 HD
ENDBRANCH   6  13
TORSDOF 2
ENDMDL
MODEL 4
REMARK VINA RESULT:      -5.5      1.977      3.680
REMARK  2 active torsions:
REMARK  status: ('A' for Active; 'I' for Inactive)
REMARK    1  A    between atoms: C_6  and  O_8 
REMARK    2  A    between atoms: C_6  and  O_12 
ROOT
HETATM    1  C   UNL     1     -15.463  -1.143  34.754  1.00  0.00     0.005 A 
HETATM    2  C   UNL     1     -14.642   0.080  34.350  1.00  0.00    -0.006 A 
HETATM    3  C   UNL     1     -14.487   1.115  35.490  1.00  0.00    -0.004 C 
HETATM    4  C   UNL     1     -13.886   2.302  34.700  1.00  0.00     0.073 C 
HETATM    5  C   UNL     1     -14.595  -2.382  34.700  1.00  0.00     0.001 A 
HETATM    6  C   UNL     1     -12.425   1.850  34.499  1.00  0.00     0.163 C 
HETATM    7  C   UNL     1     -12.347   0.426  35.096  1.00  0.00     0.052 C 
HETATM    8  C   UNL     1     -13.293   0.626  36.306  1.00  0.00     0.015 C 
HETATM    9  C   UNL     1     -13.184  -1.904  34.394  1.00  0.00     0.005 A 
HETATM   10  C   UNL     1     -13.212  -0.407  34.111  1.00  0.00    -0.001 A 
ENDROOT
BRANCH   6  11
HETATM   11  O   UNL     1     -11.547   2.701  35.195  1.00  0.00    -0.365 OA
ATOM     12  HO  UNL     1     -11.516   2.465  36.115  1.00  0.00     0.213 HD
ENDBRANCH   6  11
BRANCH   6  13
HETATM   13  O   UNL     1     -12.059   1.836  33.135  1.00  0.00    -0.365 OA
ATOM     14  HO  UNL     1     -11.117   1.797  33.021  1.00  0.00     0.213 HD
ENDBRANCH   6  13
TORSDOF 2
ENDMDL
MODEL 5
REMARK VINA RESULT:      -5.3      1.599      2.638
REMARK  2 active torsions:
REMARK  status: ('A' for Active; 'I' for Inactive)
REMARK    1  A    between atoms: C_6  and  O_8 
REMARK    2  A    between atoms: C_6  and  O_12 
ROOT
HETATM    1  C   UNL     1     -10.589   1.897  36.090  1.00  0.00     0.005 A 
HETATM    2  C   UNL     1     -11.306   0.709  35.451  1.00  0.00    -0.006 A 
HETATM    3  C   UNL     1     -12.143  -0.113  36.460  1.00  0.00    -0.004 C 
HETATM    4  C   UNL     1     -12.482  -1.349  35.592  1.00  0.00     0.073 C 
HETATM    5  C   UNL     1     -11.118   3.188  35.504  1.00  0.00     0.001 A 
HETATM    6  C   UNL     1     -13.582  -0.797  34.662  1.00  0.00     0.163 C 
HETATM    7  C   UNL     1     -13.704   0.704  35.009  1.00  0.00     0.052 C 
HETATM    8  C   UNL     1     -13.485   0.610  36.540  1.00  0.00     0.015 C 
HETATM    9  C   UNL     1     -12.275   2.804  34.593  1.00  0.00     0.005 A 
HETATM   10  C   UNL     1     -12.356   1.285  34.500  1.00  0.00    -0.001 A 
ENDROOT
BRANCH   6  11
HETATM   11  O   UNL     1     -14.807  -1.440  34.916  1.00  0.00    -0.365 OA
ATOM     12  HO  UNL     1     -14.817  -2.304  34.523  1.00  0.00     0.213 HD
ENDBRANCH   6  11
BRANCH   6  13
HETATM   13  O   UNL     1     -13.254  -0.965  33.298  1.00  0.00    -0.365 OA
ATOM     14  HO  UNL     1     -12.501  -1.532  33.181  1.00  0.00     0.213 HD
ENDBRANCH   6  13
TORSDOF 2
ENDMDL
MODEL 6
REMARK VINA RESULT:      -5.2      2.200      3.779
REMARK  2 active torsions:
REMARK  status: ('A' for Active; 'I' for Inactive)
REMARK    1  A    between atoms: C_6  and  O_8 
REMARK    2  A    between atoms: C_6  and  O_12 
ROOT
HETATM    1  C   UNL     1     -13.770  -1.980  34.165  1.00  0.00     0.005 A 
HETATM    2  C   UNL     1     -13.832  -0.471  33.939  1.00  0.00    -0.006 A 
HETATM    3  C   UNL     1     -15.224   0.134  34.239  1.00  0.00    -0.004 C 
HETATM    4  C   UNL     1     -15.035   1.556  33.657  1.00  0.00     0.073 C 
HETATM    5  C   UNL     1     -12.796  -2.290  35.281  1.00  0.00     0.001 A 
HETATM    6  C   UNL     1     -14.170   2.234  34.738  1.00  0.00     0.163 C 
HETATM    7  C   UNL     1     -13.865   1.132  35.777  1.00  0.00     0.052 C 
HETATM    8  C   UNL     1     -15.226   0.394  35.743  1.00  0.00     0.015 C 
HETATM    9  C   UNL     1     -12.354  -0.951  35.850  1.00  0.00     0.005 A 
HETATM   10  C   UNL     1     -12.928   0.171  34.994  1.00  0.00    -0.001 A 
ENDROOT
BRANCH   6  11
HETATM   11  O   UNL     1     -14.884   3.278  35.356  1.00  0.00    -0.365 OA
ATOM     12  HO  UNL     1     -14.862   4.059  34.817  1.00  0.00     0.213 HD
ENDBRANCH   6  11
BRANCH   6  13
HETATM   13  O   UNL     1     -12.971   2.758  34.205  1.00  0.00    -0.365 OA
ATOM     14  HO  UNL     1     -12.862   2.532  33.289  1.00  0.00     0.213 HD
ENDBRANCH   6  13
TORSDOF 2
ENDMDL
MODEL 7
REMARK VINA RESULT:      -5.1      1.247      2.267
REMARK  2 active torsions:
REMARK  status: ('A' for Active; 'I' for Inactive)
REMARK    1  A    between atoms: C_6  and  O_8 
REMARK    2  A    between atoms: C_6  and  O_12 
ROOT
HETATM    1  C   UNL     1     -13.105   2.484  34.993  1.00  0.00     0.005 A 
HETATM    2  C   UNL     1     -12.897   1.017  34.623  1.00  0.00    -0.006 A 
HETATM    3  C   UNL     1     -12.783   0.088  35.856  1.00  0.00    -0.004 C 
HETATM    4  C   UNL     1     -12.306  -1.216  35.172  1.00  0.00     0.073 C 
HETATM    5  C   UNL     1     -14.453   2.951  34.489  1.00  0.00     0.001 A 
HETATM    6  C   UNL     1     -13.606  -1.732  34.522  1.00  0.00     0.163 C 
HETATM    7  C   UNL     1     -14.670  -0.647  34.805  1.00  0.00     0.052 C 
HETATM    8  C   UNL     1     -14.223  -0.247  36.232  1.00  0.00     0.015 C 
HETATM    9  C   UNL     1     -15.150   1.723  33.924  1.00  0.00     0.005 A 
HETATM   10  C   UNL     1     -14.182   0.547  33.939  1.00  0.00    -0.001 A 
ENDROOT
BRANCH   6  11
HETATM   11  O   UNL     1     -14.003  -2.946  35.114  1.00  0.00    -0.365 OA
ATOM     12  HO  UNL     1     -14.104  -3.620  34.452  1.00  0.00     0.213 HD
ENDBRANCH   6  11
BRANCH   6  13
HETATM   13  O   UNL     1     -13.459  -1.931  33.131  1.00  0.00    -0.365 OA
ATOM     14  HO  UNL     1     -14.076  -1.410  32.631  1.00  0.00     0.213 HD
ENDBRANCH   6  13
TORSDOF 2
ENDMDL
MODEL 8
REMARK VINA RESULT:      -5.0      2.058      3.966
REMARK  2 active torsions:
REMARK  status: ('A' for Active; 'I' for Inactive)
REMARK    1  A    between atoms: C_6  and  O_8 
REMARK    2  A    between atoms: C_6  and  O_12 
ROOT
HETATM    1  C   UNL     1     -13.180  -2.253  35.090  1.00  0.00     0.005 A 
HETATM    2  C   UNL     1     -13.330  -0.771  35.428  1.00  0.00    -0.006 A 
HETATM    3  C   UNL     1     -12.493   0.152  34.509  1.00  0.00    -0.004 C 
HETATM    4  C   UNL     1     -12.633   1.493  35.269  1.00  0.00     0.073 C 
HETATM    5  C   UNL     1     -14.511  -2.810  34.634  1.00  0.00     0.001 A 
HETATM    6  C   UNL     1     -14.069   1.922  34.904  1.00  0.00     0.163 C 
HETATM    7  C   UNL     1     -14.647   0.761  34.062  1.00  0.00     0.052 C 
HETATM    8  C   UNL     1     -13.367   0.380  33.278  1.00  0.00     0.015 C 
HETATM    9  C   UNL     1     -15.466  -1.629  34.554  1.00  0.00     0.005 A 
HETATM   10  C   UNL     1     -14.774  -0.387  35.101  1.00  0.00    -0.001 A 
ENDROOT
BRANCH   6  11
HETATM   11  O   UNL     1     -14.050   3.098  34.132  1.00  0.00    -0.365 OA
ATOM     12  HO  UNL     1     -13.465   2.999  33.390  1.00  0.00     0.213 HD
ENDBRANCH   6  11
BRANCH   6  13
HETATM   13  O   UNL     1     -14.863   2.144  36.051  1.00  0.00    -0.365 OA
ATOM     14  HO  UNL     1     -14.362   2.048  36.853  1.00  0.00     0.213 HD
ENDBRANCH   6  13
TORSDOF 2
ENDMDL
MODEL 9
REMARK VINA RESULT:      -5.0      1.396      3.037
REMARK  2 active torsions:
REMARK  status: ('A' for Active; 'I' for Inactive)
REMARK    1  A    between atoms: C_6  and  O_8 
REMARK    2  A    between atoms: C_6  and  O_12 
ROOT
HETATM    1  C   UNL     1     -16.072   1.347  33.238  1.00  0.00     0.005 A 
HETATM    2  C   UNL     1     -14.676   0.895  33.661  1.00  0.00    -0.006 A 
HETATM    3  C   UNL     1     -13.890   1.984  34.431  1.00  0.00    -0.004 C 
HETATM    4  C   UNL     1     -12.483   1.340  34.453  1.00  0.00     0.073 C 
HETATM    5  C   UNL     1     -17.116   0.499  33.932  1.00  0.00     0.001 A 
HETATM    6  C   UNL     1     -12.642   0.255  35.537  1.00  0.00     0.163 C 
HETATM    7  C   UNL     1     -14.126   0.309  35.963  1.00  0.00     0.052 C 
HETATM    8  C   UNL     1     -14.338   1.841  35.883  1.00  0.00     0.015 C 
HETATM    9  C   UNL     1     -16.364  -0.397  34.904  1.00  0.00     0.005 A 
HETATM   10  C   UNL     1     -14.865  -0.212  34.699  1.00  0.00    -0.001 A 
ENDROOT
BRANCH   6  11
HETATM   11  O   UNL     1     -11.824   0.544  36.645  1.00  0.00    -0.365 OA
ATOM     12  HO  UNL     1     -11.446   1.412  36.561  1.00  0.00     0.213 HD
ENDBRANCH   6  11
BRANCH   6  13
HETATM   13  O   UNL     1     -12.312  -1.030  35.052  1.00  0.00    -0.365 OA
ATOM     14  HO  UNL     1     -11.850  -0.989  34.223  1.00  0.00     0.213 HD
ENDBRANCH   6  13
TORSDOF 2
ENDMDL
