REMARK  4 active torsions:
REMARK  status: ('A' for Active; 'I' for Inactive)
REMARK    1  A    between atoms: N_3  and  C_26 
REMARK       I    between atoms: N_3  and  C_30 
REMARK    2  A    between atoms: O_7  and  C_20 
REMARK    3  A    between atoms: C_16  and  C_24 
REMARK    4  A    between atoms: C_16  and  C_32 
ROOT
HETATM    1  C   UNL     1       9.117 -21.357  -3.782  1.00  0.00     0.037 A 
HETATM    2  C   UNL     1       9.471 -22.698  -5.821  1.00  0.00     0.060 A 
HETATM    3  C   UNL     1      11.438 -21.645  -4.643  1.00  0.00    -0.013 C 
HETATM    4  C   UNL     1       7.770 -21.827  -4.292  1.00  0.00     0.030 A 
HETATM    5  C   UNL     1       7.985 -22.692  -5.501  1.00  0.00     0.091 A 
HETATM    6  C   UNL     1      10.128 -21.864  -4.772  1.00  0.00    -0.066 A 
ENDROOT
BRANCH   3   7
HETATM    7  C   UNL     1      12.171 -20.504  -5.309  1.00  0.00    -0.022 C 
HETATM    8  C   UNL     1      12.294 -20.524  -6.688  1.00  0.00     0.048 C 
HETATM    9  C   UNL     1      13.229 -19.762  -7.374  1.00  0.00     0.066 C 
HETATM   10  C   UNL     1      14.416 -19.363  -6.818  1.00  0.00     0.036 C 
HETATM   11  C   UNL     1      14.739 -18.969  -5.563  1.00  0.00     0.003 C 
HETATM   12  C   UNL     1      13.952 -19.050  -4.435  1.00  0.00     0.001 C 
HETATM   13  C   UNL     1      12.639 -19.488  -4.497  1.00  0.00     0.012 C 
BRANCH   9  14
HETATM   14  O   UNL     1      12.933 -19.350  -8.644  1.00  0.00    -0.361 OA
ATOM     15  HO  UNL     1      12.110 -19.627  -9.030  1.00  0.00     0.217 HD
ENDBRANCH   9  14
ENDBRANCH   3   7
BRANCH   3  16
HETATM   16  C   UNL     1      12.196 -22.039  -3.409  1.00  0.00    -0.024 C 
HETATM   17  C   UNL     1      13.266 -22.927  -3.509  1.00  0.00     0.024 C 
HETATM   18  C   UNL     1      14.190 -23.005  -2.465  1.00  0.00    -0.025 C 
HETATM   19  C   UNL     1      15.402 -23.669  -2.658  1.00  0.00     0.012 C 
HETATM   20  C   UNL     1      13.876 -22.409  -1.228  1.00  0.00    -0.026 C 
HETATM   21  C   UNL     1      16.714 -23.404  -2.395  1.00  0.00     0.001 C 
HETATM   22  C   UNL     1      17.612 -22.942  -1.468  1.00  0.00     0.000 C 
HETATM   23  C   UNL     1      17.287 -22.605  -0.140  1.00  0.00     0.000 C 
HETATM   24  C   UNL     1      15.985 -22.377   0.266  1.00  0.00     0.001 C 
HETATM   25  C   UNL     1      14.713 -22.541  -0.120  1.00  0.00     0.012 C 
HETATM   26  C   UNL     1      12.716 -21.647  -1.098  1.00  0.00     0.013 C 
HETATM   27  C   UNL     1      11.893 -21.449  -2.193  1.00  0.00     0.013 C 
ENDBRANCH   3  16
BRANCH   5  28
HETATM   28  N   UNL     1       7.288 -22.179  -6.652  1.00  0.00    -0.330 N 
HETATM   29  C   UNL     1       5.992 -22.257  -6.943  1.00  0.00     0.283 C 
HETATM   30  O   UNL     1       5.432 -23.356  -6.788  1.00  0.00    -0.630 OA
HETATM   31  O   UNL     1       5.446 -21.263  -7.493  1.00  0.00    -0.630 OA
ATOM     32  HN  UNL     1       7.865 -21.690  -7.336  1.00  0.00     0.165 HD
ENDBRANCH   5  28
TORSDOF 4
