REMARK  3 active torsions:
REMARK  status: ('A' for Active; 'I' for Inactive)
REMARK    1  A    between atoms: C_3  and  O_21 
REMARK    2  A    between atoms: C_12  and  O_15 
REMARK    3  A    between atoms: C_14  and  C_27 
ROOT
HETATM    1  N   UNL     1     -40.991  41.052 -20.571  1.00  0.00    -0.353 N 
ATOM      2  HN  UNL     1     -40.153  40.925 -21.139  1.00  0.00     0.166 HD
HETATM    3  C   UNL     1     -41.809  40.112 -24.467  1.00  0.00     0.228 C 
HETATM    4  C   UNL     1     -44.046  40.504 -22.674  1.00  0.00     0.109 C 
HETATM    5  C   UNL     1     -42.989  42.330 -20.456  1.00  0.00     0.032 C 
HETATM    6  C   UNL     1     -42.760  42.593 -19.116  1.00  0.00     0.041 C 
HETATM    7  C   UNL     1     -42.214  41.355 -21.089  1.00  0.00     0.036 C 
HETATM    8  C   UNL     1     -42.784  38.424 -22.922  1.00  0.00     0.014 C 
HETATM    9  C   UNL     1     -44.093  41.065 -24.077  1.00  0.00     0.228 C 
HETATM   10  C   UNL     1     -41.689  41.934 -18.499  1.00  0.00     0.093 C 
HETATM   11  C   UNL     1     -44.185  38.987 -22.685  1.00  0.00     0.019 C 
HETATM   12  C   UNL     1     -41.006  40.937 -19.218  1.00  0.00     0.076 C 
HETATM   13  C   UNL     1     -42.616  40.668 -22.271  1.00  0.00    -0.032 C 
HETATM   14  C   UNL     1     -41.844  39.618 -23.005  1.00  0.00     0.066 C 
HETATM   15  N   UNL     1     -43.026  40.827 -24.873  1.00  0.00    -0.334 N 
ATOM     16  HN  UNL     1     -43.070  41.172 -25.832  1.00  0.00     0.165 HD
HETATM   17  O   UNL     1     -45.016  41.808 -24.419  1.00  0.00    -0.273 OA
ENDROOT
BRANCH  12  18
HETATM   18  C   UNL     1     -40.334  39.827 -18.566  1.00  0.00    -0.007 C 
HETATM   19  C   UNL     1     -41.017  39.011 -17.684  1.00  0.00     0.014 C 
HETATM   20  C   UNL     1     -40.472  37.842 -17.187  1.00  0.00     0.001 C 
HETATM   21  C   UNL     1     -39.219  37.444 -17.621  1.00  0.00     0.000 C 
HETATM   22  C   UNL     1     -38.438  38.351 -18.327  1.00  0.00     0.001 C 
HETATM   23  C   UNL     1     -38.997  39.533 -18.797  1.00  0.00     0.014 C 
ENDBRANCH  12  18
BRANCH  10  24
HETATM   24  O   UNL     1     -41.293  42.282 -17.261  1.00  0.00    -0.358 OA
ATOM     25  HO  UNL     1     -40.567  41.835 -16.843  1.00  0.00     0.217 HD
ENDBRANCH  10  24
BRANCH   3  26
HETATM   26  O   UNL     1     -41.644  39.003 -25.326  1.00  0.00    -0.376 OA
ATOM     27  HO  UNL     1     -41.622  39.307 -26.226  1.00  0.00     0.212 HD
ENDBRANCH   3  26
TORSDOF 3
