REMARK  0 active torsions:
REMARK  status: ('A' for Active; 'I' for Inactive)
ROOT
HETATM    1  C   UNL     1     -22.773   9.139  -8.170  1.00  0.00     0.041 A 
HETATM    2  C   UNL     1     -24.285  11.844  -7.670  1.00  0.00     0.001 C 
HETATM    3  C   UNL     1     -22.091   7.978  -7.788  1.00  0.00     0.104 A 
HETATM    4  C   UNL     1     -23.479   8.458  -6.126  1.00  0.00     0.100 A 
HETATM    5  O   UNL     1     -22.494   9.012 -10.475  1.00  0.00    -0.288 OA
HETATM    6  C   UNL     1     -22.780   9.746  -9.518  1.00  0.00     0.184 C 
HETATM    7  N   UNL     1     -22.530   7.608  -6.560  1.00  0.00    -0.373 N 
ATOM      8  HN  UNL     1     -22.189   6.800  -6.039  1.00  0.00     0.164 HD
HETATM    9  C   UNL     1     -24.285  10.734  -6.850  1.00  0.00     0.014 C 
HETATM   10  C   UNL     1     -23.585  12.063  -8.855  1.00  0.00     0.004 C 
HETATM   11  C   UNL     1     -23.633   9.478  -7.092  1.00  0.00    -0.005 A 
HETATM   12  C   UNL     1     -23.027  11.142  -9.720  1.00  0.00     0.056 C 
ENDROOT
TORSDOF 0
