MODEL 1
REMARK VINA RESULT:      -4.4      0.000      0.000
REMARK  4 active torsions:
REMARK  status: ('A' for Active; 'I' for Inactive)
REMARK       I    between atoms: N_4  and  C_8 
REMARK    1  A    between atoms: N_4  and  C_10 
REMARK    2  A    between atoms: C_10  and  C_13 
REMARK    3  A    between atoms: C_13  and  C_14 
REMARK       I    between atoms: C_14  and  N_17 
REMARK    4  A    between atoms: C_15  and  N_17 
ROOT
HETATM    1  O   UNL     1      17.345  15.212  21.879  1.00  0.00    -0.273 OA
HETATM    2  C   UNL     1      17.228  14.033  22.091  1.00  0.00     0.223 C 
HETATM    3  N   UNL     1      16.463  13.529  23.134  1.00  0.00    -0.327 N 
ATOM      4  HN  UNL     1      16.785  13.774  24.071  1.00  0.00     0.169 HD
ENDROOT
BRANCH   2   5
HETATM    5  C   UNL     1      18.035  13.007  21.301  1.00  0.00     0.123 C 
BRANCH   5   6
HETATM    6  C   UNL     1      19.013  13.674  20.321  1.00  0.00     0.135 C 
BRANCH   6   7
HETATM    7  N   UNL     1      18.397  13.775  18.988  1.00  0.00    -0.335 N 
HETATM    8  C   UNL     1      17.709  14.774  18.336  1.00  0.00     0.283 C 
HETATM    9  O   UNL     1      16.801  15.470  18.794  1.00  0.00    -0.630 OA
HETATM   10  O   UNL     1      18.312  15.375  17.398  1.00  0.00    -0.630 OA
ATOM     11  HN  UNL     1      18.503  12.929  18.430  1.00  0.00     0.165 HD
ENDBRANCH   6   7
ENDBRANCH   5   6
ENDBRANCH   2   5
BRANCH   3  12
HETATM   12  C   UNL     1      15.306  12.728  23.083  1.00  0.00     0.034 C 
HETATM   13  C   UNL     1      14.869  12.043  24.214  1.00  0.00     0.029 C 
HETATM   14  C   UNL     1      13.923  11.049  24.317  1.00  0.00     0.002 C 
HETATM   15  C   UNL     1      12.979  10.554  23.456  1.00  0.00     0.000 C 
HETATM   16  C   UNL     1      12.672  11.091  22.227  1.00  0.00     0.000 C 
HETATM   17  C   UNL     1      13.392  12.067  21.591  1.00  0.00     0.002 C 
HETATM   18  C   UNL     1      14.589  12.678  21.888  1.00  0.00     0.029 C 
ENDBRANCH   3  12
TORSDOF 4
ENDMDL
MODEL 2
REMARK VINA RESULT:      -4.3      1.851      2.842
REMARK  4 active torsions:
REMARK  status: ('A' for Active; 'I' for Inactive)
REMARK       I    between atoms: N_4  and  C_8 
REMARK    1  A    between atoms: N_4  and  C_10 
REMARK    2  A    between atoms: C_10  and  C_13 
REMARK    3  A    between atoms: C_13  and  C_14 
REMARK       I    between atoms: C_14  and  N_17 
REMARK    4  A    between atoms: C_15  and  N_17 
ROOT
HETATM    1  O   UNL     1      16.987  12.224  23.005  1.00  0.00    -0.273 OA
HETATM    2  C   UNL     1      15.914  11.872  22.591  1.00  0.00     0.223 C 
HETATM    3  N   UNL     1      15.160  10.880  23.202  1.00  0.00    -0.327 N 
ATOM      4  HN  UNL     1      15.582   9.950  23.207  1.00  0.00     0.169 HD
ENDROOT
BRANCH   2   5
HETATM    5  C   UNL     1      15.367  12.404  21.268  1.00  0.00     0.123 C 
BRANCH   5   6
HETATM    6  C   UNL     1      16.429  12.386  20.158  1.00  0.00     0.135 C 
BRANCH   6   7
HETATM    7  N   UNL     1      17.084  13.701  20.067  1.00  0.00    -0.335 N 
HETATM    8  C   UNL     1      17.472  14.495  19.011  1.00  0.00     0.283 C 
HETATM    9  O   UNL     1      18.075  14.140  17.998  1.00  0.00    -0.630 OA
HETATM   10  O   UNL     1      16.786  15.537  18.789  1.00  0.00    -0.630 OA
ATOM     11  HN  UNL     1      17.294  14.110  20.978  1.00  0.00     0.165 HD
ENDBRANCH   6   7
ENDBRANCH   5   6
ENDBRANCH   2   5
BRANCH   3  12
HETATM   12  C   UNL     1      13.896  10.974  23.816  1.00  0.00     0.034 C 
HETATM   13  C   UNL     1      12.733  10.784  23.074  1.00  0.00     0.029 C 
HETATM   14  C   UNL     1      11.429  11.054  23.417  1.00  0.00     0.002 C 
HETATM   15  C   UNL     1      10.812  11.378  24.598  1.00  0.00     0.000 C 
HETATM   16  C   UNL     1      11.420  11.376  25.832  1.00  0.00     0.000 C 
HETATM   17  C   UNL     1      12.768  11.254  26.047  1.00  0.00     0.002 C 
HETATM   18  C   UNL     1      13.844  11.214  25.189  1.00  0.00     0.029 C 
ENDBRANCH   3  12
TORSDOF 4
ENDMDL
MODEL 3
REMARK VINA RESULT:      -4.3     11.623     13.525
REMARK  4 active torsions:
REMARK  status: ('A' for Active; 'I' for Inactive)
REMARK       I    between atoms: N_4  and  C_8 
REMARK    1  A    between atoms: N_4  and  C_10 
REMARK    2  A    between atoms: C_10  and  C_13 
REMARK    3  A    between atoms: C_13  and  C_14 
REMARK       I    between atoms: C_14  and  N_17 
REMARK    4  A    between atoms: C_15  and  N_17 
ROOT
HETATM    1  O   UNL     1       7.535   8.276  18.469  1.00  0.00    -0.273 OA
HETATM    2  C   UNL     1       6.890   7.455  17.872  1.00  0.00     0.223 C 
HETATM    3  N   UNL     1       6.546   7.596  16.535  1.00  0.00    -0.327 N 
ATOM      4  HN  UNL     1       5.937   8.386  16.321  1.00  0.00     0.169 HD
ENDROOT
BRANCH   2   5
HETATM    5  C   UNL     1       6.282   6.254  18.593  1.00  0.00     0.123 C 
BRANCH   5   6
HETATM    6  C   UNL     1       5.020   6.636  19.382  1.00  0.00     0.135 C 
BRANCH   6   7
HETATM    7  N   UNL     1       5.385   7.452  20.551  1.00  0.00    -0.335 N 
HETATM    8  C   UNL     1       5.074   8.734  20.946  1.00  0.00     0.283 C 
HETATM    9  O   UNL     1       5.089   9.750  20.249  1.00  0.00    -0.630 OA
HETATM   10  O   UNL     1       4.266   8.860  21.914  1.00  0.00    -0.630 OA
ATOM     11  HN  UNL     1       5.997   6.966  21.206  1.00  0.00     0.165 HD
ENDBRANCH   6   7
ENDBRANCH   5   6
ENDBRANCH   2   5
BRANCH   3  12
HETATM   12  C   UNL     1       6.920   6.803  15.432  1.00  0.00     0.034 C 
HETATM   13  C   UNL     1       7.861   7.265  14.515  1.00  0.00     0.029 C 
HETATM   14  C   UNL     1       8.187   6.764  13.277  1.00  0.00     0.002 C 
HETATM   15  C   UNL     1       7.891   5.595  12.625  1.00  0.00     0.000 C 
HETATM   16  C   UNL     1       7.241   4.521  13.187  1.00  0.00     0.000 C 
HETATM   17  C   UNL     1       6.614   4.528  14.405  1.00  0.00     0.002 C 
HETATM   18  C   UNL     1       6.359   5.532  15.311  1.00  0.00     0.029 C 
ENDBRANCH   3  12
TORSDOF 4
ENDMDL
MODEL 4
REMARK VINA RESULT:      -4.2      1.553      2.343
REMARK  4 active torsions:
REMARK  status: ('A' for Active; 'I' for Inactive)
REMARK       I    between atoms: N_4  and  C_8 
REMARK    1  A    between atoms: N_4  and  C_10 
REMARK    2  A    between atoms: C_10  and  C_13 
REMARK    3  A    between atoms: C_13  and  C_14 
REMARK       I    between atoms: C_14  and  N_17 
REMARK    4  A    between atoms: C_15  and  N_17 
ROOT
HETATM    1  O   UNL     1      18.808  14.113  20.899  1.00  0.00    -0.273 OA
HETATM    2  C   UNL     1      18.260  13.055  20.733  1.00  0.00     0.223 C 
HETATM    3  N   UNL     1      17.750  12.301  21.780  1.00  0.00    -0.327 N 
ATOM      4  HN  UNL     1      18.439  11.959  22.451  1.00  0.00     0.169 HD
ENDROOT
BRANCH   2   5
HETATM    5  C   UNL     1      18.213  12.399  19.355  1.00  0.00     0.123 C 
BRANCH   5   6
HETATM    6  C   UNL     1      17.452  13.259  18.334  1.00  0.00     0.135 C 
BRANCH   6   7
HETATM    7  N   UNL     1      18.140  14.547  18.149  1.00  0.00    -0.335 N 
HETATM    8  C   UNL     1      19.069  15.002  17.240  1.00  0.00     0.283 C 
HETATM    9  O   UNL     1      20.087  14.420  16.864  1.00  0.00    -0.630 OA
HETATM   10  O   UNL     1      18.665  15.822  16.363  1.00  0.00    -0.630 OA
ATOM     11  HN  UNL     1      17.873  15.249  18.839  1.00  0.00     0.165 HD
ENDBRANCH   6   7
ENDBRANCH   5   6
ENDBRANCH   2   5
BRANCH   3  12
HETATM   12  C   UNL     1      16.415  11.940  22.049  1.00  0.00     0.034 C 
HETATM   13  C   UNL     1      15.385  12.367  21.214  1.00  0.00     0.029 C 
HETATM   14  C   UNL     1      14.026  12.324  21.418  1.00  0.00     0.002 C 
HETATM   15  C   UNL     1      13.231  11.699  22.345  1.00  0.00     0.000 C 
HETATM   16  C   UNL     1      13.673  10.793  23.281  1.00  0.00     0.000 C 
HETATM   17  C   UNL     1      14.987  10.532  23.567  1.00  0.00     0.002 C 
HETATM   18  C   UNL     1      16.161  11.110  23.140  1.00  0.00     0.029 C 
ENDBRANCH   3  12
TORSDOF 4
ENDMDL
MODEL 5
REMARK VINA RESULT:      -4.1      2.350      3.804
REMARK  4 active torsions:
REMARK  status: ('A' for Active; 'I' for Inactive)
REMARK       I    between atoms: N_4  and  C_8 
REMARK    1  A    between atoms: N_4  and  C_10 
REMARK    2  A    between atoms: C_10  and  C_13 
REMARK    3  A    between atoms: C_13  and  C_14 
REMARK       I    between atoms: C_14  and  N_17 
REMARK    4  A    between atoms: C_15  and  N_17 
ROOT
HETATM    1  O   UNL     1      21.007  11.027  18.847  1.00  0.00    -0.273 OA
HETATM    2  C   UNL     1      20.132  11.807  19.118  1.00  0.00     0.223 C 
HETATM    3  N   UNL     1      18.788  11.462  19.109  1.00  0.00    -0.327 N 
ATOM      4  HN  UNL     1      18.412  11.192  18.199  1.00  0.00     0.169 HD
ENDROOT
BRANCH   2   5
HETATM    5  C   UNL     1      20.439  13.283  19.359  1.00  0.00     0.123 C 
BRANCH   5   6
HETATM    6  C   UNL     1      19.798  14.185  18.293  1.00  0.00     0.135 C 
BRANCH   6   7
HETATM    7  N   UNL     1      19.160  15.346  18.935  1.00  0.00    -0.335 N 
HETATM    8  C   UNL     1      17.869  15.622  19.325  1.00  0.00     0.283 C 
HETATM    9  O   UNL     1      16.840  15.434  18.674  1.00  0.00    -0.630 OA
HETATM   10  O   UNL     1      17.626  15.611  20.569  1.00  0.00    -0.630 OA
ATOM     11  HN  UNL     1      19.811  16.106  19.132  1.00  0.00     0.165 HD
ENDBRANCH   6   7
ENDBRANCH   5   6
ENDBRANCH   2   5
BRANCH   3  12
HETATM   12  C   UNL     1      17.870  11.430  20.177  1.00  0.00     0.034 C 
HETATM   13  C   UNL     1      16.706  12.193  20.132  1.00  0.00     0.029 C 
HETATM   14  C   UNL     1      15.815  12.480  21.139  1.00  0.00     0.002 C 
HETATM   15  C   UNL     1      15.633  11.986  22.406  1.00  0.00     0.000 C 
HETATM   16  C   UNL     1      16.296  10.904  22.933  1.00  0.00     0.000 C 
HETATM   17  C   UNL     1      17.376  10.284  22.361  1.00  0.00     0.002 C 
HETATM   18  C   UNL     1      18.135  10.582  21.252  1.00  0.00     0.029 C 
ENDBRANCH   3  12
TORSDOF 4
ENDMDL
MODEL 6
REMARK VINA RESULT:      -4.1      4.793      9.219
REMARK  4 active torsions:
REMARK  status: ('A' for Active; 'I' for Inactive)
REMARK       I    between atoms: N_4  and  C_8 
REMARK    1  A    between atoms: N_4  and  C_10 
REMARK    2  A    between atoms: C_10  and  C_13 
REMARK    3  A    between atoms: C_13  and  C_14 
REMARK       I    between atoms: C_14  and  N_17 
REMARK    4  A    between atoms: C_15  and  N_17 
ROOT
HETATM    1  O   UNL     1      18.722  15.843  16.150  1.00  0.00    -0.273 OA
HETATM    2  C   UNL     1      19.723  16.240  16.686  1.00  0.00     0.223 C 
HETATM    3  N   UNL     1      20.624  17.090  16.060  1.00  0.00    -0.327 N 
ATOM      4  HN  UNL     1      21.089  16.707  15.237  1.00  0.00     0.169 HD
ENDROOT
BRANCH   2   5
HETATM    5  C   UNL     1      20.144  15.716  18.057  1.00  0.00     0.123 C 
BRANCH   5   6
HETATM    6  C   UNL     1      19.776  14.236  18.245  1.00  0.00     0.135 C 
BRANCH   6   7
HETATM    7  N   UNL     1      18.640  14.114  19.173  1.00  0.00    -0.335 N 
HETATM    8  C   UNL     1      17.311  14.465  19.093  1.00  0.00     0.283 C 
HETATM    9  O   UNL     1      16.847  15.531  18.686  1.00  0.00    -0.630 OA
HETATM   10  O   UNL     1      16.472  13.524  18.957  1.00  0.00    -0.630 OA
ATOM     11  HN  UNL     1      18.890  13.679  20.061  1.00  0.00     0.165 HD
ENDBRANCH   6   7
ENDBRANCH   5   6
ENDBRANCH   2   5
BRANCH   3  12
HETATM   12  C   UNL     1      20.987  18.408  16.401  1.00  0.00     0.034 C 
HETATM   13  C   UNL     1      22.317  18.816  16.334  1.00  0.00     0.029 C 
HETATM   14  C   UNL     1      22.903  19.956  16.831  1.00  0.00     0.002 C 
HETATM   15  C   UNL     1      22.403  21.126  17.344  1.00  0.00     0.000 C 
HETATM   16  C   UNL     1      21.075  21.481  17.350  1.00  0.00     0.000 C 
HETATM   17  C   UNL     1      20.034  20.647  17.038  1.00  0.00     0.002 C 
HETATM   18  C   UNL     1      19.977  19.300  16.759  1.00  0.00     0.029 C 
ENDBRANCH   3  12
TORSDOF 4
ENDMDL
MODEL 7
REMARK VINA RESULT:      -4.1      3.987      5.450
REMARK  4 active torsions:
REMARK  status: ('A' for Active; 'I' for Inactive)
REMARK       I    between atoms: N_4  and  C_8 
REMARK    1  A    between atoms: N_4  and  C_10 
REMARK    2  A    between atoms: C_10  and  C_13 
REMARK    3  A    between atoms: C_13  and  C_14 
REMARK       I    between atoms: C_14  and  N_17 
REMARK    4  A    between atoms: C_15  and  N_17 
ROOT
HETATM    1  O   UNL     1      13.626  10.616  24.560  1.00  0.00    -0.273 OA
HETATM    2  C   UNL     1      12.663  10.768  23.856  1.00  0.00     0.223 C 
HETATM    3  N   UNL     1      11.363  10.601  24.313  1.00  0.00    -0.327 N 
ATOM      4  HN  UNL     1      11.124   9.657  24.618  1.00  0.00     0.169 HD
ENDROOT
BRANCH   2   5
HETATM    5  C   UNL     1      12.815  11.020  22.358  1.00  0.00     0.123 C 
BRANCH   5   6
HETATM    6  C   UNL     1      13.380  12.419  22.064  1.00  0.00     0.135 C 
BRANCH   6   7
HETATM    7  N   UNL     1      14.851  12.383  22.092  1.00  0.00    -0.335 N 
HETATM    8  C   UNL     1      15.826  12.851  21.240  1.00  0.00     0.283 C 
HETATM    9  O   UNL     1      15.860  12.733  20.014  1.00  0.00    -0.630 OA
HETATM   10  O   UNL     1      16.483  13.867  21.616  1.00  0.00    -0.630 OA
ATOM     11  HN  UNL     1      15.227  11.912  22.915  1.00  0.00     0.165 HD
ENDBRANCH   6   7
ENDBRANCH   5   6
ENDBRANCH   2   5
BRANCH   3  12
HETATM   12  C   UNL     1      10.328  11.550  24.416  1.00  0.00     0.034 C 
HETATM   13  C   UNL     1       8.997  11.161  24.290  1.00  0.00     0.029 C 
HETATM   14  C   UNL     1       7.874  11.940  24.129  1.00  0.00     0.002 C 
HETATM   15  C   UNL     1       7.637  13.286  24.243  1.00  0.00     0.000 C 
HETATM   16  C   UNL     1       8.542  14.210  24.710  1.00  0.00     0.000 C 
HETATM   17  C   UNL     1       9.871  13.968  24.939  1.00  0.00     0.002 C 
HETATM   18  C   UNL     1      10.669  12.874  24.692  1.00  0.00     0.029 C 
ENDBRANCH   3  12
TORSDOF 4
ENDMDL
MODEL 8
REMARK VINA RESULT:      -4.1      3.369      5.834
REMARK  4 active torsions:
REMARK  status: ('A' for Active; 'I' for Inactive)
REMARK       I    between atoms: N_4  and  C_8 
REMARK    1  A    between atoms: N_4  and  C_10 
REMARK    2  A    between atoms: C_10  and  C_13 
REMARK    3  A    between atoms: C_13  and  C_14 
REMARK       I    between atoms: C_14  and  N_17 
REMARK    4  A    between atoms: C_15  and  N_17 
ROOT
HETATM    1  O   UNL     1      14.828  10.631  25.028  1.00  0.00    -0.273 OA
HETATM    2  C   UNL     1      14.630  11.026  23.909  1.00  0.00     0.223 C 
HETATM    3  N   UNL     1      15.470  11.929  23.271  1.00  0.00    -0.327 N 
ATOM      4  HN  UNL     1      15.527  12.853  23.701  1.00  0.00     0.169 HD
ENDROOT
BRANCH   2   5
HETATM    5  C   UNL     1      13.351  10.663  23.160  1.00  0.00     0.123 C 
BRANCH   5   6
HETATM    6  C   UNL     1      12.095  11.173  23.885  1.00  0.00     0.135 C 
BRANCH   6   7
HETATM    7  N   UNL     1      12.328  12.532  24.399  1.00  0.00    -0.335 N 
HETATM    8  C   UNL     1      12.420  13.768  23.799  1.00  0.00     0.283 C 
HETATM    9  O   UNL     1      13.059  14.056  22.787  1.00  0.00    -0.630 OA
HETATM   10  O   UNL     1      11.448  14.564  23.964  1.00  0.00    -0.630 OA
ATOM     11  HN  UNL     1      12.446  12.565  25.411  1.00  0.00     0.165 HD
ENDBRANCH   6   7
ENDBRANCH   5   6
ENDBRANCH   2   5
BRANCH   3  12
HETATM   12  C   UNL     1      16.253  11.751  22.114  1.00  0.00     0.034 C 
HETATM   13  C   UNL     1      17.209  10.740  22.056  1.00  0.00     0.029 C 
HETATM   14  C   UNL     1      18.213  10.545  21.137  1.00  0.00     0.002 C 
HETATM   15  C   UNL     1      18.493  11.099  19.914  1.00  0.00     0.000 C 
HETATM   16  C   UNL     1      17.669  11.964  19.233  1.00  0.00     0.000 C 
HETATM   17  C   UNL     1      16.551  12.563  19.752  1.00  0.00     0.002 C 
HETATM   18  C   UNL     1      16.013  12.580  21.019  1.00  0.00     0.029 C 
ENDBRANCH   3  12
TORSDOF 4
ENDMDL
MODEL 9
REMARK VINA RESULT:      -4.1      5.077      9.604
REMARK  4 active torsions:
REMARK  status: ('A' for Active; 'I' for Inactive)
REMARK       I    between atoms: N_4  and  C_8 
REMARK    1  A    between atoms: N_4  and  C_10 
REMARK    2  A    between atoms: C_10  and  C_13 
REMARK    3  A    between atoms: C_13  and  C_14 
REMARK       I    between atoms: C_14  and  N_17 
REMARK    4  A    between atoms: C_15  and  N_17 
ROOT
HETATM    1  O   UNL     1      20.757  16.558  18.576  1.00  0.00    -0.273 OA
HETATM    2  C   UNL     1      20.097  16.970  17.658  1.00  0.00     0.223 C 
HETATM    3  N   UNL     1      19.921  18.324  17.408  1.00  0.00    -0.327 N 
ATOM      4  HN  UNL     1      19.427  18.843  18.134  1.00  0.00     0.169 HD
ENDROOT
BRANCH   2   5
HETATM    5  C   UNL     1      19.287  16.020  16.780  1.00  0.00     0.123 C 
BRANCH   5   6
HETATM    6  C   UNL     1      19.379  14.566  17.270  1.00  0.00     0.135 C 
BRANCH   6   7
HETATM    7  N   UNL     1      18.697  14.428  18.567  1.00  0.00    -0.335 N 
HETATM    8  C   UNL     1      17.389  14.581  18.970  1.00  0.00     0.283 C 
HETATM    9  O   UNL     1      16.627  15.505  18.683  1.00  0.00    -0.630 OA
HETATM   10  O   UNL     1      16.742  13.526  19.243  1.00  0.00    -0.630 OA
ATOM     11  HN  UNL     1      19.325  14.164  19.326  1.00  0.00     0.165 HD
ENDBRANCH   6   7
ENDBRANCH   5   6
ENDBRANCH   2   5
BRANCH   3  12
HETATM   12  C   UNL     1      20.327  19.083  16.292  1.00  0.00     0.034 C 
HETATM   13  C   UNL     1      19.652  20.251  15.948  1.00  0.00     0.029 C 
HETATM   14  C   UNL     1      19.735  20.996  14.795  1.00  0.00     0.002 C 
HETATM   15  C   UNL     1      20.600  20.992  13.730  1.00  0.00     0.000 C 
HETATM   16  C   UNL     1      21.753  20.246  13.653  1.00  0.00     0.000 C 
HETATM   17  C   UNL     1      22.108  19.250  14.524  1.00  0.00     0.002 C 
HETATM   18  C   UNL     1      21.445  18.658  15.575  1.00  0.00     0.029 C 
ENDBRANCH   3  12
TORSDOF 4
ENDMDL
