REMARK  1 active torsions:
REMARK  status: ('A' for Active; 'I' for Inactive)
REMARK    1  A    between atoms: O_1  and  C_25 
ROOT
HETATM    1  C   UNL     1      14.007  43.619  24.900  1.00  0.00     0.167 C 
HETATM    2  O   UNL     1      13.879  44.714  25.459  1.00  0.00    -0.292 OA
HETATM    3  C   UNL     1      15.981  40.453  29.218  1.00  0.00     0.025 C 
HETATM    4  C   UNL     1      14.144  41.561  28.145  1.00  0.00     0.017 C 
HETATM    5  C   UNL     1      13.379  41.336  29.317  1.00  0.00     0.252 C 
HETATM    6  C   UNL     1      13.476  42.268  26.978  1.00  0.00     0.062 C 
HETATM    7  C   UNL     1      11.958  42.783  21.809  1.00  0.00     0.147 C 
HETATM    8  O   UNL     1      12.963  41.915  22.082  1.00  0.00    -0.294 OA
HETATM    9  C   UNL     1      15.501  41.278  28.197  1.00  0.00    -0.045 C 
HETATM   10  C   UNL     1      14.024  43.631  23.482  1.00  0.00     0.046 C 
HETATM   11  C   UNL     1       9.620  44.200  21.958  1.00  0.00     0.017 C 
HETATM   12  C   UNL     1      14.422  42.436  25.767  1.00  0.00     0.029 C 
HETATM   13  C   UNL     1      15.814  42.829  26.243  1.00  0.00     0.022 C 
HETATM   14  C   UNL     1      15.336  40.583  30.439  1.00  0.00     0.092 C 
HETATM   15  C   UNL     1      14.390  41.121  24.972  1.00  0.00     0.024 C 
HETATM   16  C   UNL     1       9.706  43.115  21.076  1.00  0.00     0.006 C 
HETATM   17  N   UNL     1      14.020  40.975  30.469  1.00  0.00    -0.333 N 
ATOM     18  HN  UNL     1      13.518  40.997  31.357  1.00  0.00     0.168 HD
HETATM   19  C   UNL     1      13.222  44.675  22.727  1.00  0.00     0.174 C 
HETATM   20  N   UNL     1      11.960  44.057  22.306  1.00  0.00    -0.334 N 
HETATM   21  C   UNL     1      16.459  41.836  27.190  1.00  0.00     0.040 C 
HETATM   22  C   UNL     1      14.710  41.173  23.501  1.00  0.00     0.075 C 
HETATM   23  C   UNL     1      14.177  42.346  22.686  1.00  0.00     0.199 C 
HETATM   24  C   UNL     1      10.777  44.673  22.559  1.00  0.00     0.093 C 
HETATM   25  O   UNL     1      12.152  41.326  29.285  1.00  0.00    -0.268 OA
HETATM   26  C   UNL     1      10.826  42.281  21.177  1.00  0.00     0.056 C 
ENDROOT
BRANCH  23  27
HETATM   27  O   UNL     1      15.112  42.607  21.665  1.00  0.00    -0.361 OA
ATOM     28  HO  UNL     1      15.923  42.895  22.068  1.00  0.00     0.213 HD
ENDBRANCH  23  27
TORSDOF 1
