MODEL 1
REMARK VINA RESULT:     -10.2      0.000      0.000
REMARK  5 active torsions:
REMARK  status: ('A' for Active; 'I' for Inactive)
REMARK    1  A    between atoms: C_4  and  C_29 
REMARK    2  A    between atoms: C_9  and  O_22 
REMARK    3  A    between atoms: C_10  and  O_17 
REMARK    4  A    between atoms: C_12  and  C_14 
REMARK    5  A    between atoms: C_14  and  C_25 
ROOT
HETATM    1  C   UNL     1      14.195  42.604  22.976  1.00  0.00     0.025 C 
HETATM    2  C   UNL     1      14.407  42.819  24.321  1.00  0.00     0.016 C 
HETATM    3  C   UNL     1      15.239  41.989  25.062  1.00  0.00     0.002 C 
HETATM    4  C   UNL     1      15.174  41.786  22.265  1.00  0.00     0.189 C 
HETATM    5  O   UNL     1      15.268  41.822  20.990  1.00  0.00    -0.287 OA
HETATM    6  C   UNL     1      16.048  40.964  23.048  1.00  0.00    -0.003 C 
HETATM    7  C   UNL     1      15.980  41.011  24.432  1.00  0.00     0.011 C 
ENDROOT
BRANCH   6   8
HETATM    8  C   UNL     1      17.000  39.990  22.409  1.00  0.00     0.081 C 
BRANCH   8   9
HETATM    9  C   UNL     1      16.328  38.651  22.206  1.00  0.00    -0.052 C 
HETATM   10  C   UNL     1      16.547  37.658  23.153  1.00  0.00     0.037 C 
HETATM   11  C   UNL     1      15.957  36.414  22.969  1.00  0.00     0.042 C 
HETATM   12  N   UNL     1      15.981  35.306  23.818  1.00  0.00    -0.326 N 
HETATM   13  C   UNL     1      15.007  36.236  21.974  1.00  0.00    -0.023 C 
HETATM   14  C   UNL     1      15.394  34.222  23.024  1.00  0.00     0.226 C 
ATOM     15  HN  UNL     1      16.329  35.261  24.776  1.00  0.00     0.169 HD
HETATM   16  C   UNL     1      14.286  34.957  22.264  1.00  0.00     0.144 C 
HETATM   17  O   UNL     1      15.063  33.232  23.727  1.00  0.00    -0.273 OA
HETATM   18  C   UNL     1      14.843  37.198  20.983  1.00  0.00     0.010 C 
HETATM   19  C   UNL     1      15.515  38.408  21.109  1.00  0.00     0.008 C 
ENDBRANCH   8   9
ENDBRANCH   6   8
BRANCH   1  20
HETATM   20  C   UNL     1      12.994  43.158  22.298  1.00  0.00    -0.019 C 
HETATM   21  C   UNL     1      12.700  44.516  22.356  1.00  0.00     0.051 C 
HETATM   22  C   UNL     1      11.412  44.967  22.080  1.00  0.00     0.099 C 
HETATM   23  C   UNL     1      10.394  44.065  21.799  1.00  0.00     0.098 C 
HETATM   24  C   UNL     1      10.719  42.730  21.611  1.00  0.00     0.040 C 
HETATM   25  C   UNL     1      12.034  42.298  21.761  1.00  0.00     0.015 C 
BRANCH  22  26
HETATM   26  O   UNL     1      11.197  46.288  21.801  1.00  0.00    -0.358 OA
ATOM     27  HO  UNL     1      11.498  46.654  20.978  1.00  0.00     0.217 HD
ENDBRANCH  22  26
BRANCH  23  28
HETATM   28  O   UNL     1       9.135  44.521  21.546  1.00  0.00    -0.358 OA
ATOM     29  HO  UNL     1       8.489  43.965  21.125  1.00  0.00     0.217 HD
ENDBRANCH  23  28
ENDBRANCH   1  20
TORSDOF 5
ENDMDL
MODEL 2
REMARK VINA RESULT:     -10.1      2.272      2.995
REMARK  5 active torsions:
REMARK  status: ('A' for Active; 'I' for Inactive)
REMARK    1  A    between atoms: C_4  and  C_29 
REMARK    2  A    between atoms: C_9  and  O_22 
REMARK    3  A    between atoms: C_10  and  O_17 
REMARK    4  A    between atoms: C_12  and  C_14 
REMARK    5  A    between atoms: C_14  and  C_25 
ROOT
HETATM    1  C   UNL     1      14.541  42.246  22.567  1.00  0.00     0.025 C 
HETATM    2  C   UNL     1      14.821  42.095  23.908  1.00  0.00     0.016 C 
HETATM    3  C   UNL     1      15.710  41.125  24.355  1.00  0.00     0.002 C 
HETATM    4  C   UNL     1      15.499  41.689  21.616  1.00  0.00     0.189 C 
HETATM    5  O   UNL     1      15.524  42.073  20.396  1.00  0.00    -0.287 OA
HETATM    6  C   UNL     1      16.432  40.716  22.102  1.00  0.00    -0.003 C 
HETATM    7  C   UNL     1      16.438  40.383  23.448  1.00  0.00     0.011 C 
ENDROOT
BRANCH   6   8
HETATM    8  C   UNL     1      17.370  39.988  21.179  1.00  0.00     0.081 C 
BRANCH   8   9
HETATM    9  C   UNL     1      18.393  39.210  21.974  1.00  0.00    -0.052 C 
HETATM   10  C   UNL     1      17.995  38.018  22.566  1.00  0.00     0.037 C 
HETATM   11  C   UNL     1      18.915  37.303  23.322  1.00  0.00     0.042 C 
HETATM   12  N   UNL     1      18.757  36.060  23.938  1.00  0.00    -0.326 N 
HETATM   13  C   UNL     1      20.254  37.667  23.312  1.00  0.00    -0.023 C 
HETATM   14  C   UNL     1      19.956  35.906  24.768  1.00  0.00     0.226 C 
ATOM     15  HN  UNL     1      17.981  35.407  23.834  1.00  0.00     0.169 HD
HETATM   16  C   UNL     1      21.036  36.520  23.872  1.00  0.00     0.144 C 
HETATM   17  O   UNL     1      20.125  34.722  25.160  1.00  0.00    -0.273 OA
HETATM   18  C   UNL     1      20.641  38.895  22.786  1.00  0.00     0.010 C 
HETATM   19  C   UNL     1      19.696  39.664  22.120  1.00  0.00     0.008 C 
ENDBRANCH   8   9
ENDBRANCH   6   8
BRANCH   1  20
HETATM   20  C   UNL     1      13.294  42.920  22.122  1.00  0.00    -0.019 C 
HETATM   21  C   UNL     1      13.110  44.286  22.311  1.00  0.00     0.051 C 
HETATM   22  C   UNL     1      11.830  44.833  22.269  1.00  0.00     0.099 C 
HETATM   23  C   UNL     1      10.720  44.018  22.095  1.00  0.00     0.098 C 
HETATM   24  C   UNL     1      10.916  42.682  21.775  1.00  0.00     0.040 C 
HETATM   25  C   UNL     1      12.205  42.162  21.690  1.00  0.00     0.015 C 
BRANCH  22  26
HETATM   26  O   UNL     1      11.670  46.182  22.111  1.00  0.00    -0.358 OA
ATOM     27  HO  UNL     1      12.141  46.638  21.423  1.00  0.00     0.217 HD
ENDBRANCH  22  26
BRANCH  23  28
HETATM   28  O   UNL     1       9.472  44.567  22.072  1.00  0.00    -0.358 OA
ATOM     29  HO  UNL     1       8.885  44.474  22.813  1.00  0.00     0.217 HD
ENDBRANCH  23  28
ENDBRANCH   1  20
TORSDOF 5
ENDMDL
MODEL 3
REMARK VINA RESULT:      -9.9      5.788      9.522
REMARK  5 active torsions:
REMARK  status: ('A' for Active; 'I' for Inactive)
REMARK    1  A    between atoms: C_4  and  C_29 
REMARK    2  A    between atoms: C_9  and  O_22 
REMARK    3  A    between atoms: C_10  and  O_17 
REMARK    4  A    between atoms: C_12  and  C_14 
REMARK    5  A    between atoms: C_14  and  C_25 
ROOT
HETATM    1  C   UNL     1      14.648  40.526  29.848  1.00  0.00     0.025 C 
HETATM    2  C   UNL     1      13.295  40.772  29.755  1.00  0.00     0.016 C 
HETATM    3  C   UNL     1      12.801  41.783  28.940  1.00  0.00     0.002 C 
HETATM    4  C   UNL     1      15.497  41.032  28.773  1.00  0.00     0.189 C 
HETATM    5  O   UNL     1      16.673  40.566  28.580  1.00  0.00    -0.287 OA
HETATM    6  C   UNL     1      14.957  42.048  27.920  1.00  0.00    -0.003 C 
HETATM    7  C   UNL     1      13.649  42.472  28.099  1.00  0.00     0.011 C 
ENDROOT
BRANCH   6   8
HETATM    8  C   UNL     1      15.793  42.726  26.869  1.00  0.00     0.081 C 
BRANCH   8   9
HETATM    9  C   UNL     1      15.028  42.824  25.569  1.00  0.00    -0.052 C 
HETATM   10  C   UNL     1      14.196  43.921  25.380  1.00  0.00     0.037 C 
HETATM   11  C   UNL     1      13.466  44.015  24.203  1.00  0.00     0.042 C 
HETATM   12  N   UNL     1      12.636  45.052  23.774  1.00  0.00    -0.326 N 
HETATM   13  C   UNL     1      13.720  43.140  23.156  1.00  0.00    -0.023 C 
HETATM   14  C   UNL     1      11.964  44.518  22.585  1.00  0.00     0.226 C 
ATOM     15  HN  UNL     1      12.522  45.974  24.194  1.00  0.00     0.169 HD
HETATM   16  C   UNL     1      13.089  43.714  21.926  1.00  0.00     0.144 C 
HETATM   17  O   UNL     1      11.407  45.415  21.900  1.00  0.00    -0.273 OA
HETATM   18  C   UNL     1      14.490  42.001  23.368  1.00  0.00     0.010 C 
HETATM   19  C   UNL     1      15.140  41.851  24.587  1.00  0.00     0.008 C 
ENDBRANCH   8   9
ENDBRANCH   6   8
BRANCH   1  20
HETATM   20  C   UNL     1      15.210  39.805  31.020  1.00  0.00    -0.019 C 
HETATM   21  C   UNL     1      15.609  38.476  30.922  1.00  0.00     0.051 C 
HETATM   22  C   UNL     1      15.752  37.700  32.069  1.00  0.00     0.099 C 
HETATM   23  C   UNL     1      15.445  38.224  33.317  1.00  0.00     0.098 C 
HETATM   24  C   UNL     1      15.178  39.581  33.424  1.00  0.00     0.040 C 
HETATM   25  C   UNL     1      15.162  40.386  32.288  1.00  0.00     0.015 C 
BRANCH  22  26
HETATM   26  O   UNL     1      16.457  36.530  32.017  1.00  0.00    -0.358 OA
ATOM     27  HO  UNL     1      16.139  35.764  32.482  1.00  0.00     0.217 HD
ENDBRANCH  22  26
BRANCH  23  28
HETATM   28  O   UNL     1      15.575  37.447  34.429  1.00  0.00    -0.358 OA
ATOM     29  HO  UNL     1      16.120  36.669  34.420  1.00  0.00     0.217 HD
ENDBRANCH  23  28
ENDBRANCH   1  20
TORSDOF 5
ENDMDL
MODEL 4
REMARK VINA RESULT:      -9.8      0.874      1.414
REMARK  5 active torsions:
REMARK  status: ('A' for Active; 'I' for Inactive)
REMARK    1  A    between atoms: C_4  and  C_29 
REMARK    2  A    between atoms: C_9  and  O_22 
REMARK    3  A    between atoms: C_10  and  O_17 
REMARK    4  A    between atoms: C_12  and  C_14 
REMARK    5  A    between atoms: C_14  and  C_25 
ROOT
HETATM    1  C   UNL     1      14.327  42.493  22.818  1.00  0.00     0.025 C 
HETATM    2  C   UNL     1      14.528  42.518  24.182  1.00  0.00     0.016 C 
HETATM    3  C   UNL     1      15.413  41.641  24.796  1.00  0.00     0.002 C 
HETATM    4  C   UNL     1      15.355  41.855  22.001  1.00  0.00     0.189 C 
HETATM    5  O   UNL     1      15.443  42.087  20.746  1.00  0.00    -0.287 OA
HETATM    6  C   UNL     1      16.282  40.983  22.657  1.00  0.00    -0.003 C 
HETATM    7  C   UNL     1      16.215  40.818  24.033  1.00  0.00     0.011 C 
ENDROOT
BRANCH   6   8
HETATM    8  C   UNL     1      17.293  40.179  21.887  1.00  0.00     0.081 C 
BRANCH   8   9
HETATM    9  C   UNL     1      17.317  38.750  22.382  1.00  0.00    -0.052 C 
HETATM   10  C   UNL     1      16.115  38.055  22.436  1.00  0.00     0.037 C 
HETATM   11  C   UNL     1      16.115  36.750  22.912  1.00  0.00     0.042 C 
HETATM   12  N   UNL     1      15.050  35.851  22.984  1.00  0.00    -0.326 N 
HETATM   13  C   UNL     1      17.316  36.091  23.132  1.00  0.00    -0.023 C 
HETATM   14  C   UNL     1      15.572  34.725  23.765  1.00  0.00     0.226 C 
ATOM     15  HN  UNL     1      14.118  35.954  22.584  1.00  0.00     0.169 HD
HETATM   16  C   UNL     1      17.012  34.630  23.251  1.00  0.00     0.144 C 
HETATM   17  O   UNL     1      14.851  33.698  23.675  1.00  0.00    -0.273 OA
HETATM   18  C   UNL     1      18.511  36.803  23.153  1.00  0.00     0.010 C 
HETATM   19  C   UNL     1      18.499  38.140  22.777  1.00  0.00     0.008 C 
ENDBRANCH   8   9
ENDBRANCH   6   8
BRANCH   1  20
HETATM   20  C   UNL     1      13.091  43.064  22.222  1.00  0.00    -0.019 C 
HETATM   21  C   UNL     1      12.796  44.418  22.342  1.00  0.00     0.051 C 
HETATM   22  C   UNL     1      11.494  44.872  22.148  1.00  0.00     0.099 C 
HETATM   23  C   UNL     1      10.466  43.976  21.888  1.00  0.00     0.098 C 
HETATM   24  C   UNL     1      10.785  42.649  21.638  1.00  0.00     0.040 C 
HETATM   25  C   UNL     1      12.108  42.219  21.706  1.00  0.00     0.015 C 
BRANCH  22  26
HETATM   26  O   UNL     1      11.261  46.201  21.927  1.00  0.00    -0.358 OA
ATOM     27  HO  UNL     1      11.836  46.694  21.353  1.00  0.00     0.217 HD
ENDBRANCH  22  26
BRANCH  23  28
HETATM   28  O   UNL     1       9.194  44.434  21.716  1.00  0.00    -0.358 OA
ATOM     29  HO  UNL     1       8.922  44.822  20.892  1.00  0.00     0.217 HD
ENDBRANCH  23  28
ENDBRANCH   1  20
TORSDOF 5
ENDMDL
MODEL 5
REMARK VINA RESULT:      -9.4      1.310      1.734
REMARK  5 active torsions:
REMARK  status: ('A' for Active; 'I' for Inactive)
REMARK    1  A    between atoms: C_4  and  C_29 
REMARK    2  A    between atoms: C_9  and  O_22 
REMARK    3  A    between atoms: C_10  and  O_17 
REMARK    4  A    between atoms: C_12  and  C_14 
REMARK    5  A    between atoms: C_14  and  C_25 
ROOT
HETATM    1  C   UNL     1      14.049  41.976  22.540  1.00  0.00     0.025 C 
HETATM    2  C   UNL     1      14.496  42.095  23.839  1.00  0.00     0.016 C 
HETATM    3  C   UNL     1      15.234  41.084  24.443  1.00  0.00     0.002 C 
HETATM    4  C   UNL     1      14.720  40.999  21.687  1.00  0.00     0.189 C 
HETATM    5  O   UNL     1      14.633  41.059  20.413  1.00  0.00    -0.287 OA
HETATM    6  C   UNL     1      15.506  39.986  22.326  1.00  0.00    -0.003 C 
HETATM    7  C   UNL     1      15.653  39.997  23.705  1.00  0.00     0.011 C 
ENDROOT
BRANCH   6   8
HETATM    8  C   UNL     1      16.128  38.859  21.549  1.00  0.00     0.081 C 
BRANCH   8   9
HETATM    9  C   UNL     1      15.687  37.526  22.108  1.00  0.00    -0.052 C 
HETATM   10  C   UNL     1      14.400  37.089  21.822  1.00  0.00     0.037 C 
HETATM   11  C   UNL     1      13.969  35.878  22.349  1.00  0.00     0.042 C 
HETATM   12  N   UNL     1      12.758  35.218  22.136  1.00  0.00    -0.326 N 
HETATM   13  C   UNL     1      14.873  35.031  22.973  1.00  0.00    -0.023 C 
HETATM   14  C   UNL     1      12.762  34.118  23.105  1.00  0.00     0.226 C 
ATOM     15  HN  UNL     1      12.032  35.449  21.457  1.00  0.00     0.169 HD
HETATM   16  C   UNL     1      14.230  33.684  23.076  1.00  0.00     0.144 C 
HETATM   17  O   UNL     1      11.889  33.247  22.853  1.00  0.00    -0.273 OA
HETATM   18  C   UNL     1      16.136  35.495  23.327  1.00  0.00     0.010 C 
HETATM   19  C   UNL     1      16.533  36.752  22.890  1.00  0.00     0.008 C 
ENDBRANCH   8   9
ENDBRANCH   6   8
BRANCH   1  20
HETATM   20  C   UNL     1      12.906  42.791  22.052  1.00  0.00    -0.019 C 
HETATM   21  C   UNL     1      12.832  44.154  22.317  1.00  0.00     0.051 C 
HETATM   22  C   UNL     1      11.614  44.822  22.221  1.00  0.00     0.099 C 
HETATM   23  C   UNL     1      10.451  44.127  21.913  1.00  0.00     0.098 C 
HETATM   24  C   UNL     1      10.551  42.801  21.521  1.00  0.00     0.040 C 
HETATM   25  C   UNL     1      11.790  42.166  21.494  1.00  0.00     0.015 C 
BRANCH  22  26
HETATM   26  O   UNL     1      11.589  46.187  22.141  1.00  0.00    -0.358 OA
ATOM     27  HO  UNL     1      12.055  46.629  21.441  1.00  0.00     0.217 HD
ENDBRANCH  22  26
BRANCH  23  28
HETATM   28  O   UNL     1       9.264  44.793  21.837  1.00  0.00    -0.358 OA
ATOM     29  HO  UNL     1       8.902  45.052  20.998  1.00  0.00     0.217 HD
ENDBRANCH  23  28
ENDBRANCH   1  20
TORSDOF 5
ENDMDL
MODEL 6
REMARK VINA RESULT:      -9.2      3.207      8.017
REMARK  5 active torsions:
REMARK  status: ('A' for Active; 'I' for Inactive)
REMARK    1  A    between atoms: C_4  and  C_29 
REMARK    2  A    between atoms: C_9  and  O_22 
REMARK    3  A    between atoms: C_10  and  O_17 
REMARK    4  A    between atoms: C_12  and  C_14 
REMARK    5  A    between atoms: C_14  and  C_25 
ROOT
HETATM    1  C   UNL     1      15.240  36.391  22.772  1.00  0.00     0.025 C 
HETATM    2  C   UNL     1      16.523  36.215  23.243  1.00  0.00     0.016 C 
HETATM    3  C   UNL     1      17.502  37.182  23.049  1.00  0.00     0.002 C 
HETATM    4  C   UNL     1      14.819  37.756  22.467  1.00  0.00     0.189 C 
HETATM    5  O   UNL     1      13.582  38.064  22.372  1.00  0.00    -0.287 OA
HETATM    6  C   UNL     1      15.841  38.747  22.306  1.00  0.00    -0.003 C 
HETATM    7  C   UNL     1      17.170  38.402  22.499  1.00  0.00     0.011 C 
ENDROOT
BRANCH   6   8
HETATM    8  C   UNL     1      15.521  40.149  21.864  1.00  0.00     0.081 C 
BRANCH   8   9
HETATM    9  C   UNL     1      15.334  41.050  23.064  1.00  0.00    -0.052 C 
HETATM   10  C   UNL     1      14.577  42.204  22.904  1.00  0.00     0.037 C 
HETATM   11  C   UNL     1      14.416  43.057  23.989  1.00  0.00     0.042 C 
HETATM   12  N   UNL     1      13.647  44.219  24.076  1.00  0.00    -0.326 N 
HETATM   13  C   UNL     1      14.829  42.659  25.252  1.00  0.00    -0.023 C 
HETATM   14  C   UNL     1      14.028  44.817  25.359  1.00  0.00     0.226 C 
ATOM     15  HN  UNL     1      12.972  44.572  23.398  1.00  0.00     0.169 HD
HETATM   16  C   UNL     1      14.187  43.577  26.245  1.00  0.00     0.144 C 
HETATM   17  O   UNL     1      13.221  45.706  25.737  1.00  0.00    -0.273 OA
HETATM   18  C   UNL     1      15.650  41.546  25.402  1.00  0.00     0.010 C 
HETATM   19  C   UNL     1      15.900  40.747  24.293  1.00  0.00     0.008 C 
ENDBRANCH   8   9
ENDBRANCH   6   8
BRANCH   1  20
HETATM   20  C   UNL     1      14.344  35.226  22.553  1.00  0.00    -0.019 C 
HETATM   21  C   UNL     1      13.776  34.981  21.307  1.00  0.00     0.051 C 
HETATM   22  C   UNL     1      12.657  34.160  21.194  1.00  0.00     0.099 C 
HETATM   23  C   UNL     1      12.062  33.622  22.327  1.00  0.00     0.098 C 
HETATM   24  C   UNL     1      12.705  33.758  23.548  1.00  0.00     0.040 C 
HETATM   25  C   UNL     1      13.897  34.472  23.639  1.00  0.00     0.015 C 
BRANCH  22  26
HETATM   26  O   UNL     1      12.307  33.646  19.977  1.00  0.00    -0.358 OA
ATOM     27  HO  UNL     1      12.408  32.717  19.808  1.00  0.00     0.217 HD
ENDBRANCH  22  26
BRANCH  23  28
HETATM   28  O   UNL     1      10.957  32.833  22.202  1.00  0.00    -0.358 OA
ATOM     29  HO  UNL     1      10.940  31.955  22.567  1.00  0.00     0.217 HD
ENDBRANCH  23  28
ENDBRANCH   1  20
TORSDOF 5
ENDMDL
MODEL 7
REMARK VINA RESULT:      -9.2      5.473      8.497
REMARK  5 active torsions:
REMARK  status: ('A' for Active; 'I' for Inactive)
REMARK    1  A    between atoms: C_4  and  C_29 
REMARK    2  A    between atoms: C_9  and  O_22 
REMARK    3  A    between atoms: C_10  and  O_17 
REMARK    4  A    between atoms: C_12  and  C_14 
REMARK    5  A    between atoms: C_14  and  C_25 
ROOT
HETATM    1  C   UNL     1      14.584  40.701  29.722  1.00  0.00     0.025 C 
HETATM    2  C   UNL     1      13.232  40.937  29.593  1.00  0.00     0.016 C 
HETATM    3  C   UNL     1      12.748  41.899  28.715  1.00  0.00     0.002 C 
HETATM    4  C   UNL     1      15.449  41.149  28.633  1.00  0.00     0.189 C 
HETATM    5  O   UNL     1      16.628  40.677  28.486  1.00  0.00    -0.287 OA
HETATM    6  C   UNL     1      14.920  42.114  27.716  1.00  0.00    -0.003 C 
HETATM    7  C   UNL     1      13.609  42.543  27.850  1.00  0.00     0.011 C 
ENDROOT
BRANCH   6   8
HETATM    8  C   UNL     1      15.771  42.734  26.642  1.00  0.00     0.081 C 
BRANCH   8   9
HETATM    9  C   UNL     1      15.247  42.361  25.274  1.00  0.00    -0.052 C 
HETATM   10  C   UNL     1      15.419  41.052  24.840  1.00  0.00     0.037 C 
HETATM   11  C   UNL     1      14.966  40.699  23.576  1.00  0.00     0.042 C 
HETATM   12  N   UNL     1      14.967  39.441  22.971  1.00  0.00    -0.326 N 
HETATM   13  C   UNL     1      14.179  41.580  22.849  1.00  0.00    -0.023 C 
HETATM   14  C   UNL     1      14.587  39.701  21.580  1.00  0.00     0.226 C 
ATOM     15  HN  UNL     1      15.184  38.542  23.402  1.00  0.00     0.169 HD
HETATM   16  C   UNL     1      13.534  40.801  21.745  1.00  0.00     0.144 C 
HETATM   17  O   UNL     1      14.248  38.655  20.967  1.00  0.00    -0.273 OA
HETATM   18  C   UNL     1      14.070  42.909  23.243  1.00  0.00     0.010 C 
HETATM   19  C   UNL     1      14.614  43.291  24.462  1.00  0.00     0.008 C 
ENDBRANCH   8   9
ENDBRANCH   6   8
BRANCH   1  20
HETATM   20  C   UNL     1      15.129  40.050  30.941  1.00  0.00    -0.019 C 
HETATM   21  C   UNL     1      15.601  38.742  30.906  1.00  0.00     0.051 C 
HETATM   22  C   UNL     1      15.731  38.011  32.084  1.00  0.00     0.099 C 
HETATM   23  C   UNL     1      15.341  38.558  33.299  1.00  0.00     0.098 C 
HETATM   24  C   UNL     1      14.998  39.901  33.348  1.00  0.00     0.040 C 
HETATM   25  C   UNL     1      14.992  40.668  32.185  1.00  0.00     0.015 C 
BRANCH  22  26
HETATM   26  O   UNL     1      16.498  36.880  32.103  1.00  0.00    -0.358 OA
ATOM     27  HO  UNL     1      17.266  36.818  31.547  1.00  0.00     0.217 HD
ENDBRANCH  22  26
BRANCH  23  28
HETATM   28  O   UNL     1      15.460  37.825  34.442  1.00  0.00    -0.358 OA
ATOM     29  HO  UNL     1      15.724  38.232  35.258  1.00  0.00     0.217 HD
ENDBRANCH  23  28
ENDBRANCH   1  20
TORSDOF 5
ENDMDL
MODEL 8
REMARK VINA RESULT:      -9.0      2.992      3.988
REMARK  5 active torsions:
REMARK  status: ('A' for Active; 'I' for Inactive)
REMARK    1  A    between atoms: C_4  and  C_29 
REMARK    2  A    between atoms: C_9  and  O_22 
REMARK    3  A    between atoms: C_10  and  O_17 
REMARK    4  A    between atoms: C_12  and  C_14 
REMARK    5  A    between atoms: C_14  and  C_25 
ROOT
HETATM    1  C   UNL     1      14.645  41.094  22.164  1.00  0.00     0.025 C 
HETATM    2  C   UNL     1      14.592  40.253  21.073  1.00  0.00     0.016 C 
HETATM    3  C   UNL     1      15.750  39.739  20.503  1.00  0.00     0.002 C 
HETATM    4  C   UNL     1      15.868  41.082  22.962  1.00  0.00     0.189 C 
HETATM    5  O   UNL     1      15.885  41.536  24.158  1.00  0.00    -0.287 OA
HETATM    6  C   UNL     1      17.043  40.515  22.371  1.00  0.00    -0.003 C 
HETATM    7  C   UNL     1      16.973  39.952  21.106  1.00  0.00     0.011 C 
ENDROOT
BRANCH   6   8
HETATM    8  C   UNL     1      18.380  40.571  23.057  1.00  0.00     0.081 C 
BRANCH   8   9
HETATM    9  C   UNL     1      19.306  39.516  22.496  1.00  0.00    -0.052 C 
HETATM   10  C   UNL     1      19.230  38.232  23.021  1.00  0.00     0.037 C 
HETATM   11  C   UNL     1      20.090  37.255  22.534  1.00  0.00     0.042 C 
HETATM   12  N   UNL     1      20.139  35.899  22.859  1.00  0.00    -0.326 N 
HETATM   13  C   UNL     1      20.861  37.508  21.409  1.00  0.00    -0.023 C 
HETATM   14  C   UNL     1      21.368  35.413  22.223  1.00  0.00     0.226 C 
ATOM     15  HN  UNL     1      19.471  35.366  23.414  1.00  0.00     0.169 HD
HETATM   16  C   UNL     1      21.365  36.192  20.904  1.00  0.00     0.144 C 
HETATM   17  O   UNL     1      21.416  34.157  22.159  1.00  0.00    -0.273 OA
HETATM   18  C   UNL     1      20.997  38.808  20.931  1.00  0.00     0.010 C 
HETATM   19  C   UNL     1      20.212  39.809  21.488  1.00  0.00     0.008 C 
ENDBRANCH   8   9
ENDBRANCH   6   8
BRANCH   1  20
HETATM   20  C   UNL     1      13.509  41.998  22.482  1.00  0.00    -0.019 C 
HETATM   21  C   UNL     1      12.314  41.925  21.774  1.00  0.00     0.051 C 
HETATM   22  C   UNL     1      11.423  42.995  21.788  1.00  0.00     0.099 C 
HETATM   23  C   UNL     1      11.741  44.167  22.462  1.00  0.00     0.098 C 
HETATM   24  C   UNL     1      12.866  44.188  23.272  1.00  0.00     0.040 C 
HETATM   25  C   UNL     1      13.690  43.069  23.359  1.00  0.00     0.015 C 
BRANCH  22  26
HETATM   26  O   UNL     1      10.127  42.810  21.393  1.00  0.00    -0.358 OA
ATOM     27  HO  UNL     1       9.810  43.224  20.599  1.00  0.00     0.217 HD
ENDBRANCH  22  26
BRANCH  23  28
HETATM   28  O   UNL     1      10.865  45.212  22.453  1.00  0.00    -0.358 OA
ATOM     29  HO  UNL     1       9.927  45.063  22.444  1.00  0.00     0.217 HD
ENDBRANCH  23  28
ENDBRANCH   1  20
TORSDOF 5
ENDMDL
MODEL 9
REMARK VINA RESULT:      -9.0      3.857      6.817
REMARK  5 active torsions:
REMARK  status: ('A' for Active; 'I' for Inactive)
REMARK    1  A    between atoms: C_4  and  C_29 
REMARK    2  A    between atoms: C_9  and  O_22 
REMARK    3  A    between atoms: C_10  and  O_17 
REMARK    4  A    between atoms: C_12  and  C_14 
REMARK    5  A    between atoms: C_14  and  C_25 
ROOT
HETATM    1  C   UNL     1      14.270  41.624  22.783  1.00  0.00     0.025 C 
HETATM    2  C   UNL     1      13.440  42.634  22.347  1.00  0.00     0.016 C 
HETATM    3  C   UNL     1      13.096  43.694  23.177  1.00  0.00     0.002 C 
HETATM    4  C   UNL     1      15.114  41.903  23.942  1.00  0.00     0.189 C 
HETATM    5  O   UNL     1      16.145  41.191  24.199  1.00  0.00    -0.287 OA
HETATM    6  C   UNL     1      14.765  43.021  24.766  1.00  0.00    -0.003 C 
HETATM    7  C   UNL     1      13.692  43.827  24.414  1.00  0.00     0.011 C 
ENDROOT
BRANCH   6   8
HETATM    8  C   UNL     1      15.490  43.314  26.051  1.00  0.00     0.081 C 
BRANCH   8   9
HETATM    9  C   UNL     1      14.870  42.543  27.193  1.00  0.00    -0.052 C 
HETATM   10  C   UNL     1      15.705  41.774  27.994  1.00  0.00     0.037 C 
HETATM   11  C   UNL     1      15.149  41.039  29.033  1.00  0.00     0.042 C 
HETATM   12  N   UNL     1      15.798  40.265  29.996  1.00  0.00    -0.326 N 
HETATM   13  C   UNL     1      13.821  41.232  29.387  1.00  0.00    -0.023 C 
HETATM   14  C   UNL     1      14.718  39.552  30.685  1.00  0.00     0.226 C 
ATOM     15  HN  UNL     1      16.800  40.208  30.180  1.00  0.00     0.169 HD
HETATM   16  C   UNL     1      13.624  40.623  30.741  1.00  0.00     0.144 C 
HETATM   17  O   UNL     1      15.091  39.041  31.773  1.00  0.00    -0.273 OA
HETATM   18  C   UNL     1      12.968  41.938  28.546  1.00  0.00     0.010 C 
HETATM   19  C   UNL     1      13.506  42.590  27.444  1.00  0.00     0.008 C 
ENDBRANCH   8   9
ENDBRANCH   6   8
BRANCH   1  20
HETATM   20  C   UNL     1      14.268  40.297  22.113  1.00  0.00    -0.019 C 
HETATM   21  C   UNL     1      13.605  39.211  22.675  1.00  0.00     0.051 C 
HETATM   22  C   UNL     1      13.925  37.914  22.281  1.00  0.00     0.099 C 
HETATM   23  C   UNL     1      14.944  37.686  21.366  1.00  0.00     0.098 C 
HETATM   24  C   UNL     1      15.509  38.771  20.712  1.00  0.00     0.040 C 
HETATM   25  C   UNL     1      15.097  40.067  21.014  1.00  0.00     0.015 C 
BRANCH  22  26
HETATM   26  O   UNL     1      13.068  36.886  22.559  1.00  0.00    -0.358 OA
ATOM     27  HO  UNL     1      13.203  36.035  22.160  1.00  0.00     0.217 HD
ENDBRANCH  22  26
BRANCH  23  28
HETATM   28  O   UNL     1      15.255  36.410  21.002  1.00  0.00    -0.358 OA
ATOM     29  HO  UNL     1      14.917  35.667  21.488  1.00  0.00     0.217 HD
ENDBRANCH  23  28
ENDBRANCH   1  20
TORSDOF 5
ENDMDL
