MODEL 1
REMARK VINA RESULT:      -5.6      0.000      0.000
REMARK  4 active torsions:
REMARK  status: ('A' for Active; 'I' for Inactive)
REMARK    1  A    between atoms: C_2  and  O_3 
REMARK    2  A    between atoms: C_2  and  O_14 
REMARK       I    between atoms: N_7  and  C_28 
REMARK    3  A    between atoms: C_11  and  C_18 
REMARK    4  A    between atoms: C_19  and  O_23 
ROOT
HETATM    1  C   UNL     1     -48.369  80.186  -4.580  1.00  0.00     0.065 C 
HETATM    2  C   UNL     1     -45.809  81.057  -9.291  1.00  0.00     0.210 C 
HETATM    3  C   UNL     1     -45.213  80.379 -10.491  1.00  0.00     0.058 C 
HETATM    4  C   UNL     1     -47.461  79.026  -6.589  1.00  0.00     0.077 C 
HETATM    5  C   UNL     1     -47.641  81.421  -5.023  1.00  0.00    -0.023 C 
HETATM    6  C   UNL     1     -46.725  80.268  -6.980  1.00  0.00    -0.044 C 
HETATM    7  C   UNL     1     -45.792  80.173  -8.058  1.00  0.00     0.014 C 
HETATM    8  C   UNL     1     -44.654  79.124 -10.419  1.00  0.00    -0.023 C 
HETATM    9  C   UNL     1     -47.770  78.900  -5.103  1.00  0.00     0.061 C 
HETATM   10  C   UNL     1     -46.519  78.541  -4.350  1.00  0.00     0.046 C 
HETATM   11  C   UNL     1     -44.427  78.518  -9.185  1.00  0.00     0.013 C 
HETATM   12  C   UNL     1     -44.877  79.111  -8.011  1.00  0.00     0.014 C 
HETATM   13  C   UNL     1     -46.944  81.425  -6.247  1.00  0.00     0.004 C 
ENDROOT
BRANCH   2  14
HETATM   14  O   UNL     1     -45.100  82.252  -9.045  1.00  0.00    -0.358 OA
ATOM     15  HO  UNL     1     -44.897  82.663  -9.876  1.00  0.00     0.213 HD
ENDBRANCH   2  14
BRANCH   2  16
HETATM   16  O   UNL     1     -47.118  81.458  -9.583  1.00  0.00    -0.358 OA
ATOM     17  HO  UNL     1     -47.181  82.354  -9.275  1.00  0.00     0.213 HD
ENDBRANCH   2  16
BRANCH   8  18
HETATM   18  C   UNL     1     -44.169  78.407 -11.621  1.00  0.00    -0.010 C 
HETATM   19  C   UNL     1     -43.880  79.051 -12.808  1.00  0.00     0.114 C 
HETATM   20  N   UNL     1     -44.079  78.327 -13.988  1.00  0.00    -0.277 N 
HETATM   21  C   UNL     1     -43.859  76.951 -13.956  1.00  0.00     0.102 C 
HETATM   22  C   UNL     1     -44.673  78.917 -15.109  1.00  0.00     0.294 C 
HETATM   23  C   UNL     1     -43.985  76.288 -12.765  1.00  0.00     0.019 C 
HETATM   24  C   UNL     1     -44.158  77.014 -11.587  1.00  0.00     0.015 C 
HETATM   25  O   UNL     1     -44.225  78.710 -16.247  1.00  0.00    -0.629 OA
HETATM   26  O   UNL     1     -45.722  79.560 -14.926  1.00  0.00    -0.629 OA
ENDBRANCH   8  18
BRANCH   9  27
HETATM   27  O   UNL     1     -48.749  77.890  -4.922  1.00  0.00    -0.390 OA
ATOM     28  HO  UNL     1     -49.160  77.752  -5.767  1.00  0.00     0.210 HD
ENDBRANCH   9  27
TORSDOF 4
ENDMDL
MODEL 2
REMARK VINA RESULT:      -5.4      2.930      8.646
REMARK  4 active torsions:
REMARK  status: ('A' for Active; 'I' for Inactive)
REMARK    1  A    between atoms: C_2  and  O_3 
REMARK    2  A    between atoms: C_2  and  O_14 
REMARK       I    between atoms: N_7  and  C_28 
REMARK    3  A    between atoms: C_11  and  C_18 
REMARK    4  A    between atoms: C_19  and  O_23 
ROOT
HETATM    1  C   UNL     1     -42.121  77.026 -17.794  1.00  0.00     0.065 C 
HETATM    2  C   UNL     1     -44.528  79.417 -13.552  1.00  0.00     0.210 C 
HETATM    3  C   UNL     1     -44.650  79.395 -12.055  1.00  0.00     0.058 C 
HETATM    4  C   UNL     1     -42.234  77.005 -15.305  1.00  0.00     0.077 C 
HETATM    5  C   UNL     1     -43.339  77.903 -17.794  1.00  0.00    -0.023 C 
HETATM    6  C   UNL     1     -43.465  77.854 -15.349  1.00  0.00    -0.044 C 
HETATM    7  C   UNL     1     -44.172  78.058 -14.124  1.00  0.00     0.014 C 
HETATM    8  C   UNL     1     -44.521  78.234 -11.328  1.00  0.00    -0.023 C 
HETATM    9  C   UNL     1     -41.981  76.172 -16.555  1.00  0.00     0.061 C 
HETATM   10  C   UNL     1     -42.930  75.006 -16.591  1.00  0.00     0.046 C 
HETATM   11  C   UNL     1     -44.484  76.996 -11.968  1.00  0.00     0.013 C 
HETATM   12  C   UNL     1     -44.447  76.917 -13.355  1.00  0.00     0.014 C 
HETATM   13  C   UNL     1     -43.883  78.351 -16.574  1.00  0.00     0.004 C 
ENDROOT
BRANCH   2  14
HETATM   14  O   UNL     1     -45.746  79.873 -14.100  1.00  0.00    -0.358 OA
ATOM     15  HO  UNL     1     -46.120  79.181 -14.632  1.00  0.00     0.213 HD
ENDBRANCH   2  14
BRANCH   2  16
HETATM   16  O   UNL     1     -43.573  80.368 -13.929  1.00  0.00    -0.358 OA
ATOM     17  HO  UNL     1     -43.387  80.188 -14.843  1.00  0.00     0.213 HD
ENDBRANCH   2  16
BRANCH   8  18
HETATM   18  C   UNL     1     -44.526  78.227  -9.847  1.00  0.00    -0.010 C 
HETATM   19  C   UNL     1     -44.648  77.067  -9.107  1.00  0.00     0.114 C 
HETATM   20  N   UNL     1     -45.284  77.170  -7.866  1.00  0.00    -0.277 N 
HETATM   21  C   UNL     1     -45.128  78.354  -7.147  1.00  0.00     0.102 C 
HETATM   22  C   UNL     1     -46.210  76.210  -7.444  1.00  0.00     0.294 C 
HETATM   23  C   UNL     1     -44.854  79.510  -7.827  1.00  0.00     0.019 C 
HETATM   24  C   UNL     1     -44.566  79.456  -9.190  1.00  0.00     0.015 C 
HETATM   25  O   UNL     1     -46.203  75.792  -6.275  1.00  0.00    -0.629 OA
HETATM   26  O   UNL     1     -47.096  75.879  -8.251  1.00  0.00    -0.629 OA
ENDBRANCH   8  18
BRANCH   9  27
HETATM   27  O   UNL     1     -40.642  75.703 -16.531  1.00  0.00    -0.390 OA
ATOM     28  HO  UNL     1     -40.454  75.458 -15.632  1.00  0.00     0.210 HD
ENDBRANCH   9  27
TORSDOF 4
ENDMDL
MODEL 3
REMARK VINA RESULT:      -5.3      4.178      9.157
REMARK  4 active torsions:
REMARK  status: ('A' for Active; 'I' for Inactive)
REMARK    1  A    between atoms: C_2  and  O_3 
REMARK    2  A    between atoms: C_2  and  O_14 
REMARK       I    between atoms: N_7  and  C_28 
REMARK    3  A    between atoms: C_11  and  C_18 
REMARK    4  A    between atoms: C_19  and  O_23 
ROOT
HETATM    1  C   UNL     1     -43.057  78.029 -19.394  1.00  0.00     0.065 C 
HETATM    2  C   UNL     1     -44.569  79.024 -14.272  1.00  0.00     0.210 C 
HETATM    3  C   UNL     1     -44.460  78.532 -12.858  1.00  0.00     0.058 C 
HETATM    4  C   UNL     1     -42.785  77.223 -17.052  1.00  0.00     0.077 C 
HETATM    5  C   UNL     1     -44.181  78.898 -18.914  1.00  0.00    -0.023 C 
HETATM    6  C   UNL     1     -43.932  78.080 -16.619  1.00  0.00    -0.044 C 
HETATM    7  C   UNL     1     -44.422  77.906 -15.288  1.00  0.00     0.014 C 
HETATM    8  C   UNL     1     -44.319  77.197 -12.557  1.00  0.00    -0.023 C 
HETATM    9  C   UNL     1     -42.800  76.821 -18.522  1.00  0.00     0.061 C 
HETATM   10  C   UNL     1     -43.838  75.758 -18.750  1.00  0.00     0.046 C 
HETATM   11  C   UNL     1     -44.486  76.225 -13.543  1.00  0.00     0.013 C 
HETATM   12  C   UNL     1     -44.670  76.590 -14.872  1.00  0.00     0.014 C 
HETATM   13  C   UNL     1     -44.491  78.953 -17.540  1.00  0.00     0.004 C 
ENDROOT
BRANCH   2  14
HETATM   14  O   UNL     1     -45.814  79.669 -14.434  1.00  0.00    -0.358 OA
ATOM     15  HO  UNL     1     -45.662  80.548 -14.760  1.00  0.00     0.213 HD
ENDBRANCH   2  14
BRANCH   2  16
HETATM   16  O   UNL     1     -43.607  80.015 -14.499  1.00  0.00    -0.358 OA
ATOM     17  HO  UNL     1     -44.017  80.632 -15.094  1.00  0.00     0.213 HD
ENDBRANCH   2  16
BRANCH   8  18
HETATM   18  C   UNL     1     -44.096  76.720 -11.173  1.00  0.00    -0.010 C 
HETATM   19  C   UNL     1     -43.343  75.599 -10.883  1.00  0.00     0.114 C 
HETATM   20  N   UNL     1     -43.704  74.869  -9.746  1.00  0.00    -0.277 N 
HETATM   21  C   UNL     1     -44.228  75.566  -8.659  1.00  0.00     0.102 C 
HETATM   22  C   UNL     1     -43.736  73.470  -9.763  1.00  0.00     0.294 C 
HETATM   23  C   UNL     1     -44.854  76.764  -8.880  1.00  0.00     0.019 C 
HETATM   24  C   UNL     1     -44.806  77.343 -10.148  1.00  0.00     0.015 C 
HETATM   25  O   UNL     1     -43.291  72.814  -8.809  1.00  0.00    -0.629 OA
HETATM   26  O   UNL     1     -44.320  72.925 -10.716  1.00  0.00    -0.629 OA
ENDBRANCH   8  18
BRANCH   9  27
HETATM   27  O   UNL     1     -41.518  76.327 -18.875  1.00  0.00    -0.390 OA
ATOM     28  HO  UNL     1     -41.392  76.526 -19.795  1.00  0.00     0.210 HD
ENDBRANCH   9  27
TORSDOF 4
ENDMDL
MODEL 4
REMARK VINA RESULT:      -5.3      2.932      4.789
REMARK  4 active torsions:
REMARK  status: ('A' for Active; 'I' for Inactive)
REMARK    1  A    between atoms: C_2  and  O_3 
REMARK    2  A    between atoms: C_2  and  O_14 
REMARK       I    between atoms: N_7  and  C_28 
REMARK    3  A    between atoms: C_11  and  C_18 
REMARK    4  A    between atoms: C_19  and  O_23 
ROOT
HETATM    1  C   UNL     1     -45.860  78.804  -8.416  1.00  0.00     0.065 C 
HETATM    2  C   UNL     1     -44.206  79.580 -13.532  1.00  0.00     0.210 C 
HETATM    3  C   UNL     1     -43.854  78.879 -14.812  1.00  0.00     0.058 C 
HETATM    4  C   UNL     1     -45.360  77.607 -10.543  1.00  0.00     0.077 C 
HETATM    5  C   UNL     1     -45.207  80.021  -9.003  1.00  0.00    -0.023 C 
HETATM    6  C   UNL     1     -44.689  78.831 -11.080  1.00  0.00    -0.044 C 
HETATM    7  C   UNL     1     -43.974  78.708 -12.311  1.00  0.00     0.014 C 
HETATM    8  C   UNL     1     -43.311  77.615 -14.828  1.00  0.00    -0.023 C 
HETATM    9  C   UNL     1     -45.390  77.503  -9.024  1.00  0.00     0.061 C 
HETATM   10  C   UNL     1     -44.027  77.128  -8.511  1.00  0.00     0.046 C 
HETATM   11  C   UNL     1     -42.869  77.017 -13.649  1.00  0.00     0.013 C 
HETATM   12  C   UNL     1     -43.084  77.631 -12.420  1.00  0.00     0.014 C 
HETATM   13  C   UNL     1     -44.749  80.000 -10.335  1.00  0.00     0.004 C 
ENDROOT
BRANCH   2  14
HETATM   14  O   UNL     1     -43.444  80.764 -13.437  1.00  0.00    -0.358 OA
ATOM     15  HO  UNL     1     -42.704  80.699 -14.030  1.00  0.00     0.213 HD
ENDBRANCH   2  14
BRANCH   2  16
HETATM   16  O   UNL     1     -45.540  80.002 -13.581  1.00  0.00    -0.358 OA
ATOM     17  HO  UNL     1     -45.780  80.182 -12.680  1.00  0.00     0.213 HD
ENDBRANCH   2  16
BRANCH   8  18
HETATM   18  C   UNL     1     -43.070  76.876 -16.089  1.00  0.00    -0.010 C 
HETATM   19  C   UNL     1     -43.121  77.482 -17.329  1.00  0.00     0.114 C 
HETATM   20  N   UNL     1     -43.535  76.691 -18.405  1.00  0.00    -0.277 N 
HETATM   21  C   UNL     1     -43.208  75.337 -18.387  1.00  0.00     0.102 C 
HETATM   22  C   UNL     1     -44.421  77.185 -19.369  1.00  0.00     0.294 C 
HETATM   23  C   UNL     1     -42.997  74.723 -17.181  1.00  0.00     0.019 C 
HETATM   24  C   UNL     1     -42.943  75.490 -16.018  1.00  0.00     0.015 C 
HETATM   25  O   UNL     1     -44.240  76.956 -20.575  1.00  0.00    -0.629 OA
HETATM   26  O   UNL     1     -45.444  77.763 -18.960  1.00  0.00    -0.629 OA
ENDBRANCH   8  18
BRANCH   9  27
HETATM   27  O   UNL     1     -46.334  76.512  -8.650  1.00  0.00    -0.390 OA
ATOM     28  HO  UNL     1     -46.958  76.933  -8.071  1.00  0.00     0.210 HD
ENDBRANCH   9  27
TORSDOF 4
ENDMDL
MODEL 5
REMARK VINA RESULT:      -5.2      2.984      9.085
REMARK  4 active torsions:
REMARK  status: ('A' for Active; 'I' for Inactive)
REMARK    1  A    between atoms: C_2  and  O_3 
REMARK    2  A    between atoms: C_2  and  O_14 
REMARK       I    between atoms: N_7  and  C_28 
REMARK    3  A    between atoms: C_11  and  C_18 
REMARK    4  A    between atoms: C_19  and  O_23 
ROOT
HETATM    1  C   UNL     1     -44.400  76.867 -19.171  1.00  0.00     0.065 C 
HETATM    2  C   UNL     1     -43.628  76.309 -13.823  1.00  0.00     0.210 C 
HETATM    3  C   UNL     1     -43.983  76.879 -12.481  1.00  0.00     0.058 C 
HETATM    4  C   UNL     1     -45.077  77.796 -16.961  1.00  0.00     0.077 C 
HETATM    5  C   UNL     1     -43.310  76.114 -18.468  1.00  0.00    -0.023 C 
HETATM    6  C   UNL     1     -43.958  77.054 -16.301  1.00  0.00    -0.044 C 
HETATM    7  C   UNL     1     -43.689  77.347 -14.928  1.00  0.00     0.014 C 
HETATM    8  C   UNL     1     -44.253  78.216 -12.302  1.00  0.00    -0.023 C 
HETATM    9  C   UNL     1     -44.864  78.104 -18.437  1.00  0.00     0.061 C 
HETATM   10  C   UNL     1     -43.873  79.225 -18.587  1.00  0.00     0.046 C 
HETATM   11  C   UNL     1     -44.000  79.134 -13.320  1.00  0.00     0.013 C 
HETATM   12  C   UNL     1     -43.592  78.701 -14.578  1.00  0.00     0.014 C 
HETATM   13  C   UNL     1     -43.211  76.169 -17.063  1.00  0.00     0.004 C 
ENDROOT
BRANCH   2  14
HETATM   14  O   UNL     1     -42.335  75.749 -13.752  1.00  0.00    -0.358 OA
ATOM     15  HO  UNL     1     -42.058  75.735 -12.843  1.00  0.00     0.213 HD
ENDBRANCH   2  14
BRANCH   2  16
HETATM   16  O   UNL     1     -44.479  75.237 -14.116  1.00  0.00    -0.358 OA
ATOM     17  HO  UNL     1     -44.233  74.548 -13.511  1.00  0.00     0.213 HD
ENDBRANCH   2  16
BRANCH   8  18
HETATM   18  C   UNL     1     -44.715  78.761 -11.004  1.00  0.00    -0.010 C 
HETATM   19  C   UNL     1     -45.443  78.014 -10.099  1.00  0.00     0.114 C 
HETATM   20  N   UNL     1     -46.355  78.705  -9.295  1.00  0.00    -0.277 N 
HETATM   21  C   UNL     1     -46.037  80.008  -8.915  1.00  0.00     0.102 C 
HETATM   22  C   UNL     1     -47.633  78.194  -9.045  1.00  0.00     0.294 C 
HETATM   23  C   UNL     1     -45.193  80.741  -9.706  1.00  0.00     0.019 C 
HETATM   24  C   UNL     1     -44.536  80.123 -10.770  1.00  0.00     0.015 C 
HETATM   25  O   UNL     1     -48.128  78.250  -7.908  1.00  0.00    -0.629 OA
HETATM   26  O   UNL     1     -48.285  77.786 -10.022  1.00  0.00    -0.629 OA
ENDBRANCH   8  18
BRANCH   9  27
HETATM   27  O   UNL     1     -46.106  78.479 -19.012  1.00  0.00    -0.390 OA
ATOM     28  HO  UNL     1     -46.304  79.350 -18.690  1.00  0.00     0.210 HD
ENDBRANCH   9  27
TORSDOF 4
ENDMDL
MODEL 6
REMARK VINA RESULT:      -5.1      2.147      2.725
REMARK  4 active torsions:
REMARK  status: ('A' for Active; 'I' for Inactive)
REMARK    1  A    between atoms: C_2  and  O_3 
REMARK    2  A    between atoms: C_2  and  O_14 
REMARK       I    between atoms: N_7  and  C_28 
REMARK    3  A    between atoms: C_11  and  C_18 
REMARK    4  A    between atoms: C_19  and  O_23 
ROOT
HETATM    1  C   UNL     1     -48.960  75.862  -5.659  1.00  0.00     0.065 C 
HETATM    2  C   UNL     1     -46.268  79.926  -8.057  1.00  0.00     0.210 C 
HETATM    3  C   UNL     1     -45.421  80.286  -9.243  1.00  0.00     0.058 C 
HETATM    4  C   UNL     1     -47.623  76.436  -7.682  1.00  0.00     0.077 C 
HETATM    5  C   UNL     1     -48.511  77.160  -5.053  1.00  0.00    -0.023 C 
HETATM    6  C   UNL     1     -47.173  77.705  -7.031  1.00  0.00    -0.044 C 
HETATM    7  C   UNL     1     -46.151  78.459  -7.686  1.00  0.00     0.014 C 
HETATM    8  C   UNL     1     -44.587  79.375  -9.850  1.00  0.00    -0.023 C 
HETATM    9  C   UNL     1     -48.026  75.326  -6.720  1.00  0.00     0.061 C 
HETATM   10  C   UNL     1     -46.799  74.716  -6.102  1.00  0.00     0.046 C 
HETATM   11  C   UNL     1     -44.334  78.139  -9.257  1.00  0.00     0.013 C 
HETATM   12  C   UNL     1     -45.017  77.751  -8.110  1.00  0.00     0.014 C 
HETATM   13  C   UNL     1     -47.727  78.054  -5.808  1.00  0.00     0.004 C 
ENDROOT
BRANCH   2  14
HETATM   14  O   UNL     1     -45.890  80.737  -6.966  1.00  0.00    -0.358 OA
ATOM     15  HO  UNL     1     -45.007  81.056  -7.114  1.00  0.00     0.213 HD
ENDBRANCH   2  14
BRANCH   2  16
HETATM   16  O   UNL     1     -47.603  80.256  -8.318  1.00  0.00    -0.358 OA
ATOM     17  HO  UNL     1     -48.097  79.901  -7.588  1.00  0.00     0.213 HD
ENDBRANCH   2  16
BRANCH   8  18
HETATM   18  C   UNL     1     -43.838  79.694 -11.088  1.00  0.00    -0.010 C 
HETATM   19  C   UNL     1     -44.461  79.899 -12.303  1.00  0.00     0.114 C 
HETATM   20  N   UNL     1     -43.745  79.541 -13.450  1.00  0.00    -0.277 N 
HETATM   21  C   UNL     1     -42.359  79.683 -13.429  1.00  0.00     0.102 C 
HETATM   22  C   UNL     1     -44.365  78.872 -14.512  1.00  0.00     0.294 C 
HETATM   23  C   UNL     1     -41.708  79.638 -12.225  1.00  0.00     0.019 C 
HETATM   24  C   UNL     1     -42.447  79.627 -11.042  1.00  0.00     0.015 C 
HETATM   25  O   UNL     1     -44.129  79.191 -15.687  1.00  0.00    -0.629 OA
HETATM   26  O   UNL     1     -45.070  77.887 -14.231  1.00  0.00    -0.629 OA
ENDBRANCH   8  18
BRANCH   9  27
HETATM   27  O   UNL     1     -48.748  74.337  -7.437  1.00  0.00    -0.390 OA
ATOM     28  HO  UNL     1     -49.332  73.920  -6.816  1.00  0.00     0.210 HD
ENDBRANCH   9  27
TORSDOF 4
ENDMDL
MODEL 7
REMARK VINA RESULT:      -5.1      5.140      6.980
REMARK  4 active torsions:
REMARK  status: ('A' for Active; 'I' for Inactive)
REMARK    1  A    between atoms: C_2  and  O_3 
REMARK    2  A    between atoms: C_2  and  O_14 
REMARK       I    between atoms: N_7  and  C_28 
REMARK    3  A    between atoms: C_11  and  C_18 
REMARK    4  A    between atoms: C_19  and  O_23 
ROOT
HETATM    1  C   UNL     1     -52.982  79.070 -11.383  1.00  0.00     0.065 C 
HETATM    2  C   UNL     1     -48.139  78.846  -8.933  1.00  0.00     0.210 C 
HETATM    3  C   UNL     1     -47.221  77.962  -8.139  1.00  0.00     0.058 C 
HETATM    4  C   UNL     1     -51.457  77.544 -10.135  1.00  0.00     0.077 C 
HETATM    5  C   UNL     1     -52.102  80.211 -10.968  1.00  0.00    -0.023 C 
HETATM    6  C   UNL     1     -50.624  78.712  -9.716  1.00  0.00    -0.044 C 
HETATM    7  C   UNL     1     -49.600  78.481  -8.746  1.00  0.00     0.014 C 
HETATM    8  C   UNL     1     -47.696  76.990  -7.289  1.00  0.00    -0.023 C 
HETATM    9  C   UNL     1     -52.908  77.872 -10.463  1.00  0.00     0.061 C 
HETATM   10  C   UNL     1     -53.675  78.118  -9.194  1.00  0.00     0.046 C 
HETATM   11  C   UNL     1     -49.051  76.927  -6.968  1.00  0.00     0.013 C 
HETATM   12  C   UNL     1     -49.967  77.763  -7.599  1.00  0.00     0.014 C 
HETATM   13  C   UNL     1     -50.919  79.960 -10.244  1.00  0.00     0.004 C 
ENDROOT
BRANCH   2  14
HETATM   14  O   UNL     1     -47.919  80.187  -8.553  1.00  0.00    -0.358 OA
ATOM     15  HO  UNL     1     -47.613  80.203  -7.654  1.00  0.00     0.213 HD
ENDBRANCH   2  14
BRANCH   2  16
HETATM   16  O   UNL     1     -47.792  78.784 -10.287  1.00  0.00    -0.358 OA
ATOM     17  HO  UNL     1     -47.073  78.165 -10.335  1.00  0.00     0.213 HD
ENDBRANCH   2  16
BRANCH   8  18
HETATM   18  C   UNL     1     -46.795  76.042  -6.593  1.00  0.00    -0.010 C 
HETATM   19  C   UNL     1     -45.774  75.372  -7.240  1.00  0.00     0.114 C 
HETATM   20  N   UNL     1     -45.440  74.104  -6.755  1.00  0.00    -0.277 N 
HETATM   21  C   UNL     1     -45.569  73.872  -5.387  1.00  0.00     0.102 C 
HETATM   22  C   UNL     1     -45.182  73.040  -7.626  1.00  0.00     0.294 C 
HETATM   23  C   UNL     1     -46.464  74.620  -4.670  1.00  0.00     0.019 C 
HETATM   24  C   UNL     1     -47.098  75.704  -5.276  1.00  0.00     0.015 C 
HETATM   25  O   UNL     1     -44.237  72.263  -7.415  1.00  0.00    -0.629 OA
HETATM   26  O   UNL     1     -45.995  72.847  -8.547  1.00  0.00    -0.629 OA
ENDBRANCH   8  18
BRANCH   9  27
HETATM   27  O   UNL     1     -53.478  76.780 -11.167  1.00  0.00    -0.390 OA
ATOM     28  HO  UNL     1     -53.100  76.789 -12.038  1.00  0.00     0.210 HD
ENDBRANCH   9  27
TORSDOF 4
ENDMDL
MODEL 8
REMARK VINA RESULT:      -5.1      3.057      5.289
REMARK  4 active torsions:
REMARK  status: ('A' for Active; 'I' for Inactive)
REMARK    1  A    between atoms: C_2  and  O_3 
REMARK    2  A    between atoms: C_2  and  O_14 
REMARK       I    between atoms: N_7  and  C_28 
REMARK    3  A    between atoms: C_11  and  C_18 
REMARK    4  A    between atoms: C_19  and  O_23 
ROOT
HETATM    1  C   UNL     1     -45.344  78.481  -8.306  1.00  0.00     0.065 C 
HETATM    2  C   UNL     1     -44.490  79.473 -13.578  1.00  0.00     0.210 C 
HETATM    3  C   UNL     1     -44.399  78.833 -14.934  1.00  0.00     0.058 C 
HETATM    4  C   UNL     1     -45.279  77.391 -10.546  1.00  0.00     0.077 C 
HETATM    5  C   UNL     1     -44.712  79.691  -8.930  1.00  0.00    -0.023 C 
HETATM    6  C   UNL     1     -44.621  78.604 -11.122  1.00  0.00    -0.044 C 
HETATM    7  C   UNL     1     -44.125  78.515 -12.460  1.00  0.00     0.014 C 
HETATM    8  C   UNL     1     -43.956  77.542 -15.105  1.00  0.00    -0.023 C 
HETATM    9  C   UNL     1     -45.070  77.194  -9.050  1.00  0.00     0.061 C 
HETATM   10  C   UNL     1     -43.672  76.707  -8.790  1.00  0.00     0.046 C 
HETATM   11  C   UNL     1     -43.371  76.846 -14.048  1.00  0.00     0.013 C 
HETATM   12  C   UNL     1     -43.341  77.394 -12.770  1.00  0.00     0.014 C 
HETATM   13  C   UNL     1     -44.478  79.725 -10.319  1.00  0.00     0.004 C 
ENDROOT
BRANCH   2  14
HETATM   14  O   UNL     1     -43.642  80.601 -13.551  1.00  0.00    -0.358 OA
ATOM     15  HO  UNL     1     -44.177  81.385 -13.576  1.00  0.00     0.213 HD
ENDBRANCH   2  14
BRANCH   2  16
HETATM   16  O   UNL     1     -45.782  79.976 -13.384  1.00  0.00    -0.358 OA
ATOM     17  HO  UNL     1     -45.665  80.789 -12.905  1.00  0.00     0.213 HD
ENDBRANCH   2  16
BRANCH   8  18
HETATM   18  C   UNL     1     -43.974  76.870 -16.425  1.00  0.00    -0.010 C 
HETATM   19  C   UNL     1     -43.291  75.696 -16.673  1.00  0.00     0.114 C 
HETATM   20  N   UNL     1     -42.819  75.500 -17.975  1.00  0.00    -0.277 N 
HETATM   21  C   UNL     1     -43.568  76.019 -19.029  1.00  0.00     0.102 C 
HETATM   22  C   UNL     1     -41.540  74.983 -18.212  1.00  0.00     0.294 C 
HETATM   23  C   UNL     1     -44.382  77.096 -18.795  1.00  0.00     0.019 C 
HETATM   24  C   UNL     1     -44.578  77.540 -17.488  1.00  0.00     0.015 C 
HETATM   25  O   UNL     1     -41.354  74.131 -19.094  1.00  0.00    -0.629 OA
HETATM   26  O   UNL     1     -40.595  75.489 -17.581  1.00  0.00    -0.629 OA
ENDBRANCH   8  18
BRANCH   9  27
HETATM   27  O   UNL     1     -46.009  76.241  -8.577  1.00  0.00    -0.390 OA
ATOM     28  HO  UNL     1     -46.350  76.576  -7.757  1.00  0.00     0.210 HD
ENDBRANCH   9  27
TORSDOF 4
ENDMDL
MODEL 9
REMARK VINA RESULT:      -5.0      3.004      4.951
REMARK  4 active torsions:
REMARK  status: ('A' for Active; 'I' for Inactive)
REMARK    1  A    between atoms: C_2  and  O_3 
REMARK    2  A    between atoms: C_2  and  O_14 
REMARK       I    between atoms: N_7  and  C_28 
REMARK    3  A    between atoms: C_11  and  C_18 
REMARK    4  A    between atoms: C_19  and  O_23 
ROOT
HETATM    1  C   UNL     1     -46.148  80.209  -8.412  1.00  0.00     0.065 C 
HETATM    2  C   UNL     1     -44.542  79.390 -13.536  1.00  0.00     0.210 C 
HETATM    3  C   UNL     1     -44.345  78.341 -14.592  1.00  0.00     0.058 C 
HETATM    4  C   UNL     1     -45.911  78.450 -10.160  1.00  0.00     0.077 C 
HETATM    5  C   UNL     1     -45.325  81.115  -9.279  1.00  0.00    -0.023 C 
HETATM    6  C   UNL     1     -45.067  79.372 -10.980  1.00  0.00    -0.044 C 
HETATM    7  C   UNL     1     -44.418  78.828 -12.132  1.00  0.00     0.014 C 
HETATM    8  C   UNL     1     -44.015  77.042 -14.281  1.00  0.00    -0.023 C 
HETATM    9  C   UNL     1     -45.912  78.738  -8.664  1.00  0.00     0.061 C 
HETATM   10  C   UNL     1     -44.613  78.286  -8.056  1.00  0.00     0.046 C 
HETATM   11  C   UNL     1     -43.640  76.696 -12.984  1.00  0.00     0.013 C 
HETATM   12  C   UNL     1     -43.717  77.626 -11.953  1.00  0.00     0.014 C 
HETATM   13  C   UNL     1     -44.915  80.684 -10.557  1.00  0.00     0.004 C 
ENDROOT
BRANCH   2  14
HETATM   14  O   UNL     1     -43.596  80.418 -13.734  1.00  0.00    -0.358 OA
ATOM     15  HO  UNL     1     -42.724  80.045 -13.683  1.00  0.00     0.213 HD
ENDBRANCH   2  14
BRANCH   2  16
HETATM   16  O   UNL     1     -45.790  79.998 -13.707  1.00  0.00    -0.358 OA
ATOM     17  HO  UNL     1     -45.873  80.143 -14.642  1.00  0.00     0.213 HD
ENDBRANCH   2  16
BRANCH   8  18
HETATM   18  C   UNL     1     -43.933  75.981 -15.311  1.00  0.00    -0.010 C 
HETATM   19  C   UNL     1     -44.117  74.643 -15.019  1.00  0.00     0.114 C 
HETATM   20  N   UNL     1     -43.414  73.722 -15.802  1.00  0.00    -0.277 N 
HETATM   21  C   UNL     1     -43.178  74.041 -17.137  1.00  0.00     0.102 C 
HETATM   22  C   UNL     1     -42.788  72.611 -15.225  1.00  0.00     0.294 C 
HETATM   23  C   UNL     1     -43.138  75.360 -17.505  1.00  0.00     0.019 C 
HETATM   24  C   UNL     1     -43.501  76.343 -16.586  1.00  0.00     0.015 C 
HETATM   25  O   UNL     1     -42.854  71.495 -15.764  1.00  0.00    -0.629 OA
HETATM   26  O   UNL     1     -42.082  72.811 -14.221  1.00  0.00    -0.629 OA
ENDBRANCH   8  18
BRANCH   9  27
HETATM   27  O   UNL     1     -46.993  78.041  -8.064  1.00  0.00    -0.390 OA
ATOM     28  HO  UNL     1     -47.789  78.381  -8.456  1.00  0.00     0.210 HD
ENDBRANCH   9  27
TORSDOF 4
ENDMDL
