MODEL 1
REMARK VINA RESULT:      -5.4      0.000      0.000
REMARK  2 active torsions:
REMARK  status: ('A' for Active; 'I' for Inactive)
REMARK    1  A    between atoms: C_1  and  O_3 
REMARK    2  A    between atoms: C_5  and  N_7 
ROOT
HETATM    1  C   UNL     1      -9.546   1.695  14.866  1.00  0.00     0.083 C 
HETATM    2  C   UNL     1      -9.721   1.482  13.367  1.00  0.00     0.049 C 
HETATM    3  C   UNL     1      -9.169  -0.612  14.420  1.00  0.00     0.218 C 
HETATM    4  C   UNL     1     -10.869   1.272  15.518  1.00  0.00     0.043 C 
HETATM    5  C   UNL     1      -7.398   0.595  15.737  1.00  0.00     0.019 C 
HETATM    6  C   UNL     1     -11.381   0.203  14.532  1.00  0.00     0.010 C 
HETATM    7  C   UNL     1     -10.232   0.049  13.526  1.00  0.00     0.024 C 
HETATM    8  C   UNL     1      -8.568   0.562  15.164  1.00  0.00    -0.025 C 
ENDROOT
BRANCH   3   9
HETATM    9  N   UNL     1      -8.230  -1.497  13.773  1.00  0.00    -0.071 N 
ATOM     10  HN3 UNL     1      -8.737  -2.235  13.286  1.00  0.00     0.275 HD
ATOM     11  HN2 UNL     1      -7.794  -1.016  12.987  1.00  0.00     0.275 HD
ATOM     12  HN1 UNL     1      -7.506  -1.913  14.360  1.00  0.00     0.275 HD
ENDBRANCH   3   9
BRANCH   1  13
HETATM   13  O   UNL     1      -9.136   2.976  15.342  1.00  0.00    -0.385 OA
ATOM     14  HO  UNL     1      -8.267   3.294  15.127  1.00  0.00     0.211 HD
ENDBRANCH   1  13
TORSDOF 2
ENDMDL
MODEL 2
REMARK VINA RESULT:      -5.3      2.882      3.580
REMARK  2 active torsions:
REMARK  status: ('A' for Active; 'I' for Inactive)
REMARK    1  A    between atoms: C_1  and  O_3 
REMARK    2  A    between atoms: C_5  and  N_7 
ROOT
HETATM    1  C   UNL     1     -13.450   2.003  15.357  1.00  0.00     0.083 C 
HETATM    2  C   UNL     1     -13.496   1.835  13.844  1.00  0.00     0.049 C 
HETATM    3  C   UNL     1     -11.962   0.236  14.788  1.00  0.00     0.218 C 
HETATM    4  C   UNL     1     -14.379   0.929  15.939  1.00  0.00     0.043 C 
HETATM    5  C   UNL     1     -11.040   2.077  16.232  1.00  0.00     0.019 C 
HETATM    6  C   UNL     1     -14.283  -0.183  14.874  1.00  0.00     0.010 C 
HETATM    7  C   UNL     1     -13.214   0.331  13.900  1.00  0.00     0.024 C 
HETATM    8  C   UNL     1     -12.034   1.499  15.620  1.00  0.00    -0.025 C 
ENDROOT
BRANCH   3   9
HETATM    9  N   UNL     1     -10.706  -0.010  14.120  1.00  0.00    -0.071 N 
ATOM     10  HN3 UNL     1      -9.946   0.030  14.799  1.00  0.00     0.275 HD
ATOM     11  HN2 UNL     1     -10.655  -0.988  13.838  1.00  0.00     0.275 HD
ATOM     12  HN1 UNL     1     -10.482   0.586  13.323  1.00  0.00     0.275 HD
ENDBRANCH   3   9
BRANCH   1  13
HETATM   13  O   UNL     1     -13.742   3.280  15.924  1.00  0.00    -0.385 OA
ATOM     14  HO  UNL     1     -14.322   3.333  16.674  1.00  0.00     0.211 HD
ENDBRANCH   1  13
TORSDOF 2
ENDMDL
MODEL 3
REMARK VINA RESULT:      -4.7      3.999      4.751
REMARK  2 active torsions:
REMARK  status: ('A' for Active; 'I' for Inactive)
REMARK    1  A    between atoms: C_1  and  O_3 
REMARK    2  A    between atoms: C_5  and  N_7 
ROOT
HETATM    1  C   UNL     1     -12.383   0.930  15.013  1.00  0.00     0.083 C 
HETATM    2  C   UNL     1     -13.677   0.210  15.374  1.00  0.00     0.049 C 
HETATM    3  C   UNL     1     -13.810   2.511  16.075  1.00  0.00     0.218 C 
HETATM    4  C   UNL     1     -12.659   1.679  13.702  1.00  0.00     0.043 C 
HETATM    5  C   UNL     1     -11.475   2.298  16.984  1.00  0.00     0.019 C 
HETATM    6  C   UNL     1     -14.172   1.958  13.809  1.00  0.00     0.010 C 
HETATM    7  C   UNL     1     -14.539   1.464  15.215  1.00  0.00     0.024 C 
HETATM    8  C   UNL     1     -12.385   2.002  16.099  1.00  0.00    -0.025 C 
ENDROOT
BRANCH   3   9
HETATM    9  N   UNL     1     -14.392   2.820  17.359  1.00  0.00    -0.071 N 
ATOM     10  HN3 UNL     1     -14.680   3.798  17.376  1.00  0.00     0.275 HD
ATOM     11  HN2 UNL     1     -15.296   2.356  17.444  1.00  0.00     0.275 HD
ATOM     12  HN1 UNL     1     -13.827   2.618  18.183  1.00  0.00     0.275 HD
ENDBRANCH   3   9
BRANCH   1  13
HETATM   13  O   UNL     1     -11.173   0.179  14.919  1.00  0.00    -0.385 OA
ATOM     14  HO  UNL     1     -10.988  -0.485  15.573  1.00  0.00     0.211 HD
ENDBRANCH   1  13
TORSDOF 2
ENDMDL
MODEL 4
REMARK VINA RESULT:      -4.7      2.347      3.445
REMARK  2 active torsions:
REMARK  status: ('A' for Active; 'I' for Inactive)
REMARK    1  A    between atoms: C_1  and  O_3 
REMARK    2  A    between atoms: C_5  and  N_7 
ROOT
HETATM    1  C   UNL     1      -9.520   0.418  13.945  1.00  0.00     0.083 C 
HETATM    2  C   UNL     1      -9.145   1.886  13.782  1.00  0.00     0.049 C 
HETATM    3  C   UNL     1     -10.177   1.551  15.932  1.00  0.00     0.218 C 
HETATM    4  C   UNL     1      -8.400  -0.223  14.774  1.00  0.00     0.043 C 
HETATM    5  C   UNL     1     -11.924   0.141  14.797  1.00  0.00     0.019 C 
HETATM    6  C   UNL     1      -7.911   0.969  15.621  1.00  0.00     0.010 C 
HETATM    7  C   UNL     1      -8.896   2.094  15.277  1.00  0.00     0.024 C 
HETATM    8  C   UNL     1     -10.697   0.569  14.904  1.00  0.00    -0.025 C 
ENDROOT
BRANCH   3   9
HETATM    9  N   UNL     1     -11.128   2.524  16.414  1.00  0.00    -0.071 N 
ATOM     10  HN3 UNL     1     -11.490   2.228  17.319  1.00  0.00     0.275 HD
ATOM     11  HN2 UNL     1     -10.637   3.378  16.677  1.00  0.00     0.275 HD
ATOM     12  HN1 UNL     1     -11.905   2.756  15.795  1.00  0.00     0.275 HD
ENDBRANCH   3   9
BRANCH   1  13
HETATM   13  O   UNL     1      -9.796  -0.362  12.782  1.00  0.00    -0.385 OA
ATOM     14  HO  UNL     1     -10.385  -0.016  12.121  1.00  0.00     0.211 HD
ENDBRANCH   1  13
TORSDOF 2
ENDMDL
MODEL 5
REMARK VINA RESULT:      -4.4      3.516      4.503
REMARK  2 active torsions:
REMARK  status: ('A' for Active; 'I' for Inactive)
REMARK    1  A    between atoms: C_1  and  O_3 
REMARK    2  A    between atoms: C_5  and  N_7 
ROOT
HETATM    1  C   UNL     1     -13.418   1.760  14.439  1.00  0.00     0.083 C 
HETATM    2  C   UNL     1     -11.942   1.523  14.146  1.00  0.00     0.049 C 
HETATM    3  C   UNL     1     -12.293   1.588  16.528  1.00  0.00     0.218 C 
HETATM    4  C   UNL     1     -14.025   0.384  14.741  1.00  0.00     0.043 C 
HETATM    5  C   UNL     1     -13.756   3.606  16.189  1.00  0.00     0.019 C 
HETATM    6  C   UNL     1     -12.815  -0.374  15.325  1.00  0.00     0.010 C 
HETATM    7  C   UNL     1     -11.719   0.696  15.415  1.00  0.00     0.024 C 
HETATM    8  C   UNL     1     -13.295   2.453  15.793  1.00  0.00    -0.025 C 
ENDROOT
BRANCH   3   9
HETATM    9  N   UNL     1     -11.343   2.289  17.359  1.00  0.00    -0.071 N 
ATOM     10  HN3 UNL     1     -10.494   1.731  17.451  1.00  0.00     0.275 HD
ATOM     11  HN2 UNL     1     -10.983   3.099  16.855  1.00  0.00     0.275 HD
ATOM     12  HN1 UNL     1     -11.663   2.578  18.284  1.00  0.00     0.275 HD
ENDBRANCH   3   9
BRANCH   1  13
HETATM   13  O   UNL     1     -14.212   2.461  13.482  1.00  0.00    -0.385 OA
ATOM     14  HO  UNL     1     -14.399   2.051  12.646  1.00  0.00     0.211 HD
ENDBRANCH   1  13
TORSDOF 2
ENDMDL
MODEL 6
REMARK VINA RESULT:      -4.4      2.133      2.926
REMARK  2 active torsions:
REMARK  status: ('A' for Active; 'I' for Inactive)
REMARK    1  A    between atoms: C_1  and  O_3 
REMARK    2  A    between atoms: C_5  and  N_7 
ROOT
HETATM    1  C   UNL     1      -8.424   2.113  15.430  1.00  0.00     0.083 C 
HETATM    2  C   UNL     1      -8.573   0.598  15.508  1.00  0.00     0.049 C 
HETATM    3  C   UNL     1     -10.752   1.621  15.440  1.00  0.00     0.218 C 
HETATM    4  C   UNL     1      -8.589   2.486  13.951  1.00  0.00     0.043 C 
HETATM    5  C   UNL     1      -9.940   3.304  17.123  1.00  0.00     0.019 C 
HETATM    6  C   UNL     1      -9.520   1.366  13.444  1.00  0.00     0.010 C 
HETATM    7  C   UNL     1      -9.880   0.583  14.713  1.00  0.00     0.024 C 
HETATM    8  C   UNL     1      -9.732   2.524  16.099  1.00  0.00    -0.025 C 
ENDROOT
BRANCH   3   9
HETATM    9  N   UNL     1     -11.794   1.111  16.300  1.00  0.00    -0.071 N 
ATOM     10  HN3 UNL     1     -12.698   1.463  15.986  1.00  0.00     0.275 HD
ATOM     11  HN2 UNL     1     -11.913   0.112  16.135  1.00  0.00     0.275 HD
ATOM     12  HN1 UNL     1     -11.691   1.281  17.301  1.00  0.00     0.275 HD
ENDBRANCH   3   9
BRANCH   1  13
HETATM   13  O   UNL     1      -7.257   2.726  15.977  1.00  0.00    -0.385 OA
ATOM     14  HO  UNL     1      -7.298   3.105  16.848  1.00  0.00     0.211 HD
ENDBRANCH   1  13
TORSDOF 2
ENDMDL
MODEL 7
REMARK VINA RESULT:      -4.3      2.235      2.827
REMARK  2 active torsions:
REMARK  status: ('A' for Active; 'I' for Inactive)
REMARK    1  A    between atoms: C_1  and  O_3 
REMARK    2  A    between atoms: C_5  and  N_7 
ROOT
HETATM    1  C   UNL     1      -9.440   1.243  13.653  1.00  0.00     0.083 C 
HETATM    2  C   UNL     1      -8.779   0.115  14.434  1.00  0.00     0.049 C 
HETATM    3  C   UNL     1      -8.544   2.183  15.647  1.00  0.00     0.218 C 
HETATM    4  C   UNL     1     -10.828   1.443  14.276  1.00  0.00     0.043 C 
HETATM    5  C   UNL     1      -7.918   3.301  13.482  1.00  0.00     0.019 C 
HETATM    6  C   UNL     1     -10.587   1.004  15.734  1.00  0.00     0.010 C 
HETATM    7  C   UNL     1      -9.075   0.747  15.796  1.00  0.00     0.024 C 
HETATM    8  C   UNL     1      -8.601   2.416  14.152  1.00  0.00    -0.025 C 
ENDROOT
BRANCH   3   9
HETATM    9  N   UNL     1      -7.285   2.483  16.285  1.00  0.00    -0.071 N 
ATOM     10  HN3 UNL     1      -7.451   3.039  17.123  1.00  0.00     0.275 HD
ATOM     11  HN2 UNL     1      -6.899   1.633  16.695  1.00  0.00     0.275 HD
ATOM     12  HN1 UNL     1      -6.573   2.937  15.712  1.00  0.00     0.275 HD
ENDBRANCH   3   9
BRANCH   1  13
HETATM   13  O   UNL     1      -9.536   1.141  12.233  1.00  0.00    -0.385 OA
ATOM     14  HO  UNL     1      -9.266   1.878  11.696  1.00  0.00     0.211 HD
ENDBRANCH   1  13
TORSDOF 2
ENDMDL
MODEL 8
REMARK VINA RESULT:      -4.3      2.535      3.172
REMARK  2 active torsions:
REMARK  status: ('A' for Active; 'I' for Inactive)
REMARK    1  A    between atoms: C_1  and  O_3 
REMARK    2  A    between atoms: C_5  and  N_7 
ROOT
HETATM    1  C   UNL     1      -8.309   1.724  14.573  1.00  0.00     0.083 C 
HETATM    2  C   UNL     1      -8.674   0.683  15.624  1.00  0.00     0.049 C 
HETATM    3  C   UNL     1      -9.968   2.682  15.985  1.00  0.00     0.218 C 
HETATM    4  C   UNL     1      -9.391   1.641  13.489  1.00  0.00     0.043 C 
HETATM    5  C   UNL     1      -7.871   4.023  15.626  1.00  0.00     0.019 C 
HETATM    6  C   UNL     1     -10.614   1.162  14.298  1.00  0.00     0.010 C 
HETATM    7  C   UNL     1     -10.119   1.169  15.751  1.00  0.00     0.024 C 
HETATM    8  C   UNL     1      -8.624   2.992  15.362  1.00  0.00    -0.025 C 
ENDROOT
BRANCH   3   9
HETATM    9  N   UNL     1     -10.164   3.157  17.334  1.00  0.00    -0.071 N 
ATOM     10  HN3 UNL     1     -11.162   3.209  17.536  1.00  0.00     0.275 HD
ATOM     11  HN2 UNL     1      -9.875   2.436  17.994  1.00  0.00     0.275 HD
ATOM     12  HN1 UNL     1      -9.721   4.042  17.581  1.00  0.00     0.275 HD
ENDBRANCH   3   9
BRANCH   1  13
HETATM   13  O   UNL     1      -7.007   1.695  13.989  1.00  0.00    -0.385 OA
ATOM     14  HO  UNL     1      -6.517   0.881  13.992  1.00  0.00     0.211 HD
ENDBRANCH   1  13
TORSDOF 2
ENDMDL
MODEL 9
REMARK VINA RESULT:      -4.2      1.717      2.743
REMARK  2 active torsions:
REMARK  status: ('A' for Active; 'I' for Inactive)
REMARK    1  A    between atoms: C_1  and  O_3 
REMARK    2  A    between atoms: C_5  and  N_7 
ROOT
HETATM    1  C   UNL     1      -9.155   1.646  15.474  1.00  0.00     0.083 C 
HETATM    2  C   UNL     1      -9.005   0.177  15.096  1.00  0.00     0.049 C 
HETATM    3  C   UNL     1     -11.199   0.952  14.472  1.00  0.00     0.218 C 
HETATM    4  C   UNL     1      -8.891   2.450  14.194  1.00  0.00     0.043 C 
HETATM    5  C   UNL     1     -11.359   2.088  16.710  1.00  0.00     0.019 C 
HETATM    6  C   UNL     1      -9.347   1.462  13.101  1.00  0.00     0.010 C 
HETATM    7  C   UNL     1      -9.940   0.287  13.890  1.00  0.00     0.024 C 
HETATM    8  C   UNL     1     -10.666   1.696  15.678  1.00  0.00    -0.025 C 
ENDROOT
BRANCH   3   9
HETATM    9  N   UNL     1     -12.338   0.098  14.709  1.00  0.00    -0.071 N 
ATOM     10  HN3 UNL     1     -12.987   0.562  15.344  1.00  0.00     0.275 HD
ATOM     11  HN2 UNL     1     -12.907   0.045  13.864  1.00  0.00     0.275 HD
ATOM     12  HN1 UNL     1     -12.146  -0.845  15.049  1.00  0.00     0.275 HD
ENDBRANCH   3   9
BRANCH   1  13
HETATM   13  O   UNL     1      -8.390   2.165  16.561  1.00  0.00    -0.385 OA
ATOM     14  HO  UNL     1      -7.818   1.581  17.046  1.00  0.00     0.211 HD
ENDBRANCH   1  13
TORSDOF 2
ENDMDL
