REMARK  7 active torsions:
REMARK  status: ('A' for Active; 'I' for Inactive)
REMARK    1  A    between atoms: C_5  and  C_9 
REMARK    2  A    between atoms: C_5  and  C_11 
REMARK    3  A    between atoms: C_8  and  O_25 
REMARK    4  A    between atoms: C_10  and  O_28 
REMARK    5  A    between atoms: C_11  and  C_14 
REMARK    6  A    between atoms: O_12  and  C_15 
REMARK    7  A    between atoms: C_20  and  C_31 
ROOT
HETATM    1  C   UNL     1      14.708  21.871 -14.656  1.00  0.00     0.042 C 
HETATM    2  C   UNL     1      15.531  24.009 -15.180  1.00  0.00     0.021 C 
HETATM    3  C   UNL     1      15.673  25.380 -15.404  1.00  0.00    -0.003 C 
HETATM    4  C   UNL     1      13.388  21.474 -14.004  1.00  0.00     0.124 C 
HETATM    5  C   UNL     1      15.933  22.240 -13.836  1.00  0.00     0.127 C 
HETATM    6  N   UNL     1      16.559  23.353 -14.585  1.00  0.00    -0.392 N 
ATOM      7  HN  UNL     1      17.552  23.579 -14.642  1.00  0.00     0.159 HD
HETATM    8  C   UNL     1      12.924  23.421 -15.295  1.00  0.00     0.014 C 
HETATM    9  C   UNL     1      14.388  23.094 -15.499  1.00  0.00     0.044 C 
HETATM   10  C   UNL     1      12.303  22.073 -14.900  1.00  0.00     0.033 C 
ENDROOT
BRANCH   3  11
HETATM   11  C   UNL     1      16.187  25.801 -16.662  1.00  0.00    -0.024 C 
HETATM   12  C   UNL     1      15.475  25.654 -17.855  1.00  0.00     0.015 C 
HETATM   13  C   UNL     1      16.161  25.721 -19.066  1.00  0.00     0.037 C 
HETATM   14  C   UNL     1      17.525  25.995 -19.071  1.00  0.00     0.065 C 
HETATM   15  C   UNL     1      18.147  26.435 -17.912  1.00  0.00     0.037 C 
HETATM   16  C   UNL     1      17.470  26.340 -16.700  1.00  0.00     0.015 C 
BRANCH  14  17
HETATM   17  O   UNL     1      18.296  25.788 -20.192  1.00  0.00    -0.361 OA
ATOM     18  HO  UNL     1      17.870  25.487 -20.986  1.00  0.00     0.217 HD
ENDBRANCH  14  17
ENDBRANCH   3  11
BRANCH   3  19
HETATM   19  C   UNL     1      15.477  26.261 -14.331  1.00  0.00     0.015 C 
BRANCH  19  20
HETATM   20  C   UNL     1      14.620  27.338 -14.302  1.00  0.00     0.009 C 
HETATM   21  C   UNL     1      14.235  28.227 -15.267  1.00  0.00    -0.049 C 
HETATM   22  C   UNL     1      13.029  27.926 -16.104  1.00  0.00     0.049 C 
BRANCH  21  23
HETATM   23  C   UNL     1      14.985  29.448 -15.521  1.00  0.00     0.003 C 
HETATM   24  C   UNL     1      14.921  30.056 -16.780  1.00  0.00     0.015 C 
HETATM   25  C   UNL     1      15.808  31.097 -17.080  1.00  0.00     0.001 C 
HETATM   26  C   UNL     1      16.758  31.511 -16.157  1.00  0.00     0.003 C 
HETATM   27  C   UNL     1      16.736  30.991 -14.866  1.00  0.00     0.037 C 
HETATM   28  C   UNL     1      15.759  30.057 -14.516  1.00  0.00     0.076 C 
BRANCH  28  29
HETATM   29  O   UNL     1      15.530  29.759 -13.200  1.00  0.00    -0.360 OA
ATOM     30  HO  UNL     1      14.865  29.123 -12.962  1.00  0.00     0.217 HD
ENDBRANCH  28  29
ENDBRANCH  21  23
ENDBRANCH  19  20
ENDBRANCH   3  19
BRANCH   4  31
HETATM   31  O   UNL     1      13.308  20.053 -13.945  1.00  0.00    -0.395 OA
ATOM     32  HO  UNL     1      12.486  19.806 -13.539  1.00  0.00     0.210 HD
ENDBRANCH   4  31
TORSDOF 7
