REMARK  3 active torsions:
REMARK  status: ('A' for Active; 'I' for Inactive)
REMARK    1  A    between atoms: C_1  and  O_6 
REMARK    2  A    between atoms: C_3  and  O_9 
REMARK    3  A    between atoms: C_8  and  O_11 
ROOT
HETATM    1  C   UNL     1      23.969  40.087  16.060  1.00  0.00     0.068 C 
HETATM    2  C   UNL     1      22.644  39.844  15.772  1.00  0.00     0.075 C 
HETATM    3  C   UNL     1      21.726  38.695  17.735  1.00  0.00     0.098 C 
HETATM    4  C   UNL     1      22.875  38.588  18.503  1.00  0.00     0.039 C 
HETATM    5  C   UNL     1      24.512  40.022  17.328  1.00  0.00     0.037 C 
HETATM    6  C   UNL     1      21.765  38.954  16.342  1.00  0.00     0.101 C 
HETATM    7  C   UNL     1      24.022  39.310  18.387  1.00  0.00     0.006 C 
ENDROOT
BRANCH   1   8
HETATM    8  O   UNL     1      24.814  40.346  15.011  1.00  0.00    -0.361 OA
ATOM      9  HO  UNL     1      25.728  40.514  15.210  1.00  0.00     0.217 HD
ENDBRANCH   1   8
BRANCH   6  10
HETATM   10  O   UNL     1      20.859  38.252  15.615  1.00  0.00    -0.358 OA
ATOM     11  HO  UNL     1      20.252  37.637  16.009  1.00  0.00     0.217 HD
ENDBRANCH   6  10
BRANCH   3  12
HETATM   12  O   UNL     1      20.495  38.552  18.276  1.00  0.00    -0.358 OA
ATOM     13  HO  UNL     1      19.708  38.625  17.750  1.00  0.00     0.217 HD
ENDBRANCH   3  12
TORSDOF 3
