MODEL 1
REMARK VINA RESULT:      -4.7      0.000      0.000
REMARK  4 active torsions:
REMARK  status: ('A' for Active; 'I' for Inactive)
REMARK    1  A    between atoms: O_1  and  C_10 
REMARK    2  A    between atoms: O_4  and  C_9 
REMARK    3  A    between atoms: O_7  and  C_9 
REMARK    4  A    between atoms: O_12  and  C_14 
ROOT
HETATM    1  C   UNL     1      22.301  38.371  17.768  1.00  0.00     0.005 C 
HETATM    2  C   UNL     1      22.379  38.327  16.376  1.00  0.00     0.039 C 
HETATM    3  C   UNL     1      24.412  39.699  17.899  1.00  0.00     0.233 C 
HETATM    4  C   UNL     1      23.271  39.159  15.714  1.00  0.00     0.100 C 
HETATM    5  C   UNL     1      23.171  39.136  18.511  1.00  0.00     0.048 C 
HETATM    6  C   UNL     1      24.149  40.001  16.440  1.00  0.00     0.143 C 
ENDROOT
BRANCH   3   7
HETATM    7  O   UNL     1      25.529  38.862  18.031  1.00  0.00    -0.357 OA
ATOM      8  HO  UNL     1      26.255  39.450  18.205  1.00  0.00     0.213 HD
ENDBRANCH   3   7
BRANCH   3   9
HETATM    9  O   UNL     1      24.781  40.902  18.545  1.00  0.00    -0.357 OA
ATOM     10  HO  UNL     1      24.908  41.528  17.841  1.00  0.00     0.213 HD
ENDBRANCH   3   9
BRANCH   6  11
HETATM   11  O   UNL     1      25.234  40.521  15.786  1.00  0.00    -0.357 OA
ATOM     12  HO  UNL     1      26.051  40.408  16.257  1.00  0.00     0.217 HD
ENDBRANCH   6  11
BRANCH   4  13
HETATM   13  O   UNL     1      23.282  39.257  14.358  1.00  0.00    -0.358 OA
ATOM     14  HO  UNL     1      23.628  38.562  13.811  1.00  0.00     0.217 HD
ENDBRANCH   4  13
TORSDOF 4
ENDMDL
MODEL 2
REMARK VINA RESULT:      -4.5      2.240      3.766
REMARK  4 active torsions:
REMARK  status: ('A' for Active; 'I' for Inactive)
REMARK    1  A    between atoms: O_1  and  C_10 
REMARK    2  A    between atoms: O_4  and  C_9 
REMARK    3  A    between atoms: O_7  and  C_9 
REMARK    4  A    between atoms: O_12  and  C_14 
ROOT
HETATM    1  C   UNL     1      24.086  39.944  17.680  1.00  0.00     0.005 C 
HETATM    2  C   UNL     1      23.631  39.103  18.695  1.00  0.00     0.039 C 
HETATM    3  C   UNL     1      22.624  38.803  16.006  1.00  0.00     0.233 C 
HETATM    4  C   UNL     1      22.513  38.311  18.479  1.00  0.00     0.100 C 
HETATM    5  C   UNL     1      23.521  39.923  16.424  1.00  0.00     0.048 C 
HETATM    6  C   UNL     1      21.870  38.298  17.216  1.00  0.00     0.143 C 
ENDROOT
BRANCH   3   7
HETATM    7  O   UNL     1      23.302  37.749  15.378  1.00  0.00    -0.357 OA
ATOM      8  HO  UNL     1      23.998  38.167  14.883  1.00  0.00     0.213 HD
ENDBRANCH   3   7
BRANCH   3   9
HETATM    9  O   UNL     1      21.685  39.253  15.049  1.00  0.00    -0.357 OA
ATOM     10  HO  UNL     1      20.957  39.588  15.560  1.00  0.00     0.213 HD
ENDBRANCH   3   9
BRANCH   6  11
HETATM   11  O   UNL     1      21.018  37.262  16.935  1.00  0.00    -0.357 OA
ATOM     12  HO  UNL     1      20.421  37.446  16.220  1.00  0.00     0.217 HD
ENDBRANCH   6  11
BRANCH   4  13
HETATM   13  O   UNL     1      21.947  37.586  19.480  1.00  0.00    -0.358 OA
ATOM     14  HO  UNL     1      21.668  37.991  20.292  1.00  0.00     0.217 HD
ENDBRANCH   4  13
TORSDOF 4
ENDMDL
MODEL 3
REMARK VINA RESULT:      -4.5      1.803      2.845
REMARK  4 active torsions:
REMARK  status: ('A' for Active; 'I' for Inactive)
REMARK    1  A    between atoms: O_1  and  C_10 
REMARK    2  A    between atoms: O_4  and  C_9 
REMARK    3  A    between atoms: O_7  and  C_9 
REMARK    4  A    between atoms: O_12  and  C_14 
ROOT
HETATM    1  C   UNL     1      22.866  39.170  15.570  1.00  0.00     0.005 C 
HETATM    2  C   UNL     1      21.806  38.659  16.318  1.00  0.00     0.039 C 
HETATM    3  C   UNL     1      24.138  39.719  17.648  1.00  0.00     0.233 C 
HETATM    4  C   UNL     1      21.978  38.414  17.673  1.00  0.00     0.100 C 
HETATM    5  C   UNL     1      24.048  39.547  16.167  1.00  0.00     0.048 C 
HETATM    6  C   UNL     1      23.198  38.740  18.316  1.00  0.00     0.143 C 
ENDROOT
BRANCH   3   7
HETATM    7  O   UNL     1      23.868  41.026  18.076  1.00  0.00    -0.357 OA
ATOM      8  HO  UNL     1      24.667  41.315  18.500  1.00  0.00     0.213 HD
ENDBRANCH   3   7
BRANCH   3   9
HETATM    9  O   UNL     1      25.453  39.454  18.099  1.00  0.00    -0.357 OA
ATOM     10  HO  UNL     1      25.385  38.638  18.581  1.00  0.00     0.213 HD
ENDBRANCH   3   9
BRANCH   6  11
HETATM   11  O   UNL     1      23.205  38.822  19.684  1.00  0.00    -0.357 OA
ATOM     12  HO  UNL     1      24.011  39.178  20.038  1.00  0.00     0.217 HD
ENDBRANCH   6  11
BRANCH   4  13
HETATM   13  O   UNL     1      21.025  37.786  18.411  1.00  0.00    -0.358 OA
ATOM     14  HO  UNL     1      20.130  38.101  18.443  1.00  0.00     0.217 HD
ENDBRANCH   4  13
TORSDOF 4
ENDMDL
MODEL 4
REMARK VINA RESULT:      -4.5      2.470      3.404
REMARK  4 active torsions:
REMARK  status: ('A' for Active; 'I' for Inactive)
REMARK    1  A    between atoms: O_1  and  C_10 
REMARK    2  A    between atoms: O_4  and  C_9 
REMARK    3  A    between atoms: O_7  and  C_9 
REMARK    4  A    between atoms: O_12  and  C_14 
ROOT
HETATM    1  C   UNL     1      23.589  39.296  18.021  1.00  0.00     0.005 C 
HETATM    2  C   UNL     1      23.577  39.540  16.648  1.00  0.00     0.039 C 
HETATM    3  C   UNL     1      21.564  37.845  17.837  1.00  0.00     0.233 C 
HETATM    4  C   UNL     1      22.774  38.766  15.822  1.00  0.00     0.100 C 
HETATM    5  C   UNL     1      22.735  38.381  18.595  1.00  0.00     0.048 C 
HETATM    6  C   UNL     1      21.917  37.777  16.368  1.00  0.00     0.143 C 
ENDROOT
BRANCH   3   7
HETATM    7  O   UNL     1      20.390  38.589  18.024  1.00  0.00    -0.357 OA
ATOM      8  HO  UNL     1      20.668  39.497  17.985  1.00  0.00     0.213 HD
ENDBRANCH   3   7
BRANCH   3   9
HETATM    9  O   UNL     1      21.242  36.541  18.280  1.00  0.00    -0.357 OA
ATOM     10  HO  UNL     1      21.825  36.382  19.014  1.00  0.00     0.213 HD
ENDBRANCH   3   9
BRANCH   6  11
HETATM   11  O   UNL     1      20.901  37.299  15.584  1.00  0.00    -0.357 OA
ATOM     12  HO  UNL     1      20.161  36.971  16.080  1.00  0.00     0.217 HD
ENDBRANCH   6  11
BRANCH   4  13
HETATM   13  O   UNL     1      22.835  38.868  14.468  1.00  0.00    -0.358 OA
ATOM     14  HO  UNL     1      23.264  38.207  13.937  1.00  0.00     0.217 HD
ENDBRANCH   4  13
TORSDOF 4
ENDMDL
MODEL 5
REMARK VINA RESULT:      -4.5      1.627      3.040
REMARK  4 active torsions:
REMARK  status: ('A' for Active; 'I' for Inactive)
REMARK    1  A    between atoms: O_1  and  C_10 
REMARK    2  A    between atoms: O_4  and  C_9 
REMARK    3  A    between atoms: O_7  and  C_9 
REMARK    4  A    between atoms: O_12  and  C_14 
ROOT
HETATM    1  C   UNL     1      23.483  38.847  18.997  1.00  0.00     0.005 C 
HETATM    2  C   UNL     1      24.312  39.693  18.260  1.00  0.00     0.039 C 
HETATM    3  C   UNL     1      21.983  38.513  17.029  1.00  0.00     0.233 C 
HETATM    4  C   UNL     1      24.175  39.755  16.881  1.00  0.00     0.100 C 
HETATM    5  C   UNL     1      22.452  38.157  18.402  1.00  0.00     0.048 C 
HETATM    6  C   UNL     1      23.158  39.020  16.222  1.00  0.00     0.143 C 
ENDROOT
BRANCH   3   7
HETATM    7  O   UNL     1      20.943  39.454  17.020  1.00  0.00    -0.357 OA
ATOM      8  HO  UNL     1      21.112  39.998  16.260  1.00  0.00     0.213 HD
ENDBRANCH   3   7
BRANCH   3   9
HETATM    9  O   UNL     1      21.450  37.376  16.377  1.00  0.00    -0.357 OA
ATOM     10  HO  UNL     1      22.173  37.023  15.873  1.00  0.00     0.213 HD
ENDBRANCH   3   9
BRANCH   6  11
HETATM   11  O   UNL     1      22.828  39.377  14.942  1.00  0.00    -0.357 OA
ATOM     12  HO  UNL     1      23.349  38.939  14.280  1.00  0.00     0.217 HD
ENDBRANCH   6  11
BRANCH   4  13
HETATM   13  O   UNL     1      25.050  40.451  16.108  1.00  0.00    -0.358 OA
ATOM     14  HO  UNL     1      24.876  40.623  15.190  1.00  0.00     0.217 HD
ENDBRANCH   4  13
TORSDOF 4
ENDMDL
MODEL 6
REMARK VINA RESULT:      -4.2      3.571      4.600
REMARK  4 active torsions:
REMARK  status: ('A' for Active; 'I' for Inactive)
REMARK    1  A    between atoms: O_1  and  C_10 
REMARK    2  A    between atoms: O_4  and  C_9 
REMARK    3  A    between atoms: O_7  and  C_9 
REMARK    4  A    between atoms: O_12  and  C_14 
ROOT
HETATM    1  C   UNL     1      20.177  37.003  15.374  1.00  0.00     0.005 C 
HETATM    2  C   UNL     1      20.034  35.974  16.304  1.00  0.00     0.039 C 
HETATM    3  C   UNL     1      20.912  38.589  17.157  1.00  0.00     0.233 C 
HETATM    4  C   UNL     1      20.564  36.124  17.578  1.00  0.00     0.100 C 
HETATM    5  C   UNL     1      20.729  38.214  15.722  1.00  0.00     0.048 C 
HETATM    6  C   UNL     1      21.188  37.338  17.962  1.00  0.00     0.143 C 
ENDROOT
BRANCH   3   7
HETATM    7  O   UNL     1      19.821  39.286  17.696  1.00  0.00    -0.357 OA
ATOM      8  HO  UNL     1      19.482  39.803  16.975  1.00  0.00     0.213 HD
ENDBRANCH   3   7
BRANCH   3   9
HETATM    9  O   UNL     1      22.012  39.467  17.304  1.00  0.00    -0.357 OA
ATOM     10  HO  UNL     1      22.768  38.898  17.388  1.00  0.00     0.213 HD
ENDBRANCH   3   9
BRANCH   6  11
HETATM   11  O   UNL     1      21.368  37.577  19.299  1.00  0.00    -0.357 OA
ATOM     12  HO  UNL     1      21.346  36.791  19.831  1.00  0.00     0.217 HD
ENDBRANCH   6  11
BRANCH   4  13
HETATM   13  O   UNL     1      20.578  35.100  18.470  1.00  0.00    -0.358 OA
ATOM     14  HO  UNL     1      21.391  34.709  18.768  1.00  0.00     0.217 HD
ENDBRANCH   4  13
TORSDOF 4
ENDMDL
MODEL 7
REMARK VINA RESULT:      -4.2      3.087      4.079
REMARK  4 active torsions:
REMARK  status: ('A' for Active; 'I' for Inactive)
REMARK    1  A    between atoms: O_1  and  C_10 
REMARK    2  A    between atoms: O_4  and  C_9 
REMARK    3  A    between atoms: O_7  and  C_9 
REMARK    4  A    between atoms: O_12  and  C_14 
ROOT
HETATM    1  C   UNL     1      21.155  38.007  15.723  1.00  0.00     0.005 C 
HETATM    2  C   UNL     1      22.453  38.380  16.073  1.00  0.00     0.039 C 
HETATM    3  C   UNL     1      20.675  37.278  18.063  1.00  0.00     0.233 C 
HETATM    4  C   UNL     1      22.801  38.474  17.413  1.00  0.00     0.100 C 
HETATM    5  C   UNL     1      20.240  37.616  16.674  1.00  0.00     0.048 C 
HETATM    6  C   UNL     1      21.872  38.130  18.426  1.00  0.00     0.143 C 
ENDROOT
BRANCH   3   7
HETATM    7  O   UNL     1      20.971  35.919  18.241  1.00  0.00    -0.357 OA
ATOM      8  HO  UNL     1      21.914  35.887  18.349  1.00  0.00     0.213 HD
ENDBRANCH   3   7
BRANCH   3   9
HETATM    9  O   UNL     1      19.638  37.548  18.987  1.00  0.00    -0.357 OA
ATOM     10  HO  UNL     1      18.873  37.114  18.627  1.00  0.00     0.213 HD
ENDBRANCH   3   9
BRANCH   6  11
HETATM   11  O   UNL     1      22.350  37.890  19.687  1.00  0.00    -0.357 OA
ATOM     12  HO  UNL     1      23.184  38.309  19.862  1.00  0.00     0.217 HD
ENDBRANCH   6  11
BRANCH   4  13
HETATM   13  O   UNL     1      24.004  38.969  17.804  1.00  0.00    -0.358 OA
ATOM     14  HO  UNL     1      24.566  38.497  18.407  1.00  0.00     0.217 HD
ENDBRANCH   4  13
TORSDOF 4
ENDMDL
MODEL 8
REMARK VINA RESULT:      -4.0      4.795      5.740
REMARK  4 active torsions:
REMARK  status: ('A' for Active; 'I' for Inactive)
REMARK    1  A    between atoms: O_1  and  C_10 
REMARK    2  A    between atoms: O_4  and  C_9 
REMARK    3  A    between atoms: O_7  and  C_9 
REMARK    4  A    between atoms: O_12  and  C_14 
ROOT
HETATM    1  C   UNL     1      20.431  36.752  15.866  1.00  0.00     0.005 C 
HETATM    2  C   UNL     1      19.781  35.521  15.965  1.00  0.00     0.039 C 
HETATM    3  C   UNL     1      20.396  37.030  18.348  1.00  0.00     0.233 C 
HETATM    4  C   UNL     1      19.672  34.901  17.201  1.00  0.00     0.100 C 
HETATM    5  C   UNL     1      20.866  37.424  16.986  1.00  0.00     0.048 C 
HETATM    6  C   UNL     1      20.153  35.537  18.373  1.00  0.00     0.143 C 
ENDROOT
BRANCH   3   7
HETATM    7  O   UNL     1      19.247  37.719  18.764  1.00  0.00    -0.357 OA
ATOM      8  HO  UNL     1      19.573  38.447  19.279  1.00  0.00     0.213 HD
ENDBRANCH   3   7
BRANCH   3   9
HETATM    9  O   UNL     1      21.376  37.340  19.320  1.00  0.00    -0.357 OA
ATOM     10  HO  UNL     1      21.170  36.781  20.060  1.00  0.00     0.213 HD
ENDBRANCH   3   9
BRANCH   6  11
HETATM   11  O   UNL     1      19.714  35.075  19.585  1.00  0.00    -0.357 OA
ATOM     12  HO  UNL     1      20.189  35.437  20.324  1.00  0.00     0.217 HD
ENDBRANCH   6  11
BRANCH   4  13
HETATM   13  O   UNL     1      19.178  33.642  17.326  1.00  0.00    -0.358 OA
ATOM     14  HO  UNL     1      18.858  33.155  16.576  1.00  0.00     0.217 HD
ENDBRANCH   4  13
TORSDOF 4
ENDMDL
MODEL 9
REMARK VINA RESULT:      -3.9      2.652      3.299
REMARK  4 active torsions:
REMARK  status: ('A' for Active; 'I' for Inactive)
REMARK    1  A    between atoms: O_1  and  C_10 
REMARK    2  A    between atoms: O_4  and  C_9 
REMARK    3  A    between atoms: O_7  and  C_9 
REMARK    4  A    between atoms: O_12  and  C_14 
ROOT
HETATM    1  C   UNL     1      19.197  37.512  16.805  1.00  0.00     0.005 C 
HETATM    2  C   UNL     1      19.655  36.817  15.686  1.00  0.00     0.039 C 
HETATM    3  C   UNL     1      21.481  38.421  17.244  1.00  0.00     0.233 C 
HETATM    4  C   UNL     1      20.910  37.104  15.168  1.00  0.00     0.100 C 
HETATM    5  C   UNL     1      20.006  38.397  17.481  1.00  0.00     0.048 C 
HETATM    6  C   UNL     1      21.756  38.046  15.805  1.00  0.00     0.143 C 
ENDROOT
BRANCH   3   7
HETATM    7  O   UNL     1      22.200  37.585  18.112  1.00  0.00    -0.357 OA
ATOM      8  HO  UNL     1      22.481  38.153  18.819  1.00  0.00     0.213 HD
ENDBRANCH   3   7
BRANCH   3   9
HETATM    9  O   UNL     1      22.000  39.716  17.476  1.00  0.00    -0.357 OA
ATOM     10  HO  UNL     1      22.152  39.754  18.414  1.00  0.00     0.213 HD
ENDBRANCH   3   9
BRANCH   6  11
HETATM   11  O   UNL     1      23.089  38.036  15.488  1.00  0.00    -0.357 OA
ATOM     12  HO  UNL     1      23.405  38.867  15.154  1.00  0.00     0.217 HD
ENDBRANCH   6  11
BRANCH   4  13
HETATM   13  O   UNL     1      21.342  36.559  14.000  1.00  0.00    -0.358 OA
ATOM     14  HO  UNL     1      20.985  36.829  13.162  1.00  0.00     0.217 HD
ENDBRANCH   4  13
TORSDOF 4
ENDMDL
