REMARK  10 active torsions:
REMARK  status: ('A' for Active; 'I' for Inactive)
REMARK    1  A    between atoms: O_4  and  P_10 
REMARK    2  A    between atoms: O_4  and  N_12 
REMARK    3  A    between atoms: O_6  and  O_18 
REMARK    4  A    between atoms: C_7  and  P_10 
REMARK    5  A    between atoms: P_10  and  C_17 
REMARK    6  A    between atoms: P_10  and  F_25 
REMARK    7  A    between atoms: O_13  and  O_19 
REMARK    8  A    between atoms: O_13  and  C_20 
REMARK    9  A    between atoms: O_16  and  C_17 
REMARK   10  A    between atoms: O_19  and  C_26 
ROOT
HETATM    1  O   UNL     1     -16.482  -3.986  14.400  1.00  0.00    -0.218 OA
ATOM      2  HO  UNL     1     -16.091  -3.870  13.542  1.00  0.00     0.256 HD
HETATM    3  O   UNL     1     -16.769  -4.263  15.186  1.00  0.00    -0.038 OA
ENDROOT
BRANCH   3   4
HETATM    4  O   UNL     1     -17.306  -4.422  16.364  1.00  0.00     0.000 OA
HETATM    5  O   UNL     1     -16.414  -3.914  17.428  1.00  0.00    -0.011 OA
HETATM    6  O   UNL     1     -16.791  -2.493  17.855  1.00  0.00    -0.047 OA
HETATM    7  N   UNL     1     -18.150  -2.175  17.465  1.00  0.00     0.156 NA
HETATM    8  F   UNL     1     -18.105  -3.555  17.275  1.00  0.00    -0.072 F 
BRANCH   7   9
HETATM    9  O   UNL     1     -18.471  -1.476  16.917  1.00  0.00    -0.206 OA
BRANCH   9  10
HETATM   10  P   UNL     1     -17.224  -1.639  15.341  1.00  0.00     0.120 P 
HETATM   11  C   UNL     1     -17.053  -1.225  14.030  1.00  0.00     0.265 A 
HETATM   12  C   UNL     1     -15.817  -1.353  14.652  1.00  0.00     0.223 A 
HETATM   13  O   UNL     1     -18.003  -0.459  14.528  1.00  0.00     0.000 OA
HETATM   14  O   UNL     1     -16.348  -0.614  13.177  1.00  0.00    -0.302 OA
HETATM   15  C   UNL     1     -15.461  -1.032  14.802  1.00  0.00     0.205 A 
HETATM   16  O   UNL     1     -17.380  -2.767  13.584  1.00  0.00    -0.188 OA
HETATM   17  O   UNL     1     -15.228  -2.101  15.676  1.00  0.00     0.000 OA
HETATM   18  C   UNL     1     -15.580  -2.540  14.343  1.00  0.00     0.194 A 
HETATM   19  C   UNL     1     -15.879   0.126  14.676  1.00  0.00     0.247 A 
HETATM   20  O   UNL     1     -15.481  -2.372  13.547  1.00  0.00    -0.337 OA
HETATM   21  N   UNL     1     -15.767  -1.971  16.477  1.00  0.00    -0.084 NA
HETATM   22  O   UNL     1     -16.772   0.253  14.614  1.00  0.00     0.000 OA
HETATM   23  F   UNL     1     -16.783  -0.003  15.428  1.00  0.00    -0.329 F 
HETATM   24  O   UNL     1     -17.730  -2.851  14.225  1.00  0.00     0.000 OA
HETATM   25  C   UNL     1     -18.586  -2.206  15.113  1.00  0.00     0.083 A 
HETATM   26  C   UNL     1     -18.761  -1.615  14.919  1.00  0.00     0.083 A 
ENDBRANCH   9  10
ENDBRANCH   7   9
ENDBRANCH   3   4
TORSDOF 10
