REMARK  1 active torsions:
REMARK  status: ('A' for Active; 'I' for Inactive)
REMARK    1  A    between atoms: C_4  and  N_17 
ROOT
HETATM    1  O   UNL     1      24.278  56.088  17.634  1.00  0.00    -0.267 OA
HETATM    2  C   UNL     1      23.561  56.229  14.314  1.00  0.00     0.006 C 
HETATM    3  C   UNL     1      24.599  58.781  14.149  1.00  0.00     0.013 C 
HETATM    4  C   UNL     1      24.147  56.807  15.403  1.00  0.00     0.044 C 
HETATM    5  C   UNL     1      22.987  59.011  10.932  1.00  0.00     0.001 C 
HETATM    6  C   UNL     1      23.777  58.262  13.128  1.00  0.00    -0.025 C 
HETATM    7  C   UNL     1      24.825  57.992  15.286  1.00  0.00     0.019 C 
HETATM    8  C   UNL     1      23.850  56.005  16.466  1.00  0.00     0.258 C 
HETATM    9  C   UNL     1      23.400  56.134  11.954  1.00  0.00     0.013 C 
HETATM   10  C   UNL     1      23.028  55.050  14.702  1.00  0.00     0.107 C 
HETATM   11  C   UNL     1      23.075  57.867  10.202  1.00  0.00     0.000 C 
HETATM   12  C   UNL     1      23.513  56.888  13.114  1.00  0.00    -0.013 C 
HETATM   13  C   UNL     1      23.167  56.591  10.673  1.00  0.00     0.001 C 
HETATM   14  C   UNL     1      23.101  59.155  12.290  1.00  0.00     0.012 C 
HETATM   15  N   UNL     1      23.125  54.996  16.041  1.00  0.00    -0.323 N 
ENDROOT
BRANCH  15  16
HETATM   16  C   UNL     1      22.695  53.899  16.916  1.00  0.00     0.127 C 
HETATM   17  C   UNL     1      21.189  53.677  16.869  1.00  0.00     0.027 C 
ENDBRANCH  15  16
TORSDOF 1
