MODEL 1
REMARK VINA RESULT:     -13.6      0.000      0.000
REMARK  3 active torsions:
REMARK  status: ('A' for Active; 'I' for Inactive)
REMARK    1  A    between atoms: C_7  and  C_15 
REMARK    2  A    between atoms: C_7  and  C_31 
REMARK    3  A    between atoms: C_13  and  C_24 
ROOT
HETATM    1  C   UNL     1      12.941  23.281 -15.593  1.00  0.00     0.008 C 
HETATM    2  C   UNL     1      14.107  27.175 -14.001  1.00  0.00    -0.050 C 
HETATM    3  C   UNL     1      13.154  21.170 -14.338  1.00  0.00     0.000 C 
HETATM    4  C   UNL     1      14.166  23.891 -15.407  1.00  0.00    -0.047 C 
HETATM    5  C   UNL     1      16.352  26.924 -15.203  1.00  0.00     0.058 C 
HETATM    6  C   UNL     1      12.460  22.108 -15.058  1.00  0.00     0.001 C 
HETATM    7  C   UNL     1      15.472  29.106 -14.061  1.00  0.00     0.011 C 
HETATM    8  C   UNL     1      15.351  29.294 -12.665  1.00  0.00     0.015 C 
HETATM    9  C   UNL     1      13.736  27.483 -12.680  1.00  0.00     0.007 C 
HETATM   10  C   UNL     1      16.479  24.254 -14.941  1.00  0.00     0.045 C 
HETATM   11  C   UNL     1      14.522  28.412 -11.961  1.00  0.00     0.002 C 
HETATM   12  C   UNL     1      14.508  21.086 -14.167  1.00  0.00     0.001 C 
HETATM   13  C   UNL     1      14.377  25.346 -15.645  1.00  0.00     0.028 C 
HETATM   14  C   UNL     1      15.312  27.768 -14.485  1.00  0.00    -0.030 C 
HETATM   15  C   UNL     1      15.797  25.537 -15.213  1.00  0.00     0.012 C 
HETATM   16  C   UNL     1      15.470  21.978 -14.532  1.00  0.00     0.007 C 
HETATM   17  C   UNL     1      13.384  26.205 -14.878  1.00  0.00     0.049 C 
HETATM   18  C   UNL     1      15.323  23.270 -14.996  1.00  0.00    -0.051 C 
ENDROOT
BRANCH   5  19
HETATM   19  C   UNL     1      16.657  27.050 -16.706  1.00  0.00    -0.048 C 
HETATM   20  C   UNL     1      15.644  27.265 -17.644  1.00  0.00     0.025 C 
HETATM   21  C   UNL     1      15.623  26.796 -18.936  1.00  0.00     0.088 C 
HETATM   22  N   UNL     1      16.510  26.197 -19.738  1.00  0.00    -0.375 N 
HETATM   23  C   UNL     1      17.733  25.764 -19.369  1.00  0.00     0.087 C 
ATOM     24  HN  UNL     1      16.239  26.056 -20.710  1.00  0.00     0.164 HD
HETATM   25  C   UNL     1      18.412  26.142 -18.254  1.00  0.00     0.018 C 
HETATM   26  C   UNL     1      17.947  26.804 -17.128  1.00  0.00     0.009 C 
ENDBRANCH   5  19
BRANCH   7  27
HETATM   27  C   UNL     1      15.620  30.196 -15.007  1.00  0.00     0.137 C 
HETATM   28  F   UNL     1      14.728  30.380 -15.911  1.00  0.00    -0.204 F 
BRANCH  27  29
HETATM   29  C   UNL     1      16.797  31.087 -14.970  1.00  0.00     0.003 C 
HETATM   30  C   UNL     1      16.949  32.042 -13.958  1.00  0.00     0.014 C 
HETATM   31  C   UNL     1      18.201  32.645 -13.763  1.00  0.00     0.001 C 
HETATM   32  C   UNL     1      19.228  32.409 -14.680  1.00  0.00     0.000 C 
HETATM   33  C   UNL     1      18.997  31.629 -15.810  1.00  0.00     0.001 C 
HETATM   34  C   UNL     1      17.792  30.945 -15.937  1.00  0.00     0.014 C 
ENDBRANCH  27  29
ENDBRANCH   7  27
TORSDOF 3
ENDMDL
