REMARK  3 active torsions:
REMARK  status: ('A' for Active; 'I' for Inactive)
REMARK    1  A    between atoms: C_3  and  O_23 
REMARK    2  A    between atoms: O_8  and  C_25 
REMARK    3  A    between atoms: O_10  and  C_25 
ROOT
HETATM    1  C   UNL     1     -69.504 -25.337   4.392  1.00  0.00    -0.039 C 
HETATM    2  C   UNL     1     -63.723 -25.398   1.901  1.00  0.00     0.129 C 
HETATM    3  C   UNL     1     -69.768 -27.509   3.214  1.00  0.00     0.089 C 
HETATM    4  C   UNL     1     -66.152 -24.073   1.516  1.00  0.00     0.063 C 
HETATM    5  C   UNL     1     -71.908 -25.500   3.699  1.00  0.00     0.088 C 
HETATM    6  C   UNL     1     -67.480 -26.597   3.836  1.00  0.00     0.122 C 
HETATM    7  C   UNL     1     -65.920 -26.462   1.965  1.00  0.00     0.023 C 
HETATM    8  C   UNL     1     -65.052 -25.687  -0.116  1.00  0.00     0.039 C 
HETATM    9  C   UNL     1     -66.957 -27.348   2.601  1.00  0.00     0.037 C 
HETATM   10  C   UNL     1     -68.668 -24.482   5.301  1.00  0.00     0.132 C 
HETATM   11  C   UNL     1     -71.145 -27.692   3.284  1.00  0.00     0.124 C 
HETATM   12  N   UNL     1     -72.117 -26.780   3.373  1.00  0.00    -0.373 N 
ATOM     13  HN  UNL     1     -73.074 -27.077   3.181  1.00  0.00     0.164 HD
HETATM   14  C   UNL     1     -64.623 -26.418   1.176  1.00  0.00     0.024 C 
HETATM   15  C   UNL     1     -70.759 -24.856   4.071  1.00  0.00     0.025 C 
HETATM   16  C   UNL     1     -64.496 -25.001   3.196  1.00  0.00     0.064 C 
HETATM   17  O   UNL     1     -63.768 -24.191   1.098  1.00  0.00    -0.380 OA
HETATM   18  N   UNL     1     -66.992 -25.214   3.676  1.00  0.00    -0.342 N 
HETATM   19  C   UNL     1     -67.180 -24.421   4.889  1.00  0.00     0.247 C 
HETATM   20  C   UNL     1     -65.945 -25.100   2.656  1.00  0.00     0.042 C 
HETATM   21  C   UNL     1     -65.046 -24.241   0.435  1.00  0.00     0.124 C 
HETATM   22  C   UNL     1     -68.983 -26.511   3.821  1.00  0.00     0.006 C 
ENDROOT
BRANCH  19  23
HETATM   23  O   UNL     1     -66.845 -23.113   4.632  1.00  0.00    -0.348 OA
ATOM     24  HO  UNL     1     -67.360 -22.743   3.924  1.00  0.00     0.215 HD
ENDBRANCH  19  23
BRANCH  19  25
HETATM   25  O   UNL     1     -66.439 -24.953   5.908  1.00  0.00    -0.348 OA
ATOM     26  HO  UNL     1     -66.671 -25.857   6.086  1.00  0.00     0.215 HD
ENDBRANCH  19  25
BRANCH   3  27
HETATM   27  O   UNL     1     -69.191 -28.438   2.396  1.00  0.00    -0.359 OA
ATOM     28  HO  UNL     1     -68.250 -28.313   2.348  1.00  0.00     0.217 HD
ENDBRANCH   3  27
TORSDOF 3
