REMARK  1 active torsions:
REMARK  status: ('A' for Active; 'I' for Inactive)
REMARK    1  A    between atoms: O_3  and  C_7 
ROOT
HETATM    1  C   UNL     1      -0.751  37.026  -5.777  1.00  0.00     0.003 C 
HETATM    2  C   UNL     1       0.480  36.412  -5.950  1.00  0.00     0.045 C 
HETATM    3  C   UNL     1      -1.780  34.864  -5.543  1.00  0.00     0.040 C 
HETATM    4  F   UNL     1       1.719  34.521  -5.212  1.00  0.00    -0.203 F 
HETATM    5  C   UNL     1      -0.558  34.261  -5.819  1.00  0.00     0.104 C 
HETATM    6  C   UNL     1       0.593  35.054  -5.709  1.00  0.00     0.149 C 
HETATM    7  C   UNL     1      -1.884  36.249  -5.562  1.00  0.00     0.003 C 
ENDROOT
BRANCH   5   8
HETATM    8  O   UNL     1      -0.423  32.941  -6.110  1.00  0.00    -0.358 OA
ATOM      9  HO  UNL     1       0.412  32.529  -6.299  1.00  0.00     0.217 HD
ENDBRANCH   5   8
TORSDOF 1
