REMARK  2 active torsions:
REMARK  status: ('A' for Active; 'I' for Inactive)
REMARK    1  A    between atoms: O_5  and  C_8 
REMARK    2  A    between atoms: C_8  and  O_9 
ROOT
HETATM    1  C   UNL     1      -0.361  36.571  -5.437  1.00  0.00     0.156 C 
HETATM    2  N   UNL     1       0.736  33.510  -6.289  1.00  0.00    -0.379 N 
ATOM      3  HN  UNL     1       0.750  32.978  -7.159  1.00  0.00     0.160 HD
HETATM    4  N   UNL     1       0.108  35.267  -5.005  1.00  0.00    -0.326 N 
HETATM    5  C   UNL     1      -0.399  34.086  -5.686  1.00  0.00     0.178 C 
HETATM    6  C   UNL     1       1.447  34.994  -4.583  1.00  0.00     0.263 C 
HETATM    7  C   UNL     1       1.860  33.803  -5.466  1.00  0.00     0.214 C 
ENDROOT
BRANCH   6   8
HETATM    8  O   UNL     1       1.403  34.684  -3.252  1.00  0.00    -0.347 OA
ATOM      9  HO  UNL     1       2.292  34.503  -2.972  1.00  0.00     0.215 HD
ENDBRANCH   6   8
BRANCH   6  10
HETATM   10  O   UNL     1       2.356  35.982  -4.600  1.00  0.00    -0.347 OA
ATOM     11  HO  UNL     1       3.245  35.801  -4.320  1.00  0.00     0.215 HD
ENDBRANCH   6  10
TORSDOF 2
