REMARK  2 active torsions:
REMARK  status: ('A' for Active; 'I' for Inactive)
REMARK    1  A    between atoms: C_1  and  O_2 
REMARK    2  A    between atoms: C_1  and  O_8 
ROOT
HETATM    1  C   UNL     1      -0.999  33.549  -6.144  1.00  0.00     0.163 C 
HETATM    2  C   UNL     1      -1.577  33.940  -7.499  1.00  0.00     0.094 C 
HETATM    3  O   UNL     1       0.734  34.568  -8.218  1.00  0.00    -0.391 OA
HETATM    4  C   UNL     1       0.450  33.069  -6.263  1.00  0.00     0.094 C 
HETATM    5  C   UNL     1       1.350  33.736  -7.269  1.00  0.00     0.173 C 
HETATM    6  C   UNL     1      -0.646  34.850  -8.270  1.00  0.00     0.173 C 
ENDROOT
BRANCH   1   7
HETATM    7  O   UNL     1      -1.787  32.514  -5.609  1.00  0.00    -0.365 OA
ATOM      8  HO  UNL     1      -1.427  32.270  -4.764  1.00  0.00     0.213 HD
ENDBRANCH   1   7
BRANCH   1   9
HETATM    9  O   UNL     1      -1.058  34.649  -5.272  1.00  0.00    -0.365 OA
ATOM     10  HO  UNL     1      -0.526  35.348  -5.633  1.00  0.00     0.213 HD
ENDBRANCH   1   9
TORSDOF 2
