REMARK  4 active torsions:
REMARK  status: ('A' for Active; 'I' for Inactive)
REMARK    1  A    between atoms: C_2  and  C_18 
REMARK    2  A    between atoms: C_5  and  O_7 
REMARK       I    between atoms: C_5  and  N_20 
REMARK    3  A    between atoms: O_7  and  C_17 
REMARK    4  A    between atoms: O_10  and  C_19 
ROOT
HETATM    1  C   UNL     1      28.690  34.365  20.563  1.00  0.00    -0.026 C 
HETATM    2  C   UNL     1      28.646  34.676  22.937  1.00  0.00    -0.009 A 
HETATM    3  C   UNL     1      27.428  34.423  22.951  1.00  0.00    -0.009 A 
HETATM    4  C   UNL     1      26.651  34.160  21.818  1.00  0.00    -0.004 C 
HETATM    5  C   UNL     1      28.249  33.462  23.355  1.00  0.00     0.029 A 
HETATM    6  C   UNL     1      26.634  35.370  23.851  1.00  0.00     0.019 C 
HETATM    7  C   UNL     1      26.606  34.060  19.410  1.00  0.00     0.014 C 
HETATM    8  C   UNL     1      29.393  33.838  19.476  1.00  0.00     0.049 C 
HETATM    9  C   UNL     1      29.326  34.878  21.705  1.00  0.00    -0.004 C 
HETATM   10  C   UNL     1      28.652  33.247  18.451  1.00  0.00     0.081 C 
HETATM   11  C   UNL     1      27.696  36.123  24.606  1.00  0.00    -0.006 C 
HETATM   12  C   UNL     1      27.303  34.260  20.595  1.00  0.00    -0.029 C 
HETATM   13  C   UNL     1      29.043  35.649  24.095  1.00  0.00     0.019 C 
HETATM   14  C   UNL     1      27.294  33.558  18.317  1.00  0.00     0.038 C 
ENDROOT
BRANCH  11  15
HETATM   15  C   UNL     1      27.345  36.733  25.918  1.00  0.00     0.018 C 
HETATM   16  C   UNL     1      26.456  35.935  26.861  1.00  0.00     0.122 C 
HETATM   17  C   UNL     1      26.864  36.335  28.265  1.00  0.00     0.032 C 
HETATM   18  C   UNL     1      28.183  37.066  28.157  1.00  0.00     0.003 C 
HETATM   19  C   UNL     1      28.511  37.268  26.695  1.00  0.00     0.007 C 
BRANCH  16  20
HETATM   20  O   UNL     1      25.096  36.220  26.585  1.00  0.00    -0.395 OA
ATOM     21  HO  UNL     1      24.541  35.722  27.174  1.00  0.00     0.210 HD
ENDBRANCH  16  20
ENDBRANCH  11  15
BRANCH  10  22
HETATM   22  O   UNL     1      29.064  32.165  17.721  1.00  0.00    -0.262 OA
BRANCH  22  23
HETATM   23  C   UNL     1      30.307  31.616  17.756  1.00  0.00     0.363 C 
HETATM   24  N   UNL     1      30.939  31.460  16.576  1.00  0.00    -0.345 N 
ATOM     25  HN2 UNL     1      30.556  31.798  15.693  1.00  0.00     0.161 HD
ATOM     26  HN1 UNL     1      31.872  31.048  16.602  1.00  0.00     0.161 HD
HETATM   27  O   UNL     1      30.772  31.205  18.828  1.00  0.00    -0.238 OA
ENDBRANCH  22  23
ENDBRANCH  10  22
TORSDOF 4
