MODEL 1
REMARK VINA RESULT:      -7.2      0.000      0.000
REMARK  4 active torsions:
REMARK  status: ('A' for Active; 'I' for Inactive)
REMARK    1  A    between atoms: O_2  and  C_16 
REMARK    2  A    between atoms: C_5  and  N_15 
REMARK    3  A    between atoms: C_6  and  O_13 
REMARK    4  A    between atoms: O_8  and  C_16 
ROOT
HETATM    1  C   UNL     1      27.192  65.852  11.582  1.00  0.00     0.075 C 
HETATM    2  C   UNL     1      28.607  65.518  11.143  1.00  0.00     0.096 C 
HETATM    3  C   UNL     1      27.289  63.504  11.255  1.00  0.00     0.182 C 
HETATM    4  N   UNL     1      28.980  66.598  10.240  1.00  0.00    -0.375 N 
HETATM    5  C   UNL     1      26.332  64.691  11.077  1.00  0.00     0.191 C 
HETATM    6  C   UNL     1      28.639  64.045  10.800  1.00  0.00     0.063 C 
HETATM    7  C   UNL     1      26.905  67.265  11.124  1.00  0.00     0.032 C 
HETATM    8  C   UNL     1      28.203  67.798  10.547  1.00  0.00     0.124 C 
ENDROOT
BRANCH   4   9
HETATM    9  C   UNL     1      29.965  66.621   9.273  1.00  0.00     0.030 C 
HETATM   10  C   UNL     1      29.666  66.799   7.928  1.00  0.00     0.029 C 
HETATM   11  C   UNL     1      30.411  67.251   6.876  1.00  0.00     0.002 C 
HETATM   12  C   UNL     1      31.758  67.428   6.671  1.00  0.00     0.000 C 
HETATM   13  C   UNL     1      32.691  67.048   7.621  1.00  0.00     0.000 C 
HETATM   14  C   UNL     1      32.435  66.671   8.919  1.00  0.00     0.002 C 
HETATM   15  C   UNL     1      31.304  66.512   9.652  1.00  0.00     0.029 C 
ENDBRANCH   4   9
BRANCH   5  16
HETATM   16  O   UNL     1      25.933  64.825   9.736  1.00  0.00    -0.363 OA
ATOM     17  HO  UNL     1      26.602  64.569   9.111  1.00  0.00     0.213 HD
ENDBRANCH   5  16
BRANCH   5  18
HETATM   18  O   UNL     1      25.187  64.546  11.880  1.00  0.00    -0.363 OA
ATOM     19  HO  UNL     1      25.210  63.714  12.340  1.00  0.00     0.213 HD
ENDBRANCH   5  18
BRANCH   3  20
HETATM   20  O   UNL     1      26.887  62.435  10.402  1.00  0.00    -0.390 OA
ATOM     21  HO  UNL     1      27.651  62.058   9.983  1.00  0.00     0.210 HD
ENDBRANCH   3  20
TORSDOF 4
ENDMDL
MODEL 2
REMARK VINA RESULT:      -6.7      2.475      3.394
REMARK  4 active torsions:
REMARK  status: ('A' for Active; 'I' for Inactive)
REMARK    1  A    between atoms: O_2  and  C_16 
REMARK    2  A    between atoms: C_5  and  N_15 
REMARK    3  A    between atoms: C_6  and  O_13 
REMARK    4  A    between atoms: O_8  and  C_16 
ROOT
HETATM    1  C   UNL     1      27.807  65.776  12.425  1.00  0.00     0.075 C 
HETATM    2  C   UNL     1      28.385  66.875  11.550  1.00  0.00     0.096 C 
HETATM    3  C   UNL     1      28.967  67.272  13.854  1.00  0.00     0.182 C 
HETATM    4  N   UNL     1      28.847  66.191  10.350  1.00  0.00    -0.375 N 
HETATM    5  C   UNL     1      28.670  65.775  13.688  1.00  0.00     0.191 C 
HETATM    6  C   UNL     1      29.240  67.755  12.435  1.00  0.00     0.063 C 
HETATM    7  C   UNL     1      27.711  64.531  11.570  1.00  0.00     0.032 C 
HETATM    8  C   UNL     1      28.099  64.948  10.164  1.00  0.00     0.124 C 
ENDROOT
BRANCH   4   9
HETATM    9  C   UNL     1      29.772  66.607   9.414  1.00  0.00     0.030 C 
HETATM   10  C   UNL     1      31.132  66.633   9.691  1.00  0.00     0.029 C 
HETATM   11  C   UNL     1      32.234  66.600   8.883  1.00  0.00     0.002 C 
HETATM   12  C   UNL     1      32.433  66.809   7.540  1.00  0.00     0.000 C 
HETATM   13  C   UNL     1      31.402  67.211   6.708  1.00  0.00     0.000 C 
HETATM   14  C   UNL     1      30.062  67.246   7.019  1.00  0.00     0.002 C 
HETATM   15  C   UNL     1      29.343  66.969   8.136  1.00  0.00     0.029 C 
ENDBRANCH   4   9
BRANCH   5  16
HETATM   16  O   UNL     1      29.857  65.033  13.562  1.00  0.00    -0.363 OA
ATOM     17  HO  UNL     1      29.909  64.292  14.155  1.00  0.00     0.213 HD
ENDBRANCH   5  16
BRANCH   5  18
HETATM   18  O   UNL     1      27.936  65.279  14.781  1.00  0.00    -0.363 OA
ATOM     19  HO  UNL     1      28.456  64.651  15.269  1.00  0.00     0.213 HD
ENDBRANCH   5  18
BRANCH   3  20
HETATM   20  O   UNL     1      30.136  67.441  14.653  1.00  0.00    -0.390 OA
ATOM     21  HO  UNL     1      30.888  67.084  14.196  1.00  0.00     0.210 HD
ENDBRANCH   3  20
TORSDOF 4
ENDMDL
MODEL 3
REMARK VINA RESULT:      -6.6      2.548      3.729
REMARK  4 active torsions:
REMARK  status: ('A' for Active; 'I' for Inactive)
REMARK    1  A    between atoms: O_2  and  C_16 
REMARK    2  A    between atoms: C_5  and  N_15 
REMARK    3  A    between atoms: C_6  and  O_13 
REMARK    4  A    between atoms: O_8  and  C_16 
ROOT
HETATM    1  C   UNL     1      27.962  66.426  12.384  1.00  0.00     0.075 C 
HETATM    2  C   UNL     1      28.168  67.115  11.047  1.00  0.00     0.096 C 
HETATM    3  C   UNL     1      27.918  68.763  12.787  1.00  0.00     0.182 C 
HETATM    4  N   UNL     1      29.170  66.309  10.364  1.00  0.00    -0.375 N 
HETATM    5  C   UNL     1      28.389  67.453  13.434  1.00  0.00     0.191 C 
HETATM    6  C   UNL     1      28.279  68.600  11.316  1.00  0.00     0.063 C 
HETATM    7  C   UNL     1      28.659  65.084  12.306  1.00  0.00     0.032 C 
HETATM    8  C   UNL     1      29.145  64.940  10.876  1.00  0.00     0.124 C 
ENDROOT
BRANCH   4   9
HETATM    9  C   UNL     1      30.001  66.658   9.317  1.00  0.00     0.030 C 
HETATM   10  C   UNL     1      31.382  66.675   9.455  1.00  0.00     0.029 C 
HETATM   11  C   UNL     1      32.395  66.579   8.543  1.00  0.00     0.002 C 
HETATM   12  C   UNL     1      32.460  66.711   7.177  1.00  0.00     0.000 C 
HETATM   13  C   UNL     1      31.355  67.086   6.432  1.00  0.00     0.000 C 
HETATM   14  C   UNL     1      30.054  67.161   6.873  1.00  0.00     0.002 C 
HETATM   15  C   UNL     1      29.449  66.958   8.071  1.00  0.00     0.029 C 
ENDBRANCH   4   9
BRANCH   5  16
HETATM   16  O   UNL     1      29.774  67.474  13.674  1.00  0.00    -0.363 OA
ATOM     17  HO  UNL     1      30.299  67.470  12.882  1.00  0.00     0.213 HD
ENDBRANCH   5  16
BRANCH   5  18
HETATM   18  O   UNL     1      27.721  67.217  14.649  1.00  0.00    -0.363 OA
ATOM     19  HO  UNL     1      28.347  67.041  15.342  1.00  0.00     0.213 HD
ENDBRANCH   5  18
BRANCH   3  20
HETATM   20  O   UNL     1      28.644  69.857  13.343  1.00  0.00    -0.390 OA
ATOM     21  HO  UNL     1      28.930  70.436  12.646  1.00  0.00     0.210 HD
ENDBRANCH   3  20
TORSDOF 4
ENDMDL
MODEL 4
REMARK VINA RESULT:      -6.3      1.886      2.893
REMARK  4 active torsions:
REMARK  status: ('A' for Active; 'I' for Inactive)
REMARK    1  A    between atoms: O_2  and  C_16 
REMARK    2  A    between atoms: C_5  and  N_15 
REMARK    3  A    between atoms: C_6  and  O_13 
REMARK    4  A    between atoms: O_8  and  C_16 
ROOT
HETATM    1  C   UNL     1      26.689  65.832  11.297  1.00  0.00     0.075 C 
HETATM    2  C   UNL     1      27.250  65.860   9.886  1.00  0.00     0.096 C 
HETATM    3  C   UNL     1      25.146  67.033   9.954  1.00  0.00     0.182 C 
HETATM    4  N   UNL     1      28.682  66.060  10.060  1.00  0.00    -0.375 N 
HETATM    5  C   UNL     1      25.733  67.024  11.372  1.00  0.00     0.191 C 
HETATM    6  C   UNL     1      26.341  66.741   9.056  1.00  0.00     0.063 C 
HETATM    7  C   UNL     1      27.867  65.741  12.243  1.00  0.00     0.032 C 
HETATM    8  C   UNL     1      29.099  65.574  11.374  1.00  0.00     0.124 C 
ENDROOT
BRANCH   4   9
HETATM    9  C   UNL     1      29.609  66.536   9.154  1.00  0.00     0.030 C 
HETATM   10  C   UNL     1      30.942  66.714   9.498  1.00  0.00     0.029 C 
HETATM   11  C   UNL     1      32.083  66.767   8.749  1.00  0.00     0.002 C 
HETATM   12  C   UNL     1      32.333  66.946   7.409  1.00  0.00     0.000 C 
HETATM   13  C   UNL     1      31.313  67.208   6.511  1.00  0.00     0.000 C 
HETATM   14  C   UNL     1      29.962  67.114   6.752  1.00  0.00     0.002 C 
HETATM   15  C   UNL     1      29.215  66.804   7.843  1.00  0.00     0.029 C 
ENDBRANCH   4   9
BRANCH   5  16
HETATM   16  O   UNL     1      26.372  68.242  11.665  1.00  0.00    -0.363 OA
ATOM     17  HO  UNL     1      27.056  68.168  12.320  1.00  0.00     0.213 HD
ENDBRANCH   5  16
BRANCH   5  18
HETATM   18  O   UNL     1      24.735  66.791  12.335  1.00  0.00    -0.363 OA
ATOM     19  HO  UNL     1      24.564  67.583  12.832  1.00  0.00     0.213 HD
ENDBRANCH   5  18
BRANCH   3  20
HETATM   20  O   UNL     1      24.628  68.328   9.660  1.00  0.00    -0.390 OA
ATOM     21  HO  UNL     1      24.062  68.613  10.367  1.00  0.00     0.210 HD
ENDBRANCH   3  20
TORSDOF 4
ENDMDL
MODEL 5
REMARK VINA RESULT:      -6.0      3.130      5.602
REMARK  4 active torsions:
REMARK  status: ('A' for Active; 'I' for Inactive)
REMARK    1  A    between atoms: O_2  and  C_16 
REMARK    2  A    between atoms: C_5  and  N_15 
REMARK    3  A    between atoms: C_6  and  O_13 
REMARK    4  A    between atoms: O_8  and  C_16 
ROOT
HETATM    1  C   UNL     1      28.723  66.684  10.507  1.00  0.00     0.075 C 
HETATM    2  C   UNL     1      27.574  66.582   9.519  1.00  0.00     0.096 C 
HETATM    3  C   UNL     1      29.659  66.794   8.330  1.00  0.00     0.182 C 
HETATM    4  N   UNL     1      26.676  65.590  10.095  1.00  0.00    -0.375 N 
HETATM    5  C   UNL     1      29.961  66.237   9.728  1.00  0.00     0.191 C 
HETATM    6  C   UNL     1      28.175  66.512   8.132  1.00  0.00     0.063 C 
HETATM    7  C   UNL     1      28.303  65.941  11.757  1.00  0.00     0.032 C 
HETATM    8  C   UNL     1      26.857  65.534  11.545  1.00  0.00     0.124 C 
ENDROOT
BRANCH   4   9
HETATM    9  C   UNL     1      25.701  64.836   9.473  1.00  0.00     0.030 C 
HETATM   10  C   UNL     1      24.823  65.391   8.552  1.00  0.00     0.029 C 
HETATM   11  C   UNL     1      24.086  64.841   7.542  1.00  0.00     0.002 C 
HETATM   12  C   UNL     1      23.710  63.557   7.230  1.00  0.00     0.000 C 
HETATM   13  C   UNL     1      24.014  62.491   8.060  1.00  0.00     0.000 C 
HETATM   14  C   UNL     1      24.871  62.506   9.136  1.00  0.00     0.002 C 
HETATM   15  C   UNL     1      25.618  63.468   9.736  1.00  0.00     0.029 C 
ENDBRANCH   4   9
BRANCH   5  16
HETATM   16  O   UNL     1      30.134  64.842   9.692  1.00  0.00    -0.363 OA
ATOM     17  HO  UNL     1      30.678  64.506  10.395  1.00  0.00     0.213 HD
ENDBRANCH   5  16
BRANCH   5  18
HETATM   18  O   UNL     1      31.119  66.824  10.269  1.00  0.00    -0.363 OA
ATOM     19  HO  UNL     1      31.893  66.357   9.979  1.00  0.00     0.213 HD
ENDBRANCH   5  18
BRANCH   3  20
HETATM   20  O   UNL     1      30.418  66.080   7.357  1.00  0.00    -0.390 OA
ATOM     21  HO  UNL     1      29.848  65.803   6.648  1.00  0.00     0.210 HD
ENDBRANCH   3  20
TORSDOF 4
ENDMDL
MODEL 6
REMARK VINA RESULT:      -5.9      3.915      5.621
REMARK  4 active torsions:
REMARK  status: ('A' for Active; 'I' for Inactive)
REMARK    1  A    between atoms: O_2  and  C_16 
REMARK    2  A    between atoms: C_5  and  N_15 
REMARK    3  A    between atoms: C_6  and  O_13 
REMARK    4  A    between atoms: O_8  and  C_16 
ROOT
HETATM    1  C   UNL     1      26.264  65.395  13.473  1.00  0.00     0.075 C 
HETATM    2  C   UNL     1      26.323  65.627  11.973  1.00  0.00     0.096 C 
HETATM    3  C   UNL     1      28.555  65.405  12.855  1.00  0.00     0.182 C 
HETATM    4  N   UNL     1      25.219  64.846  11.433  1.00  0.00    -0.375 N 
HETATM    5  C   UNL     1      27.587  64.712  13.825  1.00  0.00     0.191 C 
HETATM    6  C   UNL     1      27.770  65.497  11.552  1.00  0.00     0.063 C 
HETATM    7  C   UNL     1      24.951  64.703  13.766  1.00  0.00     0.032 C 
HETATM    8  C   UNL     1      24.188  64.664  12.455  1.00  0.00     0.124 C 
ENDROOT
BRANCH   4   9
HETATM    9  C   UNL     1      25.030  64.382  10.147  1.00  0.00     0.030 C 
HETATM   10  C   UNL     1      25.236  63.051   9.812  1.00  0.00     0.029 C 
HETATM   11  C   UNL     1      24.759  62.277   8.791  1.00  0.00     0.002 C 
HETATM   12  C   UNL     1      24.151  62.557   7.591  1.00  0.00     0.000 C 
HETATM   13  C   UNL     1      23.976  63.858   7.154  1.00  0.00     0.000 C 
HETATM   14  C   UNL     1      24.161  65.005   7.891  1.00  0.00     0.002 C 
HETATM   15  C   UNL     1      24.573  65.257   9.160  1.00  0.00     0.029 C 
ENDBRANCH   4   9
BRANCH   5  16
HETATM   16  O   UNL     1      27.576  63.321  13.623  1.00  0.00    -0.363 OA
ATOM     17  HO  UNL     1      27.533  62.818  14.428  1.00  0.00     0.213 HD
ENDBRANCH   5  16
BRANCH   5  18
HETATM   18  O   UNL     1      27.933  64.975  15.162  1.00  0.00    -0.363 OA
ATOM     19  HO  UNL     1      27.221  65.421  15.606  1.00  0.00     0.213 HD
ENDBRANCH   5  18
BRANCH   3  20
HETATM   20  O   UNL     1      29.708  64.588  12.666  1.00  0.00    -0.390 OA
ATOM     21  HO  UNL     1      30.386  64.847  13.279  1.00  0.00     0.210 HD
ENDBRANCH   3  20
TORSDOF 4
ENDMDL
MODEL 7
REMARK VINA RESULT:      -5.5      3.462      5.489
REMARK  4 active torsions:
REMARK  status: ('A' for Active; 'I' for Inactive)
REMARK    1  A    between atoms: O_2  and  C_16 
REMARK    2  A    between atoms: C_5  and  N_15 
REMARK    3  A    between atoms: C_6  and  O_13 
REMARK    4  A    between atoms: O_8  and  C_16 
ROOT
HETATM    1  C   UNL     1      27.387  66.554  13.075  1.00  0.00     0.075 C 
HETATM    2  C   UNL     1      26.669  66.617  11.739  1.00  0.00     0.096 C 
HETATM    3  C   UNL     1      28.961  67.311  11.470  1.00  0.00     0.182 C 
HETATM    4  N   UNL     1      25.816  65.436  11.719  1.00  0.00    -0.375 N 
HETATM    5  C   UNL     1      28.872  66.434  12.727  1.00  0.00     0.191 C 
HETATM    6  C   UNL     1      27.700  66.965  10.687  1.00  0.00     0.063 C 
HETATM    7  C   UNL     1      26.710  65.477  13.895  1.00  0.00     0.032 C 
HETATM    8  C   UNL     1      25.511  65.017  13.086  1.00  0.00     0.124 C 
ENDROOT
BRANCH   4   9
HETATM    9  C   UNL     1      25.251  64.790  10.638  1.00  0.00     0.030 C 
HETATM   10  C   UNL     1      24.627  65.490   9.613  1.00  0.00     0.029 C 
HETATM   11  C   UNL     1      24.369  65.170   8.310  1.00  0.00     0.002 C 
HETATM   12  C   UNL     1      24.359  63.990   7.605  1.00  0.00     0.000 C 
HETATM   13  C   UNL     1      24.573  62.773   8.228  1.00  0.00     0.000 C 
HETATM   14  C   UNL     1      25.021  62.574   9.513  1.00  0.00     0.002 C 
HETATM   15  C   UNL     1      25.344  63.402  10.540  1.00  0.00     0.029 C 
ENDBRANCH   4   9
BRANCH   5  16
HETATM   16  O   UNL     1      29.285  65.117  12.458  1.00  0.00    -0.363 OA
ATOM     17  HO  UNL     1      29.593  64.649  13.226  1.00  0.00     0.213 HD
ENDBRANCH   5  16
BRANCH   5  18
HETATM   18  O   UNL     1      29.662  66.956  13.767  1.00  0.00    -0.363 OA
ATOM     19  HO  UNL     1      30.480  66.477  13.832  1.00  0.00     0.213 HD
ENDBRANCH   5  18
BRANCH   3  20
HETATM   20  O   UNL     1      30.112  66.944  10.713  1.00  0.00    -0.390 OA
ATOM     21  HO  UNL     1      30.196  67.520   9.962  1.00  0.00     0.210 HD
ENDBRANCH   3  20
TORSDOF 4
ENDMDL
MODEL 8
REMARK VINA RESULT:      -5.5      8.387      9.543
REMARK  4 active torsions:
REMARK  status: ('A' for Active; 'I' for Inactive)
REMARK    1  A    between atoms: O_2  and  C_16 
REMARK    2  A    between atoms: C_5  and  N_15 
REMARK    3  A    between atoms: C_6  and  O_13 
REMARK    4  A    between atoms: O_8  and  C_16 
ROOT
HETATM    1  C   UNL     1      23.662  60.876   6.199  1.00  0.00     0.075 C 
HETATM    2  C   UNL     1      23.039  61.297   4.879  1.00  0.00     0.096 C 
HETATM    3  C   UNL     1      22.971  63.133   6.438  1.00  0.00     0.182 C 
HETATM    4  N   UNL     1      23.882  60.687   3.860  1.00  0.00    -0.375 N 
HETATM    5  C   UNL     1      24.094  62.181   6.871  1.00  0.00     0.191 C 
HETATM    6  C   UNL     1      22.722  62.773   4.979  1.00  0.00     0.063 C 
HETATM    7  C   UNL     1      24.687  59.807   5.887  1.00  0.00     0.032 C 
HETATM    8  C   UNL     1      24.554  59.509   4.406  1.00  0.00     0.124 C 
ENDROOT
BRANCH   4   9
HETATM    9  C   UNL     1      24.024  61.030   2.530  1.00  0.00     0.030 C 
HETATM   10  C   UNL     1      25.251  61.401   1.997  1.00  0.00     0.029 C 
HETATM   11  C   UNL     1      25.738  61.387   0.721  1.00  0.00     0.002 C 
HETATM   12  C   UNL     1      25.154  61.283  -0.519  1.00  0.00     0.000 C 
HETATM   13  C   UNL     1      23.779  61.242  -0.670  1.00  0.00     0.000 C 
HETATM   14  C   UNL     1      22.847  61.082   0.330  1.00  0.00     0.002 C 
HETATM   15  C   UNL     1      22.919  60.959   1.680  1.00  0.00     0.029 C 
ENDBRANCH   4   9
BRANCH   5  16
HETATM   16  O   UNL     1      25.349  62.648   6.444  1.00  0.00    -0.363 OA
ATOM     17  HO  UNL     1      25.451  62.661   5.499  1.00  0.00     0.213 HD
ENDBRANCH   5  16
BRANCH   5  18
HETATM   18  O   UNL     1      24.119  62.026   8.269  1.00  0.00    -0.363 OA
ATOM     19  HO  UNL     1      24.332  62.851   8.689  1.00  0.00     0.213 HD
ENDBRANCH   5  18
BRANCH   3  20
HETATM   20  O   UNL     1      23.426  64.481   6.531  1.00  0.00    -0.390 OA
ATOM     21  HO  UNL     1      23.523  64.722   7.444  1.00  0.00     0.210 HD
ENDBRANCH   3  20
TORSDOF 4
ENDMDL
MODEL 9
REMARK VINA RESULT:      -5.4      3.216      4.819
REMARK  4 active torsions:
REMARK  status: ('A' for Active; 'I' for Inactive)
REMARK    1  A    between atoms: O_2  and  C_16 
REMARK    2  A    between atoms: C_5  and  N_15 
REMARK    3  A    between atoms: C_6  and  O_13 
REMARK    4  A    between atoms: O_8  and  C_16 
ROOT
HETATM    1  C   UNL     1      28.107  65.237  11.678  1.00  0.00     0.075 C 
HETATM    2  C   UNL     1      27.746  66.553  12.345  1.00  0.00     0.096 C 
HETATM    3  C   UNL     1      27.216  64.718  13.815  1.00  0.00     0.182 C 
HETATM    4  N   UNL     1      28.827  67.460  11.985  1.00  0.00    -0.375 N 
HETATM    5  C   UNL     1      28.291  64.243  12.827  1.00  0.00     0.191 C 
HETATM    6  C   UNL     1      27.307  66.238  13.759  1.00  0.00     0.063 C 
HETATM    7  C   UNL     1      29.250  65.518  10.727  1.00  0.00     0.032 C 
HETATM    8  C   UNL     1      29.454  67.022  10.740  1.00  0.00     0.124 C 
ENDROOT
BRANCH   4   9
HETATM    9  C   UNL     1      29.219  68.632  12.601  1.00  0.00     0.030 C 
HETATM   10  C   UNL     1      30.269  68.665  13.509  1.00  0.00     0.029 C 
HETATM   11  C   UNL     1      31.090  69.675  13.925  1.00  0.00     0.002 C 
HETATM   12  C   UNL     1      31.029  71.045  13.840  1.00  0.00     0.000 C 
HETATM   13  C   UNL     1      29.928  71.689  13.303  1.00  0.00     0.000 C 
HETATM   14  C   UNL     1      28.892  71.107  12.611  1.00  0.00     0.002 C 
HETATM   15  C   UNL     1      28.581  69.829  12.273  1.00  0.00     0.029 C 
ENDBRANCH   4   9
BRANCH   5  16
HETATM   16  O   UNL     1      29.570  64.283  13.410  1.00  0.00    -0.363 OA
ATOM     17  HO  UNL     1      29.999  63.436  13.447  1.00  0.00     0.213 HD
ENDBRANCH   5  16
BRANCH   5  18
HETATM   18  O   UNL     1      28.032  62.933  12.386  1.00  0.00    -0.363 OA
ATOM     19  HO  UNL     1      27.785  62.936  11.468  1.00  0.00     0.213 HD
ENDBRANCH   5  18
BRANCH   3  20
HETATM   20  O   UNL     1      27.541  64.265  15.127  1.00  0.00    -0.390 OA
ATOM     21  HO  UNL     1      28.418  64.550  15.355  1.00  0.00     0.210 HD
ENDBRANCH   3  20
TORSDOF 4
ENDMDL
