MODEL 1
REMARK VINA RESULT:      -8.0      0.000      0.000
REMARK  3 active torsions:
REMARK  status: ('A' for Active; 'I' for Inactive)
REMARK    1  A    between atoms: C_1  and  O_16 
REMARK    2  A    between atoms: C_3  and  C_19 
REMARK    3  A    between atoms: O_4  and  C_20 
ROOT
HETATM    1  C   UNL     1      26.757  63.883  11.284  1.00  0.00     0.126 C 
HETATM    2  C   UNL     1      25.318  67.065  11.131  1.00  0.00     0.001 C 
HETATM    3  C   UNL     1      28.683  65.790  10.156  1.00  0.00    -0.047 C 
HETATM    4  C   UNL     1      26.277  64.989  10.385  1.00  0.00     0.023 C 
HETATM    5  C   UNL     1      27.224  66.096   9.931  1.00  0.00     0.025 C 
HETATM    6  C   UNL     1      24.970  65.631  10.812  1.00  0.00     0.008 C 
HETATM    7  C   UNL     1      29.057  64.901  11.107  1.00  0.00    -0.016 C 
HETATM    8  C   UNL     1      28.216  63.868  11.631  1.00  0.00     0.059 C 
HETATM    9  C   UNL     1      26.773  67.298  10.773  1.00  0.00     0.010 C 
ENDROOT
BRANCH   3  10
HETATM   10  C   UNL     1      29.712  66.376   9.274  1.00  0.00    -0.030 C 
HETATM   11  C   UNL     1      29.371  66.901   8.032  1.00  0.00     0.012 C 
HETATM   12  C   UNL     1      30.239  67.306   7.043  1.00  0.00     0.004 C 
HETATM   13  C   UNL     1      31.608  67.266   6.960  1.00  0.00     0.036 C 
HETATM   14  C   UNL     1      32.516  66.786   7.885  1.00  0.00     0.065 C 
HETATM   15  C   UNL     1      32.216  66.740   9.239  1.00  0.00     0.037 C 
HETATM   16  C   UNL     1      30.983  66.541   9.793  1.00  0.00     0.014 C 
BRANCH  14  17
HETATM   17  O   UNL     1      33.779  66.422   7.482  1.00  0.00    -0.361 OA
ATOM     18  HO  UNL     1      34.317  65.874   8.042  1.00  0.00     0.217 HD
ENDBRANCH  14  17
ENDBRANCH   3  10
BRANCH   1  19
HETATM   19  O   UNL     1      26.078  63.869  12.527  1.00  0.00    -0.395 OA
ATOM     20  HO  UNL     1      26.667  63.718  13.257  1.00  0.00     0.210 HD
ENDBRANCH   1  19
TORSDOF 3
ENDMDL
MODEL 2
REMARK VINA RESULT:      -7.9      1.044      2.266
REMARK  3 active torsions:
REMARK  status: ('A' for Active; 'I' for Inactive)
REMARK    1  A    between atoms: C_1  and  O_16 
REMARK    2  A    between atoms: C_3  and  C_19 
REMARK    3  A    between atoms: O_4  and  C_20 
ROOT
HETATM    1  C   UNL     1      26.129  66.530  11.547  1.00  0.00     0.126 C 
HETATM    2  C   UNL     1      27.957  63.686  12.436  1.00  0.00     0.001 C 
HETATM    3  C   UNL     1      28.447  66.245   9.770  1.00  0.00    -0.047 C 
HETATM    4  C   UNL     1      27.430  66.007  12.091  1.00  0.00     0.023 C 
HETATM    5  C   UNL     1      28.594  65.680  11.159  1.00  0.00     0.025 C 
HETATM    6  C   UNL     1      27.291  64.874  13.089  1.00  0.00     0.008 C 
HETATM    7  C   UNL     1      27.220  66.537   9.274  1.00  0.00    -0.016 C 
HETATM    8  C   UNL     1      26.063  66.800  10.074  1.00  0.00     0.059 C 
HETATM    9  C   UNL     1      28.592  64.145  11.138  1.00  0.00     0.010 C 
ENDROOT
BRANCH   3  10
HETATM   10  C   UNL     1      29.644  66.582   8.972  1.00  0.00    -0.030 C 
HETATM   11  C   UNL     1      29.526  66.968   7.642  1.00  0.00     0.012 C 
HETATM   12  C   UNL     1      30.552  67.131   6.737  1.00  0.00     0.004 C 
HETATM   13  C   UNL     1      31.903  66.920   6.846  1.00  0.00     0.036 C 
HETATM   14  C   UNL     1      32.623  66.467   7.936  1.00  0.00     0.065 C 
HETATM   15  C   UNL     1      32.160  66.642   9.232  1.00  0.00     0.037 C 
HETATM   16  C   UNL     1      30.855  66.665   9.634  1.00  0.00     0.014 C 
BRANCH  14  17
HETATM   17  O   UNL     1      33.865  65.907   7.754  1.00  0.00    -0.361 OA
ATOM     18  HO  UNL     1      34.556  66.409   7.337  1.00  0.00     0.217 HD
ENDBRANCH  14  17
ENDBRANCH   3  10
BRANCH   1  19
HETATM   19  O   UNL     1      25.046  65.656  11.815  1.00  0.00    -0.395 OA
ATOM     20  HO  UNL     1      24.821  65.121  11.064  1.00  0.00     0.210 HD
ENDBRANCH   1  19
TORSDOF 3
ENDMDL
MODEL 3
REMARK VINA RESULT:      -7.5      1.438      1.802
REMARK  3 active torsions:
REMARK  status: ('A' for Active; 'I' for Inactive)
REMARK    1  A    between atoms: C_1  and  O_16 
REMARK    2  A    between atoms: C_3  and  C_19 
REMARK    3  A    between atoms: O_4  and  C_20 
ROOT
HETATM    1  C   UNL     1      26.344  66.131  11.675  1.00  0.00     0.126 C 
HETATM    2  C   UNL     1      24.907  65.836   8.502  1.00  0.00     0.001 C 
HETATM    3  C   UNL     1      28.330  66.801   9.620  1.00  0.00    -0.047 C 
HETATM    4  C   UNL     1      26.353  65.383  10.369  1.00  0.00     0.023 C 
HETATM    5  C   UNL     1      27.251  65.828   9.219  1.00  0.00     0.025 C 
HETATM    6  C   UNL     1      24.979  65.077   9.805  1.00  0.00     0.008 C 
HETATM    7  C   UNL     1      28.180  67.574  10.723  1.00  0.00    -0.016 C 
HETATM    8  C   UNL     1      27.317  67.262  11.822  1.00  0.00     0.059 C 
HETATM    9  C   UNL     1      26.259  66.470   8.239  1.00  0.00     0.010 C 
ENDROOT
BRANCH   3  10
HETATM   10  C   UNL     1      29.604  66.852   8.875  1.00  0.00    -0.030 C 
HETATM   11  C   UNL     1      29.618  67.090   7.505  1.00  0.00     0.012 C 
HETATM   12  C   UNL     1      30.701  66.983   6.661  1.00  0.00     0.004 C 
HETATM   13  C   UNL     1      31.993  66.581   6.886  1.00  0.00     0.036 C 
HETATM   14  C   UNL     1      32.574  66.157   8.066  1.00  0.00     0.065 C 
HETATM   15  C   UNL     1      32.080  66.556   9.300  1.00  0.00     0.037 C 
HETATM   16  C   UNL     1      30.777  66.827   9.606  1.00  0.00     0.014 C 
BRANCH  14  17
HETATM   17  O   UNL     1      33.718  65.395   8.034  1.00  0.00    -0.361 OA
ATOM     18  HO  UNL     1      33.660  64.449   8.097  1.00  0.00     0.217 HD
ENDBRANCH  14  17
ENDBRANCH   3  10
BRANCH   1  19
HETATM   19  O   UNL     1      25.075  66.691  11.963  1.00  0.00    -0.395 OA
ATOM     20  HO  UNL     1      24.371  66.242  11.510  1.00  0.00     0.210 HD
ENDBRANCH   1  19
TORSDOF 3
ENDMDL
MODEL 4
REMARK VINA RESULT:      -7.0      1.895      3.010
REMARK  3 active torsions:
REMARK  status: ('A' for Active; 'I' for Inactive)
REMARK    1  A    between atoms: C_1  and  O_16 
REMARK    2  A    between atoms: C_3  and  C_19 
REMARK    3  A    between atoms: O_4  and  C_20 
ROOT
HETATM    1  C   UNL     1      28.512  66.876  13.704  1.00  0.00     0.126 C 
HETATM    2  C   UNL     1      26.990  64.093  12.234  1.00  0.00     0.001 C 
HETATM    3  C   UNL     1      29.450  66.577  10.939  1.00  0.00    -0.047 C 
HETATM    4  C   UNL     1      28.722  65.502  13.129  1.00  0.00     0.023 C 
HETATM    5  C   UNL     1      29.034  65.313  11.648  1.00  0.00     0.025 C 
HETATM    6  C   UNL     1      27.672  64.482  13.525  1.00  0.00     0.008 C 
HETATM    7  C   UNL     1      29.079  67.787  11.423  1.00  0.00    -0.016 C 
HETATM    8  C   UNL     1      28.715  68.042  12.783  1.00  0.00     0.059 C 
HETATM    9  C   UNL     1      27.712  64.771  11.087  1.00  0.00     0.010 C 
ENDROOT
BRANCH   3  10
HETATM   10  C   UNL     1      30.351  66.515   9.771  1.00  0.00    -0.030 C 
HETATM   11  C   UNL     1      31.712  66.283   9.933  1.00  0.00     0.012 C 
HETATM   12  C   UNL     1      32.686  66.381   8.964  1.00  0.00     0.004 C 
HETATM   13  C   UNL     1      32.625  66.767   7.649  1.00  0.00     0.036 C 
HETATM   14  C   UNL     1      31.526  67.179   6.918  1.00  0.00     0.065 C 
HETATM   15  C   UNL     1      30.241  66.781   7.257  1.00  0.00     0.037 C 
HETATM   16  C   UNL     1      29.774  66.523   8.514  1.00  0.00     0.014 C 
BRANCH  14  17
HETATM   17  O   UNL     1      31.701  67.928   5.779  1.00  0.00    -0.361 OA
ATOM     18  HO  UNL     1      32.005  67.513   4.980  1.00  0.00     0.217 HD
ENDBRANCH  14  17
ENDBRANCH   3  10
BRANCH   1  19
HETATM   19  O   UNL     1      27.208  67.042  14.234  1.00  0.00    -0.395 OA
ATOM     20  HO  UNL     1      26.535  66.954  13.569  1.00  0.00     0.210 HD
ENDBRANCH   1  19
TORSDOF 3
ENDMDL
MODEL 5
REMARK VINA RESULT:      -7.0      1.431      2.898
REMARK  3 active torsions:
REMARK  status: ('A' for Active; 'I' for Inactive)
REMARK    1  A    between atoms: C_1  and  O_16 
REMARK    2  A    between atoms: C_3  and  C_19 
REMARK    3  A    between atoms: O_4  and  C_20 
ROOT
HETATM    1  C   UNL     1      26.639  67.041  12.351  1.00  0.00     0.126 C 
HETATM    2  C   UNL     1      27.978  63.901  13.103  1.00  0.00     0.001 C 
HETATM    3  C   UNL     1      28.652  66.313  10.342  1.00  0.00    -0.047 C 
HETATM    4  C   UNL     1      27.868  66.279  12.764  1.00  0.00     0.023 C 
HETATM    5  C   UNL     1      28.839  65.733  11.721  1.00  0.00     0.025 C 
HETATM    6  C   UNL     1      27.625  65.196  13.796  1.00  0.00     0.008 C 
HETATM    7  C   UNL     1      27.456  66.834   9.974  1.00  0.00    -0.016 C 
HETATM    8  C   UNL     1      26.464  67.316  10.886  1.00  0.00     0.059 C 
HETATM    9  C   UNL     1      28.543  64.227  11.735  1.00  0.00     0.010 C 
ENDROOT
BRANCH   3  10
HETATM   10  C   UNL     1      29.796  66.413   9.413  1.00  0.00    -0.030 C 
HETATM   11  C   UNL     1      31.101  66.300   9.878  1.00  0.00     0.012 C 
HETATM   12  C   UNL     1      32.253  66.553   9.167  1.00  0.00     0.004 C 
HETATM   13  C   UNL     1      32.453  67.016   7.891  1.00  0.00     0.036 C 
HETATM   14  C   UNL     1      31.511  67.369   6.943  1.00  0.00     0.065 C 
HETATM   15  C   UNL     1      30.232  66.830   6.956  1.00  0.00     0.037 C 
HETATM   16  C   UNL     1      29.522  66.448   8.058  1.00  0.00     0.014 C 
BRANCH  14  17
HETATM   17  O   UNL     1      31.858  68.204   5.907  1.00  0.00    -0.361 OA
ATOM     18  HO  UNL     1      32.741  68.552   5.854  1.00  0.00     0.217 HD
ENDBRANCH  14  17
ENDBRANCH   3  10
BRANCH   1  19
HETATM   19  O   UNL     1      25.445  66.392  12.753  1.00  0.00    -0.395 OA
ATOM     20  HO  UNL     1      25.590  65.781  13.466  1.00  0.00     0.210 HD
ENDBRANCH   1  19
TORSDOF 3
ENDMDL
MODEL 6
REMARK VINA RESULT:      -6.6      1.938      2.773
REMARK  3 active torsions:
REMARK  status: ('A' for Active; 'I' for Inactive)
REMARK    1  A    between atoms: C_1  and  O_16 
REMARK    2  A    between atoms: C_3  and  C_19 
REMARK    3  A    between atoms: O_4  and  C_20 
ROOT
HETATM    1  C   UNL     1      26.678  66.605  12.425  1.00  0.00     0.126 C 
HETATM    2  C   UNL     1      28.374  69.567  13.177  1.00  0.00     0.001 C 
HETATM    3  C   UNL     1      29.181  66.730  10.897  1.00  0.00    -0.047 C 
HETATM    4  C   UNL     1      27.169  67.925  11.898  1.00  0.00     0.023 C 
HETATM    5  C   UNL     1      28.549  68.049  11.259  1.00  0.00     0.025 C 
HETATM    6  C   UNL     1      26.979  69.095  12.844  1.00  0.00     0.008 C 
HETATM    7  C   UNL     1      28.810  65.594  11.536  1.00  0.00    -0.016 C 
HETATM    8  C   UNL     1      27.561  65.411  12.209  1.00  0.00     0.059 C 
HETATM    9  C   UNL     1      29.361  68.777  12.340  1.00  0.00     0.010 C 
ENDROOT
BRANCH   3  10
HETATM   10  C   UNL     1      30.136  66.644   9.773  1.00  0.00    -0.030 C 
HETATM   11  C   UNL     1      31.487  66.413  10.004  1.00  0.00     0.012 C 
HETATM   12  C   UNL     1      32.506  66.490   9.081  1.00  0.00     0.004 C 
HETATM   13  C   UNL     1      32.509  66.852   7.757  1.00  0.00     0.036 C 
HETATM   14  C   UNL     1      31.447  67.252   6.967  1.00  0.00     0.065 C 
HETATM   15  C   UNL     1      30.146  66.863   7.252  1.00  0.00     0.037 C 
HETATM   16  C   UNL     1      29.619  66.630   8.491  1.00  0.00     0.014 C 
BRANCH  14  17
HETATM   17  O   UNL     1      31.677  67.979   5.824  1.00  0.00    -0.361 OA
ATOM     18  HO  UNL     1      31.582  68.924   5.835  1.00  0.00     0.217 HD
ENDBRANCH  14  17
ENDBRANCH   3  10
BRANCH   1  19
HETATM   19  O   UNL     1      26.434  66.641  13.820  1.00  0.00    -0.395 OA
ATOM     20  HO  UNL     1      25.998  65.856  14.130  1.00  0.00     0.210 HD
ENDBRANCH   1  19
TORSDOF 3
ENDMDL
MODEL 7
REMARK VINA RESULT:      -6.4      1.990      6.184
REMARK  3 active torsions:
REMARK  status: ('A' for Active; 'I' for Inactive)
REMARK    1  A    between atoms: C_1  and  O_16 
REMARK    2  A    between atoms: C_3  and  C_19 
REMARK    3  A    between atoms: O_4  and  C_20 
ROOT
HETATM    1  C   UNL     1      30.367  66.532   6.542  1.00  0.00     0.126 C 
HETATM    2  C   UNL     1      33.246  66.811   8.504  1.00  0.00     0.001 C 
HETATM    3  C   UNL     1      29.666  66.253   9.379  1.00  0.00    -0.047 C 
HETATM    4  C   UNL     1      31.306  65.825   7.480  1.00  0.00     0.023 C 
HETATM    5  C   UNL     1      31.055  65.822   8.985  1.00  0.00     0.025 C 
HETATM    6  C   UNL     1      32.775  66.119   7.247  1.00  0.00     0.008 C 
HETATM    7  C   UNL     1      28.932  67.038   8.553  1.00  0.00    -0.016 C 
HETATM    8  C   UNL     1      29.136  67.145   7.141  1.00  0.00     0.059 C 
HETATM    9  C   UNL     1      32.112  66.805   9.509  1.00  0.00     0.010 C 
ENDROOT
BRANCH   3  10
HETATM   10  C   UNL     1      29.050  65.743  10.620  1.00  0.00    -0.030 C 
HETATM   11  C   UNL     1      28.908  66.563  11.734  1.00  0.00     0.012 C 
HETATM   12  C   UNL     1      28.526  66.176  12.999  1.00  0.00     0.004 C 
HETATM   13  C   UNL     1      28.246  64.941  13.528  1.00  0.00     0.036 C 
HETATM   14  C   UNL     1      28.276  63.707  12.905  1.00  0.00     0.065 C 
HETATM   15  C   UNL     1      28.099  63.583  11.534  1.00  0.00     0.037 C 
HETATM   16  C   UNL     1      28.470  64.488  10.581  1.00  0.00     0.014 C 
BRANCH  14  17
HETATM   17  O   UNL     1      28.397  62.562  13.656  1.00  0.00    -0.361 OA
ATOM     18  HO  UNL     1      29.129  62.461  14.253  1.00  0.00     0.217 HD
ENDBRANCH  14  17
ENDBRANCH   3  10
BRANCH   1  19
HETATM   19  O   UNL     1      31.003  67.584   5.838  1.00  0.00    -0.395 OA
ATOM     20  HO  UNL     1      30.650  68.436   6.067  1.00  0.00     0.210 HD
ENDBRANCH   1  19
TORSDOF 3
ENDMDL
MODEL 8
REMARK VINA RESULT:      -6.3      1.192      6.400
REMARK  3 active torsions:
REMARK  status: ('A' for Active; 'I' for Inactive)
REMARK    1  A    between atoms: C_1  and  O_16 
REMARK    2  A    between atoms: C_3  and  C_19 
REMARK    3  A    between atoms: O_4  and  C_20 
ROOT
HETATM    1  C   UNL     1      30.731  66.621   6.474  1.00  0.00     0.126 C 
HETATM    2  C   UNL     1      32.940  66.665   9.183  1.00  0.00     0.001 C 
HETATM    3  C   UNL     1      29.235  66.307   8.980  1.00  0.00    -0.047 C 
HETATM    4  C   UNL     1      31.326  65.831   7.608  1.00  0.00     0.023 C 
HETATM    5  C   UNL     1      30.655  65.801   8.978  1.00  0.00     0.025 C 
HETATM    6  C   UNL     1      32.813  66.040   7.814  1.00  0.00     0.008 C 
HETATM    7  C   UNL     1      28.810  67.159   8.016  1.00  0.00    -0.016 C 
HETATM    8  C   UNL     1      29.413  67.293   6.726  1.00  0.00     0.059 C 
HETATM    9  C   UNL     1      31.567  66.702   9.824  1.00  0.00     0.010 C 
ENDROOT
BRANCH   3  10
HETATM   10  C   UNL     1      28.265  65.801   9.972  1.00  0.00    -0.030 C 
HETATM   11  C   UNL     1      28.620  64.797  10.867  1.00  0.00     0.012 C 
HETATM   12  C   UNL     1      27.776  64.109  11.711  1.00  0.00     0.004 C 
HETATM   13  C   UNL     1      26.415  64.158  11.875  1.00  0.00     0.036 C 
HETATM   14  C   UNL     1      25.491  64.941  11.208  1.00  0.00     0.065 C 
HETATM   15  C   UNL     1      25.848  66.153  10.634  1.00  0.00     0.037 C 
HETATM   16  C   UNL     1      27.062  66.471  10.094  1.00  0.00     0.014 C 
BRANCH  14  17
HETATM   17  O   UNL     1      24.168  64.567  11.178  1.00  0.00    -0.361 OA
ATOM     18  HO  UNL     1      23.865  63.852  11.725  1.00  0.00     0.217 HD
ENDBRANCH  14  17
ENDBRANCH   3  10
BRANCH   1  19
HETATM   19  O   UNL     1      31.595  67.651   6.027  1.00  0.00    -0.395 OA
ATOM     20  HO  UNL     1      31.898  68.201   6.739  1.00  0.00     0.210 HD
ENDBRANCH   1  19
TORSDOF 3
ENDMDL
MODEL 9
REMARK VINA RESULT:      -6.3      2.242      5.925
REMARK  3 active torsions:
REMARK  status: ('A' for Active; 'I' for Inactive)
REMARK    1  A    between atoms: C_1  and  O_16 
REMARK    2  A    between atoms: C_3  and  C_19 
REMARK    3  A    between atoms: O_4  and  C_20 
ROOT
HETATM    1  C   UNL     1      32.615  66.833   7.719  1.00  0.00     0.126 C 
HETATM    2  C   UNL     1      29.560  66.762   6.022  1.00  0.00     0.001 C 
HETATM    3  C   UNL     1      30.428  66.417   9.631  1.00  0.00    -0.047 C 
HETATM    4  C   UNL     1      31.294  67.520   7.507  1.00  0.00     0.023 C 
HETATM    5  C   UNL     1      30.088  67.184   8.379  1.00  0.00     0.025 C 
HETATM    6  C   UNL     1      30.833  67.574   6.063  1.00  0.00     0.008 C 
HETATM    7  C   UNL     1      31.560  65.675   9.694  1.00  0.00    -0.016 C 
HETATM    8  C   UNL     1      32.715  65.884   8.876  1.00  0.00     0.059 C 
HETATM    9  C   UNL     1      29.208  66.349   7.438  1.00  0.00     0.010 C 
ENDROOT
BRANCH   3  10
HETATM   10  C   UNL     1      29.585  66.547  10.837  1.00  0.00    -0.030 C 
HETATM   11  C   UNL     1      28.951  67.748  11.136  1.00  0.00     0.012 C 
HETATM   12  C   UNL     1      28.294  68.064  12.305  1.00  0.00     0.004 C 
HETATM   13  C   UNL     1      28.126  67.364  13.472  1.00  0.00     0.036 C 
HETATM   14  C   UNL     1      28.591  66.104  13.800  1.00  0.00     0.065 C 
HETATM   15  C   UNL     1      28.863  65.156  12.823  1.00  0.00     0.037 C 
HETATM   16  C   UNL     1      29.311  65.398  11.556  1.00  0.00     0.014 C 
BRANCH  14  17
HETATM   17  O   UNL     1      28.711  65.737  15.119  1.00  0.00    -0.361 OA
ATOM     18  HO  UNL     1      28.025  65.228  15.535  1.00  0.00     0.217 HD
ENDBRANCH  14  17
ENDBRANCH   3  10
BRANCH   1  19
HETATM   19  O   UNL     1      33.019  66.084   6.586  1.00  0.00    -0.395 OA
ATOM     20  HO  UNL     1      32.652  66.425   5.780  1.00  0.00     0.210 HD
ENDBRANCH   1  19
TORSDOF 3
ENDMDL
