MODEL 1
REMARK VINA RESULT:     -10.6      0.000      0.000
REMARK  9 active torsions:
REMARK  status: ('A' for Active; 'I' for Inactive)
REMARK    1  A    between atoms: C_3  and  C_10 
REMARK    2  A    between atoms: O_4  and  C_27 
REMARK    3  A    between atoms: C_12  and  C_37 
REMARK    4  A    between atoms: C_13  and  O_16 
REMARK    5  A    between atoms: C_18  and  N_25 
REMARK    6  A    between atoms: O_20  and  C_35 
REMARK    7  A    between atoms: O_22  and  C_35 
REMARK    8  A    between atoms: N_25  and  C_35 
REMARK    9  A    between atoms: C_34  and  C_35 
ROOT
HETATM    1  C   UNL     1       5.949   9.191  21.387  1.00  0.00     0.275 C 
ENDROOT
BRANCH   1   2
HETATM    2  O   UNL     1       6.541  10.202  20.738  1.00  0.00    -0.345 OA
ATOM      3  HO  UNL     1       6.860  10.780  21.421  1.00  0.00     0.215 HD
ENDBRANCH   1   2
BRANCH   1   4
HETATM    4  O   UNL     1       4.661   9.574  21.529  1.00  0.00    -0.345 OA
ATOM      5  HO  UNL     1       4.575  10.348  20.985  1.00  0.00     0.215 HD
ENDBRANCH   1   4
BRANCH   1   6
HETATM    6  N   UNL     1       6.547   9.175  22.668  1.00  0.00    -0.331 N 
ATOM      7  HN  UNL     1       5.984   9.655  23.370  1.00  0.00     0.165 HD
BRANCH   6   8
HETATM    8  C   UNL     1       7.707   8.662  23.184  1.00  0.00     0.037 C 
HETATM    9  C   UNL     1       8.937   8.960  22.615  1.00  0.00     0.067 C 
HETATM   10  C   UNL     1      10.104   8.609  23.277  1.00  0.00     0.087 C 
HETATM   11  C   UNL     1      10.043   7.962  24.513  1.00  0.00     0.106 C 
HETATM   12  C   UNL     1       8.803   7.599  25.031  1.00  0.00     0.087 C 
HETATM   13  C   UNL     1       7.646   7.892  24.328  1.00  0.00     0.067 C 
BRANCH  10  14
HETATM   14  O   UNL     1      11.310   8.848  22.672  1.00  0.00    -0.359 OA
ATOM     15  HO  UNL     1      12.087   8.413  23.005  1.00  0.00     0.217 HD
ENDBRANCH  10  14
BRANCH  11  16
HETATM   16  C   UNL     1      11.305   7.619  25.265  1.00  0.00     0.215 C 
HETATM   17  O   UNL     1      11.178   7.330  26.490  1.00  0.00    -0.644 OA
HETATM   18  O   UNL     1      12.374   7.464  24.646  1.00  0.00    -0.644 OA
ENDBRANCH  11  16
BRANCH  12  19
HETATM   19  O   UNL     1       8.700   7.045  26.281  1.00  0.00    -0.359 OA
ATOM     20  HO  UNL     1       8.817   7.601  27.042  1.00  0.00     0.217 HD
ENDBRANCH  12  19
ENDBRANCH   6   8
ENDBRANCH   1   6
BRANCH   1  21
HETATM   21  C   UNL     1       6.092   7.862  20.600  1.00  0.00     0.026 C 
HETATM   22  C   UNL     1       5.343   6.730  20.907  1.00  0.00     0.015 C 
HETATM   23  C   UNL     1       5.667   5.499  20.333  1.00  0.00     0.014 C 
HETATM   24  C   UNL     1       6.704   5.405  19.412  1.00  0.00    -0.014 C 
HETATM   25  C   UNL     1       7.365   6.559  19.042  1.00  0.00     0.014 C 
HETATM   26  C   UNL     1       7.016   7.785  19.577  1.00  0.00     0.015 C 
BRANCH  24  27
HETATM   27  C   UNL     1       7.054   4.101  18.746  1.00  0.00     0.016 C 
HETATM   28  C   UNL     1       8.429   3.458  18.727  1.00  0.00     0.077 C 
HETATM   29  C   UNL     1       8.332   2.332  17.688  1.00  0.00     0.016 C 
HETATM   30  C   UNL     1       9.008   2.800  16.447  1.00  0.00    -0.011 C 
HETATM   31  C   UNL     1       6.845   2.180  17.369  1.00  0.00     0.137 C 
HETATM   32  C   UNL     1       8.949   1.094  18.217  1.00  0.00    -0.011 C 
HETATM   33  C   UNL     1       9.825   1.961  15.714  1.00  0.00    -0.003 C 
HETATM   34  C   UNL     1      10.265   0.758  16.239  1.00  0.00    -0.001 C 
HETATM   35  C   UNL     1       9.917   0.399  17.538  1.00  0.00    -0.003 C 
HETATM   36  N   UNL     1       6.184   3.400  17.820  1.00  0.00    -0.391 N 
ATOM     37  HN  UNL     1       5.256   3.710  17.530  1.00  0.00     0.159 HD
ENDBRANCH  24  27
ENDBRANCH   1  21
TORSDOF 9
ENDMDL
MODEL 2
REMARK VINA RESULT:      -9.9      1.399      1.855
REMARK  9 active torsions:
REMARK  status: ('A' for Active; 'I' for Inactive)
REMARK    1  A    between atoms: C_3  and  C_10 
REMARK    2  A    between atoms: O_4  and  C_27 
REMARK    3  A    between atoms: C_12  and  C_37 
REMARK    4  A    between atoms: C_13  and  O_16 
REMARK    5  A    between atoms: C_18  and  N_25 
REMARK    6  A    between atoms: O_20  and  C_35 
REMARK    7  A    between atoms: O_22  and  C_35 
REMARK    8  A    between atoms: N_25  and  C_35 
REMARK    9  A    between atoms: C_34  and  C_35 
ROOT
HETATM    1  C   UNL     1       3.702   8.011  21.740  1.00  0.00     0.275 C 
ENDROOT
BRANCH   1   2
HETATM    2  O   UNL     1       3.464   9.048  20.926  1.00  0.00    -0.345 OA
ATOM      3  HO  UNL     1       2.648   8.834  20.487  1.00  0.00     0.215 HD
ENDBRANCH   1   2
BRANCH   1   4
HETATM    4  O   UNL     1       2.530   7.787  22.373  1.00  0.00    -0.345 OA
ATOM      5  HO  UNL     1       1.960   7.415  21.710  1.00  0.00     0.215 HD
ENDBRANCH   1   4
BRANCH   1   6
HETATM    6  N   UNL     1       4.630   8.494  22.691  1.00  0.00    -0.331 N 
ATOM      7  HN  UNL     1       4.179   8.949  23.484  1.00  0.00     0.165 HD
BRANCH   6   8
HETATM    8  C   UNL     1       5.996   8.492  22.791  1.00  0.00     0.037 C 
HETATM    9  C   UNL     1       6.771   9.367  22.045  1.00  0.00     0.067 C 
HETATM   10  C   UNL     1       8.124   9.494  22.321  1.00  0.00     0.087 C 
HETATM   11  C   UNL     1       8.705   8.748  23.349  1.00  0.00     0.106 C 
HETATM   12  C   UNL     1       7.931   7.816  24.034  1.00  0.00     0.087 C 
HETATM   13  C   UNL     1       6.596   7.647  23.704  1.00  0.00     0.067 C 
BRANCH  10  14
HETATM   14  O   UNL     1       8.891  10.312  21.532  1.00  0.00    -0.359 OA
ATOM     15  HO  UNL     1       8.514  10.671  20.737  1.00  0.00     0.217 HD
ENDBRANCH  10  14
BRANCH  11  16
HETATM   16  C   UNL     1      10.165   8.914  23.690  1.00  0.00     0.215 C 
HETATM   17  O   UNL     1      10.448   9.098  24.909  1.00  0.00    -0.644 OA
HETATM   18  O   UNL     1      11.033   8.700  22.824  1.00  0.00    -0.644 OA
ENDBRANCH  11  16
BRANCH  12  19
HETATM   19  O   UNL     1       8.442   7.133  25.106  1.00  0.00    -0.359 OA
ATOM     20  HO  UNL     1       8.155   7.367  25.981  1.00  0.00     0.217 HD
ENDBRANCH  12  19
ENDBRANCH   6   8
ENDBRANCH   1   6
BRANCH   1  21
HETATM   21  C   UNL     1       4.193   6.775  20.940  1.00  0.00     0.026 C 
HETATM   22  C   UNL     1       4.111   5.481  21.444  1.00  0.00     0.015 C 
HETATM   23  C   UNL     1       4.771   4.435  20.798  1.00  0.00     0.014 C 
HETATM   24  C   UNL     1       5.470   4.667  19.619  1.00  0.00    -0.014 C 
HETATM   25  C   UNL     1       5.450   5.938  19.080  1.00  0.00     0.014 C 
HETATM   26  C   UNL     1       4.760   6.965  19.696  1.00  0.00     0.015 C 
BRANCH  24  27
HETATM   27  C   UNL     1       6.161   3.555  18.877  1.00  0.00     0.016 C 
HETATM   28  C   UNL     1       7.623   3.171  19.016  1.00  0.00     0.077 C 
HETATM   29  C   UNL     1       7.900   2.208  17.854  1.00  0.00     0.016 C 
HETATM   30  C   UNL     1       8.644   2.961  16.807  1.00  0.00    -0.011 C 
HETATM   31  C   UNL     1       6.533   1.846  17.272  1.00  0.00     0.137 C 
HETATM   32  C   UNL     1       8.663   1.033  18.333  1.00  0.00    -0.011 C 
HETATM   33  C   UNL     1       9.706   2.392  16.132  1.00  0.00    -0.003 C 
HETATM   34  C   UNL     1      10.292   1.222  16.582  1.00  0.00    -0.001 C 
HETATM   35  C   UNL     1       9.837   0.623  17.753  1.00  0.00    -0.003 C 
HETATM   36  N   UNL     1       5.589   2.854  17.742  1.00  0.00    -0.391 N 
ATOM     37  HN  UNL     1       4.670   3.037  17.337  1.00  0.00     0.159 HD
ENDBRANCH  24  27
ENDBRANCH   1  21
TORSDOF 9
ENDMDL
MODEL 3
REMARK VINA RESULT:      -9.7      1.712      2.627
REMARK  9 active torsions:
REMARK  status: ('A' for Active; 'I' for Inactive)
REMARK    1  A    between atoms: C_3  and  C_10 
REMARK    2  A    between atoms: O_4  and  C_27 
REMARK    3  A    between atoms: C_12  and  C_37 
REMARK    4  A    between atoms: C_13  and  O_16 
REMARK    5  A    between atoms: C_18  and  N_25 
REMARK    6  A    between atoms: O_20  and  C_35 
REMARK    7  A    between atoms: O_22  and  C_35 
REMARK    8  A    between atoms: N_25  and  C_35 
REMARK    9  A    between atoms: C_34  and  C_35 
ROOT
HETATM    1  C   UNL     1       7.620  10.587  18.979  1.00  0.00     0.275 C 
ENDROOT
BRANCH   1   2
HETATM    2  O   UNL     1       8.808  11.197  18.875  1.00  0.00    -0.345 OA
ATOM      3  HO  UNL     1       9.061  11.395  19.769  1.00  0.00     0.215 HD
ENDBRANCH   1   2
BRANCH   1   4
HETATM    4  O   UNL     1       6.776  11.340  18.239  1.00  0.00    -0.345 OA
ATOM      5  HO  UNL     1       6.105  11.627  18.848  1.00  0.00     0.215 HD
ENDBRANCH   1   4
BRANCH   1   6
HETATM    6  N   UNL     1       7.253  10.723  20.337  1.00  0.00    -0.331 N 
ATOM      7  HN  UNL     1       6.559  11.455  20.486  1.00  0.00     0.165 HD
BRANCH   6   8
HETATM    8  C   UNL     1       7.616  10.097  21.500  1.00  0.00     0.037 C 
HETATM    9  C   UNL     1       6.816   9.117  22.067  1.00  0.00     0.067 C 
HETATM   10  C   UNL     1       7.303   8.353  23.117  1.00  0.00     0.087 C 
HETATM   11  C   UNL     1       8.595   8.564  23.600  1.00  0.00     0.106 C 
HETATM   12  C   UNL     1       9.356   9.605  23.074  1.00  0.00     0.087 C 
HETATM   13  C   UNL     1       8.834  10.408  22.073  1.00  0.00     0.067 C 
BRANCH  10  14
HETATM   14  O   UNL     1       6.477   7.434  23.711  1.00  0.00    -0.359 OA
ATOM     15  HO  UNL     1       5.747   7.742  24.235  1.00  0.00     0.217 HD
ENDBRANCH  10  14
BRANCH  11  16
HETATM   16  C   UNL     1       9.154   7.707  24.708  1.00  0.00     0.215 C 
HETATM   17  O   UNL     1      10.353   7.324  24.584  1.00  0.00    -0.644 OA
HETATM   18  O   UNL     1       8.504   7.550  25.758  1.00  0.00    -0.644 OA
ENDBRANCH  11  16
BRANCH  12  19
HETATM   19  O   UNL     1      10.659   9.785  23.459  1.00  0.00    -0.359 OA
ATOM     20  HO  UNL     1      10.915  10.616  23.842  1.00  0.00     0.217 HD
ENDBRANCH  12  19
ENDBRANCH   6   8
ENDBRANCH   1   6
BRANCH   1  21
HETATM   21  C   UNL     1       7.700   9.119  18.483  1.00  0.00     0.026 C 
HETATM   22  C   UNL     1       6.741   8.564  17.641  1.00  0.00     0.015 C 
HETATM   23  C   UNL     1       6.725   7.187  17.411  1.00  0.00     0.014 C 
HETATM   24  C   UNL     1       7.697   6.369  17.976  1.00  0.00    -0.014 C 
HETATM   25  C   UNL     1       8.700   6.954  18.721  1.00  0.00     0.014 C 
HETATM   26  C   UNL     1       8.742   8.323  18.914  1.00  0.00     0.015 C 
BRANCH  24  27
HETATM   27  C   UNL     1       7.731   4.887  17.717  1.00  0.00     0.016 C 
HETATM   28  C   UNL     1       8.916   3.972  17.965  1.00  0.00     0.077 C 
HETATM   29  C   UNL     1       8.558   2.651  17.270  1.00  0.00     0.016 C 
HETATM   30  C   UNL     1       9.324   2.586  15.995  1.00  0.00    -0.011 C 
HETATM   31  C   UNL     1       7.076   2.754  16.907  1.00  0.00     0.137 C 
HETATM   32  C   UNL     1       8.866   1.505  18.156  1.00  0.00    -0.011 C 
HETATM   33  C   UNL     1       9.921   1.413  15.575  1.00  0.00    -0.003 C 
HETATM   34  C   UNL     1      10.066   0.339  16.437  1.00  0.00    -0.001 C 
HETATM   35  C   UNL     1       9.644   0.448  17.759  1.00  0.00    -0.003 C 
HETATM   36  N   UNL     1       6.720   4.168  16.963  1.00  0.00    -0.391 N 
ATOM     37  HN  UNL     1       5.891   4.586  16.539  1.00  0.00     0.159 HD
ENDBRANCH  24  27
ENDBRANCH   1  21
TORSDOF 9
ENDMDL
MODEL 4
REMARK VINA RESULT:      -9.6      1.407      1.797
REMARK  9 active torsions:
REMARK  status: ('A' for Active; 'I' for Inactive)
REMARK    1  A    between atoms: C_3  and  C_10 
REMARK    2  A    between atoms: O_4  and  C_27 
REMARK    3  A    between atoms: C_12  and  C_37 
REMARK    4  A    between atoms: C_13  and  O_16 
REMARK    5  A    between atoms: C_18  and  N_25 
REMARK    6  A    between atoms: O_20  and  C_35 
REMARK    7  A    between atoms: O_22  and  C_35 
REMARK    8  A    between atoms: N_25  and  C_35 
REMARK    9  A    between atoms: C_34  and  C_35 
ROOT
HETATM    1  C   UNL     1       6.252  10.048  19.271  1.00  0.00     0.275 C 
ENDROOT
BRANCH   1   2
HETATM    2  O   UNL     1       7.056  10.912  18.636  1.00  0.00    -0.345 OA
ATOM      3  HO  UNL     1       7.062  11.689  19.183  1.00  0.00     0.215 HD
ENDBRANCH   1   2
BRANCH   1   4
HETATM    4  O   UNL     1       5.002  10.518  19.064  1.00  0.00    -0.345 OA
ATOM      5  HO  UNL     1       4.860  10.433  18.128  1.00  0.00     0.215 HD
ENDBRANCH   1   4
BRANCH   1   6
HETATM    6  N   UNL     1       6.557  10.200  20.643  1.00  0.00    -0.331 N 
ATOM      7  HN  UNL     1       6.072  10.990  21.068  1.00  0.00     0.165 HD
BRANCH   6   8
HETATM    8  C   UNL     1       7.355   9.532  21.532  1.00  0.00     0.037 C 
HETATM    9  C   UNL     1       8.570  10.059  21.943  1.00  0.00     0.067 C 
HETATM   10  C   UNL     1       9.253   9.473  22.998  1.00  0.00     0.087 C 
HETATM   11  C   UNL     1       8.719   8.359  23.649  1.00  0.00     0.106 C 
HETATM   12  C   UNL     1       7.539   7.794  23.173  1.00  0.00     0.087 C 
HETATM   13  C   UNL     1       6.901   8.345  22.074  1.00  0.00     0.067 C 
BRANCH  10  14
HETATM   14  O   UNL     1      10.484   9.963  23.349  1.00  0.00    -0.359 OA
ATOM     15  HO  UNL     1      11.184   9.352  23.549  1.00  0.00     0.217 HD
ENDBRANCH  10  14
BRANCH  11  16
HETATM   16  C   UNL     1       9.429   7.743  24.829  1.00  0.00     0.215 C 
HETATM   17  O   UNL     1      10.687   7.644  24.751  1.00  0.00    -0.644 OA
HETATM   18  O   UNL     1       8.802   7.516  25.881  1.00  0.00    -0.644 OA
ENDBRANCH  11  16
BRANCH  12  19
HETATM   19  O   UNL     1       6.939   6.758  23.840  1.00  0.00    -0.359 OA
ATOM     20  HO  UNL     1       6.589   6.030  23.341  1.00  0.00     0.217 HD
ENDBRANCH  12  19
ENDBRANCH   6   8
ENDBRANCH   1   6
BRANCH   1  21
HETATM   21  C   UNL     1       6.444   8.607  18.731  1.00  0.00     0.026 C 
HETATM   22  C   UNL     1       5.378   7.732  18.548  1.00  0.00     0.015 C 
HETATM   23  C   UNL     1       5.617   6.382  18.286  1.00  0.00     0.014 C 
HETATM   24  C   UNL     1       6.919   5.912  18.153  1.00  0.00    -0.014 C 
HETATM   25  C   UNL     1       7.958   6.817  18.233  1.00  0.00     0.014 C 
HETATM   26  C   UNL     1       7.720   8.161  18.449  1.00  0.00     0.015 C 
BRANCH  24  27
HETATM   27  C   UNL     1       7.211   4.471  17.833  1.00  0.00     0.016 C 
HETATM   28  C   UNL     1       8.523   3.754  18.094  1.00  0.00     0.077 C 
HETATM   29  C   UNL     1       8.417   2.427  17.328  1.00  0.00     0.016 C 
HETATM   30  C   UNL     1       9.230   2.554  16.087  1.00  0.00    -0.011 C 
HETATM   31  C   UNL     1       6.954   2.302  16.904  1.00  0.00     0.137 C 
HETATM   32  C   UNL     1       8.880   1.307  18.178  1.00  0.00    -0.011 C 
HETATM   33  C   UNL     1      10.030   1.518  15.645  1.00  0.00    -0.003 C 
HETATM   34  C   UNL     1      10.322   0.442  16.465  1.00  0.00    -0.001 C 
HETATM   35  C   UNL     1       9.839   0.414  17.771  1.00  0.00    -0.003 C 
HETATM   36  N   UNL     1       6.364   3.632  17.005  1.00  0.00    -0.391 N 
ATOM     37  HN  UNL     1       5.493   3.927  16.562  1.00  0.00     0.159 HD
ENDBRANCH  24  27
ENDBRANCH   1  21
TORSDOF 9
ENDMDL
MODEL 5
REMARK VINA RESULT:      -9.3      1.980      3.181
REMARK  9 active torsions:
REMARK  status: ('A' for Active; 'I' for Inactive)
REMARK    1  A    between atoms: C_3  and  C_10 
REMARK    2  A    between atoms: O_4  and  C_27 
REMARK    3  A    between atoms: C_12  and  C_37 
REMARK    4  A    between atoms: C_13  and  O_16 
REMARK    5  A    between atoms: C_18  and  N_25 
REMARK    6  A    between atoms: O_20  and  C_35 
REMARK    7  A    between atoms: O_22  and  C_35 
REMARK    8  A    between atoms: N_25  and  C_35 
REMARK    9  A    between atoms: C_34  and  C_35 
ROOT
HETATM    1  C   UNL     1       2.721   7.225  22.323  1.00  0.00     0.275 C 
ENDROOT
BRANCH   1   2
HETATM    2  O   UNL     1       1.925   8.026  21.602  1.00  0.00    -0.345 OA
ATOM      3  HO  UNL     1       2.238   8.906  21.777  1.00  0.00     0.215 HD
ENDBRANCH   1   2
BRANCH   1   4
HETATM    4  O   UNL     1       1.916   6.694  23.270  1.00  0.00    -0.345 OA
ATOM      5  HO  UNL     1       1.213   7.324  23.375  1.00  0.00     0.215 HD
ENDBRANCH   1   4
BRANCH   1   6
HETATM    6  N   UNL     1       3.637   8.093  22.961  1.00  0.00    -0.331 N 
ATOM      7  HN  UNL     1       3.187   8.710  23.638  1.00  0.00     0.165 HD
BRANCH   6   8
HETATM    8  C   UNL     1       4.988   8.297  22.879  1.00  0.00     0.037 C 
HETATM    9  C   UNL     1       5.876   7.516  23.605  1.00  0.00     0.067 C 
HETATM   10  C   UNL     1       7.235   7.597  23.344  1.00  0.00     0.087 C 
HETATM   11  C   UNL     1       7.711   8.456  22.352  1.00  0.00     0.106 C 
HETATM   12  C   UNL     1       6.815   9.291  21.688  1.00  0.00     0.087 C 
HETATM   13  C   UNL     1       5.468   9.253  22.006  1.00  0.00     0.067 C 
BRANCH  10  14
HETATM   14  O   UNL     1       8.106   6.870  24.114  1.00  0.00    -0.359 OA
ATOM     15  HO  UNL     1       7.861   6.654  25.006  1.00  0.00     0.217 HD
ENDBRANCH  10  14
BRANCH  11  16
HETATM   16  C   UNL     1       9.182   8.516  22.025  1.00  0.00     0.215 C 
HETATM   17  O   UNL     1       9.983   8.541  23.003  1.00  0.00    -0.644 OA
HETATM   18  O   UNL     1       9.563   8.370  20.848  1.00  0.00    -0.644 OA
ENDBRANCH  11  16
BRANCH  12  19
HETATM   19  O   UNL     1       7.231  10.081  20.649  1.00  0.00    -0.359 OA
ATOM     20  HO  UNL     1       7.651   9.673  19.900  1.00  0.00     0.217 HD
ENDBRANCH  12  19
ENDBRANCH   6   8
ENDBRANCH   1   6
BRANCH   1  21
HETATM   21  C   UNL     1       3.383   6.145  21.429  1.00  0.00     0.026 C 
HETATM   22  C   UNL     1       3.560   4.832  21.854  1.00  0.00     0.015 C 
HETATM   23  C   UNL     1       4.362   3.959  21.118  1.00  0.00     0.014 C 
HETATM   24  C   UNL     1       4.947   4.378  19.928  1.00  0.00    -0.014 C 
HETATM   25  C   UNL     1       4.674   5.651  19.470  1.00  0.00     0.014 C 
HETATM   26  C   UNL     1       3.843   6.501  20.177  1.00  0.00     0.015 C 
BRANCH  24  27
HETATM   27  C   UNL     1       5.787   3.452  19.090  1.00  0.00     0.016 C 
HETATM   28  C   UNL     1       7.177   2.954  19.443  1.00  0.00     0.077 C 
HETATM   29  C   UNL     1       7.711   2.304  18.159  1.00  0.00     0.016 C 
HETATM   30  C   UNL     1       8.677   3.252  17.539  1.00  0.00    -0.011 C 
HETATM   31  C   UNL     1       6.513   2.190  17.216  1.00  0.00     0.137 C 
HETATM   32  C   UNL     1       8.340   1.000  18.468  1.00  0.00    -0.011 C 
HETATM   33  C   UNL     1       9.864   2.809  16.989  1.00  0.00    -0.003 C 
HETATM   34  C   UNL     1      10.329   1.528  17.232  1.00  0.00    -0.001 C 
HETATM   35  C   UNL     1       9.615   0.679  18.074  1.00  0.00    -0.003 C 
HETATM   36  N   UNL     1       5.488   3.101  17.714  1.00  0.00    -0.391 N 
ATOM     37  HN  UNL     1       4.688   3.439  17.179  1.00  0.00     0.159 HD
ENDBRANCH  24  27
ENDBRANCH   1  21
TORSDOF 9
ENDMDL
MODEL 6
REMARK VINA RESULT:      -8.9      2.296      3.399
REMARK  9 active torsions:
REMARK  status: ('A' for Active; 'I' for Inactive)
REMARK    1  A    between atoms: C_3  and  C_10 
REMARK    2  A    between atoms: O_4  and  C_27 
REMARK    3  A    between atoms: C_12  and  C_37 
REMARK    4  A    between atoms: C_13  and  O_16 
REMARK    5  A    between atoms: C_18  and  N_25 
REMARK    6  A    between atoms: O_20  and  C_35 
REMARK    7  A    between atoms: O_22  and  C_35 
REMARK    8  A    between atoms: N_25  and  C_35 
REMARK    9  A    between atoms: C_34  and  C_35 
ROOT
HETATM    1  C   UNL     1       8.142   9.835  20.566  1.00  0.00     0.275 C 
ENDROOT
BRANCH   1   2
HETATM    2  O   UNL     1       9.199  10.117  19.793  1.00  0.00    -0.345 OA
ATOM      3  HO  UNL     1       9.899  10.326  20.401  1.00  0.00     0.215 HD
ENDBRANCH   1   2
BRANCH   1   4
HETATM    4  O   UNL     1       7.265  10.837  20.339  1.00  0.00    -0.345 OA
ATOM      5  HO  UNL     1       6.864  11.007  21.183  1.00  0.00     0.215 HD
ENDBRANCH   1   4
BRANCH   1   6
HETATM    6  N   UNL     1       8.613   9.956  21.894  1.00  0.00    -0.331 N 
ATOM      7  HN  UNL     1       8.533  10.907  22.254  1.00  0.00     0.165 HD
BRANCH   6   8
HETATM    8  C   UNL     1       9.153   9.090  22.808  1.00  0.00     0.037 C 
HETATM    9  C   UNL     1      10.507   8.793  22.801  1.00  0.00     0.067 C 
HETATM   10  C   UNL     1      11.063   8.089  23.859  1.00  0.00     0.087 C 
HETATM   11  C   UNL     1      10.264   7.685  24.930  1.00  0.00     0.106 C 
HETATM   12  C   UNL     1       8.893   7.921  24.884  1.00  0.00     0.087 C 
HETATM   13  C   UNL     1       8.337   8.563  23.790  1.00  0.00     0.067 C 
BRANCH  10  14
HETATM   14  O   UNL     1      12.388   7.744  23.806  1.00  0.00    -0.359 OA
ATOM     15  HO  UNL     1      12.622   6.840  23.630  1.00  0.00     0.217 HD
ENDBRANCH  10  14
BRANCH  11  16
HETATM   16  C   UNL     1      10.866   6.963  26.110  1.00  0.00     0.215 C 
HETATM   17  O   UNL     1      10.355   5.848  26.418  1.00  0.00    -0.644 OA
HETATM   18  O   UNL     1      11.921   7.382  26.623  1.00  0.00    -0.644 OA
ENDBRANCH  11  16
BRANCH  12  19
HETATM   19  O   UNL     1       8.093   7.621  25.955  1.00  0.00    -0.359 OA
ATOM     20  HO  UNL     1       8.168   8.141  26.747  1.00  0.00     0.217 HD
ENDBRANCH  12  19
ENDBRANCH   6   8
ENDBRANCH   1   6
BRANCH   1  21
HETATM   21  C   UNL     1       7.556   8.440  20.222  1.00  0.00     0.026 C 
HETATM   22  C   UNL     1       6.250   8.082  20.541  1.00  0.00     0.015 C 
HETATM   23  C   UNL     1       5.841   6.752  20.426  1.00  0.00     0.014 C 
HETATM   24  C   UNL     1       6.717   5.787  19.943  1.00  0.00    -0.014 C 
HETATM   25  C   UNL     1       7.975   6.183  19.533  1.00  0.00     0.014 C 
HETATM   26  C   UNL     1       8.365   7.507  19.606  1.00  0.00     0.015 C 
BRANCH  24  27
HETATM   27  C   UNL     1       6.297   4.352  19.770  1.00  0.00     0.016 C 
HETATM   28  C   UNL     1       4.870   3.862  19.599  1.00  0.00     0.077 C 
HETATM   29  C   UNL     1       4.944   2.338  19.769  1.00  0.00     0.016 C 
HETATM   30  C   UNL     1       4.437   2.008  21.129  1.00  0.00    -0.011 C 
HETATM   31  C   UNL     1       6.430   1.983  19.737  1.00  0.00     0.137 C 
HETATM   32  C   UNL     1       4.157   1.666  18.710  1.00  0.00    -0.011 C 
HETATM   33  C   UNL     1       3.608   0.924  21.343  1.00  0.00    -0.003 C 
HETATM   34  C   UNL     1       2.999   0.272  20.284  1.00  0.00    -0.001 C 
HETATM   35  C   UNL     1       3.188   0.734  18.984  1.00  0.00    -0.003 C 
HETATM   36  N   UNL     1       7.170   3.215  19.991  1.00  0.00    -0.391 N 
ATOM     37  HN  UNL     1       8.148   3.268  20.279  1.00  0.00     0.159 HD
ENDBRANCH  24  27
ENDBRANCH   1  21
TORSDOF 9
ENDMDL
MODEL 7
REMARK VINA RESULT:      -8.9      2.930      4.251
REMARK  9 active torsions:
REMARK  status: ('A' for Active; 'I' for Inactive)
REMARK    1  A    between atoms: C_3  and  C_10 
REMARK    2  A    between atoms: O_4  and  C_27 
REMARK    3  A    between atoms: C_12  and  C_37 
REMARK    4  A    between atoms: C_13  and  O_16 
REMARK    5  A    between atoms: C_18  and  N_25 
REMARK    6  A    between atoms: O_20  and  C_35 
REMARK    7  A    between atoms: O_22  and  C_35 
REMARK    8  A    between atoms: N_25  and  C_35 
REMARK    9  A    between atoms: C_34  and  C_35 
ROOT
HETATM    1  C   UNL     1       7.639  10.440  18.967  1.00  0.00     0.275 C 
ENDROOT
BRANCH   1   2
HETATM    2  O   UNL     1       8.836  10.921  19.327  1.00  0.00    -0.345 OA
ATOM      3  HO  UNL     1       9.375  10.153  19.477  1.00  0.00     0.215 HD
ENDBRANCH   1   2
BRANCH   1   4
HETATM    4  O   UNL     1       7.200  11.280  18.005  1.00  0.00    -0.345 OA
ATOM      5  HO  UNL     1       7.680  12.087  18.147  1.00  0.00     0.215 HD
ENDBRANCH   1   4
BRANCH   1   6
HETATM    6  N   UNL     1       6.817  10.607  20.106  1.00  0.00    -0.331 N 
ATOM      7  HN  UNL     1       6.856  11.554  20.482  1.00  0.00     0.165 HD
BRANCH   6   8
HETATM    8  C   UNL     1       5.980   9.791  20.818  1.00  0.00     0.037 C 
HETATM    9  C   UNL     1       4.696   9.514  20.372  1.00  0.00     0.067 C 
HETATM   10  C   UNL     1       3.951   8.523  20.993  1.00  0.00     0.087 C 
HETATM   11  C   UNL     1       4.490   7.802  22.060  1.00  0.00     0.106 C 
HETATM   12  C   UNL     1       5.748   8.146  22.547  1.00  0.00     0.087 C 
HETATM   13  C   UNL     1       6.456   9.185  21.965  1.00  0.00     0.067 C 
BRANCH  10  14
HETATM   14  O   UNL     1       2.660   8.307  20.585  1.00  0.00    -0.359 OA
ATOM     15  HO  UNL     1       2.082   9.053  20.470  1.00  0.00     0.217 HD
ENDBRANCH  10  14
BRANCH  11  16
HETATM   16  C   UNL     1       3.708   6.689  22.711  1.00  0.00     0.215 C 
HETATM   17  O   UNL     1       2.625   7.009  23.280  1.00  0.00    -0.644 OA
HETATM   18  O   UNL     1       4.045   5.504  22.528  1.00  0.00    -0.644 OA
ENDBRANCH  11  16
BRANCH  12  19
HETATM   19  O   UNL     1       6.346   7.404  23.531  1.00  0.00    -0.359 OA
ATOM     20  HO  UNL     1       6.269   6.457  23.505  1.00  0.00     0.217 HD
ENDBRANCH  12  19
ENDBRANCH   6   8
ENDBRANCH   1   6
BRANCH   1  21
HETATM   21  C   UNL     1       7.752   8.974  18.473  1.00  0.00     0.026 C 
HETATM   22  C   UNL     1       6.899   8.444  17.511  1.00  0.00     0.015 C 
HETATM   23  C   UNL     1       6.884   7.070  17.267  1.00  0.00     0.014 C 
HETATM   24  C   UNL     1       7.759   6.227  17.945  1.00  0.00    -0.014 C 
HETATM   25  C   UNL     1       8.670   6.787  18.819  1.00  0.00     0.014 C 
HETATM   26  C   UNL     1       8.714   8.152  19.027  1.00  0.00     0.015 C 
BRANCH  24  27
HETATM   27  C   UNL     1       7.796   4.746  17.680  1.00  0.00     0.016 C 
HETATM   28  C   UNL     1       8.969   3.826  17.959  1.00  0.00     0.077 C 
HETATM   29  C   UNL     1       8.629   2.509  17.247  1.00  0.00     0.016 C 
HETATM   30  C   UNL     1       9.434   2.449  15.996  1.00  0.00    -0.011 C 
HETATM   31  C   UNL     1       7.160   2.620  16.838  1.00  0.00     0.137 C 
HETATM   32  C   UNL     1       8.905   1.359  18.136  1.00  0.00    -0.011 C 
HETATM   33  C   UNL     1      10.040   1.276  15.589  1.00  0.00    -0.003 C 
HETATM   34  C   UNL     1      10.155   0.197  16.449  1.00  0.00    -0.001 C 
HETATM   35  C   UNL     1       9.692   0.300  17.758  1.00  0.00    -0.003 C 
HETATM   36  N   UNL     1       6.807   4.035  16.891  1.00  0.00    -0.391 N 
ATOM     37  HN  UNL     1       5.993   4.458  16.443  1.00  0.00     0.159 HD
ENDBRANCH  24  27
ENDBRANCH   1  21
TORSDOF 9
ENDMDL
MODEL 8
REMARK VINA RESULT:      -8.8      1.513      2.688
REMARK  9 active torsions:
REMARK  status: ('A' for Active; 'I' for Inactive)
REMARK    1  A    between atoms: C_3  and  C_10 
REMARK    2  A    between atoms: O_4  and  C_27 
REMARK    3  A    between atoms: C_12  and  C_37 
REMARK    4  A    between atoms: C_13  and  O_16 
REMARK    5  A    between atoms: C_18  and  N_25 
REMARK    6  A    between atoms: O_20  and  C_35 
REMARK    7  A    between atoms: O_22  and  C_35 
REMARK    8  A    between atoms: N_25  and  C_35 
REMARK    9  A    between atoms: C_34  and  C_35 
ROOT
HETATM    1  C   UNL     1       3.901   7.475  21.446  1.00  0.00     0.275 C 
ENDROOT
BRANCH   1   2
HETATM    2  O   UNL     1       2.979   8.147  20.743  1.00  0.00    -0.345 OA
ATOM      3  HO  UNL     1       3.238   9.059  20.806  1.00  0.00     0.215 HD
ENDBRANCH   1   2
BRANCH   1   4
HETATM    4  O   UNL     1       3.194   6.659  22.258  1.00  0.00    -0.345 OA
ATOM      5  HO  UNL     1       2.353   7.087  22.363  1.00  0.00     0.215 HD
ENDBRANCH   1   4
BRANCH   1   6
HETATM    6  N   UNL     1       4.536   8.451  22.248  1.00  0.00    -0.331 N 
ATOM      7  HN  UNL     1       3.895   9.181  22.559  1.00  0.00     0.165 HD
BRANCH   6   8
HETATM    8  C   UNL     1       5.813   8.642  22.703  1.00  0.00     0.037 C 
HETATM    9  C   UNL     1       6.300   7.933  23.791  1.00  0.00     0.067 C 
HETATM   10  C   UNL     1       7.651   7.984  24.097  1.00  0.00     0.087 C 
HETATM   11  C   UNL     1       8.522   8.742  23.311  1.00  0.00     0.106 C 
HETATM   12  C   UNL     1       8.005   9.511  22.272  1.00  0.00     0.087 C 
HETATM   13  C   UNL     1       6.643   9.508  22.019  1.00  0.00     0.067 C 
BRANCH  10  14
HETATM   14  O   UNL     1       8.107   7.333  25.214  1.00  0.00    -0.359 OA
ATOM     15  HO  UNL     1       7.524   7.230  25.958  1.00  0.00     0.217 HD
ENDBRANCH  10  14
BRANCH  11  16
HETATM   16  C   UNL     1      10.001   8.767  23.604  1.00  0.00     0.215 C 
HETATM   17  O   UNL     1      10.781   8.667  22.614  1.00  0.00    -0.644 OA
HETATM   18  O   UNL     1      10.402   9.049  24.749  1.00  0.00    -0.644 OA
ENDBRANCH  11  16
BRANCH  12  19
HETATM   19  O   UNL     1       8.837  10.195  21.425  1.00  0.00    -0.359 OA
ATOM     20  HO  UNL     1       8.463  10.653  20.682  1.00  0.00     0.217 HD
ENDBRANCH  12  19
ENDBRANCH   6   8
ENDBRANCH   1   6
BRANCH   1  21
HETATM   21  C   UNL     1       4.861   6.697  20.508  1.00  0.00     0.026 C 
HETATM   22  C   UNL     1       5.416   7.272  19.368  1.00  0.00     0.015 C 
HETATM   23  C   UNL     1       6.080   6.474  18.435  1.00  0.00     0.014 C 
HETATM   24  C   UNL     1       6.239   5.112  18.662  1.00  0.00    -0.014 C 
HETATM   25  C   UNL     1       5.774   4.582  19.849  1.00  0.00     0.014 C 
HETATM   26  C   UNL     1       5.155   5.379  20.793  1.00  0.00     0.015 C 
BRANCH  24  27
HETATM   27  C   UNL     1       6.983   4.230  17.695  1.00  0.00     0.016 C 
HETATM   28  C   UNL     1       7.412   2.797  17.953  1.00  0.00     0.077 C 
HETATM   29  C   UNL     1       8.379   2.454  16.811  1.00  0.00     0.016 C 
HETATM   30  C   UNL     1       9.763   2.511  17.356  1.00  0.00    -0.011 C 
HETATM   31  C   UNL     1       8.244   3.584  15.791  1.00  0.00     0.137 C 
HETATM   32  C   UNL     1       8.062   1.119  16.254  1.00  0.00    -0.011 C 
HETATM   33  C   UNL     1      10.708   1.563  17.016  1.00  0.00    -0.003 C 
HETATM   34  C   UNL     1      10.342   0.385  16.388  1.00  0.00    -0.001 C 
HETATM   35  C   UNL     1       9.000   0.126  16.126  1.00  0.00    -0.003 C 
HETATM   36  N   UNL     1       7.612   4.706  16.477  1.00  0.00    -0.391 N 
ATOM     37  HN  UNL     1       7.612   5.673  16.151  1.00  0.00     0.159 HD
ENDBRANCH  24  27
ENDBRANCH   1  21
TORSDOF 9
ENDMDL
MODEL 9
REMARK VINA RESULT:      -8.2      2.831      5.035
REMARK  9 active torsions:
REMARK  status: ('A' for Active; 'I' for Inactive)
REMARK    1  A    between atoms: C_3  and  C_10 
REMARK    2  A    between atoms: O_4  and  C_27 
REMARK    3  A    between atoms: C_12  and  C_37 
REMARK    4  A    between atoms: C_13  and  O_16 
REMARK    5  A    between atoms: C_18  and  N_25 
REMARK    6  A    between atoms: O_20  and  C_35 
REMARK    7  A    between atoms: O_22  and  C_35 
REMARK    8  A    between atoms: N_25  and  C_35 
REMARK    9  A    between atoms: C_34  and  C_35 
ROOT
HETATM    1  C   UNL     1       5.762   8.151  22.406  1.00  0.00     0.275 C 
ENDROOT
BRANCH   1   2
HETATM    2  O   UNL     1       4.503   7.887  22.777  1.00  0.00    -0.345 OA
ATOM      3  HO  UNL     1       4.458   8.140  23.692  1.00  0.00     0.215 HD
ENDBRANCH   1   2
BRANCH   1   4
HETATM    4  O   UNL     1       6.458   8.226  23.561  1.00  0.00    -0.345 OA
ATOM      5  HO  UNL     1       7.212   7.663  23.431  1.00  0.00     0.215 HD
ENDBRANCH   1   4
BRANCH   1   6
HETATM    6  N   UNL     1       5.715   9.444  21.836  1.00  0.00    -0.331 N 
ATOM      7  HN  UNL     1       5.403  10.154  22.498  1.00  0.00     0.165 HD
BRANCH   6   8
HETATM    8  C   UNL     1       5.992   9.963  20.600  1.00  0.00     0.037 C 
HETATM    9  C   UNL     1       7.254  10.450  20.293  1.00  0.00     0.067 C 
HETATM   10  C   UNL     1       7.569  10.768  18.980  1.00  0.00     0.087 C 
HETATM   11  C   UNL     1       6.622  10.595  17.969  1.00  0.00     0.106 C 
HETATM   12  C   UNL     1       5.335  10.182  18.305  1.00  0.00     0.087 C 
HETATM   13  C   UNL     1       5.011   9.934  19.628  1.00  0.00     0.067 C 
BRANCH  10  14
HETATM   14  O   UNL     1       8.796  11.312  18.702  1.00  0.00    -0.359 OA
ATOM     15  HO  UNL     1       8.843  12.094  18.165  1.00  0.00     0.217 HD
ENDBRANCH  10  14
BRANCH  11  16
HETATM   16  C   UNL     1       6.968  10.892  16.531  1.00  0.00     0.215 C 
HETATM   17  O   UNL     1       7.829  10.143  15.985  1.00  0.00    -0.644 OA
HETATM   18  O   UNL     1       6.297  11.722  15.889  1.00  0.00    -0.644 OA
ENDBRANCH  11  16
BRANCH  12  19
HETATM   19  O   UNL     1       4.408   9.916  17.332  1.00  0.00    -0.359 OA
ATOM     20  HO  UNL     1       4.533   9.158  16.772  1.00  0.00     0.217 HD
ENDBRANCH  12  19
ENDBRANCH   6   8
ENDBRANCH   1   6
BRANCH   1  21
HETATM   21  C   UNL     1       6.305   7.054  21.453  1.00  0.00     0.026 C 
HETATM   22  C   UNL     1       7.660   6.919  21.169  1.00  0.00     0.015 C 
HETATM   23  C   UNL     1       8.079   6.078  20.136  1.00  0.00     0.014 C 
HETATM   24  C   UNL     1       7.151   5.330  19.420  1.00  0.00    -0.014 C 
HETATM   25  C   UNL     1       5.822   5.399  19.788  1.00  0.00     0.014 C 
HETATM   26  C   UNL     1       5.413   6.197  20.840  1.00  0.00     0.015 C 
BRANCH  24  27
HETATM   27  C   UNL     1       7.571   4.385  18.326  1.00  0.00     0.016 C 
HETATM   28  C   UNL     1       7.917   2.919  18.507  1.00  0.00     0.077 C 
HETATM   29  C   UNL     1       8.562   2.490  17.182  1.00  0.00     0.016 C 
HETATM   30  C   UNL     1      10.034   2.419  17.395  1.00  0.00    -0.011 C 
HETATM   31  C   UNL     1       8.298   3.629  16.197  1.00  0.00     0.137 C 
HETATM   32  C   UNL     1       8.007   1.190  16.739  1.00  0.00    -0.011 C 
HETATM   33  C   UNL     1      10.786   1.388  16.867  1.00  0.00    -0.003 C 
HETATM   34  C   UNL     1      10.182   0.249  16.362  1.00  0.00    -0.001 C 
HETATM   35  C   UNL     1       8.798   0.116  16.419  1.00  0.00    -0.003 C 
HETATM   36  N   UNL     1       7.943   4.803  16.987  1.00  0.00    -0.391 N 
ATOM     37  HN  UNL     1       7.956   5.767  16.651  1.00  0.00     0.159 HD
ENDBRANCH  24  27
ENDBRANCH   1  21
TORSDOF 9
ENDMDL
