REMARK  8 active torsions:
REMARK  status: ('A' for Active; 'I' for Inactive)
REMARK    1  A    between atoms: O_1  and  C_29 
REMARK    2  A    between atoms: C_5  and  O_22 
REMARK    3  A    between atoms: C_9  and  C_30 
REMARK    4  A    between atoms: C_14  and  C_31 
REMARK    5  A    between atoms: N_15  and  C_20 
REMARK    6  A    between atoms: O_16  and  C_18 
REMARK    7  A    between atoms: C_18  and  C_31 
REMARK    8  A    between atoms: C_25  and  C_31 
ROOT
HETATM    1  C   UNL     1      -4.585  11.875  14.327  1.00  0.00    -0.045 C 
HETATM    2  C   UNL     1      -3.410  12.226  13.599  1.00  0.00    -0.006 C 
HETATM    3  C   UNL     1      -2.836  13.504  13.474  1.00  0.00     0.031 C 
HETATM    4  C   UNL     1      -3.040  11.104  12.829  1.00  0.00     0.021 C 
HETATM    5  C   UNL     1      -4.229  10.217  12.632  1.00  0.00     0.062 C 
HETATM    6  C   UNL     1      -1.787  13.836  12.719  1.00  0.00     0.099 C 
HETATM    7  N   UNL     1      -0.823  13.076  12.118  1.00  0.00    -0.316 N 
HETATM    8  C   UNL     1      -4.943  12.456  15.525  1.00  0.00     0.017 C 
HETATM    9  C   UNL     1      -5.247  10.686  13.672  1.00  0.00     0.045 C 
HETATM   10  C   UNL     1      -0.794  11.733  12.297  1.00  0.00     0.188 C 
HETATM   11  N   UNL     1      -1.754  10.845  12.487  1.00  0.00    -0.355 N 
ATOM     12  HN  UNL     1      -1.502   9.864  12.364  1.00  0.00     0.166 HD
ENDROOT
BRANCH   8  13
HETATM   13  C   UNL     1      -5.890  12.546  16.496  1.00  0.00    -0.029 C 
BRANCH  13  14
HETATM   14  C   UNL     1      -7.290  12.737  16.222  1.00  0.00     0.011 C 
HETATM   15  C   UNL     1      -8.009  12.514  15.135  1.00  0.00     0.015 C 
BRANCH  15  16
HETATM   16  C   UNL     1      -8.694  13.543  14.319  1.00  0.00    -0.003 C 
HETATM   17  C   UNL     1      -9.504  13.119  13.259  1.00  0.00     0.075 C 
HETATM   18  C   UNL     1     -10.056  14.049  12.377  1.00  0.00     0.037 C 
HETATM   19  C   UNL     1      -9.831  15.402  12.565  1.00  0.00     0.003 C 
HETATM   20  C   UNL     1      -9.179  15.834  13.719  1.00  0.00     0.001 C 
HETATM   21  C   UNL     1      -8.567  14.916  14.572  1.00  0.00     0.014 C 
BRANCH  17  22
HETATM   22  O   UNL     1      -9.772  11.786  13.082  1.00  0.00    -0.360 OA
ATOM     23  HO  UNL     1      -9.396  11.153  13.682  1.00  0.00     0.217 HD
ENDBRANCH  17  22
ENDBRANCH  15  16
ENDBRANCH  13  14
BRANCH  13  24
HETATM   24  C   UNL     1      -5.460  12.747  17.957  1.00  0.00     0.147 C 
HETATM   25  C   UNL     1      -6.123  11.733  18.871  1.00  0.00     0.044 C 
BRANCH  24  26
HETATM   26  O   UNL     1      -4.056  12.573  18.071  1.00  0.00    -0.391 OA
ATOM     27  HO  UNL     1      -3.641  13.208  17.499  1.00  0.00     0.210 HD
ENDBRANCH  24  26
ENDBRANCH  13  24
ENDBRANCH   8  13
BRANCH   7  28
HETATM   28  C   UNL     1       0.177  13.765  11.456  1.00  0.00     0.073 C 
HETATM   29  C   UNL     1       1.414  14.039  12.037  1.00  0.00     0.036 C 
HETATM   30  C   UNL     1       2.054  15.241  11.761  1.00  0.00     0.044 C 
HETATM   31  C   UNL     1       1.430  16.125  10.900  1.00  0.00     0.119 C 
HETATM   32  C   UNL     1       0.452  15.686  10.018  1.00  0.00     0.081 C 
HETATM   33  F   UNL     1       1.679  17.433  11.024  1.00  0.00    -0.206 F 
HETATM   34  C   UNL     1      -0.152  14.452  10.273  1.00  0.00     0.095 C 
BRANCH  34  35
HETATM   35  O   UNL     1      -1.192  14.062   9.479  1.00  0.00    -0.358 OA
ATOM     36  HO  UNL     1      -1.603  13.223   9.652  1.00  0.00     0.217 HD
ENDBRANCH  34  35
ENDBRANCH   7  28
TORSDOF 8
