MODEL 1
REMARK VINA RESULT:      -6.6      0.000      0.000
REMARK  0 active torsions:
REMARK  status: ('A' for Active; 'I' for Inactive)
ROOT
HETATM    1  C   UNL     1       7.821  43.820   8.207  1.00  0.00    -0.084 C 
HETATM    2  C   UNL     1       7.697  45.974   9.423  1.00  0.00    -0.026 C 
HETATM    3  C   UNL     1       5.510  44.496   7.535  1.00  0.00     0.005 C 
HETATM    4  C   UNL     1       6.382  43.344   8.096  1.00  0.00     0.034 C 
HETATM    5  C   UNL     1       8.656  43.797   6.974  1.00  0.00     0.043 C 
HETATM    6  C   UNL     1       5.264  45.565   8.616  1.00  0.00     0.004 C 
HETATM    7  C   UNL     1       8.221  44.660   9.365  1.00  0.00    -0.002 C 
HETATM    8  C   UNL     1       6.472  46.482   8.782  1.00  0.00     0.027 C 
ENDROOT
TORSDOF 0
ENDMDL
MODEL 2
REMARK VINA RESULT:      -6.1      1.058      2.510
REMARK  0 active torsions:
REMARK  status: ('A' for Active; 'I' for Inactive)
ROOT
HETATM    1  C   UNL     1       8.864  44.731   8.212  1.00  0.00    -0.084 C 
HETATM    2  C   UNL     1       6.932  43.210   7.918  1.00  0.00    -0.026 C 
HETATM    3  C   UNL     1       7.064  46.246   9.057  1.00  0.00     0.005 C 
HETATM    4  C   UNL     1       8.285  46.132   8.109  1.00  0.00     0.034 C 
HETATM    5  C   UNL     1       9.776  44.440   9.354  1.00  0.00     0.043 C 
HETATM    6  C   UNL     1       5.850  45.504   8.468  1.00  0.00     0.004 C 
HETATM    7  C   UNL     1       8.212  43.620   7.474  1.00  0.00    -0.002 C 
HETATM    8  C   UNL     1       5.953  43.998   8.687  1.00  0.00     0.027 C 
ENDROOT
TORSDOF 0
ENDMDL
MODEL 3
REMARK VINA RESULT:      -6.0      0.915      2.462
REMARK  0 active torsions:
REMARK  status: ('A' for Active; 'I' for Inactive)
ROOT
HETATM    1  C   UNL     1       6.904  43.900   7.555  1.00  0.00    -0.084 C 
HETATM    2  C   UNL     1       5.347  45.597   8.466  1.00  0.00    -0.026 C 
HETATM    3  C   UNL     1       8.591  45.540   8.397  1.00  0.00     0.005 C 
HETATM    4  C   UNL     1       8.161  44.671   7.188  1.00  0.00     0.034 C 
HETATM    5  C   UNL     1       7.064  42.648   8.345  1.00  0.00     0.043 C 
HETATM    6  C   UNL     1       7.665  46.762   8.542  1.00  0.00     0.004 C 
HETATM    7  C   UNL     1       5.589  44.587   7.502  1.00  0.00    -0.002 C 
HETATM    8  C   UNL     1       6.344  46.388   9.207  1.00  0.00     0.027 C 
ENDROOT
TORSDOF 0
ENDMDL
MODEL 4
REMARK VINA RESULT:      -5.9      0.964      3.397
REMARK  0 active torsions:
REMARK  status: ('A' for Active; 'I' for Inactive)
ROOT
HETATM    1  C   UNL     1       6.943  45.583   9.375  1.00  0.00    -0.084 C 
HETATM    2  C   UNL     1       6.450  44.235   7.357  1.00  0.00    -0.026 C 
HETATM    3  C   UNL     1       9.252  44.743   8.915  1.00  0.00     0.005 C 
HETATM    4  C   UNL     1       8.163  44.928  10.002  1.00  0.00     0.034 C 
HETATM    5  C   UNL     1       6.963  47.062   9.202  1.00  0.00     0.043 C 
HETATM    6  C   UNL     1       8.885  43.581   7.974  1.00  0.00     0.004 C 
HETATM    7  C   UNL     1       5.993  44.752   8.594  1.00  0.00    -0.002 C 
HETATM    8  C   UNL     1       7.844  44.003   6.941  1.00  0.00     0.027 C 
ENDROOT
TORSDOF 0
ENDMDL
MODEL 5
REMARK VINA RESULT:      -5.8      0.976      2.773
REMARK  0 active torsions:
REMARK  status: ('A' for Active; 'I' for Inactive)
ROOT
HETATM    1  C   UNL     1       6.726  44.927   7.608  1.00  0.00    -0.084 C 
HETATM    2  C   UNL     1       7.645  45.781   9.743  1.00  0.00    -0.026 C 
HETATM    3  C   UNL     1       8.437  43.151   8.015  1.00  0.00     0.005 C 
HETATM    4  C   UNL     1       7.863  44.144   6.972  1.00  0.00     0.034 C 
HETATM    5  C   UNL     1       5.386  44.279   7.669  1.00  0.00     0.043 C 
HETATM    6  C   UNL     1       9.291  43.896   9.058  1.00  0.00     0.004 C 
HETATM    7  C   UNL     1       7.043  46.075   8.495  1.00  0.00    -0.002 C 
HETATM    8  C   UNL     1       8.422  44.584  10.106  1.00  0.00     0.027 C 
ENDROOT
TORSDOF 0
ENDMDL
MODEL 6
REMARK VINA RESULT:      -5.6      1.051      3.107
REMARK  0 active torsions:
REMARK  status: ('A' for Active; 'I' for Inactive)
ROOT
HETATM    1  C   UNL     1       6.114  44.341   8.437  1.00  0.00    -0.084 C 
HETATM    2  C   UNL     1       8.068  43.087   7.574  1.00  0.00    -0.026 C 
HETATM    3  C   UNL     1       7.776  46.208   8.416  1.00  0.00     0.005 C 
HETATM    4  C   UNL     1       6.703  45.474   9.261  1.00  0.00     0.034 C 
HETATM    5  C   UNL     1       5.049  44.679   7.452  1.00  0.00     0.043 C 
HETATM    6  C   UNL     1       9.061  45.364   8.324  1.00  0.00     0.004 C 
HETATM    7  C   UNL     1       6.864  43.064   8.318  1.00  0.00    -0.002 C 
HETATM    8  C   UNL     1       8.927  44.250   7.291  1.00  0.00     0.027 C 
ENDROOT
TORSDOF 0
ENDMDL
MODEL 7
REMARK VINA RESULT:      -5.5      1.017      2.284
REMARK  0 active torsions:
REMARK  status: ('A' for Active; 'I' for Inactive)
ROOT
HETATM    1  C   UNL     1       8.180  45.427   8.682  1.00  0.00    -0.084 C 
HETATM    2  C   UNL     1       5.739  45.731   8.393  1.00  0.00    -0.026 C 
HETATM    3  C   UNL     1       7.597  43.104   7.967  1.00  0.00     0.005 C 
HETATM    4  C   UNL     1       8.360  43.955   9.014  1.00  0.00     0.034 C 
HETATM    5  C   UNL     1       9.055  46.013   7.629  1.00  0.00     0.043 C 
HETATM    6  C   UNL     1       6.080  43.164   8.223  1.00  0.00     0.004 C 
HETATM    7  C   UNL     1       6.922  46.111   9.073  1.00  0.00    -0.002 C 
HETATM    8  C   UNL     1       5.473  44.461   7.697  1.00  0.00     0.027 C 
ENDROOT
TORSDOF 0
ENDMDL
MODEL 8
REMARK VINA RESULT:      -5.3      1.193      2.805
REMARK  0 active torsions:
REMARK  status: ('A' for Active; 'I' for Inactive)
ROOT
HETATM    1  C   UNL     1       6.858  45.911   8.155  1.00  0.00    -0.084 C 
HETATM    2  C   UNL     1       9.104  44.937   8.528  1.00  0.00    -0.026 C 
HETATM    3  C   UNL     1       6.197  43.507   8.330  1.00  0.00     0.005 C 
HETATM    4  C   UNL     1       6.050  44.806   7.496  1.00  0.00     0.034 C 
HETATM    5  C   UNL     1       6.241  46.629   9.306  1.00  0.00     0.043 C 
HETATM    6  C   UNL     1       7.584  42.876   8.108  1.00  0.00     0.004 C 
HETATM    7  C   UNL     1       8.326  45.965   7.941  1.00  0.00    -0.002 C 
HETATM    8  C   UNL     1       8.661  43.588   8.921  1.00  0.00     0.027 C 
ENDROOT
TORSDOF 0
ENDMDL
MODEL 9
REMARK VINA RESULT:      -4.0     10.924     12.153
REMARK  0 active torsions:
REMARK  status: ('A' for Active; 'I' for Inactive)
ROOT
HETATM    1  C   UNL     1      12.457  37.339  15.098  1.00  0.00    -0.084 C 
HETATM    2  C   UNL     1      11.735  35.046  15.695  1.00  0.00    -0.026 C 
HETATM    3  C   UNL     1      10.708  37.925  16.785  1.00  0.00     0.005 C 
HETATM    4  C   UNL     1      11.244  38.217  15.360  1.00  0.00     0.034 C 
HETATM    5  C   UNL     1      13.769  37.788  15.640  1.00  0.00     0.043 C 
HETATM    6  C   UNL     1       9.965  36.576  16.817  1.00  0.00     0.004 C 
HETATM    7  C   UNL     1      12.255  35.920  14.710  1.00  0.00    -0.002 C 
HETATM    8  C   UNL     1      10.938  35.402  16.881  1.00  0.00     0.027 C 
ENDROOT
TORSDOF 0
ENDMDL
