REMARK  2 active torsions:
REMARK  status: ('A' for Active; 'I' for Inactive)
REMARK    1  A    between atoms: C_4  and  O_29 
REMARK    2  A    between atoms: C_13  and  O_19 
ROOT
HETATM    1  C   UNL     1      -0.154  48.051   8.229  1.00  0.00     0.081 C 
HETATM    2  C   UNL     1       6.043  45.232   7.425  1.00  0.00     0.029 C 
HETATM    3  C   UNL     1       0.714  44.633   0.351  1.00  0.00     0.272 C 
HETATM    4  C   UNL     1       1.490  45.802   3.926  1.00  0.00     0.131 C 
HETATM    5  C   UNL     1       3.196  46.586   8.297  1.00  0.00     0.257 C 
HETATM    6  C   UNL     1       3.660  44.550   4.596  1.00  0.00    -0.060 C 
HETATM    7  C   UNL     1       2.491  45.422   5.012  1.00  0.00     0.054 C 
HETATM    8  C   UNL     1       3.554  43.706   3.363  1.00  0.00     0.042 C 
HETATM    9  C   UNL     1       4.802  44.365   5.528  1.00  0.00    -0.007 C 
HETATM   10  C   UNL     1       4.867  45.179   6.700  1.00  0.00    -0.018 C 
HETATM   11  C   UNL     1       3.013  46.616   5.826  1.00  0.00     0.057 C 
HETATM   12  C   UNL     1       0.663  45.493   1.610  1.00  0.00     0.038 C 
HETATM   13  C   UNL     1       1.199  47.752   8.861  1.00  0.00     0.256 C 
HETATM   14  C   UNL     1       5.837  43.467   5.321  1.00  0.00     0.100 C 
HETATM   15  C   UNL     1       1.871  43.031  -0.839  1.00  0.00     0.309 C 
HETATM   16  N   UNL     1       6.930  43.478   6.087  1.00  0.00    -0.374 N 
ATOM     17  HN  UNL     1       7.698  42.841   5.876  1.00  0.00     0.164 HD
HETATM   18  C   UNL     1       1.432  44.804   2.758  1.00  0.00     0.023 C 
HETATM   19  C   UNL     1       1.973  47.553   6.438  1.00  0.00     0.287 C 
HETATM   20  C   UNL     1       2.776  43.574   1.077  1.00  0.00     0.277 C 
HETATM   21  C   UNL     1       3.631  45.923   7.029  1.00  0.00    -0.029 C 
HETATM   22  N   UNL     1       2.110  44.259  -0.040  1.00  0.00     0.084 N 
HETATM   23  N   UNL     1       2.283  47.651   7.874  1.00  0.00     0.132 N 
HETATM   24  C   UNL     1       2.343  45.599   9.084  1.00  0.00     0.045 C 
HETATM   25  C   UNL     1       7.033  44.312   7.126  1.00  0.00     0.088 C 
HETATM   26  C   UNL     1       2.864  44.532   2.265  1.00  0.00     0.024 C 
HETATM   27  C   UNL     1       1.138  46.392   9.554  1.00  0.00     0.073 C 
ENDROOT
BRANCH  13  28
HETATM   28  O   UNL     1       1.542  48.777   9.763  1.00  0.00    -0.363 OA
ATOM     29  HO  UNL     1       2.386  48.590  10.157  1.00  0.00     0.212 HD
ENDBRANCH  13  28
BRANCH   4  30
HETATM   30  O   UNL     1       0.218  45.793   4.564  1.00  0.00    -0.394 OA
ATOM     31  HO  UNL     1      -0.406  46.030   3.888  1.00  0.00     0.210 HD
ENDBRANCH   4  30
TORSDOF 2
