MODEL 1
REMARK VINA RESULT:      -8.3      0.000      0.000
REMARK  4 active torsions:
REMARK  status: ('A' for Active; 'I' for Inactive)
REMARK    1  A    between atoms: N_1  and  C_6 
REMARK    2  A    between atoms: C_4  and  O_15 
REMARK    3  A    between atoms: O_9  and  C_18 
REMARK    4  A    between atoms: C_12  and  C_20 
ROOT
HETATM    1  N   UNL     1      -3.181  -2.563 -31.085  1.00  0.00    -0.329 N 
HETATM    2  C   UNL     1      -2.882  -3.851 -29.025  1.00  0.00     0.020 C 
HETATM    3  C   UNL     1      -3.166  -3.709 -30.354  1.00  0.00     0.097 C 
HETATM    4  C   UNL     1      -1.806  -3.287 -28.345  1.00  0.00     0.039 C 
HETATM    5  C   UNL     1      -2.456  -1.490 -30.696  1.00  0.00     0.118 C 
HETATM    6  C   UNL     1      -0.925  -2.462 -29.010  1.00  0.00     0.084 C 
HETATM    7  C   UNL     1      -1.386  -1.414 -29.867  1.00  0.00     0.089 C 
ENDROOT
BRANCH   1   8
HETATM    8  C   UNL     1      -3.878  -2.603 -32.319  1.00  0.00     0.071 C 
HETATM    9  C   UNL     1      -4.921  -1.695 -32.597  1.00  0.00     0.092 C 
HETATM   10  C   UNL     1      -5.653  -1.667 -33.772  1.00  0.00     0.039 C 
HETATM   11  C   UNL     1      -5.864  -2.527 -34.805  1.00  0.00     0.003 C 
HETATM   12  C   UNL     1      -5.185  -3.690 -35.128  1.00  0.00     0.000 C 
HETATM   13  C   UNL     1      -4.204  -4.206 -34.299  1.00  0.00     0.002 C 
HETATM   14  C   UNL     1      -3.572  -3.610 -33.232  1.00  0.00     0.033 C 
BRANCH   9  15
HETATM   15  O   UNL     1      -5.257  -0.813 -31.616  1.00  0.00    -0.358 OA
ATOM     16  HO  UNL     1      -6.031  -1.010 -31.101  1.00  0.00     0.217 HD
ENDBRANCH   9  15
ENDBRANCH   1   8
BRANCH   7  17
HETATM   17  C   UNL     1      -0.707  -0.067 -29.802  1.00  0.00     0.213 C 
HETATM   18  O   UNL     1      -0.507   0.536 -30.883  1.00  0.00    -0.644 OA
HETATM   19  O   UNL     1      -0.367   0.388 -28.695  1.00  0.00    -0.644 OA
ENDBRANCH   7  17
BRANCH   6  20
HETATM   20  O   UNL     1       0.417  -2.696 -28.903  1.00  0.00    -0.360 OA
ATOM     21  HO  UNL     1       0.734  -3.267 -28.213  1.00  0.00     0.217 HD
ENDBRANCH   6  20
TORSDOF 4
ENDMDL
MODEL 2
REMARK VINA RESULT:      -7.3      1.418      2.030
REMARK  4 active torsions:
REMARK  status: ('A' for Active; 'I' for Inactive)
REMARK    1  A    between atoms: N_1  and  C_6 
REMARK    2  A    between atoms: C_4  and  O_15 
REMARK    3  A    between atoms: O_9  and  C_18 
REMARK    4  A    between atoms: C_12  and  C_20 
ROOT
HETATM    1  N   UNL     1      -3.456  -2.891 -30.963  1.00  0.00    -0.329 N 
HETATM    2  C   UNL     1      -3.611  -3.406 -28.575  1.00  0.00     0.020 C 
HETATM    3  C   UNL     1      -3.681  -3.714 -29.904  1.00  0.00     0.097 C 
HETATM    4  C   UNL     1      -2.586  -2.709 -27.941  1.00  0.00     0.039 C 
HETATM    5  C   UNL     1      -2.674  -1.797 -30.828  1.00  0.00     0.118 C 
HETATM    6  C   UNL     1      -1.527  -2.220 -28.675  1.00  0.00     0.084 C 
HETATM    7  C   UNL     1      -1.734  -1.505 -29.897  1.00  0.00     0.089 C 
ENDROOT
BRANCH   1   8
HETATM    8  C   UNL     1      -3.968  -3.312 -32.217  1.00  0.00     0.071 C 
HETATM    9  C   UNL     1      -3.779  -4.632 -32.676  1.00  0.00     0.092 C 
HETATM   10  C   UNL     1      -4.241  -5.122 -33.885  1.00  0.00     0.039 C 
HETATM   11  C   UNL     1      -4.687  -4.575 -35.049  1.00  0.00     0.003 C 
HETATM   12  C   UNL     1      -5.051  -3.266 -35.316  1.00  0.00     0.000 C 
HETATM   13  C   UNL     1      -4.881  -2.263 -34.377  1.00  0.00     0.002 C 
HETATM   14  C   UNL     1      -4.596  -2.375 -33.035  1.00  0.00     0.033 C 
BRANCH   9  15
HETATM   15  O   UNL     1      -3.049  -5.467 -31.886  1.00  0.00    -0.358 OA
ATOM     16  HO  UNL     1      -3.101  -5.332 -30.948  1.00  0.00     0.217 HD
ENDBRANCH   9  15
ENDBRANCH   1   8
BRANCH   7  17
HETATM   17  C   UNL     1      -0.918  -0.263 -30.162  1.00  0.00     0.213 C 
HETATM   18  O   UNL     1      -0.703   0.510 -29.198  1.00  0.00    -0.644 OA
HETATM   19  O   UNL     1      -0.497  -0.048 -31.313  1.00  0.00    -0.644 OA
ENDBRANCH   7  17
BRANCH   6  20
HETATM   20  O   UNL     1      -0.252  -2.484 -28.263  1.00  0.00    -0.360 OA
ATOM     21  HO  UNL     1       0.173  -1.887 -27.657  1.00  0.00     0.217 HD
ENDBRANCH   6  20
TORSDOF 4
ENDMDL
MODEL 3
REMARK VINA RESULT:      -7.1      1.628      2.712
REMARK  4 active torsions:
REMARK  status: ('A' for Active; 'I' for Inactive)
REMARK    1  A    between atoms: N_1  and  C_6 
REMARK    2  A    between atoms: C_4  and  O_15 
REMARK    3  A    between atoms: O_9  and  C_18 
REMARK    4  A    between atoms: C_12  and  C_20 
ROOT
HETATM    1  N   UNL     1      -2.905  -2.013 -31.609  1.00  0.00    -0.329 N 
HETATM    2  C   UNL     1      -0.935  -0.707 -30.972  1.00  0.00     0.020 C 
HETATM    3  C   UNL     1      -2.066  -0.948 -31.700  1.00  0.00     0.097 C 
HETATM    4  C   UNL     1      -0.804  -0.817 -29.590  1.00  0.00     0.039 C 
HETATM    5  C   UNL     1      -2.987  -2.726 -30.464  1.00  0.00     0.118 C 
HETATM    6  C   UNL     1      -1.869  -1.242 -28.827  1.00  0.00     0.084 C 
HETATM    7  C   UNL     1      -2.642  -2.388 -29.198  1.00  0.00     0.089 C 
ENDROOT
BRANCH   1   8
HETATM    8  C   UNL     1      -3.766  -2.243 -32.712  1.00  0.00     0.071 C 
HETATM    9  C   UNL     1      -5.005  -1.578 -32.821  1.00  0.00     0.092 C 
HETATM   10  C   UNL     1      -5.904  -1.746 -33.861  1.00  0.00     0.039 C 
HETATM   11  C   UNL     1      -6.094  -2.672 -34.840  1.00  0.00     0.003 C 
HETATM   12  C   UNL     1      -5.249  -3.684 -35.262  1.00  0.00     0.000 C 
HETATM   13  C   UNL     1      -4.063  -3.957 -34.602  1.00  0.00     0.002 C 
HETATM   14  C   UNL     1      -3.407  -3.202 -33.657  1.00  0.00     0.033 C 
BRANCH   9  15
HETATM   15  O   UNL     1      -5.356  -0.744 -31.804  1.00  0.00    -0.358 OA
ATOM     16  HO  UNL     1      -6.284  -0.616 -31.647  1.00  0.00     0.217 HD
ENDBRANCH   9  15
ENDBRANCH   1   8
BRANCH   7  17
HETATM   17  C   UNL     1      -3.046  -3.373 -28.127  1.00  0.00     0.213 C 
HETATM   18  O   UNL     1      -3.150  -4.578 -28.454  1.00  0.00    -0.644 OA
HETATM   19  O   UNL     1      -3.264  -2.958 -26.974  1.00  0.00    -0.644 OA
ENDBRANCH   7  17
BRANCH   6  20
HETATM   20  O   UNL     1      -2.238  -0.514 -27.732  1.00  0.00    -0.360 OA
ATOM     21  HO  UNL     1      -2.120   0.429 -27.741  1.00  0.00     0.217 HD
ENDBRANCH   6  20
TORSDOF 4
ENDMDL
MODEL 4
REMARK VINA RESULT:      -6.6      2.111      3.412
REMARK  4 active torsions:
REMARK  status: ('A' for Active; 'I' for Inactive)
REMARK    1  A    between atoms: N_1  and  C_6 
REMARK    2  A    between atoms: C_4  and  O_15 
REMARK    3  A    between atoms: O_9  and  C_18 
REMARK    4  A    between atoms: C_12  and  C_20 
ROOT
HETATM    1  N   UNL     1      -2.915  -2.806 -31.313  1.00  0.00    -0.329 N 
HETATM    2  C   UNL     1      -1.602  -0.779 -30.912  1.00  0.00     0.020 C 
HETATM    3  C   UNL     1      -2.527  -1.531 -31.580  1.00  0.00     0.097 C 
HETATM    4  C   UNL     1      -1.504  -0.624 -29.532  1.00  0.00     0.039 C 
HETATM    5  C   UNL     1      -2.780  -3.318 -30.069  1.00  0.00     0.118 C 
HETATM    6  C   UNL     1      -2.370  -1.297 -28.698  1.00  0.00     0.084 C 
HETATM    7  C   UNL     1      -2.644  -2.689 -28.876  1.00  0.00     0.089 C 
ENDROOT
BRANCH   1   8
HETATM    8  C   UNL     1      -3.577  -3.503 -32.355  1.00  0.00     0.071 C 
HETATM    9  C   UNL     1      -3.562  -4.912 -32.414  1.00  0.00     0.092 C 
HETATM   10  C   UNL     1      -4.178  -5.669 -33.395  1.00  0.00     0.039 C 
HETATM   11  C   UNL     1      -4.672  -5.428 -34.641  1.00  0.00     0.003 C 
HETATM   12  C   UNL     1      -4.927  -4.217 -35.261  1.00  0.00     0.000 C 
HETATM   13  C   UNL     1      -4.574  -3.016 -34.671  1.00  0.00     0.002 C 
HETATM   14  C   UNL     1      -4.182  -2.771 -33.375  1.00  0.00     0.033 C 
BRANCH   9  15
HETATM   15  O   UNL     1      -2.850  -5.568 -31.456  1.00  0.00    -0.358 OA
ATOM     16  HO  UNL     1      -3.066  -5.381 -30.550  1.00  0.00     0.217 HD
ENDBRANCH   9  15
ENDBRANCH   1   8
BRANCH   7  17
HETATM   17  C   UNL     1      -2.704  -3.581 -27.659  1.00  0.00     0.213 C 
HETATM   18  O   UNL     1      -3.749  -3.552 -26.966  1.00  0.00    -0.644 OA
HETATM   19  O   UNL     1      -1.725  -4.300 -27.385  1.00  0.00    -0.644 OA
ENDBRANCH   7  17
BRANCH   6  20
HETATM   20  O   UNL     1      -3.033  -0.604 -27.726  1.00  0.00    -0.360 OA
ATOM     21  HO  UNL     1      -2.788  -0.731 -26.817  1.00  0.00     0.217 HD
ENDBRANCH   6  20
TORSDOF 4
ENDMDL
MODEL 5
REMARK VINA RESULT:      -6.5      2.699      6.130
REMARK  4 active torsions:
REMARK  status: ('A' for Active; 'I' for Inactive)
REMARK    1  A    between atoms: N_1  and  C_6 
REMARK    2  A    between atoms: C_4  and  O_15 
REMARK    3  A    between atoms: O_9  and  C_18 
REMARK    4  A    between atoms: C_12  and  C_20 
ROOT
HETATM    1  N   UNL     1      -3.555  -2.491 -32.095  1.00  0.00    -0.329 N 
HETATM    2  C   UNL     1      -5.101  -1.726 -33.832  1.00  0.00     0.020 C 
HETATM    3  C   UNL     1      -4.028  -1.591 -32.997  1.00  0.00     0.097 C 
HETATM    4  C   UNL     1      -5.390  -2.827 -34.634  1.00  0.00     0.039 C 
HETATM    5  C   UNL     1      -3.799  -3.812 -32.252  1.00  0.00     0.118 C 
HETATM    6  C   UNL     1      -4.577  -3.938 -34.599  1.00  0.00     0.084 C 
HETATM    7  C   UNL     1      -4.147  -4.510 -33.360  1.00  0.00     0.089 C 
ENDROOT
BRANCH   1   8
HETATM    8  C   UNL     1      -2.700  -1.990 -31.081  1.00  0.00     0.071 C 
HETATM    9  C   UNL     1      -2.916  -2.306 -29.723  1.00  0.00     0.092 C 
HETATM   10  C   UNL     1      -2.133  -1.858 -28.673  1.00  0.00     0.039 C 
HETATM   11  C   UNL     1      -1.219  -0.866 -28.498  1.00  0.00     0.003 C 
HETATM   12  C   UNL     1      -0.583  -0.085 -29.449  1.00  0.00     0.000 C 
HETATM   13  C   UNL     1      -0.919  -0.162 -30.789  1.00  0.00     0.002 C 
HETATM   14  C   UNL     1      -1.681  -1.109 -31.436  1.00  0.00     0.033 C 
BRANCH   9  15
HETATM   15  O   UNL     1      -4.002  -3.072 -29.427  1.00  0.00    -0.358 OA
ATOM     16  HO  UNL     1      -3.970  -3.579 -28.625  1.00  0.00     0.217 HD
ENDBRANCH   9  15
ENDBRANCH   1   8
BRANCH   7  17
HETATM   17  C   UNL     1      -4.158  -6.012 -33.208  1.00  0.00     0.213 C 
HETATM   18  O   UNL     1      -4.707  -6.685 -34.112  1.00  0.00    -0.644 OA
HETATM   19  O   UNL     1      -3.634  -6.523 -32.201  1.00  0.00    -0.644 OA
ENDBRANCH   7  17
BRANCH   6  20
HETATM   20  O   UNL     1      -4.114  -4.463 -35.773  1.00  0.00    -0.360 OA
ATOM     21  HO  UNL     1      -4.546  -5.225 -36.142  1.00  0.00     0.217 HD
ENDBRANCH   6  20
TORSDOF 4
ENDMDL
MODEL 6
REMARK VINA RESULT:      -6.2      2.606      6.232
REMARK  4 active torsions:
REMARK  status: ('A' for Active; 'I' for Inactive)
REMARK    1  A    between atoms: N_1  and  C_6 
REMARK    2  A    between atoms: C_4  and  O_15 
REMARK    3  A    between atoms: O_9  and  C_18 
REMARK    4  A    between atoms: C_12  and  C_20 
ROOT
HETATM    1  N   UNL     1      -3.963  -2.825 -31.907  1.00  0.00    -0.329 N 
HETATM    2  C   UNL     1      -5.127  -1.566 -33.655  1.00  0.00     0.020 C 
HETATM    3  C   UNL     1      -4.227  -1.708 -32.636  1.00  0.00     0.097 C 
HETATM    4  C   UNL     1      -5.295  -2.429 -34.734  1.00  0.00     0.039 C 
HETATM    5  C   UNL     1      -4.215  -4.052 -32.416  1.00  0.00     0.118 C 
HETATM    6  C   UNL     1      -4.540  -3.577 -34.824  1.00  0.00     0.084 C 
HETATM    7  C   UNL     1      -4.371  -4.449 -33.703  1.00  0.00     0.089 C 
ENDROOT
BRANCH   1   8
HETATM    8  C   UNL     1      -3.298  -2.636 -30.669  1.00  0.00     0.071 C 
HETATM    9  C   UNL     1      -2.145  -1.830 -30.576  1.00  0.00     0.092 C 
HETATM   10  C   UNL     1      -1.436  -1.596 -29.410  1.00  0.00     0.039 C 
HETATM   11  C   UNL     1      -1.363  -2.182 -28.184  1.00  0.00     0.003 C 
HETATM   12  C   UNL     1      -2.200  -3.126 -27.614  1.00  0.00     0.000 C 
HETATM   13  C   UNL     1      -3.229  -3.707 -28.335  1.00  0.00     0.002 C 
HETATM   14  C   UNL     1      -3.756  -3.328 -29.549  1.00  0.00     0.033 C 
BRANCH   9  15
HETATM   15  O   UNL     1      -1.675  -1.280 -31.729  1.00  0.00    -0.358 OA
ATOM     16  HO  UNL     1      -0.744  -1.098 -31.775  1.00  0.00     0.217 HD
ENDBRANCH   9  15
ENDBRANCH   1   8
BRANCH   7  17
HETATM   17  C   UNL     1      -4.459  -5.941 -33.919  1.00  0.00     0.213 C 
HETATM   18  O   UNL     1      -4.917  -6.344 -35.013  1.00  0.00    -0.644 OA
HETATM   19  O   UNL     1      -4.084  -6.707 -33.012  1.00  0.00    -0.644 OA
ENDBRANCH   7  17
BRANCH   6  20
HETATM   20  O   UNL     1      -3.882  -3.853 -35.989  1.00  0.00    -0.360 OA
ATOM     21  HO  UNL     1      -3.373  -3.168 -36.407  1.00  0.00     0.217 HD
ENDBRANCH   6  20
TORSDOF 4
ENDMDL
MODEL 7
REMARK VINA RESULT:      -5.9      2.607      3.978
REMARK  4 active torsions:
REMARK  status: ('A' for Active; 'I' for Inactive)
REMARK    1  A    between atoms: N_1  and  C_6 
REMARK    2  A    between atoms: C_4  and  O_15 
REMARK    3  A    between atoms: O_9  and  C_18 
REMARK    4  A    between atoms: C_12  and  C_20 
ROOT
HETATM    1  N   UNL     1      -3.534  -3.988 -31.851  1.00  0.00    -0.329 N 
HETATM    2  C   UNL     1      -2.843  -1.659 -32.154  1.00  0.00     0.020 C 
HETATM    3  C   UNL     1      -3.592  -2.765 -32.443  1.00  0.00     0.097 C 
HETATM    4  C   UNL     1      -2.588  -1.142 -30.887  1.00  0.00     0.039 C 
HETATM    5  C   UNL     1      -3.065  -4.119 -30.591  1.00  0.00     0.118 C 
HETATM    6  C   UNL     1      -3.076  -1.783 -29.769  1.00  0.00     0.084 C 
HETATM    7  C   UNL     1      -2.944  -3.198 -29.604  1.00  0.00     0.089 C 
ENDROOT
BRANCH   1   8
HETATM    8  C   UNL     1      -4.107  -5.070 -32.566  1.00  0.00     0.071 C 
HETATM    9  C   UNL     1      -4.153  -6.367 -32.013  1.00  0.00     0.092 C 
HETATM   10  C   UNL     1      -4.690  -7.476 -32.643  1.00  0.00     0.039 C 
HETATM   11  C   UNL     1      -5.028  -7.799 -33.921  1.00  0.00     0.003 C 
HETATM   12  C   UNL     1      -5.154  -6.975 -35.026  1.00  0.00     0.000 C 
HETATM   13  C   UNL     1      -4.813  -5.635 -34.971  1.00  0.00     0.002 C 
HETATM   14  C   UNL     1      -4.557  -4.853 -33.867  1.00  0.00     0.033 C 
BRANCH   9  15
HETATM   15  O   UNL     1      -3.585  -6.541 -30.788  1.00  0.00    -0.358 OA
ATOM     16  HO  UNL     1      -3.957  -6.051 -30.064  1.00  0.00     0.217 HD
ENDBRANCH   9  15
ENDBRANCH   1   8
BRANCH   7  17
HETATM   17  C   UNL     1      -2.548  -3.740 -28.251  1.00  0.00     0.213 C 
HETATM   18  O   UNL     1      -3.452  -3.886 -27.395  1.00  0.00    -0.644 OA
HETATM   19  O   UNL     1      -1.353  -4.013 -28.034  1.00  0.00    -0.644 OA
ENDBRANCH   7  17
BRANCH   6  20
HETATM   20  O   UNL     1      -3.760  -1.062 -28.832  1.00  0.00    -0.360 OA
ATOM     21  HO  UNL     1      -4.205  -1.520 -28.128  1.00  0.00     0.217 HD
ENDBRANCH   6  20
TORSDOF 4
ENDMDL
MODEL 8
REMARK VINA RESULT:      -5.7      8.096      9.802
REMARK  4 active torsions:
REMARK  status: ('A' for Active; 'I' for Inactive)
REMARK    1  A    between atoms: N_1  and  C_6 
REMARK    2  A    between atoms: C_4  and  O_15 
REMARK    3  A    between atoms: O_9  and  C_18 
REMARK    4  A    between atoms: C_12  and  C_20 
ROOT
HETATM    1  N   UNL     1      -3.302 -10.577 -36.441  1.00  0.00    -0.329 N 
HETATM    2  C   UNL     1      -1.795 -11.546 -34.773  1.00  0.00     0.020 C 
HETATM    3  C   UNL     1      -2.095 -11.018 -35.997  1.00  0.00     0.097 C 
HETATM    4  C   UNL     1      -2.171 -11.031 -33.536  1.00  0.00     0.039 C 
HETATM    5  C   UNL     1      -4.247 -10.168 -35.566  1.00  0.00     0.118 C 
HETATM    6  C   UNL     1      -2.958  -9.902 -33.469  1.00  0.00     0.084 C 
HETATM    7  C   UNL     1      -4.128  -9.759 -34.279  1.00  0.00     0.089 C 
ENDROOT
BRANCH   1   8
HETATM    8  C   UNL     1      -3.457 -10.449 -37.845  1.00  0.00     0.071 C 
HETATM    9  C   UNL     1      -3.948  -9.257 -38.418  1.00  0.00     0.092 C 
HETATM   10  C   UNL     1      -4.132  -9.050 -39.774  1.00  0.00     0.039 C 
HETATM   11  C   UNL     1      -4.219  -9.845 -40.875  1.00  0.00     0.003 C 
HETATM   12  C   UNL     1      -3.905 -11.186 -41.012  1.00  0.00     0.000 C 
HETATM   13  C   UNL     1      -3.541 -11.957 -39.922  1.00  0.00     0.002 C 
HETATM   14  C   UNL     1      -3.191 -11.551 -38.654  1.00  0.00     0.033 C 
BRANCH   9  15
HETATM   15  O   UNL     1      -4.307  -8.258 -37.565  1.00  0.00    -0.358 OA
ATOM     16  HO  UNL     1      -4.020  -8.333 -36.663  1.00  0.00     0.217 HD
ENDBRANCH   9  15
ENDBRANCH   1   8
BRANCH   7  17
HETATM   17  C   UNL     1      -5.382  -9.193 -33.656  1.00  0.00     0.213 C 
HETATM   18  O   UNL     1      -6.445  -9.845 -33.793  1.00  0.00    -0.644 OA
HETATM   19  O   UNL     1      -5.320  -8.112 -33.043  1.00  0.00    -0.644 OA
ENDBRANCH   7  17
BRANCH   6  20
HETATM   20  O   UNL     1      -2.574  -8.868 -32.663  1.00  0.00    -0.360 OA
ATOM     21  HO  UNL     1      -2.021  -9.047 -31.911  1.00  0.00     0.217 HD
ENDBRANCH   6  20
TORSDOF 4
ENDMDL
MODEL 9
REMARK VINA RESULT:      -5.7      7.916      9.876
REMARK  4 active torsions:
REMARK  status: ('A' for Active; 'I' for Inactive)
REMARK    1  A    between atoms: N_1  and  C_6 
REMARK    2  A    between atoms: C_4  and  O_15 
REMARK    3  A    between atoms: O_9  and  C_18 
REMARK    4  A    between atoms: C_12  and  C_20 
ROOT
HETATM    1  N   UNL     1      -4.058 -10.421 -36.546  1.00  0.00    -0.329 N 
HETATM    2  C   UNL     1      -2.519 -11.740 -35.173  1.00  0.00     0.020 C 
HETATM    3  C   UNL     1      -2.900 -11.095 -36.316  1.00  0.00     0.097 C 
HETATM    4  C   UNL     1      -2.601 -11.241 -33.876  1.00  0.00     0.039 C 
HETATM    5  C   UNL     1      -4.766  -9.903 -35.518  1.00  0.00     0.118 C 
HETATM    6  C   UNL     1      -3.145  -9.996 -33.649  1.00  0.00     0.084 C 
HETATM    7  C   UNL     1      -4.378  -9.599 -34.255  1.00  0.00     0.089 C 
ENDROOT
BRANCH   1   8
HETATM    8  C   UNL     1      -4.399 -10.183 -37.902  1.00  0.00     0.071 C 
HETATM    9  C   UNL     1      -5.363 -10.974 -38.561  1.00  0.00     0.092 C 
HETATM   10  C   UNL     1      -5.752 -10.812 -39.879  1.00  0.00     0.039 C 
HETATM   11  C   UNL     1      -5.243 -10.177 -40.970  1.00  0.00     0.003 C 
HETATM   12  C   UNL     1      -4.221  -9.246 -41.043  1.00  0.00     0.000 C 
HETATM   13  C   UNL     1      -3.466  -8.914 -39.931  1.00  0.00     0.002 C 
HETATM   14  C   UNL     1      -3.707  -9.200 -38.606  1.00  0.00     0.033 C 
BRANCH   9  15
HETATM   15  O   UNL     1      -5.915 -11.999 -37.855  1.00  0.00    -0.358 OA
ATOM     16  HO  UNL     1      -6.731 -11.824 -37.401  1.00  0.00     0.217 HD
ENDBRANCH   9  15
ENDBRANCH   1   8
BRANCH   7  17
HETATM   17  C   UNL     1      -5.395  -8.857 -33.421  1.00  0.00     0.213 C 
HETATM   18  O   UNL     1      -6.565  -9.307 -33.394  1.00  0.00    -0.644 OA
HETATM   19  O   UNL     1      -5.043  -7.836 -32.803  1.00  0.00    -0.644 OA
ENDBRANCH   7  17
BRANCH   6  20
HETATM   20  O   UNL     1      -2.457  -9.097 -32.884  1.00  0.00    -0.360 OA
ATOM     21  HO  UNL     1      -2.041  -8.353 -33.304  1.00  0.00     0.217 HD
ENDBRANCH   6  20
TORSDOF 4
ENDMDL
