REMARK  3 active torsions:
REMARK  status: ('A' for Active; 'I' for Inactive)
REMARK    1  A    between atoms: O_5  and  C_15 
REMARK    2  A    between atoms: O_10  and  C_14 
REMARK    3  A    between atoms: C_14  and  C_19 
ROOT
HETATM    1  C   UNL     1      -4.706  -1.868 -32.472  1.00  0.00     0.215 C 
HETATM    2  C   UNL     1      -3.084  -4.125 -33.132  1.00  0.00     0.009 C 
HETATM    3  C   UNL     1      -4.133  -3.692 -34.157  1.00  0.00     0.034 C 
HETATM    4  C   UNL     1      -5.249  -2.883 -33.491  1.00  0.00     0.148 C 
HETATM    5  N   UNL     1      -4.796  -2.559 -31.152  1.00  0.00    -0.060 N 
ATOM      6  HN1 UNL     1      -5.575  -3.215 -31.107  1.00  0.00     0.278 HD
ATOM      7  HN2 UNL     1      -5.095  -1.934 -30.403  1.00  0.00     0.278 HD
HETATM    8  C   UNL     1      -3.486  -3.207 -30.866  1.00  0.00     0.238 C 
HETATM    9  C   UNL     1      -3.218  -1.685 -32.732  1.00  0.00     0.042 C 
HETATM   10  C   UNL     1      -2.686  -3.003 -32.162  1.00  0.00     0.022 C 
ENDROOT
BRANCH   8  11
HETATM   11  C   UNL     1      -3.054  -2.880 -29.423  1.00  0.00     0.203 C 
HETATM   12  P   UNL     1      -1.371  -3.335 -28.794  1.00  0.00     0.295 P 
HETATM   13  O   UNL     1      -0.592  -1.960 -28.504  1.00  0.00    -0.224 OA
HETATM   14  O   UNL     1      -0.648  -4.019 -29.886  1.00  0.00    -0.644 OA
HETATM   15  O   UNL     1      -1.468  -4.174 -27.573  1.00  0.00    -0.644 OA
HETATM   16  P   UNL     1      -1.380  -0.760 -29.177  1.00  0.00     0.261 P 
HETATM   17  O   UNL     1      -1.082  -0.696 -30.641  1.00  0.00    -0.646 OA
HETATM   18  O   UNL     1      -1.101   0.563 -28.543  1.00  0.00    -0.646 OA
HETATM   19  C   UNL     1      -3.119  -1.358 -29.029  1.00  0.00     0.189 C 
BRANCH  11  20
HETATM   20  O   UNL     1      -3.963  -3.518 -28.537  1.00  0.00    -0.375 OA
ATOM     21  HO  UNL     1      -4.826  -3.285 -28.859  1.00  0.00     0.211 HD
ENDBRANCH  11  20
ENDBRANCH   8  11
BRANCH   4  22
HETATM   22  O   UNL     1      -6.021  -2.202 -34.477  1.00  0.00    -0.393 OA
ATOM     23  HO  UNL     1      -6.357  -2.829 -35.107  1.00  0.00     0.210 HD
ENDBRANCH   4  22
TORSDOF 3
