REMARK  2 active torsions:
REMARK  status: ('A' for Active; 'I' for Inactive)
REMARK    1  A    between atoms: C_3  and  O_9 
REMARK    2  A    between atoms: C_15  and  C_21 
ROOT
HETATM    1  C   UNL     1       1.948   8.045  20.533  1.00  0.00     0.009 C 
HETATM    2  C   UNL     1       2.604   9.078  19.608  1.00  0.00     0.019 C 
HETATM    3  C   UNL     1       4.910   8.248  18.962  1.00  0.00    -0.040 C 
HETATM    4  C   UNL     1       8.634   7.858  18.642  1.00  0.00     0.021 C 
HETATM    5  C   UNL     1       1.964   6.334  18.731  1.00  0.00     0.005 C 
HETATM    6  C   UNL     1       7.294   7.549  18.414  1.00  0.00    -0.050 C 
HETATM    7  C   UNL     1       4.243   7.190  18.098  1.00  0.00     0.044 C 
HETATM    8  C   UNL     1       2.270   8.775  18.143  1.00  0.00     0.014 C 
HETATM    9  C   UNL     1       4.739  10.107  20.500  1.00  0.00     0.009 C 
HETATM   10  C   UNL     1       6.991   6.400  17.462  1.00  0.00     0.049 C 
HETATM   11  C   UNL     1       8.880   9.175  18.214  1.00  0.00    -0.008 C 
HETATM   12  C   UNL     1       6.302   8.499  18.855  1.00  0.00    -0.013 C 
HETATM   13  C   UNL     1       6.765   9.798  19.200  1.00  0.00    -0.024 C 
HETATM   14  C   UNL     1       1.090   7.025  19.771  1.00  0.00     0.001 C 
HETATM   15  C   UNL     1       5.977  10.581  20.057  1.00  0.00     0.013 C 
HETATM   16  C   UNL     1       2.733   7.342  17.860  1.00  0.00    -0.010 C 
HETATM   17  C   UNL     1       8.027  10.177  18.719  1.00  0.00     0.026 C 
HETATM   18  C   UNL     1       4.122   9.081  19.774  1.00  0.00    -0.047 C 
ENDROOT
BRANCH  11  19
HETATM   19  C   UNL     1       9.758   9.363  17.095  1.00  0.00     0.045 C 
HETATM   20  N   UNL     1      11.028   8.846  17.108  1.00  0.00    -0.323 N 
HETATM   21  C   UNL     1      12.136   9.409  16.498  1.00  0.00     0.248 C 
ATOM     22  HN  UNL     1      11.169   7.970  17.611  1.00  0.00     0.169 HD
HETATM   23  C   UNL     1      12.101  10.770  16.108  1.00  0.00     0.110 C 
HETATM   24  O   UNL     1      13.167   8.744  16.296  1.00  0.00    -0.268 OA
HETATM   25  C   UNL     1      11.207  11.291  15.202  1.00  0.00     0.071 C 
HETATM   26  C   UNL     1       9.928  10.771  15.042  1.00  0.00     0.039 C 
HETATM   27  C   UNL     1       9.260   9.994  15.958  1.00  0.00     0.033 C 
BRANCH  25  28
HETATM   28  O   UNL     1      11.567  12.363  14.475  1.00  0.00    -0.361 OA
ATOM     29  HO  UNL     1      12.441  12.718  14.584  1.00  0.00     0.217 HD
ENDBRANCH  25  28
ENDBRANCH  11  19
TORSDOF 2
