MODEL 1
REMARK VINA RESULT:      -9.6      0.000      0.000
REMARK  2 active torsions:
REMARK  status: ('A' for Active; 'I' for Inactive)
REMARK    1  A    between atoms: O_15  and  C_17 
REMARK    2  A    between atoms: C_17  and  C_18 
ROOT
HETATM    1  C   UNL     1      90.568  32.745  47.165  1.00  0.00     0.004 A 
HETATM    2  O   UNL     1      88.951  31.498  46.064  1.00  0.00    -0.289 OA
HETATM    3  C   UNL     1      89.800  34.000  47.449  1.00  0.00     0.049 A 
HETATM    4  C   UNL     1      91.806  32.745  47.819  1.00  0.00    -0.009 A 
HETATM    5  C   UNL     1      90.022  31.550  46.704  1.00  0.00     0.199 C 
HETATM    6  C   UNL     1      92.671  31.614  47.785  1.00  0.00     0.013 C 
HETATM    7  C   UNL     1      91.906  33.938  48.534  1.00  0.00     0.023 A 
HETATM    8  C   UNL     1      90.711  34.830  48.337  1.00  0.00     0.057 A 
HETATM    9 CL   UNL     1      92.980  34.288  49.767  1.00  0.00    -0.088 Cl
HETATM   10  C   UNL     1      90.709  30.240  47.073  1.00  0.00     0.168 C 
HETATM   11  C   UNL     1      92.207  30.425  47.171  1.00  0.00     0.025 C 
ENDROOT
BRANCH  10  12
HETATM   12  O   UNL     1      90.228  29.935  48.383  1.00  0.00    -0.373 OA
ATOM     13  HO  UNL     1      89.970  29.022  48.339  1.00  0.00     0.212 HD
ENDBRANCH  10  12
BRANCH  10  14
HETATM   14  C   UNL     1      90.296  29.154  46.095  1.00  0.00    -0.012 C 
HETATM   15  C   UNL     1      90.433  29.379  44.744  1.00  0.00     0.011 C 
HETATM   16  C   UNL     1      90.467  28.476  43.722  1.00  0.00     0.001 C 
HETATM   17  C   UNL     1      90.341  27.118  43.616  1.00  0.00     0.000 C 
HETATM   18  C   UNL     1      90.266  26.251  44.692  1.00  0.00     0.000 C 
HETATM   19  C   UNL     1      89.854  26.672  45.936  1.00  0.00     0.001 C 
HETATM   20  C   UNL     1      89.822  27.919  46.523  1.00  0.00     0.011 C 
ENDBRANCH  10  14
TORSDOF 2
ENDMDL
MODEL 2
REMARK VINA RESULT:      -9.5      2.976      6.090
REMARK  2 active torsions:
REMARK  status: ('A' for Active; 'I' for Inactive)
REMARK    1  A    between atoms: O_15  and  C_17 
REMARK    2  A    between atoms: C_17  and  C_18 
ROOT
HETATM    1  C   UNL     1      90.686  28.076  45.897  1.00  0.00     0.004 A 
HETATM    2  O   UNL     1      90.858  28.151  48.209  1.00  0.00    -0.289 OA
HETATM    3  C   UNL     1      89.839  26.852  45.724  1.00  0.00     0.049 A 
HETATM    4  C   UNL     1      90.847  28.759  44.685  1.00  0.00    -0.009 A 
HETATM    5  C   UNL     1      90.931  28.726  47.103  1.00  0.00     0.199 C 
HETATM    6  C   UNL     1      91.527  30.009  44.615  1.00  0.00     0.013 C 
HETATM    7  C   UNL     1      90.146  28.056  43.707  1.00  0.00     0.023 A 
HETATM    8  C   UNL     1      89.504  26.806  44.243  1.00  0.00     0.057 A 
HETATM    9 CL   UNL     1      89.694  28.611  42.196  1.00  0.00    -0.088 Cl
HETATM   10  C   UNL     1      91.208  30.225  47.084  1.00  0.00     0.168 C 
HETATM   11  C   UNL     1      91.942  30.623  45.822  1.00  0.00     0.025 C 
ENDROOT
BRANCH  10  12
HETATM   12  O   UNL     1      89.916  30.833  47.038  1.00  0.00    -0.373 OA
ATOM     13  HO  UNL     1      89.632  30.865  47.944  1.00  0.00     0.212 HD
ENDBRANCH  10  12
BRANCH  10  14
HETATM   14  C   UNL     1      91.933  30.626  48.357  1.00  0.00    -0.012 C 
HETATM   15  C   UNL     1      91.226  31.233  49.370  1.00  0.00     0.011 C 
HETATM   16  C   UNL     1      91.553  31.360  50.688  1.00  0.00     0.001 C 
HETATM   17  C   UNL     1      92.628  31.022  51.464  1.00  0.00     0.000 C 
HETATM   18  C   UNL     1      93.701  30.264  51.029  1.00  0.00     0.000 C 
HETATM   19  C   UNL     1      94.025  30.161  49.695  1.00  0.00     0.001 C 
HETATM   20  C   UNL     1      93.284  30.361  48.549  1.00  0.00     0.011 C 
ENDBRANCH  10  14
TORSDOF 2
ENDMDL
MODEL 3
REMARK VINA RESULT:      -9.3      1.224      2.226
REMARK  2 active torsions:
REMARK  status: ('A' for Active; 'I' for Inactive)
REMARK    1  A    between atoms: O_15  and  C_17 
REMARK    2  A    between atoms: C_17  and  C_18 
ROOT
HETATM    1  C   UNL     1      91.847  31.690  48.266  1.00  0.00     0.004 A 
HETATM    2  O   UNL     1      92.253  29.609  47.325  1.00  0.00    -0.289 OA
HETATM    3  C   UNL     1      93.088  31.868  49.087  1.00  0.00     0.049 A 
HETATM    4  C   UNL     1      91.086  32.865  48.232  1.00  0.00    -0.009 A 
HETATM    5  C   UNL     1      91.645  30.699  47.309  1.00  0.00     0.199 C 
HETATM    6  C   UNL     1      89.914  32.975  47.430  1.00  0.00     0.013 C 
HETATM    7  C   UNL     1      91.758  33.826  48.986  1.00  0.00     0.023 A 
HETATM    8  C   UNL     1      93.017  33.291  49.612  1.00  0.00     0.057 A 
HETATM    9 CL   UNL     1      91.503  35.478  48.973  1.00  0.00    -0.088 Cl
HETATM   10  C   UNL     1      90.713  30.990  46.138  1.00  0.00     0.168 C 
HETATM   11  C   UNL     1      89.584  31.906  46.562  1.00  0.00     0.025 C 
ENDROOT
BRANCH  10  12
HETATM   12  O   UNL     1      91.519  31.708  45.202  1.00  0.00    -0.373 OA
ATOM     13  HO  UNL     1      90.911  32.281  44.750  1.00  0.00     0.212 HD
ENDBRANCH  10  12
BRANCH  10  14
HETATM   14  C   UNL     1      90.235  29.684  45.529  1.00  0.00    -0.012 C 
HETATM   15  C   UNL     1      90.397  29.473  44.179  1.00  0.00     0.011 C 
HETATM   16  C   UNL     1      90.378  28.299  43.485  1.00  0.00     0.001 C 
HETATM   17  C   UNL     1      90.160  26.985  43.797  1.00  0.00     0.000 C 
HETATM   18  C   UNL     1      90.019  26.498  45.084  1.00  0.00     0.000 C 
HETATM   19  C   UNL     1      89.628  27.306  46.128  1.00  0.00     0.001 C 
HETATM   20  C   UNL     1      89.675  28.673  46.302  1.00  0.00     0.011 C 
ENDBRANCH  10  14
TORSDOF 2
ENDMDL
MODEL 4
REMARK VINA RESULT:      -9.2      2.529      6.230
REMARK  2 active torsions:
REMARK  status: ('A' for Active; 'I' for Inactive)
REMARK    1  A    between atoms: O_15  and  C_17 
REMARK    2  A    between atoms: C_17  and  C_18 
ROOT
HETATM    1  C   UNL     1      90.685  28.774  46.917  1.00  0.00     0.004 A 
HETATM    2  O   UNL     1      90.695  30.153  48.782  1.00  0.00    -0.289 OA
HETATM    3  C   UNL     1      90.119  27.518  47.507  1.00  0.00     0.049 A 
HETATM    4  C   UNL     1      90.779  28.684  45.523  1.00  0.00    -0.009 A 
HETATM    5  C   UNL     1      90.716  30.018  47.541  1.00  0.00     0.199 C 
HETATM    6  C   UNL     1      91.191  29.792  44.728  1.00  0.00     0.013 C 
HETATM    7  C   UNL     1      90.298  27.431  45.147  1.00  0.00     0.023 A 
HETATM    8  C   UNL     1      89.894  26.590  46.326  1.00  0.00     0.057 A 
HETATM    9 CL   UNL     1      89.837  26.947  43.614  1.00  0.00    -0.088 Cl
HETATM   10  C   UNL     1      90.682  31.273  46.676  1.00  0.00     0.168 C 
HETATM   11  C   UNL     1      91.396  31.042  45.361  1.00  0.00     0.025 C 
ENDROOT
BRANCH  10  12
HETATM   12  O   UNL     1      89.298  31.472  46.382  1.00  0.00    -0.373 OA
ATOM     13  HO  UNL     1      88.847  30.798  46.877  1.00  0.00     0.212 HD
ENDBRANCH  10  12
BRANCH  10  14
HETATM   14  C   UNL     1      91.228  32.451  47.462  1.00  0.00    -0.012 C 
HETATM   15  C   UNL     1      90.376  33.465  47.833  1.00  0.00     0.011 C 
HETATM   16  C   UNL     1      90.537  34.412  48.802  1.00  0.00     0.001 C 
HETATM   17  C   UNL     1      91.530  34.748  49.682  1.00  0.00     0.000 C 
HETATM   18  C   UNL     1      92.685  34.012  49.879  1.00  0.00     0.000 C 
HETATM   19  C   UNL     1      93.169  33.150  48.920  1.00  0.00     0.001 C 
HETATM   20  C   UNL     1      92.560  32.517  47.858  1.00  0.00     0.011 C 
ENDBRANCH  10  14
TORSDOF 2
ENDMDL
MODEL 5
REMARK VINA RESULT:      -8.9      1.677      2.135
REMARK  2 active torsions:
REMARK  status: ('A' for Active; 'I' for Inactive)
REMARK    1  A    between atoms: O_15  and  C_17 
REMARK    2  A    between atoms: C_17  and  C_18 
ROOT
HETATM    1  C   UNL     1      92.310  31.274  48.040  1.00  0.00     0.004 A 
HETATM    2  O   UNL     1      92.246  30.570  45.831  1.00  0.00    -0.289 OA
HETATM    3  C   UNL     1      93.377  32.324  47.963  1.00  0.00     0.049 A 
HETATM    4  C   UNL     1      91.674  31.285  49.287  1.00  0.00    -0.009 A 
HETATM    5  C   UNL     1      91.700  30.659  46.950  1.00  0.00     0.199 C 
HETATM    6  C   UNL     1      90.556  30.447  49.565  1.00  0.00     0.013 C 
HETATM    7  C   UNL     1      92.258  32.295  50.051  1.00  0.00     0.023 A 
HETATM    8  C   UNL     1      93.378  32.991  49.327  1.00  0.00     0.057 A 
HETATM    9 CL   UNL     1      91.648  32.985  51.446  1.00  0.00    -0.088 Cl
HETATM   10  C   UNL     1      90.269  30.156  47.100  1.00  0.00     0.168 C 
HETATM   11  C   UNL     1      90.010  29.675  48.511  1.00  0.00     0.025 C 
ENDROOT
BRANCH  10  12
HETATM   12  O   UNL     1      89.454  31.310  46.884  1.00  0.00    -0.373 OA
ATOM     13  HO  UNL     1      88.610  30.962  46.620  1.00  0.00     0.212 HD
ENDBRANCH  10  12
BRANCH  10  14
HETATM   14  C   UNL     1      89.984  29.105  46.041  1.00  0.00    -0.012 C 
HETATM   15  C   UNL     1      89.960  29.476  44.716  1.00  0.00     0.011 C 
HETATM   16  C   UNL     1      90.075  28.695  43.603  1.00  0.00     0.001 C 
HETATM   17  C   UNL     1      90.197  27.353  43.362  1.00  0.00     0.000 C 
HETATM   18  C   UNL     1      90.378  26.393  44.341  1.00  0.00     0.000 C 
HETATM   19  C   UNL     1      90.003  26.610  45.648  1.00  0.00     0.001 C 
HETATM   20  C   UNL     1      89.788  27.767  46.366  1.00  0.00     0.011 C 
ENDBRANCH  10  14
TORSDOF 2
ENDMDL
MODEL 6
REMARK VINA RESULT:      -8.8      1.397      2.673
REMARK  2 active torsions:
REMARK  status: ('A' for Active; 'I' for Inactive)
REMARK    1  A    between atoms: O_15  and  C_17 
REMARK    2  A    between atoms: C_17  and  C_18 
ROOT
HETATM    1  C   UNL     1      92.214  31.709  48.380  1.00  0.00     0.004 A 
HETATM    2  O   UNL     1      92.972  29.790  47.320  1.00  0.00    -0.289 OA
HETATM    3  C   UNL     1      93.404  32.044  49.227  1.00  0.00     0.049 A 
HETATM    4  C   UNL     1      91.264  32.738  48.407  1.00  0.00    -0.009 A 
HETATM    5  C   UNL     1      92.187  30.760  47.362  1.00  0.00     0.199 C 
HETATM    6  C   UNL     1      90.092  32.696  47.599  1.00  0.00     0.013 C 
HETATM    7  C   UNL     1      91.760  33.750  49.228  1.00  0.00     0.023 A 
HETATM    8  C   UNL     1      93.090  33.399  49.836  1.00  0.00     0.057 A 
HETATM    9 CL   UNL     1      91.227  35.332  49.312  1.00  0.00    -0.088 Cl
HETATM   10  C   UNL     1      91.222  30.961  46.199  1.00  0.00     0.168 C 
HETATM   11  C   UNL     1      89.953  31.643  46.662  1.00  0.00     0.025 C 
ENDROOT
BRANCH  10  12
HETATM   12  O   UNL     1      91.896  31.862  45.319  1.00  0.00    -0.373 OA
ATOM     13  HO  UNL     1      92.621  32.201  45.831  1.00  0.00     0.212 HD
ENDBRANCH  10  12
BRANCH  10  14
HETATM   14  C   UNL     1      90.976  29.632  45.505  1.00  0.00    -0.012 C 
HETATM   15  C   UNL     1      90.556  28.554  46.249  1.00  0.00     0.011 C 
HETATM   16  C   UNL     1      89.953  27.404  45.830  1.00  0.00     0.001 C 
HETATM   17  C   UNL     1      89.597  26.874  44.619  1.00  0.00     0.000 C 
HETATM   18  C   UNL     1      89.677  27.549  43.414  1.00  0.00     0.000 C 
HETATM   19  C   UNL     1      90.526  28.618  43.236  1.00  0.00     0.001 C 
HETATM   20  C   UNL     1      91.121  29.482  44.131  1.00  0.00     0.011 C 
ENDBRANCH  10  14
TORSDOF 2
ENDMDL
MODEL 7
REMARK VINA RESULT:      -8.7      2.644      6.196
REMARK  2 active torsions:
REMARK  status: ('A' for Active; 'I' for Inactive)
REMARK    1  A    between atoms: O_15  and  C_17 
REMARK    2  A    between atoms: C_17  and  C_18 
ROOT
HETATM    1  C   UNL     1      90.952  29.836  45.487  1.00  0.00     0.004 A 
HETATM    2  O   UNL     1      91.891  31.928  45.837  1.00  0.00    -0.289 OA
HETATM    3  C   UNL     1      91.354  29.589  44.064  1.00  0.00     0.049 A 
HETATM    4  C   UNL     1      90.390  28.690  46.063  1.00  0.00    -0.009 A 
HETATM    5  C   UNL     1      91.433  30.861  46.296  1.00  0.00     0.199 C 
HETATM    6  C   UNL     1      90.026  28.646  47.439  1.00  0.00     0.013 C 
HETATM    7  C   UNL     1      90.398  27.684  45.098  1.00  0.00     0.023 A 
HETATM    8  C   UNL     1      90.946  28.155  43.779  1.00  0.00     0.057 A 
HETATM    9 CL   UNL     1      90.201  26.043  45.350  1.00  0.00    -0.088 Cl
HETATM   10  C   UNL     1      91.490  30.638  47.804  1.00  0.00     0.168 C 
HETATM   11  C   UNL     1      90.353  29.751  48.262  1.00  0.00     0.025 C 
ENDROOT
BRANCH  10  12
HETATM   12  O   UNL     1      92.707  29.920  48.018  1.00  0.00    -0.373 OA
ATOM     13  HO  UNL     1      92.711  29.726  48.949  1.00  0.00     0.212 HD
ENDBRANCH  10  12
BRANCH  10  14
HETATM   14  C   UNL     1      91.537  31.978  48.516  1.00  0.00    -0.012 C 
HETATM   15  C   UNL     1      92.655  32.313  49.246  1.00  0.00     0.011 C 
HETATM   16  C   UNL     1      93.071  33.542  49.665  1.00  0.00     0.001 C 
HETATM   17  C   UNL     1      92.578  34.817  49.589  1.00  0.00     0.000 C 
HETATM   18  C   UNL     1      91.461  35.184  48.860  1.00  0.00     0.000 C 
HETATM   19  C   UNL     1      90.484  34.274  48.522  1.00  0.00     0.001 C 
HETATM   20  C   UNL     1      90.500  32.899  48.420  1.00  0.00     0.011 C 
ENDBRANCH  10  14
TORSDOF 2
ENDMDL
