REMARK  4 active torsions:
REMARK  status: ('A' for Active; 'I' for Inactive)
REMARK    1  A    between atoms: C_6  and  C_17 
REMARK    2  A    between atoms: C_6  and  C_23 
REMARK    3  A    between atoms: O_13  and  C_18 
REMARK    4  A    between atoms: C_18  and  N_22 
ROOT
HETATM    1  C   UNL     1     -28.105   9.373  15.923  1.00  0.00     0.046 C 
HETATM    2  O   UNL     1     -25.878  11.805  19.094  1.00  0.00    -0.258 OA
HETATM    3  C   UNL     1     -29.262   8.854  15.334  1.00  0.00     0.137 C 
HETATM    4  S   UNL     1     -24.623  11.000  19.058  1.00  0.00     0.283 S 
HETATM    5  C   UNL     1     -25.793   9.680  17.190  1.00  0.00     0.700 C 
HETATM    6  C   UNL     1     -27.866   7.092  15.690  1.00  0.00     0.041 C 
HETATM    7  C   UNL     1     -27.046  11.075  18.718  1.00  0.00     0.338 C 
HETATM    8  N   UNL     1     -25.974   8.473  16.632  1.00  0.00    -0.190 N 
ATOM      9  HN  UNL     1     -25.249   7.756  16.595  1.00  0.00     0.184 HD
HETATM   10  O   UNL     1     -23.493  11.627  19.541  1.00  0.00    -0.203 OA
HETATM   11  C   UNL     1     -27.220   8.304  16.122  1.00  0.00     0.064 C 
HETATM   12  C   UNL     1     -27.794  10.649  16.408  1.00  0.00     0.128 C 
HETATM   13  F   UNL     1     -30.413   9.484  15.153  1.00  0.00    -0.204 F 
HETATM   14  N   UNL     1     -26.834  10.557  17.375  1.00  0.00    -0.168 N 
HETATM   15  N   UNL     1     -24.610  10.063  17.792  1.00  0.00    -0.084 N 
HETATM   16  C   UNL     1     -29.007   7.507  15.017  1.00  0.00    -0.006 C 
ENDROOT
BRANCH  16  17
HETATM   17  C   UNL     1     -29.361   6.965  13.643  1.00  0.00     0.155 C 
BRANCH  17  18
HETATM   18  C   UNL     1     -28.088   6.873  12.803  1.00  0.00     0.177 C 
HETATM   19  O   UNL     1     -27.594   7.943  12.360  1.00  0.00    -0.648 OA
HETATM   20  O   UNL     1     -27.556   5.758  12.605  1.00  0.00    -0.648 OA
ENDBRANCH  17  18
ENDBRANCH  16  17
BRANCH  15  21
HETATM   21  C   UNL     1     -23.343   9.990  17.057  1.00  0.00     0.326 C 
BRANCH  21  22
HETATM   22  O   UNL     1     -22.242   9.958  17.942  1.00  0.00    -0.380 OA
ATOM     23  HO  UNL     1     -21.421   9.911  17.466  1.00  0.00     0.211 HD
ENDBRANCH  21  22
ENDBRANCH  15  21
TORSDOF 4
