REMARK  0 active torsions:
REMARK  status: ('A' for Active; 'I' for Inactive)
ROOT
HETATM    1  C   UNL     1       8.864  33.835  20.488  1.00  0.00     0.054 C 
HETATM    2  C   UNL     1       8.789  32.016  22.236  1.00  0.00     0.095 C 
HETATM    3  C   UNL     1       8.991  36.275  18.451  1.00  0.00     0.177 C 
HETATM    4 CL   UNL     1      12.706  29.709  22.997  1.00  0.00    -0.083 Cl
HETATM    5  N   UNL     1       7.928  36.910  16.341  1.00  0.00    -0.349 N 
ATOM      6  HN  UNL     1       7.029  37.166  16.750  1.00  0.00     0.167 HD
HETATM    7  C   UNL     1       9.570  33.198  18.191  1.00  0.00    -0.015 C 
HETATM    8  C   UNL     1       8.264  37.435  15.170  1.00  0.00     0.180 C 
HETATM    9  C   UNL     1       9.921  34.044  19.385  1.00  0.00    -0.008 C 
HETATM   10  C   UNL     1      10.039  34.929  15.247  1.00  0.00     0.031 C 
HETATM   11  C   UNL     1      10.902  32.769  21.181  1.00  0.00    -0.048 C 
HETATM   12  N   UNL     1       9.195  31.269  23.283  1.00  0.00    -0.373 N 
ATOM     13  HN  UNL     1       8.470  30.861  23.873  1.00  0.00     0.164 HD
HETATM   14  C   UNL     1      11.264  33.573  19.950  1.00  0.00     0.053 C 
HETATM   15  C   UNL     1       9.019  33.564  17.035  1.00  0.00     0.011 C 
HETATM   16  C   UNL     1      10.144  35.521  19.065  1.00  0.00     0.099 C 
HETATM   17  C   UNL     1      11.837  32.019  21.847  1.00  0.00     0.033 C 
HETATM   18  N   UNL     1       9.286  37.113  14.387  1.00  0.00    -0.362 N 
ATOM     19  HN  UNL     1       9.607  37.841  13.748  1.00  0.00     0.165 HD
HETATM   20  C   UNL     1       8.727  36.046  17.020  1.00  0.00     0.089 C 
HETATM   21  C   UNL     1      11.593  31.044  22.810  1.00  0.00     0.050 C 
HETATM   22  C   UNL     1       9.538  32.856  21.437  1.00  0.00    -0.035 C 
HETATM   23  C   UNL     1       9.946  35.952  14.333  1.00  0.00     0.089 C 
HETATM   24  O   UNL     1       8.308  37.049  19.100  1.00  0.00    -0.291 OA
HETATM   25  C   UNL     1      10.460  31.018  23.614  1.00  0.00     0.111 C 
HETATM   26  C   UNL     1       9.275  34.871  16.413  1.00  0.00    -0.005 C 
ENDROOT
TORSDOF 0
