REMARK  1 active torsions:
REMARK  status: ('A' for Active; 'I' for Inactive)
REMARK    1  A    between atoms: O_14  and  C_18 
ROOT
HETATM    1  C   UNL     1       7.807  37.148  15.828  1.00  0.00     0.012 C 
HETATM    2  C   UNL     1       9.338  32.248  21.609  1.00  0.00    -0.006 C 
HETATM    3  C   UNL     1      10.299  34.361  20.327  1.00  0.00     0.025 C 
HETATM    4  C   UNL     1       9.575  37.147  14.161  1.00  0.00     0.000 C 
HETATM    5  C   UNL     1       9.726  30.891  23.573  1.00  0.00     0.004 C 
HETATM    6  C   UNL     1       8.901  33.902  17.183  1.00  0.00     0.025 C 
HETATM    7  C   UNL     1       9.260  35.659  18.798  1.00  0.00    -0.041 C 
HETATM    8  C   UNL     1       9.281  33.585  19.687  1.00  0.00    -0.002 C 
HETATM    9  C   UNL     1       8.826  31.476  22.664  1.00  0.00     0.014 C 
HETATM   10  C   UNL     1       8.430  36.273  16.714  1.00  0.00    -0.025 C 
HETATM   11  C   UNL     1       8.386  37.606  14.650  1.00  0.00     0.001 C 
HETATM   12  C   UNL     1       8.598  36.638  18.064  1.00  0.00     0.020 C 
HETATM   13  C   UNL     1      10.073  35.882  14.285  1.00  0.00     0.001 C 
HETATM   14  C   UNL     1      10.715  32.523  21.588  1.00  0.00     0.076 C 
HETATM   15  C   UNL     1       8.601  32.652  20.469  1.00  0.00     0.028 C 
HETATM   16  C   UNL     1      11.561  31.593  22.193  1.00  0.00     0.093 C 
HETATM   17  C   UNL     1       8.923  34.986  16.281  1.00  0.00    -0.025 C 
HETATM   18  C   UNL     1       8.924  34.303  18.525  1.00  0.00    -0.016 C 
HETATM   19  C   UNL     1       9.628  34.848  15.089  1.00  0.00     0.012 C 
HETATM   20  C   UNL     1      10.265  35.783  19.895  1.00  0.00     0.097 C 
HETATM   21  C   UNL     1      11.086  30.813  23.248  1.00  0.00     0.039 C 
HETATM   22  N   UNL     1      11.196  33.690  21.053  1.00  0.00    -0.356 N 
ATOM     23  HN  UNL     1      12.152  34.016  21.197  1.00  0.00     0.166 HD
ENDROOT
BRANCH  16  24
HETATM   24  O   UNL     1      12.750  31.299  21.600  1.00  0.00    -0.358 OA
ATOM     25  HO  UNL     1      13.326  30.666  22.012  1.00  0.00     0.217 HD
ENDBRANCH  16  24
TORSDOF 1
