MODEL 1
REMARK VINA RESULT:      -9.2      0.000      0.000
REMARK  15 active torsions:
REMARK  status: ('A' for Active; 'I' for Inactive)
REMARK    1  A    between atoms: C_1  and  C_2 
REMARK    2  A    between atoms: C_1  and  C_41 
REMARK    3  A    between atoms: C_2  and  C_8 
REMARK    4  A    between atoms: N_3  and  C_19 
REMARK    5  A    between atoms: C_5  and  C_51 
REMARK    6  A    between atoms: C_6  and  N_13 
REMARK    7  A    between atoms: C_8  and  N_22 
REMARK    8  A    between atoms: C_10  and  C_45 
REMARK    9  A    between atoms: C_20  and  C_45 
REMARK   10  A    between atoms: N_22  and  C_26 
REMARK   11  A    between atoms: C_25  and  O_48 
REMARK   12  A    between atoms: C_26  and  C_31 
REMARK   13  A    between atoms: C_31  and  C_40 
REMARK   14  A    between atoms: C_33  and  C_39 
REMARK       I    between atoms: C_33  and  N_42 
REMARK   15  A    between atoms: C_34  and  C_40 
ROOT
HETATM    1  C   UNL     1      -1.124  14.342  14.586  1.00  0.00     0.035 C 
HETATM    2  C   UNL     1       1.543  15.122  14.257  1.00  0.00     0.101 C 
HETATM    3  C   UNL     1      -0.802  15.685  14.364  1.00  0.00     0.039 C 
HETATM    4  O   UNL     1       2.042  12.833  14.574  1.00  0.00    -0.266 OA
HETATM    5  C   UNL     1       0.523  16.094  14.380  1.00  0.00    -0.024 C 
HETATM    6  N   UNL     1      -0.129  13.422  14.774  1.00  0.00    -0.322 N 
ATOM      7  HN  UNL     1      -0.367  12.486  15.104  1.00  0.00     0.169 HD
HETATM    8  C   UNL     1       1.186  13.739  14.527  1.00  0.00     0.272 C 
ENDROOT
BRANCH   1   9
HETATM    9  C   UNL     1      -2.554  13.903  14.571  1.00  0.00     0.029 C 
HETATM   10  C   UNL     1      -3.438  14.164  15.590  1.00  0.00     0.003 C 
BRANCH  10  11
HETATM   11  C   UNL     1      -4.016  15.134  16.387  1.00  0.00     0.013 C 
BRANCH  11  12
HETATM   12  C   UNL     1      -4.292  16.509  15.869  1.00  0.00    -0.021 C 
HETATM   13  C   UNL     1      -3.828  16.928  14.607  1.00  0.00     0.101 C 
HETATM   14  N   UNL     1      -3.999  18.189  14.151  1.00  0.00    -0.351 N 
HETATM   15  C   UNL     1      -4.785  19.047  14.880  1.00  0.00     0.109 C 
ATOM     16  HN  UNL     1      -3.555  18.496  13.286  1.00  0.00     0.166 HD
HETATM   17  C   UNL     1      -5.162  18.729  16.185  1.00  0.00     0.050 C 
HETATM   18  C   UNL     1      -4.985  17.433  16.635  1.00  0.00     0.016 C 
BRANCH  15  19
HETATM   19  N   UNL     1      -5.134  20.310  14.351  1.00  0.00    -0.301 N 
HETATM   20  C   UNL     1      -6.493  20.617  13.891  1.00  0.00     0.151 C 
HETATM   21  C   UNL     1      -6.329  21.913  13.105  1.00  0.00     0.134 C 
HETATM   22  C   UNL     1      -4.836  22.097  12.869  1.00  0.00     0.225 C 
HETATM   23  C   UNL     1      -4.206  21.220  13.935  1.00  0.00     0.255 C 
HETATM   24  O   UNL     1      -3.078  21.328  14.354  1.00  0.00    -0.270 OA
BRANCH  21  25
HETATM   25  C   UNL     1      -7.044  21.868  11.758  1.00  0.00     0.224 C 
HETATM   26  O   UNL     1      -7.862  20.943  11.586  1.00  0.00    -0.273 OA
HETATM   27  N   UNL     1      -6.849  22.846  10.878  1.00  0.00    -0.370 N 
ATOM     28  HN2 UNL     1      -7.326  22.817   9.977  1.00  0.00     0.159 HD
ATOM     29  HN1 UNL     1      -6.180  23.603  11.017  1.00  0.00     0.159 HD
ENDBRANCH  21  25
BRANCH  22  30
HETATM   30  O   UNL     1      -4.444  23.461  12.929  1.00  0.00    -0.385 OA
ATOM     31  HO  UNL     1      -5.039  24.057  12.489  1.00  0.00     0.210 HD
ENDBRANCH  22  30
ENDBRANCH  15  19
ENDBRANCH  11  12
ENDBRANCH  10  11
ENDBRANCH   1   9
BRANCH   5  32
HETATM   32  C   UNL     1       0.872  17.571  14.561  1.00  0.00     0.043 C 
BRANCH  32  33
HETATM   33  C   UNL     1      -0.323  18.488  14.872  1.00  0.00     0.032 C 
BRANCH  33  34
HETATM   34  C   UNL     1       0.121  19.969  14.834  1.00  0.00     0.232 C 
BRANCH  34  35
HETATM   35  N   UNL     1       1.104  20.146  13.720  1.00  0.00    -0.075 N 
ATOM     36  HN2 UNL     1       1.431  19.259  13.337  1.00  0.00     0.277 HD
ATOM     37  HN1 UNL     1       0.675  20.512  12.870  1.00  0.00     0.277 HD
BRANCH  35  38
HETATM   38  C   UNL     1       2.195  20.986  14.208  1.00  0.00     0.232 C 
BRANCH  38  39
HETATM   39  C   UNL     1       3.172  20.295  15.125  1.00  0.00     0.028 C 
BRANCH  39  40
HETATM   40  C   UNL     1       4.574  20.308  14.685  1.00  0.00     0.008 C 
BRANCH  40  41
HETATM   41  C   UNL     1       5.349  21.549  14.702  1.00  0.00     0.017 C 
HETATM   42  C   UNL     1       5.788  22.220  16.013  1.00  0.00     0.190 C 
HETATM   43  C   UNL     1       7.261  22.454  15.663  1.00  0.00     0.039 C 
HETATM   44  N   UNL     1       5.214  23.601  15.870  1.00  0.00    -0.070 N 
HETATM   45  C   UNL     1       7.015  23.201  14.357  1.00  0.00     0.014 C 
HETATM   46  C   UNL     1       5.997  24.277  14.802  1.00  0.00     0.237 C 
HETATM   47  C   UNL     1       6.079  22.228  13.548  1.00  0.00     0.013 C 
ATOM     48  HN2 UNL     1       5.192  24.122  16.747  1.00  0.00     0.277 HD
ATOM     49  HN1 UNL     1       4.209  23.604  15.696  1.00  0.00     0.277 HD
ENDBRANCH  40  41
ENDBRANCH  39  40
ENDBRANCH  38  39
ENDBRANCH  35  38
ENDBRANCH  34  35
ENDBRANCH  33  34
ENDBRANCH  32  33
ENDBRANCH   5  32
BRANCH   2  50
HETATM   50  N   UNL     1       2.777  15.440  13.785  1.00  0.00    -0.394 N 
ATOM     51  HN2 UNL     1       2.940  15.552  12.784  1.00  0.00     0.156 HD
ATOM     52  HN1 UNL     1       3.548  15.667  14.414  1.00  0.00     0.156 HD
ENDBRANCH   2  50
TORSDOF 15
ENDMDL
MODEL 2
REMARK VINA RESULT:      -9.1      4.657      7.729
REMARK  15 active torsions:
REMARK  status: ('A' for Active; 'I' for Inactive)
REMARK    1  A    between atoms: C_1  and  C_2 
REMARK    2  A    between atoms: C_1  and  C_41 
REMARK    3  A    between atoms: C_2  and  C_8 
REMARK    4  A    between atoms: N_3  and  C_19 
REMARK    5  A    between atoms: C_5  and  C_51 
REMARK    6  A    between atoms: C_6  and  N_13 
REMARK    7  A    between atoms: C_8  and  N_22 
REMARK    8  A    between atoms: C_10  and  C_45 
REMARK    9  A    between atoms: C_20  and  C_45 
REMARK   10  A    between atoms: N_22  and  C_26 
REMARK   11  A    between atoms: C_25  and  O_48 
REMARK   12  A    between atoms: C_26  and  C_31 
REMARK   13  A    between atoms: C_31  and  C_40 
REMARK   14  A    between atoms: C_33  and  C_39 
REMARK       I    between atoms: C_33  and  N_42 
REMARK   15  A    between atoms: C_34  and  C_40 
ROOT
HETATM    1  C   UNL     1      -1.775  15.325  14.422  1.00  0.00     0.035 C 
HETATM    2  C   UNL     1      -3.355  13.041  14.082  1.00  0.00     0.101 C 
HETATM    3  C   UNL     1      -1.382  14.104  14.980  1.00  0.00     0.039 C 
HETATM    4  O   UNL     1      -4.800  14.466  12.869  1.00  0.00    -0.266 OA
HETATM    5  C   UNL     1      -2.249  13.022  14.963  1.00  0.00    -0.024 C 
HETATM    6  N   UNL     1      -2.998  15.441  13.820  1.00  0.00    -0.322 N 
ATOM      7  HN  UNL     1      -3.350  16.366  13.571  1.00  0.00     0.169 HD
HETATM    8  C   UNL     1      -3.761  14.330  13.546  1.00  0.00     0.272 C 
ENDROOT
BRANCH   1   9
HETATM    9  C   UNL     1      -0.841  16.493  14.443  1.00  0.00     0.029 C 
HETATM   10  C   UNL     1      -1.261  17.799  14.527  1.00  0.00     0.003 C 
BRANCH  10  11
HETATM   11  C   UNL     1      -2.011  18.720  15.234  1.00  0.00     0.013 C 
BRANCH  11  12
HETATM   12  C   UNL     1      -3.108  19.500  14.584  1.00  0.00    -0.021 C 
HETATM   13  C   UNL     1      -3.043  20.901  14.461  1.00  0.00     0.101 C 
HETATM   14  N   UNL     1      -4.056  21.634  13.946  1.00  0.00    -0.351 N 
HETATM   15  C   UNL     1      -5.121  20.974  13.384  1.00  0.00     0.109 C 
ATOM     16  HN  UNL     1      -4.030  22.653  13.974  1.00  0.00     0.166 HD
HETATM   17  C   UNL     1      -5.295  19.605  13.587  1.00  0.00     0.050 C 
HETATM   18  C   UNL     1      -4.247  18.868  14.110  1.00  0.00     0.016 C 
BRANCH  15  19
HETATM   19  N   UNL     1      -6.109  21.696  12.679  1.00  0.00    -0.301 N 
HETATM   20  C   UNL     1      -7.412  21.114  12.340  1.00  0.00     0.151 C 
HETATM   21  C   UNL     1      -7.991  22.082  11.316  1.00  0.00     0.134 C 
HETATM   22  C   UNL     1      -6.848  22.983  10.869  1.00  0.00     0.225 C 
HETATM   23  C   UNL     1      -5.839  22.845  11.992  1.00  0.00     0.255 C 
HETATM   24  O   UNL     1      -4.958  23.632  12.243  1.00  0.00    -0.270 OA
BRANCH  21  25
HETATM   25  C   UNL     1      -8.564  21.365  10.097  1.00  0.00     0.224 C 
HETATM   26  O   UNL     1      -8.024  20.287   9.775  1.00  0.00    -0.273 OA
HETATM   27  N   UNL     1      -9.649  21.848   9.499  1.00  0.00    -0.370 N 
ATOM     28  HN2 UNL     1     -10.032  21.369   8.685  1.00  0.00     0.159 HD
ATOM     29  HN1 UNL     1     -10.091  22.729   9.762  1.00  0.00     0.159 HD
ENDBRANCH  21  25
BRANCH  22  30
HETATM   30  O   UNL     1      -7.275  24.318  10.630  1.00  0.00    -0.385 OA
ATOM     31  HO  UNL     1      -6.725  24.981  11.029  1.00  0.00     0.210 HD
ENDBRANCH  22  30
ENDBRANCH  15  19
ENDBRANCH  11  12
ENDBRANCH  10  11
ENDBRANCH   1   9
BRANCH   5  32
HETATM   32  C   UNL     1      -2.026  11.841  15.908  1.00  0.00     0.043 C 
BRANCH  32  33
HETATM   33  C   UNL     1      -1.523  12.218  17.312  1.00  0.00     0.032 C 
BRANCH  33  34
HETATM   34  C   UNL     1      -2.678  12.823  18.145  1.00  0.00     0.232 C 
BRANCH  34  35
HETATM   35  N   UNL     1      -3.976  12.298  17.616  1.00  0.00    -0.075 N 
ATOM     36  HN2 UNL     1      -3.883  11.871  16.694  1.00  0.00     0.277 HD
ATOM     37  HN1 UNL     1      -4.301  11.471  18.118  1.00  0.00     0.277 HD
BRANCH  35  38
HETATM   38  C   UNL     1      -4.947  13.388  17.637  1.00  0.00     0.232 C 
BRANCH  38  39
HETATM   39  C   UNL     1      -4.369  14.763  17.422  1.00  0.00     0.028 C 
BRANCH  39  40
HETATM   40  C   UNL     1      -5.202  15.688  16.641  1.00  0.00     0.008 C 
BRANCH  40  41
HETATM   41  C   UNL     1      -5.996  16.721  17.308  1.00  0.00     0.017 C 
HETATM   42  C   UNL     1      -7.047  16.380  18.375  1.00  0.00     0.190 C 
HETATM   43  C   UNL     1      -6.626  17.398  19.439  1.00  0.00     0.039 C 
HETATM   44  N   UNL     1      -8.286  17.018  17.812  1.00  0.00    -0.070 N 
HETATM   45  C   UNL     1      -6.682  18.627  18.540  1.00  0.00     0.014 C 
HETATM   46  C   UNL     1      -8.088  18.488  17.912  1.00  0.00     0.237 C 
HETATM   47  C   UNL     1      -5.774  18.229  17.317  1.00  0.00     0.013 C 
ATOM     48  HN2 UNL     1      -9.145  16.694  18.259  1.00  0.00     0.277 HD
ATOM     49  HN1 UNL     1      -8.509  16.704  16.868  1.00  0.00     0.277 HD
ENDBRANCH  40  41
ENDBRANCH  39  40
ENDBRANCH  38  39
ENDBRANCH  35  38
ENDBRANCH  34  35
ENDBRANCH  33  34
ENDBRANCH  32  33
ENDBRANCH   5  32
BRANCH   2  50
HETATM   50  N   UNL     1      -3.942  11.894  13.651  1.00  0.00    -0.394 N 
ATOM     51  HN2 UNL     1      -4.127  11.128  14.298  1.00  0.00     0.156 HD
ATOM     52  HN1 UNL     1      -4.297  11.800  12.699  1.00  0.00     0.156 HD
ENDBRANCH   2  50
TORSDOF 15
ENDMDL
MODEL 3
REMARK VINA RESULT:      -8.9      3.919     11.026
REMARK  15 active torsions:
REMARK  status: ('A' for Active; 'I' for Inactive)
REMARK    1  A    between atoms: C_1  and  C_2 
REMARK    2  A    between atoms: C_1  and  C_41 
REMARK    3  A    between atoms: C_2  and  C_8 
REMARK    4  A    between atoms: N_3  and  C_19 
REMARK    5  A    between atoms: C_5  and  C_51 
REMARK    6  A    between atoms: C_6  and  N_13 
REMARK    7  A    between atoms: C_8  and  N_22 
REMARK    8  A    between atoms: C_10  and  C_45 
REMARK    9  A    between atoms: C_20  and  C_45 
REMARK   10  A    between atoms: N_22  and  C_26 
REMARK   11  A    between atoms: C_25  and  O_48 
REMARK   12  A    between atoms: C_26  and  C_31 
REMARK   13  A    between atoms: C_31  and  C_40 
REMARK   14  A    between atoms: C_33  and  C_39 
REMARK       I    between atoms: C_33  and  N_42 
REMARK   15  A    between atoms: C_34  and  C_40 
ROOT
HETATM    1  C   UNL     1      -5.248  20.462  15.105  1.00  0.00     0.035 C 
HETATM    2  C   UNL     1      -7.361  19.973  16.872  1.00  0.00     0.101 C 
HETATM    3  C   UNL     1      -5.276  19.288  15.865  1.00  0.00     0.039 C 
HETATM    4  O   UNL     1      -8.185  22.068  16.151  1.00  0.00    -0.266 OA
HETATM    5  C   UNL     1      -6.225  19.131  16.865  1.00  0.00    -0.024 C 
HETATM    6  N   UNL     1      -6.183  21.438  15.317  1.00  0.00    -0.322 N 
ATOM      7  HN  UNL     1      -6.058  22.355  14.888  1.00  0.00     0.169 HD
HETATM    8  C   UNL     1      -7.288  21.203  16.100  1.00  0.00     0.272 C 
ENDROOT
BRANCH   1   9
HETATM    9  C   UNL     1      -4.223  20.632  14.029  1.00  0.00     0.029 C 
HETATM   10  C   UNL     1      -2.889  20.847  14.279  1.00  0.00     0.003 C 
BRANCH  10  11
HETATM   11  C   UNL     1      -1.755  20.392  14.925  1.00  0.00     0.013 C 
BRANCH  11  12
HETATM   12  C   UNL     1      -1.272  18.987  14.762  1.00  0.00    -0.021 C 
HETATM   13  C   UNL     1       0.089  18.654  14.905  1.00  0.00     0.101 C 
HETATM   14  N   UNL     1       0.559  17.406  14.686  1.00  0.00    -0.351 N 
HETATM   15  C   UNL     1      -0.344  16.395  14.466  1.00  0.00     0.109 C 
ATOM     16  HN  UNL     1       1.562  17.218  14.685  1.00  0.00     0.166 HD
HETATM   17  C   UNL     1      -1.681  16.685  14.191  1.00  0.00     0.050 C 
HETATM   18  C   UNL     1      -2.148  17.967  14.425  1.00  0.00     0.016 C 
BRANCH  15  19
HETATM   19  N   UNL     1       0.094  15.053  14.412  1.00  0.00    -0.301 N 
HETATM   20  C   UNL     1      -0.820  13.923  14.610  1.00  0.00     0.151 C 
HETATM   21  C   UNL     1       0.109  12.732  14.813  1.00  0.00     0.134 C 
HETATM   22  C   UNL     1       1.501  13.298  15.059  1.00  0.00     0.225 C 
HETATM   23  C   UNL     1       1.410  14.700  14.487  1.00  0.00     0.255 C 
HETATM   24  O   UNL     1       2.349  15.377  14.141  1.00  0.00    -0.270 OA
BRANCH  21  25
HETATM   25  C   UNL     1      -0.298  11.875  16.009  1.00  0.00     0.224 C 
HETATM   26  O   UNL     1      -1.460  12.024  16.436  1.00  0.00    -0.273 OA
HETATM   27  N   UNL     1       0.543  10.957  16.476  1.00  0.00    -0.370 N 
ATOM     28  HN2 UNL     1       0.271  10.385  17.275  1.00  0.00     0.159 HD
ATOM     29  HN1 UNL     1       1.493  10.835  16.127  1.00  0.00     0.159 HD
ENDBRANCH  21  25
BRANCH  22  30
HETATM   30  O   UNL     1       2.520  12.496  14.479  1.00  0.00    -0.385 OA
ATOM     31  HO  UNL     1       2.205  11.691  14.084  1.00  0.00     0.210 HD
ENDBRANCH  22  30
ENDBRANCH  15  19
ENDBRANCH  11  12
ENDBRANCH  10  11
ENDBRANCH   1   9
BRANCH   5  32
HETATM   32  C   UNL     1      -6.025  18.084  17.960  1.00  0.00     0.043 C 
BRANCH  32  33
HETATM   33  C   UNL     1      -4.886  17.082  17.701  1.00  0.00     0.032 C 
BRANCH  33  34
HETATM   34  C   UNL     1      -5.396  15.912  16.828  1.00  0.00     0.232 C 
BRANCH  34  35
HETATM   35  N   UNL     1      -4.229  15.302  16.115  1.00  0.00    -0.075 N 
ATOM     36  HN2 UNL     1      -3.699  15.983  15.572  1.00  0.00     0.277 HD
ATOM     37  HN1 UNL     1      -3.482  15.021  16.750  1.00  0.00     0.277 HD
BRANCH  35  38
HETATM   38  C   UNL     1      -4.725  14.194  15.302  1.00  0.00     0.232 C 
BRANCH  38  39
HETATM   39  C   UNL     1      -4.478  14.328  13.822  1.00  0.00     0.028 C 
BRANCH  39  40
HETATM   40  C   UNL     1      -4.546  13.079  13.051  1.00  0.00     0.008 C 
BRANCH  40  41
HETATM   41  C   UNL     1      -5.819  12.375  12.884  1.00  0.00     0.017 C 
HETATM   42  C   UNL     1      -7.108  13.104  12.478  1.00  0.00     0.190 C 
HETATM   43  C   UNL     1      -7.560  12.158  11.361  1.00  0.00     0.039 C 
HETATM   44  N   UNL     1      -8.045  12.734  13.593  1.00  0.00    -0.070 N 
HETATM   45  C   UNL     1      -7.521  10.878  12.188  1.00  0.00     0.014 C 
HETATM   46  C   UNL     1      -8.346  11.286  13.431  1.00  0.00     0.237 C 
HETATM   47  C   UNL     1      -6.067  10.873  12.789  1.00  0.00     0.013 C 
ATOM     48  HN2 UNL     1      -8.881  13.319  13.629  1.00  0.00     0.277 HD
ATOM     49  HN1 UNL     1      -7.686  12.970  14.518  1.00  0.00     0.277 HD
ENDBRANCH  40  41
ENDBRANCH  39  40
ENDBRANCH  38  39
ENDBRANCH  35  38
ENDBRANCH  34  35
ENDBRANCH  33  34
ENDBRANCH  32  33
ENDBRANCH   5  32
BRANCH   2  50
HETATM   50  N   UNL     1      -8.522  19.597  17.471  1.00  0.00    -0.394 N 
ATOM     51  HN2 UNL     1      -9.085  20.273  17.988  1.00  0.00     0.156 HD
ATOM     52  HN1 UNL     1      -8.911  18.662  17.344  1.00  0.00     0.156 HD
ENDBRANCH   2  50
TORSDOF 15
ENDMDL
MODEL 4
REMARK VINA RESULT:      -8.8      4.283      7.985
REMARK  15 active torsions:
REMARK  status: ('A' for Active; 'I' for Inactive)
REMARK    1  A    between atoms: C_1  and  C_2 
REMARK    2  A    between atoms: C_1  and  C_41 
REMARK    3  A    between atoms: C_2  and  C_8 
REMARK    4  A    between atoms: N_3  and  C_19 
REMARK    5  A    between atoms: C_5  and  C_51 
REMARK    6  A    between atoms: C_6  and  N_13 
REMARK    7  A    between atoms: C_8  and  N_22 
REMARK    8  A    between atoms: C_10  and  C_45 
REMARK    9  A    between atoms: C_20  and  C_45 
REMARK   10  A    between atoms: N_22  and  C_26 
REMARK   11  A    between atoms: C_25  and  O_48 
REMARK   12  A    between atoms: C_26  and  C_31 
REMARK   13  A    between atoms: C_31  and  C_40 
REMARK   14  A    between atoms: C_33  and  C_39 
REMARK       I    between atoms: C_33  and  N_42 
REMARK   15  A    between atoms: C_34  and  C_40 
ROOT
HETATM    1  C   UNL     1      -1.978  15.440  14.656  1.00  0.00     0.035 C 
HETATM    2  C   UNL     1       0.805  15.265  14.433  1.00  0.00     0.101 C 
HETATM    3  C   UNL     1      -1.331  14.212  14.831  1.00  0.00     0.039 C 
HETATM    4  O   UNL     1       0.713  17.583  13.975  1.00  0.00    -0.266 OA
HETATM    5  C   UNL     1       0.021  14.094  14.545  1.00  0.00    -0.024 C 
HETATM    6  N   UNL     1      -1.270  16.535  14.245  1.00  0.00    -0.322 N 
ATOM      7  HN  UNL     1      -1.769  17.377  13.955  1.00  0.00     0.169 HD
HETATM    8  C   UNL     1       0.104  16.521  14.217  1.00  0.00     0.272 C 
ENDROOT
BRANCH   1   9
HETATM    9  C   UNL     1      -3.437  15.567  14.962  1.00  0.00     0.029 C 
HETATM   10  C   UNL     1      -3.949  16.476  15.857  1.00  0.00     0.003 C 
BRANCH  10  11
HETATM   11  C   UNL     1      -4.023  17.806  16.225  1.00  0.00     0.013 C 
BRANCH  11  12
HETATM   12  C   UNL     1      -4.688  18.822  15.354  1.00  0.00    -0.021 C 
HETATM   13  C   UNL     1      -4.210  19.111  14.061  1.00  0.00     0.101 C 
HETATM   14  N   UNL     1      -4.748  20.079  13.286  1.00  0.00    -0.351 N 
HETATM   15  C   UNL     1      -5.896  20.698  13.715  1.00  0.00     0.109 C 
ATOM     16  HN  UNL     1      -4.312  20.343  12.402  1.00  0.00     0.166 HD
HETATM   17  C   UNL     1      -6.337  20.544  15.029  1.00  0.00     0.050 C 
HETATM   18  C   UNL     1      -5.780  19.545  15.808  1.00  0.00     0.016 C 
BRANCH  15  19
HETATM   19  N   UNL     1      -6.586  21.583  12.857  1.00  0.00    -0.301 N 
HETATM   20  C   UNL     1      -7.928  21.288  12.343  1.00  0.00     0.151 C 
HETATM   21  C   UNL     1      -8.124  22.304  11.225  1.00  0.00     0.134 C 
HETATM   22  C   UNL     1      -6.755  22.902  10.930  1.00  0.00     0.225 C 
HETATM   23  C   UNL     1      -5.969  22.603  12.193  1.00  0.00     0.255 C 
HETATM   24  O   UNL     1      -4.975  23.187  12.553  1.00  0.00    -0.270 OA
BRANCH  21  25
HETATM   25  C   UNL     1      -8.672  21.666   9.951  1.00  0.00     0.224 C 
HETATM   26  O   UNL     1      -7.950  20.815   9.395  1.00  0.00    -0.273 OA
HETATM   27  N   UNL     1      -9.904  21.960   9.546  1.00  0.00    -0.370 N 
ATOM     28  HN2 UNL     1     -10.270  21.534   8.695  1.00  0.00     0.159 HD
ATOM     29  HN1 UNL     1     -10.495  22.656  10.001  1.00  0.00     0.159 HD
ENDBRANCH  21  25
BRANCH  22  30
HETATM   30  O   UNL     1      -6.829  24.283  10.602  1.00  0.00    -0.385 OA
ATOM     31  HO  UNL     1      -6.250  24.547   9.897  1.00  0.00     0.210 HD
ENDBRANCH  22  30
ENDBRANCH  15  19
ENDBRANCH  11  12
ENDBRANCH  10  11
ENDBRANCH   1   9
BRANCH   5  32
HETATM   32  C   UNL     1       0.644  12.716  14.323  1.00  0.00     0.043 C 
BRANCH  32  33
HETATM   33  C   UNL     1       1.174  12.030  15.594  1.00  0.00     0.032 C 
BRANCH  33  34
HETATM   34  C   UNL     1       0.151  10.987  16.100  1.00  0.00     0.232 C 
BRANCH  34  35
HETATM   35  N   UNL     1      -0.558  11.551  17.292  1.00  0.00    -0.075 N 
ATOM     36  HN2 UNL     1      -0.105  11.307  18.173  1.00  0.00     0.277 HD
ATOM     37  HN1 UNL     1      -0.463  12.564  17.365  1.00  0.00     0.277 HD
BRANCH  35  38
HETATM   38  C   UNL     1      -1.952  11.118  17.236  1.00  0.00     0.232 C 
BRANCH  38  39
HETATM   39  C   UNL     1      -2.822  11.888  16.276  1.00  0.00     0.028 C 
BRANCH  39  40
HETATM   40  C   UNL     1      -3.765  11.083  15.487  1.00  0.00     0.008 C 
BRANCH  40  41
HETATM   41  C   UNL     1      -4.714  11.727  14.577  1.00  0.00     0.017 C 
HETATM   42  C   UNL     1      -6.197  11.903  14.934  1.00  0.00     0.190 C 
HETATM   43  C   UNL     1      -6.344  13.382  14.567  1.00  0.00     0.039 C 
HETATM   44  N   UNL     1      -6.883  11.228  13.780  1.00  0.00    -0.070 N 
HETATM   45  C   UNL     1      -5.812  13.263  13.143  1.00  0.00     0.014 C 
HETATM   46  C   UNL     1      -6.661  12.095  12.592  1.00  0.00     0.237 C 
HETATM   47  C   UNL     1      -4.420  12.553  13.330  1.00  0.00     0.013 C 
ATOM     48  HN2 UNL     1      -7.868  11.029  13.956  1.00  0.00     0.277 HD
ATOM     49  HN1 UNL     1      -6.582  10.264  13.639  1.00  0.00     0.277 HD
ENDBRANCH  40  41
ENDBRANCH  39  40
ENDBRANCH  38  39
ENDBRANCH  35  38
ENDBRANCH  34  35
ENDBRANCH  33  34
ENDBRANCH  32  33
ENDBRANCH   5  32
BRANCH   2  50
HETATM   50  N   UNL     1       2.148  15.246  14.641  1.00  0.00    -0.394 N 
ATOM     51  HN2 UNL     1       2.532  15.376  15.578  1.00  0.00     0.156 HD
ATOM     52  HN1 UNL     1       2.802  15.011  13.894  1.00  0.00     0.156 HD
ENDBRANCH   2  50
TORSDOF 15
ENDMDL
MODEL 5
REMARK VINA RESULT:      -8.6      1.595      2.265
REMARK  15 active torsions:
REMARK  status: ('A' for Active; 'I' for Inactive)
REMARK    1  A    between atoms: C_1  and  C_2 
REMARK    2  A    between atoms: C_1  and  C_41 
REMARK    3  A    between atoms: C_2  and  C_8 
REMARK    4  A    between atoms: N_3  and  C_19 
REMARK    5  A    between atoms: C_5  and  C_51 
REMARK    6  A    between atoms: C_6  and  N_13 
REMARK    7  A    between atoms: C_8  and  N_22 
REMARK    8  A    between atoms: C_10  and  C_45 
REMARK    9  A    between atoms: C_20  and  C_45 
REMARK   10  A    between atoms: N_22  and  C_26 
REMARK   11  A    between atoms: C_25  and  O_48 
REMARK   12  A    between atoms: C_26  and  C_31 
REMARK   13  A    between atoms: C_31  and  C_40 
REMARK   14  A    between atoms: C_33  and  C_39 
REMARK       I    between atoms: C_33  and  N_42 
REMARK   15  A    between atoms: C_34  and  C_40 
ROOT
HETATM    1  C   UNL     1      -1.404  15.659  14.597  1.00  0.00     0.035 C 
HETATM    2  C   UNL     1       1.368  15.542  14.235  1.00  0.00     0.101 C 
HETATM    3  C   UNL     1      -0.651  16.835  14.522  1.00  0.00     0.039 C 
HETATM    4  O   UNL     1       1.069  13.197  14.252  1.00  0.00    -0.266 OA
HETATM    5  C   UNL     1       0.735  16.774  14.522  1.00  0.00    -0.024 C 
HETATM    6  N   UNL     1      -0.776  14.444  14.627  1.00  0.00    -0.322 N 
ATOM      7  HN  UNL     1      -1.313  13.607  14.854  1.00  0.00     0.169 HD
HETATM    8  C   UNL     1       0.567  14.334  14.355  1.00  0.00     0.272 C 
ENDROOT
BRANCH   1   9
HETATM    9  C   UNL     1      -2.899  15.726  14.600  1.00  0.00     0.029 C 
HETATM   10  C   UNL     1      -3.620  16.526  15.454  1.00  0.00     0.003 C 
BRANCH  10  11
HETATM   11  C   UNL     1      -3.822  17.808  15.930  1.00  0.00     0.013 C 
BRANCH  11  12
HETATM   12  C   UNL     1      -4.537  18.839  15.119  1.00  0.00    -0.021 C 
HETATM   13  C   UNL     1      -4.052  19.256  13.863  1.00  0.00     0.101 C 
HETATM   14  N   UNL     1      -4.639  20.241  13.147  1.00  0.00    -0.351 N 
HETATM   15  C   UNL     1      -5.836  20.747  13.590  1.00  0.00     0.109 C 
ATOM     16  HN  UNL     1      -4.203  20.600  12.298  1.00  0.00     0.166 HD
HETATM   17  C   UNL     1      -6.294  20.464  14.877  1.00  0.00     0.050 C 
HETATM   18  C   UNL     1      -5.686  19.450  15.594  1.00  0.00     0.016 C 
BRANCH  15  19
HETATM   19  N   UNL     1      -6.567  21.645  12.781  1.00  0.00    -0.301 N 
HETATM   20  C   UNL     1      -7.929  21.353  12.321  1.00  0.00     0.151 C 
HETATM   21  C   UNL     1      -8.178  22.390  11.232  1.00  0.00     0.134 C 
HETATM   22  C   UNL     1      -6.827  23.001  10.890  1.00  0.00     0.225 C 
HETATM   23  C   UNL     1      -5.984  22.682  12.111  1.00  0.00     0.255 C 
HETATM   24  O   UNL     1      -4.978  23.263  12.439  1.00  0.00    -0.270 OA
BRANCH  21  25
HETATM   25  C   UNL     1      -8.779  21.775   9.971  1.00  0.00     0.224 C 
HETATM   26  O   UNL     1      -7.992  21.184   9.206  1.00  0.00    -0.273 OA
HETATM   27  N   UNL     1     -10.095  21.805   9.788  1.00  0.00    -0.370 N 
ATOM     28  HN2 UNL     1     -10.497  21.394   8.945  1.00  0.00     0.159 HD
ATOM     29  HN1 UNL     1     -10.740  22.288  10.414  1.00  0.00     0.159 HD
ENDBRANCH  21  25
BRANCH  22  30
HETATM   30  O   UNL     1      -6.921  24.388  10.594  1.00  0.00    -0.385 OA
ATOM     31  HO  UNL     1      -6.092  24.851  10.626  1.00  0.00     0.210 HD
ENDBRANCH  22  30
ENDBRANCH  15  19
ENDBRANCH  11  12
ENDBRANCH  10  11
ENDBRANCH   1   9
BRANCH   5  32
HETATM   32  C   UNL     1       1.561  18.014  14.860  1.00  0.00     0.043 C 
BRANCH  32  33
HETATM   33  C   UNL     1       0.912  19.354  14.471  1.00  0.00     0.032 C 
BRANCH  33  34
HETATM   34  C   UNL     1       1.971  20.481  14.486  1.00  0.00     0.232 C 
BRANCH  34  35
HETATM   35  N   UNL     1       3.312  19.875  14.763  1.00  0.00    -0.075 N 
ATOM     36  HN2 UNL     1       3.247  18.924  15.128  1.00  0.00     0.277 HD
ATOM     37  HN1 UNL     1       3.831  19.660  13.912  1.00  0.00     0.277 HD
BRANCH  35  38
HETATM   38  C   UNL     1       4.039  20.774  15.656  1.00  0.00     0.232 C 
BRANCH  38  39
HETATM   39  C   UNL     1       5.443  21.107  15.223  1.00  0.00     0.028 C 
BRANCH  39  40
HETATM   40  C   UNL     1       5.602  21.473  13.809  1.00  0.00     0.008 C 
BRANCH  40  41
HETATM   41  C   UNL     1       6.248  22.732  13.434  1.00  0.00     0.017 C 
HETATM   42  C   UNL     1       6.119  24.002  14.287  1.00  0.00     0.190 C 
HETATM   43  C   UNL     1       7.600  24.391  14.339  1.00  0.00     0.039 C 
HETATM   44  N   UNL     1       5.574  24.993  13.298  1.00  0.00    -0.070 N 
HETATM   45  C   UNL     1       7.835  24.389  12.832  1.00  0.00     0.014 C 
HETATM   46  C   UNL     1       6.671  25.278  12.336  1.00  0.00     0.237 C 
HETATM   47  C   UNL     1       7.329  22.967  12.384  1.00  0.00     0.013 C 
ATOM     48  HN2 UNL     1       5.193  25.832  13.736  1.00  0.00     0.277 HD
ATOM     49  HN1 UNL     1       4.713  24.683  12.848  1.00  0.00     0.277 HD
ENDBRANCH  40  41
ENDBRANCH  39  40
ENDBRANCH  38  39
ENDBRANCH  35  38
ENDBRANCH  34  35
ENDBRANCH  33  34
ENDBRANCH  32  33
ENDBRANCH   5  32
BRANCH   2  50
HETATM   50  N   UNL     1       2.634  15.489  13.744  1.00  0.00    -0.394 N 
ATOM     51  HN2 UNL     1       3.405  15.157  14.325  1.00  0.00     0.156 HD
ATOM     52  HN1 UNL     1       2.837  15.689  12.764  1.00  0.00     0.156 HD
ENDBRANCH   2  50
TORSDOF 15
ENDMDL
MODEL 6
REMARK VINA RESULT:      -8.1      4.851      7.862
REMARK  15 active torsions:
REMARK  status: ('A' for Active; 'I' for Inactive)
REMARK    1  A    between atoms: C_1  and  C_2 
REMARK    2  A    between atoms: C_1  and  C_41 
REMARK    3  A    between atoms: C_2  and  C_8 
REMARK    4  A    between atoms: N_3  and  C_19 
REMARK    5  A    between atoms: C_5  and  C_51 
REMARK    6  A    between atoms: C_6  and  N_13 
REMARK    7  A    between atoms: C_8  and  N_22 
REMARK    8  A    between atoms: C_10  and  C_45 
REMARK    9  A    between atoms: C_20  and  C_45 
REMARK   10  A    between atoms: N_22  and  C_26 
REMARK   11  A    between atoms: C_25  and  O_48 
REMARK   12  A    between atoms: C_26  and  C_31 
REMARK   13  A    between atoms: C_31  and  C_40 
REMARK   14  A    between atoms: C_33  and  C_39 
REMARK       I    between atoms: C_33  and  N_42 
REMARK   15  A    between atoms: C_34  and  C_40 
ROOT
HETATM    1  C   UNL     1      -3.137  15.042  14.611  1.00  0.00     0.035 C 
HETATM    2  C   UNL     1      -5.398  13.399  14.752  1.00  0.00     0.101 C 
HETATM    3  C   UNL     1      -3.668  14.676  15.852  1.00  0.00     0.039 C 
HETATM    4  O   UNL     1      -5.327  13.439  12.390  1.00  0.00    -0.266 OA
HETATM    5  C   UNL     1      -4.885  14.014  15.918  1.00  0.00    -0.024 C 
HETATM    6  N   UNL     1      -3.795  14.708  13.459  1.00  0.00    -0.322 N 
ATOM      7  HN  UNL     1      -3.499  15.121  12.574  1.00  0.00     0.169 HD
HETATM    8  C   UNL     1      -4.849  13.825  13.475  1.00  0.00     0.272 C 
ENDROOT
BRANCH   1   9
HETATM    9  C   UNL     1      -1.826  15.758  14.540  1.00  0.00     0.029 C 
HETATM   10  C   UNL     1      -1.712  17.126  14.467  1.00  0.00     0.003 C 
BRANCH  10  11
HETATM   11  C   UNL     1      -2.046  18.337  15.042  1.00  0.00     0.013 C 
BRANCH  11  12
HETATM   12  C   UNL     1      -3.098  19.220  14.451  1.00  0.00    -0.021 C 
HETATM   13  C   UNL     1      -2.849  20.578  14.171  1.00  0.00     0.101 C 
HETATM   14  N   UNL     1      -3.806  21.412  13.708  1.00  0.00    -0.351 N 
HETATM   15  C   UNL     1      -5.023  20.881  13.356  1.00  0.00     0.109 C 
ATOM     16  HN  UNL     1      -3.630  22.413  13.623  1.00  0.00     0.166 HD
HETATM   17  C   UNL     1      -5.363  19.580  13.725  1.00  0.00     0.050 C 
HETATM   18  C   UNL     1      -4.371  18.736  14.192  1.00  0.00     0.016 C 
BRANCH  15  19
HETATM   19  N   UNL     1      -5.984  21.685  12.703  1.00  0.00    -0.301 N 
HETATM   20  C   UNL     1      -7.315  21.181  12.349  1.00  0.00     0.151 C 
HETATM   21  C   UNL     1      -7.860  22.231  11.387  1.00  0.00     0.134 C 
HETATM   22  C   UNL     1      -6.682  23.103  10.976  1.00  0.00     0.225 C 
HETATM   23  C   UNL     1      -5.668  22.856  12.078  1.00  0.00     0.255 C 
HETATM   24  O   UNL     1      -4.750  23.588  12.361  1.00  0.00    -0.270 OA
BRANCH  21  25
HETATM   25  C   UNL     1      -8.477  21.608  10.138  1.00  0.00     0.224 C 
HETATM   26  O   UNL     1      -7.889  20.620   9.654  1.00  0.00    -0.273 OA
HETATM   27  N   UNL     1      -9.638  22.065   9.681  1.00  0.00    -0.370 N 
ATOM     28  HN2 UNL     1     -10.051  21.649   8.846  1.00  0.00     0.159 HD
ATOM     29  HN1 UNL     1     -10.120  22.873  10.076  1.00  0.00     0.159 HD
ENDBRANCH  21  25
BRANCH  22  30
HETATM   30  O   UNL     1      -7.050  24.466  10.816  1.00  0.00    -0.385 OA
ATOM     31  HO  UNL     1      -7.679  24.778  11.456  1.00  0.00     0.210 HD
ENDBRANCH  22  30
ENDBRANCH  15  19
ENDBRANCH  11  12
ENDBRANCH  10  11
ENDBRANCH   1   9
BRANCH   5  32
HETATM   32  C   UNL     1      -5.674  13.980  17.227  1.00  0.00     0.043 C 
BRANCH  32  33
HETATM   33  C   UNL     1      -6.198  15.344  17.706  1.00  0.00     0.032 C 
BRANCH  33  34
HETATM   34  C   UNL     1      -6.170  15.412  19.251  1.00  0.00     0.232 C 
BRANCH  34  35
HETATM   35  N   UNL     1      -4.802  15.839  19.687  1.00  0.00    -0.075 N 
ATOM     36  HN2 UNL     1      -4.104  15.734  18.951  1.00  0.00     0.277 HD
ATOM     37  HN1 UNL     1      -4.724  16.848  19.808  1.00  0.00     0.277 HD
BRANCH  35  38
HETATM   38  C   UNL     1      -4.462  15.097  20.898  1.00  0.00     0.232 C 
BRANCH  38  39
HETATM   39  C   UNL     1      -3.801  13.762  20.665  1.00  0.00     0.028 C 
BRANCH  39  40
HETATM   40  C   UNL     1      -2.642  13.775  19.763  1.00  0.00     0.008 C 
BRANCH  40  41
HETATM   41  C   UNL     1      -2.401  12.663  18.843  1.00  0.00     0.017 C 
HETATM   42  C   UNL     1      -0.997  12.321  18.323  1.00  0.00     0.190 C 
HETATM   43  C   UNL     1      -1.018  10.813  18.591  1.00  0.00     0.039 C 
HETATM   44  N   UNL     1      -1.188  12.373  16.834  1.00  0.00    -0.070 N 
HETATM   45  C   UNL     1      -2.308  10.519  17.834  1.00  0.00     0.014 C 
HETATM   46  C   UNL     1      -2.034  11.204  16.475  1.00  0.00     0.237 C 
HETATM   47  C   UNL     1      -3.342  11.523  18.466  1.00  0.00     0.013 C 
ATOM     48  HN2 UNL     1      -0.311  12.412  16.315  1.00  0.00     0.277 HD
ATOM     49  HN1 UNL     1      -1.568  13.261  16.506  1.00  0.00     0.277 HD
ENDBRANCH  40  41
ENDBRANCH  39  40
ENDBRANCH  38  39
ENDBRANCH  35  38
ENDBRANCH  34  35
ENDBRANCH  33  34
ENDBRANCH  32  33
ENDBRANCH   5  32
BRANCH   2  50
HETATM   50  N   UNL     1      -6.275  12.364  14.820  1.00  0.00    -0.394 N 
ATOM     51  HN2 UNL     1      -7.231  12.510  15.147  1.00  0.00     0.156 HD
ATOM     52  HN1 UNL     1      -6.039  11.438  14.462  1.00  0.00     0.156 HD
ENDBRANCH   2  50
TORSDOF 15
ENDMDL
MODEL 7
REMARK VINA RESULT:      -8.1      4.834     10.322
REMARK  15 active torsions:
REMARK  status: ('A' for Active; 'I' for Inactive)
REMARK    1  A    between atoms: C_1  and  C_2 
REMARK    2  A    between atoms: C_1  and  C_41 
REMARK    3  A    between atoms: C_2  and  C_8 
REMARK    4  A    between atoms: N_3  and  C_19 
REMARK    5  A    between atoms: C_5  and  C_51 
REMARK    6  A    between atoms: C_6  and  N_13 
REMARK    7  A    between atoms: C_8  and  N_22 
REMARK    8  A    between atoms: C_10  and  C_45 
REMARK    9  A    between atoms: C_20  and  C_45 
REMARK   10  A    between atoms: N_22  and  C_26 
REMARK   11  A    between atoms: C_25  and  O_48 
REMARK   12  A    between atoms: C_26  and  C_31 
REMARK   13  A    between atoms: C_31  and  C_40 
REMARK   14  A    between atoms: C_33  and  C_39 
REMARK       I    between atoms: C_33  and  N_42 
REMARK   15  A    between atoms: C_34  and  C_40 
ROOT
HETATM    1  C   UNL     1      -3.761  20.954  14.972  1.00  0.00     0.035 C 
HETATM    2  C   UNL     1      -6.309  21.153  13.835  1.00  0.00     0.101 C 
HETATM    3  C   UNL     1      -4.870  20.401  15.621  1.00  0.00     0.039 C 
HETATM    4  O   UNL     1      -5.223  22.335  12.099  1.00  0.00    -0.266 OA
HETATM    5  C   UNL     1      -6.148  20.654  15.148  1.00  0.00    -0.024 C 
HETATM    6  N   UNL     1      -3.933  21.708  13.844  1.00  0.00    -0.322 N 
ATOM      7  HN  UNL     1      -3.149  22.248  13.476  1.00  0.00     0.169 HD
HETATM    8  C   UNL     1      -5.147  21.752  13.200  1.00  0.00     0.272 C 
ENDROOT
BRANCH   1   9
HETATM    9  C   UNL     1      -2.382  20.682  15.484  1.00  0.00     0.029 C 
HETATM   10  C   UNL     1      -1.828  19.425  15.541  1.00  0.00     0.003 C 
BRANCH  10  11
HETATM   11  C   UNL     1      -1.510  18.278  14.838  1.00  0.00     0.013 C 
BRANCH  11  12
HETATM   12  C   UNL     1      -2.477  17.145  14.715  1.00  0.00    -0.021 C 
HETATM   13  C   UNL     1      -3.719  17.159  15.378  1.00  0.00     0.101 C 
HETATM   14  N   UNL     1      -4.575  16.114  15.343  1.00  0.00    -0.351 N 
HETATM   15  C   UNL     1      -4.289  15.063  14.507  1.00  0.00     0.109 C 
ATOM     16  HN  UNL     1      -5.414  16.105  15.923  1.00  0.00     0.166 HD
HETATM   17  C   UNL     1      -3.026  14.938  13.928  1.00  0.00     0.050 C 
HETATM   18  C   UNL     1      -2.164  16.020  13.968  1.00  0.00     0.016 C 
BRANCH  15  19
HETATM   19  N   UNL     1      -5.242  14.038  14.306  1.00  0.00    -0.301 N 
HETATM   20  C   UNL     1      -5.344  13.301  13.042  1.00  0.00     0.151 C 
HETATM   21  C   UNL     1      -6.679  12.575  13.149  1.00  0.00     0.134 C 
HETATM   22  C   UNL     1      -7.428  13.201  14.317  1.00  0.00     0.225 C 
HETATM   23  C   UNL     1      -6.324  13.864  15.120  1.00  0.00     0.255 C 
HETATM   24  O   UNL     1      -6.391  14.166  16.287  1.00  0.00    -0.270 OA
BRANCH  21  25
HETATM   25  C   UNL     1      -7.522  12.720  11.885  1.00  0.00     0.224 C 
HETATM   26  O   UNL     1      -7.013  12.312  10.822  1.00  0.00    -0.273 OA
HETATM   27  N   UNL     1      -8.770  13.170  11.974  1.00  0.00    -0.370 N 
ATOM     28  HN2 UNL     1      -9.333  13.267  11.130  1.00  0.00     0.159 HD
ATOM     29  HN1 UNL     1      -9.187  13.503  12.843  1.00  0.00     0.159 HD
ENDBRANCH  21  25
BRANCH  22  30
HETATM   30  O   UNL     1      -8.187  12.246  15.047  1.00  0.00    -0.385 OA
ATOM     31  HO  UNL     1      -8.730  12.620  15.731  1.00  0.00     0.210 HD
ENDBRANCH  22  30
ENDBRANCH  15  19
ENDBRANCH  11  12
ENDBRANCH  10  11
ENDBRANCH   1   9
BRANCH   5  32
HETATM   32  C   UNL     1      -7.362  20.428  16.049  1.00  0.00     0.043 C 
BRANCH  32  33
HETATM   33  C   UNL     1      -7.981  21.706  16.641  1.00  0.00     0.032 C 
BRANCH  33  34
HETATM   34  C   UNL     1      -9.515  21.694  16.445  1.00  0.00     0.232 C 
BRANCH  34  35
HETATM   35  N   UNL     1     -10.147  22.461  17.564  1.00  0.00    -0.075 N 
ATOM     36  HN2 UNL     1      -9.479  23.045  18.068  1.00  0.00     0.277 HD
ATOM     37  HN1 UNL     1     -10.759  23.207  17.234  1.00  0.00     0.277 HD
BRANCH  35  38
HETATM   38  C   UNL     1     -10.834  21.510  18.434  1.00  0.00     0.232 C 
BRANCH  38  39
HETATM   39  C   UNL     1      -9.991  20.933  19.542  1.00  0.00     0.028 C 
BRANCH  39  40
HETATM   40  C   UNL     1     -10.067  19.474  19.705  1.00  0.00     0.008 C 
BRANCH  40  41
HETATM   41  C   UNL     1      -8.982  18.614  19.229  1.00  0.00     0.017 C 
HETATM   42  C   UNL     1      -7.842  18.154  20.149  1.00  0.00     0.190 C 
HETATM   43  C   UNL     1      -7.861  16.661  19.804  1.00  0.00     0.039 C 
HETATM   44  N   UNL     1      -6.625  18.626  19.406  1.00  0.00    -0.070 N 
HETATM   45  C   UNL     1      -7.732  16.829  18.294  1.00  0.00     0.014 C 
HETATM   46  C   UNL     1      -6.515  17.777  18.191  1.00  0.00     0.237 C 
HETATM   47  C   UNL     1      -8.904  17.816  17.932  1.00  0.00     0.013 C 
ATOM     48  HN2 UNL     1      -5.779  18.628  19.976  1.00  0.00     0.277 HD
ATOM     49  HN1 UNL     1      -6.640  19.625  19.200  1.00  0.00     0.277 HD
ENDBRANCH  40  41
ENDBRANCH  39  40
ENDBRANCH  38  39
ENDBRANCH  35  38
ENDBRANCH  34  35
ENDBRANCH  33  34
ENDBRANCH  32  33
ENDBRANCH   5  32
BRANCH   2  50
HETATM   50  N   UNL     1      -7.463  20.971  13.140  1.00  0.00    -0.394 N 
ATOM     51  HN2 UNL     1      -7.666  20.078  12.691  1.00  0.00     0.156 HD
ATOM     52  HN1 UNL     1      -8.196  21.681  13.125  1.00  0.00     0.156 HD
ENDBRANCH   2  50
TORSDOF 15
ENDMDL
MODEL 8
REMARK VINA RESULT:      -8.1      4.532     10.931
REMARK  15 active torsions:
REMARK  status: ('A' for Active; 'I' for Inactive)
REMARK    1  A    between atoms: C_1  and  C_2 
REMARK    2  A    between atoms: C_1  and  C_41 
REMARK    3  A    between atoms: C_2  and  C_8 
REMARK    4  A    between atoms: N_3  and  C_19 
REMARK    5  A    between atoms: C_5  and  C_51 
REMARK    6  A    between atoms: C_6  and  N_13 
REMARK    7  A    between atoms: C_8  and  N_22 
REMARK    8  A    between atoms: C_10  and  C_45 
REMARK    9  A    between atoms: C_20  and  C_45 
REMARK   10  A    between atoms: N_22  and  C_26 
REMARK   11  A    between atoms: C_25  and  O_48 
REMARK   12  A    between atoms: C_26  and  C_31 
REMARK   13  A    between atoms: C_31  and  C_40 
REMARK   14  A    between atoms: C_33  and  C_39 
REMARK       I    between atoms: C_33  and  N_42 
REMARK   15  A    between atoms: C_34  and  C_40 
ROOT
HETATM    1  C   UNL     1      -6.782  20.766  15.559  1.00  0.00     0.035 C 
HETATM    2  C   UNL     1      -8.616  20.396  17.640  1.00  0.00     0.101 C 
HETATM    3  C   UNL     1      -6.621  19.711  16.463  1.00  0.00     0.039 C 
HETATM    4  O   UNL     1      -9.689  22.312  16.766  1.00  0.00    -0.266 OA
HETATM    5  C   UNL     1      -7.424  19.636  17.592  1.00  0.00    -0.024 C 
HETATM    6  N   UNL     1      -7.760  21.700  15.764  1.00  0.00    -0.322 N 
ATOM      7  HN  UNL     1      -7.764  22.554  15.205  1.00  0.00     0.169 HD
HETATM    8  C   UNL     1      -8.738  21.507  16.710  1.00  0.00     0.272 C 
ENDROOT
BRANCH   1   9
HETATM    9  C   UNL     1      -5.914  20.848  14.343  1.00  0.00     0.029 C 
HETATM   10  C   UNL     1      -4.565  21.108  14.391  1.00  0.00     0.003 C 
BRANCH  10  11
HETATM   11  C   UNL     1      -3.343  20.737  14.918  1.00  0.00     0.013 C 
BRANCH  11  12
HETATM   12  C   UNL     1      -2.799  19.358  14.733  1.00  0.00    -0.021 C 
HETATM   13  C   UNL     1      -1.416  19.095  14.805  1.00  0.00     0.101 C 
HETATM   14  N   UNL     1      -0.895  17.871  14.565  1.00  0.00    -0.351 N 
HETATM   15  C   UNL     1      -1.756  16.815  14.396  1.00  0.00     0.109 C 
ATOM     16  HN  UNL     1       0.114  17.735  14.511  1.00  0.00     0.166 HD
HETATM   17  C   UNL     1      -3.119  17.035  14.192  1.00  0.00     0.050 C 
HETATM   18  C   UNL     1      -3.637  18.292  14.447  1.00  0.00     0.016 C 
BRANCH  15  19
HETATM   19  N   UNL     1      -1.254  15.496  14.323  1.00  0.00    -0.301 N 
HETATM   20  C   UNL     1      -2.081  14.325  14.633  1.00  0.00     0.151 C 
HETATM   21  C   UNL     1      -1.073  13.189  14.763  1.00  0.00     0.134 C 
HETATM   22  C   UNL     1       0.303  13.833  14.858  1.00  0.00     0.225 C 
HETATM   23  C   UNL     1       0.080  15.214  14.272  1.00  0.00     0.255 C 
HETATM   24  O   UNL     1       0.942  15.931  13.821  1.00  0.00    -0.270 OA
BRANCH  21  25
HETATM   25  C   UNL     1      -1.312  12.341  16.010  1.00  0.00     0.224 C 
HETATM   26  O   UNL     1      -0.391  12.307  16.849  1.00  0.00    -0.273 OA
HETATM   27  N   UNL     1      -2.496  11.767  16.197  1.00  0.00    -0.370 N 
ATOM     28  HN2 UNL     1      -2.656  11.201  17.030  1.00  0.00     0.159 HD
ATOM     29  HN1 UNL     1      -3.250  11.796  15.510  1.00  0.00     0.159 HD
ENDBRANCH  21  25
BRANCH  22  30
HETATM   30  O   UNL     1       1.302  13.071  14.192  1.00  0.00    -0.385 OA
ATOM     31  HO  UNL     1       1.184  12.131  14.260  1.00  0.00     0.210 HD
ENDBRANCH  22  30
ENDBRANCH  15  19
ENDBRANCH  11  12
ENDBRANCH  10  11
ENDBRANCH   1   9
BRANCH   5  32
HETATM   32  C   UNL     1      -7.006  18.767  18.778  1.00  0.00     0.043 C 
BRANCH  32  33
HETATM   33  C   UNL     1      -6.651  17.313  18.426  1.00  0.00     0.032 C 
BRANCH  33  34
HETATM   34  C   UNL     1      -5.291  17.262  17.691  1.00  0.00     0.232 C 
BRANCH  34  35
HETATM   35  N   UNL     1      -4.902  15.828  17.500  1.00  0.00    -0.075 N 
ATOM     36  HN2 UNL     1      -4.492  15.650  16.584  1.00  0.00     0.277 HD
ATOM     37  HN1 UNL     1      -4.097  15.560  18.065  1.00  0.00     0.277 HD
BRANCH  35  38
HETATM   38  C   UNL     1      -6.078  15.002  17.763  1.00  0.00     0.232 C 
BRANCH  38  39
HETATM   39  C   UNL     1      -6.621  14.265  16.567  1.00  0.00     0.028 C 
BRANCH  39  40
HETATM   40  C   UNL     1      -5.676  14.065  15.460  1.00  0.00     0.008 C 
BRANCH  40  41
HETATM   41  C   UNL     1      -5.986  13.134  14.374  1.00  0.00     0.017 C 
HETATM   42  C   UNL     1      -7.405  12.989  13.803  1.00  0.00     0.190 C 
HETATM   43  C   UNL     1      -7.059  13.078  12.314  1.00  0.00     0.039 C 
HETATM   44  N   UNL     1      -7.664  11.518  13.972  1.00  0.00    -0.070 N 
HETATM   45  C   UNL     1      -6.013  11.968  12.309  1.00  0.00     0.014 C 
HETATM   46  C   UNL     1      -6.779  10.818  13.003  1.00  0.00     0.237 C 
HETATM   47  C   UNL     1      -5.021  12.394  13.454  1.00  0.00     0.013 C 
ATOM     48  HN2 UNL     1      -8.649  11.269  13.873  1.00  0.00     0.277 HD
ATOM     49  HN1 UNL     1      -7.548  11.195  14.932  1.00  0.00     0.277 HD
ENDBRANCH  40  41
ENDBRANCH  39  40
ENDBRANCH  38  39
ENDBRANCH  35  38
ENDBRANCH  34  35
ENDBRANCH  33  34
ENDBRANCH  32  33
ENDBRANCH   5  32
BRANCH   2  50
HETATM   50  N   UNL     1      -9.660  20.034  18.431  1.00  0.00    -0.394 N 
ATOM     51  HN2 UNL     1      -9.540  19.933  19.439  1.00  0.00     0.156 HD
ATOM     52  HN1 UNL     1     -10.607  19.945  18.060  1.00  0.00     0.156 HD
ENDBRANCH   2  50
TORSDOF 15
ENDMDL
MODEL 9
REMARK VINA RESULT:      -7.9      4.343     10.919
REMARK  15 active torsions:
REMARK  status: ('A' for Active; 'I' for Inactive)
REMARK    1  A    between atoms: C_1  and  C_2 
REMARK    2  A    between atoms: C_1  and  C_41 
REMARK    3  A    between atoms: C_2  and  C_8 
REMARK    4  A    between atoms: N_3  and  C_19 
REMARK    5  A    between atoms: C_5  and  C_51 
REMARK    6  A    between atoms: C_6  and  N_13 
REMARK    7  A    between atoms: C_8  and  N_22 
REMARK    8  A    between atoms: C_10  and  C_45 
REMARK    9  A    between atoms: C_20  and  C_45 
REMARK   10  A    between atoms: N_22  and  C_26 
REMARK   11  A    between atoms: C_25  and  O_48 
REMARK   12  A    between atoms: C_26  and  C_31 
REMARK   13  A    between atoms: C_31  and  C_40 
REMARK   14  A    between atoms: C_33  and  C_39 
REMARK       I    between atoms: C_33  and  N_42 
REMARK   15  A    between atoms: C_34  and  C_40 
ROOT
HETATM    1  C   UNL     1      -3.735  20.795  14.956  1.00  0.00     0.035 C 
HETATM    2  C   UNL     1      -6.354  21.333  14.133  1.00  0.00     0.101 C 
HETATM    3  C   UNL     1      -4.821  20.271  15.666  1.00  0.00     0.039 C 
HETATM    4  O   UNL     1      -5.340  22.600  12.414  1.00  0.00    -0.266 OA
HETATM    5  C   UNL     1      -6.111  20.683  15.365  1.00  0.00    -0.024 C 
HETATM    6  N   UNL     1      -3.947  21.680  13.935  1.00  0.00    -0.322 N 
ATOM      7  HN  UNL     1      -3.156  22.187  13.537  1.00  0.00     0.169 HD
HETATM    8  C   UNL     1      -5.210  21.897  13.436  1.00  0.00     0.272 C 
ENDROOT
BRANCH   1   9
HETATM    9  C   UNL     1      -2.344  20.352  15.283  1.00  0.00     0.029 C 
HETATM   10  C   UNL     1      -1.846  19.114  14.957  1.00  0.00     0.003 C 
BRANCH  10  11
HETATM   11  C   UNL     1      -1.620  18.198  13.947  1.00  0.00     0.013 C 
BRANCH  11  12
HETATM   12  C   UNL     1      -1.304  16.768  14.246  1.00  0.00    -0.021 C 
HETATM   13  C   UNL     1       0.025  16.316  14.369  1.00  0.00     0.101 C 
HETATM   14  N   UNL     1       0.336  15.015  14.562  1.00  0.00    -0.351 N 
HETATM   15  C   UNL     1      -0.684  14.127  14.798  1.00  0.00     0.109 C 
ATOM     16  HN  UNL     1       1.306  14.701  14.534  1.00  0.00     0.166 HD
HETATM   17  C   UNL     1      -2.010  14.490  14.565  1.00  0.00     0.050 C 
HETATM   18  C   UNL     1      -2.313  15.826  14.375  1.00  0.00     0.016 C 
BRANCH  15  19
HETATM   19  N   UNL     1      -0.390  12.798  15.181  1.00  0.00    -0.301 N 
HETATM   20  C   UNL     1      -1.369  11.948  15.868  1.00  0.00     0.151 C 
HETATM   21  C   UNL     1      -0.539  10.777  16.381  1.00  0.00     0.134 C 
HETATM   22  C   UNL     1       0.922  11.186  16.257  1.00  0.00     0.225 C 
HETATM   23  C   UNL     1       0.881  12.306  15.234  1.00  0.00     0.255 C 
HETATM   24  O   UNL     1       1.817  12.682  14.569  1.00  0.00    -0.270 OA
BRANCH  21  25
HETATM   25  C   UNL     1      -0.840  10.448  17.841  1.00  0.00     0.224 C 
HETATM   26  O   UNL     1       0.123  10.083  18.544  1.00  0.00    -0.273 OA
HETATM   27  N   UNL     1      -2.062  10.653  18.322  1.00  0.00    -0.370 N 
ATOM     28  HN2 UNL     1      -2.264  10.433  19.298  1.00  0.00     0.159 HD
ATOM     29  HN1 UNL     1      -2.851  10.952  17.748  1.00  0.00     0.159 HD
ENDBRANCH  21  25
BRANCH  22  30
HETATM   30  O   UNL     1       1.758  10.096  15.894  1.00  0.00    -0.385 OA
ATOM     31  HO  UNL     1       2.084   9.592  16.631  1.00  0.00     0.210 HD
ENDBRANCH  22  30
ENDBRANCH  15  19
ENDBRANCH  11  12
ENDBRANCH  10  11
ENDBRANCH   1   9
BRANCH   5  32
HETATM   32  C   UNL     1      -7.243  20.464  16.367  1.00  0.00     0.043 C 
BRANCH  32  33
HETATM   33  C   UNL     1      -6.874  19.604  17.588  1.00  0.00     0.032 C 
BRANCH  33  34
HETATM   34  C   UNL     1      -7.765  18.340  17.635  1.00  0.00     0.232 C 
BRANCH  34  35
HETATM   35  N   UNL     1      -6.951  17.200  18.165  1.00  0.00    -0.075 N 
ATOM     36  HN2 UNL     1      -7.172  16.975  19.135  1.00  0.00     0.277 HD
ATOM     37  HN1 UNL     1      -7.213  16.304  17.754  1.00  0.00     0.277 HD
BRANCH  35  38
HETATM   38  C   UNL     1      -5.540  17.521  17.968  1.00  0.00     0.232 C 
BRANCH  38  39
HETATM   39  C   UNL     1      -4.752  16.492  17.199  1.00  0.00     0.028 C 
BRANCH  39  40
HETATM   40  C   UNL     1      -5.499  15.761  16.166  1.00  0.00     0.008 C 
BRANCH  40  41
HETATM   41  C   UNL     1      -5.537  14.298  16.169  1.00  0.00     0.017 C 
HETATM   42  C   UNL     1      -6.087  13.492  14.983  1.00  0.00     0.190 C 
HETATM   43  C   UNL     1      -4.940  12.487  14.841  1.00  0.00     0.039 C 
HETATM   44  N   UNL     1      -7.152  12.656  15.634  1.00  0.00    -0.070 N 
HETATM   45  C   UNL     1      -4.952  12.003  16.287  1.00  0.00     0.014 C 
HETATM   46  C   UNL     1      -6.447  11.663  16.488  1.00  0.00     0.237 C 
HETATM   47  C   UNL     1      -4.838  13.333  17.120  1.00  0.00     0.013 C 
ATOM     48  HN2 UNL     1      -7.796  12.230  14.967  1.00  0.00     0.277 HD
ATOM     49  HN1 UNL     1      -7.843  13.207  16.143  1.00  0.00     0.277 HD
ENDBRANCH  40  41
ENDBRANCH  39  40
ENDBRANCH  38  39
ENDBRANCH  35  38
ENDBRANCH  34  35
ENDBRANCH  33  34
ENDBRANCH  32  33
ENDBRANCH   5  32
BRANCH   2  50
HETATM   50  N   UNL     1      -7.585  21.327  13.555  1.00  0.00    -0.394 N 
ATOM     51  HN2 UNL     1      -7.746  21.802  12.667  1.00  0.00     0.156 HD
ATOM     52  HN1 UNL     1      -8.353  20.775  13.938  1.00  0.00     0.156 HD
ENDBRANCH   2  50
TORSDOF 15
ENDMDL
