MODEL 1
REMARK VINA RESULT:      -6.0      0.000      0.000
REMARK  1 active torsions:
REMARK  status: ('A' for Active; 'I' for Inactive)
REMARK    1  A    between atoms: O_2  and  C_10 
ROOT
HETATM    1  C   UNL     1      34.146  11.744  18.080  1.00  0.00     0.019 C 
HETATM    2  N   UNL     1      34.888  14.354  19.013  1.00  0.00    -0.355 N 
ATOM      3  HN  UNL     1      35.093  15.349  19.094  1.00  0.00     0.162 HD
HETATM    4  C   UNL     1      34.112  10.231  18.298  1.00  0.00     0.017 C 
HETATM    5  C   UNL     1      33.437  12.042  16.755  1.00  0.00     0.017 C 
HETATM    6  C   UNL     1      32.670   9.738  18.297  1.00  0.00     0.006 C 
HETATM    7  C   UNL     1      32.020  11.512  16.735  1.00  0.00     0.006 C 
HETATM    8  C   UNL     1      35.578  12.268  18.031  1.00  0.00     0.120 C 
HETATM    9  C   UNL     1      33.363  12.414  19.218  1.00  0.00     0.019 C 
HETATM   10  C   UNL     1      33.493  13.939  19.148  1.00  0.00     0.128 C 
HETATM   11  C   UNL     1      31.674  10.877  18.075  1.00  0.00    -0.014 C 
HETATM   12  C   UNL     1      31.913  11.952  19.145  1.00  0.00     0.012 C 
HETATM   13  C   UNL     1      35.915  13.527  18.791  1.00  0.00     0.271 C 
HETATM   14  O   UNL     1      37.057  13.740  19.142  1.00  0.00    -0.266 OA
ENDROOT
BRANCH   8  15
HETATM   15  O   UNL     1      36.596  11.289  18.153  1.00  0.00    -0.359 OA
ATOM     16  HO  UNL     1      37.120  11.336  18.944  1.00  0.00     0.217 HD
ENDBRANCH   8  15
TORSDOF 1
ENDMDL
MODEL 2
REMARK VINA RESULT:      -6.0      3.136      4.512
REMARK  1 active torsions:
REMARK  status: ('A' for Active; 'I' for Inactive)
REMARK    1  A    between atoms: O_2  and  C_10 
ROOT
HETATM    1  C   UNL     1      32.923  10.859  17.455  1.00  0.00     0.019 C 
HETATM    2  N   UNL     1      31.539   8.760  18.835  1.00  0.00    -0.355 N 
ATOM      3  HN  UNL     1      31.294   7.939  19.389  1.00  0.00     0.162 HD
HETATM    4  C   UNL     1      32.898  12.012  16.450  1.00  0.00     0.017 C 
HETATM    5  C   UNL     1      34.341  10.770  18.028  1.00  0.00     0.017 C 
HETATM    6  C   UNL     1      33.320  13.306  17.135  1.00  0.00     0.006 C 
HETATM    7  C   UNL     1      34.780  12.070  18.668  1.00  0.00     0.006 C 
HETATM    8  C   UNL     1      32.549   9.536  16.793  1.00  0.00     0.120 C 
HETATM    9  C   UNL     1      31.951  11.189  18.596  1.00  0.00     0.019 C 
HETATM   10  C   UNL     1      31.810  10.003  19.554  1.00  0.00     0.128 C 
HETATM   11  C   UNL     1      33.653  13.092  18.612  1.00  0.00    -0.014 C 
HETATM   12  C   UNL     1      32.441  12.448  19.300  1.00  0.00     0.012 C 
HETATM   13  C   UNL     1      31.588   8.617  17.507  1.00  0.00     0.271 C 
HETATM   14  O   UNL     1      30.937   7.807  16.878  1.00  0.00    -0.266 OA
ENDROOT
BRANCH   8  15
HETATM   15  O   UNL     1      32.286   9.596  15.402  1.00  0.00    -0.359 OA
ATOM     16  HO  UNL     1      31.493   9.160  15.112  1.00  0.00     0.217 HD
ENDBRANCH   8  15
TORSDOF 1
ENDMDL
MODEL 3
REMARK VINA RESULT:      -5.7      3.939      5.620
REMARK  1 active torsions:
REMARK  status: ('A' for Active; 'I' for Inactive)
REMARK    1  A    between atoms: O_2  and  C_10 
ROOT
HETATM    1  C   UNL     1      32.562   8.569  18.337  1.00  0.00     0.019 C 
HETATM    2  N   UNL     1      30.976   6.680  16.872  1.00  0.00    -0.355 N 
ATOM      3  HN  UNL     1      30.222   6.091  16.518  1.00  0.00     0.162 HD
HETATM    4  C   UNL     1      33.937   9.137  18.691  1.00  0.00     0.017 C 
HETATM    5  C   UNL     1      31.509   9.389  19.091  1.00  0.00     0.017 C 
HETATM    6  C   UNL     1      33.996  10.616  18.328  1.00  0.00     0.006 C 
HETATM    7  C   UNL     1      31.597  10.865  18.767  1.00  0.00     0.006 C 
HETATM    8  C   UNL     1      32.449   7.099  18.729  1.00  0.00     0.120 C 
HETATM    9  C   UNL     1      32.337   8.748  16.829  1.00  0.00     0.019 C 
HETATM   10  C   UNL     1      31.045   8.055  16.383  1.00  0.00     0.128 C 
HETATM   11  C   UNL     1      32.681  11.113  17.726  1.00  0.00    -0.014 C 
HETATM   12  C   UNL     1      32.335  10.238  16.514  1.00  0.00     0.012 C 
HETATM   13  C   UNL     1      31.825   6.135  17.749  1.00  0.00     0.271 C 
HETATM   14  O   UNL     1      32.093   4.952  17.803  1.00  0.00    -0.266 OA
ENDROOT
BRANCH   8  15
HETATM   15  O   UNL     1      33.587   6.542  19.364  1.00  0.00    -0.359 OA
ATOM     16  HO  UNL     1      34.290   6.268  18.786  1.00  0.00     0.217 HD
ENDBRANCH   8  15
TORSDOF 1
ENDMDL
MODEL 4
REMARK VINA RESULT:      -5.6      1.802      2.807
REMARK  1 active torsions:
REMARK  status: ('A' for Active; 'I' for Inactive)
REMARK    1  A    between atoms: O_2  and  C_10 
ROOT
HETATM    1  C   UNL     1      34.105  13.031  18.385  1.00  0.00     0.019 C 
HETATM    2  N   UNL     1      36.743  13.620  19.348  1.00  0.00    -0.355 N 
ATOM      3  HN  UNL     1      37.580  13.736  19.919  1.00  0.00     0.162 HD
HETATM    4  C   UNL     1      33.043  13.168  17.294  1.00  0.00     0.017 C 
HETATM    5  C   UNL     1      33.523  12.151  19.496  1.00  0.00     0.017 C 
HETATM    6  C   UNL     1      32.644  11.790  16.781  1.00  0.00     0.006 C 
HETATM    7  C   UNL     1      33.084  10.797  18.979  1.00  0.00     0.006 C 
HETATM    8  C   UNL     1      34.497  14.391  18.955  1.00  0.00     0.120 C 
HETATM    9  C   UNL     1      35.328  12.322  17.785  1.00  0.00     0.019 C 
HETATM   10  C   UNL     1      36.489  12.296  18.783  1.00  0.00     0.128 C 
HETATM   11  C   UNL     1      33.402  10.670  17.496  1.00  0.00    -0.014 C 
HETATM   12  C   UNL     1      34.909  10.925  17.346  1.00  0.00     0.012 C 
HETATM   13  C   UNL     1      35.960  14.689  19.174  1.00  0.00     0.271 C 
HETATM   14  O   UNL     1      36.351  15.839  19.200  1.00  0.00    -0.266 OA
ENDROOT
BRANCH   8  15
HETATM   15  O   UNL     1      33.806  15.506  18.419  1.00  0.00    -0.359 OA
ATOM     16  HO  UNL     1      33.238  15.323  17.679  1.00  0.00     0.217 HD
ENDBRANCH   8  15
TORSDOF 1
ENDMDL
MODEL 5
REMARK VINA RESULT:      -5.6      3.503      4.868
REMARK  1 active torsions:
REMARK  status: ('A' for Active; 'I' for Inactive)
REMARK    1  A    between atoms: O_2  and  C_10 
ROOT
HETATM    1  C   UNL     1      32.720   9.586  17.721  1.00  0.00     0.019 C 
HETATM    2  N   UNL     1      31.572   7.800  19.651  1.00  0.00    -0.355 N 
ATOM      3  HN  UNL     1      31.406   7.184  20.447  1.00  0.00     0.162 HD
HETATM    4  C   UNL     1      32.641  10.277  16.360  1.00  0.00     0.017 C 
HETATM    5  C   UNL     1      33.994  10.071  18.419  1.00  0.00     0.017 C 
HETATM    6  C   UNL     1      32.650  11.790  16.544  1.00  0.00     0.006 C 
HETATM    7  C   UNL     1      34.027  11.578  18.562  1.00  0.00     0.006 C 
HETATM    8  C   UNL     1      32.758   8.068  17.574  1.00  0.00     0.120 C 
HETATM    9  C   UNL     1      31.506  10.020  18.556  1.00  0.00     0.019 C 
HETATM   10  C   UNL     1      31.441   9.238  19.872  1.00  0.00     0.128 C 
HETATM   11  C   UNL     1      32.742  12.188  18.018  1.00  0.00    -0.014 C 
HETATM   12  C   UNL     1      31.585  11.524  18.778  1.00  0.00     0.012 C 
HETATM   13  C   UNL     1      31.894   7.230  18.485  1.00  0.00     0.271 C 
HETATM   14  O   UNL     1      31.554   6.115  18.148  1.00  0.00    -0.266 OA
ENDROOT
BRANCH   8  15
HETATM   15  O   UNL     1      32.750   7.578  16.244  1.00  0.00    -0.359 OA
ATOM     16  HO  UNL     1      33.415   6.931  16.038  1.00  0.00     0.217 HD
ENDBRANCH   8  15
TORSDOF 1
ENDMDL
MODEL 6
REMARK VINA RESULT:      -5.6      1.644      2.304
REMARK  1 active torsions:
REMARK  status: ('A' for Active; 'I' for Inactive)
REMARK    1  A    between atoms: O_2  and  C_10 
ROOT
HETATM    1  C   UNL     1      33.306  10.211  18.161  1.00  0.00     0.019 C 
HETATM    2  N   UNL     1      32.565  12.978  18.328  1.00  0.00    -0.355 N 
ATOM      3  HN  UNL     1      32.190  13.910  18.152  1.00  0.00     0.162 HD
HETATM    4  C   UNL     1      34.142   9.041  18.680  1.00  0.00     0.017 C 
HETATM    5  C   UNL     1      32.419   9.687  17.028  1.00  0.00     0.017 C 
HETATM    6  C   UNL     1      33.226   7.915  19.145  1.00  0.00     0.006 C 
HETATM    7  C   UNL     1      31.542   8.538  17.476  1.00  0.00     0.006 C 
HETATM    8  C   UNL     1      34.192  11.341  17.644  1.00  0.00     0.120 C 
HETATM    9  C   UNL     1      32.406  10.707  19.302  1.00  0.00     0.019 C 
HETATM   10  C   UNL     1      31.659  11.981  18.895  1.00  0.00     0.128 C 
HETATM   11  C   UNL     1      31.748   8.263  18.960  1.00  0.00    -0.014 C 
HETATM   12  C   UNL     1      31.459   9.580  19.694  1.00  0.00     0.012 C 
HETATM   13  C   UNL     1      33.848  12.761  18.024  1.00  0.00     0.271 C 
HETATM   14  O   UNL     1      34.709  13.618  18.022  1.00  0.00    -0.266 OA
ENDROOT
BRANCH   8  15
HETATM   15  O   UNL     1      35.588  11.104  17.698  1.00  0.00    -0.359 OA
ATOM     16  HO  UNL     1      35.899  10.358  17.198  1.00  0.00     0.217 HD
ENDBRANCH   8  15
TORSDOF 1
ENDMDL
MODEL 7
REMARK VINA RESULT:      -5.4      2.401      4.077
REMARK  1 active torsions:
REMARK  status: ('A' for Active; 'I' for Inactive)
REMARK    1  A    between atoms: O_2  and  C_10 
ROOT
HETATM    1  C   UNL     1      33.838  11.368  18.391  1.00  0.00     0.019 C 
HETATM    2  N   UNL     1      31.894  10.101  16.702  1.00  0.00    -0.355 N 
ATOM      3  HN  UNL     1      31.034   9.748  16.283  1.00  0.00     0.162 HD
HETATM    4  C   UNL     1      35.300  11.565  18.794  1.00  0.00     0.017 C 
HETATM    5  C   UNL     1      32.981  12.280  19.275  1.00  0.00     0.017 C 
HETATM    6  C   UNL     1      35.686  13.031  18.645  1.00  0.00     0.006 C 
HETATM    7  C   UNL     1      33.394  13.732  19.163  1.00  0.00     0.006 C 
HETATM    8  C   UNL     1      33.402   9.916  18.570  1.00  0.00     0.120 C 
HETATM    9  C   UNL     1      33.675  11.806  16.928  1.00  0.00     0.019 C 
HETATM   10  C   UNL     1      32.269  11.484  16.414  1.00  0.00     0.128 C 
HETATM   11  C   UNL     1      34.519  13.885  18.148  1.00  0.00    -0.014 C 
HETATM   12  C   UNL     1      34.004  13.290  16.830  1.00  0.00     0.012 C 
HETATM   13  C   UNL     1      32.593   9.264  17.475  1.00  0.00     0.271 C 
HETATM   14  O   UNL     1      32.595   8.055  17.354  1.00  0.00    -0.266 OA
ENDROOT
BRANCH   8  15
HETATM   15  O   UNL     1      34.383   9.039  19.096  1.00  0.00    -0.359 OA
ATOM     16  HO  UNL     1      34.079   8.167  19.321  1.00  0.00     0.217 HD
ENDBRANCH   8  15
TORSDOF 1
ENDMDL
MODEL 8
REMARK VINA RESULT:      -4.9      2.095      2.916
REMARK  1 active torsions:
REMARK  status: ('A' for Active; 'I' for Inactive)
REMARK    1  A    between atoms: O_2  and  C_10 
ROOT
HETATM    1  C   UNL     1      32.894  11.216  18.852  1.00  0.00     0.019 C 
HETATM    2  N   UNL     1      33.489  12.923  16.624  1.00  0.00    -0.355 N 
ATOM      3  HN  UNL     1      33.925  13.386  15.826  1.00  0.00     0.162 HD
HETATM    4  C   UNL     1      32.030  10.903  20.074  1.00  0.00     0.017 C 
HETATM    5  C   UNL     1      33.930  10.097  18.712  1.00  0.00     0.017 C 
HETATM    6  C   UNL     1      31.376   9.536  19.910  1.00  0.00     0.006 C 
HETATM    7  C   UNL     1      33.283   8.733  18.596  1.00  0.00     0.006 C 
HETATM    8  C   UNL     1      33.602  12.560  19.000  1.00  0.00     0.120 C 
HETATM    9  C   UNL     1      31.994  11.212  17.608  1.00  0.00     0.019 C 
HETATM   10  C   UNL     1      32.769  11.677  16.371  1.00  0.00     0.128 C 
HETATM   11  C   UNL     1      31.766   8.867  18.592  1.00  0.00    -0.014 C 
HETATM   12  C   UNL     1      31.412   9.815  17.437  1.00  0.00     0.012 C 
HETATM   13  C   UNL     1      33.621  13.502  17.821  1.00  0.00     0.271 C 
HETATM   14  O   UNL     1      33.765  14.695  17.996  1.00  0.00    -0.266 OA
ENDROOT
BRANCH   8  15
HETATM   15  O   UNL     1      33.373  13.245  20.219  1.00  0.00    -0.359 OA
ATOM     16  HO  UNL     1      34.051  13.154  20.878  1.00  0.00     0.217 HD
ENDBRANCH   8  15
TORSDOF 1
ENDMDL
MODEL 9
REMARK VINA RESULT:      -4.9      2.885      4.324
REMARK  1 active torsions:
REMARK  status: ('A' for Active; 'I' for Inactive)
REMARK    1  A    between atoms: O_2  and  C_10 
ROOT
HETATM    1  C   UNL     1      33.074  12.217  18.233  1.00  0.00     0.019 C 
HETATM    2  N   UNL     1      33.613   9.773  16.829  1.00  0.00    -0.355 N 
ATOM      3  HN  UNL     1      33.803   9.066  16.118  1.00  0.00     0.162 HD
HETATM    4  C   UNL     1      32.644  12.927  19.517  1.00  0.00     0.017 C 
HETATM    5  C   UNL     1      33.394  13.290  17.188  1.00  0.00     0.017 C 
HETATM    6  C   UNL     1      33.749  13.868  19.984  1.00  0.00     0.006 C 
HETATM    7  C   UNL     1      34.459  14.253  17.669  1.00  0.00     0.006 C 
HETATM    8  C   UNL     1      31.973  11.298  17.710  1.00  0.00     0.120 C 
HETATM    9  C   UNL     1      34.352  11.418  18.526  1.00  0.00     0.019 C 
HETATM   10  C   UNL     1      34.745  10.554  17.323  1.00  0.00     0.128 C 
HETATM   11  C   UNL     1      34.958  13.843  19.048  1.00  0.00    -0.014 C 
HETATM   12  C   UNL     1      35.451  12.394  18.923  1.00  0.00     0.012 C 
HETATM   13  C   UNL     1      32.348   9.915  17.237  1.00  0.00     0.271 C 
HETATM   14  O   UNL     1      31.519   9.028  17.229  1.00  0.00    -0.266 OA
ENDROOT
BRANCH   8  15
HETATM   15  O   UNL     1      30.770  11.292  18.458  1.00  0.00    -0.359 OA
ATOM     16  HO  UNL     1      30.253  10.496  18.403  1.00  0.00     0.217 HD
ENDBRANCH   8  15
TORSDOF 1
ENDMDL
