REMARK  0 active torsions:
REMARK  status: ('A' for Active; 'I' for Inactive)
ROOT
HETATM    1  C   UNL     1      82.991 -44.055  20.066  1.00  0.00     0.011 C 
HETATM    2  C   UNL     1      81.518 -42.620  21.401  1.00  0.00    -0.010 C 
HETATM    3  C   UNL     1      83.411 -45.404  24.945  1.00  0.00     0.018 C 
HETATM    4  C   UNL     1      80.857 -43.989  21.222  1.00  0.00     0.015 C 
HETATM    5  C   UNL     1      82.761 -45.020  22.320  1.00  0.00     0.019 C 
HETATM    6  C   UNL     1      83.046 -44.124  24.544  1.00  0.00     0.010 C 
HETATM    7  N   UNL     1      83.531 -46.090  22.647  1.00  0.00    -0.368 N 
ATOM      8  HN  UNL     1      83.952 -46.682  21.931  1.00  0.00     0.165 HD
HETATM    9  C   UNL     1      83.715 -46.336  23.965  1.00  0.00     0.088 C 
HETATM   10  C   UNL     1      82.074 -44.896  20.965  1.00  0.00     0.036 C 
HETATM   11  C   UNL     1      82.750 -43.904  23.200  1.00  0.00    -0.035 C 
HETATM   12  C   UNL     1      82.216 -42.568  22.767  1.00  0.00     0.045 C 
HETATM   13  C   UNL     1      82.606 -42.609  20.300  1.00  0.00     0.005 C 
ENDROOT
TORSDOF 0
