MODEL 1
REMARK VINA RESULT:      -9.1      0.000      0.000
REMARK  8 active torsions:
REMARK  status: ('A' for Active; 'I' for Inactive)
REMARK    1  A    between atoms: C_1  and  C_6 
REMARK    2  A    between atoms: C_2  and  C_8 
REMARK    3  A    between atoms: C_2  and  C_14 
REMARK    4  A    between atoms: C_3  and  C_8 
REMARK    5  A    between atoms: O_4  and  C_28 
REMARK    6  A    between atoms: C_6  and  C_8 
REMARK    7  A    between atoms: C_10  and  C_28 
REMARK    8  A    between atoms: C_16  and  O_21 
ROOT
HETATM    1  C   UNL     1       4.954   6.908  19.357  1.00  0.00    -0.043 C 
ENDROOT
BRANCH   1   2
HETATM    2  C   UNL     1       5.738   8.064  18.782  1.00  0.00     0.078 C 
BRANCH   2   3
HETATM    3  C   UNL     1       4.884   9.075  18.063  1.00  0.00    -0.042 C 
HETATM    4  C   UNL     1       5.045   9.220  16.687  1.00  0.00     0.010 C 
HETATM    5  C   UNL     1       4.431  10.284  16.031  1.00  0.00     0.075 C 
HETATM    6  C   UNL     1       3.619  11.180  16.731  1.00  0.00     0.037 C 
HETATM    7  C   UNL     1       3.337  10.941  18.073  1.00  0.00     0.003 C 
HETATM    8  C   UNL     1       3.929   9.860  18.723  1.00  0.00     0.008 C 
BRANCH   4   9
HETATM    9  C   UNL     1       5.885   8.215  15.930  1.00  0.00     0.150 C 
HETATM   10  C   UNL     1       5.067   7.440  14.908  1.00  0.00     0.044 C 
BRANCH   9  11
HETATM   11  O   UNL     1       6.975   8.836  15.283  1.00  0.00    -0.391 OA
ATOM     12  HO  UNL     1       7.765   8.785  15.808  1.00  0.00     0.210 HD
ENDBRANCH   9  11
ENDBRANCH   4   9
BRANCH   5  13
HETATM   13  O   UNL     1       4.761  10.587  14.743  1.00  0.00    -0.360 OA
ATOM     14  HO  UNL     1       5.189  11.409  14.535  1.00  0.00     0.217 HD
ENDBRANCH   5  13
ENDBRANCH   2   3
ENDBRANCH   1   2
BRANCH   1  15
HETATM   15  C   UNL     1       4.495   6.956  20.781  1.00  0.00    -0.030 C 
HETATM   16  C   UNL     1       3.216   6.562  21.162  1.00  0.00     0.012 C 
HETATM   17  C   UNL     1       2.758   6.529  22.466  1.00  0.00     0.001 C 
HETATM   18  C   UNL     1       3.410   6.668  23.663  1.00  0.00     0.000 C 
HETATM   19  C   UNL     1       4.747   6.844  23.961  1.00  0.00     0.000 C 
HETATM   20  C   UNL     1       5.692   7.227  23.014  1.00  0.00     0.001 C 
HETATM   21  C   UNL     1       5.423   7.457  21.681  1.00  0.00     0.012 C 
ENDBRANCH   1  15
BRANCH   1  22
HETATM   22  C   UNL     1       4.517   5.873  18.592  1.00  0.00     0.019 C 
BRANCH  22  23
HETATM   23  C   UNL     1       3.189   5.598  18.061  1.00  0.00    -0.036 C 
HETATM   24  C   UNL     1       2.660   4.347  18.366  1.00  0.00     0.011 C 
HETATM   25  C   UNL     1       1.379   3.844  18.318  1.00  0.00     0.001 C 
HETATM   26  C   UNL     1       0.207   4.566  18.090  1.00  0.00     0.000 C 
HETATM   27  C   UNL     1       0.160   5.876  17.645  1.00  0.00     0.000 C 
HETATM   28  C   UNL     1       1.173   6.696  17.126  1.00  0.00     0.001 C 
HETATM   29  C   UNL     1       2.546   6.539  17.208  1.00  0.00     0.011 C 
ENDBRANCH  22  23
ENDBRANCH   1  22
TORSDOF 8
ENDMDL
MODEL 2
REMARK VINA RESULT:      -9.0      2.455      5.972
REMARK  8 active torsions:
REMARK  status: ('A' for Active; 'I' for Inactive)
REMARK    1  A    between atoms: C_1  and  C_6 
REMARK    2  A    between atoms: C_2  and  C_8 
REMARK    3  A    between atoms: C_2  and  C_14 
REMARK    4  A    between atoms: C_3  and  C_8 
REMARK    5  A    between atoms: O_4  and  C_28 
REMARK    6  A    between atoms: C_6  and  C_8 
REMARK    7  A    between atoms: C_10  and  C_28 
REMARK    8  A    between atoms: C_16  and  O_21 
ROOT
HETATM    1  C   UNL     1       3.463   7.515  19.471  1.00  0.00    -0.043 C 
ENDROOT
BRANCH   1   2
HETATM    2  C   UNL     1       4.541   6.720  20.171  1.00  0.00     0.078 C 
BRANCH   2   3
HETATM    3  C   UNL     1       5.937   7.188  19.855  1.00  0.00    -0.042 C 
HETATM    4  C   UNL     1       6.607   7.962  20.800  1.00  0.00     0.010 C 
HETATM    5  C   UNL     1       7.804   8.585  20.455  1.00  0.00     0.075 C 
HETATM    6  C   UNL     1       8.362   8.405  19.187  1.00  0.00     0.037 C 
HETATM    7  C   UNL     1       7.770   7.509  18.302  1.00  0.00     0.003 C 
HETATM    8  C   UNL     1       6.587   6.864  18.657  1.00  0.00     0.008 C 
BRANCH   4   9
HETATM    9  C   UNL     1       6.020   8.109  22.187  1.00  0.00     0.150 C 
HETATM   10  C   UNL     1       6.908   7.487  23.253  1.00  0.00     0.044 C 
BRANCH   9  11
HETATM   11  O   UNL     1       5.783   9.464  22.506  1.00  0.00    -0.391 OA
ATOM     12  HO  UNL     1       6.364  10.041  22.025  1.00  0.00     0.210 HD
ENDBRANCH   9  11
ENDBRANCH   4   9
BRANCH   5  13
HETATM   13  O   UNL     1       8.352   9.531  21.271  1.00  0.00    -0.360 OA
ATOM     14  HO  UNL     1       8.373   9.403  22.212  1.00  0.00     0.217 HD
ENDBRANCH   5  13
ENDBRANCH   2   3
ENDBRANCH   1   2
BRANCH   1  15
HETATM   15  C   UNL     1       2.238   6.821  18.964  1.00  0.00    -0.030 C 
HETATM   16  C   UNL     1       1.310   7.455  18.144  1.00  0.00     0.012 C 
HETATM   17  C   UNL     1       0.195   6.847  17.600  1.00  0.00     0.001 C 
HETATM   18  C   UNL     1      -0.190   5.533  17.544  1.00  0.00     0.000 C 
HETATM   19  C   UNL     1       0.433   4.379  17.978  1.00  0.00     0.000 C 
HETATM   20  C   UNL     1       1.504   4.382  18.866  1.00  0.00     0.001 C 
HETATM   21  C   UNL     1       2.079   5.515  19.404  1.00  0.00     0.012 C 
ENDBRANCH   1  15
BRANCH   1  22
HETATM   22  C   UNL     1       3.487   8.872  19.404  1.00  0.00     0.019 C 
BRANCH  22  23
HETATM   23  C   UNL     1       4.292   9.755  18.571  1.00  0.00    -0.036 C 
HETATM   24  C   UNL     1       4.858  10.850  19.216  1.00  0.00     0.011 C 
HETATM   25  C   UNL     1       5.882  11.704  18.871  1.00  0.00     0.001 C 
HETATM   26  C   UNL     1       6.758  11.563  17.794  1.00  0.00     0.000 C 
HETATM   27  C   UNL     1       6.597  10.661  16.756  1.00  0.00     0.000 C 
HETATM   28  C   UNL     1       5.494   9.867  16.406  1.00  0.00     0.001 C 
HETATM   29  C   UNL     1       4.390   9.528  17.169  1.00  0.00     0.011 C 
ENDBRANCH  22  23
ENDBRANCH   1  22
TORSDOF 8
ENDMDL
MODEL 3
REMARK VINA RESULT:      -9.0      2.434      4.942
REMARK  8 active torsions:
REMARK  status: ('A' for Active; 'I' for Inactive)
REMARK    1  A    between atoms: C_1  and  C_6 
REMARK    2  A    between atoms: C_2  and  C_8 
REMARK    3  A    between atoms: C_2  and  C_14 
REMARK    4  A    between atoms: C_3  and  C_8 
REMARK    5  A    between atoms: O_4  and  C_28 
REMARK    6  A    between atoms: C_6  and  C_8 
REMARK    7  A    between atoms: C_10  and  C_28 
REMARK    8  A    between atoms: C_16  and  O_21 
ROOT
HETATM    1  C   UNL     1       4.033   6.671  19.304  1.00  0.00    -0.043 C 
ENDROOT
BRANCH   1   2
HETATM    2  C   UNL     1       4.277   7.583  20.483  1.00  0.00     0.078 C 
BRANCH   2   3
HETATM    3  C   UNL     1       4.714   8.971  20.093  1.00  0.00    -0.042 C 
HETATM    4  C   UNL     1       6.006   9.375  20.418  1.00  0.00     0.010 C 
HETATM    5  C   UNL     1       6.368  10.711  20.266  1.00  0.00     0.075 C 
HETATM    6  C   UNL     1       5.463  11.640  19.747  1.00  0.00     0.037 C 
HETATM    7  C   UNL     1       4.227  11.201  19.280  1.00  0.00     0.003 C 
HETATM    8  C   UNL     1       3.875   9.859  19.406  1.00  0.00     0.008 C 
BRANCH   4   9
HETATM    9  C   UNL     1       6.995   8.351  20.932  1.00  0.00     0.150 C 
HETATM   10  C   UNL     1       8.030   7.978  19.882  1.00  0.00     0.044 C 
BRANCH   9  11
HETATM   11  O   UNL     1       7.652   8.806  22.096  1.00  0.00    -0.391 OA
ATOM     12  HO  UNL     1       7.700   9.754  22.119  1.00  0.00     0.210 HD
ENDBRANCH   9  11
ENDBRANCH   4   9
BRANCH   5  13
HETATM   13  O   UNL     1       7.535  11.177  20.795  1.00  0.00    -0.360 OA
ATOM     14  HO  UNL     1       8.090  10.609  21.317  1.00  0.00     0.217 HD
ENDBRANCH   5  13
ENDBRANCH   2   3
ENDBRANCH   1   2
BRANCH   1  15
HETATM   15  C   UNL     1       2.631   6.350  18.889  1.00  0.00    -0.030 C 
HETATM   16  C   UNL     1       1.804   7.288  18.279  1.00  0.00     0.012 C 
HETATM   17  C   UNL     1       0.525   7.032  17.822  1.00  0.00     0.001 C 
HETATM   18  C   UNL     1      -0.168   5.860  17.668  1.00  0.00     0.000 C 
HETATM   19  C   UNL     1       0.200   4.545  17.878  1.00  0.00     0.000 C 
HETATM   20  C   UNL     1       1.325   4.180  18.610  1.00  0.00     0.001 C 
HETATM   21  C   UNL     1       2.208   5.065  19.193  1.00  0.00     0.012 C 
ENDBRANCH   1  15
BRANCH   1  22
HETATM   22  C   UNL     1       5.039   6.234  18.501  1.00  0.00     0.019 C 
BRANCH  22  23
HETATM   23  C   UNL     1       5.572   6.806  17.272  1.00  0.00    -0.036 C 
HETATM   24  C   UNL     1       6.795   6.297  16.846  1.00  0.00     0.011 C 
HETATM   25  C   UNL     1       7.450   6.347  15.635  1.00  0.00     0.001 C 
HETATM   26  C   UNL     1       6.933   6.814  14.426  1.00  0.00     0.000 C 
HETATM   27  C   UNL     1       5.750   7.520  14.292  1.00  0.00     0.000 C 
HETATM   28  C   UNL     1       4.929   8.110  15.264  1.00  0.00     0.001 C 
HETATM   29  C   UNL     1       4.899   7.883  16.630  1.00  0.00     0.011 C 
ENDBRANCH  22  23
ENDBRANCH   1  22
TORSDOF 8
ENDMDL
MODEL 4
REMARK VINA RESULT:      -9.0      2.384      5.069
REMARK  8 active torsions:
REMARK  status: ('A' for Active; 'I' for Inactive)
REMARK    1  A    between atoms: C_1  and  C_6 
REMARK    2  A    between atoms: C_2  and  C_8 
REMARK    3  A    between atoms: C_2  and  C_14 
REMARK    4  A    between atoms: C_3  and  C_8 
REMARK    5  A    between atoms: O_4  and  C_28 
REMARK    6  A    between atoms: C_6  and  C_8 
REMARK    7  A    between atoms: C_10  and  C_28 
REMARK    8  A    between atoms: C_16  and  O_21 
ROOT
HETATM    1  C   UNL     1       4.741   7.928  17.958  1.00  0.00    -0.043 C 
ENDROOT
BRANCH   1   2
HETATM    2  C   UNL     1       5.811   7.436  18.904  1.00  0.00     0.078 C 
BRANCH   2   3
HETATM    3  C   UNL     1       5.368   7.386  20.343  1.00  0.00    -0.042 C 
HETATM    4  C   UNL     1       6.056   8.156  21.276  1.00  0.00     0.010 C 
HETATM    5  C   UNL     1       5.814   7.971  22.635  1.00  0.00     0.075 C 
HETATM    6  C   UNL     1       4.853   7.053  23.069  1.00  0.00     0.037 C 
HETATM    7  C   UNL     1       4.061   6.399  22.130  1.00  0.00     0.003 C 
HETATM    8  C   UNL     1       4.285   6.606  20.770  1.00  0.00     0.008 C 
BRANCH   4   9
HETATM    9  C   UNL     1       7.058   9.184  20.794  1.00  0.00     0.150 C 
HETATM   10  C   UNL     1       6.460  10.581  20.734  1.00  0.00     0.044 C 
BRANCH   9  11
HETATM   11  O   UNL     1       8.211   9.203  21.609  1.00  0.00    -0.391 OA
ATOM     12  HO  UNL     1       8.282   8.410  22.128  1.00  0.00     0.210 HD
ENDBRANCH   9  11
ENDBRANCH   4   9
BRANCH   5  13
HETATM   13  O   UNL     1       6.634   8.532  23.569  1.00  0.00    -0.360 OA
ATOM     14  HO  UNL     1       6.834   9.461  23.540  1.00  0.00     0.217 HD
ENDBRANCH   5  13
ENDBRANCH   2   3
ENDBRANCH   1   2
BRANCH   1  15
HETATM   15  C   UNL     1       4.414   9.387  17.900  1.00  0.00    -0.030 C 
HETATM   16  C   UNL     1       3.358   9.941  18.615  1.00  0.00     0.012 C 
HETATM   17  C   UNL     1       3.047  11.287  18.647  1.00  0.00     0.001 C 
HETATM   18  C   UNL     1       3.724  12.388  18.193  1.00  0.00     0.000 C 
HETATM   19  C   UNL     1       4.962  12.517  17.594  1.00  0.00     0.000 C 
HETATM   20  C   UNL     1       5.657  11.443  17.048  1.00  0.00     0.001 C 
HETATM   21  C   UNL     1       5.216  10.136  17.051  1.00  0.00     0.012 C 
ENDBRANCH   1  15
BRANCH   1  22
HETATM   22  C   UNL     1       4.153   7.117  17.040  1.00  0.00     0.019 C 
BRANCH  22  23
HETATM   23  C   UNL     1       2.996   6.242  17.169  1.00  0.00    -0.036 C 
HETATM   24  C   UNL     1       3.222   5.024  17.804  1.00  0.00     0.011 C 
HETATM   25  C   UNL     1       2.373   4.099  18.369  1.00  0.00     0.001 C 
HETATM   26  C   UNL     1       1.004   4.253  18.596  1.00  0.00     0.000 C 
HETATM   27  C   UNL     1       0.227   5.275  18.078  1.00  0.00     0.000 C 
HETATM   28  C   UNL     1       0.518   6.225  17.088  1.00  0.00     0.001 C 
HETATM   29  C   UNL     1       1.750   6.606  16.584  1.00  0.00     0.011 C 
ENDBRANCH  22  23
ENDBRANCH   1  22
TORSDOF 8
ENDMDL
MODEL 5
REMARK VINA RESULT:      -8.8      2.427      5.296
REMARK  8 active torsions:
REMARK  status: ('A' for Active; 'I' for Inactive)
REMARK    1  A    between atoms: C_1  and  C_6 
REMARK    2  A    between atoms: C_2  and  C_8 
REMARK    3  A    between atoms: C_2  and  C_14 
REMARK    4  A    between atoms: C_3  and  C_8 
REMARK    5  A    between atoms: O_4  and  C_28 
REMARK    6  A    between atoms: C_6  and  C_8 
REMARK    7  A    between atoms: C_10  and  C_28 
REMARK    8  A    between atoms: C_16  and  O_21 
ROOT
HETATM    1  C   UNL     1       3.927   6.758  18.989  1.00  0.00    -0.043 C 
ENDROOT
BRANCH   1   2
HETATM    2  C   UNL     1       3.764   8.140  19.576  1.00  0.00     0.078 C 
BRANCH   2   3
HETATM    3  C   UNL     1       4.802   9.124  19.103  1.00  0.00    -0.042 C 
HETATM    4  C   UNL     1       5.788   9.530  19.998  1.00  0.00     0.010 C 
HETATM    5  C   UNL     1       6.627  10.591  19.664  1.00  0.00     0.075 C 
HETATM    6  C   UNL     1       6.519  11.220  18.421  1.00  0.00     0.037 C 
HETATM    7  C   UNL     1       5.638  10.710  17.472  1.00  0.00     0.003 C 
HETATM    8  C   UNL     1       4.818   9.631  17.796  1.00  0.00     0.008 C 
BRANCH   4   9
HETATM    9  C   UNL     1       5.929   8.809  21.322  1.00  0.00     0.150 C 
HETATM   10  C   UNL     1       7.262   8.085  21.439  1.00  0.00     0.044 C 
BRANCH   9  11
HETATM   11  O   UNL     1       5.780   9.694  22.411  1.00  0.00    -0.391 OA
ATOM     12  HO  UNL     1       6.070  10.571  22.188  1.00  0.00     0.210 HD
ENDBRANCH   9  11
ENDBRANCH   4   9
BRANCH   5  13
HETATM   13  O   UNL     1       7.432  11.160  20.606  1.00  0.00    -0.360 OA
ATOM     14  HO  UNL     1       8.282  11.512  20.365  1.00  0.00     0.217 HD
ENDBRANCH   5  13
ENDBRANCH   2   3
ENDBRANCH   1   2
BRANCH   1  15
HETATM   15  C   UNL     1       2.725   6.008  18.508  1.00  0.00    -0.030 C 
HETATM   16  C   UNL     1       2.388   4.751  18.999  1.00  0.00     0.012 C 
HETATM   17  C   UNL     1       1.260   4.039  18.636  1.00  0.00     0.001 C 
HETATM   18  C   UNL     1       0.152   4.397  17.913  1.00  0.00     0.000 C 
HETATM   19  C   UNL     1      -0.221   5.600  17.346  1.00  0.00     0.000 C 
HETATM   20  C   UNL     1       0.666   6.655  17.154  1.00  0.00     0.001 C 
HETATM   21  C   UNL     1       1.998   6.641  17.511  1.00  0.00     0.012 C 
ENDBRANCH   1  15
BRANCH   1  22
HETATM   22  C   UNL     1       5.147   6.211  18.742  1.00  0.00     0.019 C 
BRANCH  22  23
HETATM   23  C   UNL     1       6.112   6.510  17.693  1.00  0.00    -0.036 C 
HETATM   24  C   UNL     1       5.680   6.289  16.389  1.00  0.00     0.011 C 
HETATM   25  C   UNL     1       6.153   6.717  15.169  1.00  0.00     0.001 C 
HETATM   26  C   UNL     1       7.150   7.669  14.948  1.00  0.00     0.000 C 
HETATM   27  C   UNL     1       7.992   8.173  15.924  1.00  0.00     0.000 C 
HETATM   28  C   UNL     1       8.214   7.744  17.242  1.00  0.00     0.001 C 
HETATM   29  C   UNL     1       7.437   6.911  18.028  1.00  0.00     0.011 C 
ENDBRANCH  22  23
ENDBRANCH   1  22
TORSDOF 8
ENDMDL
MODEL 6
REMARK VINA RESULT:      -8.7      2.011      4.618
REMARK  8 active torsions:
REMARK  status: ('A' for Active; 'I' for Inactive)
REMARK    1  A    between atoms: C_1  and  C_6 
REMARK    2  A    between atoms: C_2  and  C_8 
REMARK    3  A    between atoms: C_2  and  C_14 
REMARK    4  A    between atoms: C_3  and  C_8 
REMARK    5  A    between atoms: O_4  and  C_28 
REMARK    6  A    between atoms: C_6  and  C_8 
REMARK    7  A    between atoms: C_10  and  C_28 
REMARK    8  A    between atoms: C_16  and  O_21 
ROOT
HETATM    1  C   UNL     1       3.335   7.748  18.994  1.00  0.00    -0.043 C 
ENDROOT
BRANCH   1   2
HETATM    2  C   UNL     1       3.110   9.187  18.592  1.00  0.00     0.078 C 
BRANCH   2   3
HETATM    3  C   UNL     1       4.337  10.051  18.725  1.00  0.00    -0.042 C 
HETATM    4  C   UNL     1       5.031  10.400  17.570  1.00  0.00     0.010 C 
HETATM    5  C   UNL     1       6.279  11.011  17.675  1.00  0.00     0.075 C 
HETATM    6  C   UNL     1       6.818  11.319  18.926  1.00  0.00     0.037 C 
HETATM    7  C   UNL     1       6.053  11.109  20.070  1.00  0.00     0.003 C 
HETATM    8  C   UNL     1       4.793  10.523  19.963  1.00  0.00     0.008 C 
BRANCH   4   9
HETATM    9  C   UNL     1       4.415  10.108  16.219  1.00  0.00     0.150 C 
HETATM   10  C   UNL     1       3.881  11.365  15.550  1.00  0.00     0.044 C 
BRANCH   9  11
HETATM   11  O   UNL     1       5.336   9.474  15.357  1.00  0.00    -0.391 OA
ATOM     12  HO  UNL     1       5.184   9.712  14.450  1.00  0.00     0.210 HD
ENDBRANCH   9  11
ENDBRANCH   4   9
BRANCH   5  13
HETATM   13  O   UNL     1       7.079  11.144  16.579  1.00  0.00    -0.360 OA
ATOM     14  HO  UNL     1       7.805  11.757  16.583  1.00  0.00     0.217 HD
ENDBRANCH   5  13
ENDBRANCH   2   3
ENDBRANCH   1   2
BRANCH   1  15
HETATM   15  C   UNL     1       2.267   6.731  18.744  1.00  0.00    -0.030 C 
HETATM   16  C   UNL     1       1.249   6.934  17.819  1.00  0.00     0.012 C 
HETATM   17  C   UNL     1       0.273   6.007  17.504  1.00  0.00     0.001 C 
HETATM   18  C   UNL     1       0.139   4.682  17.825  1.00  0.00     0.000 C 
HETATM   19  C   UNL     1       0.959   3.825  18.534  1.00  0.00     0.000 C 
HETATM   20  C   UNL     1       1.999   4.268  19.346  1.00  0.00     0.001 C 
HETATM   21  C   UNL     1       2.346   5.591  19.530  1.00  0.00     0.012 C 
ENDBRANCH   1  15
BRANCH   1  22
HETATM   22  C   UNL     1       4.535   7.299  19.449  1.00  0.00     0.019 C 
BRANCH  22  23
HETATM   23  C   UNL     1       5.791   7.101  18.739  1.00  0.00    -0.036 C 
HETATM   24  C   UNL     1       5.700   6.441  17.517  1.00  0.00     0.011 C 
HETATM   25  C   UNL     1       6.567   6.338  16.451  1.00  0.00     0.001 C 
HETATM   26  C   UNL     1       7.752   7.051  16.267  1.00  0.00     0.000 C 
HETATM   27  C   UNL     1       8.373   7.816  17.240  1.00  0.00     0.000 C 
HETATM   28  C   UNL     1       8.135   7.899  18.620  1.00  0.00     0.001 C 
HETATM   29  C   UNL     1       7.023   7.489  19.336  1.00  0.00     0.011 C 
ENDBRANCH  22  23
ENDBRANCH   1  22
TORSDOF 8
ENDMDL
MODEL 7
REMARK VINA RESULT:      -8.7      2.227      6.008
REMARK  8 active torsions:
REMARK  status: ('A' for Active; 'I' for Inactive)
REMARK    1  A    between atoms: C_1  and  C_6 
REMARK    2  A    between atoms: C_2  and  C_8 
REMARK    3  A    between atoms: C_2  and  C_14 
REMARK    4  A    between atoms: C_3  and  C_8 
REMARK    5  A    between atoms: O_4  and  C_28 
REMARK    6  A    between atoms: C_6  and  C_8 
REMARK    7  A    between atoms: C_10  and  C_28 
REMARK    8  A    between atoms: C_16  and  O_21 
ROOT
HETATM    1  C   UNL     1       3.558   8.087  19.057  1.00  0.00    -0.043 C 
ENDROOT
BRANCH   1   2
HETATM    2  C   UNL     1       4.825   7.357  19.442  1.00  0.00     0.078 C 
BRANCH   2   3
HETATM    3  C   UNL     1       5.161   7.464  20.907  1.00  0.00    -0.042 C 
HETATM    4  C   UNL     1       6.311   8.158  21.274  1.00  0.00     0.010 C 
HETATM    5  C   UNL     1       6.764   8.093  22.590  1.00  0.00     0.075 C 
HETATM    6  C   UNL     1       6.050   7.377  23.554  1.00  0.00     0.037 C 
HETATM    7  C   UNL     1       4.822   6.815  23.217  1.00  0.00     0.003 C 
HETATM    8  C   UNL     1       4.355   6.904  21.907  1.00  0.00     0.008 C 
BRANCH   4   9
HETATM    9  C   UNL     1       7.049   8.972  20.233  1.00  0.00     0.150 C 
HETATM   10  C   UNL     1       6.823  10.466  20.410  1.00  0.00     0.044 C 
BRANCH   9  11
HETATM   11  O   UNL     1       8.434   8.702  20.252  1.00  0.00    -0.391 OA
ATOM     12  HO  UNL     1       8.939   9.491  20.413  1.00  0.00     0.210 HD
ENDBRANCH   9  11
ENDBRANCH   4   9
BRANCH   5  13
HETATM   13  O   UNL     1       8.002   8.559  22.920  1.00  0.00    -0.360 OA
ATOM     14  HO  UNL     1       8.287   9.418  22.631  1.00  0.00     0.217 HD
ENDBRANCH   5  13
ENDBRANCH   2   3
ENDBRANCH   1   2
BRANCH   1  15
HETATM   15  C   UNL     1       2.338   7.308  18.680  1.00  0.00    -0.030 C 
HETATM   16  C   UNL     1       1.339   7.838  17.869  1.00  0.00     0.012 C 
HETATM   17  C   UNL     1       0.222   7.147  17.441  1.00  0.00     0.001 C 
HETATM   18  C   UNL     1      -0.110   5.819  17.512  1.00  0.00     0.000 C 
HETATM   19  C   UNL     1       0.585   4.728  17.998  1.00  0.00     0.000 C 
HETATM   20  C   UNL     1       1.702   4.843  18.818  1.00  0.00     0.001 C 
HETATM   21  C   UNL     1       2.258   6.037  19.230  1.00  0.00     0.012 C 
ENDBRANCH   1  15
BRANCH   1  22
HETATM   22  C   UNL     1       3.430   9.434  19.176  1.00  0.00     0.019 C 
BRANCH  22  23
HETATM   23  C   UNL     1       3.824  10.497  18.262  1.00  0.00    -0.036 C 
HETATM   24  C   UNL     1       4.355  10.084  17.043  1.00  0.00     0.011 C 
HETATM   25  C   UNL     1       4.550  10.737  15.846  1.00  0.00     0.001 C 
HETATM   26  C   UNL     1       4.080  12.005  15.502  1.00  0.00     0.000 C 
HETATM   27  C   UNL     1       3.536  12.915  16.392  1.00  0.00     0.000 C 
HETATM   28  C   UNL     1       3.513  12.912  17.795  1.00  0.00     0.001 C 
HETATM   29  C   UNL     1       3.743  11.860  18.665  1.00  0.00     0.011 C 
ENDBRANCH  22  23
ENDBRANCH   1  22
TORSDOF 8
ENDMDL
MODEL 8
REMARK VINA RESULT:      -8.7      1.205      2.901
REMARK  8 active torsions:
REMARK  status: ('A' for Active; 'I' for Inactive)
REMARK    1  A    between atoms: C_1  and  C_6 
REMARK    2  A    between atoms: C_2  and  C_8 
REMARK    3  A    between atoms: C_2  and  C_14 
REMARK    4  A    between atoms: C_3  and  C_8 
REMARK    5  A    between atoms: O_4  and  C_28 
REMARK    6  A    between atoms: C_6  and  C_8 
REMARK    7  A    between atoms: C_10  and  C_28 
REMARK    8  A    between atoms: C_16  and  O_21 
ROOT
HETATM    1  C   UNL     1       4.813   7.002  19.432  1.00  0.00    -0.043 C 
ENDROOT
BRANCH   1   2
HETATM    2  C   UNL     1       5.700   8.060  18.818  1.00  0.00     0.078 C 
BRANCH   2   3
HETATM    3  C   UNL     1       6.080   7.774  17.389  1.00  0.00    -0.042 C 
HETATM    4  C   UNL     1       5.530   8.568  16.385  1.00  0.00     0.010 C 
HETATM    5  C   UNL     1       5.688   8.199  15.052  1.00  0.00     0.075 C 
HETATM    6  C   UNL     1       6.433   7.067  14.709  1.00  0.00     0.037 C 
HETATM    7  C   UNL     1       7.108   6.368  15.704  1.00  0.00     0.003 C 
HETATM    8  C   UNL     1       6.973   6.753  17.037  1.00  0.00     0.008 C 
BRANCH   4   9
HETATM    9  C   UNL     1       4.768   9.819  16.765  1.00  0.00     0.150 C 
HETATM   10  C   UNL     1       5.583  11.080  16.521  1.00  0.00     0.044 C 
BRANCH   9  11
HETATM   11  O   UNL     1       3.544   9.910  16.068  1.00  0.00    -0.391 OA
ATOM     12  HO  UNL     1       3.128   9.060  15.985  1.00  0.00     0.210 HD
ENDBRANCH   9  11
ENDBRANCH   4   9
BRANCH   5  13
HETATM   13  O   UNL     1       4.967   8.815  14.072  1.00  0.00    -0.360 OA
ATOM     14  HO  UNL     1       4.257   9.406  14.294  1.00  0.00     0.217 HD
ENDBRANCH   5  13
ENDBRANCH   2   3
ENDBRANCH   1   2
BRANCH   1  15
HETATM   15  C   UNL     1       4.752   6.855  20.920  1.00  0.00    -0.030 C 
HETATM   16  C   UNL     1       5.805   7.228  21.748  1.00  0.00     0.012 C 
HETATM   17  C   UNL     1       5.782   7.171  23.129  1.00  0.00     0.001 C 
HETATM   18  C   UNL     1       4.759   6.943  24.012  1.00  0.00     0.000 C 
HETATM   19  C   UNL     1       3.408   6.738  23.814  1.00  0.00     0.000 C 
HETATM   20  C   UNL     1       2.863   6.418  22.574  1.00  0.00     0.001 C 
HETATM   21  C   UNL     1       3.585   6.285  21.406  1.00  0.00     0.012 C 
ENDBRANCH   1  15
BRANCH   1  22
HETATM   22  C   UNL     1       3.947   6.260  18.693  1.00  0.00     0.019 C 
BRANCH  22  23
HETATM   23  C   UNL     1       2.517   6.428  18.479  1.00  0.00    -0.036 C 
HETATM   24  C   UNL     1       2.068   7.741  18.374  1.00  0.00     0.011 C 
HETATM   25  C   UNL     1       0.902   8.288  17.887  1.00  0.00     0.001 C 
HETATM   26  C   UNL     1      -0.106   7.620  17.190  1.00  0.00     0.000 C 
HETATM   27  C   UNL     1      -0.207   6.244  17.073  1.00  0.00     0.000 C 
HETATM   28  C   UNL     1       0.478   5.222  17.748  1.00  0.00     0.001 C 
HETATM   29  C   UNL     1       1.652   5.297  18.478  1.00  0.00     0.011 C 
ENDBRANCH  22  23
ENDBRANCH   1  22
TORSDOF 8
ENDMDL
MODEL 9
REMARK VINA RESULT:      -8.7      2.481      5.916
REMARK  8 active torsions:
REMARK  status: ('A' for Active; 'I' for Inactive)
REMARK    1  A    between atoms: C_1  and  C_6 
REMARK    2  A    between atoms: C_2  and  C_8 
REMARK    3  A    between atoms: C_2  and  C_14 
REMARK    4  A    between atoms: C_3  and  C_8 
REMARK    5  A    between atoms: O_4  and  C_28 
REMARK    6  A    between atoms: C_6  and  C_8 
REMARK    7  A    between atoms: C_10  and  C_28 
REMARK    8  A    between atoms: C_16  and  O_21 
ROOT
HETATM    1  C   UNL     1       4.041   6.742  18.821  1.00  0.00    -0.043 C 
ENDROOT
BRANCH   1   2
HETATM    2  C   UNL     1       4.333   8.017  19.578  1.00  0.00     0.078 C 
BRANCH   2   3
HETATM    3  C   UNL     1       4.715   7.790  21.017  1.00  0.00    -0.042 C 
HETATM    4  C   UNL     1       5.936   8.285  21.466  1.00  0.00     0.010 C 
HETATM    5  C   UNL     1       6.413   7.910  22.720  1.00  0.00     0.075 C 
HETATM    6  C   UNL     1       5.656   7.080  23.551  1.00  0.00     0.037 C 
HETATM    7  C   UNL     1       4.371   6.714  23.162  1.00  0.00     0.003 C 
HETATM    8  C   UNL     1       3.883   7.112  21.919  1.00  0.00     0.008 C 
BRANCH   4   9
HETATM    9  C   UNL     1       6.725   9.224  20.579  1.00  0.00     0.150 C 
HETATM   10  C   UNL     1       6.466  10.684  20.919  1.00  0.00     0.044 C 
BRANCH   9  11
HETATM   11  O   UNL     1       8.110   8.965  20.654  1.00  0.00    -0.391 OA
ATOM     12  HO  UNL     1       8.426   8.537  19.866  1.00  0.00     0.210 HD
ENDBRANCH   9  11
ENDBRANCH   4   9
BRANCH   5  13
HETATM   13  O   UNL     1       7.699   8.183  23.082  1.00  0.00    -0.360 OA
ATOM     14  HO  UNL     1       7.884   8.666  23.879  1.00  0.00     0.217 HD
ENDBRANCH   5  13
ENDBRANCH   2   3
ENDBRANCH   1   2
BRANCH   1  15
HETATM   15  C   UNL     1       2.624   6.358  18.530  1.00  0.00    -0.030 C 
HETATM   16  C   UNL     1       1.755   7.194  17.837  1.00  0.00     0.012 C 
HETATM   17  C   UNL     1       0.458   6.868  17.489  1.00  0.00     0.001 C 
HETATM   18  C   UNL     1      -0.228   5.682  17.541  1.00  0.00     0.000 C 
HETATM   19  C   UNL     1       0.168   4.413  17.917  1.00  0.00     0.000 C 
HETATM   20  C   UNL     1       1.334   4.163  18.634  1.00  0.00     0.001 C 
HETATM   21  C   UNL     1       2.234   5.127  19.036  1.00  0.00     0.012 C 
ENDBRANCH   1  15
BRANCH   1  22
HETATM   22  C   UNL     1       5.023   5.990  18.257  1.00  0.00     0.019 C 
BRANCH  22  23
HETATM   23  C   UNL     1       6.120   6.383  17.385  1.00  0.00    -0.036 C 
HETATM   24  C   UNL     1       5.877   6.282  16.019  1.00  0.00     0.011 C 
HETATM   25  C   UNL     1       6.510   6.820  14.920  1.00  0.00     0.001 C 
HETATM   26  C   UNL     1       7.515   7.787  14.927  1.00  0.00     0.000 C 
HETATM   27  C   UNL     1       8.206   8.200  16.054  1.00  0.00     0.000 C 
HETATM   28  C   UNL     1       8.248   7.654  17.345  1.00  0.00     0.001 C 
HETATM   29  C   UNL     1       7.380   6.752  17.936  1.00  0.00     0.011 C 
ENDBRANCH  22  23
ENDBRANCH   1  22
TORSDOF 8
ENDMDL
