MODEL 1
REMARK VINA RESULT:      -5.9      0.000      0.000
REMARK  7 active torsions:
REMARK  status: ('A' for Active; 'I' for Inactive)
REMARK    1  A    between atoms: O_3  and  C_21 
REMARK    2  A    between atoms: C_5  and  C_8 
REMARK    3  A    between atoms: C_5  and  C_21 
REMARK    4  A    between atoms: C_6  and  C_12 
REMARK    5  A    between atoms: C_8  and  C_20 
REMARK    6  A    between atoms: C_9  and  C_12 
REMARK    7  A    between atoms: C_13  and  O_15 
ROOT
HETATM    1  C   UNL     1      45.606  34.002  55.896  1.00  0.00     0.043 C 
HETATM    2  C   UNL     1      47.765  33.974  56.583  1.00  0.00     0.038 C 
HETATM    3  C   UNL     1      46.940  33.975  57.678  1.00  0.00     0.012 C 
HETATM    4  C   UNL     1      46.924  34.317  55.495  1.00  0.00    -0.008 C 
HETATM    5  C   UNL     1      44.577  34.050  54.956  1.00  0.00     0.037 C 
HETATM    6  C   UNL     1      44.860  34.495  53.658  1.00  0.00    -0.056 C 
HETATM    7  N   UNL     1      45.644  33.819  57.273  1.00  0.00    -0.359 N 
ATOM      8  HN  UNL     1      44.847  33.605  57.874  1.00  0.00     0.166 HD
HETATM    9  C   UNL     1      47.149  34.969  54.285  1.00  0.00     0.014 C 
HETATM   10  C   UNL     1      46.114  35.031  53.361  1.00  0.00     0.008 C 
ENDROOT
BRANCH   3  11
HETATM   11  C   UNL     1      47.430  34.291  59.061  1.00  0.00     0.082 C 
BRANCH  11  12
HETATM   12  C   UNL     1      48.389  35.477  58.975  1.00  0.00     0.093 C 
HETATM   13  N   UNL     1      47.609  36.707  59.062  1.00  0.00    -0.354 N 
HETATM   14  C   UNL     1      48.426  37.644  59.607  1.00  0.00     0.246 C 
ATOM     15  HN  UNL     1      46.640  36.837  58.771  1.00  0.00     0.162 HD
HETATM   16  C   UNL     1      49.077  36.934  60.787  1.00  0.00     0.211 C 
HETATM   17  O   UNL     1      48.339  38.844  59.511  1.00  0.00    -0.271 OA
HETATM   18  C   UNL     1      49.349  35.570  60.160  1.00  0.00     0.067 C 
BRANCH  16  19
HETATM   19  O   UNL     1      50.257  37.618  61.200  1.00  0.00    -0.386 OA
ATOM     20  HO  UNL     1      51.059  37.151  60.996  1.00  0.00     0.210 HD
ENDBRANCH  16  19
ENDBRANCH  11  12
ENDBRANCH   3  11
BRANCH   6  21
HETATM   21  C   UNL     1      43.850  34.440  52.535  1.00  0.00     0.041 C 
BRANCH  21  22
HETATM   22  C   UNL     1      42.396  34.407  52.919  1.00  0.00     0.030 C 
BRANCH  22  23
HETATM   23  C   UNL     1      41.651  33.090  52.764  1.00  0.00     0.164 C 
BRANCH  23  24
HETATM   24  O   UNL     1      41.211  32.612  54.019  1.00  0.00    -0.401 OA
ATOM     25  HO  UNL     1      41.157  33.322  54.650  1.00  0.00     0.209 HD
ENDBRANCH  23  24
ENDBRANCH  22  23
ENDBRANCH  21  22
ENDBRANCH   6  21
TORSDOF 7
ENDMDL
MODEL 2
REMARK VINA RESULT:      -5.5      5.114      7.552
REMARK  7 active torsions:
REMARK  status: ('A' for Active; 'I' for Inactive)
REMARK    1  A    between atoms: O_3  and  C_21 
REMARK    2  A    between atoms: C_5  and  C_8 
REMARK    3  A    between atoms: C_5  and  C_21 
REMARK    4  A    between atoms: C_6  and  C_12 
REMARK    5  A    between atoms: C_8  and  C_20 
REMARK    6  A    between atoms: C_9  and  C_12 
REMARK    7  A    between atoms: C_13  and  O_15 
ROOT
HETATM    1  C   UNL     1      47.889  35.121  62.293  1.00  0.00     0.043 C 
HETATM    2  C   UNL     1      48.163  36.816  63.771  1.00  0.00     0.038 C 
HETATM    3  C   UNL     1      47.371  35.847  64.333  1.00  0.00     0.012 C 
HETATM    4  C   UNL     1      48.205  36.495  62.392  1.00  0.00    -0.008 C 
HETATM    5  C   UNL     1      48.044  34.470  61.070  1.00  0.00     0.037 C 
HETATM    6  C   UNL     1      48.425  35.215  59.946  1.00  0.00    -0.056 C 
HETATM    7  N   UNL     1      47.344  34.751  63.517  1.00  0.00    -0.359 N 
ATOM      8  HN  UNL     1      46.988  33.826  63.763  1.00  0.00     0.166 HD
HETATM    9  C   UNL     1      48.356  37.260  61.238  1.00  0.00     0.014 C 
HETATM   10  C   UNL     1      48.491  36.608  60.020  1.00  0.00     0.008 C 
ENDROOT
BRANCH   3  11
HETATM   11  C   UNL     1      46.544  36.089  65.561  1.00  0.00     0.082 C 
BRANCH  11  12
HETATM   12  C   UNL     1      45.164  36.580  65.126  1.00  0.00     0.093 C 
HETATM   13  N   UNL     1      44.244  35.447  65.151  1.00  0.00    -0.354 N 
HETATM   14  C   UNL     1      43.010  35.959  65.393  1.00  0.00     0.246 C 
ATOM     15  HN  UNL     1      44.482  34.465  65.013  1.00  0.00     0.162 HD
HETATM   16  C   UNL     1      43.228  36.936  66.542  1.00  0.00     0.211 C 
HETATM   17  O   UNL     1      41.942  35.465  65.125  1.00  0.00    -0.271 OA
HETATM   18  C   UNL     1      44.539  37.578  66.099  1.00  0.00     0.067 C 
BRANCH  16  19
HETATM   19  O   UNL     1      42.144  37.857  66.634  1.00  0.00    -0.386 OA
ATOM     20  HO  UNL     1      41.297  37.468  66.447  1.00  0.00     0.210 HD
ENDBRANCH  16  19
ENDBRANCH  11  12
ENDBRANCH   3  11
BRANCH   6  21
HETATM   21  C   UNL     1      48.762  34.579  58.616  1.00  0.00     0.041 C 
BRANCH  21  22
HETATM   22  C   UNL     1      47.618  34.289  57.684  1.00  0.00     0.030 C 
BRANCH  22  23
HETATM   23  C   UNL     1      47.279  35.331  56.630  1.00  0.00     0.164 C 
BRANCH  23  24
HETATM   24  O   UNL     1      46.536  36.392  57.194  1.00  0.00    -0.401 OA
ATOM     25  HO  UNL     1      46.022  36.088  57.934  1.00  0.00     0.209 HD
ENDBRANCH  23  24
ENDBRANCH  22  23
ENDBRANCH  21  22
ENDBRANCH   6  21
TORSDOF 7
ENDMDL
MODEL 3
REMARK VINA RESULT:      -5.5      1.771      8.059
REMARK  7 active torsions:
REMARK  status: ('A' for Active; 'I' for Inactive)
REMARK    1  A    between atoms: O_3  and  C_21 
REMARK    2  A    between atoms: C_5  and  C_8 
REMARK    3  A    between atoms: C_5  and  C_21 
REMARK    4  A    between atoms: C_6  and  C_12 
REMARK    5  A    between atoms: C_8  and  C_20 
REMARK    6  A    between atoms: C_9  and  C_12 
REMARK    7  A    between atoms: C_13  and  O_15 
ROOT
HETATM    1  C   UNL     1      47.555  35.453  57.419  1.00  0.00     0.043 C 
HETATM    2  C   UNL     1      48.000  33.380  56.622  1.00  0.00     0.038 C 
HETATM    3  C   UNL     1      47.152  34.026  55.759  1.00  0.00     0.012 C 
HETATM    4  C   UNL     1      47.979  34.161  57.804  1.00  0.00    -0.008 C 
HETATM    5  C   UNL     1      47.625  36.498  58.340  1.00  0.00     0.037 C 
HETATM    6  C   UNL     1      48.032  36.222  59.653  1.00  0.00    -0.056 C 
HETATM    7  N   UNL     1      47.017  35.330  56.144  1.00  0.00    -0.359 N 
ATOM      8  HN  UNL     1      46.597  36.080  55.593  1.00  0.00     0.166 HD
HETATM    9  C   UNL     1      48.158  33.858  59.151  1.00  0.00     0.014 C 
HETATM   10  C   UNL     1      48.207  34.901  60.067  1.00  0.00     0.008 C 
ENDROOT
BRANCH   3  11
HETATM   11  C   UNL     1      46.380  33.306  54.693  1.00  0.00     0.082 C 
BRANCH  11  12
HETATM   12  C   UNL     1      45.042  34.017  54.500  1.00  0.00     0.093 C 
HETATM   13  N   UNL     1      44.940  34.432  53.104  1.00  0.00    -0.354 N 
HETATM   14  C   UNL     1      43.615  34.459  52.807  1.00  0.00     0.246 C 
ATOM     15  HN  UNL     1      45.711  34.658  52.477  1.00  0.00     0.162 HD
HETATM   16  C   UNL     1      43.077  33.151  53.374  1.00  0.00     0.211 C 
HETATM   17  O   UNL     1      43.068  35.087  51.933  1.00  0.00    -0.271 OA
HETATM   18  C   UNL     1      43.833  33.104  54.697  1.00  0.00     0.067 C 
BRANCH  16  19
HETATM   19  O   UNL     1      41.662  33.212  53.527  1.00  0.00    -0.386 OA
ATOM     20  HO  UNL     1      41.353  32.871  54.358  1.00  0.00     0.210 HD
ENDBRANCH  16  19
ENDBRANCH  11  12
ENDBRANCH   3  11
BRANCH   6  21
HETATM   21  C   UNL     1      48.282  37.305  60.678  1.00  0.00     0.041 C 
BRANCH  21  22
HETATM   22  C   UNL     1      49.635  37.331  61.334  1.00  0.00     0.030 C 
BRANCH  22  23
HETATM   23  C   UNL     1      50.172  38.675  61.800  1.00  0.00     0.164 C 
BRANCH  23  24
HETATM   24  O   UNL     1      49.916  39.678  60.838  1.00  0.00    -0.401 OA
ATOM     25  HO  UNL     1      48.991  39.712  60.624  1.00  0.00     0.209 HD
ENDBRANCH  23  24
ENDBRANCH  22  23
ENDBRANCH  21  22
ENDBRANCH   6  21
TORSDOF 7
ENDMDL
MODEL 4
REMARK VINA RESULT:      -5.5      2.004      8.508
REMARK  7 active torsions:
REMARK  status: ('A' for Active; 'I' for Inactive)
REMARK    1  A    between atoms: O_3  and  C_21 
REMARK    2  A    between atoms: C_5  and  C_8 
REMARK    3  A    between atoms: C_5  and  C_21 
REMARK    4  A    between atoms: C_6  and  C_12 
REMARK    5  A    between atoms: C_8  and  C_20 
REMARK    6  A    between atoms: C_9  and  C_12 
REMARK    7  A    between atoms: C_13  and  O_15 
ROOT
HETATM    1  C   UNL     1      48.650  35.454  59.339  1.00  0.00     0.043 C 
HETATM    2  C   UNL     1      46.948  36.107  57.996  1.00  0.00     0.038 C 
HETATM    3  C   UNL     1      47.583  35.030  57.432  1.00  0.00     0.012 C 
HETATM    4  C   UNL     1      47.825  36.554  59.014  1.00  0.00    -0.008 C 
HETATM    5  C   UNL     1      49.488  35.534  60.451  1.00  0.00     0.037 C 
HETATM    6  C   UNL     1      49.556  36.736  61.168  1.00  0.00    -0.056 C 
HETATM    7  N   UNL     1      48.496  34.527  58.315  1.00  0.00    -0.359 N 
ATOM      8  HN  UNL     1      48.978  33.631  58.238  1.00  0.00     0.166 HD
HETATM    9  C   UNL     1      48.069  37.802  59.584  1.00  0.00     0.014 C 
HETATM   10  C   UNL     1      48.919  37.878  60.679  1.00  0.00     0.008 C 
ENDROOT
BRANCH   3  11
HETATM   11  C   UNL     1      47.390  34.636  55.997  1.00  0.00     0.082 C 
BRANCH  11  12
HETATM   12  C   UNL     1      45.980  34.072  55.835  1.00  0.00     0.093 C 
HETATM   13  N   UNL     1      45.194  35.017  55.048  1.00  0.00    -0.354 N 
HETATM   14  C   UNL     1      44.250  34.287  54.401  1.00  0.00     0.246 C 
ATOM     15  HN  UNL     1      45.328  36.026  54.994  1.00  0.00     0.162 HD
HETATM   16  C   UNL     1      45.017  33.099  53.834  1.00  0.00     0.211 C 
HETATM   17  O   UNL     1      43.191  34.670  53.968  1.00  0.00    -0.271 OA
HETATM   18  C   UNL     1      45.930  32.784  55.015  1.00  0.00     0.067 C 
BRANCH  16  19
HETATM   19  O   UNL     1      44.128  32.036  53.501  1.00  0.00    -0.386 OA
ATOM     20  HO  UNL     1      43.576  31.760  54.224  1.00  0.00     0.210 HD
ENDBRANCH  16  19
ENDBRANCH  11  12
ENDBRANCH   3  11
BRANCH   6  21
HETATM   21  C   UNL     1      50.317  36.874  62.467  1.00  0.00     0.041 C 
BRANCH  21  22
HETATM   22  C   UNL     1      49.676  37.692  63.555  1.00  0.00     0.030 C 
BRANCH  22  23
HETATM   23  C   UNL     1      50.392  38.956  64.007  1.00  0.00     0.164 C 
BRANCH  23  24
HETATM   24  O   UNL     1      50.213  39.997  63.067  1.00  0.00    -0.401 OA
ATOM     25  HO  UNL     1      50.037  39.644  62.202  1.00  0.00     0.209 HD
ENDBRANCH  23  24
ENDBRANCH  22  23
ENDBRANCH  21  22
ENDBRANCH   6  21
TORSDOF 7
ENDMDL
MODEL 5
REMARK VINA RESULT:      -5.4      2.132      3.416
REMARK  7 active torsions:
REMARK  status: ('A' for Active; 'I' for Inactive)
REMARK    1  A    between atoms: O_3  and  C_21 
REMARK    2  A    between atoms: C_5  and  C_8 
REMARK    3  A    between atoms: C_5  and  C_21 
REMARK    4  A    between atoms: C_6  and  C_12 
REMARK    5  A    between atoms: C_8  and  C_20 
REMARK    6  A    between atoms: C_9  and  C_12 
REMARK    7  A    between atoms: C_13  and  O_15 
ROOT
HETATM    1  C   UNL     1      47.771  35.264  57.691  1.00  0.00     0.043 C 
HETATM    2  C   UNL     1      48.589  34.009  59.390  1.00  0.00     0.038 C 
HETATM    3  C   UNL     1      48.850  35.332  59.637  1.00  0.00     0.012 C 
HETATM    4  C   UNL     1      48.208  33.962  58.027  1.00  0.00    -0.008 C 
HETATM    5  C   UNL     1      47.148  35.480  56.462  1.00  0.00     0.037 C 
HETATM    6  C   UNL     1      47.050  34.418  55.553  1.00  0.00    -0.056 C 
HETATM    7  N   UNL     1      48.211  36.104  58.707  1.00  0.00    -0.359 N 
ATOM      8  HN  UNL     1      48.081  37.115  58.751  1.00  0.00     0.166 HD
HETATM    9  C   UNL     1      48.312  32.985  57.040  1.00  0.00     0.014 C 
HETATM   10  C   UNL     1      47.707  33.213  55.811  1.00  0.00     0.008 C 
ENDROOT
BRANCH   3  11
HETATM   11  C   UNL     1      49.841  35.783  60.670  1.00  0.00     0.082 C 
BRANCH  11  12
HETATM   12  C   UNL     1      49.188  36.866  61.528  1.00  0.00     0.093 C 
HETATM   13  N   UNL     1      49.227  36.433  62.921  1.00  0.00    -0.354 N 
HETATM   14  C   UNL     1      49.257  37.563  63.673  1.00  0.00     0.246 C 
ATOM     15  HN  UNL     1      49.231  35.472  63.262  1.00  0.00     0.162 HD
HETATM   16  C   UNL     1      50.306  38.437  62.997  1.00  0.00     0.211 C 
HETATM   17  O   UNL     1      48.918  37.691  64.825  1.00  0.00    -0.271 OA
HETATM   18  C   UNL     1      49.959  38.184  61.533  1.00  0.00     0.067 C 
BRANCH  16  19
HETATM   19  O   UNL     1      50.160  39.798  63.392  1.00  0.00    -0.386 OA
ATOM     20  HO  UNL     1      49.716  39.908  64.225  1.00  0.00     0.210 HD
ENDBRANCH  16  19
ENDBRANCH  11  12
ENDBRANCH   3  11
BRANCH   6  21
HETATM   21  C   UNL     1      46.265  34.513  54.264  1.00  0.00     0.041 C 
BRANCH  21  22
HETATM   22  C   UNL     1      44.771  34.649  54.378  1.00  0.00     0.030 C 
BRANCH  22  23
HETATM   23  C   UNL     1      43.996  33.485  54.976  1.00  0.00     0.164 C 
BRANCH  23  24
HETATM   24  O   UNL     1      43.657  33.747  56.322  1.00  0.00    -0.401 OA
ATOM     25  HO  UNL     1      42.747  34.015  56.395  1.00  0.00     0.209 HD
ENDBRANCH  23  24
ENDBRANCH  22  23
ENDBRANCH  21  22
ENDBRANCH   6  21
TORSDOF 7
ENDMDL
MODEL 6
REMARK VINA RESULT:      -5.3      1.671      2.339
REMARK  7 active torsions:
REMARK  status: ('A' for Active; 'I' for Inactive)
REMARK    1  A    between atoms: O_3  and  C_21 
REMARK    2  A    between atoms: C_5  and  C_8 
REMARK    3  A    between atoms: C_5  and  C_21 
REMARK    4  A    between atoms: C_6  and  C_12 
REMARK    5  A    between atoms: C_8  and  C_20 
REMARK    6  A    between atoms: C_9  and  C_12 
REMARK    7  A    between atoms: C_13  and  O_15 
ROOT
HETATM    1  C   UNL     1      47.059  35.016  56.358  1.00  0.00     0.043 C 
HETATM    2  C   UNL     1      48.093  33.564  57.757  1.00  0.00     0.038 C 
HETATM    3  C   UNL     1      48.515  34.840  58.033  1.00  0.00     0.012 C 
HETATM    4  C   UNL     1      47.438  33.662  56.505  1.00  0.00    -0.008 C 
HETATM    5  C   UNL     1      46.220  35.380  55.306  1.00  0.00     0.037 C 
HETATM    6  C   UNL     1      45.843  34.409  54.368  1.00  0.00    -0.056 C 
HETATM    7  N   UNL     1      47.771  35.732  57.313  1.00  0.00    -0.359 N 
ATOM      8  HN  UNL     1      47.743  36.742  57.452  1.00  0.00     0.166 HD
HETATM    9  C   UNL     1      47.251  32.767  55.454  1.00  0.00     0.014 C 
HETATM   10  C   UNL     1      46.430  33.142  54.399  1.00  0.00     0.008 C 
ENDROOT
BRANCH   3  11
HETATM   11  C   UNL     1      49.732  35.128  58.862  1.00  0.00     0.082 C 
BRANCH  11  12
HETATM   12  C   UNL     1      49.321  35.163  60.332  1.00  0.00     0.093 C 
HETATM   13  N   UNL     1      50.509  35.432  61.136  1.00  0.00    -0.354 N 
HETATM   14  C   UNL     1      50.079  36.065  62.258  1.00  0.00     0.246 C 
ATOM     15  HN  UNL     1      51.472  35.191  60.901  1.00  0.00     0.162 HD
HETATM   16  C   UNL     1      49.111  37.123  61.744  1.00  0.00     0.211 C 
HETATM   17  O   UNL     1      50.634  36.125  63.328  1.00  0.00    -0.271 OA
HETATM   18  C   UNL     1      48.381  36.318  60.674  1.00  0.00     0.067 C 
BRANCH  16  19
HETATM   19  O   UNL     1      48.262  37.581  62.792  1.00  0.00    -0.386 OA
ATOM     20  HO  UNL     1      47.346  37.360  62.666  1.00  0.00     0.210 HD
ENDBRANCH  16  19
ENDBRANCH  11  12
ENDBRANCH   3  11
BRANCH   6  21
HETATM   21  C   UNL     1      44.823  34.670  53.283  1.00  0.00     0.041 C 
BRANCH  21  22
HETATM   22  C   UNL     1      43.373  34.511  53.651  1.00  0.00     0.030 C 
BRANCH  22  23
HETATM   23  C   UNL     1      42.759  33.124  53.533  1.00  0.00     0.164 C 
BRANCH  23  24
HETATM   24  O   UNL     1      42.678  32.503  54.800  1.00  0.00    -0.401 OA
ATOM     25  HO  UNL     1      43.244  32.939  55.427  1.00  0.00     0.209 HD
ENDBRANCH  23  24
ENDBRANCH  22  23
ENDBRANCH  21  22
ENDBRANCH   6  21
TORSDOF 7
ENDMDL
MODEL 7
REMARK VINA RESULT:      -5.3      1.846      2.460
REMARK  7 active torsions:
REMARK  status: ('A' for Active; 'I' for Inactive)
REMARK    1  A    between atoms: O_3  and  C_21 
REMARK    2  A    between atoms: C_5  and  C_8 
REMARK    3  A    between atoms: C_5  and  C_21 
REMARK    4  A    between atoms: C_6  and  C_12 
REMARK    5  A    between atoms: C_8  and  C_20 
REMARK    6  A    between atoms: C_9  and  C_12 
REMARK    7  A    between atoms: C_13  and  O_15 
ROOT
HETATM    1  C   UNL     1      46.450  34.421  56.406  1.00  0.00     0.043 C 
HETATM    2  C   UNL     1      48.082  33.832  57.862  1.00  0.00     0.038 C 
HETATM    3  C   UNL     1      47.890  35.189  57.919  1.00  0.00     0.012 C 
HETATM    4  C   UNL     1      47.406  33.420  56.687  1.00  0.00    -0.008 C 
HETATM    5  C   UNL     1      45.496  34.196  55.413  1.00  0.00     0.037 C 
HETATM    6  C   UNL     1      45.565  33.018  54.658  1.00  0.00    -0.056 C 
HETATM    7  N   UNL     1      46.795  35.527  57.174  1.00  0.00    -0.359 N 
ATOM      8  HN  UNL     1      46.317  36.428  57.181  1.00  0.00     0.166 HD
HETATM    9  C   UNL     1      47.605  32.373  55.790  1.00  0.00     0.014 C 
HETATM   10  C   UNL     1      46.662  32.165  54.791  1.00  0.00     0.008 C 
ENDROOT
BRANCH   3  11
HETATM   11  C   UNL     1      48.876  36.119  58.564  1.00  0.00     0.082 C 
BRANCH  11  12
HETATM   12  C   UNL     1      48.769  35.963  60.080  1.00  0.00     0.093 C 
HETATM   13  N   UNL     1      50.093  35.640  60.602  1.00  0.00    -0.354 N 
HETATM   14  C   UNL     1      50.131  36.116  61.874  1.00  0.00     0.246 C 
ATOM     15  HN  UNL     1      50.841  35.153  60.110  1.00  0.00     0.162 HD
HETATM   16  C   UNL     1      49.550  37.520  61.767  1.00  0.00     0.211 C 
HETATM   17  O   UNL     1      50.846  35.752  62.776  1.00  0.00    -0.271 OA
HETATM   18  C   UNL     1      48.399  37.258  60.800  1.00  0.00     0.067 C 
BRANCH  16  19
HETATM   19  O   UNL     1      49.127  37.990  63.043  1.00  0.00    -0.386 OA
ATOM     20  HO  UNL     1      49.791  37.909  63.718  1.00  0.00     0.210 HD
ENDBRANCH  16  19
ENDBRANCH  11  12
ENDBRANCH   3  11
BRANCH   6  21
HETATM   21  C   UNL     1      44.496  32.616  53.667  1.00  0.00     0.041 C 
BRANCH  21  22
HETATM   22  C   UNL     1      43.133  33.228  53.841  1.00  0.00     0.030 C 
BRANCH  22  23
HETATM   23  C   UNL     1      42.754  34.386  52.930  1.00  0.00     0.164 C 
BRANCH  23  24
HETATM   24  O   UNL     1      43.883  34.859  52.224  1.00  0.00    -0.401 OA
ATOM     25  HO  UNL     1      43.817  35.795  52.072  1.00  0.00     0.209 HD
ENDBRANCH  23  24
ENDBRANCH  22  23
ENDBRANCH  21  22
ENDBRANCH   6  21
TORSDOF 7
ENDMDL
MODEL 8
REMARK VINA RESULT:      -5.2      5.629      9.077
REMARK  7 active torsions:
REMARK  status: ('A' for Active; 'I' for Inactive)
REMARK    1  A    between atoms: O_3  and  C_21 
REMARK    2  A    between atoms: C_5  and  C_8 
REMARK    3  A    between atoms: C_5  and  C_21 
REMARK    4  A    between atoms: C_6  and  C_12 
REMARK    5  A    between atoms: C_8  and  C_20 
REMARK    6  A    between atoms: C_9  and  C_12 
REMARK    7  A    between atoms: C_13  and  O_15 
ROOT
HETATM    1  C   UNL     1      46.731  36.654  64.406  1.00  0.00     0.043 C 
HETATM    2  C   UNL     1      48.600  37.913  64.176  1.00  0.00     0.038 C 
HETATM    3  C   UNL     1      48.688  36.816  63.358  1.00  0.00     0.012 C 
HETATM    4  C   UNL     1      47.527  37.625  65.055  1.00  0.00    -0.008 C 
HETATM    5  C   UNL     1      45.490  36.316  64.945  1.00  0.00     0.037 C 
HETATM    6  C   UNL     1      45.101  36.883  66.167  1.00  0.00    -0.056 C 
HETATM    7  N   UNL     1      47.497  36.147  63.363  1.00  0.00    -0.359 N 
ATOM      8  HN  UNL     1      47.219  35.408  62.716  1.00  0.00     0.166 HD
HETATM    9  C   UNL     1      47.239  38.001  66.364  1.00  0.00     0.014 C 
HETATM   10  C   UNL     1      46.009  37.645  66.904  1.00  0.00     0.008 C 
ENDROOT
BRANCH   3  11
HETATM   11  C   UNL     1      49.979  36.374  62.733  1.00  0.00     0.082 C 
BRANCH  11  12
HETATM   12  C   UNL     1      49.973  36.788  61.263  1.00  0.00     0.093 C 
HETATM   13  N   UNL     1      49.860  35.584  60.447  1.00  0.00    -0.354 N 
HETATM   14  C   UNL     1      49.240  35.955  59.297  1.00  0.00     0.246 C 
ATOM     15  HN  UNL     1      50.182  34.648  60.692  1.00  0.00     0.162 HD
HETATM   16  C   UNL     1      48.070  36.813  59.761  1.00  0.00     0.211 C 
HETATM   17  O   UNL     1      49.285  35.403  58.224  1.00  0.00    -0.271 OA
HETATM   18  C   UNL     1      48.748  37.612  60.868  1.00  0.00     0.067 C 
BRANCH  16  19
HETATM   19  O   UNL     1      47.580  37.619  58.693  1.00  0.00    -0.386 OA
ATOM     20  HO  UNL     1      47.173  37.120  57.994  1.00  0.00     0.210 HD
ENDBRANCH  16  19
ENDBRANCH  11  12
ENDBRANCH   3  11
BRANCH   6  21
HETATM   21  C   UNL     1      43.722  36.695  66.755  1.00  0.00     0.041 C 
BRANCH  21  22
HETATM   22  C   UNL     1      42.590  37.441  66.103  1.00  0.00     0.030 C 
BRANCH  22  23
HETATM   23  C   UNL     1      41.547  36.631  65.349  1.00  0.00     0.164 C 
BRANCH  23  24
HETATM   24  O   UNL     1      42.063  35.369  64.980  1.00  0.00    -0.401 OA
ATOM     25  HO  UNL     1      43.012  35.394  64.931  1.00  0.00     0.209 HD
ENDBRANCH  23  24
ENDBRANCH  22  23
ENDBRANCH  21  22
ENDBRANCH   6  21
TORSDOF 7
ENDMDL
MODEL 9
REMARK VINA RESULT:      -5.1      1.701      7.892
REMARK  7 active torsions:
REMARK  status: ('A' for Active; 'I' for Inactive)
REMARK    1  A    between atoms: O_3  and  C_21 
REMARK    2  A    between atoms: C_5  and  C_8 
REMARK    3  A    between atoms: C_5  and  C_21 
REMARK    4  A    between atoms: C_6  and  C_12 
REMARK    5  A    between atoms: C_8  and  C_20 
REMARK    6  A    between atoms: C_9  and  C_12 
REMARK    7  A    between atoms: C_13  and  O_15 
ROOT
HETATM    1  C   UNL     1      46.990  35.305  56.619  1.00  0.00     0.043 C 
HETATM    2  C   UNL     1      47.219  33.977  54.798  1.00  0.00     0.038 C 
HETATM    3  C   UNL     1      46.162  34.830  54.607  1.00  0.00     0.012 C 
HETATM    4  C   UNL     1      47.515  34.068  56.180  1.00  0.00    -0.008 C 
HETATM    5  C   UNL     1      47.299  35.764  57.899  1.00  0.00     0.037 C 
HETATM    6  C   UNL     1      48.051  34.944  58.752  1.00  0.00    -0.056 C 
HETATM    7  N   UNL     1      46.126  35.744  55.622  1.00  0.00    -0.359 N 
ATOM      8  HN  UNL     1      45.566  36.597  55.645  1.00  0.00     0.166 HD
HETATM    9  C   UNL     1      48.056  33.174  57.101  1.00  0.00     0.014 C 
HETATM   10  C   UNL     1      48.344  33.631  58.381  1.00  0.00     0.008 C 
ENDROOT
BRANCH   3  11
HETATM   11  C   UNL     1      45.136  34.619  53.534  1.00  0.00     0.082 C 
BRANCH  11  12
HETATM   12  C   UNL     1      44.055  33.684  54.074  1.00  0.00     0.093 C 
HETATM   13  N   UNL     1      42.797  34.002  53.407  1.00  0.00    -0.354 N 
HETATM   14  C   UNL     1      42.070  32.855  53.390  1.00  0.00     0.246 C 
ATOM     15  HN  UNL     1      42.518  34.907  53.029  1.00  0.00     0.162 HD
HETATM   16  C   UNL     1      43.059  31.790  52.932  1.00  0.00     0.211 C 
HETATM   17  O   UNL     1      40.872  32.744  53.295  1.00  0.00    -0.271 OA
HETATM   18  C   UNL     1      44.292  32.215  53.724  1.00  0.00     0.067 C 
BRANCH  16  19
HETATM   19  O   UNL     1      42.588  30.488  53.265  1.00  0.00    -0.386 OA
ATOM     20  HO  UNL     1      41.687  30.474  53.568  1.00  0.00     0.210 HD
ENDBRANCH  16  19
ENDBRANCH  11  12
ENDBRANCH   3  11
BRANCH   6  21
HETATM   21  C   UNL     1      48.561  35.411  60.097  1.00  0.00     0.041 C 
BRANCH  21  22
HETATM   22  C   UNL     1      48.005  36.702  60.632  1.00  0.00     0.030 C 
BRANCH  22  23
HETATM   23  C   UNL     1      48.848  37.957  60.474  1.00  0.00     0.164 C 
BRANCH  23  24
HETATM   24  O   UNL     1      48.382  38.742  59.395  1.00  0.00    -0.401 OA
ATOM     25  HO  UNL     1      48.417  38.252  58.582  1.00  0.00     0.209 HD
ENDBRANCH  23  24
ENDBRANCH  22  23
ENDBRANCH  21  22
ENDBRANCH   6  21
TORSDOF 7
ENDMDL
