MODEL 1
REMARK VINA RESULT:     -11.5      0.000      0.000
REMARK  3 active torsions:
REMARK  status: ('A' for Active; 'I' for Inactive)
REMARK    1  A    between atoms: C_4  and  O_13 
REMARK    2  A    between atoms: O_5  and  C_10 
REMARK    3  A    between atoms: C_11  and  C_23 
ROOT
HETATM    1  C   UNL     1       8.660  12.180  17.423  1.00  0.00     0.033 C 
HETATM    2  C   UNL     1       9.644  12.851  15.158  1.00  0.00     0.024 C 
HETATM    3  C   UNL     1       8.336  12.271  14.549  1.00  0.00     0.088 C 
HETATM    4  C   UNL     1       8.224  13.584  13.749  1.00  0.00     0.044 C 
HETATM    5  C   UNL     1      12.149  12.143  15.416  1.00  0.00     0.006 C 
HETATM    6  C   UNL     1      10.916  13.404  17.240  1.00  0.00    -0.038 C 
HETATM    7  C   UNL     1      12.159  12.979  16.656  1.00  0.00     0.040 C 
HETATM    8  C   UNL     1       7.145  12.079  15.491  1.00  0.00     0.014 C 
HETATM    9  C   UNL     1      10.930  12.272  14.520  1.00  0.00     0.018 C 
HETATM   10  C   UNL     1       9.305  14.253  14.571  1.00  0.00     0.021 C 
HETATM   11  N   UNL     1       8.825  11.916  18.704  1.00  0.00    -0.399 N 
ATOM     12  HN1 UNL     1       8.096  11.419  19.215  1.00  0.00     0.156 HD
ATOM     13  HN2 UNL     1       9.682  12.217  19.170  1.00  0.00     0.156 HD
HETATM   14  C   UNL     1       9.706  12.891  16.690  1.00  0.00    -0.013 C 
HETATM   15  C   UNL     1       7.452  11.756  16.766  1.00  0.00     0.028 C 
ENDROOT
BRANCH   6  16
HETATM   16  C   UNL     1      11.001  14.464  18.296  1.00  0.00    -0.027 C 
HETATM   17  C   UNL     1      11.520  15.729  17.970  1.00  0.00     0.012 C 
HETATM   18  C   UNL     1      11.521  16.940  18.653  1.00  0.00     0.001 C 
HETATM   19  C   UNL     1      10.674  17.291  19.721  1.00  0.00     0.003 C 
HETATM   20  C   UNL     1      10.193  16.345  20.598  1.00  0.00     0.036 C 
HETATM   21  C   UNL     1      10.599  15.006  20.706  1.00  0.00     0.066 C 
HETATM   22  C   UNL     1      10.757  14.102  19.630  1.00  0.00     0.048 C 
BRANCH  21  23
HETATM   23  O   UNL     1      10.821  14.479  21.938  1.00  0.00    -0.361 OA
ATOM     24  HO  UNL     1      11.444  14.904  22.517  1.00  0.00     0.217 HD
ENDBRANCH  21  23
ENDBRANCH   6  16
BRANCH   3  25
HETATM   25  O   UNL     1       8.510  11.134  13.719  1.00  0.00    -0.385 OA
ATOM     26  HO  UNL     1       7.770  10.539  13.688  1.00  0.00     0.211 HD
ENDBRANCH   3  25
TORSDOF 3
ENDMDL
MODEL 2
REMARK VINA RESULT:     -10.6      3.015      5.047
REMARK  3 active torsions:
REMARK  status: ('A' for Active; 'I' for Inactive)
REMARK    1  A    between atoms: C_4  and  O_13 
REMARK    2  A    between atoms: O_5  and  C_10 
REMARK    3  A    between atoms: C_11  and  C_23 
ROOT
HETATM    1  C   UNL     1      10.696  15.002  13.708  1.00  0.00     0.033 C 
HETATM    2  C   UNL     1      12.631  15.455  15.320  1.00  0.00     0.024 C 
HETATM    3  C   UNL     1      12.887  16.731  14.470  1.00  0.00     0.088 C 
HETATM    4  C   UNL     1      12.932  17.508  15.799  1.00  0.00     0.044 C 
HETATM    5  C   UNL     1      13.673  13.073  15.611  1.00  0.00     0.006 C 
HETATM    6  C   UNL     1      11.169  13.465  15.718  1.00  0.00    -0.038 C 
HETATM    7  C   UNL     1      12.300  12.624  15.998  1.00  0.00     0.040 C 
HETATM    8  C   UNL     1      11.749  17.217  13.568  1.00  0.00     0.014 C 
HETATM    9  C   UNL     1      13.891  14.571  15.497  1.00  0.00     0.018 C 
HETATM   10  C   UNL     1      12.378  16.335  16.579  1.00  0.00     0.021 C 
HETATM   11  N   UNL     1       9.824  14.165  13.182  1.00  0.00    -0.399 N 
ATOM     12  HN1 UNL     1       9.344  14.414  12.317  1.00  0.00     0.156 HD
ATOM     13  HN2 UNL     1       9.636  13.278  13.651  1.00  0.00     0.156 HD
HETATM   14  C   UNL     1      11.384  14.644  14.948  1.00  0.00    -0.013 C 
HETATM   15  C   UNL     1      10.961  16.252  13.047  1.00  0.00     0.028 C 
ENDROOT
BRANCH   6  16
HETATM   16  C   UNL     1       9.878  13.093  16.382  1.00  0.00    -0.027 C 
HETATM   17  C   UNL     1       8.670  13.230  15.677  1.00  0.00     0.012 C 
HETATM   18  C   UNL     1       7.381  12.776  15.938  1.00  0.00     0.001 C 
HETATM   19  C   UNL     1       7.030  11.743  16.827  1.00  0.00     0.003 C 
HETATM   20  C   UNL     1       7.776  11.479  17.954  1.00  0.00     0.036 C 
HETATM   21  C   UNL     1       8.810  12.264  18.489  1.00  0.00     0.066 C 
HETATM   22  C   UNL     1       9.887  12.819  17.758  1.00  0.00     0.048 C 
BRANCH  21  23
HETATM   23  O   UNL     1       8.843  12.492  19.826  1.00  0.00    -0.361 OA
ATOM     24  HO  UNL     1       8.035  12.440  20.325  1.00  0.00     0.217 HD
ENDBRANCH  21  23
ENDBRANCH   6  16
BRANCH   3  25
HETATM   25  O   UNL     1      14.124  16.756  13.775  1.00  0.00    -0.385 OA
ATOM     26  HO  UNL     1      14.550  15.913  13.676  1.00  0.00     0.211 HD
ENDBRANCH   3  25
TORSDOF 3
ENDMDL
MODEL 3
REMARK VINA RESULT:     -10.4      3.045      5.353
REMARK  3 active torsions:
REMARK  status: ('A' for Active; 'I' for Inactive)
REMARK    1  A    between atoms: C_4  and  O_13 
REMARK    2  A    between atoms: O_5  and  C_10 
REMARK    3  A    between atoms: C_11  and  C_23 
ROOT
HETATM    1  C   UNL     1      10.832  15.053  13.618  1.00  0.00     0.033 C 
HETATM    2  C   UNL     1      12.719  15.530  15.278  1.00  0.00     0.024 C 
HETATM    3  C   UNL     1      12.935  16.845  14.477  1.00  0.00     0.088 C 
HETATM    4  C   UNL     1      12.925  17.576  15.833  1.00  0.00     0.044 C 
HETATM    5  C   UNL     1      13.856  13.185  15.507  1.00  0.00     0.006 C 
HETATM    6  C   UNL     1      11.336  13.468  15.582  1.00  0.00    -0.038 C 
HETATM    7  C   UNL     1      12.496  12.665  15.853  1.00  0.00     0.040 C 
HETATM    8  C   UNL     1      11.793  17.314  13.572  1.00  0.00     0.014 C 
HETATM    9  C   UNL     1      14.012  14.694  15.448  1.00  0.00     0.018 C 
HETATM   10  C   UNL     1      12.408  16.354  16.562  1.00  0.00     0.021 C 
HETATM   11  N   UNL     1      10.005  14.200  13.047  1.00  0.00    -0.399 N 
ATOM     12  HN1 UNL     1       9.530  14.459  12.182  1.00  0.00     0.156 HD
ATOM     13  HN2 UNL     1       9.847  13.290  13.482  1.00  0.00     0.156 HD
HETATM   14  C   UNL     1      11.513  14.682  14.857  1.00  0.00    -0.013 C 
HETATM   15  C   UNL     1      11.055  16.335  13.005  1.00  0.00     0.028 C 
ENDROOT
BRANCH   6  16
HETATM   16  C   UNL     1      10.051  13.021  16.209  1.00  0.00    -0.027 C 
HETATM   17  C   UNL     1      10.023  12.690  17.575  1.00  0.00     0.012 C 
HETATM   18  C   UNL     1       8.973  12.462  18.458  1.00  0.00     0.001 C 
HETATM   19  C   UNL     1       7.635  12.859  18.276  1.00  0.00     0.003 C 
HETATM   20  C   UNL     1       7.078  12.956  17.020  1.00  0.00     0.036 C 
HETATM   21  C   UNL     1       7.633  12.508  15.811  1.00  0.00     0.066 C 
HETATM   22  C   UNL     1       8.958  12.741  15.374  1.00  0.00     0.048 C 
BRANCH  21  23
HETATM   23  O   UNL     1       6.848  11.831  14.934  1.00  0.00    -0.361 OA
ATOM     24  HO  UNL     1       6.031  12.223  14.646  1.00  0.00     0.217 HD
ENDBRANCH  21  23
ENDBRANCH   6  16
BRANCH   3  25
HETATM   25  O   UNL     1      14.181  16.945  13.806  1.00  0.00    -0.385 OA
ATOM     26  HO  UNL     1      14.527  16.127  13.470  1.00  0.00     0.211 HD
ENDBRANCH   3  25
TORSDOF 3
ENDMDL
MODEL 4
REMARK VINA RESULT:      -9.6      2.706      5.909
REMARK  3 active torsions:
REMARK  status: ('A' for Active; 'I' for Inactive)
REMARK    1  A    between atoms: C_4  and  O_13 
REMARK    2  A    between atoms: O_5  and  C_10 
REMARK    3  A    between atoms: C_11  and  C_23 
ROOT
HETATM    1  C   UNL     1      13.125  13.911  16.004  1.00  0.00     0.033 C 
HETATM    2  C   UNL     1      12.373  16.346  16.230  1.00  0.00     0.024 C 
HETATM    3  C   UNL     1      13.682  16.699  15.469  1.00  0.00     0.088 C 
HETATM    4  C   UNL     1      12.813  17.576  14.547  1.00  0.00     0.044 C 
HETATM    5  C   UNL     1      11.473  16.419  18.685  1.00  0.00     0.006 C 
HETATM    6  C   UNL     1      10.878  14.536  17.092  1.00  0.00    -0.038 C 
HETATM    7  C   UNL     1      10.601  15.266  18.299  1.00  0.00     0.040 C 
HETATM    8  C   UNL     1      14.372  15.573  14.694  1.00  0.00     0.014 C 
HETATM    9  C   UNL     1      12.205  17.125  17.558  1.00  0.00     0.018 C 
HETATM   10  C   UNL     1      11.528  16.986  15.089  1.00  0.00     0.021 C 
HETATM   11  N   UNL     1      13.045  12.653  16.391  1.00  0.00    -0.399 N 
ATOM     12  HN1 UNL     1      13.782  11.998  16.134  1.00  0.00     0.156 HD
ATOM     13  HN2 UNL     1      12.240  12.350  16.941  1.00  0.00     0.156 HD
HETATM   14  C   UNL     1      12.067  14.851  16.375  1.00  0.00    -0.013 C 
HETATM   15  C   UNL     1      14.259  14.339  15.229  1.00  0.00     0.028 C 
ENDROOT
BRANCH   6  16
HETATM   16  C   UNL     1       9.812  13.595  16.620  1.00  0.00    -0.027 C 
HETATM   17  C   UNL     1       9.258  12.666  17.519  1.00  0.00     0.012 C 
HETATM   18  C   UNL     1       8.140  11.843  17.437  1.00  0.00     0.001 C 
HETATM   19  C   UNL     1       7.060  11.996  16.547  1.00  0.00     0.003 C 
HETATM   20  C   UNL     1       7.230  12.552  15.299  1.00  0.00     0.036 C 
HETATM   21  C   UNL     1       8.446  12.845  14.661  1.00  0.00     0.066 C 
HETATM   22  C   UNL     1       9.543  13.521  15.245  1.00  0.00     0.048 C 
BRANCH  21  23
HETATM   23  O   UNL     1       8.604  12.512  13.354  1.00  0.00    -0.361 OA
ATOM     24  HO  UNL     1       9.095  13.094  12.785  1.00  0.00     0.217 HD
ENDBRANCH  21  23
ENDBRANCH   6  16
BRANCH   3  25
HETATM   25  O   UNL     1      14.629  17.450  16.212  1.00  0.00    -0.385 OA
ATOM     26  HO  UNL     1      15.527  17.147  16.147  1.00  0.00     0.211 HD
ENDBRANCH   3  25
TORSDOF 3
ENDMDL
MODEL 5
REMARK VINA RESULT:      -8.8      1.778      2.644
REMARK  3 active torsions:
REMARK  status: ('A' for Active; 'I' for Inactive)
REMARK    1  A    between atoms: C_4  and  O_13 
REMARK    2  A    between atoms: O_5  and  C_10 
REMARK    3  A    between atoms: C_11  and  C_23 
ROOT
HETATM    1  C   UNL     1       8.831  13.463  15.652  1.00  0.00     0.033 C 
HETATM    2  C   UNL     1      11.073  14.326  14.773  1.00  0.00     0.024 C 
HETATM    3  C   UNL     1      10.314  14.605  13.446  1.00  0.00     0.088 C 
HETATM    4  C   UNL     1      10.936  16.014  13.481  1.00  0.00     0.044 C 
HETATM    5  C   UNL     1      12.752  12.555  15.717  1.00  0.00     0.006 C 
HETATM    6  C   UNL     1      10.920  13.566  17.152  1.00  0.00    -0.038 C 
HETATM    7  C   UNL     1      12.165  12.855  17.060  1.00  0.00     0.040 C 
HETATM    8  C   UNL     1       8.785  14.660  13.506  1.00  0.00     0.014 C 
HETATM    9  C   UNL     1      12.358  13.483  14.581  1.00  0.00     0.018 C 
HETATM   10  C   UNL     1      11.407  15.841  14.909  1.00  0.00     0.021 C 
HETATM   11  N   UNL     1       8.147  12.757  16.531  1.00  0.00    -0.399 N 
ATOM     12  HN1 UNL     1       7.183  12.493  16.326  1.00  0.00     0.156 HD
ATOM     13  HN2 UNL     1       8.591  12.486  17.409  1.00  0.00     0.156 HD
HETATM   14  C   UNL     1      10.213  13.840  15.946  1.00  0.00    -0.013 C 
HETATM   15  C   UNL     1       8.205  13.844  14.414  1.00  0.00     0.028 C 
ENDROOT
BRANCH   6  16
HETATM   16  C   UNL     1      10.541  14.080  18.507  1.00  0.00    -0.027 C 
HETATM   17  C   UNL     1       9.702  13.311  19.332  1.00  0.00     0.012 C 
HETATM   18  C   UNL     1       9.366  13.417  20.677  1.00  0.00     0.001 C 
HETATM   19  C   UNL     1      10.077  14.137  21.656  1.00  0.00     0.003 C 
HETATM   20  C   UNL     1      10.788  15.273  21.338  1.00  0.00     0.036 C 
HETATM   21  C   UNL     1      10.759  15.978  20.125  1.00  0.00     0.066 C 
HETATM   22  C   UNL     1      10.862  15.407  18.834  1.00  0.00     0.048 C 
BRANCH  21  23
HETATM   23  O   UNL     1      10.677  17.333  20.149  1.00  0.00    -0.361 OA
ATOM     24  HO  UNL     1      10.104  17.773  19.532  1.00  0.00     0.217 HD
ENDBRANCH  21  23
ENDBRANCH   6  16
BRANCH   3  25
HETATM   25  O   UNL     1      10.745  13.840  12.331  1.00  0.00    -0.385 OA
ATOM     26  HO  UNL     1      10.130  13.181  12.030  1.00  0.00     0.211 HD
ENDBRANCH   3  25
TORSDOF 3
ENDMDL
MODEL 6
REMARK VINA RESULT:      -8.8      3.496      5.041
REMARK  3 active torsions:
REMARK  status: ('A' for Active; 'I' for Inactive)
REMARK    1  A    between atoms: C_4  and  O_13 
REMARK    2  A    between atoms: O_5  and  C_10 
REMARK    3  A    between atoms: C_11  and  C_23 
ROOT
HETATM    1  C   UNL     1      11.218  15.410  17.830  1.00  0.00     0.033 C 
HETATM    2  C   UNL     1      10.339  13.195  16.898  1.00  0.00     0.024 C 
HETATM    3  C   UNL     1       9.404  13.177  18.140  1.00  0.00     0.088 C 
HETATM    4  C   UNL     1       8.249  12.880  17.164  1.00  0.00     0.044 C 
HETATM    5  C   UNL     1      12.538  12.021  16.104  1.00  0.00     0.006 C 
HETATM    6  C   UNL     1      12.056  14.458  15.590  1.00  0.00    -0.038 C 
HETATM    7  C   UNL     1      12.800  13.261  15.310  1.00  0.00     0.040 C 
HETATM    8  C   UNL     1       9.193  14.499  18.882  1.00  0.00     0.014 C 
HETATM    9  C   UNL     1      11.159  11.892  16.727  1.00  0.00     0.018 C 
HETATM   10  C   UNL     1       9.099  13.209  15.956  1.00  0.00     0.021 C 
HETATM   11  N   UNL     1      12.151  16.340  17.866  1.00  0.00    -0.399 N 
ATOM     12  HN1 UNL     1      12.173  17.002  18.641  1.00  0.00     0.156 HD
ATOM     13  HN2 UNL     1      12.838  16.388  17.113  1.00  0.00     0.156 HD
HETATM   14  C   UNL     1      11.187  14.460  16.718  1.00  0.00    -0.013 C 
HETATM   15  C   UNL     1      10.249  15.341  18.890  1.00  0.00     0.028 C 
ENDROOT
BRANCH   6  16
HETATM   16  C   UNL     1      12.160  15.562  14.582  1.00  0.00    -0.027 C 
HETATM   17  C   UNL     1      11.161  15.705  13.604  1.00  0.00     0.012 C 
HETATM   18  C   UNL     1      10.876  16.726  12.703  1.00  0.00     0.001 C 
HETATM   19  C   UNL     1      11.324  18.058  12.791  1.00  0.00     0.003 C 
HETATM   20  C   UNL     1      12.530  18.374  13.376  1.00  0.00     0.036 C 
HETATM   21  C   UNL     1      13.543  17.482  13.765  1.00  0.00     0.066 C 
HETATM   22  C   UNL     1      13.355  16.293  14.509  1.00  0.00     0.048 C 
BRANCH  21  23
HETATM   23  O   UNL     1      14.834  17.775  13.462  1.00  0.00    -0.361 OA
ATOM     24  HO  UNL     1      15.033  18.599  13.033  1.00  0.00     0.217 HD
ENDBRANCH  21  23
ENDBRANCH   6  16
BRANCH   3  25
HETATM   25  O   UNL     1       9.637  12.119  19.056  1.00  0.00    -0.385 OA
ATOM     26  HO  UNL     1      10.419  11.606  18.891  1.00  0.00     0.211 HD
ENDBRANCH   3  25
TORSDOF 3
ENDMDL
MODEL 7
REMARK VINA RESULT:      -8.6      2.233      3.034
REMARK  3 active torsions:
REMARK  status: ('A' for Active; 'I' for Inactive)
REMARK    1  A    between atoms: C_4  and  O_13 
REMARK    2  A    between atoms: O_5  and  C_10 
REMARK    3  A    between atoms: C_11  and  C_23 
ROOT
HETATM    1  C   UNL     1       9.764  13.344  17.771  1.00  0.00     0.033 C 
HETATM    2  C   UNL     1       9.061  12.874  15.356  1.00  0.00     0.024 C 
HETATM    3  C   UNL     1       7.635  12.656  15.936  1.00  0.00     0.088 C 
HETATM    4  C   UNL     1       7.129  13.603  14.830  1.00  0.00     0.044 C 
HETATM    5  C   UNL     1      11.046  11.413  14.479  1.00  0.00     0.006 C 
HETATM    6  C   UNL     1      11.429  13.534  15.817  1.00  0.00    -0.038 C 
HETATM    7  C   UNL     1      11.938  12.526  14.930  1.00  0.00     0.040 C 
HETATM    8  C   UNL     1       7.350  13.214  17.334  1.00  0.00     0.014 C 
HETATM    9  C   UNL     1       9.554  11.697  14.479  1.00  0.00     0.018 C 
HETATM   10  C   UNL     1       8.533  14.048  14.479  1.00  0.00     0.021 C 
HETATM   11  N   UNL     1      10.711  13.446  18.682  1.00  0.00    -0.399 N 
ATOM     12  HN1 UNL     1      10.463  13.436  19.671  1.00  0.00     0.156 HD
ATOM     13  HN2 UNL     1      11.683  13.540  18.385  1.00  0.00     0.156 HD
HETATM   14  C   UNL     1      10.121  13.358  16.352  1.00  0.00    -0.013 C 
HETATM   15  C   UNL     1       8.394  13.211  18.189  1.00  0.00     0.028 C 
ENDROOT
BRANCH   6  16
HETATM   16  C   UNL     1      12.274  14.759  15.994  1.00  0.00    -0.027 C 
HETATM   17  C   UNL     1      13.555  14.808  15.418  1.00  0.00     0.012 C 
HETATM   18  C   UNL     1      14.454  15.853  15.229  1.00  0.00     0.001 C 
HETATM   19  C   UNL     1      14.146  17.226  15.258  1.00  0.00     0.003 C 
HETATM   20  C   UNL     1      13.129  17.719  16.044  1.00  0.00     0.036 C 
HETATM   21  C   UNL     1      12.416  17.030  17.038  1.00  0.00     0.066 C 
HETATM   22  C   UNL     1      11.850  15.740  16.904  1.00  0.00     0.048 C 
BRANCH  21  23
HETATM   23  O   UNL     1      12.186  17.639  18.229  1.00  0.00    -0.361 OA
ATOM     24  HO  UNL     1      12.487  18.531  18.359  1.00  0.00     0.217 HD
ENDBRANCH  21  23
ENDBRANCH   6  16
BRANCH   3  25
HETATM   25  O   UNL     1       7.126  11.338  15.809  1.00  0.00    -0.385 OA
ATOM     26  HO  UNL     1       7.074  11.008  14.920  1.00  0.00     0.211 HD
ENDBRANCH   3  25
TORSDOF 3
ENDMDL
MODEL 8
REMARK VINA RESULT:      -8.5      2.893      4.751
REMARK  3 active torsions:
REMARK  status: ('A' for Active; 'I' for Inactive)
REMARK    1  A    between atoms: C_4  and  O_13 
REMARK    2  A    between atoms: O_5  and  C_10 
REMARK    3  A    between atoms: C_11  and  C_23 
ROOT
HETATM    1  C   UNL     1      10.582  12.514  16.981  1.00  0.00     0.033 C 
HETATM    2  C   UNL     1       8.148  12.703  16.214  1.00  0.00     0.024 C 
HETATM    3  C   UNL     1       7.786  12.096  17.599  1.00  0.00     0.088 C 
HETATM    4  C   UNL     1       6.768  13.244  17.744  1.00  0.00     0.044 C 
HETATM    5  C   UNL     1       8.293  11.913  13.724  1.00  0.00     0.006 C 
HETATM    6  C   UNL     1       9.957  13.554  14.711  1.00  0.00    -0.038 C 
HETATM    7  C   UNL     1       9.348  12.960  13.553  1.00  0.00     0.040 C 
HETATM    8  C   UNL     1       8.857  12.147  18.692  1.00  0.00     0.014 C 
HETATM    9  C   UNL     1       7.510  11.944  15.024  1.00  0.00     0.018 C 
HETATM   10  C   UNL     1       7.343  13.991  16.559  1.00  0.00     0.021 C 
HETATM   11  N   UNL     1      11.867  12.480  16.693  1.00  0.00    -0.399 N 
ATOM     12  HN1 UNL     1      12.530  12.128  17.383  1.00  0.00     0.156 HD
ATOM     13  HN2 UNL     1      12.185  12.812  15.781  1.00  0.00     0.156 HD
HETATM   14  C   UNL     1       9.632  13.019  15.990  1.00  0.00    -0.013 C 
HETATM   15  C   UNL     1      10.134  12.046  18.265  1.00  0.00     0.028 C 
ENDROOT
BRANCH   6  16
HETATM   16  C   UNL     1      10.782  14.783  14.476  1.00  0.00    -0.027 C 
HETATM   17  C   UNL     1      11.570  15.299  15.519  1.00  0.00     0.012 C 
HETATM   18  C   UNL     1      12.575  16.261  15.540  1.00  0.00     0.001 C 
HETATM   19  C   UNL     1      13.310  16.717  14.430  1.00  0.00     0.003 C 
HETATM   20  C   UNL     1      12.759  16.752  13.168  1.00  0.00     0.036 C 
HETATM   21  C   UNL     1      11.412  16.557  12.826  1.00  0.00     0.066 C 
HETATM   22  C   UNL     1      10.586  15.506  13.290  1.00  0.00     0.048 C 
BRANCH  21  23
HETATM   23  O   UNL     1      10.826  17.400  11.938  1.00  0.00    -0.361 OA
ATOM     24  HO  UNL     1       9.943  17.216  11.638  1.00  0.00     0.217 HD
ENDBRANCH  21  23
ENDBRANCH   6  16
BRANCH   3  25
HETATM   25  O   UNL     1       7.172  10.818  17.556  1.00  0.00    -0.385 OA
ATOM     26  HO  UNL     1       7.632  10.165  17.043  1.00  0.00     0.211 HD
ENDBRANCH   3  25
TORSDOF 3
ENDMDL
