MODEL 1
REMARK VINA RESULT:     -12.7      0.000      0.000
REMARK  2 active torsions:
REMARK  status: ('A' for Active; 'I' for Inactive)
REMARK    1  A    between atoms: C_8  and  N_20 
REMARK    2  A    between atoms: C_9  and  C_12 
ROOT
HETATM    1  C   UNL     1       9.331  12.058  14.139  1.00  0.00     0.070 C 
HETATM    2  C   UNL     1       7.773  11.959  16.498  1.00  0.00    -0.048 C 
HETATM    3  C   UNL     1       7.416  11.620  17.934  1.00  0.00     0.043 C 
HETATM    4  C   UNL     1       9.312  13.080  17.799  1.00  0.00    -0.043 C 
HETATM    5  C   UNL     1       7.145  11.563  15.320  1.00  0.00     0.032 C 
HETATM    6  C   UNL     1       9.759  12.987  15.285  1.00  0.00    -0.010 C 
HETATM    7  C   UNL     1       7.826  11.877  14.082  1.00  0.00     0.004 C 
HETATM    8  C   UNL     1      10.663  13.664  18.072  1.00  0.00    -0.040 C 
HETATM    9  C   UNL     1       8.875  12.824  16.483  1.00  0.00    -0.036 C 
HETATM   10  C   UNL     1       9.674  14.434  14.797  1.00  0.00     0.021 C 
HETATM   11  C   UNL     1       8.512  12.272  18.786  1.00  0.00     0.044 C 
HETATM   12  C   UNL     1      11.187  12.607  15.750  1.00  0.00     0.019 C 
HETATM   13  C   UNL     1      11.656  13.489  16.931  1.00  0.00     0.041 C 
ENDROOT
BRANCH   8  14
HETATM   14  C   UNL     1      10.731  14.854  18.984  1.00  0.00    -0.023 C 
HETATM   15  C   UNL     1      11.429  16.039  18.665  1.00  0.00     0.013 C 
HETATM   16  C   UNL     1      10.853  17.252  19.105  1.00  0.00     0.007 C 
HETATM   17  C   UNL     1       9.599  17.238  19.734  1.00  0.00    -0.061 C 
HETATM   18  C   UNL     1       9.138  16.066  20.356  1.00  0.00     0.014 C 
HETATM   19  C   UNL     1       8.668  18.410  19.531  1.00  0.00     0.048 C 
HETATM   20  C   UNL     1       9.961  14.935  20.201  1.00  0.00    -0.051 C 
HETATM   21  C   UNL     1      10.136  13.953  21.309  1.00  0.00     0.049 C 
ENDBRANCH   8  14
BRANCH   7  22
HETATM   22  N   UNL     1       7.131  12.343  13.040  1.00  0.00    -0.402 N 
ATOM     23  HN2 UNL     1       7.096  11.807  12.172  1.00  0.00     0.156 HD
ATOM     24  HN1 UNL     1       6.423  13.064  13.175  1.00  0.00     0.156 HD
ENDBRANCH   7  22
TORSDOF 2
ENDMDL
MODEL 2
REMARK VINA RESULT:     -11.2      2.992      4.782
REMARK  2 active torsions:
REMARK  status: ('A' for Active; 'I' for Inactive)
REMARK    1  A    between atoms: C_8  and  N_20 
REMARK    2  A    between atoms: C_9  and  C_12 
ROOT
HETATM    1  C   UNL     1       8.582  11.830  16.019  1.00  0.00     0.070 C 
HETATM    2  C   UNL     1       9.542  13.492  18.098  1.00  0.00    -0.048 C 
HETATM    3  C   UNL     1      10.532  14.064  19.097  1.00  0.00     0.043 C 
HETATM    4  C   UNL     1      11.220  14.442  16.833  1.00  0.00    -0.043 C 
HETATM    5  C   UNL     1       8.337  12.834  18.332  1.00  0.00     0.032 C 
HETATM    6  C   UNL     1       9.531  12.967  15.608  1.00  0.00    -0.010 C 
HETATM    7  C   UNL     1       7.698  12.220  17.188  1.00  0.00     0.004 C 
HETATM    8  C   UNL     1      12.097  14.534  15.623  1.00  0.00    -0.040 C 
HETATM    9  C   UNL     1       9.989  13.756  16.797  1.00  0.00    -0.036 C 
HETATM   10  C   UNL     1       8.789  13.898  14.648  1.00  0.00     0.021 C 
HETATM   11  C   UNL     1      11.699  14.588  18.253  1.00  0.00     0.044 C 
HETATM   12  C   UNL     1      10.809  12.365  14.973  1.00  0.00     0.019 C 
HETATM   13  C   UNL     1      11.819  13.466  14.573  1.00  0.00     0.041 C 
ENDROOT
BRANCH   8  14
HETATM   14  C   UNL     1      12.597  15.894  15.233  1.00  0.00    -0.023 C 
HETATM   15  C   UNL     1      13.399  16.697  16.072  1.00  0.00     0.013 C 
HETATM   16  C   UNL     1      14.394  17.478  15.440  1.00  0.00     0.007 C 
HETATM   17  C   UNL     1      14.603  17.352  14.060  1.00  0.00    -0.061 C 
HETATM   18  C   UNL     1      13.577  16.862  13.234  1.00  0.00     0.014 C 
HETATM   19  C   UNL     1      16.001  17.524  13.515  1.00  0.00     0.048 C 
HETATM   20  C   UNL     1      12.417  16.428  13.905  1.00  0.00    -0.051 C 
HETATM   21  C   UNL     1      11.063  16.652  13.324  1.00  0.00     0.049 C 
ENDBRANCH   8  14
BRANCH   7  22
HETATM   22  N   UNL     1       6.376  12.333  17.026  1.00  0.00    -0.402 N 
ATOM     23  HN2 UNL     1       5.850  11.570  16.598  1.00  0.00     0.156 HD
ATOM     24  HN1 UNL     1       5.850  13.027  17.557  1.00  0.00     0.156 HD
ENDBRANCH   7  22
TORSDOF 2
ENDMDL
MODEL 3
REMARK VINA RESULT:     -11.0      3.147      5.146
REMARK  2 active torsions:
REMARK  status: ('A' for Active; 'I' for Inactive)
REMARK    1  A    between atoms: C_8  and  N_20 
REMARK    2  A    between atoms: C_9  and  C_12 
ROOT
HETATM    1  C   UNL     1      10.121  11.949  17.849  1.00  0.00     0.070 C 
HETATM    2  C   UNL     1      10.311  14.691  18.522  1.00  0.00    -0.048 C 
HETATM    3  C   UNL     1      10.972  15.998  18.919  1.00  0.00     0.043 C 
HETATM    4  C   UNL     1      11.726  15.224  16.780  1.00  0.00    -0.043 C 
HETATM    5  C   UNL     1       9.353  13.947  19.205  1.00  0.00     0.032 C 
HETATM    6  C   UNL     1      10.706  12.881  16.777  1.00  0.00    -0.010 C 
HETATM    7  C   UNL     1       9.050  12.634  18.677  1.00  0.00     0.004 C 
HETATM    8  C   UNL     1      12.645  14.883  15.649  1.00  0.00    -0.040 C 
HETATM    9  C   UNL     1      10.778  14.297  17.261  1.00  0.00    -0.036 C 
HETATM   10  C   UNL     1       9.809  12.823  15.540  1.00  0.00     0.021 C 
HETATM   11  C   UNL     1      11.995  16.285  17.815  1.00  0.00     0.044 C 
HETATM   12  C   UNL     1      12.163  12.458  16.468  1.00  0.00     0.019 C 
HETATM   13  C   UNL     1      12.816  13.388  15.418  1.00  0.00     0.041 C 
ENDROOT
BRANCH   8  14
HETATM   14  C   UNL     1      12.734  15.859  14.513  1.00  0.00    -0.023 C 
HETATM   15  C   UNL     1      11.789  15.921  13.466  1.00  0.00     0.013 C 
HETATM   16  C   UNL     1      11.490  17.206  12.957  1.00  0.00     0.007 C 
HETATM   17  C   UNL     1      12.053  18.340  13.559  1.00  0.00    -0.061 C 
HETATM   18  C   UNL     1      13.236  18.225  14.308  1.00  0.00     0.014 C 
HETATM   19  C   UNL     1      11.255  19.622  13.590  1.00  0.00     0.048 C 
HETATM   20  C   UNL     1      13.718  16.913  14.479  1.00  0.00    -0.051 C 
HETATM   21  C   UNL     1      15.180  16.624  14.473  1.00  0.00     0.049 C 
ENDBRANCH   8  14
BRANCH   7  22
HETATM   22  N   UNL     1       7.780  12.219  18.613  1.00  0.00    -0.402 N 
ATOM     23  HN2 UNL     1       7.573  11.260  18.333  1.00  0.00     0.156 HD
ATOM     24  HN1 UNL     1       7.045  12.738  19.093  1.00  0.00     0.156 HD
ENDBRANCH   7  22
TORSDOF 2
ENDMDL
MODEL 4
REMARK VINA RESULT:     -10.6      2.851      5.471
REMARK  2 active torsions:
REMARK  status: ('A' for Active; 'I' for Inactive)
REMARK    1  A    between atoms: C_8  and  N_20 
REMARK    2  A    between atoms: C_9  and  C_12 
ROOT
HETATM    1  C   UNL     1      13.978  15.975  14.940  1.00  0.00     0.070 C 
HETATM    2  C   UNL     1      11.594  15.721  13.436  1.00  0.00    -0.048 C 
HETATM    3  C   UNL     1      10.503  15.032  12.637  1.00  0.00     0.043 C 
HETATM    4  C   UNL     1      10.595  14.242  14.898  1.00  0.00    -0.043 C 
HETATM    5  C   UNL     1      12.478  16.720  13.038  1.00  0.00     0.032 C 
HETATM    6  C   UNL     1      12.779  15.332  15.655  1.00  0.00    -0.010 C 
HETATM    7  C   UNL     1      13.547  17.047  13.957  1.00  0.00     0.004 C 
HETATM    8  C   UNL     1      10.599  13.303  16.063  1.00  0.00    -0.040 C 
HETATM    9  C   UNL     1      11.590  15.231  14.748  1.00  0.00    -0.036 C 
HETATM   10  C   UNL     1      12.412  16.195  16.862  1.00  0.00     0.021 C 
HETATM   11  C   UNL     1       9.923  13.970  13.578  1.00  0.00     0.044 C 
HETATM   12  C   UNL     1      13.138  13.880  16.057  1.00  0.00     0.019 C 
HETATM   13  C   UNL     1      11.951  13.171  16.749  1.00  0.00     0.041 C 
ENDROOT
BRANCH   8  14
HETATM   14  C   UNL     1       9.320  13.153  16.833  1.00  0.00    -0.023 C 
HETATM   15  C   UNL     1       8.044  13.157  16.229  1.00  0.00     0.013 C 
HETATM   16  C   UNL     1       7.072  12.299  16.793  1.00  0.00     0.007 C 
HETATM   17  C   UNL     1       7.432  11.431  17.835  1.00  0.00    -0.061 C 
HETATM   18  C   UNL     1       8.551  11.719  18.635  1.00  0.00     0.014 C 
HETATM   19  C   UNL     1       6.753  10.086  17.932  1.00  0.00     0.048 C 
HETATM   20  C   UNL     1       9.302  12.844  18.242  1.00  0.00    -0.051 C 
HETATM   21  C   UNL     1       9.918  13.748  19.254  1.00  0.00     0.049 C 
ENDBRANCH   8  14
BRANCH   7  22
HETATM   22  N   UNL     1      13.873  18.326  14.170  1.00  0.00    -0.402 N 
ATOM     23  HN2 UNL     1      13.206  19.065  13.944  1.00  0.00     0.156 HD
ATOM     24  HN1 UNL     1      14.643  18.563  14.796  1.00  0.00     0.156 HD
ENDBRANCH   7  22
TORSDOF 2
ENDMDL
MODEL 5
REMARK VINA RESULT:     -10.5      2.808      4.333
REMARK  2 active torsions:
REMARK  status: ('A' for Active; 'I' for Inactive)
REMARK    1  A    between atoms: C_8  and  N_20 
REMARK    2  A    between atoms: C_9  and  C_12 
ROOT
HETATM    1  C   UNL     1      13.585  16.365  13.630  1.00  0.00     0.070 C 
HETATM    2  C   UNL     1      10.865  15.588  13.648  1.00  0.00    -0.048 C 
HETATM    3  C   UNL     1       9.671  14.652  13.685  1.00  0.00     0.043 C 
HETATM    4  C   UNL     1      10.978  14.521  15.690  1.00  0.00    -0.043 C 
HETATM    5  C   UNL     1      11.251  16.482  12.653  1.00  0.00     0.032 C 
HETATM    6  C   UNL     1      13.016  15.885  14.974  1.00  0.00    -0.010 C 
HETATM    7  C   UNL     1      12.549  17.103  12.803  1.00  0.00     0.004 C 
HETATM    8  C   UNL     1      11.711  13.940  16.858  1.00  0.00    -0.040 C 
HETATM    9  C   UNL     1      11.580  15.479  14.848  1.00  0.00    -0.036 C 
HETATM   10  C   UNL     1      13.124  17.028  15.984  1.00  0.00     0.021 C 
HETATM   11  C   UNL     1       9.817  13.862  14.991  1.00  0.00     0.044 C 
HETATM   12  C   UNL     1      13.783  14.620  15.434  1.00  0.00     0.019 C 
HETATM   13  C   UNL     1      13.225  14.070  16.768  1.00  0.00     0.041 C 
ENDROOT
BRANCH   8  14
HETATM   14  C   UNL     1      11.010  13.944  18.185  1.00  0.00    -0.023 C 
HETATM   15  C   UNL     1      11.493  14.634  19.318  1.00  0.00     0.013 C 
HETATM   16  C   UNL     1      10.524  15.219  20.165  1.00  0.00     0.007 C 
HETATM   17  C   UNL     1       9.170  15.176  19.805  1.00  0.00    -0.061 C 
HETATM   18  C   UNL     1       8.708  14.189  18.918  1.00  0.00     0.014 C 
HETATM   19  C   UNL     1       8.275  16.329  20.193  1.00  0.00     0.048 C 
HETATM   20  C   UNL     1       9.704  13.359  18.367  1.00  0.00    -0.051 C 
HETATM   21  C   UNL     1       9.451  11.910  18.128  1.00  0.00     0.049 C 
ENDBRANCH   8  14
BRANCH   7  22
HETATM   22  N   UNL     1      12.698  18.406  12.543  1.00  0.00    -0.402 N 
ATOM     23  HN2 UNL     1      13.527  18.898  12.875  1.00  0.00     0.156 HD
ATOM     24  HN1 UNL     1      12.154  18.847  11.801  1.00  0.00     0.156 HD
ENDBRANCH   7  22
TORSDOF 2
ENDMDL
MODEL 6
REMARK VINA RESULT:      -9.9      2.526      4.626
REMARK  2 active torsions:
REMARK  status: ('A' for Active; 'I' for Inactive)
REMARK    1  A    between atoms: C_8  and  N_20 
REMARK    2  A    between atoms: C_9  and  C_12 
ROOT
HETATM    1  C   UNL     1       7.970  12.203  18.607  1.00  0.00     0.070 C 
HETATM    2  C   UNL     1       7.558  12.596  15.835  1.00  0.00    -0.048 C 
HETATM    3  C   UNL     1       7.320  13.357  14.544  1.00  0.00     0.043 C 
HETATM    4  C   UNL     1       9.423  13.921  15.544  1.00  0.00    -0.043 C 
HETATM    5  C   UNL     1       6.754  11.643  16.456  1.00  0.00     0.032 C 
HETATM    6  C   UNL     1       9.155  12.769  17.809  1.00  0.00    -0.010 C 
HETATM    7  C   UNL     1       7.143  11.231  17.787  1.00  0.00     0.004 C 
HETATM    8  C   UNL     1      10.573  14.742  16.038  1.00  0.00    -0.040 C 
HETATM    9  C   UNL     1       8.804  12.955  16.364  1.00  0.00    -0.036 C 
HETATM   10  C   UNL     1      10.325  11.791  17.915  1.00  0.00     0.021 C 
HETATM   11  C   UNL     1       8.505  14.320  14.418  1.00  0.00     0.044 C 
HETATM   12  C   UNL     1       9.513  14.176  18.349  1.00  0.00     0.019 C 
HETATM   13  C   UNL     1      10.680  14.810  17.555  1.00  0.00     0.041 C 
ENDROOT
BRANCH   8  14
HETATM   14  C   UNL     1      11.795  14.812  15.170  1.00  0.00    -0.023 C 
HETATM   15  C   UNL     1      11.945  15.735  14.113  1.00  0.00     0.013 C 
HETATM   16  C   UNL     1      13.244  16.253  13.903  1.00  0.00     0.007 C 
HETATM   17  C   UNL     1      14.278  15.915  14.788  1.00  0.00    -0.061 C 
HETATM   18  C   UNL     1      14.190  14.743  15.558  1.00  0.00     0.014 C 
HETATM   19  C   UNL     1      15.357  16.933  15.071  1.00  0.00     0.048 C 
HETATM   20  C   UNL     1      12.979  14.035  15.444  1.00  0.00    -0.051 C 
HETATM   21  C   UNL     1      12.955  12.545  15.458  1.00  0.00     0.049 C 
ENDBRANCH   8  14
BRANCH   7  22
HETATM   22  N   UNL     1       7.093   9.938  18.124  1.00  0.00    -0.402 N 
ATOM     23  HN2 UNL     1       6.229   9.411  17.989  1.00  0.00     0.156 HD
ATOM     24  HN1 UNL     1       7.954   9.406  18.249  1.00  0.00     0.156 HD
ENDBRANCH   7  22
TORSDOF 2
ENDMDL
