MODEL 1
REMARK VINA RESULT:     -11.2      0.000      0.000
REMARK  3 active torsions:
REMARK  status: ('A' for Active; 'I' for Inactive)
REMARK    1  A    between atoms: O_5  and  C_11 
REMARK    2  A    between atoms: C_11  and  O_20 
REMARK    3  A    between atoms: C_25  and  O_26 
ROOT
HETATM    1  C   UNL     1     140.960 -26.290  70.936  1.00  0.00    -0.000 A 
HETATM    2  C   UNL     1     140.997 -28.558  72.519  1.00  0.00    -0.038 C 
HETATM    3  C   UNL     1     142.799 -22.687  69.625  1.00  0.00     0.016 C 
HETATM    4  C   UNL     1     142.157 -24.398  71.305  1.00  0.00     0.021 A 
HETATM    5  N   UNL     1     141.948 -24.990  72.512  1.00  0.00    -0.358 N 
ATOM      6  HN  UNL     1     142.231 -24.605  73.413  1.00  0.00     0.166 HD
HETATM    7  C   UNL     1     143.130 -23.305  70.992  1.00  0.00     0.039 C 
HETATM    8  C   UNL     1     141.539 -25.132  70.288  1.00  0.00    -0.022 A 
HETATM    9  C   UNL     1     141.766 -29.003  74.754  1.00  0.00     0.167 C 
HETATM   10  C   UNL     1     144.131 -24.615  68.634  1.00  0.00     0.036 C 
HETATM   11  C   UNL     1     141.258 -29.693  73.476  1.00  0.00     0.108 C 
HETATM   12  C   UNL     1     144.565 -23.818  71.015  1.00  0.00     0.042 C 
HETATM   13  C   UNL     1     140.092 -29.960  70.636  1.00  0.00     0.049 C 
HETATM   14  C   UNL     1     140.387 -27.466  70.448  1.00  0.00     0.021 C 
HETATM   15  C   UNL     1     141.296 -26.186  72.332  1.00  0.00     0.050 A 
HETATM   16  C   UNL     1     141.648 -24.788  68.833  1.00  0.00     0.046 C 
HETATM   17  C   UNL     1     140.505 -28.629  71.207  1.00  0.00    -0.054 C 
HETATM   18  C   UNL     1     141.473 -27.499  74.601  1.00  0.00     0.110 C 
HETATM   19  C   UNL     1     141.214 -27.325  73.134  1.00  0.00    -0.018 C 
HETATM   20  C   UNL     1     142.806 -23.813  68.570  1.00  0.00    -0.007 C 
HETATM   21  C   UNL     1     145.129 -24.018  69.614  1.00  0.00     0.119 C 
ENDROOT
BRANCH   9  22
HETATM   22  O   UNL     1     143.119 -29.186  75.000  1.00  0.00    -0.365 OA
ATOM     23  HO  UNL     1     143.319 -29.956  75.520  1.00  0.00     0.213 HD
ENDBRANCH   9  22
BRANCH   9  24
HETATM   24  O   UNL     1     141.179 -29.590  75.869  1.00  0.00    -0.365 OA
ATOM     25  HO  UNL     1     141.440 -30.500  75.780  1.00  0.00     0.213 HD
ENDBRANCH   9  24
BRANCH  21  26
HETATM   26  O   UNL     1     146.354 -24.716  69.676  1.00  0.00    -0.396 OA
ATOM     27  HO  UNL     1     146.531 -25.248  68.908  1.00  0.00     0.210 HD
ENDBRANCH  21  26
TORSDOF 3
ENDMDL
MODEL 2
REMARK VINA RESULT:     -10.7      3.029      4.322
REMARK  3 active torsions:
REMARK  status: ('A' for Active; 'I' for Inactive)
REMARK    1  A    between atoms: O_5  and  C_11 
REMARK    2  A    between atoms: C_11  and  O_20 
REMARK    3  A    between atoms: C_25  and  O_26 
ROOT
HETATM    1  C   UNL     1     143.239 -22.967  72.719  1.00  0.00    -0.000 A 
HETATM    2  C   UNL     1     142.531 -24.198  75.092  1.00  0.00    -0.038 C 
HETATM    3  C   UNL     1     143.802 -23.141  68.507  1.00  0.00     0.016 C 
HETATM    4  C   UNL     1     143.904 -24.024  70.825  1.00  0.00     0.021 A 
HETATM    5  N   UNL     1     144.234 -24.824  71.877  1.00  0.00    -0.358 N 
ATOM      6  HN  UNL     1     144.744 -25.705  71.808  1.00  0.00     0.166 HD
HETATM    7  C   UNL     1     143.867 -24.406  69.378  1.00  0.00     0.039 C 
HETATM    8  C   UNL     1     143.317 -22.839  71.278  1.00  0.00    -0.022 A 
HETATM    9  C   UNL     1     142.862 -26.413  75.969  1.00  0.00     0.167 C 
HETATM   10  C   UNL     1     141.294 -23.198  68.934  1.00  0.00     0.036 C 
HETATM   11  C   UNL     1     142.111 -25.096  76.229  1.00  0.00     0.108 C 
HETATM   12  C   UNL     1     142.690 -25.325  69.079  1.00  0.00     0.042 C 
HETATM   13  C   UNL     1     141.272 -22.155  75.848  1.00  0.00     0.049 C 
HETATM   14  C   UNL     1     142.597 -22.216  73.706  1.00  0.00     0.021 C 
HETATM   15  C   UNL     1     143.775 -24.262  73.044  1.00  0.00     0.050 A 
HETATM   16  C   UNL     1     142.770 -21.783  70.367  1.00  0.00     0.046 C 
HETATM   17  C   UNL     1     142.149 -22.870  74.853  1.00  0.00    -0.054 C 
HETATM   18  C   UNL     1     143.924 -26.123  74.894  1.00  0.00     0.110 C 
HETATM   19  C   UNL     1     143.484 -24.823  74.287  1.00  0.00    -0.018 C 
HETATM   20  C   UNL     1     142.571 -22.318  68.940  1.00  0.00    -0.007 C 
HETATM   21  C   UNL     1     141.548 -24.592  68.384  1.00  0.00     0.119 C 
ENDROOT
BRANCH   9  22
HETATM   22  O   UNL     1     142.052 -27.456  75.547  1.00  0.00    -0.365 OA
ATOM     23  HO  UNL     1     141.884 -28.114  76.212  1.00  0.00     0.213 HD
ENDBRANCH   9  22
BRANCH   9  24
HETATM   24  O   UNL     1     143.377 -26.902  77.164  1.00  0.00    -0.365 OA
ATOM     25  HO  UNL     1     144.015 -27.540  76.864  1.00  0.00     0.213 HD
ENDBRANCH   9  24
BRANCH  21  26
HETATM   26  O   UNL     1     140.397 -25.407  68.346  1.00  0.00    -0.396 OA
ATOM     27  HO  UNL     1     139.716 -25.138  68.951  1.00  0.00     0.210 HD
ENDBRANCH  21  26
TORSDOF 3
ENDMDL
MODEL 3
REMARK VINA RESULT:     -10.5      3.673      6.144
REMARK  3 active torsions:
REMARK  status: ('A' for Active; 'I' for Inactive)
REMARK    1  A    between atoms: O_5  and  C_11 
REMARK    2  A    between atoms: C_11  and  O_20 
REMARK    3  A    between atoms: C_25  and  O_26 
ROOT
HETATM    1  C   UNL     1     142.413 -25.345  73.017  1.00  0.00    -0.000 A 
HETATM    2  C   UNL     1     141.392 -25.694  70.471  1.00  0.00    -0.038 C 
HETATM    3  C   UNL     1     142.951 -22.915  76.466  1.00  0.00     0.016 C 
HETATM    4  C   UNL     1     142.802 -23.350  74.027  1.00  0.00     0.021 A 
HETATM    5  N   UNL     1     142.907 -23.155  72.683  1.00  0.00    -0.358 N 
ATOM      6  HN  UNL     1     143.174 -22.279  72.235  1.00  0.00     0.166 HD
HETATM    7  C   UNL     1     142.682 -22.299  75.084  1.00  0.00     0.039 C 
HETATM    8  C   UNL     1     142.535 -24.694  74.305  1.00  0.00    -0.022 A 
HETATM    9  C   UNL     1     141.136 -24.233  68.576  1.00  0.00     0.167 C 
HETATM   10  C   UNL     1     140.508 -23.628  76.421  1.00  0.00     0.036 C 
HETATM   11  C   UNL     1     140.746 -25.623  69.110  1.00  0.00     0.108 C 
HETATM   12  C   UNL     1     141.311 -21.635  75.051  1.00  0.00     0.042 C 
HETATM   13  C   UNL     1     140.692 -28.050  71.008  1.00  0.00     0.049 C 
HETATM   14  C   UNL     1     141.976 -26.614  72.631  1.00  0.00     0.021 C 
HETATM   15  C   UNL     1     142.597 -24.321  72.023  1.00  0.00     0.050 A 
HETATM   16  C   UNL     1     142.285 -25.221  75.686  1.00  0.00     0.046 C 
HETATM   17  C   UNL     1     141.365 -26.757  71.385  1.00  0.00    -0.054 C 
HETATM   18  C   UNL     1     142.247 -23.693  69.495  1.00  0.00     0.110 C 
HETATM   19  C   UNL     1     142.160 -24.556  70.720  1.00  0.00    -0.018 C 
HETATM   20  C   UNL     1     141.968 -24.086  76.673  1.00  0.00    -0.007 C 
HETATM   21  C   UNL     1     140.401 -22.132  76.168  1.00  0.00     0.119 C 
ENDROOT
BRANCH   9  22
HETATM   22  O   UNL     1     140.089 -23.325  68.536  1.00  0.00    -0.365 OA
ATOM     23  HO  UNL     1     139.930 -22.877  69.359  1.00  0.00     0.213 HD
ENDBRANCH   9  22
BRANCH   9  24
HETATM   24  O   UNL     1     141.498 -24.330  67.238  1.00  0.00    -0.365 OA
ATOM     25  HO  UNL     1     140.675 -24.160  66.793  1.00  0.00     0.213 HD
ENDBRANCH   9  24
BRANCH  21  26
HETATM   26  O   UNL     1     139.080 -21.684  75.958  1.00  0.00    -0.396 OA
ATOM     27  HO  UNL     1     138.536 -21.716  76.736  1.00  0.00     0.210 HD
ENDBRANCH  21  26
TORSDOF 3
ENDMDL
MODEL 4
REMARK VINA RESULT:     -10.4      1.468      1.924
REMARK  3 active torsions:
REMARK  status: ('A' for Active; 'I' for Inactive)
REMARK    1  A    between atoms: O_5  and  C_11 
REMARK    2  A    between atoms: C_11  and  O_20 
REMARK    3  A    between atoms: C_25  and  O_26 
ROOT
HETATM    1  C   UNL     1     141.302 -26.209  71.971  1.00  0.00    -0.000 A 
HETATM    2  C   UNL     1     142.062 -27.535  74.276  1.00  0.00    -0.038 C 
HETATM    3  C   UNL     1     142.157 -23.417  68.879  1.00  0.00     0.016 C 
HETATM    4  C   UNL     1     142.180 -24.258  71.215  1.00  0.00     0.021 A 
HETATM    5  N   UNL     1     142.322 -24.271  72.569  1.00  0.00    -0.358 N 
ATOM      6  HN  UNL     1     142.699 -23.507  73.128  1.00  0.00     0.166 HD
HETATM    7  C   UNL     1     142.856 -23.339  70.246  1.00  0.00     0.039 C 
HETATM    8  C   UNL     1     141.521 -25.412  70.781  1.00  0.00    -0.022 A 
HETATM    9  C   UNL     1     143.319 -26.884  76.221  1.00  0.00     0.167 C 
HETATM   10  C   UNL     1     143.603 -25.469  68.461  1.00  0.00     0.036 C 
HETATM   11  C   UNL     1     142.708 -28.106  75.513  1.00  0.00     0.108 C 
HETATM   12  C   UNL     1     144.337 -23.671  70.111  1.00  0.00     0.042 C 
HETATM   13  C   UNL     1     141.083 -29.693  73.431  1.00  0.00     0.049 C 
HETATM   14  C   UNL     1     140.871 -27.522  72.170  1.00  0.00     0.021 C 
HETATM   15  C   UNL     1     141.878 -25.473  73.066  1.00  0.00     0.050 A 
HETATM   16  C   UNL     1     141.280 -25.739  69.338  1.00  0.00     0.046 C 
HETATM   17  C   UNL     1     141.347 -28.217  73.281  1.00  0.00    -0.054 C 
HETATM   18  C   UNL     1     142.731 -25.632  75.547  1.00  0.00     0.110 C 
HETATM   19  C   UNL     1     142.165 -26.144  74.255  1.00  0.00    -0.018 C 
HETATM   20  C   UNL     1     142.166 -24.888  68.414  1.00  0.00    -0.007 C 
HETATM   21  C   UNL     1     144.645 -24.421  68.821  1.00  0.00     0.119 C 
ENDROOT
BRANCH   9  22
HETATM   22  O   UNL     1     144.704 -26.829  76.167  1.00  0.00    -0.365 OA
ATOM     23  HO  UNL     1     145.047 -26.045  75.756  1.00  0.00     0.213 HD
ENDBRANCH   9  22
BRANCH   9  24
HETATM   24  O   UNL     1     143.079 -26.965  77.587  1.00  0.00    -0.365 OA
ATOM     25  HO  UNL     1     143.245 -26.075  77.876  1.00  0.00     0.213 HD
ENDBRANCH   9  24
BRANCH  21  26
HETATM   26  O   UNL     1     145.965 -24.919  68.849  1.00  0.00    -0.396 OA
ATOM     27  HO  UNL     1     146.237 -25.235  69.702  1.00  0.00     0.210 HD
ENDBRANCH  21  26
TORSDOF 3
ENDMDL
MODEL 5
REMARK VINA RESULT:      -9.7      3.612      5.373
REMARK  3 active torsions:
REMARK  status: ('A' for Active; 'I' for Inactive)
REMARK    1  A    between atoms: O_5  and  C_11 
REMARK    2  A    between atoms: C_11  and  O_20 
REMARK    3  A    between atoms: C_25  and  O_26 
ROOT
HETATM    1  C   UNL     1     142.963 -26.646  74.706  1.00  0.00    -0.000 A 
HETATM    2  C   UNL     1     141.419 -28.428  73.261  1.00  0.00    -0.038 C 
HETATM    3  C   UNL     1     143.878 -22.652  75.846  1.00  0.00     0.016 C 
HETATM    4  C   UNL     1     143.205 -24.435  74.255  1.00  0.00     0.021 A 
HETATM    5  N   UNL     1     142.928 -25.063  73.080  1.00  0.00    -0.358 N 
ATOM      6  HN  UNL     1     142.901 -24.614  72.165  1.00  0.00     0.166 HD
HETATM    7  C   UNL     1     143.156 -22.964  74.526  1.00  0.00     0.039 C 
HETATM    8  C   UNL     1     143.279 -25.362  75.299  1.00  0.00    -0.022 A 
HETATM    9  C   UNL     1     140.419 -28.356  71.074  1.00  0.00     0.167 C 
HETATM   10  C   UNL     1     141.687 -23.274  76.979  1.00  0.00     0.036 C 
HETATM   11  C   UNL     1     140.449 -29.173  72.379  1.00  0.00     0.108 C 
HETATM   12  C   UNL     1     141.721 -22.456  74.566  1.00  0.00     0.042 C 
HETATM   13  C   UNL     1     141.341 -30.028  75.201  1.00  0.00     0.049 C 
HETATM   14  C   UNL     1     142.694 -27.903  75.249  1.00  0.00     0.021 C 
HETATM   15  C   UNL     1     142.691 -26.396  73.315  1.00  0.00     0.050 A 
HETATM   16  C   UNL     1     143.491 -24.983  76.733  1.00  0.00     0.046 C 
HETATM   17  C   UNL     1     141.827 -28.753  74.563  1.00  0.00    -0.054 C 
HETATM   18  C   UNL     1     141.601 -27.372  71.131  1.00  0.00     0.110 C 
HETATM   19  C   UNL     1     141.992 -27.354  72.580  1.00  0.00    -0.018 C 
HETATM   20  C   UNL     1     143.222 -23.487  76.965  1.00  0.00    -0.007 C 
HETATM   21  C   UNL     1     141.235 -22.211  75.990  1.00  0.00     0.119 C 
ENDROOT
BRANCH   9  22
HETATM   22  O   UNL     1     139.241 -27.652  70.872  1.00  0.00    -0.365 OA
ATOM     23  HO  UNL     1     139.245 -27.101  70.098  1.00  0.00     0.213 HD
ENDBRANCH   9  22
BRANCH   9  24
HETATM   24  O   UNL     1     140.442 -29.216  69.983  1.00  0.00    -0.365 OA
ATOM     25  HO  UNL     1     140.718 -30.036  70.376  1.00  0.00     0.213 HD
ENDBRANCH   9  24
BRANCH  21  26
HETATM   26  O   UNL     1     139.843 -21.982  75.998  1.00  0.00    -0.396 OA
ATOM     27  HO  UNL     1     139.324 -22.777  76.008  1.00  0.00     0.210 HD
ENDBRANCH  21  26
TORSDOF 3
ENDMDL
MODEL 6
REMARK VINA RESULT:      -9.4      2.431      3.943
REMARK  3 active torsions:
REMARK  status: ('A' for Active; 'I' for Inactive)
REMARK    1  A    between atoms: O_5  and  C_11 
REMARK    2  A    between atoms: C_11  and  O_20 
REMARK    3  A    between atoms: C_25  and  O_26 
ROOT
HETATM    1  C   UNL     1     143.822 -24.720  71.757  1.00  0.00    -0.000 A 
HETATM    2  C   UNL     1     142.832 -25.673  74.157  1.00  0.00    -0.038 C 
HETATM    3  C   UNL     1     143.342 -24.046  67.586  1.00  0.00     0.016 C 
HETATM    4  C   UNL     1     143.113 -25.339  69.692  1.00  0.00     0.021 A 
HETATM    5  N   UNL     1     142.879 -26.383  70.534  1.00  0.00    -0.358 N 
ATOM      6  HN  UNL     1     142.510 -27.292  70.255  1.00  0.00     0.166 HD
HETATM    7  C   UNL     1     142.558 -25.148  68.316  1.00  0.00     0.039 C 
HETATM    8  C   UNL     1     143.730 -24.288  70.377  1.00  0.00    -0.022 A 
HETATM    9  C   UNL     1     141.487 -27.576  74.753  1.00  0.00     0.167 C 
HETATM   10  C   UNL     1     141.810 -22.412  68.793  1.00  0.00     0.036 C 
HETATM   11  C   UNL     1     142.072 -26.269  75.315  1.00  0.00     0.108 C 
HETATM   12  C   UNL     1     141.073 -24.812  68.359  1.00  0.00     0.042 C 
HETATM   13  C   UNL     1     143.738 -23.678  75.394  1.00  0.00     0.049 C 
HETATM   14  C   UNL     1     144.161 -24.059  72.940  1.00  0.00     0.021 C 
HETATM   15  C   UNL     1     143.218 -26.025  71.817  1.00  0.00     0.050 A 
HETATM   16  C   UNL     1     144.048 -22.963  69.753  1.00  0.00     0.046 C 
HETATM   17  C   UNL     1     143.571 -24.482  74.131  1.00  0.00    -0.054 C 
HETATM   18  C   UNL     1     142.191 -27.845  73.411  1.00  0.00     0.110 C 
HETATM   19  C   UNL     1     142.813 -26.527  73.054  1.00  0.00    -0.018 C 
HETATM   20  C   UNL     1     143.278 -22.761  68.438  1.00  0.00    -0.007 C 
HETATM   21  C   UNL     1     140.809 -23.331  68.111  1.00  0.00     0.119 C 
ENDROOT
BRANCH   9  22
HETATM   22  O   UNL     1     140.114 -27.546  74.555  1.00  0.00    -0.365 OA
ATOM     23  HO  UNL     1     139.658 -28.318  74.869  1.00  0.00     0.213 HD
ENDBRANCH   9  22
BRANCH   9  24
HETATM   24  O   UNL     1     141.630 -28.594  75.688  1.00  0.00    -0.365 OA
ATOM     25  HO  UNL     1     141.224 -29.333  75.248  1.00  0.00     0.213 HD
ENDBRANCH   9  24
BRANCH  21  26
HETATM   26  O   UNL     1     139.463 -23.021  68.400  1.00  0.00    -0.396 OA
ATOM     27  HO  UNL     1     139.354 -22.450  69.151  1.00  0.00     0.210 HD
ENDBRANCH  21  26
TORSDOF 3
ENDMDL
MODEL 7
REMARK VINA RESULT:      -9.0      2.284      3.050
REMARK  3 active torsions:
REMARK  status: ('A' for Active; 'I' for Inactive)
REMARK    1  A    between atoms: O_5  and  C_11 
REMARK    2  A    between atoms: C_11  and  O_20 
REMARK    3  A    between atoms: C_25  and  O_26 
ROOT
HETATM    1  C   UNL     1     141.779 -26.180  72.413  1.00  0.00    -0.000 A 
HETATM    2  C   UNL     1     142.407 -26.399  75.097  1.00  0.00    -0.038 C 
HETATM    3  C   UNL     1     142.415 -24.363  68.620  1.00  0.00     0.016 C 
HETATM    4  C   UNL     1     142.208 -24.384  71.094  1.00  0.00     0.021 A 
HETATM    5  N   UNL     1     142.076 -23.931  72.371  1.00  0.00    -0.358 N 
ATOM      6  HN  UNL     1     142.105 -22.951  72.653  1.00  0.00     0.166 HD
HETATM    7  C   UNL     1     142.778 -23.641  69.927  1.00  0.00     0.039 C 
HETATM    8  C   UNL     1     141.999 -25.765  71.042  1.00  0.00    -0.022 A 
HETATM    9  C   UNL     1     143.019 -24.801  76.788  1.00  0.00     0.167 C 
HETATM   10  C   UNL     1     144.430 -25.843  69.093  1.00  0.00     0.036 C 
HETATM   11  C   UNL     1     142.928 -26.312  76.510  1.00  0.00     0.108 C 
HETATM   12  C   UNL     1     144.288 -23.487  70.053  1.00  0.00     0.042 C 
HETATM   13  C   UNL     1     142.259 -28.908  74.991  1.00  0.00     0.049 C 
HETATM   14  C   UNL     1     141.703 -27.432  73.026  1.00  0.00     0.021 C 
HETATM   15  C   UNL     1     141.897 -24.996  73.221  1.00  0.00     0.050 A 
HETATM   16  C   UNL     1     142.150 -26.582  69.795  1.00  0.00     0.046 C 
HETATM   17  C   UNL     1     142.124 -27.551  74.351  1.00  0.00    -0.054 C 
HETATM   18  C   UNL     1     142.250 -24.087  75.662  1.00  0.00     0.110 C 
HETATM   19  C   UNL     1     142.118 -25.131  74.592  1.00  0.00    -0.018 C 
HETATM   20  C   UNL     1     142.927 -25.816  68.712  1.00  0.00    -0.007 C 
HETATM   21  C   UNL     1     145.044 -24.453  69.148  1.00  0.00     0.119 C 
ENDROOT
BRANCH   9  22
HETATM   22  O   UNL     1     144.315 -24.310  76.844  1.00  0.00    -0.365 OA
ATOM     23  HO  UNL     1     144.536 -23.713  76.139  1.00  0.00     0.213 HD
ENDBRANCH   9  22
BRANCH   9  24
HETATM   24  O   UNL     1     142.545 -24.531  78.066  1.00  0.00    -0.365 OA
ATOM     25  HO  UNL     1     141.727 -24.080  77.888  1.00  0.00     0.213 HD
ENDBRANCH   9  24
BRANCH  21  26
HETATM   26  O   UNL     1     146.418 -24.451  69.471  1.00  0.00    -0.396 OA
ATOM     27  HO  UNL     1     146.961 -24.905  68.838  1.00  0.00     0.210 HD
ENDBRANCH  21  26
TORSDOF 3
ENDMDL
MODEL 8
REMARK VINA RESULT:      -8.5      2.763      6.615
REMARK  3 active torsions:
REMARK  status: ('A' for Active; 'I' for Inactive)
REMARK    1  A    between atoms: O_5  and  C_11 
REMARK    2  A    between atoms: C_11  and  O_20 
REMARK    3  A    between atoms: C_25  and  O_26 
ROOT
HETATM    1  C   UNL     1     142.624 -25.360  71.316  1.00  0.00    -0.000 A 
HETATM    2  C   UNL     1     142.541 -23.246  69.534  1.00  0.00    -0.038 C 
HETATM    3  C   UNL     1     143.491 -26.871  75.196  1.00  0.00     0.016 C 
HETATM    4  C   UNL     1     143.895 -25.461  73.194  1.00  0.00     0.021 A 
HETATM    5  N   UNL     1     144.533 -24.643  72.312  1.00  0.00    -0.358 N 
ATOM      6  HN  UNL     1     145.447 -24.214  72.462  1.00  0.00     0.166 HD
HETATM    7  C   UNL     1     144.177 -25.607  74.656  1.00  0.00     0.039 C 
HETATM    8  C   UNL     1     142.723 -25.970  72.627  1.00  0.00    -0.022 A 
HETATM    9  C   UNL     1     143.971 -21.350  69.149  1.00  0.00     0.167 C 
HETATM   10  C   UNL     1     141.403 -25.430  75.399  1.00  0.00     0.036 C 
HETATM   11  C   UNL     1     142.603 -21.947  68.772  1.00  0.00     0.108 C 
HETATM   12  C   UNL     1     143.723 -24.377  75.432  1.00  0.00     0.042 C 
HETATM   13  C   UNL     1     140.317 -24.008  68.640  1.00  0.00     0.049 C 
HETATM   14  C   UNL     1     141.607 -25.319  70.361  1.00  0.00     0.021 C 
HETATM   15  C   UNL     1     143.759 -24.485  71.187  1.00  0.00     0.050 A 
HETATM   16  C   UNL     1     141.752 -26.839  73.367  1.00  0.00     0.046 C 
HETATM   17  C   UNL     1     141.511 -24.198  69.538  1.00  0.00    -0.054 C 
HETATM   18  C   UNL     1     144.773 -22.465  69.845  1.00  0.00     0.110 C 
HETATM   19  C   UNL     1     143.735 -23.484  70.215  1.00  0.00    -0.018 C 
HETATM   20  C   UNL     1     141.983 -26.774  74.885  1.00  0.00    -0.007 C 
HETATM   21  C   UNL     1     142.420 -24.618  76.185  1.00  0.00     0.119 C 
ENDROOT
BRANCH   9  22
HETATM   22  O   UNL     1     143.899 -20.245  69.984  1.00  0.00    -0.365 OA
ATOM     23  HO  UNL     1     143.056 -20.130  70.405  1.00  0.00     0.213 HD
ENDBRANCH   9  22
BRANCH   9  24
HETATM   24  O   UNL     1     144.582 -20.828  68.016  1.00  0.00    -0.365 OA
ATOM     25  HO  UNL     1     145.504 -20.879  68.241  1.00  0.00     0.213 HD
ENDBRANCH   9  24
BRANCH  21  26
HETATM   26  O   UNL     1     141.912 -23.400  76.684  1.00  0.00    -0.396 OA
ATOM     27  HO  UNL     1     141.624 -23.447  77.587  1.00  0.00     0.210 HD
ENDBRANCH  21  26
TORSDOF 3
ENDMDL
