MODEL 1
REMARK VINA RESULT:     -10.7      0.000      0.000
REMARK  1 active torsions:
REMARK  status: ('A' for Active; 'I' for Inactive)
REMARK    1  A    between atoms: O_1  and  C_19 
ROOT
HETATM    1  C   UNL     1      20.014   5.729   1.030  1.00  0.00    -0.014 C 
HETATM    2  C   UNL     1      21.409   5.971   0.765  1.00  0.00    -0.037 C 
HETATM    3  C   UNL     1      22.582   5.594  -1.536  1.00  0.00     0.015 C 
HETATM    4  C   UNL     1      23.659   9.368   4.108  1.00  0.00     0.027 C 
HETATM    5  C   UNL     1      20.806  10.163   3.729  1.00  0.00     0.090 C 
HETATM    6  C   UNL     1      24.780   9.543  -0.446  1.00  0.00     0.004 C 
HETATM    7  C   UNL     1      21.824   6.485  -0.571  1.00  0.00     0.049 C 
HETATM    8  C   UNL     1      22.102   6.094   1.997  1.00  0.00     0.039 C 
HETATM    9  C   UNL     1      22.976   8.365   4.784  1.00  0.00     0.031 C 
HETATM   10  C   UNL     1      19.831   5.728   2.455  1.00  0.00     0.023 C 
HETATM   11  C   UNL     1      22.668   7.700  -0.479  1.00  0.00    -0.063 C 
HETATM   12  N   UNL     1      21.311   6.648   4.279  1.00  0.00    -0.355 N 
ATOM     13  HN  UNL     1      21.216   6.034   5.087  1.00  0.00     0.166 HD
HETATM   14  C   UNL     1      23.445   6.556  -2.367  1.00  0.00     0.014 C 
HETATM   15  C   UNL     1      23.318   7.972  -1.779  1.00  0.00     0.038 C 
HETATM   16  C   UNL     1      18.592   5.385   3.001  1.00  0.00     0.153 C 
HETATM   17  C   UNL     1      17.804   4.905   0.747  1.00  0.00     0.287 C 
HETATM   18  C   UNL     1      24.028  10.407   1.845  1.00  0.00     0.095 C 
HETATM   19  N   UNL     1      21.852  10.512   2.949  1.00  0.00    -0.369 N 
ATOM     20  HN  UNL     1      21.647  11.185   2.211  1.00  0.00     0.165 HD
HETATM   21  C   UNL     1      24.611   8.707  -1.581  1.00  0.00    -0.017 C 
HETATM   22  C   UNL     1      21.631   7.990   4.494  1.00  0.00     0.033 C 
HETATM   23  C   UNL     1      18.957   5.424   0.153  1.00  0.00     0.046 C 
HETATM   24  O   UNL     1      17.603   4.948   2.150  1.00  0.00    -0.328 OA
HETATM   25  C   UNL     1      20.600   8.961   4.384  1.00  0.00     0.046 C 
HETATM   26  C   UNL     1      22.855   8.533   0.610  1.00  0.00     0.011 C 
HETATM   27  C   UNL     1      23.132  10.090   3.015  1.00  0.00     0.013 C 
HETATM   28  C   UNL     1      21.119   6.117   3.019  1.00  0.00     0.046 C 
HETATM   29  C   UNL     1      23.889   9.489   0.649  1.00  0.00    -0.053 C 
ENDROOT
BRANCH  17  30
HETATM   30  O   UNL     1      17.528   3.688   0.330  1.00  0.00    -0.367 OA
ATOM     31  HO  UNL     1      17.874   3.515  -0.539  1.00  0.00     0.213 HD
ENDBRANCH  17  30
TORSDOF 1
ENDMDL
MODEL 2
REMARK VINA RESULT:      -9.3      3.174      5.604
REMARK  1 active torsions:
REMARK  status: ('A' for Active; 'I' for Inactive)
REMARK    1  A    between atoms: O_1  and  C_19 
ROOT
HETATM    1  C   UNL     1      24.804   8.561   0.579  1.00  0.00    -0.014 C 
HETATM    2  C   UNL     1      23.429   8.292   0.245  1.00  0.00    -0.037 C 
HETATM    3  C   UNL     1      22.638   6.762  -1.717  1.00  0.00     0.015 C 
HETATM    4  C   UNL     1      20.074   9.043   4.239  1.00  0.00     0.027 C 
HETATM    5  C   UNL     1      22.672   8.083   5.355  1.00  0.00     0.090 C 
HETATM    6  C   UNL     1      19.442   5.387   1.366  1.00  0.00     0.004 C 
HETATM    7  C   UNL     1      23.048   6.945  -0.269  1.00  0.00     0.049 C 
HETATM    8  C   UNL     1      22.598   9.240   0.894  1.00  0.00     0.039 C 
HETATM    9  C   UNL     1      20.903  10.143   4.057  1.00  0.00     0.031 C 
HETATM   10  C   UNL     1      24.826   9.683   1.476  1.00  0.00     0.023 C 
HETATM   11  C   UNL     1      21.930   6.338   0.491  1.00  0.00    -0.063 C 
HETATM   12  N   UNL     1      22.979  10.672   2.881  1.00  0.00    -0.355 N 
ATOM     13  HN  UNL     1      23.133  11.679   2.921  1.00  0.00     0.166 HD
HETATM   14  C   UNL     1      21.662   5.576  -1.705  1.00  0.00     0.014 C 
HETATM   15  C   UNL     1      21.377   5.182  -0.246  1.00  0.00     0.038 C 
HETATM   16  C   UNL     1      26.046  10.246   1.861  1.00  0.00     0.153 C 
HETATM   17  C   UNL     1      27.166   8.693   0.355  1.00  0.00     0.287 C 
HETATM   18  C   UNL     1      19.710   6.640   3.584  1.00  0.00     0.095 C 
HETATM   19  N   UNL     1      21.663   7.318   4.884  1.00  0.00    -0.369 N 
ATOM     20  HN  UNL     1      21.776   6.312   5.008  1.00  0.00     0.165 HD
HETATM   21  C   UNL     1      19.931   4.977   0.098  1.00  0.00    -0.017 C 
HETATM   22  C   UNL     1      22.322  10.053   3.947  1.00  0.00     0.033 C 
HETATM   23  C   UNL     1      25.991   7.980   0.097  1.00  0.00     0.046 C 
HETATM   24  O   UNL     1      27.197   9.770   1.277  1.00  0.00    -0.328 OA
HETATM   25  C   UNL     1      23.091   9.315   4.885  1.00  0.00     0.046 C 
HETATM   26  C   UNL     1      21.429   6.714   1.726  1.00  0.00     0.011 C 
HETATM   27  C   UNL     1      20.524   7.705   4.272  1.00  0.00     0.013 C 
HETATM   28  C   UNL     1      23.430   9.978   1.775  1.00  0.00     0.046 C 
HETATM   29  C   UNL     1      20.196   6.233   2.208  1.00  0.00    -0.053 C 
ENDROOT
BRANCH  17  30
HETATM   30  O   UNL     1      27.772   9.078  -0.747  1.00  0.00    -0.367 OA
ATOM     31  HO  UNL     1      28.244   8.368  -1.168  1.00  0.00     0.213 HD
ENDBRANCH  17  30
TORSDOF 1
ENDMDL
MODEL 3
REMARK VINA RESULT:      -9.0      2.615      5.330
REMARK  1 active torsions:
REMARK  status: ('A' for Active; 'I' for Inactive)
REMARK    1  A    between atoms: O_1  and  C_19 
ROOT
HETATM    1  C   UNL     1      22.364   5.866  -1.902  1.00  0.00    -0.014 C 
HETATM    2  C   UNL     1      21.366   6.301  -0.959  1.00  0.00    -0.037 C 
HETATM    3  C   UNL     1      19.104   5.078  -0.506  1.00  0.00     0.015 C 
HETATM    4  C   UNL     1      23.239   9.426   2.848  1.00  0.00     0.027 C 
HETATM    5  C   UNL     1      25.369   7.475   2.093  1.00  0.00     0.090 C 
HETATM    6  C   UNL     1      20.020   6.182   3.916  1.00  0.00     0.004 C 
HETATM    7  C   UNL     1      20.576   5.284  -0.205  1.00  0.00     0.049 C 
HETATM    8  C   UNL     1      21.627   7.645  -0.590  1.00  0.00     0.039 C 
HETATM    9  C   UNL     1      23.621   9.872   1.589  1.00  0.00     0.031 C 
HETATM   10  C   UNL     1      23.281   6.954  -2.103  1.00  0.00     0.023 C 
HETATM   11  C   UNL     1      20.607   5.507   1.259  1.00  0.00    -0.063 C 
HETATM   12  N   UNL     1      23.695   9.006  -0.695  1.00  0.00    -0.355 N 
ATOM     13  HN  UNL     1      23.924   9.770  -1.329  1.00  0.00     0.166 HD
HETATM   14  C   UNL     1      18.493   4.605   0.822  1.00  0.00     0.014 C 
HETATM   15  C   UNL     1      19.563   4.698   1.923  1.00  0.00     0.038 C 
HETATM   16  C   UNL     1      24.281   6.855  -3.074  1.00  0.00     0.153 C 
HETATM   17  C   UNL     1      23.353   4.698  -3.719  1.00  0.00     0.287 C 
HETATM   18  C   UNL     1      22.211   7.497   4.097  1.00  0.00     0.095 C 
HETATM   19  N   UNL     1      24.375   7.280   2.987  1.00  0.00    -0.369 N 
ATOM     20  HN  UNL     1      24.420   6.408   3.513  1.00  0.00     0.165 HD
HETATM   21  C   UNL     1      19.120   5.349   3.200  1.00  0.00    -0.017 C 
HETATM   22  C   UNL     1      24.216   9.034   0.601  1.00  0.00     0.033 C 
HETATM   23  C   UNL     1      22.467   4.672  -2.639  1.00  0.00     0.046 C 
HETATM   24  O   UNL     1      24.290   5.749  -3.890  1.00  0.00    -0.328 OA
HETATM   25  C   UNL     1      25.317   8.193   0.911  1.00  0.00     0.046 C 
HETATM   26  C   UNL     1      21.468   6.312   1.986  1.00  0.00     0.011 C 
HETATM   27  C   UNL     1      23.332   8.084   3.278  1.00  0.00     0.013 C 
HETATM   28  C   UNL     1      22.884   7.987  -1.152  1.00  0.00     0.046 C 
HETATM   29  C   UNL     1      21.218   6.648   3.331  1.00  0.00    -0.053 C 
ENDROOT
BRANCH  17  30
HETATM   30  O   UNL     1      22.748   4.495  -4.870  1.00  0.00    -0.367 OA
ATOM     31  HO  UNL     1      21.999   5.067  -4.991  1.00  0.00     0.213 HD
ENDBRANCH  17  30
TORSDOF 1
ENDMDL
MODEL 4
REMARK VINA RESULT:      -9.0      2.615      5.068
REMARK  1 active torsions:
REMARK  status: ('A' for Active; 'I' for Inactive)
REMARK    1  A    between atoms: O_1  and  C_19 
ROOT
HETATM    1  C   UNL     1      22.099   7.812   2.869  1.00  0.00    -0.014 C 
HETATM    2  C   UNL     1      22.282   6.737   1.928  1.00  0.00    -0.037 C 
HETATM    3  C   UNL     1      20.435   5.030   1.230  1.00  0.00     0.015 C 
HETATM    4  C   UNL     1      26.283   7.486  -1.418  1.00  0.00     0.027 C 
HETATM    5  C   UNL     1      25.085  10.142  -0.769  1.00  0.00     0.090 C 
HETATM    6  C   UNL     1      22.299   5.570  -2.994  1.00  0.00     0.004 C 
HETATM    7  C   UNL     1      21.157   6.347   1.030  1.00  0.00     0.049 C 
HETATM    8  C   UNL     1      23.670   6.531   1.721  1.00  0.00     0.039 C 
HETATM    9  C   UNL     1      26.679   7.679  -0.101  1.00  0.00     0.031 C 
HETATM   10  C   UNL     1      23.399   8.303   3.233  1.00  0.00     0.023 C 
HETATM   11  C   UNL     1      21.550   6.319  -0.399  1.00  0.00    -0.063 C 
HETATM   12  N   UNL     1      25.623   8.015   2.077  1.00  0.00    -0.355 N 
ATOM     13  HN  UNL     1      26.338   7.964   2.802  1.00  0.00     0.166 HD
HETATM   14  C   UNL     1      19.946   4.631  -0.171  1.00  0.00     0.014 C 
HETATM   15  C   UNL     1      20.523   5.619  -1.199  1.00  0.00     0.038 C 
HETATM   16  C   UNL     1      23.526   9.266   4.238  1.00  0.00     0.153 C 
HETATM   17  C   UNL     1      21.122   9.117   4.598  1.00  0.00     0.287 C 
HETATM   18  C   UNL     1      24.284   7.188  -2.919  1.00  0.00     0.095 C 
HETATM   19  N   UNL     1      24.676   9.284  -1.729  1.00  0.00    -0.369 N 
ATOM     20  HN  UNL     1      23.938   9.628  -2.342  1.00  0.00     0.165 HD
HETATM   21  C   UNL     1      21.135   4.997  -2.420  1.00  0.00    -0.017 C 
HETATM   22  C   UNL     1      25.978   8.511   0.821  1.00  0.00     0.033 C 
HETATM   23  C   UNL     1      20.929   8.304   3.477  1.00  0.00     0.046 C 
HETATM   24  O   UNL     1      22.398   9.640   4.930  1.00  0.00    -0.328 OA
HETATM   25  C   UNL     1      25.597   9.836   0.480  1.00  0.00     0.046 C 
HETATM   26  C   UNL     1      22.677   6.865  -0.989  1.00  0.00     0.011 C 
HETATM   27  C   UNL     1      25.112   8.033  -1.985  1.00  0.00     0.013 C 
HETATM   28  C   UNL     1      24.344   7.591   2.380  1.00  0.00     0.046 C 
HETATM   29  C   UNL     1      23.067   6.532  -2.301  1.00  0.00    -0.053 C 
ENDROOT
BRANCH  17  30
HETATM   30  O   UNL     1      20.593   8.602   5.687  1.00  0.00    -0.367 OA
ATOM     31  HO  UNL     1      20.271   7.718   5.552  1.00  0.00     0.213 HD
ENDBRANCH  17  30
TORSDOF 1
ENDMDL
MODEL 5
REMARK VINA RESULT:      -8.6      1.828      3.067
REMARK  1 active torsions:
REMARK  status: ('A' for Active; 'I' for Inactive)
REMARK    1  A    between atoms: O_1  and  C_19 
ROOT
HETATM    1  C   UNL     1      22.541   6.835   0.644  1.00  0.00    -0.014 C 
HETATM    2  C   UNL     1      23.720   7.326   1.312  1.00  0.00    -0.037 C 
HETATM    3  C   UNL     1      25.970   7.923   0.130  1.00  0.00     0.015 C 
HETATM    4  C   UNL     1      22.748   9.598   5.966  1.00  0.00     0.027 C 
HETATM    5  C   UNL     1      20.428  10.115   4.159  1.00  0.00     0.090 C 
HETATM    6  C   UNL     1      25.964  11.485   3.116  1.00  0.00     0.004 C 
HETATM    7  C   UNL     1      24.593   8.321   0.625  1.00  0.00     0.049 C 
HETATM    8  C   UNL     1      23.594   7.098   2.706  1.00  0.00     0.039 C 
HETATM    9  C   UNL     1      22.152   8.346   5.877  1.00  0.00     0.031 C 
HETATM   10  C   UNL     1      21.653   6.316   1.647  1.00  0.00     0.023 C 
HETATM   11  C   UNL     1      24.851   9.523   1.452  1.00  0.00    -0.063 C 
HETATM   12  N   UNL     1      21.606   6.720   4.137  1.00  0.00    -0.355 N 
ATOM     13  HN  UNL     1      21.294   5.856   4.579  1.00  0.00     0.166 HD
HETATM   14  C   UNL     1      26.801   9.213   0.196  1.00  0.00     0.014 C 
HETATM   15  C   UNL     1      25.966  10.308   0.881  1.00  0.00     0.038 C 
HETATM   16  C   UNL     1      20.483   5.654   1.268  1.00  0.00     0.153 C 
HETATM   17  C   UNL     1      21.174   5.894  -1.055  1.00  0.00     0.287 C 
HETATM   18  C   UNL     1      23.908  11.398   4.642  1.00  0.00     0.095 C 
HETATM   19  N   UNL     1      21.564  10.841   4.242  1.00  0.00    -0.369 N 
ATOM     20  HN  UNL     1      21.582  11.697   3.690  1.00  0.00     0.165 HD
HETATM   21  C   UNL     1      26.672  11.083   1.954  1.00  0.00    -0.017 C 
HETATM   22  C   UNL     1      21.344   7.932   4.779  1.00  0.00     0.033 C 
HETATM   23  C   UNL     1      22.248   6.726  -0.728  1.00  0.00     0.046 C 
HETATM   24  O   UNL     1      20.269   5.421  -0.071  1.00  0.00    -0.328 OA
HETATM   25  C   UNL     1      20.285   8.745   4.292  1.00  0.00     0.046 C 
HETATM   26  C   UNL     1      24.181   9.941   2.589  1.00  0.00     0.011 C 
HETATM   27  C   UNL     1      22.679  10.585   4.958  1.00  0.00     0.013 C 
HETATM   28  C   UNL     1      22.269   6.641   2.928  1.00  0.00     0.046 C 
HETATM   29  C   UNL     1      24.698  10.944   3.433  1.00  0.00    -0.053 C 
ENDROOT
BRANCH  17  30
HETATM   30  O   UNL     1      21.539   4.874  -1.802  1.00  0.00    -0.367 OA
ATOM     31  HO  UNL     1      21.062   4.080  -1.589  1.00  0.00     0.213 HD
ENDBRANCH  17  30
TORSDOF 1
ENDMDL
MODEL 6
REMARK VINA RESULT:      -8.2      3.370      6.516
REMARK  1 active torsions:
REMARK  status: ('A' for Active; 'I' for Inactive)
REMARK    1  A    between atoms: O_1  and  C_19 
ROOT
HETATM    1  C   UNL     1      23.144   8.924   1.525  1.00  0.00    -0.014 C 
HETATM    2  C   UNL     1      22.940   7.565   1.094  1.00  0.00    -0.037 C 
HETATM    3  C   UNL     1      21.104   5.960   2.024  1.00  0.00     0.015 C 
HETATM    4  C   UNL     1      24.855   6.537  -3.707  1.00  0.00     0.027 C 
HETATM    5  C   UNL     1      23.918   9.371  -3.650  1.00  0.00     0.090 C 
HETATM    6  C   UNL     1      20.739   4.679  -2.429  1.00  0.00     0.004 C 
HETATM    7  C   UNL     1      21.556   7.013   1.032  1.00  0.00     0.049 C 
HETATM    8  C   UNL     1      24.082   7.129   0.373  1.00  0.00     0.039 C 
HETATM    9  C   UNL     1      25.805   7.151  -2.901  1.00  0.00     0.031 C 
HETATM   10  C   UNL     1      24.427   9.352   1.038  1.00  0.00     0.023 C 
HETATM   11  C   UNL     1      21.238   6.415  -0.286  1.00  0.00    -0.063 C 
HETATM   12  N   UNL     1      25.867   8.389  -0.795  1.00  0.00    -0.355 N 
ATOM     13  HN  UNL     1      26.840   8.521  -0.519  1.00  0.00     0.166 HD
HETATM   14  C   UNL     1      20.046   5.137   1.272  1.00  0.00     0.014 C 
HETATM   15  C   UNL     1      20.007   5.601  -0.194  1.00  0.00     0.038 C 
HETATM   16  C   UNL     1      24.941  10.593   1.422  1.00  0.00     0.153 C 
HETATM   17  C   UNL     1      23.000  10.881   2.864  1.00  0.00     0.287 C 
HETATM   18  C   UNL     1      22.412   5.955  -3.890  1.00  0.00     0.095 C 
HETATM   19  N   UNL     1      23.168   8.278  -3.909  1.00  0.00    -0.369 N 
ATOM     20  HN  UNL     1      22.207   8.459  -4.197  1.00  0.00     0.165 HD
HETATM   21  C   UNL     1      20.019   4.504  -1.218  1.00  0.00    -0.017 C 
HETATM   22  C   UNL     1      25.560   8.341  -2.157  1.00  0.00     0.033 C 
HETATM   23  C   UNL     1      22.363   9.744   2.360  1.00  0.00     0.046 C 
HETATM   24  O   UNL     1      24.244  11.329   2.350  1.00  0.00    -0.328 OA
HETATM   25  C   UNL     1      24.973   9.485  -2.763  1.00  0.00     0.046 C 
HETATM   26  C   UNL     1      21.918   6.563  -1.481  1.00  0.00     0.011 C 
HETATM   27  C   UNL     1      23.519   6.977  -3.838  1.00  0.00     0.013 C 
HETATM   28  C   UNL     1      24.910   8.266   0.193  1.00  0.00     0.046 C 
HETATM   29  C   UNL     1      21.673   5.727  -2.588  1.00  0.00    -0.053 C 
ENDROOT
BRANCH  17  30
HETATM   30  O   UNL     1      23.077  10.872   4.178  1.00  0.00    -0.367 OA
ATOM     31  HO  UNL     1      22.224  10.944   4.592  1.00  0.00     0.213 HD
ENDBRANCH  17  30
TORSDOF 1
ENDMDL
MODEL 7
REMARK VINA RESULT:      -7.9      3.804      6.382
REMARK  1 active torsions:
REMARK  status: ('A' for Active; 'I' for Inactive)
REMARK    1  A    between atoms: O_1  and  C_19 
ROOT
HETATM    1  C   UNL     1      25.385   7.471  -2.587  1.00  0.00    -0.014 C 
HETATM    2  C   UNL     1      23.949   7.398  -2.673  1.00  0.00    -0.037 C 
HETATM    3  C   UNL     1      22.619   6.389  -4.679  1.00  0.00     0.015 C 
HETATM    4  C   UNL     1      21.520   7.582   2.000  1.00  0.00     0.027 C 
HETATM    5  C   UNL     1      24.136   6.188   2.350  1.00  0.00     0.090 C 
HETATM    6  C   UNL     1      19.905   4.679  -1.315  1.00  0.00     0.004 C 
HETATM    7  C   UNL     1      23.311   6.227  -3.340  1.00  0.00     0.049 C 
HETATM    8  C   UNL     1      23.381   8.258  -1.698  1.00  0.00     0.039 C 
HETATM    9  C   UNL     1      22.433   8.620   1.860  1.00  0.00     0.031 C 
HETATM   10  C   UNL     1      25.716   8.373  -1.519  1.00  0.00     0.023 C 
HETATM   11  C   UNL     1      22.286   5.574  -2.492  1.00  0.00    -0.063 C 
HETATM   12  N   UNL     1      24.304   9.202   0.399  1.00  0.00    -0.355 N 
ATOM     13  HN  UNL     1      24.589  10.161   0.595  1.00  0.00     0.166 HD
HETATM   14  C   UNL     1      21.520   5.316  -4.688  1.00  0.00     0.014 C 
HETATM   15  C   UNL     1      21.464   4.651  -3.302  1.00  0.00     0.038 C 
HETATM   16  C   UNL     1      27.048   8.735  -1.298  1.00  0.00     0.153 C 
HETATM   17  C   UNL     1      27.661   7.442  -3.269  1.00  0.00     0.287 C 
HETATM   18  C   UNL     1      20.738   5.411   0.994  1.00  0.00     0.095 C 
HETATM   19  N   UNL     1      22.968   5.629   1.964  1.00  0.00    -0.369 N 
ATOM     20  HN  UNL     1      22.975   4.614   1.870  1.00  0.00     0.165 HD
HETATM   21  C   UNL     1      20.093   4.504  -2.711  1.00  0.00    -0.017 C 
HETATM   22  C   UNL     1      23.783   8.433   1.443  1.00  0.00     0.033 C 
HETATM   23  C   UNL     1      26.378   6.904  -3.407  1.00  0.00     0.046 C 
HETATM   24  O   UNL     1      28.000   8.295  -2.187  1.00  0.00    -0.328 OA
HETATM   25  C   UNL     1      24.614   7.450   2.044  1.00  0.00     0.046 C 
HETATM   26  C   UNL     1      22.076   5.724  -1.133  1.00  0.00     0.011 C 
HETATM   27  C   UNL     1      21.795   6.233   1.687  1.00  0.00     0.013 C 
HETATM   28  C   UNL     1      24.449   8.719  -0.886  1.00  0.00     0.046 C 
HETATM   29  C   UNL     1      20.904   5.262  -0.503  1.00  0.00    -0.053 C 
ENDROOT
BRANCH  17  30
HETATM   30  O   UNL     1      28.095   7.996  -4.380  1.00  0.00    -0.367 OA
ATOM     31  HO  UNL     1      27.702   8.846  -4.539  1.00  0.00     0.213 HD
ENDBRANCH  17  30
TORSDOF 1
ENDMDL
