REMARK  1 active torsions:
REMARK  status: ('A' for Active; 'I' for Inactive)
REMARK    1  A    between atoms: O_20  and  C_24 
ROOT
HETATM    1  C   UNL     1      23.115   4.979  -4.899  1.00  0.00    -0.018 C 
HETATM    2  C   UNL     1      17.492   4.735   0.990  1.00  0.00     0.001 C 
HETATM    3  C   UNL     1      22.270   5.063  -2.508  1.00  0.00     0.013 C 
HETATM    4  C   UNL     1      19.799   5.433   0.511  1.00  0.00    -0.017 C 
HETATM    5  C   UNL     1      21.492   6.944   3.633  1.00  0.00     0.004 C 
HETATM    6  C   UNL     1      24.295   6.294  -2.911  1.00  0.00     0.026 C 
HETATM    7  C   UNL     1      19.937   5.896   1.911  1.00  0.00    -0.013 C 
HETATM    8  O   UNL     1      20.895   8.440   5.308  1.00  0.00    -0.283 OA
HETATM    9  C   UNL     1      24.270   5.821  -4.359  1.00  0.00     0.006 C 
HETATM   10  C   UNL     1      21.967   7.187   1.211  1.00  0.00     0.005 C 
HETATM   11  N   UNL     1      22.992   6.811  -0.954  1.00  0.00    -0.384 N 
ATOM     12  HN  UNL     1      23.849   7.243  -0.607  1.00  0.00     0.160 HD
HETATM   13  C   UNL     1      21.431   8.303   4.187  1.00  0.00     0.231 C 
HETATM   14  C   UNL     1      20.980   4.857  -1.708  1.00  0.00     0.048 C 
HETATM   15  C   UNL     1      21.912   4.837  -3.983  1.00  0.00     0.011 C 
HETATM   16  C   UNL     1      22.846   8.298   1.376  1.00  0.00     0.055 C 
HETATM   17  C   UNL     1      17.647   5.102   2.335  1.00  0.00     0.001 C 
HETATM   18  C   UNL     1      22.637   5.559  -6.221  1.00  0.00     0.010 C 
HETATM   19  C   UNL     1      18.531   4.971   0.070  1.00  0.00     0.013 C 
HETATM   20  C   UNL     1      20.912   5.609  -0.393  1.00  0.00    -0.019 C 
HETATM   21  C   UNL     1      22.851   6.484  -2.381  1.00  0.00     0.086 C 
HETATM   22  C   UNL     1      23.031   9.182   2.420  1.00  0.00     0.120 C 
HETATM   23  C   UNL     1      18.880   5.600   2.805  1.00  0.00     0.013 C 
HETATM   24  C   UNL     1      21.110   6.694   2.252  1.00  0.00    -0.003 C 
HETATM   25  C   UNL     1      21.949   6.527  -0.084  1.00  0.00     0.046 C 
HETATM   26  C   UNL     1      22.241   5.925   4.445  1.00  0.00     0.053 C 
HETATM   27  C   UNL     1      22.115   9.410   3.526  1.00  0.00     0.255 C 
HETATM   28  O   UNL     1      21.925  10.618   3.925  1.00  0.00    -0.281 OA
ENDROOT
BRANCH  22  29
HETATM   29  O   UNL     1      24.147   9.936   2.435  1.00  0.00    -0.357 OA
ATOM     30  HO  UNL     1      24.274  10.544   3.153  1.00  0.00     0.218 HD
ENDBRANCH  22  29
TORSDOF 1
