REMARK  3 active torsions:
REMARK  status: ('A' for Active; 'I' for Inactive)
REMARK    1  A    between atoms: C_4  and  C_16 
REMARK    2  A    between atoms: O_7  and  C_20 
REMARK    3  A    between atoms: C_15  and  O_17 
ROOT
HETATM    1  C   UNL     1     -22.420   1.316 -10.600  1.00  0.00     0.037 C 
HETATM    2  C   UNL     1     -21.937  -0.738  -6.372  1.00  0.00     0.013 C 
HETATM    3  C   UNL     1     -21.804   0.570  -5.887  1.00  0.00    -0.025 C 
HETATM    4  C   UNL     1     -21.808   0.153  -8.587  1.00  0.00    -0.026 C 
HETATM    5  C   UNL     1     -22.314   0.131  -9.884  1.00  0.00     0.015 C 
HETATM    6  C   UNL     1     -21.186   1.505  -6.698  1.00  0.00     0.024 C 
HETATM    7  C   UNL     1     -21.246   1.345  -8.085  1.00  0.00    -0.022 C 
HETATM    8  C   UNL     1     -21.917  -0.954  -7.747  1.00  0.00     0.013 C 
HETATM    9  C   UNL     1     -21.088   2.433  -8.935  1.00  0.00     0.048 C 
HETATM   10  C   UNL     1     -21.928   2.500 -10.037  1.00  0.00     0.066 C 
ENDROOT
BRANCH   3  11
HETATM   11  C   UNL     1     -22.496   0.926  -4.736  1.00  0.00    -0.026 C 
HETATM   12  C   UNL     1     -23.073   2.183  -4.603  1.00  0.00     0.015 C 
HETATM   13  C   UNL     1     -23.857   2.491  -3.498  1.00  0.00     0.037 C 
HETATM   14  C   UNL     1     -23.983   1.575  -2.465  1.00  0.00     0.065 C 
HETATM   15  C   UNL     1     -23.476   0.291  -2.620  1.00  0.00     0.037 C 
HETATM   16  C   UNL     1     -22.674   0.005  -3.714  1.00  0.00     0.015 C 
BRANCH  14  17
HETATM   17  O   UNL     1     -24.213   2.033  -1.196  1.00  0.00    -0.361 OA
ATOM     18  HO  UNL     1     -24.299   1.405  -0.488  1.00  0.00     0.217 HD
ENDBRANCH  14  17
ENDBRANCH   3  11
BRANCH  10  19
HETATM   19  O   UNL     1     -22.444   3.684 -10.440  1.00  0.00    -0.361 OA
ATOM     20  HO  UNL     1     -22.110   4.487 -10.058  1.00  0.00     0.217 HD
ENDBRANCH  10  19
TORSDOF 3
