REMARK  3 active torsions:
REMARK  status: ('A' for Active; 'I' for Inactive)
REMARK    1  A    between atoms: O_1  and  C_14 
REMARK    2  A    between atoms: O_3  and  C_20 
REMARK    3  A    between atoms: O_16  and  C_20 
ROOT
HETATM    1  C   UNL     1     -12.484  -0.491  14.232  1.00  0.00     0.049 C 
HETATM    2  C   UNL     1      -7.687   1.841  15.147  1.00  0.00     0.244 C 
HETATM    3  C   UNL     1      -9.989   2.066  15.760  1.00  0.00     0.205 C 
HETATM    4  N   UNL     1     -13.141   1.472  16.506  1.00  0.00    -0.067 N 
ATOM      5  HN1 UNL     1     -12.464   1.141  17.193  1.00  0.00     0.278 HD
ATOM      6  HN2 UNL     1     -13.649   2.116  17.113  1.00  0.00     0.278 HD
HETATM    7  C   UNL     1     -10.033  -0.284  13.666  1.00  0.00     0.213 C 
HETATM    8  O   UNL     1      -8.963   2.389  14.812  1.00  0.00    -0.381 OA
HETATM    9  C   UNL     1     -11.192   0.267  14.374  1.00  0.00     0.002 C 
HETATM   10  C   UNL     1      -8.633  -0.404  14.257  1.00  0.00     0.158 C 
HETATM   11  C   UNL     1     -13.991   0.396  15.986  1.00  0.00     0.238 C 
HETATM   12  C   UNL     1     -12.503   2.153  15.358  1.00  0.00     0.218 C 
HETATM   13  C   UNL     1     -13.738   0.367  14.487  1.00  0.00     0.018 C 
HETATM   14  C   UNL     1      -7.632   0.316  15.209  1.00  0.00     0.236 C 
HETATM   15  C   UNL     1     -13.425   1.827  14.168  1.00  0.00     0.044 C 
HETATM   16  O   UNL     1     -10.188  -0.669  12.516  1.00  0.00    -0.285 OA
HETATM   17  C   UNL     1     -11.178   1.487  15.032  1.00  0.00    -0.016 C 
ENDROOT
BRANCH  14  18
HETATM   18  O   UNL     1      -7.821  -0.122  16.533  1.00  0.00    -0.358 OA
ATOM     19  HO  UNL     1      -7.787  -1.071  16.572  1.00  0.00     0.213 HD
ENDBRANCH  14  18
BRANCH  14  20
HETATM   20  O   UNL     1      -6.331  -0.142  14.900  1.00  0.00    -0.358 OA
ATOM     21  HO  UNL     1      -6.203   0.154  14.006  1.00  0.00     0.213 HD
ENDBRANCH  14  20
BRANCH  10  22
HETATM   22  O   UNL     1      -8.213  -1.738  14.074  1.00  0.00    -0.356 OA
ATOM     23  HO  UNL     1      -7.341  -1.813  14.442  1.00  0.00     0.217 HD
ENDBRANCH  10  22
TORSDOF 3
