MODEL 1
REMARK VINA RESULT:      -4.7      0.000      0.000
REMARK  1 active torsions:
REMARK  status: ('A' for Active; 'I' for Inactive)
REMARK       I    between atoms: C_1  and  N_6 
REMARK    1  A    between atoms: C_5  and  N_6 
REMARK       I    between atoms: N_6  and  C_9 
ROOT
HETATM    1  C   UNL     1      74.091  43.672  26.181  1.00  0.00     0.301 C 
HETATM    2  O   UNL     1      73.714  40.899  28.265  1.00  0.00    -0.629 OA
HETATM    3  O   UNL     1      75.051  44.378  26.506  1.00  0.00    -0.629 OA
HETATM    4  N   UNL     1      73.449  42.875  27.160  1.00  0.00    -0.175 N 
HETATM    5  O   UNL     1      73.657  43.589  25.002  1.00  0.00    -0.629 OA
HETATM    6  O   UNL     1      75.394  42.307  28.232  1.00  0.00    -0.629 OA
HETATM    7  C   UNL     1      74.239  41.970  27.907  1.00  0.00     0.301 C 
ENDROOT
BRANCH   4   8
HETATM    8  C   UNL     1      72.058  42.572  26.971  1.00  0.00     0.370 C 
HETATM    9  O   UNL     1      71.159  43.018  27.495  1.00  0.00    -0.282 OA
ENDBRANCH   4   8
TORSDOF 1
ENDMDL
MODEL 2
REMARK VINA RESULT:      -4.7      1.411      3.130
REMARK  1 active torsions:
REMARK  status: ('A' for Active; 'I' for Inactive)
REMARK       I    between atoms: C_1  and  N_6 
REMARK    1  A    between atoms: C_5  and  N_6 
REMARK       I    between atoms: N_6  and  C_9 
ROOT
HETATM    1  C   UNL     1      74.325  42.562  27.947  1.00  0.00     0.301 C 
HETATM    2  O   UNL     1      75.768  45.485  26.703  1.00  0.00    -0.629 OA
HETATM    3  O   UNL     1      75.159  41.802  28.449  1.00  0.00    -0.629 OA
HETATM    4  N   UNL     1      74.729  43.470  26.938  1.00  0.00    -0.175 N 
HETATM    5  O   UNL     1      73.118  42.604  28.305  1.00  0.00    -0.629 OA
HETATM    6  O   UNL     1      76.745  43.945  27.920  1.00  0.00    -0.629 OA
HETATM    7  C   UNL     1      75.795  44.354  27.223  1.00  0.00     0.301 C 
ENDROOT
BRANCH   4   8
HETATM    8  C   UNL     1      73.748  43.873  25.968  1.00  0.00     0.370 C 
HETATM    9  O   UNL     1      73.583  43.474  24.922  1.00  0.00    -0.282 OA
ENDBRANCH   4   8
TORSDOF 1
ENDMDL
MODEL 3
REMARK VINA RESULT:      -4.6      0.787      2.753
REMARK  1 active torsions:
REMARK  status: ('A' for Active; 'I' for Inactive)
REMARK       I    between atoms: C_1  and  N_6 
REMARK    1  A    between atoms: C_5  and  N_6 
REMARK       I    between atoms: N_6  and  C_9 
ROOT
HETATM    1  C   UNL     1      74.026  43.668  26.074  1.00  0.00     0.301 C 
HETATM    2  O   UNL     1      71.788  42.737  28.584  1.00  0.00    -0.629 OA
HETATM    3  O   UNL     1      73.557  43.510  24.943  1.00  0.00    -0.629 OA
HETATM    4  N   UNL     1      73.549  42.870  27.143  1.00  0.00    -0.175 N 
HETATM    5  O   UNL     1      74.899  44.533  26.351  1.00  0.00    -0.629 OA
HETATM    6  O   UNL     1      71.368  42.912  26.438  1.00  0.00    -0.629 OA
HETATM    7  C   UNL     1      72.159  42.863  27.401  1.00  0.00     0.301 C 
ENDROOT
BRANCH   4   8
HETATM    8  C   UNL     1      74.448  42.603  28.232  1.00  0.00     0.370 C 
HETATM    9  O   UNL     1      75.246  41.805  28.310  1.00  0.00    -0.282 OA
ENDBRANCH   4   8
TORSDOF 1
ENDMDL
MODEL 4
REMARK VINA RESULT:      -4.6      1.396      2.910
REMARK  1 active torsions:
REMARK  status: ('A' for Active; 'I' for Inactive)
REMARK       I    between atoms: C_1  and  N_6 
REMARK    1  A    between atoms: C_5  and  N_6 
REMARK       I    between atoms: N_6  and  C_9 
ROOT
HETATM    1  C   UNL     1      74.613  44.977  27.102  1.00  0.00     0.301 C 
HETATM    2  O   UNL     1      72.884  42.095  26.163  1.00  0.00    -0.629 OA
HETATM    3  O   UNL     1      75.002  45.631  26.129  1.00  0.00    -0.629 OA
HETATM    4  N   UNL     1      74.414  43.581  26.968  1.00  0.00    -0.175 N 
HETATM    5  O   UNL     1      74.347  45.488  28.222  1.00  0.00    -0.629 OA
HETATM    6  O   UNL     1      73.542  43.727  24.853  1.00  0.00    -0.629 OA
HETATM    7  C   UNL     1      73.550  43.125  25.946  1.00  0.00     0.301 C 
ENDROOT
BRANCH   4   8
HETATM    8  C   UNL     1      74.575  42.766  28.140  1.00  0.00     0.370 C 
HETATM    9  O   UNL     1      75.286  41.902  28.309  1.00  0.00    -0.282 OA
ENDBRANCH   4   8
TORSDOF 1
ENDMDL
MODEL 5
REMARK VINA RESULT:      -4.5      1.307      2.680
REMARK  1 active torsions:
REMARK  status: ('A' for Active; 'I' for Inactive)
REMARK       I    between atoms: C_1  and  N_6 
REMARK    1  A    between atoms: C_5  and  N_6 
REMARK       I    between atoms: N_6  and  C_9 
ROOT
HETATM    1  C   UNL     1      73.035  42.522  26.654  1.00  0.00     0.301 C 
HETATM    2  O   UNL     1      75.445  43.884  28.778  1.00  0.00    -0.629 OA
HETATM    3  O   UNL     1      73.234  41.325  26.422  1.00  0.00    -0.629 OA
HETATM    4  N   UNL     1      74.128  43.356  26.994  1.00  0.00    -0.175 N 
HETATM    5  O   UNL     1      71.894  43.053  26.637  1.00  0.00    -0.629 OA
HETATM    6  O   UNL     1      75.175  41.767  28.272  1.00  0.00    -0.629 OA
HETATM    7  C   UNL     1      74.942  42.978  28.087  1.00  0.00     0.301 C 
ENDROOT
BRANCH   4   8
HETATM    8  C   UNL     1      74.035  44.751  26.663  1.00  0.00     0.370 C 
HETATM    9  O   UNL     1      74.585  45.325  25.858  1.00  0.00    -0.282 OA
ENDBRANCH   4   8
TORSDOF 1
ENDMDL
MODEL 6
REMARK VINA RESULT:      -4.4      1.176      3.221
REMARK  1 active torsions:
REMARK  status: ('A' for Active; 'I' for Inactive)
REMARK       I    between atoms: C_1  and  N_6 
REMARK    1  A    between atoms: C_5  and  N_6 
REMARK       I    between atoms: N_6  and  C_9 
ROOT
HETATM    1  C   UNL     1      72.919  42.362  26.312  1.00  0.00     0.301 C 
HETATM    2  O   UNL     1      75.657  44.497  26.662  1.00  0.00    -0.629 OA
HETATM    3  O   UNL     1      72.007  42.871  25.654  1.00  0.00    -0.629 OA
HETATM    4  N   UNL     1      73.818  43.199  27.019  1.00  0.00    -0.175 N 
HETATM    5  O   UNL     1      73.126  41.122  26.373  1.00  0.00    -0.629 OA
HETATM    6  O   UNL     1      73.906  44.795  25.376  1.00  0.00    -0.629 OA
HETATM    7  C   UNL     1      74.504  44.203  26.297  1.00  0.00     0.301 C 
ENDROOT
BRANCH   4   8
HETATM    8  C   UNL     1      74.432  42.671  28.206  1.00  0.00     0.370 C 
HETATM    9  O   UNL     1      75.283  41.930  28.291  1.00  0.00    -0.282 OA
ENDBRANCH   4   8
TORSDOF 1
ENDMDL
MODEL 7
REMARK VINA RESULT:      -4.4      1.640      3.392
REMARK  1 active torsions:
REMARK  status: ('A' for Active; 'I' for Inactive)
REMARK       I    between atoms: C_1  and  N_6 
REMARK    1  A    between atoms: C_5  and  N_6 
REMARK       I    between atoms: N_6  and  C_9 
ROOT
HETATM    1  C   UNL     1      75.342  43.348  27.917  1.00  0.00     0.301 C 
HETATM    2  O   UNL     1      73.496  43.643  24.971  1.00  0.00    -0.629 OA
HETATM    3  O   UNL     1      75.006  42.367  28.588  1.00  0.00    -0.629 OA
HETATM    4  N   UNL     1      74.405  43.946  27.039  1.00  0.00    -0.175 N 
HETATM    5  O   UNL     1      76.500  43.844  27.942  1.00  0.00    -0.629 OA
HETATM    6  O   UNL     1      73.492  41.954  26.369  1.00  0.00    -0.629 OA
HETATM    7  C   UNL     1      73.785  43.128  26.068  1.00  0.00     0.301 C 
ENDROOT
BRANCH   4   8
HETATM    8  C   UNL     1      74.548  45.348  26.761  1.00  0.00     0.370 C 
HETATM    9  O   UNL     1      75.280  45.860  26.065  1.00  0.00    -0.282 OA
ENDBRANCH   4   8
TORSDOF 1
ENDMDL
MODEL 8
REMARK VINA RESULT:      -4.3      0.924      2.708
REMARK  1 active torsions:
REMARK  status: ('A' for Active; 'I' for Inactive)
REMARK       I    between atoms: C_1  and  N_6 
REMARK    1  A    between atoms: C_5  and  N_6 
REMARK       I    between atoms: N_6  and  C_9 
ROOT
HETATM    1  C   UNL     1      72.022  43.476  27.712  1.00  0.00     0.301 C 
HETATM    2  O   UNL     1      75.225  42.177  28.190  1.00  0.00    -0.629 OA
HETATM    3  O   UNL     1      71.144  42.754  28.196  1.00  0.00    -0.629 OA
HETATM    4  N   UNL     1      73.252  42.901  27.308  1.00  0.00    -0.175 N 
HETATM    5  O   UNL     1      71.903  44.723  27.580  1.00  0.00    -0.629 OA
HETATM    6  O   UNL     1      73.357  41.444  29.074  1.00  0.00    -0.629 OA
HETATM    7  C   UNL     1      73.982  42.150  28.258  1.00  0.00     0.301 C 
ENDROOT
BRANCH   4   8
HETATM    8  C   UNL     1      73.973  43.542  26.244  1.00  0.00     0.370 C 
HETATM    9  O   UNL     1      73.760  43.522  25.133  1.00  0.00    -0.282 OA
ENDBRANCH   4   8
TORSDOF 1
ENDMDL
MODEL 9
REMARK VINA RESULT:      -4.3      1.567      2.334
REMARK  1 active torsions:
REMARK  status: ('A' for Active; 'I' for Inactive)
REMARK       I    between atoms: C_1  and  N_6 
REMARK    1  A    between atoms: C_5  and  N_6 
REMARK       I    between atoms: N_6  and  C_9 
ROOT
HETATM    1  C   UNL     1      76.062  44.186  27.468  1.00  0.00     0.301 C 
HETATM    2  O   UNL     1      73.606  41.709  27.401  1.00  0.00    -0.629 OA
HETATM    3  O   UNL     1      76.563  44.323  28.589  1.00  0.00    -0.629 OA
HETATM    4  N   UNL     1      74.743  43.684  27.351  1.00  0.00    -0.175 N 
HETATM    5  O   UNL     1      76.674  44.441  26.397  1.00  0.00    -0.629 OA
HETATM    6  O   UNL     1      74.980  42.162  29.049  1.00  0.00    -0.629 OA
HETATM    7  C   UNL     1      74.446  42.441  27.957  1.00  0.00     0.301 C 
ENDROOT
BRANCH   4   8
HETATM    8  C   UNL     1      73.971  44.088  26.210  1.00  0.00     0.370 C 
HETATM    9  O   UNL     1      73.928  43.617  25.182  1.00  0.00    -0.282 OA
ENDBRANCH   4   8
TORSDOF 1
ENDMDL
