ATOM      1  N   ARG A 386      78.416  38.427  35.184  1.00 31.73    -0.069 N 
ATOM      2  HN1 ARG A 386      78.112  39.394  35.300  1.00  0.00     0.275 HD
ATOM      3  HN2 ARG A 386      79.351  38.238  35.546  1.00  0.00     0.275 HD
ATOM      4  HN3 ARG A 386      77.926  37.761  35.782  1.00  0.00     0.275 HD
ATOM      5  CA  ARG A 386      78.267  38.169  33.763  1.00 33.34     0.244 C 
ATOM      6  C   ARG A 386      78.721  36.727  33.590  1.00 34.26     0.263 C 
ATOM      7  O   ARG A 386      79.564  36.236  34.342  1.00 35.87    -0.305 OA
ATOM      8  CB  ARG A 386      79.140  39.119  32.942  1.00 34.18     0.041 C 
ATOM      9  CG  ARG A 386      78.716  40.587  33.052  1.00 34.45     0.023 C 
ATOM     10  CD  ARG A 386      79.579  41.478  32.182  1.00 35.67     0.138 C 
ATOM     11  NE  ARG A 386      79.352  41.260  30.757  1.00 35.35    -0.227 N 
ATOM     12  HE  ARG A 386      80.073  40.765  30.232  1.00  0.00     0.177 HD
ATOM     13  CZ  ARG A 386      78.270  41.662  30.094  1.00 36.67     0.665 C 
ATOM     14  NH1 ARG A 386      77.293  42.305  30.724  1.00 35.27    -0.235 N 
ATOM     15 1HH1 ARG A 386      76.464  42.613  30.216  1.00  0.00     0.174 HD
ATOM     16 2HH1 ARG A 386      77.368  42.479  31.726  1.00  0.00     0.174 HD
ATOM     17  NH2 ARG A 386      78.172  41.436  28.790  1.00 34.21    -0.235 N 
ATOM     18 1HH2 ARG A 386      77.343  41.744  28.282  1.00  0.00     0.174 HD
ATOM     19 2HH2 ARG A 386      78.922  40.942  28.306  1.00  0.00     0.174 HD
ATOM     20  N   CYS A 415      70.685  36.705  20.693  1.00 32.85    -0.066 N 
ATOM     21  HN1 CYS A 415      70.139  36.198  19.996  1.00  0.00     0.275 HD
ATOM     22  HN2 CYS A 415      70.218  36.705  21.600  1.00  0.00     0.275 HD
ATOM     23  HN3 CYS A 415      71.529  36.191  20.946  1.00  0.00     0.275 HD
ATOM     24  CA  CYS A 415      71.003  38.062  20.264  1.00 32.30     0.284 C 
ATOM     25  C   CYS A 415      71.819  38.819  21.305  1.00 32.22     0.249 C 
ATOM     26  O   CYS A 415      72.713  38.252  21.923  1.00 32.68    -0.271 OA
ATOM     27  CB  CYS A 415      69.707  38.811  19.953  1.00 31.28     0.128 C 
ATOM     28  SG  CYS A 415      68.715  38.019  18.644  1.00 32.36    -0.095 SA
ATOM     29  N   GLY A 416      71.515  40.101  21.486  1.00 32.43    -0.351 N 
ATOM     30  HN  GLY A 416      70.772  40.526  20.932  1.00  0.00     0.163 HD
ATOM     31  CA  GLY A 416      72.230  40.904  22.465  1.00 30.89     0.225 C 
ATOM     32  C   GLY A 416      73.745  40.848  22.368  1.00 32.14     0.236 C 
ATOM     33  O   GLY A 416      74.315  40.694  21.285  1.00 31.99    -0.272 OA
ATOM     34  N   SER A 417      74.403  40.971  23.514  1.00 32.76    -0.347 N 
ATOM     35  HN  SER A 417      73.877  41.086  24.380  1.00  0.00     0.163 HD
ATOM     36  CA  SER A 417      75.856  40.946  23.563  1.00 32.26     0.169 C 
ATOM     37  C   SER A 417      76.430  39.654  22.981  1.00 34.38     0.258 C 
ATOM     38  O   SER A 417      77.562  39.634  22.494  1.00 36.01    -0.305 OA
ATOM     39  CB  SER A 417      76.323  41.129  25.003  1.00 31.00     0.196 C 
ATOM     40  OG  SER A 417      75.710  40.185  25.859  1.00 29.44    -0.398 OA
ATOM     41  HG  SER A 417      76.001  40.299  26.756  1.00  0.00     0.209 HD
ATOM     42  N   ARG A 420      76.748  40.072  19.280  1.00 32.80    -0.069 N 
ATOM     43  HN1 ARG A 420      75.807  40.432  19.119  1.00  0.00     0.275 HD
ATOM     44  HN2 ARG A 420      76.858  39.704  20.225  1.00  0.00     0.275 HD
ATOM     45  HN3 ARG A 420      76.919  39.210  18.762  1.00  0.00     0.275 HD
ATOM     46  CA  ARG A 420      77.742  41.095  18.976  1.00 33.91     0.244 C 
ATOM     47  C   ARG A 420      79.154  40.554  19.217  1.00 33.86     0.263 C 
ATOM     48  O   ARG A 420      80.131  41.287  19.102  1.00 34.86    -0.305 OA
ATOM     49  CB  ARG A 420      77.525  42.354  19.821  1.00 31.76     0.041 C 
ATOM     50  CG  ARG A 420      76.175  43.033  19.591  1.00 33.40     0.023 C 
ATOM     51  CD  ARG A 420      76.243  44.502  19.958  1.00 31.34     0.138 C 
ATOM     52  NE  ARG A 420      76.639  44.696  21.349  1.00 31.94    -0.227 N 
ATOM     53  HE  ARG A 420      77.597  44.994  21.534  1.00  0.00     0.177 HD
ATOM     54  CZ  ARG A 420      75.836  44.510  22.390  1.00 28.77     0.665 C 
ATOM     55  NH1 ARG A 420      74.581  44.127  22.204  1.00 29.04    -0.235 N 
ATOM     56 1HH1 ARG A 420      73.964  43.984  23.004  1.00  0.00     0.174 HD
ATOM     57 2HH1 ARG A 420      74.227  43.990  21.257  1.00  0.00     0.174 HD
ATOM     58  NH2 ARG A 420      76.297  44.689  23.623  1.00 32.05    -0.235 N 
ATOM     59 1HH2 ARG A 420      75.680  44.546  24.423  1.00  0.00     0.174 HD
ATOM     60 2HH2 ARG A 420      77.263  44.984  23.766  1.00  0.00     0.174 HD
ATOM     61  N   LYS A 422      80.580  39.273  22.147  1.00 35.89    -0.069 N 
ATOM     62  HN1 LYS A 422      80.284  40.131  21.681  1.00  0.00     0.275 HD
ATOM     63  HN2 LYS A 422      79.801  38.627  22.271  1.00  0.00     0.275 HD
ATOM     64  HN3 LYS A 422      81.165  38.699  21.539  1.00  0.00     0.275 HD
ATOM     65  CA  LYS A 422      81.245  39.560  23.415  1.00 36.02     0.244 C 
ATOM     66  C   LYS A 422      81.689  38.273  24.115  1.00 33.90     0.263 C 
ATOM     67  O   LYS A 422      81.062  37.227  23.962  1.00 32.39    -0.305 OA
ATOM     68  CB  LYS A 422      80.312  40.359  24.327  1.00 37.18     0.040 C 
ATOM     69  CG  LYS A 422      79.775  41.628  23.676  1.00 40.56     0.004 C 
ATOM     70  CD  LYS A 422      80.889  42.561  23.219  1.00 43.23     0.027 C 
ATOM     71  CE  LYS A 422      81.606  43.181  24.405  1.00 44.92     0.229 C 
ATOM     72  NZ  LYS A 422      82.644  44.147  23.966  1.00 47.01    -0.079 N 
ATOM     73  HZ1 LYS A 422      83.126  44.564  24.763  1.00  0.00     0.274 HD
ATOM     74  HZ2 LYS A 422      82.254  44.861  23.350  1.00  0.00     0.274 HD
ATOM     75  HZ3 LYS A 422      83.301  43.719  23.314  1.00  0.00     0.274 HD
ATOM     76  N   THR A 424      81.726  37.757  27.370  1.00 33.18    -0.064 N 
ATOM     77  HN1 THR A 424      82.626  37.311  27.545  1.00  0.00     0.275 HD
ATOM     78  HN2 THR A 424      81.822  38.757  27.191  1.00  0.00     0.275 HD
ATOM     79  HN3 THR A 424      81.331  37.483  26.470  1.00  0.00     0.275 HD
ATOM     80  CA  THR A 424      80.815  37.482  28.476  1.00 32.02     0.302 C 
ATOM     81  C   THR A 424      79.461  38.153  28.213  1.00 31.77     0.251 C 
ATOM     82  O   THR A 424      79.381  39.133  27.474  1.00 31.97    -0.271 OA
ATOM     83  CB  THR A 424      81.375  37.995  29.831  1.00 32.84     0.153 C 
ATOM     84  OG1 THR A 424      81.469  39.423  29.806  1.00 34.45    -0.393 OA
ATOM     85  HG1 THR A 424      81.811  39.737  30.635  1.00  0.00     0.210 HD
ATOM     86  CG2 THR A 424      82.756  37.399  30.105  1.00 33.98     0.042 C 
ATOM     87  N   CYS A 425      78.404  37.627  28.829  1.00 30.34    -0.345 N 
ATOM     88  HN  CYS A 425      78.537  36.829  29.450  1.00  0.00     0.163 HD
ATOM     89  CA  CYS A 425      77.058  38.163  28.638  1.00 30.98     0.186 C 
ATOM     90  C   CYS A 425      76.332  38.403  29.957  1.00 29.51     0.241 C 
ATOM     91  O   CYS A 425      76.393  37.571  30.863  1.00 27.90    -0.271 OA
ATOM     92  CB  CYS A 425      76.226  37.197  27.783  1.00 31.38     0.120 C 
ATOM     93  SG  CYS A 425      77.000  36.712  26.217  1.00 33.28    -0.095 SA
ATOM     94  N   GLY A 426      75.644  39.539  30.054  1.00 28.61    -0.351 N 
ATOM     95  HN  GLY A 426      75.637  40.197  29.275  1.00  0.00     0.163 HD
ATOM     96  CA  GLY A 426      74.903  39.845  31.268  1.00 28.35     0.225 C 
ATOM     97  C   GLY A 426      73.754  38.864  31.423  1.00 29.28     0.236 C 
ATOM     98  O   GLY A 426      73.528  38.317  32.496  1.00 28.13    -0.272 OA
ATOM     99  N   ASP A 427      73.018  38.658  30.337  1.00 28.76    -0.346 N 
ATOM    100  HN  ASP A 427      73.241  39.173  29.485  1.00  0.00     0.163 HD
ATOM    101  CA  ASP A 427      71.901  37.719  30.322  1.00 28.59     0.186 C 
ATOM    102  C   ASP A 427      71.985  37.027  28.973  1.00 29.28     0.241 C 
ATOM    103  O   ASP A 427      72.953  37.211  28.233  1.00 30.92    -0.271 OA
ATOM    104  CB  ASP A 427      70.552  38.455  30.417  1.00 29.00     0.147 C 
ATOM    105  CG  ASP A 427      70.211  39.222  29.144  1.00 31.58     0.175 C 
ATOM    106  OD1 ASP A 427      69.037  39.647  28.985  1.00 31.07    -0.648 OA
ATOM    107  OD2 ASP A 427      71.113  39.403  28.295  1.00 27.74    -0.648 OA
ATOM    108  N   VAL A 428      70.970  36.238  28.651  1.00 28.24    -0.346 N 
ATOM    109  HN  VAL A 428      70.212  36.101  29.319  1.00  0.00     0.163 HD
ATOM    110  CA  VAL A 428      70.917  35.566  27.366  1.00 28.16     0.180 C 
ATOM    111  C   VAL A 428      69.611  36.029  26.730  1.00 26.40     0.241 C 
ATOM    112  O   VAL A 428      68.535  35.887  27.322  1.00 26.13    -0.271 OA
ATOM    113  CB  VAL A 428      70.914  34.028  27.520  1.00 29.19     0.009 C 
ATOM    114  CG1 VAL A 428      70.934  33.379  26.146  1.00 30.37     0.012 C 
ATOM    115  CG2 VAL A 428      72.127  33.577  28.347  1.00 27.99     0.012 C 
ATOM    116  N   ASP A 429      69.716  36.604  25.538  1.00 28.31    -0.348 N 
ATOM    117  HN  ASP A 429      70.640  36.691  25.115  1.00  0.00     0.163 HD
ATOM    118  CA  ASP A 429      68.561  37.116  24.811  1.00 27.79     0.155 C 
ATOM    119  C   ASP A 429      68.254  36.214  23.618  1.00 29.72     0.256 C 
ATOM    120  O   ASP A 429      69.005  36.191  22.632  1.00 30.21    -0.305 OA
ATOM    121  CB  ASP A 429      68.856  38.541  24.336  1.00 29.38     0.145 C 
ATOM    122  CG  ASP A 429      69.269  39.453  25.475  1.00 29.72     0.174 C 
ATOM    123  OD1 ASP A 429      68.455  39.621  26.412  1.00 29.00    -0.648 OA
ATOM    124  OD2 ASP A 429      70.399  39.992  25.436  1.00 27.56    -0.648 OA
ATOM    125  N   ARG A 488      69.978  35.348  34.083  1.00 28.57    -0.069 N 
ATOM    126  HN1 ARG A 488      70.134  35.643  35.047  1.00  0.00     0.275 HD
ATOM    127  HN2 ARG A 488      70.802  35.484  33.498  1.00  0.00     0.275 HD
ATOM    128  HN3 ARG A 488      69.905  34.335  33.994  1.00  0.00     0.275 HD
ATOM    129  CA  ARG A 488      68.810  36.034  33.560  1.00 28.30     0.244 C 
ATOM    130  C   ARG A 488      68.577  35.593  32.117  1.00 27.96     0.263 C 
ATOM    131  O   ARG A 488      69.522  35.385  31.361  1.00 25.86    -0.305 OA
ATOM    132  CB  ARG A 488      69.016  37.548  33.658  1.00 27.44     0.041 C 
ATOM    133  CG  ARG A 488      69.103  38.016  35.111  1.00 30.42     0.023 C 
ATOM    134  CD  ARG A 488      69.252  39.520  35.243  1.00 31.19     0.138 C 
ATOM    135  NE  ARG A 488      70.512  40.003  34.689  1.00 28.75    -0.227 N 
ATOM    136  HE  ARG A 488      71.370  39.798  35.201  1.00  0.00     0.177 HD
ATOM    137  CZ  ARG A 488      70.611  40.693  33.559  1.00 30.02     0.665 C 
ATOM    138  NH1 ARG A 488      69.522  40.975  32.861  1.00 31.67    -0.235 N 
ATOM    139 1HH1 ARG A 488      69.598  41.505  31.993  1.00  0.00     0.174 HD
ATOM    140 2HH1 ARG A 488      68.612  40.648  33.186  1.00  0.00     0.174 HD
ATOM    141  NH2 ARG A 488      71.797  41.119  33.136  1.00 34.87    -0.235 N 
ATOM    142 1HH2 ARG A 488      71.873  41.649  32.268  1.00  0.00     0.174 HD
ATOM    143 2HH2 ARG A 488      72.636  40.902  33.674  1.00  0.00     0.174 HD
ATOM    144  N   PHE A 506      66.880  43.508  19.137  1.00 28.00    -0.066 N 
ATOM    145  HN1 PHE A 506      65.869  43.639  19.165  1.00  0.00     0.275 HD
ATOM    146  HN2 PHE A 506      67.175  43.206  18.209  1.00  0.00     0.275 HD
ATOM    147  HN3 PHE A 506      67.358  44.408  19.186  1.00  0.00     0.275 HD
ATOM    148  CA  PHE A 506      67.393  42.601  20.157  1.00 29.55     0.278 C 
ATOM    149  C   PHE A 506      68.904  42.406  20.115  1.00 29.13     0.249 C 
ATOM    150  O   PHE A 506      69.494  41.950  21.095  1.00 29.02    -0.271 OA
ATOM    151  CB  PHE A 506      66.697  41.238  20.057  1.00 29.87     0.081 C 
ATOM    152  CG  PHE A 506      66.323  40.638  21.394  1.00 30.08    -0.056 A 
ATOM    153  CD1 PHE A 506      66.142  39.264  21.522  1.00 29.96     0.007 A 
ATOM    154  CD2 PHE A 506      66.093  41.448  22.504  1.00 30.37     0.007 A 
ATOM    155  CE1 PHE A 506      65.731  38.700  22.732  1.00 29.96     0.001 A 
ATOM    156  CE2 PHE A 506      65.679  40.896  23.725  1.00 29.76     0.001 A 
ATOM    157  CZ  PHE A 506      65.496  39.516  23.837  1.00 29.99     0.000 A 
ATOM    158  N   THR A 507      69.541  42.739  18.997  1.00 30.15    -0.344 N 
ATOM    159  HN  THR A 507      69.021  43.096  18.196  1.00  0.00     0.163 HD
ATOM    160  CA  THR A 507      70.989  42.589  18.926  1.00 29.53     0.205 C 
ATOM    161  C   THR A 507      71.651  43.804  19.561  1.00 29.82     0.243 C 
ATOM    162  O   THR A 507      72.682  43.684  20.233  1.00 28.67    -0.271 OA
ATOM    163  CB  THR A 507      71.478  42.416  17.470  1.00 31.29     0.146 C 
ATOM    164  OG1 THR A 507      70.963  41.190  16.938  1.00 30.25    -0.393 OA
ATOM    165  HG1 THR A 507      71.264  41.084  16.043  1.00  0.00     0.210 HD
ATOM    166  CG2 THR A 507      73.001  42.376  17.421  1.00 30.20     0.042 C 
ATOM    167  N   GLY A 508      71.056  44.979  19.358  1.00 30.41    -0.350 N 
ATOM    168  HN  GLY A 508      70.209  45.030  18.791  1.00  0.00     0.163 HD
ATOM    169  CA  GLY A 508      71.613  46.191  19.944  1.00 30.56     0.225 C 
ATOM    170  C   GLY A 508      72.951  46.606  19.359  1.00 31.46     0.236 C 
ATOM    171  O   GLY A 508      73.204  46.332  18.186  1.00 32.17    -0.272 OA
ATOM    172  N   SER A 509      73.822  47.244  20.149  1.00 31.12    -0.344 N 
ATOM    173  HN  SER A 509      74.710  47.533  19.740  1.00  0.00     0.163 HD
ATOM    174  CA  SER A 509      73.588  47.557  21.565  1.00 31.33     0.200 C 
ATOM    175  C   SER A 509      72.505  48.617  21.797  1.00 30.20     0.243 C 
ATOM    176  O   SER A 509      71.993  49.221  20.852  1.00 28.60    -0.271 OA
ATOM    177  CB  SER A 509      74.886  48.048  22.209  1.00 32.59     0.199 C 
ATOM    178  OG  SER A 509      75.207  49.350  21.744  1.00 32.67    -0.398 OA
ATOM    179  HG  SER A 509      76.013  49.655  22.144  1.00  0.00     0.209 HD
ATOM    180  N   ALA A 510      72.186  48.854  23.067  1.00 30.38    -0.349 N 
ATOM    181  HN  ALA A 510      72.665  48.338  23.805  1.00  0.00     0.163 HD
ATOM    182  CA  ALA A 510      71.163  49.838  23.431  1.00 30.11     0.142 C 
ATOM    183  C   ALA A 510      71.541  51.209  22.890  1.00 30.20     0.255 C 
ATOM    184  O   ALA A 510      70.704  51.923  22.341  1.00 30.66    -0.305 OA
ATOM    185  CB  ALA A 510      70.998  49.893  24.957  1.00 29.08     0.039 C 
ATOM    186  N   ASP A 574      78.638  47.402  18.679  1.00 41.42    -0.068 N 
ATOM    187  HN1 ASP A 574      78.425  46.487  18.283  1.00  0.00     0.275 HD
ATOM    188  HN2 ASP A 574      79.398  47.857  18.174  1.00  0.00     0.275 HD
ATOM    189  HN3 ASP A 574      77.894  48.072  18.486  1.00  0.00     0.275 HD
ATOM    190  CA  ASP A 574      78.922  47.321  20.106  1.00 42.29     0.254 C 
ATOM    191  C   ASP A 574      79.240  48.688  20.698  1.00 43.18     0.264 C 
ATOM    192  O   ASP A 574      80.349  48.927  21.179  1.00 45.08    -0.305 OA
ATOM    193  CB  ASP A 574      80.094  46.365  20.350  1.00 42.78     0.153 C 
ATOM    194  CG  ASP A 574      80.158  45.877  21.785  1.00 43.52     0.174 C 
ATOM    195  OD1 ASP A 574      81.282  45.704  22.302  1.00 42.13    -0.648 OA
ATOM    196  OD2 ASP A 574      79.085  45.654  22.388  1.00 42.27    -0.648 OA
ATOM    197  N   MET A 387      78.153  36.044  32.611  1.00 31.64    -0.069 N 
ATOM    198  HN1 MET A 387      77.543  36.142  33.423  1.00  0.00     0.275 HD
ATOM    199  HN2 MET A 387      77.747  36.473  31.780  1.00  0.00     0.275 HD
ATOM    200  HN3 MET A 387      78.986  36.626  32.693  1.00  0.00     0.275 HD
ATOM    201  CA  MET A 387      78.491  34.653  32.385  1.00 31.71     0.244 C 
ATOM    202  C   MET A 387      79.402  34.507  31.173  1.00 31.32     0.263 C 
ATOM    203  O   MET A 387      79.437  35.372  30.300  1.00 30.83    -0.305 OA
ATOM    204  CB  MET A 387      77.216  33.842  32.139  1.00 29.03     0.050 C 
ATOM    205  CG  MET A 387      76.588  34.141  30.786  1.00 31.00     0.076 C 
ATOM    206  SD  MET A 387      74.994  33.340  30.520  1.00 30.29    -0.173 SA
ATOM    207  CE  MET A 387      73.877  34.649  31.160  1.00 26.86     0.089 C 
ATOM    208  N   ALA A 414      70.304  33.582  19.415  1.00 36.58    -0.069 N 
ATOM    209  HN1 ALA A 414      70.020  32.661  19.749  1.00  0.00     0.275 HD
ATOM    210  HN2 ALA A 414      70.967  33.553  18.640  1.00  0.00     0.275 HD
ATOM    211  HN3 ALA A 414      69.567  34.086  18.921  1.00  0.00     0.275 HD
ATOM    212  CA  ALA A 414      70.805  34.278  20.592  1.00 35.74     0.240 C 
ATOM    213  C   ALA A 414      71.229  35.655  20.092  1.00 34.67     0.263 C 
ATOM    214  O   ALA A 414      72.027  35.766  19.164  1.00 33.51    -0.305 OA
ATOM    215  CB  ALA A 414      71.990  33.538  21.179  1.00 36.70     0.047 C 
ATOM    216  N   TYR A 418      75.650  38.580  23.024  1.00 34.57    -0.069 N 
ATOM    217  HN1 TYR A 418      75.486  38.504  24.028  1.00  0.00     0.275 HD
ATOM    218  HN2 TYR A 418      74.828  38.930  22.531  1.00  0.00     0.275 HD
ATOM    219  HN3 TYR A 418      76.295  39.338  22.801  1.00  0.00     0.275 HD
ATOM    220  CA  TYR A 418      76.104  37.304  22.482  1.00 35.04     0.248 C 
ATOM    221  C   TYR A 418      76.349  37.418  20.978  1.00 36.19     0.264 C 
ATOM    222  O   TYR A 418      77.423  37.066  20.491  1.00 36.34    -0.305 OA
ATOM    223  CB  TYR A 418      75.065  36.215  22.730  1.00 35.36     0.078 C 
ATOM    224  CG  TYR A 418      75.505  34.838  22.275  1.00 35.77    -0.056 A 
ATOM    225  CD1 TYR A 418      76.181  33.978  23.137  1.00 35.39     0.010 A 
ATOM    226  CD2 TYR A 418      75.247  34.397  20.978  1.00 36.22     0.010 A 
ATOM    227  CE1 TYR A 418      76.583  32.709  22.723  1.00 35.88     0.037 A 
ATOM    228  CE2 TYR A 418      75.647  33.136  20.553  1.00 37.04     0.037 A 
ATOM    229  CZ  TYR A 418      76.311  32.297  21.430  1.00 36.70     0.065 A 
ATOM    230  OH  TYR A 418      76.679  31.039  21.017  1.00 38.35    -0.361 OA
ATOM    231  HH  TYR A 418      76.492  30.756  20.129  1.00  0.00     0.217 HD
ATOM    232  N   GLY A 421      79.245  39.276  19.569  1.00 35.74    -0.073 N 
ATOM    233  HN1 GLY A 421      78.740  39.086  18.703  1.00  0.00     0.274 HD
ATOM    234  HN2 GLY A 421      79.355  40.285  19.670  1.00  0.00     0.274 HD
ATOM    235  HN3 GLY A 421      78.635  39.062  20.358  1.00  0.00     0.274 HD
ATOM    236  CA  GLY A 421      80.537  38.640  19.790  1.00 36.51     0.298 C 
ATOM    237  C   GLY A 421      81.289  38.923  21.079  1.00 37.83     0.258 C 
ATOM    238  O   GLY A 421      82.515  38.817  21.109  1.00 36.99    -0.305 OA
ATOM    239  N   ASP A 490      66.034  36.381  28.655  1.00 27.40    -0.068 N 
ATOM    240  HN1 ASP A 490      66.288  36.813  29.543  1.00  0.00     0.275 HD
ATOM    241  HN2 ASP A 490      66.840  36.143  28.076  1.00  0.00     0.275 HD
ATOM    242  HN3 ASP A 490      65.667  35.435  28.757  1.00  0.00     0.275 HD
ATOM    243  CA  ASP A 490      65.102  37.295  28.001  1.00 29.31     0.254 C 
ATOM    244  C   ASP A 490      64.723  36.650  26.676  1.00 29.73     0.264 C 
ATOM    245  O   ASP A 490      65.572  36.465  25.800  1.00 28.69    -0.305 OA
ATOM    246  CB  ASP A 490      65.802  38.640  27.758  1.00 30.34     0.153 C 
ATOM    247  CG  ASP A 490      64.882  39.705  27.183  1.00 35.57     0.174 C 
ATOM    248  OD1 ASP A 490      63.799  39.382  26.649  1.00 35.74    -0.648 OA
ATOM    249  OD2 ASP A 490      65.264  40.892  27.253  1.00 38.58    -0.648 OA
ATOM    250  N   TYR A 505      66.788  45.085  16.712  1.00 29.64    -0.069 N 
ATOM    251  HN1 TYR A 505      66.347  45.640  15.978  1.00  0.00     0.275 HD
ATOM    252  HN2 TYR A 505      66.514  44.104  16.653  1.00  0.00     0.275 HD
ATOM    253  HN3 TYR A 505      67.789  44.980  16.549  1.00  0.00     0.275 HD
ATOM    254  CA  TYR A 505      66.518  45.634  18.033  1.00 29.39     0.248 C 
ATOM    255  C   TYR A 505      67.178  44.803  19.132  1.00 28.21     0.264 C 
ATOM    256  O   TYR A 505      67.943  45.324  19.949  1.00 27.88    -0.305 OA
ATOM    257  CB  TYR A 505      65.008  45.672  18.276  1.00 30.00     0.078 C 
ATOM    258  CG  TYR A 505      64.603  45.559  19.735  1.00 30.08    -0.056 A 
ATOM    259  CD1 TYR A 505      64.860  46.593  20.635  1.00 30.12     0.010 A 
ATOM    260  CD2 TYR A 505      63.948  44.421  20.209  1.00 31.33     0.010 A 
ATOM    261  CE1 TYR A 505      64.469  46.502  21.976  1.00 30.49     0.037 A 
ATOM    262  CE2 TYR A 505      63.552  44.317  21.549  1.00 32.21     0.037 A 
ATOM    263  CZ  TYR A 505      63.816  45.364  22.423  1.00 32.56     0.065 A 
ATOM    264  OH  TYR A 505      63.429  45.275  23.745  1.00 33.89    -0.361 OA
ATOM    265  HH  TYR A 505      62.981  44.495  24.051  1.00  0.00     0.217 HD
ATOM    266  N   ASN A 513      71.107  51.177  19.150  1.00 31.73    -0.068 N 
ATOM    267  HN1 ASN A 513      71.448  50.217  19.093  1.00  0.00     0.275 HD
ATOM    268  HN2 ASN A 513      71.278  51.577  20.073  1.00  0.00     0.275 HD
ATOM    269  HN3 ASN A 513      71.682  51.809  18.593  1.00  0.00     0.275 HD
ATOM    270  CA  ASN A 513      69.700  51.274  18.781  1.00 31.10     0.253 C 
ATOM    271  C   ASN A 513      69.190  52.710  18.867  1.00 30.03     0.264 C 
ATOM    272  O   ASN A 513      68.581  53.219  17.929  1.00 30.24    -0.305 OA
ATOM    273  CB  ASN A 513      68.844  50.383  19.686  1.00 30.48     0.142 C 
ATOM    274  CG  ASN A 513      68.938  48.918  19.322  1.00 31.69     0.217 C 
ATOM    275  OD1 ASN A 513      69.519  48.555  18.295  1.00 33.02    -0.274 OA
ATOM    276  ND2 ASN A 513      68.350  48.066  20.153  1.00 29.69    -0.370 N 
ATOM    277 1HD2 ASN A 513      68.413  47.078  19.908  1.00  0.00     0.159 HD
ATOM    278 2HD2 ASN A 513      67.870  48.366  21.002  1.00  0.00     0.159 HD
ATOM    279  N   ALA A 423      82.774  38.360  24.882  1.00 34.82    -0.069 N 
ATOM    280  HN1 ALA A 423      83.373  38.643  24.106  1.00  0.00     0.275 HD
ATOM    281  HN2 ALA A 423      82.592  39.142  25.511  1.00  0.00     0.275 HD
ATOM    282  HN3 ALA A 423      81.821  38.180  24.566  1.00  0.00     0.275 HD
ATOM    283  CA  ALA A 423      83.316  37.210  25.610  1.00 34.16     0.240 C 
ATOM    284  C   ALA A 423      82.416  36.785  26.776  1.00 34.51     0.263 C 
ATOM    285  O   ALA A 423      82.355  35.598  27.135  1.00 34.47    -0.305 OA
ATOM    286  CB  ALA A 423      84.723  37.545  26.119  1.00 34.23     0.047 C 
ATOM    287  N   LEU A 384      74.424  40.499  39.217  1.00 28.23    -0.069 N 
ATOM    288  HN1 LEU A 384      73.646  40.932  39.716  1.00  0.00     0.275 HD
ATOM    289  HN2 LEU A 384      74.796  39.691  39.716  1.00  0.00     0.275 HD
ATOM    290  HN3 LEU A 384      74.117  40.022  38.369  1.00  0.00     0.275 HD
ATOM    291  CA  LEU A 384      75.455  41.497  38.942  1.00 30.76     0.244 C 
ATOM    292  C   LEU A 384      76.623  40.847  38.193  1.00 31.16     0.263 C 
ATOM    293  O   LEU A 384      77.513  41.531  37.692  1.00 31.39    -0.305 OA
ATOM    294  CB  LEU A 384      75.966  42.117  40.239  1.00 32.63     0.044 C 
ATOM    295  CG  LEU A 384      74.921  42.927  41.013  1.00 36.28    -0.020 C 
ATOM    296  CD1 LEU A 384      75.545  43.510  42.269  1.00 37.99     0.009 C 
ATOM    297  CD2 LEU A 384      74.380  44.032  40.119  1.00 37.17     0.009 C 
TER     298      LEU A 384 
