REMARK  1 active torsions:
REMARK  status: ('A' for Active; 'I' for Inactive)
REMARK    1  A    between atoms: C_4  and  O_7 
ROOT
HETATM    1  C   UNL     1       5.925   9.240  19.385  1.00  0.00     0.097 C 
HETATM    2  C   UNL     1       7.022   5.748  15.335  1.00  0.00     0.015 C 
HETATM    3  C   UNL     1       4.173   7.735  18.070  1.00  0.00     0.022 C 
HETATM    4  C   UNL     1       2.514   5.894  17.530  1.00  0.00     0.155 C 
HETATM    5  N   UNL     1       5.603   9.868  20.663  1.00  0.00    -0.317 N 
ATOM      6  HN  UNL     1       6.302  10.239  21.306  1.00  0.00     0.181 HD
HETATM    7  C   UNL     1       4.139   4.312  14.507  1.00  0.00     0.014 C 
HETATM    8  C   UNL     1       1.929   7.868  18.930  1.00  0.00     0.012 C 
HETATM    9  C   UNL     1       7.572   7.764  18.256  1.00  0.00    -0.044 C 
HETATM   10  C   UNL     1       3.654   9.144  19.947  1.00  0.00     0.057 C 
HETATM   11  C   UNL     1       2.895   7.196  18.184  1.00  0.00    -0.029 C 
HETATM   12  C   UNL     1       7.532  10.149  17.673  1.00  0.00     0.011 C 
HETATM   13  N   UNL     1       4.333   9.900  20.886  1.00  0.00    -0.303 N 
ATOM     14  HN  UNL     1       3.890  10.412  21.649  1.00  0.00     0.186 HD
HETATM   15  C   UNL     1       4.575   8.678  19.005  1.00  0.00     0.004 C 
HETATM   16  C   UNL     1       3.536   5.577  16.439  1.00  0.00     0.020 C 
HETATM   17  C   UNL     1       6.741   2.185  15.121  1.00  0.00     0.005 C 
HETATM   18  C   UNL     1       7.535   6.481  17.703  1.00  0.00     0.019 C 
HETATM   19  C   UNL     1       8.983   8.529  16.455  1.00  0.00     0.013 C 
HETATM   20  C   UNL     1       2.320   8.779  19.902  1.00  0.00     0.032 C 
HETATM   21  C   UNL     1       6.551   4.525  15.263  1.00  0.00    -0.070 C 
HETATM   22  C   UNL     1       2.923   4.881  15.231  1.00  0.00     0.009 C 
HETATM   23  C   UNL     1       6.449  10.309  18.459  1.00  0.00     0.011 C 
HETATM   24  C   UNL     1       5.372   2.504  15.714  1.00  0.00     0.014 C 
HETATM   25  C   UNL     1       5.167   4.016  15.600  1.00  0.00    -0.016 C 
HETATM   26  C   UNL     1       7.852   6.431  16.327  1.00  0.00    -0.035 C 
HETATM   27  C   UNL     1       6.953   8.113  19.585  1.00  0.00     0.081 C 
HETATM   28  C   UNL     1       4.647   4.637  16.898  1.00  0.00     0.021 C 
HETATM   29  C   UNL     1       8.076   8.817  17.481  1.00  0.00    -0.030 C 
HETATM   30  C   UNL     1       8.888   7.262  15.875  1.00  0.00     0.012 C 
HETATM   31  C   UNL     1       7.254   3.451  14.461  1.00  0.00     0.035 C 
ENDROOT
BRANCH   4  32
HETATM   32  O   UNL     1       1.262   6.099  16.883  1.00  0.00    -0.391 OA
ATOM     33  HO  UNL     1       1.022   5.278  16.470  1.00  0.00     0.210 HD
ENDBRANCH   4  32
TORSDOF 1
