REMARK  5 active torsions:
REMARK  status: ('A' for Active; 'I' for Inactive)
REMARK    1  A    between atoms: C_7  and  C_11 
REMARK    2  A    between atoms: C_7  and  C_25 
REMARK    3  A    between atoms: C_8  and  C_20 
REMARK    4  A    between atoms: C_11  and  C_16 
REMARK    5  A    between atoms: O_12  and  C_21 
ROOT
HETATM    1  C   UNL     1     -47.195   3.538   9.277  1.00  0.00     0.006 C 
HETATM    2  C   UNL     1     -48.116  -1.100  10.704  1.00  0.00     0.030 C 
HETATM    3  C   UNL     1     -45.169   0.068   8.895  1.00  0.00     0.043 C 
HETATM    4  N   UNL     1     -47.327   0.618   8.978  1.00  0.00    -0.346 N 
HETATM    5  C   UNL     1     -47.118  -0.346   9.949  1.00  0.00     0.045 C 
HETATM    6  C   UNL     1     -48.520   2.855   9.021  1.00  0.00     0.021 C 
HETATM    7  C   UNL     1     -45.696  -0.389  10.125  1.00  0.00    -0.006 C 
HETATM    8  C   UNL     1     -45.905   2.130   7.493  1.00  0.00    -0.042 C 
HETATM    9  C   UNL     1     -48.593   1.346   8.811  1.00  0.00     0.129 C 
HETATM   10  C   UNL     1     -46.731  -1.720  12.742  1.00  0.00     0.011 C 
HETATM   11  C   UNL     1     -45.573  -0.850  12.639  1.00  0.00    -0.036 C 
HETATM   12  C   UNL     1     -45.024  -0.502  11.381  1.00  0.00     0.025 C 
HETATM   13  C   UNL     1     -47.893  -1.735  11.940  1.00  0.00     0.003 C 
HETATM   14  C   UNL     1     -46.131   0.886   8.338  1.00  0.00     0.038 C 
HETATM   15  C   UNL     1     -46.007   3.410   8.342  1.00  0.00     0.037 C 
ENDROOT
BRANCH   8  16
HETATM   16  C   UNL     1     -44.837   2.250   6.379  1.00  0.00     0.008 C 
HETATM   17  C   UNL     1     -43.427   2.300   6.999  1.00  0.00     0.023 C 
HETATM   18  C   UNL     1     -45.097   3.498   5.519  1.00  0.00     0.016 C 
HETATM   19  C   UNL     1     -44.591   3.202   4.106  1.00  0.00     0.004 C 
HETATM   20  C   UNL     1     -44.276   1.706   4.056  1.00  0.00     0.033 C 
HETATM   21  C   UNL     1     -44.935   1.135   5.313  1.00  0.00     0.130 C 
BRANCH  21  22
HETATM   22  O   UNL     1     -44.335  -0.082   5.741  1.00  0.00    -0.394 OA
ATOM     23  HO  UNL     1     -44.395  -0.767   5.086  1.00  0.00     0.210 HD
ENDBRANCH  21  22
ENDBRANCH   8  16
BRANCH  11  24
HETATM   24  C   UNL     1     -44.987  -0.378  13.871  1.00  0.00     0.008 C 
BRANCH  24  25
HETATM   25  C   UNL     1     -44.215   0.641  14.335  1.00  0.00    -0.011 C 
BRANCH  25  26
HETATM   26  C   UNL     1     -43.009   0.312  15.216  1.00  0.00     0.110 C 
HETATM   27  C   UNL     1     -42.623   1.222  16.371  1.00  0.00     0.266 C 
HETATM   28  O   UNL     1     -43.310   1.772  17.200  1.00  0.00    -0.265 OA
HETATM   29  O   UNL     1     -41.305   0.816  16.683  1.00  0.00    -0.321 OA
HETATM   30  C   UNL     1     -40.696   0.188  15.539  1.00  0.00     0.180 C 
HETATM   31  C   UNL     1     -41.697   0.433  14.421  1.00  0.00     0.045 C 
ENDBRANCH  25  26
ENDBRANCH  24  25
ENDBRANCH  11  24
TORSDOF 5
