REMARK  1 active torsions:
REMARK  status: ('A' for Active; 'I' for Inactive)
REMARK    1  A    between atoms: C_3  and  O_17 
ROOT
HETATM    1  C   UNL     1     -22.659  -1.726  -8.486  1.00  0.00     0.008 C 
HETATM    2  C   UNL     1     -22.908  -0.329  -5.376  1.00  0.00     0.013 C 
HETATM    3  C   UNL     1     -21.317  -0.818  -3.523  1.00  0.00     0.065 C 
HETATM    4  C   UNL     1     -20.294   0.079  -3.831  1.00  0.00     0.039 C 
HETATM    5  C   UNL     1     -20.582   1.235  -9.108  1.00  0.00     0.072 C 
HETATM    6  C   UNL     1     -22.231  -0.400  -8.566  1.00  0.00    -0.041 C 
HETATM    7  O   UNL     1     -20.762   2.118  -6.881  1.00  0.00    -0.344 OA
HETATM    8  C   UNL     1     -20.187   0.944  -4.855  1.00  0.00     0.040 C 
HETATM    9  C   UNL     1     -22.569   0.739  -7.673  1.00  0.00     0.084 C 
HETATM   10  C   UNL     1     -21.198  -0.081  -9.425  1.00  0.00    -0.049 C 
HETATM   11  C   UNL     1     -21.516   1.812  -8.053  1.00  0.00     0.146 C 
HETATM   12  C   UNL     1     -22.190   0.469  -6.246  1.00  0.00    -0.014 C 
HETATM   13  C   UNL     1     -21.282  -2.266 -10.396  1.00  0.00     0.001 C 
HETATM   14  C   UNL     1     -22.116  -2.662  -9.361  1.00  0.00     0.001 C 
HETATM   15  C   UNL     1     -22.569  -0.784  -4.137  1.00  0.00     0.037 C 
HETATM   16  C   UNL     1     -20.826  -0.945 -10.438  1.00  0.00     0.008 C 
HETATM   17  C   UNL     1     -21.037   1.172  -5.922  1.00  0.00     0.076 C 
ENDROOT
BRANCH   3  18
HETATM   18  O   UNL     1     -21.140  -1.628  -2.460  1.00  0.00    -0.361 OA
ATOM     19  HO  UNL     1     -21.837  -2.239  -2.250  1.00  0.00     0.217 HD
ENDBRANCH   3  18
TORSDOF 1
