MODEL 1
REMARK VINA RESULT:     -13.2      0.000      0.000
REMARK  2 active torsions:
REMARK  status: ('A' for Active; 'I' for Inactive)
REMARK    1  A    between atoms: C_12  and  C_31 
REMARK    2  A    between atoms: C_18  and  C_34 
ROOT
HETATM    1  C   UNL     1     -25.831  21.465 -21.185  1.00  0.00     0.022 C 
HETATM    2  C   UNL     1     -29.118  23.498 -16.134  1.00  0.00     0.224 C 
HETATM    3  C   UNL     1     -28.180  21.569 -17.558  1.00  0.00     0.031 C 
HETATM    4  C   UNL     1     -26.764  22.057 -20.387  1.00  0.00    -0.027 C 
HETATM    5  N   UNL     1     -28.689  24.478 -15.336  1.00  0.00    -0.361 N 
ATOM      6  HN  UNL     1     -29.293  24.746 -14.560  1.00  0.00     0.162 HD
HETATM    7  C   UNL     1     -26.968  23.791 -17.497  1.00  0.00     0.097 C 
HETATM    8  C   UNL     1     -24.833  22.918 -19.813  1.00  0.00     0.042 C 
HETATM    9  N   UNL     1     -26.794  24.009 -18.949  1.00  0.00    -0.384 N 
ATOM     10  HN  UNL     1     -27.136  24.861 -19.393  1.00  0.00     0.160 HD
HETATM   11  C   UNL     1     -26.168  23.048 -19.678  1.00  0.00     0.035 C 
HETATM   12  C   UNL     1     -27.428  25.199 -15.481  1.00  0.00     0.124 C 
HETATM   13  C   UNL     1     -24.630  22.006 -20.814  1.00  0.00    -0.023 C 
HETATM   14  C   UNL     1     -28.325  23.087 -17.363  1.00  0.00     0.108 C 
HETATM   15  C   UNL     1     -29.411  19.460 -17.326  1.00  0.00     0.042 C 
HETATM   16  C   UNL     1     -28.652  21.083 -18.917  1.00  0.00    -0.062 C 
HETATM   17  C   UNL     1     -28.208  21.649 -20.239  1.00  0.00     0.076 C 
HETATM   18  C   UNL     1     -27.024  25.210 -16.939  1.00  0.00     0.045 C 
HETATM   19  C   UNL     1     -28.845  20.649 -16.570  1.00  0.00     0.015 C 
HETATM   20  C   UNL     1     -29.359  19.915 -18.763  1.00  0.00    -0.027 C 
HETATM   21  O   UNL     1     -30.245  23.031 -15.981  1.00  0.00    -0.273 OA
ENDROOT
BRANCH  20  22
HETATM   22  C   UNL     1     -30.048  19.186 -19.856  1.00  0.00     0.054 C 
HETATM   23  N   UNL     1     -29.369  18.299 -20.610  1.00  0.00    -0.363 N 
HETATM   24  C   UNL     1     -30.058  17.281 -21.174  1.00  0.00     0.105 C 
ATOM     25  HN  UNL     1     -28.363  18.393 -20.751  1.00  0.00     0.165 HD
HETATM   26  C   UNL     1     -31.441  17.378 -21.331  1.00  0.00     0.104 C 
HETATM   27  N   UNL     1     -32.054  18.526 -20.960  1.00  0.00    -0.372 N 
HETATM   28  C   UNL     1     -31.399  19.412 -20.189  1.00  0.00     0.117 C 
ATOM     29  HN  UNL     1     -33.009  18.718 -21.262  1.00  0.00     0.164 HD
ENDBRANCH  20  22
BRANCH  13  30
HETATM   30  C   UNL     1     -23.356  21.691 -21.230  1.00  0.00    -0.026 C 
HETATM   31  C   UNL     1     -22.871  21.904 -22.515  1.00  0.00     0.012 C 
HETATM   32  C   UNL     1     -21.712  21.337 -23.013  1.00  0.00     0.001 C 
HETATM   33  C   UNL     1     -20.813  20.448 -22.502  1.00  0.00     0.000 C 
HETATM   34  C   UNL     1     -20.855  19.752 -21.310  1.00  0.00     0.000 C 
HETATM   35  C   UNL     1     -21.572  20.220 -20.208  1.00  0.00     0.001 C 
HETATM   36  C   UNL     1     -22.457  21.287 -20.238  1.00  0.00     0.012 C 
ENDBRANCH  13  30
TORSDOF 2
ENDMDL
MODEL 2
REMARK VINA RESULT:     -12.9      0.713      1.015
REMARK  2 active torsions:
REMARK  status: ('A' for Active; 'I' for Inactive)
REMARK    1  A    between atoms: C_12  and  C_31 
REMARK    2  A    between atoms: C_18  and  C_34 
ROOT
HETATM    1  C   UNL     1     -25.860  21.611 -21.322  1.00  0.00     0.022 C 
HETATM    2  C   UNL     1     -29.243  23.195 -16.174  1.00  0.00     0.224 C 
HETATM    3  C   UNL     1     -28.301  21.400 -17.761  1.00  0.00     0.031 C 
HETATM    4  C   UNL     1     -26.803  22.139 -20.492  1.00  0.00    -0.027 C 
HETATM    5  N   UNL     1     -28.818  24.082 -15.272  1.00  0.00    -0.361 N 
ATOM      6  HN  UNL     1     -29.437  24.283 -14.487  1.00  0.00     0.162 HD
HETATM    7  C   UNL     1     -27.053  23.580 -17.449  1.00  0.00     0.097 C 
HETATM    8  C   UNL     1     -24.874  22.900 -19.788  1.00  0.00     0.042 C 
HETATM    9  N   UNL     1     -26.838  23.938 -18.866  1.00  0.00    -0.384 N 
ATOM     10  HN  UNL     1     -27.153  24.837 -19.231  1.00  0.00     0.160 HD
HETATM   11  C   UNL     1     -26.209  23.043 -19.673  1.00  0.00     0.035 C 
HETATM   12  C   UNL     1     -27.541  24.789 -15.313  1.00  0.00     0.124 C 
HETATM   13  C   UNL     1     -24.660  22.089 -20.869  1.00  0.00    -0.023 C 
HETATM   14  C   UNL     1     -28.425  22.893 -17.419  1.00  0.00     0.108 C 
HETATM   15  C   UNL     1     -29.573  19.303 -17.772  1.00  0.00     0.042 C 
HETATM   16  C   UNL     1     -28.745  21.060 -19.172  1.00  0.00    -0.062 C 
HETATM   17  C   UNL     1     -28.258  21.746 -20.420  1.00  0.00     0.076 C 
HETATM   18  C   UNL     1     -27.099  24.937 -16.753  1.00  0.00     0.045 C 
HETATM   19  C   UNL     1     -29.007  20.399 -16.887  1.00  0.00     0.015 C 
HETATM   20  C   UNL     1     -29.476  19.897 -19.154  1.00  0.00    -0.027 C 
HETATM   21  O   UNL     1     -30.381  22.737 -16.096  1.00  0.00    -0.273 OA
ENDROOT
BRANCH  20  22
HETATM   22  C   UNL     1     -30.149  19.294 -20.330  1.00  0.00     0.054 C 
HETATM   23  N   UNL     1     -31.460  19.518 -20.546  1.00  0.00    -0.363 N 
HETATM   24  C   UNL     1     -31.916  19.469 -21.818  1.00  0.00     0.105 C 
ATOM     25  HN  UNL     1     -32.092  19.718 -19.770  1.00  0.00     0.165 HD
HETATM   26  C   UNL     1     -31.176  18.805 -22.798  1.00  0.00     0.104 C 
HETATM   27  N   UNL     1     -30.037  18.174 -22.431  1.00  0.00    -0.372 N 
HETATM   28  C   UNL     1     -29.485  18.438 -21.233  1.00  0.00     0.117 C 
ATOM     29  HN  UNL     1     -29.598  17.502 -23.060  1.00  0.00     0.164 HD
ENDBRANCH  20  22
BRANCH  13  30
HETATM   30  C   UNL     1     -23.381  21.792 -21.284  1.00  0.00    -0.026 C 
HETATM   31  C   UNL     1     -22.909  21.976 -22.578  1.00  0.00     0.012 C 
HETATM   32  C   UNL     1     -21.739  21.423 -23.065  1.00  0.00     0.001 C 
HETATM   33  C   UNL     1     -20.816  20.572 -22.533  1.00  0.00     0.000 C 
HETATM   34  C   UNL     1     -20.834  19.913 -21.320  1.00  0.00     0.000 C 
HETATM   35  C   UNL     1     -21.556  20.397 -20.228  1.00  0.00     0.001 C 
HETATM   36  C   UNL     1     -22.466  21.441 -20.285  1.00  0.00     0.012 C 
ENDBRANCH  13  30
TORSDOF 2
ENDMDL
MODEL 3
REMARK VINA RESULT:     -11.5      3.040      3.656
REMARK  2 active torsions:
REMARK  status: ('A' for Active; 'I' for Inactive)
REMARK    1  A    between atoms: C_12  and  C_31 
REMARK    2  A    between atoms: C_18  and  C_34 
ROOT
HETATM    1  C   UNL     1     -24.894  22.523 -22.999  1.00  0.00     0.022 C 
HETATM    2  C   UNL     1     -29.537  22.122 -18.671  1.00  0.00     0.224 C 
HETATM    3  C   UNL     1     -28.438  21.301 -20.850  1.00  0.00     0.031 C 
HETATM    4  C   UNL     1     -25.956  22.809 -22.195  1.00  0.00    -0.027 C 
HETATM    5  N   UNL     1     -29.306  22.139 -17.357  1.00  0.00    -0.361 N 
ATOM      6  HN  UNL     1     -30.116  22.086 -16.740  1.00  0.00     0.162 HD
HETATM    7  C   UNL     1     -27.006  22.312 -19.025  1.00  0.00     0.097 C 
HETATM    8  C   UNL     1     -24.300  22.290 -20.859  1.00  0.00     0.042 C 
HETATM    9  N   UNL     1     -26.237  23.282 -19.833  1.00  0.00    -0.384 N 
ATOM     10  HN  UNL     1     -26.229  24.273 -19.592  1.00  0.00     0.160 HD
HETATM   11  C   UNL     1     -25.538  22.822 -20.905  1.00  0.00     0.035 C 
HETATM   12  C   UNL     1     -27.992  22.226 -16.727  1.00  0.00     0.124 C 
HETATM   13  C   UNL     1     -23.868  22.196 -22.154  1.00  0.00    -0.023 C 
HETATM   14  C   UNL     1     -28.399  22.281 -19.666  1.00  0.00     0.108 C 
HETATM   15  C   UNL     1     -29.987  20.196 -22.398  1.00  0.00     0.042 C 
HETATM   16  C   UNL     1     -28.405  21.983 -22.205  1.00  0.00    -0.062 C 
HETATM   17  C   UNL     1     -27.386  23.006 -22.633  1.00  0.00     0.076 C 
HETATM   18  C   UNL     1     -27.046  22.967 -17.647  1.00  0.00     0.045 C 
HETATM   19  C   UNL     1     -29.582  20.326 -20.941  1.00  0.00     0.015 C 
HETATM   20  C   UNL     1     -29.294  21.365 -23.050  1.00  0.00    -0.027 C 
HETATM   21  O   UNL     1     -30.692  22.152 -19.092  1.00  0.00    -0.273 OA
ENDROOT
BRANCH  20  22
HETATM   22  C   UNL     1     -29.602  21.804 -24.433  1.00  0.00     0.054 C 
HETATM   23  N   UNL     1     -29.525  20.927 -25.454  1.00  0.00    -0.363 N 
HETATM   24  C   UNL     1     -30.304  21.139 -26.538  1.00  0.00     0.105 C 
ATOM     25  HN  UNL     1     -28.895  20.125 -25.409  1.00  0.00     0.165 HD
HETATM   26  C   UNL     1     -30.831  22.408 -26.781  1.00  0.00     0.104 C 
HETATM   27  N   UNL     1     -30.498  23.417 -25.942  1.00  0.00    -0.372 N 
HETATM   28  C   UNL     1     -29.933  23.137 -24.754  1.00  0.00     0.117 C 
ATOM     29  HN  UNL     1     -30.675  24.385 -26.209  1.00  0.00     0.164 HD
ENDBRANCH  20  22
BRANCH  13  30
HETATM   30  C   UNL     1     -22.603  21.733 -22.442  1.00  0.00    -0.026 C 
HETATM   31  C   UNL     1     -22.068  21.649 -23.721  1.00  0.00     0.012 C 
HETATM   32  C   UNL     1     -20.930  20.930 -24.043  1.00  0.00     0.001 C 
HETATM   33  C   UNL     1     -20.104  20.119 -23.323  1.00  0.00     0.000 C 
HETATM   34  C   UNL     1     -20.226  19.688 -22.016  1.00  0.00     0.000 C 
HETATM   35  C   UNL     1     -20.946  20.412 -21.065  1.00  0.00     0.001 C 
HETATM   36  C   UNL     1     -21.762  21.496 -21.350  1.00  0.00     0.012 C 
ENDBRANCH  13  30
TORSDOF 2
ENDMDL
MODEL 4
REMARK VINA RESULT:     -10.6      3.685      6.127
REMARK  2 active torsions:
REMARK  status: ('A' for Active; 'I' for Inactive)
REMARK    1  A    between atoms: C_12  and  C_31 
REMARK    2  A    between atoms: C_18  and  C_34 
ROOT
HETATM    1  C   UNL     1     -26.366  23.168 -20.884  1.00  0.00     0.022 C 
HETATM    2  C   UNL     1     -31.493  19.710 -22.374  1.00  0.00     0.224 C 
HETATM    3  C   UNL     1     -29.685  21.421 -23.033  1.00  0.00     0.031 C 
HETATM    4  C   UNL     1     -27.624  22.643 -20.910  1.00  0.00    -0.027 C 
HETATM    5  N   UNL     1     -31.608  18.417 -22.069  1.00  0.00    -0.361 N 
ATOM      6  HN  UNL     1     -32.475  17.949 -22.335  1.00  0.00     0.162 HD
HETATM    7  C   UNL     1     -29.175  19.667 -21.280  1.00  0.00     0.097 C 
HETATM    8  C   UNL     1     -26.268  20.963 -20.539  1.00  0.00     0.042 C 
HETATM    9  N   UNL     1     -28.614  20.537 -20.226  1.00  0.00    -0.384 N 
ATOM     10  HN  UNL     1     -29.006  20.537 -19.285  1.00  0.00     0.160 HD
HETATM   11  C   UNL     1     -27.562  21.339 -20.540  1.00  0.00     0.035 C 
HETATM   12  C   UNL     1     -30.599  17.613 -21.386  1.00  0.00     0.124 C 
HETATM   13  C   UNL     1     -25.529  22.109 -20.657  1.00  0.00    -0.023 C 
HETATM   14  C   UNL     1     -30.273  20.509 -21.944  1.00  0.00     0.108 C 
HETATM   15  C   UNL     1     -30.334  22.907 -24.873  1.00  0.00     0.042 C 
HETATM   16  C   UNL     1     -29.559  22.873 -22.607  1.00  0.00    -0.062 C 
HETATM   17  C   UNL     1     -28.882  23.349 -21.350  1.00  0.00     0.076 C 
HETATM   18  C   UNL     1     -29.771  18.507 -20.488  1.00  0.00     0.045 C 
HETATM   19  C   UNL     1     -30.366  21.474 -24.375  1.00  0.00     0.015 C 
HETATM   20  C   UNL     1     -29.949  23.688 -23.642  1.00  0.00    -0.027 C 
HETATM   21  O   UNL     1     -32.448  20.314 -22.857  1.00  0.00    -0.273 OA
ENDROOT
BRANCH  20  22
HETATM   22  C   UNL     1     -30.042  25.166 -23.574  1.00  0.00     0.054 C 
HETATM   23  N   UNL     1     -28.932  25.905 -23.379  1.00  0.00    -0.363 N 
HETATM   24  C   UNL     1     -28.913  27.168 -23.861  1.00  0.00     0.105 C 
ATOM     25  HN  UNL     1     -28.128  25.522 -22.880  1.00  0.00     0.165 HD
HETATM   26  C   UNL     1     -30.111  27.820 -24.157  1.00  0.00     0.104 C 
HETATM   27  N   UNL     1     -31.275  27.180 -23.899  1.00  0.00    -0.372 N 
HETATM   28  C   UNL     1     -31.269  25.857 -23.655  1.00  0.00     0.117 C 
ATOM     29  HN  UNL     1     -32.154  27.698 -23.889  1.00  0.00     0.164 HD
ENDBRANCH  20  22
BRANCH  13  30
HETATM   30  C   UNL     1     -24.152  22.064 -20.635  1.00  0.00    -0.026 C 
HETATM   31  C   UNL     1     -23.342  22.186 -21.757  1.00  0.00     0.012 C 
HETATM   32  C   UNL     1     -21.998  21.860 -21.786  1.00  0.00     0.001 C 
HETATM   33  C   UNL     1     -21.149  21.320 -20.866  1.00  0.00     0.000 C 
HETATM   34  C   UNL     1     -21.425  20.835 -19.603  1.00  0.00     0.000 C 
HETATM   35  C   UNL     1     -22.527  21.275 -18.867  1.00  0.00     0.001 C 
HETATM   36  C   UNL     1     -23.548  22.065 -19.374  1.00  0.00     0.012 C 
ENDBRANCH  13  30
TORSDOF 2
ENDMDL
MODEL 5
REMARK VINA RESULT:     -10.5      3.463      5.295
REMARK  2 active torsions:
REMARK  status: ('A' for Active; 'I' for Inactive)
REMARK    1  A    between atoms: C_12  and  C_31 
REMARK    2  A    between atoms: C_18  and  C_34 
ROOT
HETATM    1  C   UNL     1     -25.846  23.409 -21.729  1.00  0.00     0.022 C 
HETATM    2  C   UNL     1     -31.355  20.713 -20.047  1.00  0.00     0.224 C 
HETATM    3  C   UNL     1     -29.788  21.644 -21.866  1.00  0.00     0.031 C 
HETATM    4  C   UNL     1     -27.064  23.171 -21.166  1.00  0.00    -0.027 C 
HETATM    5  N   UNL     1     -31.430  19.690 -19.193  1.00  0.00    -0.361 N 
ATOM      6  HN  UNL     1     -32.360  19.334 -18.971  1.00  0.00     0.162 HD
HETATM    7  C   UNL     1     -28.809  20.650 -19.754  1.00  0.00     0.097 C 
HETATM    8  C   UNL     1     -25.757  21.541 -20.510  1.00  0.00     0.042 C 
HETATM    9  N   UNL     1     -27.876  21.736 -19.388  1.00  0.00    -0.384 N 
ATOM     10  HN  UNL     1     -27.923  22.178 -18.470  1.00  0.00     0.160 HD
HETATM   11  C   UNL     1     -26.951  22.131 -20.303  1.00  0.00     0.035 C 
HETATM   12  C   UNL     1     -30.294  19.036 -18.549  1.00  0.00     0.124 C 
HETATM   13  C   UNL     1     -25.040  22.383 -21.316  1.00  0.00    -0.023 C 
HETATM   14  C   UNL     1     -30.020  21.362 -20.372  1.00  0.00     0.108 C 
HETATM   15  C   UNL     1     -30.943  22.390 -23.897  1.00  0.00     0.042 C 
HETATM   16  C   UNL     1     -29.446  23.092 -22.165  1.00  0.00    -0.062 C 
HETATM   17  C   UNL     1     -28.356  23.880 -21.488  1.00  0.00     0.076 C 
HETATM   18  C   UNL     1     -29.163  20.031 -18.404  1.00  0.00     0.045 C 
HETATM   19  C   UNL     1     -30.882  21.301 -22.842  1.00  0.00     0.015 C 
HETATM   20  C   UNL     1     -30.119  23.498 -23.291  1.00  0.00    -0.027 C 
HETATM   21  O   UNL     1     -32.383  21.254 -20.448  1.00  0.00    -0.273 OA
ENDROOT
BRANCH  20  22
HETATM   22  C   UNL     1     -30.103  24.874 -23.845  1.00  0.00     0.054 C 
HETATM   23  N   UNL     1     -31.078  25.276 -24.683  1.00  0.00    -0.363 N 
HETATM   24  C   UNL     1     -31.379  26.594 -24.728  1.00  0.00     0.105 C 
ATOM     25  HN  UNL     1     -31.576  24.605 -25.269  1.00  0.00     0.165 HD
HETATM   26  C   UNL     1     -30.457  27.535 -24.267  1.00  0.00     0.104 C 
HETATM   27  N   UNL     1     -29.251  27.100 -23.834  1.00  0.00    -0.372 N 
HETATM   28  C   UNL     1     -29.069  25.793 -23.573  1.00  0.00     0.117 C 
ATOM     29  HN  UNL     1     -28.484  27.759 -23.706  1.00  0.00     0.164 HD
ENDBRANCH  20  22
BRANCH  13  30
HETATM   30  C   UNL     1     -23.743  22.084 -21.671  1.00  0.00    -0.026 C 
HETATM   31  C   UNL     1     -23.250  22.134 -22.969  1.00  0.00     0.012 C 
HETATM   32  C   UNL     1     -22.053  21.568 -23.368  1.00  0.00     0.001 C 
HETATM   33  C   UNL     1     -21.115  20.817 -22.725  1.00  0.00     0.000 C 
HETATM   34  C   UNL     1     -21.139  20.301 -21.444  1.00  0.00     0.000 C 
HETATM   35  C   UNL     1     -21.898  20.883 -20.428  1.00  0.00     0.001 C 
HETATM   36  C   UNL     1     -22.840  21.882 -20.622  1.00  0.00     0.012 C 
ENDBRANCH  13  30
TORSDOF 2
ENDMDL
MODEL 6
REMARK VINA RESULT:     -10.4      3.678      5.925
REMARK  2 active torsions:
REMARK  status: ('A' for Active; 'I' for Inactive)
REMARK    1  A    between atoms: C_12  and  C_31 
REMARK    2  A    between atoms: C_18  and  C_34 
ROOT
HETATM    1  C   UNL     1     -26.548  23.060 -21.210  1.00  0.00     0.022 C 
HETATM    2  C   UNL     1     -31.648  19.306 -21.803  1.00  0.00     0.224 C 
HETATM    3  C   UNL     1     -29.856  20.823 -22.862  1.00  0.00     0.031 C 
HETATM    4  C   UNL     1     -27.801  22.535 -21.103  1.00  0.00    -0.027 C 
HETATM    5  N   UNL     1     -31.752  18.123 -21.195  1.00  0.00    -0.361 N 
ATOM      6  HN  UNL     1     -32.615  17.599 -21.338  1.00  0.00     0.162 HD
HETATM    7  C   UNL     1     -29.328  19.546 -20.741  1.00  0.00     0.097 C 
HETATM    8  C   UNL     1     -26.430  21.004 -20.346  1.00  0.00     0.042 C 
HETATM    9  N   UNL     1     -28.772  20.648 -19.929  1.00  0.00    -0.384 N 
ATOM     10  HN  UNL     1     -29.162  20.870 -19.013  1.00  0.00     0.160 HD
HETATM   11  C   UNL     1     -27.728  21.359 -20.431  1.00  0.00     0.035 C 
HETATM   12  C   UNL     1     -30.734  17.515 -20.344  1.00  0.00     0.124 C 
HETATM   13  C   UNL     1     -25.701  22.094 -20.738  1.00  0.00    -0.023 C 
HETATM   14  C   UNL     1     -30.435  20.194 -21.583  1.00  0.00     0.108 C 
HETATM   15  C   UNL     1     -30.522  21.818 -25.002  1.00  0.00     0.042 C 
HETATM   16  C   UNL     1     -29.742  22.335 -22.798  1.00  0.00    -0.062 C 
HETATM   17  C   UNL     1     -29.067  23.105 -21.694  1.00  0.00     0.076 C 
HETATM   18  C   UNL     1     -29.913  18.605 -19.691  1.00  0.00     0.045 C 
HETATM   19  C   UNL     1     -30.541  20.546 -24.174  1.00  0.00     0.015 C 
HETATM   20  C   UNL     1     -30.141  22.875 -23.996  1.00  0.00    -0.027 C 
HETATM   21  O   UNL     1     -32.610  19.769 -22.413  1.00  0.00    -0.273 OA
ENDROOT
BRANCH  20  22
HETATM   22  C   UNL     1     -30.247  24.325 -24.285  1.00  0.00     0.054 C 
HETATM   23  N   UNL     1     -31.154  24.772 -25.177  1.00  0.00    -0.363 N 
HETATM   24  C   UNL     1     -31.629  26.030 -25.029  1.00  0.00     0.105 C 
ATOM     25  HN  UNL     1     -31.473  24.178 -25.942  1.00  0.00     0.165 HD
HETATM   26  C   UNL     1     -30.915  26.960 -24.271  1.00  0.00     0.104 C 
HETATM   27  N   UNL     1     -29.726  26.587 -23.744  1.00  0.00    -0.372 N 
HETATM   28  C   UNL     1     -29.397  25.284 -23.698  1.00  0.00     0.117 C 
ATOM     29  HN  UNL     1     -29.082  27.291 -23.384  1.00  0.00     0.164 HD
ENDBRANCH  20  22
BRANCH  13  30
HETATM   30  C   UNL     1     -24.324  22.066 -20.712  1.00  0.00    -0.026 C 
HETATM   31  C   UNL     1     -23.514  22.113 -21.840  1.00  0.00     0.012 C 
HETATM   32  C   UNL     1     -22.166  21.801 -21.843  1.00  0.00     0.001 C 
HETATM   33  C   UNL     1     -21.313  21.341 -20.885  1.00  0.00     0.000 C 
HETATM   34  C   UNL     1     -21.585  20.947 -19.589  1.00  0.00     0.000 C 
HETATM   35  C   UNL     1     -22.693  21.429 -18.890  1.00  0.00     0.001 C 
HETATM   36  C   UNL     1     -23.722  22.167 -19.454  1.00  0.00     0.012 C 
ENDBRANCH  13  30
TORSDOF 2
ENDMDL
