MODEL 1
REMARK VINA RESULT:      -6.7      0.000      0.000
REMARK  1 active torsions:
REMARK  status: ('A' for Active; 'I' for Inactive)
REMARK    1  A    between atoms: O_14  and  C_17 
ROOT
HETATM    1  N   UNL     1       9.548  17.491  93.931  1.00  0.00    -0.024 N 
ATOM      2  HN1 UNL     1       9.786  17.199  94.879  1.00  0.00     0.282 HD
ATOM      3  HN2 UNL     1       9.581  18.502  94.061  1.00  0.00     0.282 HD
HETATM    4  C   UNL     1      10.084  17.783  91.682  1.00  0.00     0.142 C 
HETATM    5  C   UNL     1       8.849  16.930  91.320  1.00  0.00     0.203 C 
HETATM    6  C   UNL     1       8.396  17.221  89.886  1.00  0.00     0.034 C 
HETATM    7  O   UNL     1      12.355  17.920  90.876  1.00  0.00    -0.297 OA
HETATM    8  C   UNL     1       9.531  16.897  88.921  1.00  0.00     0.010 C 
HETATM    9  C   UNL     1      11.139  17.744  90.618  1.00  0.00     0.137 C 
HETATM   10  C   UNL     1      10.676  17.872  89.187  1.00  0.00     0.079 C 
HETATM   11  N   UNL     1       7.861  17.582  92.240  1.00  0.00    -0.046 N 
ATOM     12  HN1 UNL     1       6.886  17.448  91.973  1.00  0.00     0.279 HD
ATOM     13  HN2 UNL     1       7.849  18.601  92.189  1.00  0.00     0.279 HD
HETATM   14  C   UNL     1       8.204  17.049  93.564  1.00  0.00     0.466 C 
HETATM   15  C   UNL     1      10.562  17.044  92.966  1.00  0.00     0.333 C 
ENDROOT
BRANCH  15  16
HETATM   16  O   UNL     1      11.745  17.695  93.401  1.00  0.00    -0.369 OA
ATOM     17  HO  UNL     1      12.314  16.978  93.654  1.00  0.00     0.212 HD
ENDBRANCH  15  16
TORSDOF 1
ENDMDL
MODEL 2
REMARK VINA RESULT:      -6.2      1.726      3.425
REMARK  1 active torsions:
REMARK  status: ('A' for Active; 'I' for Inactive)
REMARK    1  A    between atoms: O_14  and  C_17 
ROOT
HETATM    1  N   UNL     1       9.242  16.967  88.396  1.00  0.00    -0.024 N 
ATOM      2  HN1 UNL     1       9.274  17.245  87.415  1.00  0.00     0.282 HD
ATOM      3  HN2 UNL     1       9.566  16.004  88.303  1.00  0.00     0.282 HD
HETATM    4  C   UNL     1      10.085  17.018  90.568  1.00  0.00     0.142 C 
HETATM    5  C   UNL     1       8.697  17.490  91.051  1.00  0.00     0.203 C 
HETATM    6  C   UNL     1       8.514  17.187  92.541  1.00  0.00     0.034 C 
HETATM    7  O   UNL     1      12.365  17.622  91.084  1.00  0.00    -0.297 OA
HETATM    8  C   UNL     1       9.595  17.904  93.341  1.00  0.00     0.010 C 
HETATM    9  C   UNL     1      11.188  17.448  91.487  1.00  0.00     0.137 C 
HETATM   10  C   UNL     1      10.946  17.297  92.969  1.00  0.00     0.079 C 
HETATM   11  N   UNL     1       7.859  16.506  90.290  1.00  0.00    -0.046 N 
ATOM     12  HN1 UNL     1       6.925  16.365  90.674  1.00  0.00     0.279 HD
ATOM     13  HN2 UNL     1       8.162  15.537  90.382  1.00  0.00     0.279 HD
HETATM   14  C   UNL     1       7.876  17.017  88.914  1.00  0.00     0.466 C 
HETATM   15  C   UNL     1      10.172  17.767  89.206  1.00  0.00     0.333 C 
ENDROOT
BRANCH  15  16
HETATM   16  O   UNL     1      11.442  17.465  88.649  1.00  0.00    -0.369 OA
ATOM     17  HO  UNL     1      11.453  17.961  87.840  1.00  0.00     0.212 HD
ENDBRANCH  15  16
TORSDOF 1
ENDMDL
MODEL 3
REMARK VINA RESULT:      -5.6      2.207      2.878
REMARK  1 active torsions:
REMARK  status: ('A' for Active; 'I' for Inactive)
REMARK    1  A    between atoms: O_14  and  C_17 
ROOT
HETATM    1  N   UNL     1       9.764  17.161  93.549  1.00  0.00    -0.024 N 
ATOM      2  HN1 UNL     1       9.466  17.432  94.486  1.00  0.00     0.282 HD
ATOM      3  HN2 UNL     1       9.633  16.152  93.623  1.00  0.00     0.282 HD
HETATM    4  C   UNL     1       9.411  17.017  91.250  1.00  0.00     0.142 C 
HETATM    5  C   UNL     1      10.742  17.771  91.040  1.00  0.00     0.203 C 
HETATM    6  C   UNL     1      11.297  17.503  89.638  1.00  0.00     0.034 C 
HETATM    7  O   UNL     1       7.219  17.117  90.243  1.00  0.00    -0.297 OA
HETATM    8  C   UNL     1      10.286  17.968  88.596  1.00  0.00     0.010 C 
HETATM    9  C   UNL     1       8.465  17.195  90.101  1.00  0.00     0.137 C 
HETATM   10  C   UNL     1       9.043  17.089  88.711  1.00  0.00     0.079 C 
HETATM   11  N   UNL     1      11.583  16.993  92.008  1.00  0.00    -0.046 N 
ATOM     12  HN1 UNL     1      12.586  17.052  91.833  1.00  0.00     0.279 HD
ATOM     13  HN2 UNL     1      11.514  15.981  91.906  1.00  0.00     0.279 HD
HETATM   14  C   UNL     1      11.168  17.497  93.322  1.00  0.00     0.466 C 
HETATM   15  C   UNL     1       8.883  17.739  92.523  1.00  0.00     0.333 C 
ENDROOT
BRANCH  15  16
HETATM   16  O   UNL     1       7.614  17.177  92.821  1.00  0.00    -0.369 OA
ATOM     17  HO  UNL     1       7.781  16.644  93.589  1.00  0.00     0.212 HD
ENDBRANCH  15  16
TORSDOF 1
ENDMDL
MODEL 4
REMARK VINA RESULT:      -5.5      2.859      3.977
REMARK  1 active torsions:
REMARK  status: ('A' for Active; 'I' for Inactive)
REMARK    1  A    between atoms: O_14  and  C_17 
ROOT
HETATM    1  N   UNL     1      11.585  18.417  89.656  1.00  0.00    -0.024 N 
ATOM      2  HN1 UNL     1      12.590  18.590  89.663  1.00  0.00     0.282 HD
ATOM      3  HN2 UNL     1      11.256  19.364  89.845  1.00  0.00     0.282 HD
HETATM    4  C   UNL     1       9.591  17.972  88.535  1.00  0.00     0.142 C 
HETATM    5  C   UNL     1       9.412  16.728  89.432  1.00  0.00     0.203 C 
HETATM    6  C   UNL     1       7.941  16.307  89.481  1.00  0.00     0.034 C 
HETATM    7  O   UNL     1       9.263  18.442  86.190  1.00  0.00    -0.297 OA
HETATM    8  C   UNL     1       7.459  15.983  88.072  1.00  0.00     0.010 C 
HETATM    9  C   UNL     1       8.880  17.838  87.222  1.00  0.00     0.137 C 
HETATM   10  C   UNL     1       7.482  17.271  87.252  1.00  0.00     0.079 C 
HETATM   11  N   UNL     1       9.737  17.366  90.749  1.00  0.00    -0.046 N 
ATOM     12  HN1 UNL     1       9.374  16.864  91.559  1.00  0.00     0.279 HD
ATOM     13  HN2 UNL     1       9.239  18.238  90.929  1.00  0.00     0.279 HD
HETATM   14  C   UNL     1      11.199  17.500  90.727  1.00  0.00     0.466 C 
HETATM   15  C   UNL     1      11.134  17.950  88.337  1.00  0.00     0.333 C 
ENDROOT
BRANCH  15  16
HETATM   16  O   UNL     1      11.456  19.029  87.474  1.00  0.00    -0.369 OA
ATOM     17  HO  UNL     1      12.333  18.822  87.175  1.00  0.00     0.212 HD
ENDBRANCH  15  16
TORSDOF 1
ENDMDL
MODEL 5
REMARK VINA RESULT:      -5.4      2.774      4.288
REMARK  1 active torsions:
REMARK  status: ('A' for Active; 'I' for Inactive)
REMARK    1  A    between atoms: O_14  and  C_17 
ROOT
HETATM    1  N   UNL     1       7.048  16.808  87.398  1.00  0.00    -0.024 N 
ATOM      2  HN1 UNL     1       6.415  17.073  86.644  1.00  0.00     0.282 HD
ATOM      3  HN2 UNL     1       7.412  15.939  87.007  1.00  0.00     0.282 HD
HETATM    4  C   UNL     1       9.030  17.071  88.597  1.00  0.00     0.142 C 
HETATM    5  C   UNL     1       8.184  17.233  89.878  1.00  0.00     0.203 C 
HETATM    6  C   UNL     1       9.022  16.916  91.120  1.00  0.00     0.034 C 
HETATM    7  O   UNL     1      10.981  18.167  87.694  1.00  0.00    -0.297 OA
HETATM    8  C   UNL     1      10.215  17.864  91.182  1.00  0.00     0.010 C 
HETATM    9  C   UNL     1      10.365  17.744  88.703  1.00  0.00     0.137 C 
HETATM   10  C   UNL     1      11.125  17.563  89.993  1.00  0.00     0.079 C 
HETATM   11  N   UNL     1       7.250  16.080  89.666  1.00  0.00    -0.046 N 
ATOM     12  HN1 UNL     1       6.800  15.742  90.516  1.00  0.00     0.279 HD
ATOM     13  HN2 UNL     1       7.713  15.201  89.431  1.00  0.00     0.279 HD
HETATM   14  C   UNL     1       6.318  16.563  88.640  1.00  0.00     0.466 C 
HETATM   15  C   UNL     1       8.117  17.802  87.570  1.00  0.00     0.333 C 
ENDROOT
BRANCH  15  16
HETATM   16  O   UNL     1       8.796  17.780  86.324  1.00  0.00    -0.369 OA
ATOM     17  HO  UNL     1       9.713  17.811  86.570  1.00  0.00     0.212 HD
ENDBRANCH  15  16
TORSDOF 1
ENDMDL
MODEL 6
REMARK VINA RESULT:      -5.3      2.783      3.613
REMARK  1 active torsions:
REMARK  status: ('A' for Active; 'I' for Inactive)
REMARK    1  A    between atoms: O_14  and  C_17 
ROOT
HETATM    1  N   UNL     1      10.627  17.071  91.591  1.00  0.00    -0.024 N 
ATOM      2  HN1 UNL     1      10.632  17.215  92.600  1.00  0.00     0.282 HD
ATOM      3  HN2 UNL     1      10.579  16.051  91.573  1.00  0.00     0.282 HD
HETATM    4  C   UNL     1       9.564  17.135  89.518  1.00  0.00     0.142 C 
HETATM    5  C   UNL     1      10.717  18.023  89.001  1.00  0.00     0.203 C 
HETATM    6  C   UNL     1      10.807  17.953  87.474  1.00  0.00     0.034 C 
HETATM    7  O   UNL     1       7.163  17.144  89.267  1.00  0.00    -0.297 OA
HETATM    8  C   UNL     1       9.493  18.432  86.867  1.00  0.00     0.010 C 
HETATM    9  C   UNL     1       8.292  17.347  88.754  1.00  0.00     0.137 C 
HETATM   10  C   UNL     1       8.399  17.438  87.252  1.00  0.00     0.079 C 
HETATM   11  N   UNL     1      11.863  17.227  89.551  1.00  0.00    -0.046 N 
ATOM     12  HN1 UNL     1      12.753  17.393  89.081  1.00  0.00     0.279 HD
ATOM     13  HN2 UNL     1      11.817  16.228  89.348  1.00  0.00     0.279 HD
HETATM   14  C   UNL     1      11.865  17.552  90.982  1.00  0.00     0.466 C 
HETATM   15  C   UNL     1       9.436  17.671  90.974  1.00  0.00     0.333 C 
ENDROOT
BRANCH  15  16
HETATM   16  O   UNL     1       8.360  16.970  91.578  1.00  0.00    -0.369 OA
ATOM     17  HO  UNL     1       7.643  17.592  91.546  1.00  0.00     0.212 HD
ENDBRANCH  15  16
TORSDOF 1
ENDMDL
MODEL 7
REMARK VINA RESULT:      -5.2      3.058      4.491
REMARK  1 active torsions:
REMARK  status: ('A' for Active; 'I' for Inactive)
REMARK    1  A    between atoms: O_14  and  C_17 
ROOT
HETATM    1  N   UNL     1       7.376  17.278  87.667  1.00  0.00    -0.024 N 
ATOM      2  HN1 UNL     1       6.594  16.790  87.231  1.00  0.00     0.282 HD
ATOM      3  HN2 UNL     1       6.905  18.148  87.917  1.00  0.00     0.282 HD
HETATM    4  C   UNL     1       8.861  17.601  89.435  1.00  0.00     0.142 C 
HETATM    5  C   UNL     1      10.024  17.425  88.435  1.00  0.00     0.203 C 
HETATM    6  C   UNL     1      11.303  18.069  88.978  1.00  0.00     0.034 C 
HETATM    7  O   UNL     1       8.418  16.843  91.683  1.00  0.00    -0.297 OA
HETATM    8  C   UNL     1      11.676  17.415  90.303  1.00  0.00     0.010 C 
HETATM    9  C   UNL     1       9.253  17.248  90.838  1.00  0.00     0.137 C 
HETATM   10  C   UNL     1      10.590  17.751  91.324  1.00  0.00     0.079 C 
HETATM   11  N   UNL     1       9.506  18.315  87.345  1.00  0.00    -0.046 N 
ATOM     12  HN1 UNL     1      10.222  18.653  86.703  1.00  0.00     0.279 HD
ATOM     13  HN2 UNL     1       9.200  19.235  87.663  1.00  0.00     0.279 HD
HETATM   14  C   UNL     1       8.452  17.516  86.707  1.00  0.00     0.466 C 
HETATM   15  C   UNL     1       7.848  16.566  88.863  1.00  0.00     0.333 C 
ENDROOT
BRANCH  15  16
HETATM   16  O   UNL     1       6.719  16.575  89.723  1.00  0.00    -0.369 OA
ATOM     17  HO  UNL     1       6.198  15.844  89.413  1.00  0.00     0.212 HD
ENDBRANCH  15  16
TORSDOF 1
ENDMDL
MODEL 8
REMARK VINA RESULT:      -4.9      3.558      5.150
REMARK  1 active torsions:
REMARK  status: ('A' for Active; 'I' for Inactive)
REMARK    1  A    between atoms: O_14  and  C_17 
ROOT
HETATM    1  N   UNL     1       7.383  17.156  85.757  1.00  0.00    -0.024 N 
ATOM      2  HN1 UNL     1       6.954  17.571  84.930  1.00  0.00     0.282 HD
ATOM      3  HN2 UNL     1       7.962  16.450  85.302  1.00  0.00     0.282 HD
HETATM    4  C   UNL     1       8.894  17.221  87.530  1.00  0.00     0.142 C 
HETATM    5  C   UNL     1       7.711  16.978  88.492  1.00  0.00     0.203 C 
HETATM    6  C   UNL     1       8.207  16.397  89.820  1.00  0.00     0.034 C 
HETATM    7  O   UNL     1      10.842  18.646  87.552  1.00  0.00    -0.297 OA
HETATM    8  C   UNL     1       9.186  17.371  90.464  1.00  0.00     0.010 C 
HETATM    9  C   UNL     1      10.036  17.928  88.195  1.00  0.00     0.137 C 
HETATM   10  C   UNL     1      10.425  17.460  89.575  1.00  0.00     0.079 C 
HETATM   11  N   UNL     1       7.047  15.864  87.739  1.00  0.00    -0.046 N 
ATOM     12  HN1 UNL     1       6.431  15.282  88.307  1.00  0.00     0.279 HD
ATOM     13  HN2 UNL     1       7.678  15.113  87.458  1.00  0.00     0.279 HD
HETATM   14  C   UNL     1       6.379  16.541  86.622  1.00  0.00     0.466 C 
HETATM   15  C   UNL     1       8.208  18.138  86.476  1.00  0.00     0.333 C 
ENDROOT
BRANCH  15  16
HETATM   16  O   UNL     1       9.203  18.494  85.529  1.00  0.00    -0.369 OA
ATOM     17  HO  UNL     1       8.964  17.996  84.757  1.00  0.00     0.212 HD
ENDBRANCH  15  16
TORSDOF 1
ENDMDL
MODEL 9
REMARK VINA RESULT:      -4.8      4.162      5.657
REMARK  1 active torsions:
REMARK  status: ('A' for Active; 'I' for Inactive)
REMARK    1  A    between atoms: O_14  and  C_17 
ROOT
HETATM    1  N   UNL     1       5.719  16.237  86.188  1.00  0.00    -0.024 N 
ATOM      2  HN1 UNL     1       4.943  16.452  85.562  1.00  0.00     0.282 HD
ATOM      3  HN2 UNL     1       6.236  15.593  85.589  1.00  0.00     0.282 HD
HETATM    4  C   UNL     1       7.711  16.812  87.253  1.00  0.00     0.142 C 
HETATM    5  C   UNL     1       7.033  16.490  88.602  1.00  0.00     0.203 C 
HETATM    6  C   UNL     1       8.085  16.192  89.675  1.00  0.00     0.034 C 
HETATM    7  O   UNL     1       9.176  18.557  86.456  1.00  0.00    -0.297 OA
HETATM    8  C   UNL     1       8.992  17.405  89.845  1.00  0.00     0.010 C 
HETATM    9  C   UNL     1       8.830  17.798  87.395  1.00  0.00     0.137 C 
HETATM   10  C   UNL     1       9.780  17.598  88.551  1.00  0.00     0.079 C 
HETATM   11  N   UNL     1       6.406  15.183  88.220  1.00  0.00    -0.046 N 
ATOM     12  HN1 UNL     1       6.177  14.580  89.010  1.00  0.00     0.279 HD
ATOM     13  HN2 UNL     1       7.042  14.528  87.764  1.00  0.00     0.279 HD
HETATM   14  C   UNL     1       5.251  15.571  87.402  1.00  0.00     0.466 C 
HETATM   15  C   UNL     1       6.510  17.439  86.486  1.00  0.00     0.333 C 
ENDROOT
BRANCH  15  16
HETATM   16  O   UNL     1       6.997  17.840  85.215  1.00  0.00    -0.369 OA
ATOM     17  HO  UNL     1       7.292  18.731  85.360  1.00  0.00     0.212 HD
ENDBRANCH  15  16
TORSDOF 1
ENDMDL
