REMARK  2 active torsions:
REMARK  status: ('A' for Active; 'I' for Inactive)
REMARK    1  A    between atoms: C_1  and  C_17 
REMARK    2  A    between atoms: C_12  and  C_21 
ROOT
HETATM    1  C   UNL     1      -9.733 -28.371   3.633  1.00  0.00     0.019 C 
HETATM    2  C   UNL     1     -14.058 -28.074   1.573  1.00  0.00     0.268 C 
HETATM    3  C   UNL     1     -11.884 -27.365   1.789  1.00  0.00     0.193 C 
HETATM    4  C   UNL     1     -12.101 -28.404   2.913  1.00  0.00     0.049 C 
HETATM    5  C   UNL     1     -13.618 -28.278   3.043  1.00  0.00     0.171 C 
HETATM    6  C   UNL     1     -16.616 -30.104   2.849  1.00  0.00     0.040 C 
HETATM    7  C   UNL     1     -11.164 -27.977   4.058  1.00  0.00     0.018 C 
HETATM    8  C   UNL     1     -16.775 -30.257   0.467  1.00  0.00     0.088 C 
HETATM    9  C   UNL     1     -14.978 -29.213   1.371  1.00  0.00     0.076 C 
HETATM   10  C   UNL     1     -10.461 -27.579   1.302  1.00  0.00     0.034 C 
HETATM   11  C   UNL     1     -17.394 -30.328   1.721  1.00  0.00     0.020 C 
HETATM   12  N   UNL     1     -12.837 -27.896   0.789  1.00  0.00    -0.058 N 
ATOM     13  HN1 UNL     1     -12.945 -27.321  -0.047  1.00  0.00     0.278 HD
ATOM     14  HN2 UNL     1     -12.519 -28.731   0.296  1.00  0.00     0.278 HD
HETATM   15  C   UNL     1      -9.559 -28.472   2.137  1.00  0.00     0.011 C 
HETATM   16  C   UNL     1     -15.326 -29.659   2.632  1.00  0.00     0.094 C 
HETATM   17  O   UNL     1     -14.193 -29.547   3.456  1.00  0.00    -0.341 OA
HETATM   18  N   UNL     1     -15.541 -29.757   0.274  1.00  0.00    -0.365 N 
ATOM     19  HN  UNL     1     -15.069 -29.787  -0.630  1.00  0.00     0.165 HD
ENDROOT
BRANCH   1  20
HETATM   20  C   UNL     1      -8.639 -27.496   4.199  1.00  0.00    -0.054 C 
HETATM   21  C   UNL     1      -8.160 -27.701   5.487  1.00  0.00     0.008 C 
HETATM   22  C   UNL     1      -6.773 -27.678   5.641  1.00  0.00     0.019 C 
HETATM   23  C   UNL     1      -6.017 -27.454   4.496  1.00  0.00     0.040 C 
HETATM   24  C   UNL     1      -6.544 -26.641   3.502  1.00  0.00     0.019 C 
HETATM   25  C   UNL     1      -7.936 -26.591   3.395  1.00  0.00     0.008 C 
BRANCH  23  26
HETATM   26  C   UNL     1      -4.690 -28.137   4.317  1.00  0.00     0.209 C 
HETATM   27  O   UNL     1      -3.895 -28.097   5.290  1.00  0.00    -0.644 OA
HETATM   28  O   UNL     1      -4.404 -28.584   3.189  1.00  0.00    -0.644 OA
ENDBRANCH  23  26
ENDBRANCH   1  20
TORSDOF 2
