MODEL 1
REMARK VINA RESULT:      -8.2      0.000      0.000
REMARK  4 active torsions:
REMARK  status: ('A' for Active; 'I' for Inactive)
REMARK    1  A    between atoms: C_1  and  O_12 
REMARK    2  A    between atoms: O_7  and  C_10 
REMARK    3  A    between atoms: N_9  and  C_17 
REMARK    4  A    between atoms: C_11  and  O_19 
ROOT
HETATM    1  C   UNL     1     -20.748  -6.793  19.101  1.00  0.00     0.168 C 
HETATM    2  C   UNL     1     -19.661  -6.608  17.035  1.00  0.00     0.257 C 
HETATM    3  N   UNL     1     -19.492  -6.946  18.371  1.00  0.00    -0.299 N 
HETATM    4  C   UNL     1     -21.158  -6.518  16.726  1.00  0.00     0.240 C 
HETATM    5  C   UNL     1     -21.851  -6.845  18.045  1.00  0.00     0.174 C 
HETATM    6  O   UNL     1     -18.804  -6.048  16.369  1.00  0.00    -0.270 OA
ENDROOT
BRANCH   3   7
HETATM    7  C   UNL     1     -18.350  -7.537  18.966  1.00  0.00     0.113 C 
HETATM    8  N   UNL     1     -17.354  -6.701  19.445  1.00  0.00    -0.307 N 
HETATM    9  C   UNL     1     -16.109  -7.201  19.836  1.00  0.00     0.280 C 
ATOM     10  HN  UNL     1     -17.534  -5.700  19.515  1.00  0.00     0.170 HD
HETATM   11  C   UNL     1     -16.190  -8.579  20.391  1.00  0.00     0.134 C 
HETATM   12  O   UNL     1     -15.264  -6.421  20.289  1.00  0.00    -0.265 OA
HETATM   13  C   UNL     1     -17.206  -9.430  19.960  1.00  0.00     0.046 C 
HETATM   14  C   UNL     1     -18.329  -8.889  19.324  1.00  0.00     0.052 C 
BRANCH  11  15
HETATM   15  O   UNL     1     -15.129  -9.081  21.084  1.00  0.00    -0.356 OA
ATOM     16  HO  UNL     1     -15.127  -9.028  22.032  1.00  0.00     0.218 HD
ENDBRANCH  11  15
ENDBRANCH   3   7
BRANCH   5  17
HETATM   17  O   UNL     1     -22.914  -5.976  18.415  1.00  0.00    -0.391 OA
ATOM     18  HO  UNL     1     -22.590  -5.087  18.496  1.00  0.00     0.210 HD
ENDBRANCH   5  17
BRANCH   4  19
HETATM   19  O   UNL     1     -21.467  -5.199  16.284  1.00  0.00    -0.383 OA
ATOM     20  HO  UNL     1     -22.082  -4.802  16.890  1.00  0.00     0.210 HD
ENDBRANCH   4  19
TORSDOF 4
ENDMDL
MODEL 2
REMARK VINA RESULT:      -8.0      2.187      3.193
REMARK  4 active torsions:
REMARK  status: ('A' for Active; 'I' for Inactive)
REMARK    1  A    between atoms: C_1  and  O_12 
REMARK    2  A    between atoms: O_7  and  C_10 
REMARK    3  A    between atoms: N_9  and  C_17 
REMARK    4  A    between atoms: C_11  and  O_19 
ROOT
HETATM    1  C   UNL     1     -19.929  -7.123  19.174  1.00  0.00     0.168 C 
HETATM    2  C   UNL     1     -19.199  -9.239  19.863  1.00  0.00     0.257 C 
HETATM    3  N   UNL     1     -18.785  -7.953  19.545  1.00  0.00    -0.299 N 
HETATM    4  C   UNL     1     -20.720  -9.248  20.036  1.00  0.00     0.240 C 
HETATM    5  C   UNL     1     -21.152  -7.806  19.782  1.00  0.00     0.174 C 
HETATM    6  O   UNL     1     -18.549 -10.240  19.601  1.00  0.00    -0.270 OA
ENDROOT
BRANCH   3   7
HETATM    7  C   UNL     1     -17.488  -7.406  19.713  1.00  0.00     0.113 C 
HETATM    8  N   UNL     1     -16.458  -8.261  20.071  1.00  0.00    -0.307 N 
HETATM    9  C   UNL     1     -15.213  -7.773  20.474  1.00  0.00     0.280 C 
ATOM     10  HN  UNL     1     -16.613  -9.268  20.040  1.00  0.00     0.170 HD
HETATM   11  C   UNL     1     -14.856  -6.490  19.809  1.00  0.00     0.134 C 
HETATM   12  O   UNL     1     -14.314  -8.574  20.751  1.00  0.00    -0.265 OA
HETATM   13  C   UNL     1     -15.871  -5.627  19.399  1.00  0.00     0.046 C 
HETATM   14  C   UNL     1     -17.174  -6.118  19.268  1.00  0.00     0.052 C 
BRANCH  11  15
HETATM   15  O   UNL     1     -13.567  -6.048  19.864  1.00  0.00    -0.356 OA
ATOM     16  HO  UNL     1     -13.302  -5.320  19.315  1.00  0.00     0.218 HD
ENDBRANCH  11  15
ENDBRANCH   3   7
BRANCH   5  17
HETATM   17  O   UNL     1     -22.273  -7.641  18.923  1.00  0.00    -0.391 OA
ATOM     18  HO  UNL     1     -22.592  -8.490  18.642  1.00  0.00     0.210 HD
ENDBRANCH   5  17
BRANCH   4  19
HETATM   19  O   UNL     1     -21.297 -10.142  19.089  1.00  0.00    -0.383 OA
ATOM     20  HO  UNL     1     -22.037  -9.720  18.669  1.00  0.00     0.210 HD
ENDBRANCH   4  19
TORSDOF 4
ENDMDL
MODEL 3
REMARK VINA RESULT:      -7.8      1.618      2.768
REMARK  4 active torsions:
REMARK  status: ('A' for Active; 'I' for Inactive)
REMARK    1  A    between atoms: C_1  and  O_12 
REMARK    2  A    between atoms: O_7  and  C_10 
REMARK    3  A    between atoms: N_9  and  C_17 
REMARK    4  A    between atoms: C_11  and  O_19 
ROOT
HETATM    1  C   UNL     1     -19.804  -6.768  16.016  1.00  0.00     0.168 C 
HETATM    2  C   UNL     1     -21.376  -6.492  17.730  1.00  0.00     0.257 C 
HETATM    3  N   UNL     1     -20.104  -6.964  17.433  1.00  0.00    -0.299 N 
HETATM    4  C   UNL     1     -21.880  -5.639  16.563  1.00  0.00     0.240 C 
HETATM    5  C   UNL     1     -20.748  -5.667  15.540  1.00  0.00     0.174 C 
HETATM    6  O   UNL     1     -22.117  -7.023  18.542  1.00  0.00    -0.270 OA
ENDROOT
BRANCH   3   7
HETATM    7  C   UNL     1     -19.120  -7.409  18.351  1.00  0.00     0.113 C 
HETATM    8  N   UNL     1     -18.984  -8.773  18.555  1.00  0.00    -0.307 N 
HETATM    9  C   UNL     1     -18.204  -9.279  19.598  1.00  0.00     0.280 C 
ATOM     10  HN  UNL     1     -19.463  -9.421  17.931  1.00  0.00     0.170 HD
HETATM   11  C   UNL     1     -17.045  -8.405  19.926  1.00  0.00     0.134 C 
HETATM   12  O   UNL     1     -18.085 -10.502  19.720  1.00  0.00    -0.265 OA
HETATM   13  C   UNL     1     -17.136  -7.033  19.692  1.00  0.00     0.046 C 
HETATM   14  C   UNL     1     -18.126  -6.550  18.829  1.00  0.00     0.052 C 
BRANCH  11  15
HETATM   15  O   UNL     1     -16.037  -8.899  20.699  1.00  0.00    -0.356 OA
ATOM     16  HO  UNL     1     -15.387  -8.302  21.051  1.00  0.00     0.218 HD
ENDBRANCH  11  15
ENDBRANCH   3   7
BRANCH   5  17
HETATM   17  O   UNL     1     -21.138  -5.915  14.195  1.00  0.00    -0.391 OA
ATOM     18  HO  UNL     1     -20.966  -5.147  13.663  1.00  0.00     0.210 HD
ENDBRANCH   5  17
BRANCH   4  19
HETATM   19  O   UNL     1     -23.073  -6.217  16.040  1.00  0.00    -0.383 OA
ATOM     20  HO  UNL     1     -22.857  -7.020  15.581  1.00  0.00     0.210 HD
ENDBRANCH   4  19
TORSDOF 4
ENDMDL
MODEL 4
REMARK VINA RESULT:      -7.8      1.286      1.925
REMARK  4 active torsions:
REMARK  status: ('A' for Active; 'I' for Inactive)
REMARK    1  A    between atoms: C_1  and  O_12 
REMARK    2  A    between atoms: O_7  and  C_10 
REMARK    3  A    between atoms: N_9  and  C_17 
REMARK    4  A    between atoms: C_11  and  O_19 
ROOT
HETATM    1  C   UNL     1     -20.980  -6.761  18.871  1.00  0.00     0.168 C 
HETATM    2  C   UNL     1     -19.653  -6.525  16.955  1.00  0.00     0.257 C 
HETATM    3  N   UNL     1     -19.671  -6.990  18.264  1.00  0.00    -0.299 N 
HETATM    4  C   UNL     1     -21.089  -6.244  16.503  1.00  0.00     0.240 C 
HETATM    5  C   UNL     1     -21.955  -6.602  17.707  1.00  0.00     0.174 C 
HETATM    6  O   UNL     1     -18.674  -6.009  16.438  1.00  0.00    -0.270 OA
ENDROOT
BRANCH   3   7
HETATM    7  C   UNL     1     -18.668  -7.752  18.914  1.00  0.00     0.113 C 
HETATM    8  N   UNL     1     -18.658  -9.124  18.718  1.00  0.00    -0.307 N 
HETATM    9  C   UNL     1     -17.853  -9.964  19.492  1.00  0.00     0.280 C 
ATOM     10  HN  UNL     1     -19.250  -9.529  17.994  1.00  0.00     0.170 HD
HETATM   11  C   UNL     1     -16.587  -9.311  19.923  1.00  0.00     0.134 C 
HETATM   12  O   UNL     1     -17.851 -11.177  19.258  1.00  0.00    -0.265 OA
HETATM   13  C   UNL     1     -16.554  -7.927  20.088  1.00  0.00     0.046 C 
HETATM   14  C   UNL     1     -17.555  -7.144  19.503  1.00  0.00     0.052 C 
BRANCH  11  15
HETATM   15  O   UNL     1     -15.576 -10.080  20.419  1.00  0.00    -0.356 OA
ATOM     16  HO  UNL     1     -14.878 -10.358  19.838  1.00  0.00     0.218 HD
ENDBRANCH  11  15
ENDBRANCH   3   7
BRANCH   5  17
HETATM   17  O   UNL     1     -22.961  -5.655  18.046  1.00  0.00    -0.391 OA
ATOM     18  HO  UNL     1     -23.659  -6.085  18.525  1.00  0.00     0.210 HD
ENDBRANCH   5  17
BRANCH   4  19
HETATM   19  O   UNL     1     -21.212  -4.867  16.159  1.00  0.00    -0.383 OA
ATOM     20  HO  UNL     1     -21.505  -4.380  16.920  1.00  0.00     0.210 HD
ENDBRANCH   4  19
TORSDOF 4
ENDMDL
MODEL 5
REMARK VINA RESULT:      -7.7      3.232      4.884
REMARK  4 active torsions:
REMARK  status: ('A' for Active; 'I' for Inactive)
REMARK    1  A    between atoms: C_1  and  O_12 
REMARK    2  A    between atoms: O_7  and  C_10 
REMARK    3  A    between atoms: N_9  and  C_17 
REMARK    4  A    between atoms: C_11  and  O_19 
ROOT
HETATM    1  C   UNL     1     -16.851  -7.912  20.057  1.00  0.00     0.168 C 
HETATM    2  C   UNL     1     -14.946  -6.549  20.037  1.00  0.00     0.257 C 
HETATM    3  N   UNL     1     -15.418  -7.822  20.329  1.00  0.00    -0.299 N 
HETATM    4  C   UNL     1     -16.004  -5.795  19.228  1.00  0.00     0.240 C 
HETATM    5  C   UNL     1     -17.159  -6.782  19.078  1.00  0.00     0.174 C 
HETATM    6  O   UNL     1     -14.073  -5.991  20.684  1.00  0.00    -0.270 OA
ENDROOT
BRANCH   3   7
HETATM    7  C   UNL     1     -14.648  -8.964  20.665  1.00  0.00     0.113 C 
HETATM    8  N   UNL     1     -13.831  -8.897  21.782  1.00  0.00    -0.307 N 
HETATM    9  C   UNL     1     -12.880  -9.885  22.049  1.00  0.00     0.280 C 
ATOM     10  HN  UNL     1     -13.925  -8.109  22.423  1.00  0.00     0.170 HD
HETATM   11  C   UNL     1     -13.299 -11.230  21.571  1.00  0.00     0.134 C 
HETATM   12  O   UNL     1     -12.197  -9.800  23.075  1.00  0.00    -0.265 OA
HETATM   13  C   UNL     1     -14.155 -11.330  20.475  1.00  0.00     0.046 C 
HETATM   14  C   UNL     1     -14.896 -10.210  20.082  1.00  0.00     0.052 C 
BRANCH  11  15
HETATM   15  O   UNL     1     -12.632 -12.333  22.016  1.00  0.00    -0.356 OA
ATOM     16  HO  UNL     1     -11.725 -12.249  22.286  1.00  0.00     0.218 HD
ENDBRANCH  11  15
ENDBRANCH   3   7
BRANCH   5  17
HETATM   17  O   UNL     1     -18.455  -6.258  19.338  1.00  0.00    -0.391 OA
ATOM     18  HO  UNL     1     -18.879  -6.770  20.016  1.00  0.00     0.210 HD
ENDBRANCH   5  17
BRANCH   4  19
HETATM   19  O   UNL     1     -16.401  -4.629  19.944  1.00  0.00    -0.383 OA
ATOM     20  HO  UNL     1     -15.760  -4.443  20.619  1.00  0.00     0.210 HD
ENDBRANCH   4  19
TORSDOF 4
ENDMDL
MODEL 6
REMARK VINA RESULT:      -7.7      1.471      5.609
REMARK  4 active torsions:
REMARK  status: ('A' for Active; 'I' for Inactive)
REMARK    1  A    between atoms: C_1  and  O_12 
REMARK    2  A    between atoms: O_7  and  C_10 
REMARK    3  A    between atoms: N_9  and  C_17 
REMARK    4  A    between atoms: C_11  and  O_19 
ROOT
HETATM    1  C   UNL     1     -15.987  -8.653  20.098  1.00  0.00     0.168 C 
HETATM    2  C   UNL     1     -16.176  -6.362  19.648  1.00  0.00     0.257 C 
HETATM    3  N   UNL     1     -16.855  -7.574  19.632  1.00  0.00    -0.299 N 
HETATM    4  C   UNL     1     -14.883  -6.522  20.452  1.00  0.00     0.240 C 
HETATM    5  C   UNL     1     -14.884  -7.978  20.909  1.00  0.00     0.174 C 
HETATM    6  O   UNL     1     -16.342  -5.488  18.811  1.00  0.00    -0.270 OA
ENDROOT
BRANCH   3   7
HETATM    7  C   UNL     1     -18.237  -7.777  19.393  1.00  0.00     0.113 C 
HETATM    8  N   UNL     1     -18.849  -7.016  18.409  1.00  0.00    -0.307 N 
HETATM    9  C   UNL     1     -20.239  -6.993  18.267  1.00  0.00     0.280 C 
ATOM     10  HN  UNL     1     -18.274  -6.462  17.776  1.00  0.00     0.170 HD
HETATM   11  C   UNL     1     -20.879  -8.279  18.654  1.00  0.00     0.134 C 
HETATM   12  O   UNL     1     -20.738  -6.327  17.354  1.00  0.00    -0.265 OA
HETATM   13  C   UNL     1     -20.265  -9.087  19.610  1.00  0.00     0.046 C 
HETATM   14  C   UNL     1     -18.914  -8.886  19.911  1.00  0.00     0.052 C 
BRANCH  11  15
HETATM   15  O   UNL     1     -22.172  -8.515  18.291  1.00  0.00    -0.356 OA
ATOM     16  HO  UNL     1     -22.861  -7.967  18.648  1.00  0.00     0.218 HD
ENDBRANCH  11  15
ENDBRANCH   3   7
BRANCH   5  17
HETATM   17  O   UNL     1     -13.659  -8.680  20.735  1.00  0.00    -0.391 OA
ATOM     18  HO  UNL     1     -13.024  -8.382  21.375  1.00  0.00     0.210 HD
ENDBRANCH   5  17
BRANCH   4  19
HETATM   19  O   UNL     1     -13.769  -6.238  19.611  1.00  0.00    -0.383 OA
ATOM     20  HO  UNL     1     -13.129  -5.732  20.099  1.00  0.00     0.210 HD
ENDBRANCH   4  19
TORSDOF 4
ENDMDL
MODEL 7
REMARK VINA RESULT:      -7.6      1.734      2.167
REMARK  4 active torsions:
REMARK  status: ('A' for Active; 'I' for Inactive)
REMARK    1  A    between atoms: C_1  and  O_12 
REMARK    2  A    between atoms: O_7  and  C_10 
REMARK    3  A    between atoms: N_9  and  C_17 
REMARK    4  A    between atoms: C_11  and  O_19 
ROOT
HETATM    1  C   UNL     1     -19.968  -8.392  19.931  1.00  0.00     0.168 C 
HETATM    2  C   UNL     1     -19.785  -7.408  17.813  1.00  0.00     0.257 C 
HETATM    3  N   UNL     1     -19.143  -7.588  19.032  1.00  0.00    -0.299 N 
HETATM    4  C   UNL     1     -20.964  -8.381  17.719  1.00  0.00     0.240 C 
HETATM    5  C   UNL     1     -20.938  -9.157  19.033  1.00  0.00     0.174 C 
HETATM    6  O   UNL     1     -19.710  -6.379  17.159  1.00  0.00    -0.270 OA
ENDROOT
BRANCH   3   7
HETATM    7  C   UNL     1     -17.811  -7.232  19.357  1.00  0.00     0.113 C 
HETATM    8  N   UNL     1     -17.482  -5.887  19.392  1.00  0.00    -0.307 N 
HETATM    9  C   UNL     1     -16.153  -5.464  19.480  1.00  0.00     0.280 C 
ATOM     10  HN  UNL     1     -18.225  -5.190  19.352  1.00  0.00     0.170 HD
HETATM   11  C   UNL     1     -15.297  -6.411  20.244  1.00  0.00     0.134 C 
HETATM   12  O   UNL     1     -15.910  -4.254  19.543  1.00  0.00    -0.265 OA
HETATM   13  C   UNL     1     -15.626  -7.766  20.264  1.00  0.00     0.046 C 
HETATM   14  C   UNL     1     -16.919  -8.162  19.902  1.00  0.00     0.052 C 
BRANCH  11  15
HETATM   15  O   UNL     1     -14.069  -6.003  20.672  1.00  0.00    -0.356 OA
ATOM     16  HO  UNL     1     -13.952  -5.755  21.582  1.00  0.00     0.218 HD
ENDBRANCH  11  15
ENDBRANCH   3   7
BRANCH   5  17
HETATM   17  O   UNL     1     -22.191  -9.301  19.689  1.00  0.00    -0.391 OA
ATOM     18  HO  UNL     1     -22.856  -9.555  19.060  1.00  0.00     0.210 HD
ENDBRANCH   5  17
BRANCH   4  19
HETATM   19  O   UNL     1     -22.172  -7.641  17.571  1.00  0.00    -0.383 OA
ATOM     20  HO  UNL     1     -22.906  -8.244  17.538  1.00  0.00     0.210 HD
ENDBRANCH   4  19
TORSDOF 4
ENDMDL
MODEL 8
REMARK VINA RESULT:      -7.4      1.654      1.879
REMARK  4 active torsions:
REMARK  status: ('A' for Active; 'I' for Inactive)
REMARK    1  A    between atoms: C_1  and  O_12 
REMARK    2  A    between atoms: O_7  and  C_10 
REMARK    3  A    between atoms: N_9  and  C_17 
REMARK    4  A    between atoms: C_11  and  O_19 
ROOT
HETATM    1  C   UNL     1     -20.386  -6.753  19.060  1.00  0.00     0.168 C 
HETATM    2  C   UNL     1     -20.438  -9.018  18.471  1.00  0.00     0.257 C 
HETATM    3  N   UNL     1     -19.617  -7.985  18.904  1.00  0.00    -0.299 N 
HETATM    4  C   UNL     1     -21.901  -8.596  18.629  1.00  0.00     0.240 C 
HETATM    5  C   UNL     1     -21.842  -7.187  19.209  1.00  0.00     0.174 C 
HETATM    6  O   UNL     1     -20.071  -9.890  17.697  1.00  0.00    -0.270 OA
ENDROOT
BRANCH   3   7
HETATM    7  C   UNL     1     -18.269  -8.085  19.329  1.00  0.00     0.113 C 
HETATM    8  N   UNL     1     -17.556  -6.914  19.527  1.00  0.00    -0.307 N 
HETATM    9  C   UNL     1     -16.173  -6.927  19.725  1.00  0.00     0.280 C 
ATOM     10  HN  UNL     1     -18.051  -6.022  19.528  1.00  0.00     0.170 HD
HETATM   11  C   UNL     1     -15.704  -8.156  20.421  1.00  0.00     0.134 C 
HETATM   12  O   UNL     1     -15.585  -5.861  19.930  1.00  0.00    -0.265 OA
HETATM   13  C   UNL     1     -16.424  -9.341  20.277  1.00  0.00     0.046 C 
HETATM   14  C   UNL     1     -17.742  -9.288  19.812  1.00  0.00     0.052 C 
BRANCH  11  15
HETATM   15  O   UNL     1     -14.447  -8.183  20.949  1.00  0.00    -0.356 OA
ATOM     16  HO  UNL     1     -14.248  -8.801  21.642  1.00  0.00     0.218 HD
ENDBRANCH  11  15
ENDBRANCH   3   7
BRANCH   5  17
HETATM   17  O   UNL     1     -22.696  -6.230  18.595  1.00  0.00    -0.391 OA
ATOM     18  HO  UNL     1     -22.625  -6.296  17.650  1.00  0.00     0.210 HD
ENDBRANCH   5  17
BRANCH   4  19
HETATM   19  O   UNL     1     -22.535  -8.612  17.353  1.00  0.00    -0.383 OA
ATOM     20  HO  UNL     1     -23.040  -9.411  17.264  1.00  0.00     0.210 HD
ENDBRANCH   4  19
TORSDOF 4
ENDMDL
MODEL 9
REMARK VINA RESULT:      -7.4      1.945      2.743
REMARK  4 active torsions:
REMARK  status: ('A' for Active; 'I' for Inactive)
REMARK    1  A    between atoms: C_1  and  O_12 
REMARK    2  A    between atoms: O_7  and  C_10 
REMARK    3  A    between atoms: N_9  and  C_17 
REMARK    4  A    between atoms: C_11  and  O_19 
ROOT
HETATM    1  C   UNL     1     -20.012  -6.989  18.254  1.00  0.00     0.168 C 
HETATM    2  C   UNL     1     -19.926  -8.654  19.899  1.00  0.00     0.257 C 
HETATM    3  N   UNL     1     -19.175  -7.710  19.210  1.00  0.00    -0.299 N 
HETATM    4  C   UNL     1     -21.413  -8.383  19.661  1.00  0.00     0.240 C 
HETATM    5  C   UNL     1     -21.447  -7.162  18.746  1.00  0.00     0.174 C 
HETATM    6  O   UNL     1     -19.488  -9.742  20.240  1.00  0.00    -0.270 OA
ENDROOT
BRANCH   3   7
HETATM    7  C   UNL     1     -17.838  -7.322  19.474  1.00  0.00     0.113 C 
HETATM    8  N   UNL     1     -17.542  -5.969  19.500  1.00  0.00    -0.307 N 
HETATM    9  C   UNL     1     -16.221  -5.513  19.528  1.00  0.00     0.280 C 
ATOM     10  HN  UNL     1     -18.303  -5.291  19.498  1.00  0.00     0.170 HD
HETATM   11  C   UNL     1     -15.307  -6.441  20.248  1.00  0.00     0.134 C 
HETATM   12  O   UNL     1     -16.006  -4.297  19.584  1.00  0.00    -0.265 OA
HETATM   13  C   UNL     1     -15.601  -7.803  20.277  1.00  0.00     0.046 C 
HETATM   14  C   UNL     1     -16.898  -8.230  19.973  1.00  0.00     0.052 C 
BRANCH  11  15
HETATM   15  O   UNL     1     -14.071  -6.003  20.619  1.00  0.00    -0.356 OA
ATOM     16  HO  UNL     1     -13.967  -5.108  20.923  1.00  0.00     0.218 HD
ENDBRANCH  11  15
ENDBRANCH   3   7
BRANCH   5  17
HETATM   17  O   UNL     1     -22.331  -7.249  17.635  1.00  0.00    -0.391 OA
ATOM     18  HO  UNL     1     -22.344  -6.421  17.169  1.00  0.00     0.210 HD
ENDBRANCH   5  17
BRANCH   4  19
HETATM   19  O   UNL     1     -22.005  -9.520  19.039  1.00  0.00    -0.383 OA
ATOM     20  HO  UNL     1     -22.924  -9.345  18.876  1.00  0.00     0.210 HD
ENDBRANCH   4  19
TORSDOF 4
ENDMDL
