REMARK  2 active torsions:
REMARK  status: ('A' for Active; 'I' for Inactive)
REMARK    1  A    between atoms: N_2  and  C_18 
REMARK    2  A    between atoms: O_5  and  C_11 
ROOT
HETATM    1  C   UNL     1      18.058  35.354  35.372  1.00  0.00     0.032 A 
HETATM    2  C   UNL     1      15.614  41.469  33.457  1.00  0.00     0.033 C 
HETATM    3  N   UNL     1      12.670  40.204  35.270  1.00  0.00    -0.222 N 
ATOM      4  HN  UNL     1      12.095  39.599  35.857  1.00  0.00     0.178 HD
HETATM    5  C   UNL     1      15.083  40.130  35.409  1.00  0.00     0.018 C 
HETATM    6  C   UNL     1      17.394  40.130  34.791  1.00  0.00     0.151 C 
HETATM    7  C   UNL     1      13.928  42.295  35.160  1.00  0.00     0.051 C 
HETATM    8  C   UNL     1      14.205  42.042  33.661  1.00  0.00     0.101 C 
HETATM    9  C   UNL     1      16.153  41.012  34.807  1.00  0.00     0.025 C 
HETATM   10  C   UNL     1      18.582  34.575  36.392  1.00  0.00     0.019 A 
HETATM   11  C   UNL     1      17.135  38.896  35.654  1.00  0.00     0.062 C 
HETATM   12  C   UNL     1      18.152  38.741  36.777  1.00  0.00     0.093 C 
HETATM   13  C   UNL     1      12.377  40.404  33.959  1.00  0.00     0.668 C 
HETATM   14  C   UNL     1      15.736  39.064  36.241  1.00  0.00     0.041 C 
HETATM   15  C   UNL     1      18.557  37.304  36.699  1.00  0.00     0.038 A 
HETATM   16  N   UNL     1      19.095  36.530  37.654  1.00  0.00    -0.367 N 
ATOM     17  HN  UNL     1      19.549  36.954  38.463  1.00  0.00     0.165 HD
HETATM   18  C   UNL     1      18.015  36.732  35.530  1.00  0.00     0.051 A 
HETATM   19  N   UNL     1      17.329  37.701  34.852  1.00  0.00    -0.376 N 
ATOM     20  HN  UNL     1      16.993  37.597  33.895  1.00  0.00     0.160 HD
HETATM   21  C   UNL     1      19.032  35.193  37.539  1.00  0.00     0.088 A 
HETATM   22  C   UNL     1      13.852  40.897  35.807  1.00  0.00     0.105 C 
HETATM   23  N   UNL     1      13.183  41.125  33.130  1.00  0.00    -0.222 N 
ATOM     24  HN  UNL     1      13.076  41.027  32.120  1.00  0.00     0.178 HD
ENDROOT
BRANCH   6  25
HETATM   25  O   UNL     1      18.542  40.840  35.207  1.00  0.00    -0.393 OA
ATOM     26  HO  UNL     1      19.316  40.290  35.197  1.00  0.00     0.210 HD
ENDBRANCH   6  25
BRANCH  13  27
HETATM   27  N   UNL     1      11.296  39.853  33.439  1.00  0.00    -0.235 N 
ATOM     28  HN2 UNL     1      10.693  39.313  34.060  1.00  0.00     0.174 HD
ATOM     29  HN1 UNL     1      11.076  40.003  32.454  1.00  0.00     0.174 HD
ENDBRANCH  13  27
TORSDOF 2
