REMARK  8 active torsions:
REMARK  status: ('A' for Active; 'I' for Inactive)
REMARK    1  A    between atoms: O_3  and  C_10 
REMARK    2  A    between atoms: O_7  and  C_21 
REMARK    3  A    between atoms: O_7  and  C_25 
REMARK    4  A    between atoms: C_10  and  O_11 
REMARK    5  A    between atoms: C_10  and  C_15 
REMARK    6  A    between atoms: C_10  and  O_16 
REMARK    7  A    between atoms: C_14  and  C_19 
REMARK    8  A    between atoms: C_25  and  C_26 
ROOT
HETATM    1  C   UNL     1      15.770  41.064  33.595  1.00  0.00    -0.049 C 
HETATM    2  C   UNL     1      14.400  41.370  33.534  1.00  0.00     0.023 C 
HETATM    3  C   UNL     1      14.893  40.702  35.637  1.00  0.00     0.029 C 
HETATM    4  C   UNL     1      16.016  40.465  34.830  1.00  0.00    -0.003 C 
HETATM    5  C   UNL     1      13.873  41.072  34.805  1.00  0.00     0.034 C 
HETATM    6  C   UNL     1      16.696  41.121  32.420  1.00  0.00     0.049 C 
ENDROOT
BRANCH   4   7
HETATM    7  C   UNL     1      17.105  39.687  35.246  1.00  0.00     0.042 C 
HETATM    8  N   UNL     1      17.423  38.571  34.555  1.00  0.00    -0.363 N 
HETATM    9  C   UNL     1      17.878  37.461  35.136  1.00  0.00     0.125 C 
ATOM     10  HN  UNL     1      17.310  38.578  33.541  1.00  0.00     0.165 HD
HETATM   11  C   UNL     1      18.925  37.269  36.016  1.00  0.00     0.084 C 
HETATM   12  C   UNL     1      19.633  38.327  36.585  1.00  0.00     0.038 C 
HETATM   13  C   UNL     1      19.015  39.542  36.832  1.00  0.00     0.005 C 
HETATM   14  C   UNL     1      17.846  40.060  36.352  1.00  0.00     0.030 C 
BRANCH  11  15
HETATM   15  O   UNL     1      19.343  36.002  36.311  1.00  0.00    -0.339 OA
BRANCH  15  16
HETATM   16  C   UNL     1      18.526  35.038  36.955  1.00  0.00     0.288 C 
BRANCH  16  17
HETATM   17  C   UNL     1      19.308  34.221  37.976  1.00  0.00     0.198 C 
HETATM   18  O   UNL     1      19.166  32.962  37.936  1.00  0.00    -0.646 OA
HETATM   19  O   UNL     1      19.941  34.804  38.867  1.00  0.00    -0.646 OA
ENDBRANCH  16  17
ENDBRANCH  15  16
ENDBRANCH  11  15
ENDBRANCH   4   7
BRANCH   5  20
HETATM   20  C   UNL     1      12.459  40.839  35.233  1.00  0.00     0.307 C 
BRANCH  20  21
HETATM   21  O   UNL     1      12.047  39.559  34.885  1.00  0.00    -0.340 OA
ATOM     22  HO  UNL     1      12.077  39.376  33.953  1.00  0.00     0.216 HD
ENDBRANCH  20  21
BRANCH  20  23
HETATM   23  O   UNL     1      12.417  41.098  36.551  1.00  0.00    -0.340 OA
ATOM     24  HO  UNL     1      12.699  41.973  36.789  1.00  0.00     0.216 HD
ENDBRANCH  20  23
BRANCH  20  25
HETATM   25  O   UNL     1      11.659  41.738  34.631  1.00  0.00    -0.340 OA
ATOM     26  HO  UNL     1      11.941  42.613  34.869  1.00  0.00     0.216 HD
ENDBRANCH  20  25
ENDBRANCH   5  20
TORSDOF 8
