REMARK  1 active torsions:
REMARK  status: ('A' for Active; 'I' for Inactive)
REMARK    1  A    between atoms: C_7  and  C_12 
ROOT
HETATM    1  C   UNL     1      12.315  40.676  34.400  1.00  0.00    -0.014 C 
HETATM    2  C   UNL     1      17.155  40.363  33.338  1.00  0.00     0.014 C 
HETATM    3  C   UNL     1      11.211  39.705  33.995  1.00  0.00     0.010 C 
HETATM    4  C   UNL     1      15.130  40.475  35.264  1.00  0.00    -0.024 C 
HETATM    5  C   UNL     1      17.996  38.785  36.378  1.00  0.00     0.044 C 
HETATM    6  C   UNL     1      17.427  40.036  34.667  1.00  0.00    -0.007 C 
HETATM    7  C   UNL     1      16.399  40.034  35.614  1.00  0.00     0.050 C 
HETATM    8  N   UNL     1      16.831  39.377  36.706  1.00  0.00    -0.354 N 
ATOM      9  HN  UNL     1      16.364  39.335  37.612  1.00  0.00     0.166 HD
HETATM   10  C   UNL     1      14.115  40.956  36.286  1.00  0.00     0.042 C 
HETATM   11  C   UNL     1      14.821  40.483  33.903  1.00  0.00    -0.049 C 
HETATM   12  C   UNL     1      18.499  39.379  35.245  1.00  0.00     0.044 C 
HETATM   13  C   UNL     1      12.702  40.576  35.863  1.00  0.00     0.009 C 
HETATM   14  C   UNL     1      13.407  40.329  33.431  1.00  0.00     0.043 C 
HETATM   15  C   UNL     1      15.843  40.535  32.955  1.00  0.00     0.009 C 
ENDROOT
BRANCH   5  16
HETATM   16  C   UNL     1      18.392  37.494  36.850  1.00  0.00    -0.003 C 
HETATM   17  C   UNL     1      17.717  36.348  36.431  1.00  0.00     0.031 C 
HETATM   18  C   UNL     1      17.963  35.155  37.092  1.00  0.00     0.092 C 
HETATM   19  N   UNL     1      19.002  35.056  37.969  1.00  0.00    -0.334 N 
HETATM   20  C   UNL     1      19.826  36.122  38.263  1.00  0.00     0.245 C 
ATOM     21  HN  UNL     1      19.176  34.160  38.425  1.00  0.00     0.168 HD
HETATM   22  O   UNL     1      20.909  35.909  38.836  1.00  0.00    -0.268 OA
HETATM   23  C   UNL     1      19.424  37.384  37.785  1.00  0.00     0.088 C 
ENDBRANCH   5  16
TORSDOF 1
