MODEL 1
REMARK VINA RESULT:      -6.8      0.000      0.000
REMARK  10 active torsions:
REMARK  status: ('A' for Active; 'I' for Inactive)
REMARK    1  A    between atoms: C_1  and  C_13 
REMARK    2  A    between atoms: O_3  and  C_14 
REMARK    3  A    between atoms: C_6  and  O_7 
REMARK    4  A    between atoms: C_6  and  C_13 
REMARK    5  A    between atoms: C_6  and  O_19 
REMARK    6  A    between atoms: C_6  and  O_21 
REMARK    7  A    between atoms: C_9  and  C_30 
REMARK    8  A    between atoms: C_12  and  O_25 
REMARK    9  A    between atoms: C_14  and  O_17 
REMARK   10  A    between atoms: C_15  and  C_23 
ROOT
HETATM    1  C   UNL     1      69.778  13.550  28.727  1.00  0.00     0.197 C 
HETATM    2  C   UNL     1      70.586  18.475  27.544  1.00  0.00     0.151 C 
HETATM    3  C   UNL     1      69.923  15.475  27.349  1.00  0.00     0.161 C 
HETATM    4  C   UNL     1      69.541  17.920  26.555  1.00  0.00     0.138 C 
HETATM    5  C   UNL     1      70.125  14.711  29.657  1.00  0.00     0.217 C 
HETATM    6  C   UNL     1      71.846  16.581  28.590  1.00  0.00     0.038 C 
HETATM    7  C   UNL     1      68.933  16.573  26.943  1.00  0.00     0.070 C 
HETATM    8  O   UNL     1      69.289  14.202  27.534  1.00  0.00    -0.370 OA
HETATM    9  C   UNL     1      70.588  15.796  28.685  1.00  0.00     0.039 C 
HETATM   10  N   UNL     1      71.797  17.633  27.655  1.00  0.00    -0.387 N 
ATOM     11  HN  UNL     1      72.599  17.815  27.052  1.00  0.00     0.159 HD
ENDROOT
BRANCH   1  12
HETATM   12  C   UNL     1      70.803  12.491  28.375  1.00  0.00     0.139 C 
BRANCH  12  13
HETATM   13  C   UNL     1      71.714  12.305  27.154  1.00  0.00     0.278 C 
BRANCH  13  14
HETATM   14  O   UNL     1      72.804  13.119  27.246  1.00  0.00    -0.343 OA
ATOM     15  HO  UNL     1      73.593  12.604  27.372  1.00  0.00     0.215 HD
ENDBRANCH  13  14
BRANCH  13  16
HETATM   16  O   UNL     1      70.977  12.535  26.011  1.00  0.00    -0.343 OA
ATOM     17  HO  UNL     1      70.741  11.732  25.562  1.00  0.00     0.215 HD
ENDBRANCH  13  16
BRANCH  13  18
HETATM   18  O   UNL     1      72.120  10.994  27.137  1.00  0.00    -0.343 OA
ATOM     19  HO  UNL     1      71.941  10.596  27.980  1.00  0.00     0.215 HD
ENDBRANCH  13  18
ENDBRANCH  12  13
ENDBRANCH   1  12
BRANCH   5  20
HETATM   20  O   UNL     1      68.939  15.106  30.315  1.00  0.00    -0.360 OA
ATOM     21  HO  UNL     1      68.505  15.750  29.768  1.00  0.00     0.213 HD
ENDBRANCH   5  20
BRANCH   5  22
HETATM   22  O   UNL     1      71.055  14.381  30.644  1.00  0.00    -0.360 OA
ATOM     23  HO  UNL     1      71.957  14.532  30.387  1.00  0.00     0.213 HD
ENDBRANCH   5  22
BRANCH   6  24
HETATM   24  C   UNL     1      73.004  16.253  29.332  1.00  0.00     0.036 C 
HETATM   25  C   UNL     1      73.914  17.052  29.898  1.00  0.00     0.086 C 
BRANCH  25  26
HETATM   26  C   UNL     1      73.623  18.369  30.539  1.00  0.00     0.198 C 
HETATM   27  O   UNL     1      74.392  18.680  31.480  1.00  0.00    -0.645 OA
HETATM   28  O   UNL     1      72.686  19.109  30.207  1.00  0.00    -0.645 OA
ENDBRANCH  25  26
ENDBRANCH   6  24
BRANCH   4  29
HETATM   29  O   UNL     1      68.512  18.898  26.434  1.00  0.00    -0.394 OA
ATOM     30  HO  UNL     1      67.799  18.498  25.950  1.00  0.00     0.210 HD
ENDBRANCH   4  29
TORSDOF 10
ENDMDL
MODEL 2
REMARK VINA RESULT:      -6.7      3.512      4.873
REMARK  10 active torsions:
REMARK  status: ('A' for Active; 'I' for Inactive)
REMARK    1  A    between atoms: C_1  and  C_13 
REMARK    2  A    between atoms: O_3  and  C_14 
REMARK    3  A    between atoms: C_6  and  O_7 
REMARK    4  A    between atoms: C_6  and  C_13 
REMARK    5  A    between atoms: C_6  and  O_19 
REMARK    6  A    between atoms: C_6  and  O_21 
REMARK    7  A    between atoms: C_9  and  C_30 
REMARK    8  A    between atoms: C_12  and  O_25 
REMARK    9  A    between atoms: C_14  and  O_17 
REMARK   10  A    between atoms: C_15  and  C_23 
ROOT
HETATM    1  C   UNL     1      68.563  18.346  28.010  1.00  0.00     0.197 C 
HETATM    2  C   UNL     1      69.205  22.182  31.353  1.00  0.00     0.151 C 
HETATM    3  C   UNL     1      68.277  20.508  28.942  1.00  0.00     0.161 C 
HETATM    4  C   UNL     1      67.800  22.329  30.733  1.00  0.00     0.138 C 
HETATM    5  C   UNL     1      69.361  18.353  29.312  1.00  0.00     0.217 C 
HETATM    6  C   UNL     1      70.626  20.734  29.886  1.00  0.00     0.038 C 
HETATM    7  C   UNL     1      67.302  21.109  29.961  1.00  0.00     0.070 C 
HETATM    8  O   UNL     1      67.676  19.478  28.146  1.00  0.00    -0.370 OA
HETATM    9  C   UNL     1      69.463  19.844  29.637  1.00  0.00     0.039 C 
HETATM   10  N   UNL     1      70.278  22.018  30.348  1.00  0.00    -0.387 N 
ATOM     11  HN  UNL     1      70.766  22.838  29.988  1.00  0.00     0.159 HD
ENDROOT
BRANCH   1  12
HETATM   12  C   UNL     1      69.256  18.368  26.663  1.00  0.00     0.139 C 
BRANCH  12  13
HETATM   13  C   UNL     1      70.356  17.485  26.056  1.00  0.00     0.278 C 
BRANCH  13  14
HETATM   14  O   UNL     1      70.161  17.335  24.716  1.00  0.00    -0.343 OA
ATOM     15  HO  UNL     1      70.340  16.439  24.452  1.00  0.00     0.215 HD
ENDBRANCH  13  14
BRANCH  13  16
HETATM   16  O   UNL     1      70.378  16.279  26.727  1.00  0.00    -0.343 OA
ATOM     17  HO  UNL     1      70.795  16.343  27.578  1.00  0.00     0.215 HD
ENDBRANCH  13  16
BRANCH  13  18
HETATM   18  O   UNL     1      71.557  18.112  26.277  1.00  0.00    -0.343 OA
ATOM     19  HO  UNL     1      72.136  17.956  25.541  1.00  0.00     0.215 HD
ENDBRANCH  13  18
ENDBRANCH  12  13
ENDBRANCH   1  12
BRANCH   5  20
HETATM   20  O   UNL     1      68.595  17.682  30.291  1.00  0.00    -0.360 OA
ATOM     21  HO  UNL     1      67.864  17.266  29.852  1.00  0.00     0.213 HD
ENDBRANCH   5  20
BRANCH   5  22
HETATM   22  O   UNL     1      70.588  17.694  29.223  1.00  0.00    -0.360 OA
ATOM     23  HO  UNL     1      70.601  16.995  28.579  1.00  0.00     0.213 HD
ENDBRANCH   5  22
BRANCH   6  24
HETATM   24  C   UNL     1      71.957  20.339  29.618  1.00  0.00     0.036 C 
HETATM   25  C   UNL     1      72.936  20.001  30.463  1.00  0.00     0.086 C 
BRANCH  25  26
HETATM   26  C   UNL     1      72.750  19.253  31.742  1.00  0.00     0.198 C 
HETATM   27  O   UNL     1      72.337  18.076  31.611  1.00  0.00    -0.645 OA
HETATM   28  O   UNL     1      72.955  19.738  32.863  1.00  0.00    -0.645 OA
ENDBRANCH  25  26
ENDBRANCH   6  24
BRANCH   4  29
HETATM   29  O   UNL     1      66.900  22.631  31.795  1.00  0.00    -0.394 OA
ATOM     30  HO  UNL     1      66.312  21.890  31.885  1.00  0.00     0.210 HD
ENDBRANCH   4  29
TORSDOF 10
ENDMDL
MODEL 3
REMARK VINA RESULT:      -6.6      2.932      4.678
REMARK  10 active torsions:
REMARK  status: ('A' for Active; 'I' for Inactive)
REMARK    1  A    between atoms: C_1  and  C_13 
REMARK    2  A    between atoms: O_3  and  C_14 
REMARK    3  A    between atoms: C_6  and  O_7 
REMARK    4  A    between atoms: C_6  and  C_13 
REMARK    5  A    between atoms: C_6  and  O_19 
REMARK    6  A    between atoms: C_6  and  O_21 
REMARK    7  A    between atoms: C_9  and  C_30 
REMARK    8  A    between atoms: C_12  and  O_25 
REMARK    9  A    between atoms: C_14  and  O_17 
REMARK   10  A    between atoms: C_15  and  C_23 
ROOT
HETATM    1  C   UNL     1      70.103  18.540  27.885  1.00  0.00     0.197 C 
HETATM    2  C   UNL     1      73.105  19.376  31.958  1.00  0.00     0.151 C 
HETATM    3  C   UNL     1      71.680  19.674  29.247  1.00  0.00     0.161 C 
HETATM    4  C   UNL     1      72.712  20.748  31.376  1.00  0.00     0.138 C 
HETATM    5  C   UNL     1      70.228  17.715  29.164  1.00  0.00     0.217 C 
HETATM    6  C   UNL     1      72.768  17.597  30.229  1.00  0.00     0.038 C 
HETATM    7  C   UNL     1      71.568  20.718  30.363  1.00  0.00     0.070 C 
HETATM    8  O   UNL     1      70.660  19.822  28.250  1.00  0.00    -0.370 OA
HETATM    9  C   UNL     1      71.510  18.259  29.794  1.00  0.00     0.039 C 
HETATM   10  N   UNL     1      73.640  18.438  30.947  1.00  0.00    -0.387 N 
ATOM     11  HN  UNL     1      74.644  18.401  30.769  1.00  0.00     0.159 HD
ENDROOT
BRANCH   1  12
HETATM   12  C   UNL     1      70.691  18.054  26.576  1.00  0.00     0.139 C 
BRANCH  12  13
HETATM   13  C   UNL     1      70.222  16.998  25.566  1.00  0.00     0.278 C 
BRANCH  13  14
HETATM   14  O   UNL     1      68.960  17.279  25.134  1.00  0.00    -0.343 OA
ATOM     15  HO  UNL     1      68.345  17.241  25.858  1.00  0.00     0.215 HD
ENDBRANCH  13  14
BRANCH  13  16
HETATM   16  O   UNL     1      70.315  15.751  26.151  1.00  0.00    -0.343 OA
ATOM     17  HO  UNL     1      70.867  15.157  25.657  1.00  0.00     0.215 HD
ENDBRANCH  13  16
BRANCH  13  18
HETATM   18  O   UNL     1      71.089  17.030  24.502  1.00  0.00    -0.343 OA
ATOM     19  HO  UNL     1      71.239  17.931  24.243  1.00  0.00     0.215 HD
ENDBRANCH  13  18
ENDBRANCH  12  13
ENDBRANCH   1  12
BRANCH   5  20
HETATM   20  O   UNL     1      69.111  18.010  29.978  1.00  0.00    -0.360 OA
ATOM     21  HO  UNL     1      69.051  17.334  30.644  1.00  0.00     0.213 HD
ENDBRANCH   5  20
BRANCH   5  22
HETATM   22  O   UNL     1      70.228  16.336  28.946  1.00  0.00    -0.360 OA
ATOM     23  HO  UNL     1      69.799  15.840  29.633  1.00  0.00     0.213 HD
ENDBRANCH   5  22
BRANCH   6  24
HETATM   24  C   UNL     1      73.078  16.260  29.891  1.00  0.00     0.036 C 
HETATM   25  C   UNL     1      73.998  15.781  29.048  1.00  0.00     0.086 C 
BRANCH  25  26
HETATM   26  C   UNL     1      75.351  16.372  28.823  1.00  0.00     0.198 C 
HETATM   27  O   UNL     1      75.749  16.344  27.633  1.00  0.00    -0.645 OA
HETATM   28  O   UNL     1      76.061  16.839  29.724  1.00  0.00    -0.645 OA
ENDBRANCH  25  26
ENDBRANCH   6  24
BRANCH   4  29
HETATM   29  O   UNL     1      72.365  21.589  32.473  1.00  0.00    -0.394 OA
ATOM     30  HO  UNL     1      72.998  22.297  32.496  1.00  0.00     0.210 HD
ENDBRANCH   4  29
TORSDOF 10
ENDMDL
MODEL 4
REMARK VINA RESULT:      -6.5      2.494      5.828
REMARK  10 active torsions:
REMARK  status: ('A' for Active; 'I' for Inactive)
REMARK    1  A    between atoms: C_1  and  C_13 
REMARK    2  A    between atoms: O_3  and  C_14 
REMARK    3  A    between atoms: C_6  and  O_7 
REMARK    4  A    between atoms: C_6  and  C_13 
REMARK    5  A    between atoms: C_6  and  O_19 
REMARK    6  A    between atoms: C_6  and  O_21 
REMARK    7  A    between atoms: C_9  and  C_30 
REMARK    8  A    between atoms: C_12  and  O_25 
REMARK    9  A    between atoms: C_14  and  O_17 
REMARK   10  A    between atoms: C_15  and  C_23 
ROOT
HETATM    1  C   UNL     1      71.654  20.391  29.553  1.00  0.00     0.197 C 
HETATM    2  C   UNL     1      67.371  17.668  28.811  1.00  0.00     0.151 C 
HETATM    3  C   UNL     1      69.334  19.898  29.616  1.00  0.00     0.161 C 
HETATM    4  C   UNL     1      66.991  19.162  28.769  1.00  0.00     0.138 C 
HETATM    5  C   UNL     1      71.489  19.040  28.860  1.00  0.00     0.217 C 
HETATM    6  C   UNL     1      69.576  17.391  29.964  1.00  0.00     0.038 C 
HETATM    7  C   UNL     1      68.169  20.127  28.647  1.00  0.00     0.070 C 
HETATM    8  O   UNL     1      70.317  20.940  29.552  1.00  0.00    -0.370 OA
HETATM    9  C   UNL     1      70.085  18.610  29.284  1.00  0.00     0.039 C 
HETATM   10  N   UNL     1      68.172  17.297  29.999  1.00  0.00    -0.387 N 
ATOM     11  HN  UNL     1      67.704  16.973  30.845  1.00  0.00     0.159 HD
ENDROOT
BRANCH   1  12
HETATM   12  C   UNL     1      72.275  20.498  30.931  1.00  0.00     0.139 C 
BRANCH  12  13
HETATM   13  C   UNL     1      73.317  19.638  31.659  1.00  0.00     0.278 C 
BRANCH  13  14
HETATM   14  O   UNL     1      74.402  19.426  30.860  1.00  0.00    -0.343 OA
ATOM     15  HO  UNL     1      74.126  19.179  29.985  1.00  0.00     0.215 HD
ENDBRANCH  13  14
BRANCH  13  16
HETATM   16  O   UNL     1      72.720  18.461  32.062  1.00  0.00    -0.343 OA
ATOM     17  HO  UNL     1      72.338  18.525  32.930  1.00  0.00     0.215 HD
ENDBRANCH  13  16
BRANCH  13  18
HETATM   18  O   UNL     1      73.703  20.322  32.784  1.00  0.00    -0.343 OA
ATOM     19  HO  UNL     1      74.545  20.734  32.632  1.00  0.00     0.215 HD
ENDBRANCH  13  18
ENDBRANCH  12  13
ENDBRANCH   1  12
BRANCH   5  20
HETATM   20  O   UNL     1      71.542  19.261  27.465  1.00  0.00    -0.360 OA
ATOM     21  HO  UNL     1      72.364  18.908  27.146  1.00  0.00     0.213 HD
ENDBRANCH   5  20
BRANCH   5  22
HETATM   22  O   UNL     1      72.496  18.123  29.171  1.00  0.00    -0.360 OA
ATOM     23  HO  UNL     1      72.177  17.241  29.321  1.00  0.00     0.213 HD
ENDBRANCH   5  22
BRANCH   6  24
HETATM   24  C   UNL     1      70.435  16.448  30.575  1.00  0.00     0.036 C 
HETATM   25  C   UNL     1      70.880  15.274  30.117  1.00  0.00     0.086 C 
BRANCH  25  26
HETATM   26  C   UNL     1      71.225  14.979  28.695  1.00  0.00     0.198 C 
HETATM   27  O   UNL     1      72.444  15.080  28.415  1.00  0.00    -0.645 OA
HETATM   28  O   UNL     1      70.393  14.680  27.828  1.00  0.00    -0.645 OA
ENDBRANCH  25  26
ENDBRANCH   6  24
BRANCH   4  29
HETATM   29  O   UNL     1      66.103  19.341  27.669  1.00  0.00    -0.394 OA
ATOM     30  HO  UNL     1      65.762  20.226  27.723  1.00  0.00     0.210 HD
ENDBRANCH   4  29
TORSDOF 10
ENDMDL
MODEL 5
REMARK VINA RESULT:      -6.5      3.261      6.401
REMARK  10 active torsions:
REMARK  status: ('A' for Active; 'I' for Inactive)
REMARK    1  A    between atoms: C_1  and  C_13 
REMARK    2  A    between atoms: O_3  and  C_14 
REMARK    3  A    between atoms: C_6  and  O_7 
REMARK    4  A    between atoms: C_6  and  C_13 
REMARK    5  A    between atoms: C_6  and  O_19 
REMARK    6  A    between atoms: C_6  and  O_21 
REMARK    7  A    between atoms: C_9  and  C_30 
REMARK    8  A    between atoms: C_12  and  O_25 
REMARK    9  A    between atoms: C_14  and  O_17 
REMARK   10  A    between atoms: C_15  and  C_23 
ROOT
HETATM    1  C   UNL     1      72.043  20.565  29.330  1.00  0.00     0.197 C 
HETATM    2  C   UNL     1      66.919  20.773  29.405  1.00  0.00     0.151 C 
HETATM    3  C   UNL     1      69.876  20.846  30.254  1.00  0.00     0.161 C 
HETATM    4  C   UNL     1      67.443  21.724  30.500  1.00  0.00     0.138 C 
HETATM    5  C   UNL     1      71.064  20.418  28.167  1.00  0.00     0.217 C 
HETATM    6  C   UNL     1      68.706  19.133  28.786  1.00  0.00     0.038 C 
HETATM    7  C   UNL     1      68.935  22.045  30.419  1.00  0.00     0.070 C 
HETATM    8  O   UNL     1      71.259  21.214  30.356  1.00  0.00    -0.370 OA
HETATM    9  C   UNL     1      69.726  20.210  28.875  1.00  0.00     0.039 C 
HETATM   10  N   UNL     1      67.509  19.418  29.470  1.00  0.00    -0.387 N 
ATOM     11  HN  UNL     1      67.046  18.689  30.013  1.00  0.00     0.159 HD
ENDROOT
BRANCH   1  12
HETATM   12  C   UNL     1      72.778  19.367  29.895  1.00  0.00     0.139 C 
BRANCH  12  13
HETATM   13  C   UNL     1      73.473  19.128  31.243  1.00  0.00     0.278 C 
BRANCH  13  14
HETATM   14  O   UNL     1      74.599  18.379  31.072  1.00  0.00    -0.343 OA
ATOM     15  HO  UNL     1      74.449  17.485  31.355  1.00  0.00     0.215 HD
ENDBRANCH  13  14
BRANCH  13  16
HETATM   16  O   UNL     1      72.573  18.541  32.109  1.00  0.00    -0.343 OA
ATOM     17  HO  UNL     1      72.357  17.650  31.860  1.00  0.00     0.215 HD
ENDBRANCH  13  16
BRANCH  13  18
HETATM   18  O   UNL     1      73.812  20.355  31.756  1.00  0.00    -0.343 OA
ATOM     19  HO  UNL     1      74.529  20.722  31.254  1.00  0.00     0.215 HD
ENDBRANCH  13  18
ENDBRANCH  12  13
ENDBRANCH   1  12
BRANCH   5  20
HETATM   20  O   UNL     1      71.062  21.635  27.448  1.00  0.00    -0.360 OA
ATOM     21  HO  UNL     1      71.512  21.486  26.625  1.00  0.00     0.213 HD
ENDBRANCH   5  20
BRANCH   5  22
HETATM   22  O   UNL     1      71.409  19.408  27.267  1.00  0.00    -0.360 OA
ATOM     23  HO  UNL     1      70.875  18.626  27.347  1.00  0.00     0.213 HD
ENDBRANCH   5  22
BRANCH   6  24
HETATM   24  C   UNL     1      68.951  17.907  28.125  1.00  0.00     0.036 C 
HETATM   25  C   UNL     1      69.653  16.843  28.526  1.00  0.00     0.086 C 
BRANCH  25  26
HETATM   26  C   UNL     1      69.727  16.340  29.930  1.00  0.00     0.198 C 
HETATM   27  O   UNL     1      68.943  15.397  30.196  1.00  0.00    -0.645 OA
HETATM   28  O   UNL     1      70.476  16.812  30.796  1.00  0.00    -0.645 OA
ENDBRANCH  25  26
ENDBRANCH   6  24
BRANCH   4  29
HETATM   29  O   UNL     1      66.685  22.927  30.413  1.00  0.00    -0.394 OA
ATOM     30  HO  UNL     1      66.870  23.317  29.567  1.00  0.00     0.210 HD
ENDBRANCH   4  29
TORSDOF 10
ENDMDL
MODEL 6
REMARK VINA RESULT:      -6.5      2.650      5.954
REMARK  10 active torsions:
REMARK  status: ('A' for Active; 'I' for Inactive)
REMARK    1  A    between atoms: C_1  and  C_13 
REMARK    2  A    between atoms: O_3  and  C_14 
REMARK    3  A    between atoms: C_6  and  O_7 
REMARK    4  A    between atoms: C_6  and  C_13 
REMARK    5  A    between atoms: C_6  and  O_19 
REMARK    6  A    between atoms: C_6  and  O_21 
REMARK    7  A    between atoms: C_9  and  C_30 
REMARK    8  A    between atoms: C_12  and  O_25 
REMARK    9  A    between atoms: C_14  and  O_17 
REMARK   10  A    between atoms: C_15  and  C_23 
ROOT
HETATM    1  C   UNL     1      71.717  19.321  29.235  1.00  0.00     0.197 C 
HETATM    2  C   UNL     1      66.873  18.191  27.986  1.00  0.00     0.151 C 
HETATM    3  C   UNL     1      69.349  19.414  29.344  1.00  0.00     0.161 C 
HETATM    4  C   UNL     1      66.894  19.636  28.524  1.00  0.00     0.138 C 
HETATM    5  C   UNL     1      71.206  18.410  28.121  1.00  0.00     0.217 C 
HETATM    6  C   UNL     1      68.931  16.981  28.739  1.00  0.00     0.038 C 
HETATM    7  C   UNL     1      68.282  20.262  28.643  1.00  0.00     0.070 C 
HETATM    8  O   UNL     1      70.569  20.135  29.564  1.00  0.00    -0.370 OA
HETATM    9  C   UNL     1      69.739  18.205  28.498  1.00  0.00     0.039 C 
HETATM   10  N   UNL     1      67.551  17.222  28.876  1.00  0.00    -0.387 N 
ATOM     11  HN  UNL     1      67.016  16.728  29.590  1.00  0.00     0.159 HD
ENDROOT
BRANCH   1  12
HETATM   12  C   UNL     1      72.346  18.752  30.490  1.00  0.00     0.139 C 
BRANCH  12  13
HETATM   13  C   UNL     1      73.469  19.266  31.402  1.00  0.00     0.278 C 
BRANCH  13  14
HETATM   14  O   UNL     1      73.050  19.300  32.699  1.00  0.00    -0.343 OA
ATOM     15  HO  UNL     1      72.162  19.635  32.753  1.00  0.00     0.215 HD
ENDBRANCH  13  14
BRANCH  13  16
HETATM   16  O   UNL     1      73.881  20.502  30.947  1.00  0.00    -0.343 OA
ATOM     17  HO  UNL     1      74.748  20.476  30.558  1.00  0.00     0.215 HD
ENDBRANCH  13  16
BRANCH  13  18
HETATM   18  O   UNL     1      74.526  18.399  31.284  1.00  0.00    -0.343 OA
ATOM     19  HO  UNL     1      74.428  17.884  30.492  1.00  0.00     0.215 HD
ENDBRANCH  13  18
ENDBRANCH  12  13
ENDBRANCH   1  12
BRANCH   5  20
HETATM   20  O   UNL     1      71.312  19.116  26.902  1.00  0.00    -0.360 OA
ATOM     21  HO  UNL     1      70.465  19.503  26.717  1.00  0.00     0.213 HD
ENDBRANCH   5  20
BRANCH   5  22
HETATM   22  O   UNL     1      71.939  17.230  27.980  1.00  0.00    -0.360 OA
ATOM     23  HO  UNL     1      72.256  16.876  28.803  1.00  0.00     0.213 HD
ENDBRANCH   5  22
BRANCH   6  24
HETATM   24  C   UNL     1      69.515  15.701  28.881  1.00  0.00     0.036 C 
HETATM   25  C   UNL     1      69.553  14.677  28.023  1.00  0.00     0.086 C 
BRANCH  25  26
HETATM   26  C   UNL     1      69.679  14.800  26.541  1.00  0.00     0.198 C 
HETATM   27  O   UNL     1      68.872  14.102  25.881  1.00  0.00    -0.645 OA
HETATM   28  O   UNL     1      70.523  15.510  25.974  1.00  0.00    -0.645 OA
ENDBRANCH  25  26
ENDBRANCH   6  24
BRANCH   4  29
HETATM   29  O   UNL     1      66.082  20.421  27.655  1.00  0.00    -0.394 OA
ATOM     30  HO  UNL     1      66.665  20.978  27.152  1.00  0.00     0.210 HD
ENDBRANCH   4  29
TORSDOF 10
ENDMDL
MODEL 7
REMARK VINA RESULT:      -6.5      3.383      6.570
REMARK  10 active torsions:
REMARK  status: ('A' for Active; 'I' for Inactive)
REMARK    1  A    between atoms: C_1  and  C_13 
REMARK    2  A    between atoms: O_3  and  C_14 
REMARK    3  A    between atoms: C_6  and  O_7 
REMARK    4  A    between atoms: C_6  and  C_13 
REMARK    5  A    between atoms: C_6  and  O_19 
REMARK    6  A    between atoms: C_6  and  O_21 
REMARK    7  A    between atoms: C_9  and  C_30 
REMARK    8  A    between atoms: C_12  and  O_25 
REMARK    9  A    between atoms: C_14  and  O_17 
REMARK   10  A    between atoms: C_15  and  C_23 
ROOT
HETATM    1  C   UNL     1      68.083  20.341  29.122  1.00  0.00     0.197 C 
HETATM    2  C   UNL     1      71.273  16.327  29.262  1.00  0.00     0.151 C 
HETATM    3  C   UNL     1      68.923  18.235  29.819  1.00  0.00     0.161 C 
HETATM    4  C   UNL     1      69.864  15.820  29.633  1.00  0.00     0.138 C 
HETATM    5  C   UNL     1      69.323  20.076  28.269  1.00  0.00     0.217 C 
HETATM    6  C   UNL     1      71.388  18.808  29.582  1.00  0.00     0.038 C 
HETATM    7  C   UNL     1      68.726  16.795  29.332  1.00  0.00     0.070 C 
HETATM    8  O   UNL     1      67.747  19.039  29.650  1.00  0.00    -0.370 OA
HETATM    9  C   UNL     1      70.017  18.943  29.025  1.00  0.00     0.039 C 
HETATM   10  N   UNL     1      71.695  17.512  30.041  1.00  0.00    -0.387 N 
ATOM     11  HN  UNL     1      72.211  17.390  30.912  1.00  0.00     0.159 HD
ENDROOT
BRANCH   1  12
HETATM   12  C   UNL     1      68.095  21.379  30.225  1.00  0.00     0.139 C 
BRANCH  12  13
HETATM   13  C   UNL     1      67.004  21.875  31.183  1.00  0.00     0.278 C 
BRANCH  13  14
HETATM   14  O   UNL     1      66.062  22.589  30.504  1.00  0.00    -0.343 OA
ATOM     15  HO  UNL     1      65.461  22.004  30.056  1.00  0.00     0.215 HD
ENDBRANCH  13  14
BRANCH  13  16
HETATM   16  O   UNL     1      67.597  22.607  32.192  1.00  0.00    -0.343 OA
ATOM     17  HO  UNL     1      67.928  23.444  31.889  1.00  0.00     0.215 HD
ENDBRANCH  13  16
BRANCH  13  18
HETATM   18  O   UNL     1      66.421  20.770  31.752  1.00  0.00    -0.343 OA
ATOM     19  HO  UNL     1      65.606  20.576  31.304  1.00  0.00     0.215 HD
ENDBRANCH  13  18
ENDBRANCH  12  13
ENDBRANCH   1  12
BRANCH   5  20
HETATM   20  O   UNL     1      68.887  19.633  27.000  1.00  0.00    -0.360 OA
ATOM     21  HO  UNL     1      69.627  19.227  26.565  1.00  0.00     0.213 HD
ENDBRANCH   5  20
BRANCH   5  22
HETATM   22  O   UNL     1      70.115  21.207  28.063  1.00  0.00    -0.360 OA
ATOM     23  HO  UNL     1      70.627  21.175  27.264  1.00  0.00     0.213 HD
ENDBRANCH   5  22
BRANCH   6  24
HETATM   24  C   UNL     1      72.273  19.904  29.696  1.00  0.00     0.036 C 
HETATM   25  C   UNL     1      72.869  20.415  30.778  1.00  0.00     0.086 C 
BRANCH  25  26
HETATM   26  C   UNL     1      73.368  19.623  31.941  1.00  0.00     0.198 C 
HETATM   27  O   UNL     1      74.222  18.749  31.658  1.00  0.00    -0.645 OA
HETATM   28  O   UNL     1      72.970  19.776  33.105  1.00  0.00    -0.645 OA
ENDBRANCH  25  26
ENDBRANCH   6  24
BRANCH   4  29
HETATM   29  O   UNL     1      69.655  14.601  28.926  1.00  0.00    -0.394 OA
ATOM     30  HO  UNL     1      68.821  14.675  28.477  1.00  0.00     0.210 HD
ENDBRANCH   4  29
TORSDOF 10
ENDMDL
MODEL 8
REMARK VINA RESULT:      -6.4      2.491      4.380
REMARK  10 active torsions:
REMARK  status: ('A' for Active; 'I' for Inactive)
REMARK    1  A    between atoms: C_1  and  C_13 
REMARK    2  A    between atoms: O_3  and  C_14 
REMARK    3  A    between atoms: C_6  and  O_7 
REMARK    4  A    between atoms: C_6  and  C_13 
REMARK    5  A    between atoms: C_6  and  O_19 
REMARK    6  A    between atoms: C_6  and  O_21 
REMARK    7  A    between atoms: C_9  and  C_30 
REMARK    8  A    between atoms: C_12  and  O_25 
REMARK    9  A    between atoms: C_14  and  O_17 
REMARK   10  A    between atoms: C_15  and  C_23 
ROOT
HETATM    1  C   UNL     1      73.376  16.341  30.280  1.00  0.00     0.197 C 
HETATM    2  C   UNL     1      68.993  17.383  27.829  1.00  0.00     0.151 C 
HETATM    3  C   UNL     1      71.735  16.200  28.572  1.00  0.00     0.161 C 
HETATM    4  C   UNL     1      69.392  15.934  27.481  1.00  0.00     0.138 C 
HETATM    5  C   UNL     1      72.230  17.250  30.719  1.00  0.00     0.217 C 
HETATM    6  C   UNL     1      70.992  18.628  28.678  1.00  0.00     0.038 C 
HETATM    7  C   UNL     1      70.487  15.335  28.363  1.00  0.00     0.070 C 
HETATM    8  O   UNL     1      72.778  15.502  29.267  1.00  0.00    -0.370 OA
HETATM    9  C   UNL     1      71.423  17.423  29.432  1.00  0.00     0.039 C 
HETATM   10  N   UNL     1      70.087  18.358  27.633  1.00  0.00    -0.387 N 
ATOM     11  HN  UNL     1      70.186  18.837  26.738  1.00  0.00     0.159 HD
ENDROOT
BRANCH   1  12
HETATM   12  C   UNL     1      74.691  16.914  29.792  1.00  0.00     0.139 C 
BRANCH  12  13
HETATM   13  C   UNL     1      75.864  16.290  29.024  1.00  0.00     0.278 C 
BRANCH  13  14
HETATM   14  O   UNL     1      77.021  16.956  29.297  1.00  0.00    -0.343 OA
ATOM     15  HO  UNL     1      77.156  17.658  28.671  1.00  0.00     0.215 HD
ENDBRANCH  13  14
BRANCH  13  16
HETATM   16  O   UNL     1      75.561  16.286  27.677  1.00  0.00    -0.343 OA
ATOM     17  HO  UNL     1      75.730  17.124  27.263  1.00  0.00     0.215 HD
ENDBRANCH  13  16
BRANCH  13  18
HETATM   18  O   UNL     1      75.978  14.985  29.433  1.00  0.00    -0.343 OA
ATOM     19  HO  UNL     1      76.860  14.826  29.746  1.00  0.00     0.215 HD
ENDBRANCH  13  18
ENDBRANCH  12  13
ENDBRANCH   1  12
BRANCH   5  20
HETATM   20  O   UNL     1      71.474  16.553  31.689  1.00  0.00    -0.360 OA
ATOM     21  HO  UNL     1      72.045  16.374  32.426  1.00  0.00     0.213 HD
ENDBRANCH   5  20
BRANCH   5  22
HETATM   22  O   UNL     1      72.653  18.445  31.304  1.00  0.00    -0.360 OA
ATOM     23  HO  UNL     1      73.538  18.411  31.647  1.00  0.00     0.213 HD
ENDBRANCH   5  22
BRANCH   6  24
HETATM   24  C   UNL     1      71.500  19.919  28.953  1.00  0.00     0.036 C 
HETATM   25  C   UNL     1      70.865  21.092  29.023  1.00  0.00     0.086 C 
BRANCH  25  26
HETATM   26  C   UNL     1      69.485  21.294  29.558  1.00  0.00     0.198 C 
HETATM   27  O   UNL     1      69.410  22.054  30.553  1.00  0.00    -0.645 OA
HETATM   28  O   UNL     1      68.476  20.747  29.093  1.00  0.00    -0.645 OA
ENDBRANCH  25  26
ENDBRANCH   6  24
BRANCH   4  29
HETATM   29  O   UNL     1      68.213  15.139  27.567  1.00  0.00    -0.394 OA
ATOM     30  HO  UNL     1      68.476  14.277  27.867  1.00  0.00     0.210 HD
ENDBRANCH   4  29
TORSDOF 10
ENDMDL
MODEL 9
REMARK VINA RESULT:      -6.4      4.236      6.854
REMARK  10 active torsions:
REMARK  status: ('A' for Active; 'I' for Inactive)
REMARK    1  A    between atoms: C_1  and  C_13 
REMARK    2  A    between atoms: O_3  and  C_14 
REMARK    3  A    between atoms: C_6  and  O_7 
REMARK    4  A    between atoms: C_6  and  C_13 
REMARK    5  A    between atoms: C_6  and  O_19 
REMARK    6  A    between atoms: C_6  and  O_21 
REMARK    7  A    between atoms: C_9  and  C_30 
REMARK    8  A    between atoms: C_12  and  O_25 
REMARK    9  A    between atoms: C_14  and  O_17 
REMARK   10  A    between atoms: C_15  and  C_23 
ROOT
HETATM    1  C   UNL     1      71.967  20.599  29.292  1.00  0.00     0.197 C 
HETATM    2  C   UNL     1      66.849  20.831  29.530  1.00  0.00     0.151 C 
HETATM    3  C   UNL     1      69.834  20.936  30.274  1.00  0.00     0.161 C 
HETATM    4  C   UNL     1      67.412  21.835  30.556  1.00  0.00     0.138 C 
HETATM    5  C   UNL     1      70.949  20.396  28.172  1.00  0.00     0.217 C 
HETATM    6  C   UNL     1      68.610  19.153  28.937  1.00  0.00     0.038 C 
HETATM    7  C   UNL     1      68.901  22.145  30.408  1.00  0.00     0.070 C 
HETATM    8  O   UNL     1      71.220  21.302  30.309  1.00  0.00    -0.370 OA
HETATM    9  C   UNL     1      69.635  20.229  28.935  1.00  0.00     0.039 C 
HETATM   10  N   UNL     1      67.437  19.479  29.645  1.00  0.00    -0.387 N 
ATOM     11  HN  UNL     1      66.992  18.780  30.241  1.00  0.00     0.159 HD
ENDROOT
BRANCH   1  12
HETATM   12  C   UNL     1      72.718  19.428  29.894  1.00  0.00     0.139 C 
BRANCH  12  13
HETATM   13  C   UNL     1      73.424  19.244  31.243  1.00  0.00     0.278 C 
BRANCH  13  14
HETATM   14  O   UNL     1      72.598  18.625  32.133  1.00  0.00    -0.343 OA
ATOM     15  HO  UNL     1      71.856  18.237  31.683  1.00  0.00     0.215 HD
ENDBRANCH  13  14
BRANCH  13  16
HETATM   16  O   UNL     1      73.857  20.475  31.691  1.00  0.00    -0.343 OA
ATOM     17  HO  UNL     1      74.363  20.415  32.493  1.00  0.00     0.215 HD
ENDBRANCH  13  16
BRANCH  13  18
HETATM   18  O   UNL     1      74.532  18.462  31.026  1.00  0.00    -0.343 OA
ATOM     19  HO  UNL     1      75.311  18.935  31.294  1.00  0.00     0.215 HD
ENDBRANCH  13  18
ENDBRANCH  12  13
ENDBRANCH   1  12
BRANCH   5  20
HETATM   20  O   UNL     1      70.925  21.573  27.392  1.00  0.00    -0.360 OA
ATOM     21  HO  UNL     1      70.018  21.771  27.193  1.00  0.00     0.213 HD
ENDBRANCH   5  20
BRANCH   5  22
HETATM   22  O   UNL     1      71.260  19.338  27.315  1.00  0.00    -0.360 OA
ATOM     23  HO  UNL     1      70.516  19.013  26.823  1.00  0.00     0.213 HD
ENDBRANCH   5  22
BRANCH   6  24
HETATM   24  C   UNL     1      68.830  17.894  28.332  1.00  0.00     0.036 C 
HETATM   25  C   UNL     1      68.342  17.396  27.191  1.00  0.00     0.086 C 
BRANCH  25  26
HETATM   26  C   UNL     1      68.085  18.182  25.948  1.00  0.00     0.198 C 
HETATM   27  O   UNL     1      67.097  17.801  25.276  1.00  0.00    -0.645 OA
HETATM   28  O   UNL     1      68.790  19.128  25.569  1.00  0.00    -0.645 OA
ENDBRANCH  25  26
ENDBRANCH   6  24
BRANCH   4  29
HETATM   29  O   UNL     1      66.654  23.035  30.432  1.00  0.00    -0.394 OA
ATOM     30  HO  UNL     1      67.216  23.682  30.022  1.00  0.00     0.210 HD
ENDBRANCH   4  29
TORSDOF 10
ENDMDL
