MODEL 1
REMARK VINA RESULT:      -9.1      0.000      0.000
REMARK  5 active torsions:
REMARK  status: ('A' for Active; 'I' for Inactive)
REMARK    1  A    between atoms: N_4  and  C_31 
REMARK    2  A    between atoms: C_5  and  N_20 
REMARK    3  A    between atoms: N_12  and  C_15 
REMARK    4  A    between atoms: N_12  and  C_29 
REMARK    5  A    between atoms: C_19  and  C_25 
ROOT
HETATM    1  C   UNL     1       4.680  36.368  26.867  1.00  0.00     0.051 C 
HETATM    2  N   UNL     1       8.172  36.274  28.256  1.00  0.00    -0.315 N 
HETATM    3  C   UNL     1       6.434  37.699  28.479  1.00  0.00     0.062 C 
HETATM    4  C   UNL     1       7.595  38.303  29.029  1.00  0.00     0.049 C 
HETATM    5  C   UNL     1       5.875  35.734  27.197  1.00  0.00     0.036 C 
HETATM    6  C   UNL     1       8.625  37.473  28.770  1.00  0.00     0.100 C 
HETATM    7  C   UNL     1       6.802  36.443  27.972  1.00  0.00     0.066 C 
HETATM    8  C   UNL     1       4.320  37.578  27.476  1.00  0.00     0.106 C 
HETATM    9  N   UNL     1       5.167  38.215  28.332  1.00  0.00    -0.341 N 
ATOM     10  HN  UNL     1       4.873  39.045  28.845  1.00  0.00     0.167 HD
ENDROOT
BRANCH   8  11
HETATM   11  N   UNL     1       3.094  38.156  27.242  1.00  0.00    -0.339 N 
ATOM     12  HN  UNL     1       2.355  37.828  27.863  1.00  0.00     0.168 HD
BRANCH  11  13
HETATM   13  C   UNL     1       2.683  39.088  26.334  1.00  0.00     0.182 C 
HETATM   14  N   UNL     1       2.601  38.971  24.997  1.00  0.00    -0.351 N 
ATOM     15  HN  UNL     1       2.731  39.808  24.428  1.00  0.00     0.166 HD
BRANCH  14  16
HETATM   16  C   UNL     1       2.348  37.757  24.346  1.00  0.00     0.050 C 
HETATM   17  C   UNL     1       1.187  37.013  24.576  1.00  0.00     0.030 C 
HETATM   18  C   UNL     1       1.184  35.645  24.329  1.00  0.00     0.002 C 
HETATM   19  C   UNL     1       2.311  35.041  23.800  1.00  0.00     0.001 C 
HETATM   20  C   UNL     1       3.389  35.819  23.400  1.00  0.00     0.021 C 
HETATM   21  C   UNL     1       3.291  37.216  23.464  1.00  0.00     0.067 C 
BRANCH  21  22
HETATM   22  C   UNL     1       4.125  38.068  22.548  1.00  0.00     0.211 C 
HETATM   23  O   UNL     1       5.101  38.702  23.019  1.00  0.00    -0.644 OA
HETATM   24  O   UNL     1       3.820  38.180  21.352  1.00  0.00    -0.644 OA
ENDBRANCH  21  22
ENDBRANCH  14  16
ENDBRANCH  11  13
ENDBRANCH   8  11
BRANCH   2  25
HETATM   25  C   UNL     1       9.011  35.139  28.203  1.00  0.00     0.110 C 
HETATM   26  C   UNL     1       9.202  34.346  26.986  1.00  0.00     0.275 C 
HETATM   27  N   UNL     1       9.565  33.010  27.171  1.00  0.00    -0.287 N 
HETATM   28  O   UNL     1       8.979  34.748  25.846  1.00  0.00    -0.266 OA
HETATM   29  C   UNL     1      10.225  32.585  28.335  1.00  0.00     0.274 C 
ATOM     30  HN  UNL     1       9.344  32.328  26.445  1.00  0.00     0.172 HD
HETATM   31  C   UNL     1       9.812  33.302  29.531  1.00  0.00     0.097 C 
HETATM   32  O   UNL     1      10.703  31.466  28.396  1.00  0.00    -0.266 OA
HETATM   33  C   UNL     1       9.621  34.676  29.373  1.00  0.00     0.070 C 
HETATM   34  N   UNL     1       9.614  32.642  30.681  1.00  0.00    -0.395 N 
ATOM     35  HN2 UNL     1       9.324  33.145  31.520  1.00  0.00     0.156 HD
ATOM     36  HN1 UNL     1       9.754  31.638  30.797  1.00  0.00     0.156 HD
ENDBRANCH   2  25
TORSDOF 5
ENDMDL
MODEL 2
REMARK VINA RESULT:      -9.0      1.773      2.175
REMARK  5 active torsions:
REMARK  status: ('A' for Active; 'I' for Inactive)
REMARK    1  A    between atoms: N_4  and  C_31 
REMARK    2  A    between atoms: C_5  and  N_20 
REMARK    3  A    between atoms: N_12  and  C_15 
REMARK    4  A    between atoms: N_12  and  C_29 
REMARK    5  A    between atoms: C_19  and  C_25 
ROOT
HETATM    1  C   UNL     1       6.488  36.628  24.956  1.00  0.00     0.051 C 
HETATM    2  N   UNL     1       8.633  35.948  27.967  1.00  0.00    -0.315 N 
HETATM    3  C   UNL     1       7.068  37.500  27.475  1.00  0.00     0.062 C 
HETATM    4  C   UNL     1       7.736  37.884  28.668  1.00  0.00     0.049 C 
HETATM    5  C   UNL     1       7.299  35.825  25.755  1.00  0.00     0.036 C 
HETATM    6  C   UNL     1       8.734  36.997  28.858  1.00  0.00     0.100 C 
HETATM    7  C   UNL     1       7.648  36.304  27.024  1.00  0.00     0.066 C 
HETATM    8  C   UNL     1       5.858  37.761  25.487  1.00  0.00     0.106 C 
HETATM    9  N   UNL     1       6.096  38.165  26.765  1.00  0.00    -0.341 N 
ATOM     10  HN  UNL     1       5.572  38.934  27.183  1.00  0.00     0.167 HD
ENDROOT
BRANCH   8  11
HETATM   11  N   UNL     1       4.968  38.497  24.740  1.00  0.00    -0.339 N 
ATOM     12  HN  UNL     1       4.581  39.304  25.230  1.00  0.00     0.168 HD
BRANCH  11  13
HETATM   13  C   UNL     1       4.505  38.350  23.464  1.00  0.00     0.182 C 
HETATM   14  N   UNL     1       3.579  37.488  23.008  1.00  0.00    -0.351 N 
ATOM     15  HN  UNL     1       3.653  37.163  22.043  1.00  0.00     0.166 HD
BRANCH  14  16
HETATM   16  C   UNL     1       2.517  37.016  23.790  1.00  0.00     0.050 C 
HETATM   17  C   UNL     1       1.343  37.750  23.979  1.00  0.00     0.030 C 
HETATM   18  C   UNL     1       0.558  37.517  25.102  1.00  0.00     0.002 C 
HETATM   19  C   UNL     1       0.912  36.517  25.992  1.00  0.00     0.001 C 
HETATM   20  C   UNL     1       1.971  35.672  25.694  1.00  0.00     0.021 C 
HETATM   21  C   UNL     1       2.621  35.790  24.458  1.00  0.00     0.067 C 
BRANCH  21  22
HETATM   22  C   UNL     1       3.325  34.601  23.865  1.00  0.00     0.211 C 
HETATM   23  O   UNL     1       4.560  34.667  23.644  1.00  0.00    -0.644 OA
HETATM   24  O   UNL     1       2.683  33.589  23.553  1.00  0.00    -0.644 OA
ENDBRANCH  21  22
ENDBRANCH  14  16
ENDBRANCH  11  13
ENDBRANCH   8  11
BRANCH   2  25
HETATM   25  C   UNL     1       9.356  34.750  28.165  1.00  0.00     0.110 C 
HETATM   26  C   UNL     1       9.620  33.792  27.089  1.00  0.00     0.275 C 
HETATM   27  N   UNL     1       9.824  32.466  27.480  1.00  0.00    -0.287 N 
HETATM   28  O   UNL     1       9.584  34.058  25.890  1.00  0.00    -0.266 OA
HETATM   29  C   UNL     1      10.286  32.144  28.766  1.00  0.00     0.274 C 
ATOM     30  HN  UNL     1       9.631  31.716  26.816  1.00  0.00     0.172 HD
HETATM   31  C   UNL     1       9.798  33.043  29.800  1.00  0.00     0.097 C 
HETATM   32  O   UNL     1      10.640  31.008  29.025  1.00  0.00    -0.266 OA
HETATM   33  C   UNL     1       9.764  34.396  29.455  1.00  0.00     0.070 C 
HETATM   34  N   UNL     1       9.391  32.557  30.982  1.00  0.00    -0.395 N 
ATOM     35  HN2 UNL     1       9.049  33.188  31.707  1.00  0.00     0.156 HD
ATOM     36  HN1 UNL     1       9.415  31.569  31.234  1.00  0.00     0.156 HD
ENDBRANCH   2  25
TORSDOF 5
ENDMDL
MODEL 3
REMARK VINA RESULT:      -8.9      2.026      2.702
REMARK  5 active torsions:
REMARK  status: ('A' for Active; 'I' for Inactive)
REMARK    1  A    between atoms: N_4  and  C_31 
REMARK    2  A    between atoms: C_5  and  N_20 
REMARK    3  A    between atoms: N_12  and  C_15 
REMARK    4  A    between atoms: N_12  and  C_29 
REMARK    5  A    between atoms: C_19  and  C_25 
ROOT
HETATM    1  C   UNL     1       5.924  36.127  25.020  1.00  0.00     0.051 C 
HETATM    2  N   UNL     1       8.445  35.994  27.807  1.00  0.00    -0.315 N 
HETATM    3  C   UNL     1       6.766  37.408  27.278  1.00  0.00     0.062 C 
HETATM    4  C   UNL     1       7.555  37.996  28.302  1.00  0.00     0.049 C 
HETATM    5  C   UNL     1       6.861  35.484  25.827  1.00  0.00     0.036 C 
HETATM    6  C   UNL     1       8.607  37.176  28.502  1.00  0.00     0.100 C 
HETATM    7  C   UNL     1       7.339  36.170  26.951  1.00  0.00     0.066 C 
HETATM    8  C   UNL     1       5.314  37.316  25.442  1.00  0.00     0.106 C 
HETATM    9  N   UNL     1       5.687  37.927  26.601  1.00  0.00    -0.341 N 
ATOM     10  HN  UNL     1       5.183  38.740  26.955  1.00  0.00     0.167 HD
ENDROOT
BRANCH   8  11
HETATM   11  N   UNL     1       4.309  37.901  24.706  1.00  0.00    -0.339 N 
ATOM     12  HN  UNL     1       4.281  37.604  23.731  1.00  0.00     0.168 HD
BRANCH  11  13
HETATM   13  C   UNL     1       3.341  38.804  25.039  1.00  0.00     0.182 C 
HETATM   14  N   UNL     1       2.204  38.593  25.725  1.00  0.00    -0.351 N 
ATOM     15  HN  UNL     1       1.396  39.181  25.517  1.00  0.00     0.166 HD
BRANCH  14  16
HETATM   16  C   UNL     1       2.073  37.608  26.711  1.00  0.00     0.050 C 
HETATM   17  C   UNL     1       2.372  37.849  28.055  1.00  0.00     0.030 C 
HETATM   18  C   UNL     1       2.711  36.789  28.887  1.00  0.00     0.002 C 
HETATM   19  C   UNL     1       2.690  35.496  28.395  1.00  0.00     0.001 C 
HETATM   20  C   UNL     1       2.210  35.252  27.116  1.00  0.00     0.021 C 
HETATM   21  C   UNL     1       1.677  36.309  26.367  1.00  0.00     0.067 C 
BRANCH  21  22
HETATM   22  C   UNL     1       0.660  36.031  25.295  1.00  0.00     0.211 C 
HETATM   23  O   UNL     1       0.993  36.145  24.089  1.00  0.00    -0.644 OA
HETATM   24  O   UNL     1      -0.505  35.741  25.601  1.00  0.00    -0.644 OA
ENDBRANCH  21  22
ENDBRANCH  14  16
ENDBRANCH  11  13
ENDBRANCH   8  11
BRANCH   2  25
HETATM   25  C   UNL     1       9.238  34.862  28.097  1.00  0.00     0.110 C 
HETATM   26  C   UNL     1       9.593  33.858  27.091  1.00  0.00     0.275 C 
HETATM   27  N   UNL     1       9.871  32.576  27.571  1.00  0.00    -0.287 N 
HETATM   28  O   UNL     1       9.572  34.046  25.877  1.00  0.00    -0.266 OA
HETATM   29  C   UNL     1      10.319  32.366  28.885  1.00  0.00     0.274 C 
ATOM     30  HN  UNL     1       9.746  31.774  26.953  1.00  0.00     0.172 HD
HETATM   31  C   UNL     1       9.746  33.293  29.848  1.00  0.00     0.097 C 
HETATM   32  O   UNL     1      10.738  31.274  29.224  1.00  0.00    -0.266 OA
HETATM   33  C   UNL     1       9.634  34.617  29.416  1.00  0.00     0.070 C 
HETATM   34  N   UNL     1       9.340  32.857  31.049  1.00  0.00    -0.395 N 
ATOM     35  HN2 UNL     1       8.938  33.507  31.725  1.00  0.00     0.156 HD
ATOM     36  HN1 UNL     1       9.421  31.890  31.365  1.00  0.00     0.156 HD
ENDBRANCH   2  25
TORSDOF 5
ENDMDL
MODEL 4
REMARK VINA RESULT:      -8.9      2.886      4.121
REMARK  5 active torsions:
REMARK  status: ('A' for Active; 'I' for Inactive)
REMARK    1  A    between atoms: N_4  and  C_31 
REMARK    2  A    between atoms: C_5  and  N_20 
REMARK    3  A    between atoms: N_12  and  C_15 
REMARK    4  A    between atoms: N_12  and  C_29 
REMARK    5  A    between atoms: C_19  and  C_25 
ROOT
HETATM    1  C   UNL     1       5.048  36.564  26.613  1.00  0.00     0.051 C 
HETATM    2  N   UNL     1       8.397  36.185  28.277  1.00  0.00    -0.315 N 
HETATM    3  C   UNL     1       6.738  37.709  28.423  1.00  0.00     0.062 C 
HETATM    4  C   UNL     1       7.884  38.213  29.095  1.00  0.00     0.049 C 
HETATM    5  C   UNL     1       6.170  35.840  27.010  1.00  0.00     0.036 C 
HETATM    6  C   UNL     1       8.879  37.328  28.882  1.00  0.00     0.100 C 
HETATM    7  C   UNL     1       7.069  36.454  27.890  1.00  0.00     0.066 C 
HETATM    8  C   UNL     1       4.713  37.768  27.247  1.00  0.00     0.106 C 
HETATM    9  N   UNL     1       5.522  38.312  28.198  1.00  0.00    -0.341 N 
ATOM     10  HN  UNL     1       5.238  39.139  28.724  1.00  0.00     0.167 HD
ENDROOT
BRANCH   8  11
HETATM   11  N   UNL     1       3.549  38.435  26.941  1.00  0.00    -0.339 N 
ATOM     12  HN  UNL     1       3.367  38.516  25.941  1.00  0.00     0.168 HD
BRANCH  11  13
HETATM   13  C   UNL     1       2.592  39.009  27.726  1.00  0.00     0.182 C 
HETATM   14  N   UNL     1       1.779  38.416  28.619  1.00  0.00    -0.351 N 
ATOM     15  HN  UNL     1       0.859  38.824  28.782  1.00  0.00     0.166 HD
BRANCH  14  16
HETATM   16  C   UNL     1       2.134  37.267  29.336  1.00  0.00     0.050 C 
HETATM   17  C   UNL     1       1.978  35.980  28.812  1.00  0.00     0.030 C 
HETATM   18  C   UNL     1       1.859  34.896  29.673  1.00  0.00     0.002 C 
HETATM   19  C   UNL     1       1.958  35.089  31.040  1.00  0.00     0.001 C 
HETATM   20  C   UNL     1       2.302  36.339  31.537  1.00  0.00     0.021 C 
HETATM   21  C   UNL     1       2.623  37.371  30.644  1.00  0.00     0.067 C 
BRANCH  21  22
HETATM   22  C   UNL     1       3.524  38.490  31.086  1.00  0.00     0.211 C 
HETATM   23  O   UNL     1       3.057  39.652  31.184  1.00  0.00    -0.644 OA
HETATM   24  O   UNL     1       4.725  38.275  31.300  1.00  0.00    -0.644 OA
ENDBRANCH  21  22
ENDBRANCH  14  16
ENDBRANCH  11  13
ENDBRANCH   8  11
BRANCH   2  25
HETATM   25  C   UNL     1       9.166  35.000  28.239  1.00  0.00     0.110 C 
HETATM   26  C   UNL     1       9.326  34.192  27.027  1.00  0.00     0.275 C 
HETATM   27  N   UNL     1       9.604  32.837  27.222  1.00  0.00    -0.287 N 
HETATM   28  O   UNL     1       9.144  34.603  25.883  1.00  0.00    -0.266 OA
HETATM   29  C   UNL     1      10.220  32.377  28.396  1.00  0.00     0.274 C 
ATOM     30  HN  UNL     1       9.353  32.168  26.494  1.00  0.00     0.172 HD
HETATM   31  C   UNL     1       9.835  33.122  29.584  1.00  0.00     0.097 C 
HETATM   32  O   UNL     1      10.628  31.231  28.467  1.00  0.00    -0.266 OA
HETATM   33  C   UNL     1       9.730  34.505  29.419  1.00  0.00     0.070 C 
HETATM   34  N   UNL     1       9.580  32.480  30.733  1.00  0.00    -0.395 N 
ATOM     35  HN2 UNL     1       9.310  33.002  31.566  1.00  0.00     0.156 HD
ATOM     36  HN1 UNL     1       9.656  31.469  30.854  1.00  0.00     0.156 HD
ENDBRANCH   2  25
TORSDOF 5
ENDMDL
MODEL 5
REMARK VINA RESULT:      -8.8      1.291      1.954
REMARK  5 active torsions:
REMARK  status: ('A' for Active; 'I' for Inactive)
REMARK    1  A    between atoms: N_4  and  C_31 
REMARK    2  A    between atoms: C_5  and  N_20 
REMARK    3  A    between atoms: N_12  and  C_15 
REMARK    4  A    between atoms: N_12  and  C_29 
REMARK    5  A    between atoms: C_19  and  C_25 
ROOT
HETATM    1  C   UNL     1       4.792  36.413  26.725  1.00  0.00     0.051 C 
HETATM    2  N   UNL     1       8.216  36.234  28.266  1.00  0.00    -0.315 N 
HETATM    3  C   UNL     1       6.488  37.676  28.449  1.00  0.00     0.062 C 
HETATM    4  C   UNL     1       7.631  38.250  29.067  1.00  0.00     0.049 C 
HETATM    5  C   UNL     1       5.963  35.754  27.091  1.00  0.00     0.036 C 
HETATM    6  C   UNL     1       8.662  37.412  28.832  1.00  0.00     0.100 C 
HETATM    7  C   UNL     1       6.863  36.429  27.926  1.00  0.00     0.066 C 
HETATM    8  C   UNL     1       4.421  37.611  27.351  1.00  0.00     0.106 C 
HETATM    9  N   UNL     1       5.236  38.213  28.260  1.00  0.00    -0.341 N 
ATOM     10  HN  UNL     1       4.930  39.034  28.782  1.00  0.00     0.167 HD
ENDROOT
BRANCH   8  11
HETATM   11  N   UNL     1       3.214  38.213  27.078  1.00  0.00    -0.339 N 
ATOM     12  HN  UNL     1       3.141  39.171  27.419  1.00  0.00     0.168 HD
BRANCH  11  13
HETATM   13  C   UNL     1       2.096  37.767  26.435  1.00  0.00     0.182 C 
HETATM   14  N   UNL     1       1.739  37.955  25.152  1.00  0.00    -0.351 N 
ATOM     15  HN  UNL     1       0.745  37.988  24.925  1.00  0.00     0.166 HD
BRANCH  14  16
HETATM   16  C   UNL     1       2.665  38.110  24.113  1.00  0.00     0.050 C 
HETATM   17  C   UNL     1       3.368  39.301  23.908  1.00  0.00     0.030 C 
HETATM   18  C   UNL     1       3.869  39.597  22.647  1.00  0.00     0.002 C 
HETATM   19  C   UNL     1       3.723  38.683  21.617  1.00  0.00     0.001 C 
HETATM   20  C   UNL     1       3.192  37.428  21.880  1.00  0.00     0.021 C 
HETATM   21  C   UNL     1       2.885  37.072  23.200  1.00  0.00     0.067 C 
BRANCH  21  22
HETATM   22  C   UNL     1       2.878  35.623  23.603  1.00  0.00     0.211 C 
HETATM   23  O   UNL     1       1.801  35.096  23.978  1.00  0.00    -0.644 OA
HETATM   24  O   UNL     1       3.932  34.974  23.613  1.00  0.00    -0.644 OA
ENDBRANCH  21  22
ENDBRANCH  14  16
ENDBRANCH  11  13
ENDBRANCH   8  11
BRANCH   2  25
HETATM   25  C   UNL     1       9.042  35.089  28.220  1.00  0.00     0.110 C 
HETATM   26  C   UNL     1       9.241  34.299  27.002  1.00  0.00     0.275 C 
HETATM   27  N   UNL     1       9.585  32.958  27.187  1.00  0.00    -0.287 N 
HETATM   28  O   UNL     1       9.039  34.709  25.861  1.00  0.00    -0.266 OA
HETATM   29  C   UNL     1      10.224  32.519  28.357  1.00  0.00     0.274 C 
ATOM     30  HN  UNL     1       9.367  32.282  26.454  1.00  0.00     0.172 HD
HETATM   31  C   UNL     1       9.803  33.236  29.551  1.00  0.00     0.097 C 
HETATM   32  O   UNL     1      10.687  31.395  28.420  1.00  0.00    -0.266 OA
HETATM   33  C   UNL     1       9.630  34.614  29.396  1.00  0.00     0.070 C 
HETATM   34  N   UNL     1       9.580  32.574  30.695  1.00  0.00    -0.395 N 
ATOM     35  HN2 UNL     1       9.285  33.077  31.532  1.00  0.00     0.156 HD
ATOM     36  HN1 UNL     1       9.706  31.568  30.808  1.00  0.00     0.156 HD
ENDBRANCH   2  25
TORSDOF 5
ENDMDL
MODEL 6
REMARK VINA RESULT:      -8.7      1.726      2.635
REMARK  5 active torsions:
REMARK  status: ('A' for Active; 'I' for Inactive)
REMARK    1  A    between atoms: N_4  and  C_31 
REMARK    2  A    between atoms: C_5  and  N_20 
REMARK    3  A    between atoms: N_12  and  C_15 
REMARK    4  A    between atoms: N_12  and  C_29 
REMARK    5  A    between atoms: C_19  and  C_25 
ROOT
HETATM    1  C   UNL     1       6.144  37.835  29.057  1.00  0.00     0.051 C 
HETATM    2  N   UNL     1       8.286  35.492  27.044  1.00  0.00    -0.315 N 
HETATM    3  C   UNL     1       7.114  37.358  26.552  1.00  0.00     0.062 C 
HETATM    4  C   UNL     1       7.525  36.741  25.340  1.00  0.00     0.049 C 
HETATM    5  C   UNL     1       7.116  36.848  28.909  1.00  0.00     0.036 C 
HETATM    6  C   UNL     1       8.115  35.577  25.677  1.00  0.00     0.100 C 
HETATM    7  C   UNL     1       7.567  36.561  27.615  1.00  0.00     0.066 C 
HETATM    8  C   UNL     1       5.798  38.665  27.982  1.00  0.00     0.106 C 
HETATM    9  N   UNL     1       6.328  38.470  26.743  1.00  0.00    -0.341 N 
ATOM     10  HN  UNL     1       6.149  39.126  25.983  1.00  0.00     0.167 HD
ENDROOT
BRANCH   8  11
HETATM   11  N   UNL     1       4.922  39.713  28.145  1.00  0.00    -0.339 N 
ATOM     12  HN  UNL     1       5.167  40.344  28.907  1.00  0.00     0.168 HD
BRANCH  11  13
HETATM   13  C   UNL     1       3.786  40.065  27.477  1.00  0.00     0.182 C 
HETATM   14  N   UNL     1       2.906  39.266  26.848  1.00  0.00    -0.351 N 
ATOM     15  HN  UNL     1       2.400  39.639  26.044  1.00  0.00     0.166 HD
BRANCH  14  16
HETATM   16  C   UNL     1       2.648  37.947  27.243  1.00  0.00     0.050 C 
HETATM   17  C   UNL     1       1.873  37.639  28.364  1.00  0.00     0.030 C 
HETATM   18  C   UNL     1       2.040  36.417  29.004  1.00  0.00     0.002 C 
HETATM   19  C   UNL     1       2.929  35.489  28.490  1.00  0.00     0.001 C 
HETATM   20  C   UNL     1       3.551  35.730  27.272  1.00  0.00     0.021 C 
HETATM   21  C   UNL     1       3.210  36.875  26.539  1.00  0.00     0.067 C 
BRANCH  21  22
HETATM   22  C   UNL     1       3.382  36.887  25.046  1.00  0.00     0.211 C 
HETATM   23  O   UNL     1       2.723  36.079  24.346  1.00  0.00    -0.644 OA
HETATM   24  O   UNL     1       4.202  37.652  24.519  1.00  0.00    -0.644 OA
ENDBRANCH  21  22
ENDBRANCH  14  16
ENDBRANCH  11  13
ENDBRANCH   8  11
BRANCH   2  25
HETATM   25  C   UNL     1       9.153  34.531  27.613  1.00  0.00     0.110 C 
HETATM   26  C   UNL     1       9.606  33.340  26.889  1.00  0.00     0.275 C 
HETATM   27  N   UNL     1       9.964  32.242  27.674  1.00  0.00    -0.287 N 
HETATM   28  O   UNL     1       9.603  33.220  25.666  1.00  0.00    -0.266 OA
HETATM   29  C   UNL     1      10.392  32.398  29.003  1.00  0.00     0.274 C 
ATOM     30  HN  UNL     1       9.914  31.305  27.274  1.00  0.00     0.172 HD
HETATM   31  C   UNL     1       9.727  33.487  29.701  1.00  0.00     0.097 C 
HETATM   32  O   UNL     1      10.881  31.459  29.605  1.00  0.00    -0.266 OA
HETATM   33  C   UNL     1       9.531  34.650  28.953  1.00  0.00     0.070 C 
HETATM   34  N   UNL     1       9.323  33.331  30.970  1.00  0.00    -0.395 N 
ATOM     35  HN2 UNL     1       8.857  34.095  31.460  1.00  0.00     0.156 HD
ATOM     36  HN1 UNL     1       9.467  32.481  31.516  1.00  0.00     0.156 HD
ENDBRANCH   2  25
TORSDOF 5
ENDMDL
MODEL 7
REMARK VINA RESULT:      -8.6      2.729      3.664
REMARK  5 active torsions:
REMARK  status: ('A' for Active; 'I' for Inactive)
REMARK    1  A    between atoms: N_4  and  C_31 
REMARK    2  A    between atoms: C_5  and  N_20 
REMARK    3  A    between atoms: N_12  and  C_15 
REMARK    4  A    between atoms: N_12  and  C_29 
REMARK    5  A    between atoms: C_19  and  C_25 
ROOT
HETATM    1  C   UNL     1       4.891  36.570  26.992  1.00  0.00     0.051 C 
HETATM    2  N   UNL     1       8.364  36.234  28.390  1.00  0.00    -0.315 N 
HETATM    3  C   UNL     1       6.705  37.742  28.660  1.00  0.00     0.062 C 
HETATM    4  C   UNL     1       7.895  38.261  29.237  1.00  0.00     0.049 C 
HETATM    5  C   UNL     1       6.048  35.860  27.303  1.00  0.00     0.036 C 
HETATM    6  C   UNL     1       8.880  37.386  28.951  1.00  0.00     0.100 C 
HETATM    7  C   UNL     1       7.007  36.487  28.107  1.00  0.00     0.066 C 
HETATM    8  C   UNL     1       4.594  37.774  27.645  1.00  0.00     0.106 C 
HETATM    9  N   UNL     1       5.470  38.331  28.527  1.00  0.00    -0.341 N 
ATOM     10  HN  UNL     1       5.218  39.157  29.070  1.00  0.00     0.167 HD
ENDROOT
BRANCH   8  11
HETATM   11  N   UNL     1       3.403  38.427  27.428  1.00  0.00    -0.339 N 
ATOM     12  HN  UNL     1       3.015  38.285  26.496  1.00  0.00     0.168 HD
BRANCH  11  13
HETATM   13  C   UNL     1       2.644  39.231  28.228  1.00  0.00     0.182 C 
HETATM   14  N   UNL     1       1.596  38.890  28.999  1.00  0.00    -0.351 N 
ATOM     15  HN  UNL     1       0.868  39.586  29.163  1.00  0.00     0.166 HD
BRANCH  14  16
HETATM   16  C   UNL     1       1.454  37.628  29.588  1.00  0.00     0.050 C 
HETATM   17  C   UNL     1       1.619  37.419  30.960  1.00  0.00     0.030 C 
HETATM   18  C   UNL     1       1.962  36.157  31.429  1.00  0.00     0.002 C 
HETATM   19  C   UNL     1       2.077  35.102  30.540  1.00  0.00     0.001 C 
HETATM   20  C   UNL     1       1.726  35.279  29.209  1.00  0.00     0.021 C 
HETATM   21  C   UNL     1       1.183  36.504  28.797  1.00  0.00     0.067 C 
BRANCH  21  22
HETATM   22  C   UNL     1       0.284  36.558  27.594  1.00  0.00     0.211 C 
HETATM   23  O   UNL     1      -0.911  36.185  27.702  1.00  0.00    -0.644 OA
HETATM   24  O   UNL     1       0.732  36.920  26.497  1.00  0.00    -0.644 OA
ENDBRANCH  21  22
ENDBRANCH  14  16
ENDBRANCH  11  13
ENDBRANCH   8  11
BRANCH   2  25
HETATM   25  C   UNL     1       9.141  35.057  28.297  1.00  0.00     0.110 C 
HETATM   26  C   UNL     1       9.267  34.282  27.060  1.00  0.00     0.275 C 
HETATM   27  N   UNL     1       9.562  32.925  27.211  1.00  0.00    -0.287 N 
HETATM   28  O   UNL     1       9.046  34.720  25.934  1.00  0.00    -0.266 OA
HETATM   29  C   UNL     1      10.219  32.440  28.353  1.00  0.00     0.274 C 
ATOM     30  HN  UNL     1       9.293  32.272  26.475  1.00  0.00     0.172 HD
HETATM   31  C   UNL     1       9.866  33.151  29.571  1.00  0.00     0.097 C 
HETATM   32  O   UNL     1      10.637  31.296  28.381  1.00  0.00    -0.266 OA
HETATM   33  C   UNL     1       9.746  34.537  29.446  1.00  0.00     0.070 C 
HETATM   34  N   UNL     1       9.653  32.477  30.711  1.00  0.00    -0.395 N 
ATOM     35  HN2 UNL     1       9.406  32.976  31.566  1.00  0.00     0.156 HD
ATOM     36  HN1 UNL     1       9.741  31.465  30.803  1.00  0.00     0.156 HD
ENDBRANCH   2  25
TORSDOF 5
ENDMDL
MODEL 8
REMARK VINA RESULT:      -8.3      1.799      2.197
REMARK  5 active torsions:
REMARK  status: ('A' for Active; 'I' for Inactive)
REMARK    1  A    between atoms: N_4  and  C_31 
REMARK    2  A    between atoms: C_5  and  N_20 
REMARK    3  A    between atoms: N_12  and  C_15 
REMARK    4  A    between atoms: N_12  and  C_29 
REMARK    5  A    between atoms: C_19  and  C_25 
ROOT
HETATM    1  C   UNL     1       3.466  36.299  26.657  1.00  0.00     0.051 C 
HETATM    2  N   UNL     1       7.060  37.080  27.437  1.00  0.00    -0.315 N 
HETATM    3  C   UNL     1       5.115  38.188  27.735  1.00  0.00     0.062 C 
HETATM    4  C   UNL     1       6.193  39.078  27.986  1.00  0.00     0.049 C 
HETATM    5  C   UNL     1       4.800  35.958  26.872  1.00  0.00     0.036 C 
HETATM    6  C   UNL     1       7.326  38.412  27.683  1.00  0.00     0.100 C 
HETATM    7  C   UNL     1       5.659  36.947  27.365  1.00  0.00     0.066 C 
HETATM    8  C   UNL     1       2.954  37.514  27.132  1.00  0.00     0.106 C 
HETATM    9  N   UNL     1       3.762  38.434  27.728  1.00  0.00    -0.341 N 
ATOM     10  HN  UNL     1       3.377  39.277  28.155  1.00  0.00     0.167 HD
ENDROOT
BRANCH   8  11
HETATM   11  N   UNL     1       1.615  37.814  27.025  1.00  0.00    -0.339 N 
ATOM     12  HN  UNL     1       1.359  38.717  27.423  1.00  0.00     0.168 HD
BRANCH  11  13
HETATM   13  C   UNL     1       0.567  37.127  26.486  1.00  0.00     0.182 C 
HETATM   14  N   UNL     1       0.222  37.014  25.190  1.00  0.00    -0.351 N 
ATOM     15  HN  UNL     1      -0.765  36.890  24.961  1.00  0.00     0.166 HD
BRANCH  14  16
HETATM   16  C   UNL     1       1.149  37.057  24.142  1.00  0.00     0.050 C 
HETATM   17  C   UNL     1       1.613  35.902  23.506  1.00  0.00     0.030 C 
HETATM   18  C   UNL     1       2.841  35.919  22.855  1.00  0.00     0.002 C 
HETATM   19  C   UNL     1       3.567  37.096  22.790  1.00  0.00     0.001 C 
HETATM   20  C   UNL     1       3.010  38.277  23.259  1.00  0.00     0.021 C 
HETATM   21  C   UNL     1       1.687  38.279  23.722  1.00  0.00     0.067 C 
BRANCH  21  22
HETATM   22  C   UNL     1       0.880  39.547  23.680  1.00  0.00     0.211 C 
HETATM   23  O   UNL     1       0.434  40.026  24.752  1.00  0.00    -0.644 OA
HETATM   24  O   UNL     1       0.618  40.084  22.594  1.00  0.00    -0.644 OA
ENDBRANCH  21  22
ENDBRANCH  14  16
ENDBRANCH  11  13
ENDBRANCH   8  11
BRANCH   2  25
HETATM   25  C   UNL     1       8.098  36.121  27.412  1.00  0.00     0.110 C 
HETATM   26  C   UNL     1       8.409  35.315  26.228  1.00  0.00     0.275 C 
HETATM   27  N   UNL     1       9.023  34.083  26.466  1.00  0.00    -0.287 N 
HETATM   28  O   UNL     1       8.090  35.608  25.078  1.00  0.00    -0.266 OA
HETATM   29  C   UNL     1       9.777  33.851  27.628  1.00  0.00     0.274 C 
ATOM     30  HN  UNL     1       8.920  33.335  25.780  1.00  0.00     0.172 HD
HETATM   31  C   UNL     1       9.261  34.540  28.800  1.00  0.00     0.097 C 
HETATM   32  O   UNL     1      10.458  32.847  27.727  1.00  0.00    -0.266 OA
HETATM   33  C   UNL     1       8.809  35.844  28.583  1.00  0.00     0.070 C 
HETATM   34  N   UNL     1       9.216  33.916  29.986  1.00  0.00    -0.395 N 
ATOM     35  HN2 UNL     1       8.854  34.399  30.809  1.00  0.00     0.156 HD
ATOM     36  HN1 UNL     1       9.545  32.964  30.146  1.00  0.00     0.156 HD
ENDBRANCH   2  25
TORSDOF 5
ENDMDL
MODEL 9
REMARK VINA RESULT:      -8.2      1.781      2.217
REMARK  5 active torsions:
REMARK  status: ('A' for Active; 'I' for Inactive)
REMARK    1  A    between atoms: N_4  and  C_31 
REMARK    2  A    between atoms: C_5  and  N_20 
REMARK    3  A    between atoms: N_12  and  C_15 
REMARK    4  A    between atoms: N_12  and  C_29 
REMARK    5  A    between atoms: C_19  and  C_25 
ROOT
HETATM    1  C   UNL     1       7.311  36.943  24.814  1.00  0.00     0.051 C 
HETATM    2  N   UNL     1       8.822  35.711  28.028  1.00  0.00    -0.315 N 
HETATM    3  C   UNL     1       7.370  37.360  27.510  1.00  0.00     0.062 C 
HETATM    4  C   UNL     1       7.783  37.521  28.859  1.00  0.00     0.049 C 
HETATM    5  C   UNL     1       7.956  35.998  25.608  1.00  0.00     0.036 C 
HETATM    6  C   UNL     1       8.733  36.591  29.088  1.00  0.00     0.100 C 
HETATM    7  C   UNL     1       8.041  36.245  26.984  1.00  0.00     0.066 C 
HETATM    8  C   UNL     1       6.576  37.984  25.397  1.00  0.00     0.106 C 
HETATM    9  N   UNL     1       6.551  38.159  26.747  1.00  0.00    -0.341 N 
ATOM     10  HN  UNL     1       5.946  38.858  27.178  1.00  0.00     0.167 HD
ENDROOT
BRANCH   8  11
HETATM   11  N   UNL     1       5.844  38.858  24.625  1.00  0.00    -0.339 N 
ATOM     12  HN  UNL     1       5.583  39.718  25.106  1.00  0.00     0.168 HD
BRANCH  11  13
HETATM   13  C   UNL     1       5.401  38.787  23.337  1.00  0.00     0.182 C 
HETATM   14  N   UNL     1       4.664  37.821  22.759  1.00  0.00    -0.351 N 
ATOM     15  HN  UNL     1       4.788  37.647  21.762  1.00  0.00     0.166 HD
BRANCH  14  16
HETATM   16  C   UNL     1       3.735  37.042  23.460  1.00  0.00     0.050 C 
HETATM   17  C   UNL     1       4.053  35.784  23.979  1.00  0.00     0.030 C 
HETATM   18  C   UNL     1       3.044  34.857  24.209  1.00  0.00     0.002 C 
HETATM   19  C   UNL     1       1.725  35.208  23.981  1.00  0.00     0.001 C 
HETATM   20  C   UNL     1       1.406  36.517  23.647  1.00  0.00     0.021 C 
HETATM   21  C   UNL     1       2.417  37.487  23.624  1.00  0.00     0.067 C 
BRANCH  21  22
HETATM   22  C   UNL     1       2.074  38.933  23.849  1.00  0.00     0.211 C 
HETATM   23  O   UNL     1       1.215  39.482  23.115  1.00  0.00    -0.644 OA
HETATM   24  O   UNL     1       2.669  39.588  24.716  1.00  0.00    -0.644 OA
ENDBRANCH  21  22
ENDBRANCH  14  16
ENDBRANCH  11  13
ENDBRANCH   8  11
BRANCH   2  25
HETATM   25  C   UNL     1       9.505  34.480  28.157  1.00  0.00     0.110 C 
HETATM   26  C   UNL     1       9.676  33.544  27.043  1.00  0.00     0.275 C 
HETATM   27  N   UNL     1       9.844  32.201  27.388  1.00  0.00    -0.287 N 
HETATM   28  O   UNL     1       9.591  33.846  25.855  1.00  0.00    -0.266 OA
HETATM   29  C   UNL     1      10.357  31.823  28.640  1.00  0.00     0.274 C 
ATOM     30  HN  UNL     1       9.588  31.477  26.715  1.00  0.00     0.172 HD
HETATM   31  C   UNL     1       9.957  32.711  29.721  1.00  0.00     0.097 C 
HETATM   32  O   UNL     1      10.675  30.667  28.850  1.00  0.00    -0.266 OA
HETATM   33  C   UNL     1       9.962  34.073  29.414  1.00  0.00     0.070 C 
HETATM   34  N   UNL     1       9.591  32.208  30.909  1.00  0.00    -0.395 N 
ATOM     35  HN2 UNL     1       9.311  32.830  31.667  1.00  0.00     0.156 HD
ATOM     36  HN1 UNL     1       9.587  31.213  31.133  1.00  0.00     0.156 HD
ENDBRANCH   2  25
TORSDOF 5
ENDMDL
