MODEL 1
REMARK VINA RESULT:      -8.7      0.000      0.000
REMARK  12 active torsions:
REMARK  status: ('A' for Active; 'I' for Inactive)
REMARK    1  A    between atoms: C_1  and  C_14 
REMARK    2  A    between atoms: C_1  and  C_36 
REMARK    3  A    between atoms: C_2  and  C_5 
REMARK    4  A    between atoms: C_2  and  C_23 
REMARK    5  A    between atoms: C_6  and  C_36 
REMARK    6  A    between atoms: C_11  and  C_29 
REMARK    7  A    between atoms: C_13  and  C_14 
REMARK    8  A    between atoms: C_13  and  C_23 
REMARK    9  A    between atoms: O_18  and  C_32 
REMARK   10  A    between atoms: O_27  and  C_32 
REMARK   11  A    between atoms: C_32  and  O_33 
REMARK   12  A    between atoms: C_32  and  C_35 
ROOT
HETATM    1  C   UNL     1     -47.615  -0.252  10.240  1.00  0.00    -0.002 C 
HETATM    2  C   UNL     1     -46.740   1.962   9.343  1.00  0.00    -0.061 C 
HETATM    3  C   UNL     1     -45.620  -4.405  12.649  1.00  0.00     0.013 C 
HETATM    4  C   UNL     1     -49.018   0.267   9.936  1.00  0.00     0.042 C 
HETATM    5  C   UNL     1     -47.259  -1.376   9.272  1.00  0.00     0.133 C 
HETATM    6  C   UNL     1     -46.653  -1.730  12.203  1.00  0.00     0.003 C 
HETATM    7  C   UNL     1     -49.128   1.540   9.147  1.00  0.00    -0.025 C 
HETATM    8  C   UNL     1     -45.474  -0.893  12.724  1.00  0.00     0.022 C 
HETATM    9  C   UNL     1     -46.564   0.848  10.204  1.00  0.00    -0.008 C 
HETATM   10  C   UNL     1     -47.185  -2.591  13.362  1.00  0.00     0.058 C 
HETATM   11  C   UNL     1     -45.325  -3.760  11.428  1.00  0.00     0.026 C 
HETATM   12  C   UNL     1     -47.747  -0.813  11.667  1.00  0.00     0.031 C 
HETATM   13  N   UNL     1     -46.320  -2.351   9.806  1.00  0.00    -0.391 N 
ATOM     14  HN  UNL     1     -45.787  -2.887   9.122  1.00  0.00     0.159 HD
HETATM   15  C   UNL     1     -46.604  -3.955  13.495  1.00  0.00     0.012 C 
HETATM   16  C   UNL     1     -46.079  -2.624  11.088  1.00  0.00     0.013 C 
HETATM   17  C   UNL     1     -48.010   2.274   8.811  1.00  0.00     0.003 C 
ENDROOT
BRANCH   2  18
HETATM   18  C   UNL     1     -45.573   2.866   9.028  1.00  0.00     0.038 C 
BRANCH  18  19
HETATM   19  C   UNL     1     -45.452   3.196   7.543  1.00  0.00     0.005 C 
BRANCH  19  20
HETATM   20  C   UNL     1     -44.444   2.217   6.947  1.00  0.00     0.000 C 
BRANCH  20  21
HETATM   21  C   UNL     1     -45.055   1.474   5.776  1.00  0.00     0.000 C 
BRANCH  21  22
HETATM   22  C   UNL     1     -45.295   0.032   6.156  1.00  0.00     0.006 C 
BRANCH  22  23
HETATM   23  C   UNL     1     -44.533  -0.454   7.352  1.00  0.00     0.057 C 
BRANCH  23  24
HETATM   24  C   UNL     1     -43.659  -1.628   7.055  1.00  0.00     0.010 C 
HETATM   25  N   UNL     1     -42.943  -1.781   5.906  1.00  0.00    -0.368 N 
HETATM   26  C   UNL     1     -42.209  -2.923   6.027  1.00  0.00     0.106 C 
ATOM     27  HN  UNL     1     -42.955  -1.155   5.101  1.00  0.00     0.165 HD
HETATM   28  C   UNL     1     -42.129  -3.223   7.375  1.00  0.00     0.058 C 
HETATM   29  C   UNL     1     -43.239  -2.592   7.950  1.00  0.00     0.044 C 
BRANCH  28  30
HETATM   30  C   UNL     1     -41.076  -4.096   8.008  1.00  0.00     0.210 C 
HETATM   31  O   UNL     1     -39.928  -4.039   7.501  1.00  0.00    -0.644 OA
HETATM   32  O   UNL     1     -41.139  -4.389   9.214  1.00  0.00    -0.644 OA
ENDBRANCH  28  30
ENDBRANCH  23  24
ENDBRANCH  22  23
ENDBRANCH  21  22
ENDBRANCH  20  21
ENDBRANCH  19  20
ENDBRANCH  18  19
ENDBRANCH   2  18
BRANCH  15  33
HETATM   33  C   UNL     1     -47.304  -4.870  14.467  1.00  0.00     0.303 C 
BRANCH  33  34
HETATM   34  O   UNL     1     -47.378  -6.116  13.885  1.00  0.00    -0.340 OA
ATOM     35  HO  UNL     1     -48.226  -6.132  13.457  1.00  0.00     0.216 HD
ENDBRANCH  33  34
BRANCH  33  36
HETATM   36  O   UNL     1     -46.612  -5.070  15.628  1.00  0.00    -0.340 OA
ATOM     37  HO  UNL     1     -46.479  -4.199  15.982  1.00  0.00     0.216 HD
ENDBRANCH  33  36
BRANCH  33  38
HETATM   38  O   UNL     1     -48.567  -4.369  14.725  1.00  0.00    -0.340 OA
ATOM     39  HO  UNL     1     -48.907  -3.900  13.972  1.00  0.00     0.216 HD
ENDBRANCH  33  38
ENDBRANCH  15  33
TORSDOF 12
ENDMDL
MODEL 2
REMARK VINA RESULT:      -8.6      3.340      4.093
REMARK  12 active torsions:
REMARK  status: ('A' for Active; 'I' for Inactive)
REMARK    1  A    between atoms: C_1  and  C_14 
REMARK    2  A    between atoms: C_1  and  C_36 
REMARK    3  A    between atoms: C_2  and  C_5 
REMARK    4  A    between atoms: C_2  and  C_23 
REMARK    5  A    between atoms: C_6  and  C_36 
REMARK    6  A    between atoms: C_11  and  C_29 
REMARK    7  A    between atoms: C_13  and  C_14 
REMARK    8  A    between atoms: C_13  and  C_23 
REMARK    9  A    between atoms: O_18  and  C_32 
REMARK   10  A    between atoms: O_27  and  C_32 
REMARK   11  A    between atoms: C_32  and  O_33 
REMARK   12  A    between atoms: C_32  and  C_35 
ROOT
HETATM    1  C   UNL     1     -47.600  -0.412   9.967  1.00  0.00    -0.002 C 
HETATM    2  C   UNL     1     -46.892   1.895   9.160  1.00  0.00    -0.061 C 
HETATM    3  C   UNL     1     -45.481  -4.250  12.760  1.00  0.00     0.013 C 
HETATM    4  C   UNL     1     -48.993  -0.085   9.437  1.00  0.00     0.042 C 
HETATM    5  C   UNL     1     -46.953  -1.482   9.094  1.00  0.00     0.133 C 
HETATM    6  C   UNL     1     -46.773  -1.740  12.091  1.00  0.00     0.003 C 
HETATM    7  C   UNL     1     -49.144   1.159   8.607  1.00  0.00    -0.025 C 
HETATM    8  C   UNL     1     -45.810  -0.750  12.767  1.00  0.00     0.022 C 
HETATM    9  C   UNL     1     -46.710   0.818  10.066  1.00  0.00    -0.008 C 
HETATM   10  C   UNL     1     -47.363  -2.658  13.175  1.00  0.00     0.058 C 
HETATM   11  C   UNL     1     -45.086  -3.578  11.583  1.00  0.00     0.026 C 
HETATM   12  C   UNL     1     -47.879  -0.978  11.369  1.00  0.00     0.031 C 
HETATM   13  N   UNL     1     -45.990  -2.321   9.792  1.00  0.00    -0.391 N 
ATOM     14  HN  UNL     1     -45.291  -2.785   9.212  1.00  0.00     0.159 HD
HETATM   15  C   UNL     1     -46.636  -3.932  13.431  1.00  0.00     0.012 C 
HETATM   16  C   UNL     1     -45.919  -2.554  11.102  1.00  0.00     0.013 C 
HETATM   17  C   UNL     1     -48.093   2.033   8.430  1.00  0.00     0.003 C 
ENDROOT
BRANCH   2  18
HETATM   18  C   UNL     1     -45.819   2.945   9.007  1.00  0.00     0.038 C 
BRANCH  18  19
HETATM   19  C   UNL     1     -45.476   3.246   7.550  1.00  0.00     0.005 C 
BRANCH  19  20
HETATM   20  C   UNL     1     -44.493   2.173   7.090  1.00  0.00     0.000 C 
BRANCH  20  21
HETATM   21  C   UNL     1     -45.081   1.368   5.949  1.00  0.00     0.000 C 
BRANCH  21  22
HETATM   22  C   UNL     1     -44.499   1.839   4.638  1.00  0.00     0.006 C 
BRANCH  22  23
HETATM   23  C   UNL     1     -43.127   2.436   4.720  1.00  0.00     0.057 C 
BRANCH  23  24
HETATM   24  C   UNL     1     -42.220   1.979   3.624  1.00  0.00     0.010 C 
HETATM   25  N   UNL     1     -42.437   0.873   2.860  1.00  0.00    -0.368 N 
HETATM   26  C   UNL     1     -41.452   0.823   1.920  1.00  0.00     0.106 C 
ATOM     27  HN  UNL     1     -43.198   0.203   2.971  1.00  0.00     0.165 HD
HETATM   28  C   UNL     1     -40.908   2.091   1.820  1.00  0.00     0.058 C 
HETATM   29  C   UNL     1     -41.194   2.701   3.048  1.00  0.00     0.044 C 
BRANCH  28  30
HETATM   30  C   UNL     1     -40.139   2.615   0.634  1.00  0.00     0.210 C 
HETATM   31  O   UNL     1     -39.152   1.931   0.266  1.00  0.00    -0.644 OA
HETATM   32  O   UNL     1     -40.708   3.289  -0.240  1.00  0.00    -0.644 OA
ENDBRANCH  28  30
ENDBRANCH  23  24
ENDBRANCH  22  23
ENDBRANCH  21  22
ENDBRANCH  20  21
ENDBRANCH  19  20
ENDBRANCH  18  19
ENDBRANCH   2  18
BRANCH  15  33
HETATM   33  C   UNL     1     -47.354  -4.927  14.306  1.00  0.00     0.303 C 
BRANCH  33  34
HETATM   34  O   UNL     1     -46.621  -5.069  15.463  1.00  0.00    -0.340 OA
ATOM     35  HO  UNL     1     -45.913  -4.440  15.377  1.00  0.00     0.216 HD
ENDBRANCH  33  34
BRANCH  33  36
HETATM   36  O   UNL     1     -48.583  -4.502  14.726  1.00  0.00    -0.340 OA
ATOM     37  HO  UNL     1     -48.439  -3.614  15.030  1.00  0.00     0.216 HD
ENDBRANCH  33  36
BRANCH  33  38
HETATM   38  O   UNL     1     -47.452  -6.131  13.632  1.00  0.00    -0.340 OA
ATOM     39  HO  UNL     1     -48.256  -6.173  13.127  1.00  0.00     0.216 HD
ENDBRANCH  33  38
ENDBRANCH  15  33
TORSDOF 12
ENDMDL
MODEL 3
REMARK VINA RESULT:      -8.6      2.909      5.368
REMARK  12 active torsions:
REMARK  status: ('A' for Active; 'I' for Inactive)
REMARK    1  A    between atoms: C_1  and  C_14 
REMARK    2  A    between atoms: C_1  and  C_36 
REMARK    3  A    between atoms: C_2  and  C_5 
REMARK    4  A    between atoms: C_2  and  C_23 
REMARK    5  A    between atoms: C_6  and  C_36 
REMARK    6  A    between atoms: C_11  and  C_29 
REMARK    7  A    between atoms: C_13  and  C_14 
REMARK    8  A    between atoms: C_13  and  C_23 
REMARK    9  A    between atoms: O_18  and  C_32 
REMARK   10  A    between atoms: O_27  and  C_32 
REMARK   11  A    between atoms: C_32  and  O_33 
REMARK   12  A    between atoms: C_32  and  C_35 
ROOT
HETATM    1  C   UNL     1     -44.618  -3.401   9.046  1.00  0.00    -0.002 C 
HETATM    2  C   UNL     1     -43.613  -2.074   7.122  1.00  0.00    -0.061 C 
HETATM    3  C   UNL     1     -47.261  -2.335  13.394  1.00  0.00     0.013 C 
HETATM    4  C   UNL     1     -44.274  -4.660   8.256  1.00  0.00     0.042 C 
HETATM    5  C   UNL     1     -43.713  -3.296  10.270  1.00  0.00     0.133 C 
HETATM    6  C   UNL     1     -46.665  -2.774  10.588  1.00  0.00     0.003 C 
HETATM    7  C   UNL     1     -43.417  -4.497   7.033  1.00  0.00    -0.025 C 
HETATM    8  C   UNL     1     -47.152  -1.442   9.996  1.00  0.00     0.022 C 
HETATM    9  C   UNL     1     -44.534  -2.139   8.200  1.00  0.00    -0.008 C 
HETATM   10  C   UNL     1     -47.862  -3.475  11.252  1.00  0.00     0.058 C 
HETATM   11  C   UNL     1     -46.010  -1.912  12.894  1.00  0.00     0.026 C 
HETATM   12  C   UNL     1     -46.070  -3.646   9.488  1.00  0.00     0.031 C 
HETATM   13  N   UNL     1     -44.307  -2.586  11.393  1.00  0.00    -0.391 N 
ATOM     14  HN  UNL     1     -43.657  -2.181  12.067  1.00  0.00     0.159 HD
HETATM   15  C   UNL     1     -48.072  -3.199  12.700  1.00  0.00     0.012 C 
HETATM   16  C   UNL     1     -45.604  -2.406  11.643  1.00  0.00     0.013 C 
HETATM   17  C   UNL     1     -43.054  -3.249   6.574  1.00  0.00     0.003 C 
ENDROOT
BRANCH   2  18
HETATM   18  C   UNL     1     -43.262  -0.741   6.506  1.00  0.00     0.038 C 
BRANCH  18  19
HETATM   19  C   UNL     1     -44.481   0.144   6.256  1.00  0.00     0.005 C 
BRANCH  19  20
HETATM   20  C   UNL     1     -44.040   1.255   5.307  1.00  0.00     0.000 C 
BRANCH  20  21
HETATM   21  C   UNL     1     -44.270   2.614   5.938  1.00  0.00     0.000 C 
BRANCH  21  22
HETATM   22  C   UNL     1     -44.644   2.445   7.391  1.00  0.00     0.006 C 
BRANCH  22  23
HETATM   23  C   UNL     1     -45.748   3.333   7.880  1.00  0.00     0.057 C 
BRANCH  23  24
HETATM   24  C   UNL     1     -47.011   2.592   8.175  1.00  0.00     0.010 C 
HETATM   25  N   UNL     1     -48.178   3.184   8.555  1.00  0.00    -0.368 N 
HETATM   26  C   UNL     1     -49.122   2.207   8.654  1.00  0.00     0.106 C 
ATOM     27  HN  UNL     1     -48.319   4.178   8.733  1.00  0.00     0.165 HD
HETATM   28  C   UNL     1     -48.672   1.120   7.926  1.00  0.00     0.058 C 
HETATM   29  C   UNL     1     -47.280   1.271   7.880  1.00  0.00     0.044 C 
BRANCH  28  30
HETATM   30  C   UNL     1     -49.545   0.019   7.380  1.00  0.00     0.210 C 
HETATM   31  O   UNL     1     -49.322  -0.331   6.194  1.00  0.00    -0.644 OA
HETATM   32  O   UNL     1     -50.021  -0.844   8.136  1.00  0.00    -0.644 OA
ENDBRANCH  28  30
ENDBRANCH  23  24
ENDBRANCH  22  23
ENDBRANCH  21  22
ENDBRANCH  20  21
ENDBRANCH  19  20
ENDBRANCH  18  19
ENDBRANCH   2  18
BRANCH  15  33
HETATM   33  C   UNL     1     -49.084  -4.077  13.391  1.00  0.00     0.303 C 
BRANCH  33  34
HETATM   34  O   UNL     1     -50.315  -3.474  13.259  1.00  0.00    -0.340 OA
ATOM     35  HO  UNL     1     -50.281  -2.726  13.845  1.00  0.00     0.216 HD
ENDBRANCH  33  34
BRANCH  33  36
HETATM   36  O   UNL     1     -49.236  -5.302  12.807  1.00  0.00    -0.340 OA
ATOM     37  HO  UNL     1     -49.639  -5.841  13.478  1.00  0.00     0.216 HD
ENDBRANCH  33  36
BRANCH  33  38
HETATM   38  O   UNL     1     -48.735  -4.204  14.723  1.00  0.00    -0.340 OA
ATOM     39  HO  UNL     1     -49.206  -4.921  15.130  1.00  0.00     0.216 HD
ENDBRANCH  33  38
ENDBRANCH  15  33
TORSDOF 12
ENDMDL
MODEL 4
REMARK VINA RESULT:      -8.5      1.979      2.408
REMARK  12 active torsions:
REMARK  status: ('A' for Active; 'I' for Inactive)
REMARK    1  A    between atoms: C_1  and  C_14 
REMARK    2  A    between atoms: C_1  and  C_36 
REMARK    3  A    between atoms: C_2  and  C_5 
REMARK    4  A    between atoms: C_2  and  C_23 
REMARK    5  A    between atoms: C_6  and  C_36 
REMARK    6  A    between atoms: C_11  and  C_29 
REMARK    7  A    between atoms: C_13  and  C_14 
REMARK    8  A    between atoms: C_13  and  C_23 
REMARK    9  A    between atoms: O_18  and  C_32 
REMARK   10  A    between atoms: O_27  and  C_32 
REMARK   11  A    between atoms: C_32  and  O_33 
REMARK   12  A    between atoms: C_32  and  C_35 
ROOT
HETATM    1  C   UNL     1     -47.657  -0.558   9.992  1.00  0.00    -0.002 C 
HETATM    2  C   UNL     1     -46.906   1.739   9.196  1.00  0.00    -0.061 C 
HETATM    3  C   UNL     1     -45.660  -4.392  12.880  1.00  0.00     0.013 C 
HETATM    4  C   UNL     1     -49.029  -0.226   9.413  1.00  0.00     0.042 C 
HETATM    5  C   UNL     1     -46.988  -1.638   9.148  1.00  0.00     0.133 C 
HETATM    6  C   UNL     1     -46.911  -1.877  12.152  1.00  0.00     0.003 C 
HETATM    7  C   UNL     1     -49.143   1.014   8.572  1.00  0.00    -0.025 C 
HETATM    8  C   UNL     1     -45.964  -0.890  12.854  1.00  0.00     0.022 C 
HETATM    9  C   UNL     1     -46.762   0.667  10.114  1.00  0.00    -0.008 C 
HETATM   10  C   UNL     1     -47.543  -2.785  13.221  1.00  0.00     0.058 C 
HETATM   11  C   UNL     1     -45.220  -3.730  11.713  1.00  0.00     0.026 C 
HETATM   12  C   UNL     1     -47.987  -1.113  11.389  1.00  0.00     0.031 C 
HETATM   13  N   UNL     1     -46.055  -2.479   9.884  1.00  0.00    -0.391 N 
ATOM     14  HN  UNL     1     -45.339  -2.951   9.331  1.00  0.00     0.159 HD
HETATM   15  C   UNL     1     -46.834  -4.062  13.510  1.00  0.00     0.012 C 
HETATM   16  C   UNL     1     -46.029  -2.704  11.198  1.00  0.00     0.013 C 
HETATM   17  C   UNL     1     -48.080   1.880   8.425  1.00  0.00     0.003 C 
ENDROOT
BRANCH   2  18
HETATM   18  C   UNL     1     -45.821   2.781   9.073  1.00  0.00     0.038 C 
BRANCH  18  19
HETATM   19  C   UNL     1     -45.531   3.178   7.627  1.00  0.00     0.005 C 
BRANCH  19  20
HETATM   20  C   UNL     1     -44.572   2.135   7.060  1.00  0.00     0.000 C 
BRANCH  20  21
HETATM   21  C   UNL     1     -45.237   1.355   5.944  1.00  0.00     0.000 C 
BRANCH  21  22
HETATM   22  C   UNL     1     -45.360  -0.097   6.338  1.00  0.00     0.006 C 
BRANCH  22  23
HETATM   23  C   UNL     1     -44.167  -0.679   7.035  1.00  0.00     0.057 C 
BRANCH  23  24
HETATM   24  C   UNL     1     -42.980  -0.830   6.140  1.00  0.00     0.010 C 
HETATM   25  N   UNL     1     -42.890  -1.741   5.131  1.00  0.00    -0.368 N 
HETATM   26  C   UNL     1     -41.707  -1.529   4.490  1.00  0.00     0.106 C 
ATOM     27  HN  UNL     1     -43.583  -2.452   4.898  1.00  0.00     0.165 HD
HETATM   28  C   UNL     1     -41.288  -0.249   4.803  1.00  0.00     0.058 C 
HETATM   29  C   UNL     1     -41.923   0.050   6.015  1.00  0.00     0.044 C 
BRANCH  28  30
HETATM   30  C   UNL     1     -40.312   0.568   3.995  1.00  0.00     0.210 C 
HETATM   31  O   UNL     1     -39.571  -0.071   3.208  1.00  0.00    -0.644 OA
HETATM   32  O   UNL     1     -40.576   1.742   3.683  1.00  0.00    -0.644 OA
ENDBRANCH  28  30
ENDBRANCH  23  24
ENDBRANCH  22  23
ENDBRANCH  21  22
ENDBRANCH  20  21
ENDBRANCH  19  20
ENDBRANCH  18  19
ENDBRANCH   2  18
BRANCH  15  33
HETATM   33  C   UNL     1     -47.589  -5.047  14.366  1.00  0.00     0.303 C 
BRANCH  33  34
HETATM   34  O   UNL     1     -48.799  -4.475  14.688  1.00  0.00    -0.340 OA
ATOM     35  HO  UNL     1     -49.186  -5.070  15.320  1.00  0.00     0.216 HD
ENDBRANCH  33  34
BRANCH  33  36
HETATM   36  O   UNL     1     -47.915  -6.203  13.715  1.00  0.00    -0.340 OA
ATOM     37  HO  UNL     1     -48.143  -6.813  14.406  1.00  0.00     0.216 HD
ENDBRANCH  33  36
BRANCH  33  38
HETATM   38  O   UNL     1     -46.849  -5.313  15.503  1.00  0.00    -0.340 OA
ATOM     39  HO  UNL     1     -46.046  -5.772  15.287  1.00  0.00     0.216 HD
ENDBRANCH  33  38
ENDBRANCH  15  33
TORSDOF 12
ENDMDL
MODEL 5
REMARK VINA RESULT:      -8.5      2.968      5.319
REMARK  12 active torsions:
REMARK  status: ('A' for Active; 'I' for Inactive)
REMARK    1  A    between atoms: C_1  and  C_14 
REMARK    2  A    between atoms: C_1  and  C_36 
REMARK    3  A    between atoms: C_2  and  C_5 
REMARK    4  A    between atoms: C_2  and  C_23 
REMARK    5  A    between atoms: C_6  and  C_36 
REMARK    6  A    between atoms: C_11  and  C_29 
REMARK    7  A    between atoms: C_13  and  C_14 
REMARK    8  A    between atoms: C_13  and  C_23 
REMARK    9  A    between atoms: O_18  and  C_32 
REMARK   10  A    between atoms: O_27  and  C_32 
REMARK   11  A    between atoms: C_32  and  O_33 
REMARK   12  A    between atoms: C_32  and  C_35 
ROOT
HETATM    1  C   UNL     1     -44.615  -3.280   9.142  1.00  0.00    -0.002 C 
HETATM    2  C   UNL     1     -43.455  -1.913   7.337  1.00  0.00    -0.061 C 
HETATM    3  C   UNL     1     -47.349  -2.294  13.453  1.00  0.00     0.013 C 
HETATM    4  C   UNL     1     -44.323  -4.511   8.290  1.00  0.00     0.042 C 
HETATM    5  C   UNL     1     -43.753  -3.305  10.400  1.00  0.00     0.133 C 
HETATM    6  C   UNL     1     -46.675  -2.608  10.648  1.00  0.00     0.003 C 
HETATM    7  C   UNL     1     -43.411  -4.335   7.109  1.00  0.00    -0.025 C 
HETATM    8  C   UNL     1     -47.053  -1.215  10.120  1.00  0.00     0.022 C 
HETATM    9  C   UNL     1     -44.418  -1.979   8.376  1.00  0.00    -0.008 C 
HETATM   10  C   UNL     1     -47.939  -3.265  11.227  1.00  0.00     0.058 C 
HETATM   11  C   UNL     1     -46.055  -1.926  13.022  1.00  0.00     0.026 C 
HETATM   12  C   UNL     1     -46.097  -3.453   9.519  1.00  0.00     0.031 C 
HETATM   13  N   UNL     1     -44.343  -2.624  11.543  1.00  0.00    -0.391 N 
ATOM     14  HN  UNL     1     -43.695  -2.302  12.262  1.00  0.00     0.159 HD
HETATM   15  C   UNL     1     -48.187  -3.059  12.681  1.00  0.00     0.012 C 
HETATM   16  C   UNL     1     -45.634  -2.372  11.758  1.00  0.00     0.013 C 
HETATM   17  C   UNL     1     -42.952  -3.089   6.739  1.00  0.00     0.003 C 
ENDROOT
BRANCH   2  18
HETATM   18  C   UNL     1     -42.996  -0.574   6.814  1.00  0.00     0.038 C 
BRANCH  18  19
HETATM   19  C   UNL     1     -42.646  -0.596   5.329  1.00  0.00     0.005 C 
BRANCH  19  20
HETATM   20  C   UNL     1     -42.149   0.800   4.963  1.00  0.00     0.000 C 
BRANCH  20  21
HETATM   21  C   UNL     1     -43.127   1.483   4.029  1.00  0.00     0.000 C 
BRANCH  21  22
HETATM   22  C   UNL     1     -44.375   1.866   4.786  1.00  0.00     0.006 C 
BRANCH  22  23
HETATM   23  C   UNL     1     -44.178   2.861   5.890  1.00  0.00     0.057 C 
BRANCH  23  24
HETATM   24  C   UNL     1     -45.156   2.698   7.009  1.00  0.00     0.010 C 
HETATM   25  N   UNL     1     -45.417   3.652   7.945  1.00  0.00    -0.368 N 
HETATM   26  C   UNL     1     -46.412   3.180   8.746  1.00  0.00     0.106 C 
ATOM     27  HN  UNL     1     -44.952   4.556   8.030  1.00  0.00     0.165 HD
HETATM   28  C   UNL     1     -47.053   2.165   8.059  1.00  0.00     0.058 C 
HETATM   29  C   UNL     1     -46.106   1.705   7.136  1.00  0.00     0.044 C 
BRANCH  28  30
HETATM   30  C   UNL     1     -48.451   1.675   8.338  1.00  0.00     0.210 C 
HETATM   31  O   UNL     1     -49.275   2.540   8.727  1.00  0.00    -0.644 OA
HETATM   32  O   UNL     1     -48.914   0.701   7.722  1.00  0.00    -0.644 OA
ENDBRANCH  28  30
ENDBRANCH  23  24
ENDBRANCH  22  23
ENDBRANCH  21  22
ENDBRANCH  20  21
ENDBRANCH  19  20
ENDBRANCH  18  19
ENDBRANCH   2  18
BRANCH  15  33
HETATM   33  C   UNL     1     -49.279  -3.907  13.282  1.00  0.00     0.303 C 
BRANCH  33  34
HETATM   34  O   UNL     1     -50.454  -3.193  13.194  1.00  0.00    -0.340 OA
ATOM     35  HO  UNL     1     -50.213  -2.387  12.754  1.00  0.00     0.216 HD
ENDBRANCH  33  34
BRANCH  33  36
HETATM   36  O   UNL     1     -49.522  -5.060  12.591  1.00  0.00    -0.340 OA
ATOM     37  HO  UNL     1     -48.701  -5.257  12.156  1.00  0.00     0.216 HD
ENDBRANCH  33  36
BRANCH  33  38
HETATM   38  O   UNL     1     -48.963  -4.179  14.601  1.00  0.00    -0.340 OA
ATOM     39  HO  UNL     1     -48.675  -3.393  15.050  1.00  0.00     0.216 HD
ENDBRANCH  33  38
ENDBRANCH  15  33
TORSDOF 12
ENDMDL
MODEL 6
REMARK VINA RESULT:      -8.2      3.721      6.169
REMARK  12 active torsions:
REMARK  status: ('A' for Active; 'I' for Inactive)
REMARK    1  A    between atoms: C_1  and  C_14 
REMARK    2  A    between atoms: C_1  and  C_36 
REMARK    3  A    between atoms: C_2  and  C_5 
REMARK    4  A    between atoms: C_2  and  C_23 
REMARK    5  A    between atoms: C_6  and  C_36 
REMARK    6  A    between atoms: C_11  and  C_29 
REMARK    7  A    between atoms: C_13  and  C_14 
REMARK    8  A    between atoms: C_13  and  C_23 
REMARK    9  A    between atoms: O_18  and  C_32 
REMARK   10  A    between atoms: O_27  and  C_32 
REMARK   11  A    between atoms: C_32  and  O_33 
REMARK   12  A    between atoms: C_32  and  C_35 
ROOT
HETATM    1  C   UNL     1     -44.974  -2.472   9.971  1.00  0.00    -0.002 C 
HETATM    2  C   UNL     1     -47.169  -1.185  10.013  1.00  0.00    -0.061 C 
HETATM    3  C   UNL     1     -42.501  -5.612   6.646  1.00  0.00     0.013 C 
HETATM    4  C   UNL     1     -44.617  -1.754  11.269  1.00  0.00     0.042 C 
HETATM    5  C   UNL     1     -45.239  -3.948  10.253  1.00  0.00     0.133 C 
HETATM    6  C   UNL     1     -43.530  -3.198   7.885  1.00  0.00     0.003 C 
HETATM    7  C   UNL     1     -45.699  -0.954  11.937  1.00  0.00    -0.025 C 
HETATM    8  C   UNL     1     -44.300  -2.592   6.701  1.00  0.00     0.022 C 
HETATM    9  C   UNL     1     -46.159  -1.835   9.258  1.00  0.00    -0.008 C 
HETATM   10  C   UNL     1     -42.047  -3.305   7.495  1.00  0.00     0.058 C 
HETATM   11  C   UNL     1     -43.780  -5.650   7.245  1.00  0.00     0.026 C 
HETATM   12  C   UNL     1     -43.701  -2.321   9.120  1.00  0.00     0.031 C 
HETATM   13  N   UNL     1     -44.950  -4.831   9.133  1.00  0.00    -0.391 N 
ATOM     14  HN  UNL     1     -45.430  -5.731   9.132  1.00  0.00     0.159 HD
HETATM   15  C   UNL     1     -41.614  -4.591   6.882  1.00  0.00     0.012 C 
HETATM   16  C   UNL     1     -44.131  -4.599   8.108  1.00  0.00     0.013 C 
HETATM   17  C   UNL     1     -46.931  -0.778  11.344  1.00  0.00     0.003 C 
ENDROOT
BRANCH   2  18
HETATM   18  C   UNL     1     -48.501  -0.867   9.379  1.00  0.00     0.038 C 
BRANCH  18  19
HETATM   19  C   UNL     1     -48.379  -0.009   8.123  1.00  0.00     0.005 C 
BRANCH  19  20
HETATM   20  C   UNL     1     -49.181   1.265   8.370  1.00  0.00     0.000 C 
BRANCH  20  21
HETATM   21  C   UNL     1     -48.384   2.238   9.215  1.00  0.00     0.000 C 
BRANCH  21  22
HETATM   22  C   UNL     1     -47.530   3.108   8.324  1.00  0.00     0.006 C 
BRANCH  22  23
HETATM   23  C   UNL     1     -46.051   2.994   8.537  1.00  0.00     0.057 C 
BRANCH  23  24
HETATM   24  C   UNL     1     -45.306   2.615   7.299  1.00  0.00     0.010 C 
HETATM   25  N   UNL     1     -44.697   3.505   6.467  1.00  0.00    -0.368 N 
HETATM   26  C   UNL     1     -44.056   2.792   5.499  1.00  0.00     0.106 C 
ATOM     27  HN  UNL     1     -44.716   4.521   6.553  1.00  0.00     0.165 HD
HETATM   28  C   UNL     1     -43.898   1.501   5.971  1.00  0.00     0.058 C 
HETATM   29  C   UNL     1     -44.902   1.346   6.935  1.00  0.00     0.044 C 
BRANCH  28  30
HETATM   30  C   UNL     1     -42.878   0.512   5.468  1.00  0.00     0.210 C 
HETATM   31  O   UNL     1     -42.671   0.509   4.229  1.00  0.00    -0.644 OA
HETATM   32  O   UNL     1     -41.933   0.155   6.192  1.00  0.00    -0.644 OA
ENDBRANCH  28  30
ENDBRANCH  23  24
ENDBRANCH  22  23
ENDBRANCH  21  22
ENDBRANCH  20  21
ENDBRANCH  19  20
ENDBRANCH  18  19
ENDBRANCH   2  18
BRANCH  15  33
HETATM   33  C   UNL     1     -40.125  -4.775   6.737  1.00  0.00     0.303 C 
BRANCH  33  34
HETATM   34  O   UNL     1     -39.854  -6.115   6.902  1.00  0.00    -0.340 OA
ATOM     35  HO  UNL     1     -39.021  -6.137   7.360  1.00  0.00     0.216 HD
ENDBRANCH  33  34
BRANCH  33  36
HETATM   36  O   UNL     1     -39.654  -4.478   5.489  1.00  0.00    -0.340 OA
ATOM     37  HO  UNL     1     -40.058  -5.122   4.920  1.00  0.00     0.216 HD
ENDBRANCH  33  36
BRANCH  33  38
HETATM   38  O   UNL     1     -39.482  -4.018   7.699  1.00  0.00    -0.340 OA
ATOM     39  HO  UNL     1     -39.994  -3.981   8.499  1.00  0.00     0.216 HD
ENDBRANCH  33  38
ENDBRANCH  15  33
TORSDOF 12
ENDMDL
MODEL 7
REMARK VINA RESULT:      -8.2      3.270      7.852
REMARK  12 active torsions:
REMARK  status: ('A' for Active; 'I' for Inactive)
REMARK    1  A    between atoms: C_1  and  C_14 
REMARK    2  A    between atoms: C_1  and  C_36 
REMARK    3  A    between atoms: C_2  and  C_5 
REMARK    4  A    between atoms: C_2  and  C_23 
REMARK    5  A    between atoms: C_6  and  C_36 
REMARK    6  A    between atoms: C_11  and  C_29 
REMARK    7  A    between atoms: C_13  and  C_14 
REMARK    8  A    between atoms: C_13  and  C_23 
REMARK    9  A    between atoms: O_18  and  C_32 
REMARK   10  A    between atoms: O_27  and  C_32 
REMARK   11  A    between atoms: C_32  and  O_33 
REMARK   12  A    between atoms: C_32  and  C_35 
ROOT
HETATM    1  C   UNL     1     -46.883   1.606   8.369  1.00  0.00    -0.002 C 
HETATM    2  C   UNL     1     -47.556   0.135  10.333  1.00  0.00    -0.061 C 
HETATM    3  C   UNL     1     -42.789   2.024   5.193  1.00  0.00     0.013 C 
HETATM    4  C   UNL     1     -48.297   2.177   8.411  1.00  0.00     0.042 C 
HETATM    5  C   UNL     1     -45.886   2.661   8.836  1.00  0.00     0.133 C 
HETATM    6  C   UNL     1     -45.252   1.044   6.373  1.00  0.00     0.003 C 
HETATM    7  C   UNL     1     -49.159   1.804   9.584  1.00  0.00    -0.025 C 
HETATM    8  C   UNL     1     -44.860  -0.418   6.644  1.00  0.00     0.022 C 
HETATM    9  C   UNL     1     -46.744   0.329   9.186  1.00  0.00    -0.008 C 
HETATM   10  C   UNL     1     -45.157   1.297   4.859  1.00  0.00     0.058 C 
HETATM   11  C   UNL     1     -42.933   2.074   6.597  1.00  0.00     0.026 C 
HETATM   12  C   UNL     1     -46.667   1.305   6.876  1.00  0.00     0.031 C 
HETATM   13  N   UNL     1     -44.555   2.522   8.262  1.00  0.00    -0.391 N 
ATOM     14  HN  UNL     1     -43.790   2.945   8.787  1.00  0.00     0.159 HD
HETATM   15  C   UNL     1     -43.855   1.817   4.354  1.00  0.00     0.012 C 
HETATM   16  C   UNL     1     -44.223   1.905   7.129  1.00  0.00     0.013 C 
HETATM   17  C   UNL     1     -48.734   0.890  10.524  1.00  0.00     0.003 C 
ENDROOT
BRANCH   2  18
HETATM   18  C   UNL     1     -47.199  -0.929  11.342  1.00  0.00     0.038 C 
BRANCH  18  19
HETATM   19  C   UNL     1     -48.407  -1.725  11.828  1.00  0.00     0.005 C 
BRANCH  19  20
HETATM   20  C   UNL     1     -48.126  -2.129  13.273  1.00  0.00     0.000 C 
BRANCH  20  21
HETATM   21  C   UNL     1     -48.865  -3.405  13.621  1.00  0.00     0.000 C 
BRANCH  21  22
HETATM   22  C   UNL     1     -47.877  -4.525  13.836  1.00  0.00     0.006 C 
BRANCH  22  23
HETATM   23  C   UNL     1     -47.726  -5.480  12.690  1.00  0.00     0.057 C 
BRANCH  23  24
HETATM   24  C   UNL     1     -46.711  -5.038  11.686  1.00  0.00     0.010 C 
HETATM   25  N   UNL     1     -46.942  -4.951  10.347  1.00  0.00    -0.368 N 
HETATM   26  C   UNL     1     -45.821  -4.439   9.768  1.00  0.00     0.106 C 
ATOM     27  HN  UNL     1     -47.800  -5.221   9.865  1.00  0.00     0.165 HD
HETATM   28  C   UNL     1     -45.091  -3.811  10.761  1.00  0.00     0.058 C 
HETATM   29  C   UNL     1     -45.503  -4.423  11.950  1.00  0.00     0.044 C 
BRANCH  28  30
HETATM   30  C   UNL     1     -44.051  -2.744  10.531  1.00  0.00     0.210 C 
HETATM   31  O   UNL     1     -43.725  -2.060  11.532  1.00  0.00    -0.644 OA
HETATM   32  O   UNL     1     -43.190  -2.881   9.645  1.00  0.00    -0.644 OA
ENDBRANCH  28  30
ENDBRANCH  23  24
ENDBRANCH  22  23
ENDBRANCH  21  22
ENDBRANCH  20  21
ENDBRANCH  19  20
ENDBRANCH  18  19
ENDBRANCH   2  18
BRANCH  15  33
HETATM   33  C   UNL     1     -43.855   2.294   2.925  1.00  0.00     0.303 C 
BRANCH  33  34
HETATM   34  O   UNL     1     -42.654   1.923   2.363  1.00  0.00    -0.340 OA
ATOM     35  HO  UNL     1     -41.995   2.323   2.918  1.00  0.00     0.216 HD
ENDBRANCH  33  34
BRANCH  33  36
HETATM   36  O   UNL     1     -44.802   1.693   2.145  1.00  0.00    -0.340 OA
ATOM     37  HO  UNL     1     -45.628   2.046   2.454  1.00  0.00     0.216 HD
ENDBRANCH  33  36
BRANCH  33  38
HETATM   38  O   UNL     1     -44.004   3.669   2.910  1.00  0.00    -0.340 OA
ATOM     39  HO  UNL     1     -43.282   4.084   2.451  1.00  0.00     0.216 HD
ENDBRANCH  33  38
ENDBRANCH  15  33
TORSDOF 12
ENDMDL
MODEL 8
REMARK VINA RESULT:      -7.9      3.588      8.209
REMARK  12 active torsions:
REMARK  status: ('A' for Active; 'I' for Inactive)
REMARK    1  A    between atoms: C_1  and  C_14 
REMARK    2  A    between atoms: C_1  and  C_36 
REMARK    3  A    between atoms: C_2  and  C_5 
REMARK    4  A    between atoms: C_2  and  C_23 
REMARK    5  A    between atoms: C_6  and  C_36 
REMARK    6  A    between atoms: C_11  and  C_29 
REMARK    7  A    between atoms: C_13  and  C_14 
REMARK    8  A    between atoms: C_13  and  C_23 
REMARK    9  A    between atoms: O_18  and  C_32 
REMARK   10  A    between atoms: O_27  and  C_32 
REMARK   11  A    between atoms: C_32  and  O_33 
REMARK   12  A    between atoms: C_32  and  C_35 
ROOT
HETATM    1  C   UNL     1     -46.861   1.947   8.263  1.00  0.00    -0.002 C 
HETATM    2  C   UNL     1     -47.896   0.438  10.031  1.00  0.00    -0.061 C 
HETATM    3  C   UNL     1     -42.608   1.894   5.273  1.00  0.00     0.013 C 
HETATM    4  C   UNL     1     -48.143   2.772   8.327  1.00  0.00     0.042 C 
HETATM    5  C   UNL     1     -45.707   2.736   8.873  1.00  0.00     0.133 C 
HETATM    6  C   UNL     1     -45.267   1.290   6.265  1.00  0.00     0.003 C 
HETATM    7  C   UNL     1     -49.117   2.453   9.426  1.00  0.00    -0.025 C 
HETATM    8  C   UNL     1     -45.173  -0.240   6.384  1.00  0.00     0.022 C 
HETATM    9  C   UNL     1     -47.006   0.590   8.937  1.00  0.00    -0.008 C 
HETATM   10  C   UNL     1     -45.051   1.676   4.792  1.00  0.00     0.058 C 
HETATM   11  C   UNL     1     -42.811   1.825   6.669  1.00  0.00     0.026 C 
HETATM   12  C   UNL     1     -46.632   1.766   6.753  1.00  0.00     0.031 C 
HETATM   13  N   UNL     1     -44.400   2.403   8.326  1.00  0.00    -0.391 N 
ATOM     14  HN  UNL     1     -43.596   2.614   8.917  1.00  0.00     0.159 HD
HETATM   15  C   UNL     1     -43.652   1.985   4.386  1.00  0.00     0.012 C 
HETATM   16  C   UNL     1     -44.134   1.854   7.141  1.00  0.00     0.013 C 
HETATM   17  C   UNL     1     -48.918   1.382  10.270  1.00  0.00     0.003 C 
ENDROOT
BRANCH   2  18
HETATM   18  C   UNL     1     -47.796  -0.774  10.925  1.00  0.00     0.038 C 
BRANCH  18  19
HETATM   19  C   UNL     1     -49.102  -1.559  11.020  1.00  0.00     0.005 C 
BRANCH  19  20
HETATM   20  C   UNL     1     -49.359  -1.825  12.501  1.00  0.00     0.000 C 
BRANCH  20  21
HETATM   21  C   UNL     1     -49.299  -3.311  12.791  1.00  0.00     0.000 C 
BRANCH  21  22
HETATM   22  C   UNL     1     -48.143  -3.605  13.716  1.00  0.00     0.006 C 
BRANCH  22  23
HETATM   23  C   UNL     1     -46.893  -4.096  13.050  1.00  0.00     0.057 C 
BRANCH  23  24
HETATM   24  C   UNL     1     -45.859  -3.032  12.883  1.00  0.00     0.010 C 
HETATM   25  N   UNL     1     -45.107  -2.860  11.760  1.00  0.00    -0.368 N 
HETATM   26  C   UNL     1     -44.339  -1.751  11.945  1.00  0.00     0.106 C 
ATOM     27  HN  UNL     1     -45.119  -3.454  10.932  1.00  0.00     0.165 HD
HETATM   28  C   UNL     1     -44.919  -1.007  12.957  1.00  0.00     0.058 C 
HETATM   29  C   UNL     1     -45.670  -1.931  13.694  1.00  0.00     0.044 C 
BRANCH  28  30
HETATM   30  C   UNL     1     -44.700   0.467  13.187  1.00  0.00     0.210 C 
HETATM   31  O   UNL     1     -45.244   1.244  12.365  1.00  0.00    -0.644 OA
HETATM   32  O   UNL     1     -44.517   0.907  14.334  1.00  0.00    -0.644 OA
ENDBRANCH  28  30
ENDBRANCH  23  24
ENDBRANCH  22  23
ENDBRANCH  21  22
ENDBRANCH  20  21
ENDBRANCH  19  20
ENDBRANCH  18  19
ENDBRANCH   2  18
BRANCH  15  33
HETATM   33  C   UNL     1     -43.491   2.598   3.019  1.00  0.00     0.303 C 
BRANCH  33  34
HETATM   34  O   UNL     1     -44.343   3.678   2.946  1.00  0.00    -0.340 OA
ATOM     35  HO  UNL     1     -44.871   3.621   3.733  1.00  0.00     0.216 HD
ENDBRANCH  33  34
BRANCH  33  36
HETATM   36  O   UNL     1     -42.249   3.122   2.796  1.00  0.00    -0.340 OA
ATOM     37  HO  UNL     1     -42.144   3.787   3.466  1.00  0.00     0.216 HD
ENDBRANCH  33  36
BRANCH  33  38
HETATM   38  O   UNL     1     -43.807   1.652   2.061  1.00  0.00    -0.340 OA
ATOM     39  HO  UNL     1     -44.581   1.909   1.573  1.00  0.00     0.216 HD
ENDBRANCH  33  38
ENDBRANCH  15  33
TORSDOF 12
ENDMDL
MODEL 9
REMARK VINA RESULT:      -7.7      3.350      5.523
REMARK  12 active torsions:
REMARK  status: ('A' for Active; 'I' for Inactive)
REMARK    1  A    between atoms: C_1  and  C_14 
REMARK    2  A    between atoms: C_1  and  C_36 
REMARK    3  A    between atoms: C_2  and  C_5 
REMARK    4  A    between atoms: C_2  and  C_23 
REMARK    5  A    between atoms: C_6  and  C_36 
REMARK    6  A    between atoms: C_11  and  C_29 
REMARK    7  A    between atoms: C_13  and  C_14 
REMARK    8  A    between atoms: C_13  and  C_23 
REMARK    9  A    between atoms: O_18  and  C_32 
REMARK   10  A    between atoms: O_27  and  C_32 
REMARK   11  A    between atoms: C_32  and  O_33 
REMARK   12  A    between atoms: C_32  and  C_35 
ROOT
HETATM    1  C   UNL     1     -44.743   1.663   6.672  1.00  0.00    -0.002 C 
HETATM    2  C   UNL     1     -44.342   2.286   4.237  1.00  0.00    -0.061 C 
HETATM    3  C   UNL     1     -48.842   0.466   9.637  1.00  0.00     0.013 C 
HETATM    4  C   UNL     1     -43.226   1.603   6.827  1.00  0.00     0.042 C 
HETATM    5  C   UNL     1     -45.292   2.870   7.427  1.00  0.00     0.133 C 
HETATM    6  C   UNL     1     -46.694   0.216   7.702  1.00  0.00     0.003 C 
HETATM    7  C   UNL     1     -42.393   2.112   5.684  1.00  0.00    -0.025 C 
HETATM    8  C   UNL     1     -47.493  -0.222   6.464  1.00  0.00     0.022 C 
HETATM    9  C   UNL     1     -45.181   1.690   5.215  1.00  0.00    -0.008 C 
HETATM   10  C   UNL     1     -46.883  -0.843   8.802  1.00  0.00     0.058 C 
HETATM   11  C   UNL     1     -48.523   1.582   8.832  1.00  0.00     0.026 C 
HETATM   12  C   UNL     1     -45.219   0.364   7.344  1.00  0.00     0.031 C 
HETATM   13  N   UNL     1     -46.656   2.706   7.906  1.00  0.00    -0.391 N 
ATOM     14  HN  UNL     1     -47.179   3.563   8.083  1.00  0.00     0.159 HD
HETATM   15  C   UNL     1     -48.003  -0.614   9.756  1.00  0.00     0.012 C 
HETATM   16  C   UNL     1     -47.299   1.563   8.142  1.00  0.00     0.013 C 
HETATM   17  C   UNL     1     -42.972   2.508   4.497  1.00  0.00     0.003 C 
ENDROOT
BRANCH   2  18
HETATM   18  C   UNL     1     -44.895   2.639   2.879  1.00  0.00     0.038 C 
BRANCH  18  19
HETATM   19  C   UNL     1     -44.157   1.952   1.733  1.00  0.00     0.005 C 
BRANCH  19  20
HETATM   20  C   UNL     1     -43.477   3.048   0.916  1.00  0.00     0.000 C 
BRANCH  20  21
HETATM   21  C   UNL     1     -42.045   2.665   0.603  1.00  0.00     0.000 C 
BRANCH  21  22
HETATM   22  C   UNL     1     -41.735   1.314   1.201  1.00  0.00     0.006 C 
BRANCH  22  23
HETATM   23  C   UNL     1     -40.476   1.243   2.013  1.00  0.00     0.057 C 
BRANCH  23  24
HETATM   24  C   UNL     1     -40.532   0.213   3.094  1.00  0.00     0.010 C 
HETATM   25  N   UNL     1     -39.830   0.285   4.259  1.00  0.00    -0.368 N 
HETATM   26  C   UNL     1     -40.195  -0.781   5.025  1.00  0.00     0.106 C 
ATOM     27  HN  UNL     1     -39.155   1.005   4.512  1.00  0.00     0.165 HD
HETATM   28  C   UNL     1     -41.406  -1.244   4.542  1.00  0.00     0.058 C 
HETATM   29  C   UNL     1     -41.452  -0.809   3.212  1.00  0.00     0.044 C 
BRANCH  28  30
HETATM   30  C   UNL     1     -42.390  -2.079   5.323  1.00  0.00     0.210 C 
HETATM   31  O   UNL     1     -41.943  -2.651   6.348  1.00  0.00    -0.644 OA
HETATM   32  O   UNL     1     -43.599  -1.792   5.327  1.00  0.00    -0.644 OA
ENDBRANCH  28  30
ENDBRANCH  23  24
ENDBRANCH  22  23
ENDBRANCH  21  22
ENDBRANCH  20  21
ENDBRANCH  19  20
ENDBRANCH  18  19
ENDBRANCH   2  18
BRANCH  15  33
HETATM   33  C   UNL     1     -48.022  -1.514  10.965  1.00  0.00     0.303 C 
BRANCH  33  34
HETATM   34  O   UNL     1     -49.258  -1.385  11.559  1.00  0.00    -0.340 OA
ATOM     35  HO  UNL     1     -49.831  -1.090  10.861  1.00  0.00     0.216 HD
ENDBRANCH  33  34
BRANCH  33  36
HETATM   36  O   UNL     1     -47.922  -2.842  10.661  1.00  0.00    -0.340 OA
ATOM     37  HO  UNL     1     -46.996  -2.984  10.505  1.00  0.00     0.216 HD
ENDBRANCH  33  36
BRANCH  33  38
HETATM   38  O   UNL     1     -47.015  -1.128  11.830  1.00  0.00    -0.340 OA
ATOM     39  HO  UNL     1     -46.320  -1.776  11.853  1.00  0.00     0.216 HD
ENDBRANCH  33  38
ENDBRANCH  15  33
TORSDOF 12
ENDMDL
