REMARK  7 active torsions:
REMARK  status: ('A' for Active; 'I' for Inactive)
REMARK    1  A    between atoms: C_1  and  O_19 
REMARK    2  A    between atoms: C_2  and  C_14 
REMARK    3  A    between atoms: O_3  and  C_27 
REMARK    4  A    between atoms: O_5  and  C_27 
REMARK    5  A    between atoms: C_11  and  C_17 
REMARK    6  A    between atoms: C_13  and  O_21 
REMARK    7  A    between atoms: C_15  and  O_24 
ROOT
HETATM    1  C   UNL     1     151.579  30.165  31.889  1.00  0.00     0.120 C 
HETATM    2  C   UNL     1     152.227  29.103  32.497  1.00  0.00     0.010 C 
HETATM    3  C   UNL     1     154.232  29.752  31.344  1.00  0.00    -0.020 C 
HETATM    4  C   UNL     1     153.503  30.426  30.387  1.00  0.00     0.060 C 
HETATM    5  C   UNL     1     152.027  30.575  30.537  1.00  0.00     0.232 C 
HETATM    6  C   UNL     1     153.611  29.095  32.408  1.00  0.00     0.027 C 
ENDROOT
BRANCH   3   7
HETATM    7  C   UNL     1     155.633  29.698  31.319  1.00  0.00     0.010 C 
HETATM    8  C   UNL     1     156.348  30.665  32.002  1.00  0.00     0.110 C 
HETATM    9  C   UNL     1     157.659  31.025  31.762  1.00  0.00     0.099 C 
HETATM   10  C   UNL     1     158.443  30.503  30.768  1.00  0.00     0.039 C 
HETATM   11  C   UNL     1     158.187  29.679  29.729  1.00  0.00     0.003 C 
HETATM   12  C   UNL     1     157.194  28.725  29.677  1.00  0.00     0.001 C 
HETATM   13  C   UNL     1     156.190  28.649  30.619  1.00  0.00     0.015 C 
BRANCH   8  14
HETATM   14  O   UNL     1     155.724  31.294  33.036  1.00  0.00    -0.357 OA
ATOM     15  HO  UNL     1     156.215  31.958  33.505  1.00  0.00     0.217 HD
ENDBRANCH   8  14
BRANCH   9  16
HETATM   16  O   UNL     1     158.215  32.005  32.553  1.00  0.00    -0.358 OA
ATOM     17  HO  UNL     1     159.117  32.253  32.388  1.00  0.00     0.217 HD
ENDBRANCH   9  16
ENDBRANCH   3   7
BRANCH   5  18
HETATM   18  O   UNL     1     151.665  31.894  30.278  1.00  0.00    -0.357 OA
ATOM     19  HO  UNL     1     151.952  32.157  29.411  1.00  0.00     0.213 HD
ENDBRANCH   5  18
BRANCH   5  20
HETATM   20  O   UNL     1     151.341  29.826  29.609  1.00  0.00    -0.357 OA
ATOM     21  HO  UNL     1     151.628  30.089  28.742  1.00  0.00     0.213 HD
ENDBRANCH   5  20
BRANCH   2  22
HETATM   22  C   UNL     1     151.523  28.003  33.012  1.00  0.00    -0.023 C 
HETATM   23  C   UNL     1     152.035  27.272  34.066  1.00  0.00     0.012 C 
HETATM   24  C   UNL     1     151.341  26.583  35.029  1.00  0.00     0.001 C 
HETATM   25  C   UNL     1     150.009  26.295  35.173  1.00  0.00     0.000 C 
HETATM   26  C   UNL     1     149.022  26.571  34.257  1.00  0.00     0.000 C 
HETATM   27  C   UNL     1     149.238  27.040  33.002  1.00  0.00     0.001 C 
HETATM   28  C   UNL     1     150.358  27.562  32.413  1.00  0.00     0.012 C 
ENDBRANCH   2  22
BRANCH   1  29
HETATM   29  O   UNL     1     150.662  30.919  32.517  1.00  0.00    -0.359 OA
ATOM     30  HO  UNL     1     150.217  31.648  32.100  1.00  0.00     0.217 HD
ENDBRANCH   1  29
TORSDOF 7
