REMARK  1 active torsions:
REMARK  status: ('A' for Active; 'I' for Inactive)
REMARK    1  A    between atoms: N_1  and  O_23 
ROOT
HETATM    1  N   UNL     1       3.853   9.073  19.583  1.00  0.00    -0.219 N 
HETATM    2  C   UNL     1       1.542   9.159  19.107  1.00  0.00     0.034 C 
HETATM    3  C   UNL     1       7.219   8.445  18.034  1.00  0.00     0.046 C 
HETATM    4  C   UNL     1       9.820   7.076  16.347  1.00  0.00    -0.021 C 
HETATM    5  O   UNL     1      11.086   9.834  14.400  1.00  0.00    -0.267 OA
HETATM    6  C   UNL     1       9.974   8.488  16.006  1.00  0.00     0.042 C 
HETATM    7  C   UNL     1       0.172   7.082  19.333  1.00  0.00     0.000 C 
HETATM    8  C   UNL     1       5.007   8.106  16.821  1.00  0.00     0.097 C 
HETATM    9  C   UNL     1       5.698   8.562  17.878  1.00  0.00     0.010 C 
HETATM   10  C   UNL     1       7.661   7.067  17.691  1.00  0.00    -0.005 C 
HETATM   11  C   UNL     1       5.167   9.423  19.036  1.00  0.00     0.183 C 
HETATM   12  C   UNL     1      12.233   6.334  16.564  1.00  0.00     0.018 C 
HETATM   13  N   UNL     1       3.752   7.538  16.875  1.00  0.00    -0.364 N 
ATOM     14  HN  UNL     1       3.388   7.129  16.014  1.00  0.00     0.165 HD
HETATM   15  N   UNL     1      12.473   8.643  15.728  1.00  0.00    -0.333 N 
ATOM     16  HN  UNL     1      13.192   9.349  15.568  1.00  0.00     0.168 HD
HETATM   17  C   UNL     1      12.934   7.496  16.329  1.00  0.00     0.091 C 
HETATM   18  C   UNL     1       5.227  10.917  18.734  1.00  0.00     0.079 C 
HETATM   19  C   UNL     1       2.953   7.476  17.984  1.00  0.00     0.061 C 
HETATM   20  C   UNL     1       7.914   9.450  17.180  1.00  0.00    -0.005 C 
HETATM   21  C   UNL     1       2.793   8.596  18.867  1.00  0.00     0.087 C 
HETATM   22  C   UNL     1       9.025   9.453  16.410  1.00  0.00     0.015 C 
HETATM   23  C   UNL     1       0.967   6.137  18.704  1.00  0.00     0.002 C 
HETATM   24  C   UNL     1      10.879   6.127  16.333  1.00  0.00     0.014 C 
HETATM   25  C   UNL     1       0.410   8.421  19.472  1.00  0.00     0.002 C 
HETATM   26  O   UNL     1       6.114   9.127  20.065  1.00  0.00    -0.353 OA
HETATM   27  C   UNL     1       8.560   6.555  16.801  1.00  0.00     0.010 C 
HETATM   28  C   UNL     1      11.208   9.014  15.300  1.00  0.00     0.256 C 
HETATM   29  C   UNL     1       2.250   6.275  18.193  1.00  0.00     0.032 C 
HETATM   30  C   UNL     1       7.387   8.760  19.522  1.00  0.00     0.194 C 
ENDROOT
BRANCH   1  31
HETATM   31  O   UNL     1       3.590   9.665  20.794  1.00  0.00    -0.284 OA
ATOM     32  HO  UNL     1       2.738   9.438  21.149  1.00  0.00     0.245 HD
ENDBRANCH   1  31
TORSDOF 1
