REMARK  2 active torsions:
REMARK  status: ('A' for Active; 'I' for Inactive)
REMARK    1  A    between atoms: N_5  and  C_15 
REMARK    2  A    between atoms: C_23  and  O_31 
ROOT
HETATM    1  C   UNL     1       2.675   9.505  18.732  1.00  0.00     0.021 C 
HETATM    2  C   UNL     1       5.814   7.209  16.018  1.00  0.00    -0.038 C 
HETATM    3  N   UNL     1      11.712   9.284  15.368  1.00  0.00    -0.374 N 
ATOM      4  HN  UNL     1      12.512   9.852  15.087  1.00  0.00     0.164 HD
HETATM    5  C   UNL     1       7.126   7.692  16.273  1.00  0.00    -0.001 C 
HETATM    6  N   UNL     1       1.966   6.724  18.936  1.00  0.00    -0.393 N 
ATOM      7  HN  UNL     1       1.681   5.751  18.820  1.00  0.00     0.159 HD
HETATM    8  C   UNL     1       4.801   8.744  17.632  1.00  0.00     0.157 C 
HETATM    9  C   UNL     1      11.844   7.954  15.423  1.00  0.00     0.088 C 
HETATM   10  N   UNL     1       6.192   9.140  17.963  1.00  0.00    -0.173 N 
HETATM   11  C   UNL     1       3.230   5.872  16.196  1.00  0.00     0.049 C 
HETATM   12  C   UNL     1       6.463   9.493  19.238  1.00  0.00     0.675 C 
HETATM   13  C   UNL     1       5.465   6.289  14.864  1.00  0.00     0.040 C 
HETATM   14  C   UNL     1       4.954   7.410  17.026  1.00  0.00    -0.008 C 
HETATM   15  C   UNL     1       1.419   9.106  19.497  1.00  0.00     0.021 C 
HETATM   16  C   UNL     1       9.456   9.170  16.155  1.00  0.00    -0.008 C 
HETATM   17  C   UNL     1       8.319   9.737  16.766  1.00  0.00     0.044 C 
HETATM   18  C   UNL     1      10.552   9.892  15.674  1.00  0.00     0.100 C 
HETATM   19  C   UNL     1       4.522   8.502  20.187  1.00  0.00     0.156 C 
HETATM   20  C   UNL     1       4.011   6.357  17.431  1.00  0.00     0.123 C 
HETATM   21  C   UNL     1       1.009   7.656  19.487  1.00  0.00     0.119 C 
HETATM   22  C   UNL     1      10.763   7.154  15.773  1.00  0.00     0.029 C 
HETATM   23  C   UNL     1       9.511   7.760  15.935  1.00  0.00    -0.022 C 
HETATM   24  C   UNL     1       4.203   5.453  15.079  1.00  0.00     0.008 C 
HETATM   25  N   UNL     1       5.465   9.623  20.164  1.00  0.00    -0.225 N 
ATOM     26  HN  UNL     1       5.384  10.429  20.784  1.00  0.00     0.177 HD
HETATM   27  C   UNL     1       3.833   8.488  18.825  1.00  0.00     0.043 C 
HETATM   28  C   UNL     1       3.296   7.095  18.544  1.00  0.00     0.034 C 
HETATM   29  C   UNL     1       7.200   8.932  16.991  1.00  0.00     0.064 C 
HETATM   30  C   UNL     1       8.301   7.071  15.831  1.00  0.00     0.026 C 
ENDROOT
BRANCH  12  31
HETATM   31  N   UNL     1       7.710   9.642  19.668  1.00  0.00    -0.235 N 
ATOM     32  HN2 UNL     1       8.454   9.545  18.977  1.00  0.00     0.174 HD
ATOM     33  HN1 UNL     1       7.915   9.909  20.631  1.00  0.00     0.174 HD
ENDBRANCH  12  31
BRANCH  20  34
HETATM   34  O   UNL     1       4.674   5.219  17.982  1.00  0.00    -0.379 OA
ATOM     35  HO  UNL     1       5.156   5.518  18.744  1.00  0.00     0.211 HD
ENDBRANCH  20  34
TORSDOF 2
