MODEL 1
REMARK VINA RESULT:     -11.3      0.000      0.000
REMARK  2 active torsions:
REMARK  status: ('A' for Active; 'I' for Inactive)
REMARK    1  A    between atoms: O_12  and  C_27 
REMARK    2  A    between atoms: O_33  and  C_38 
ROOT
HETATM    1  C   UNL     1       4.350 -16.065 -57.006  1.00  0.00     0.087 C 
HETATM    2  N   UNL     1       4.323 -16.132 -59.410  1.00  0.00    -0.244 NA
HETATM    3  N   UNL     1      -1.500 -14.165 -63.503  1.00  0.00    -0.345 N 
ATOM      4  HN  UNL     1      -2.259 -14.030 -62.834  1.00  0.00     0.167 HD
HETATM    5  C   UNL     1       6.489 -16.558 -58.221  1.00  0.00     0.026 C 
HETATM    6  C   UNL     1      -1.521 -12.150 -65.007  1.00  0.00     0.099 C 
HETATM    7  N   UNL     1       2.050 -16.186 -60.005  1.00  0.00    -0.360 N 
ATOM      8  HN  UNL     1       1.317 -16.886 -59.889  1.00  0.00     0.162 HD
HETATM    9  C   UNL     1      -0.481 -14.377 -65.519  1.00  0.00    -0.004 C 
HETATM   10  C   UNL     1       5.637 -14.286 -57.968  1.00  0.00     0.014 C 
HETATM   11  C   UNL     1       4.466 -13.658 -57.231  1.00  0.00     0.067 C 
HETATM   12  C   UNL     1       2.318 -15.308 -63.416  1.00  0.00     0.015 C 
HETATM   13  C   UNL     1       7.266 -15.925 -57.061  1.00  0.00     0.002 C 
HETATM   14  C   UNL     1       5.196 -15.733 -58.253  1.00  0.00     0.028 C 
HETATM   15  C   UNL     1       1.659 -15.686 -64.746  1.00  0.00     0.050 C 
HETATM   16  C   UNL     1       6.819 -14.465 -56.995  1.00  0.00     0.007 C 
HETATM   17  C   UNL     1       1.433 -15.793 -62.288  1.00  0.00     0.110 C 
HETATM   18  C   UNL     1       2.382 -15.365 -61.176  1.00  0.00     0.112 C 
HETATM   19  C   UNL     1       3.612 -16.192 -61.581  1.00  0.00     0.024 C 
HETATM   20  C   UNL     1       3.677 -15.919 -63.081  1.00  0.00     0.015 C 
HETATM   21  C   UNL     1      -0.172 -12.669 -67.195  1.00  0.00     0.011 C 
HETATM   22  C   UNL     1      -0.209 -14.038 -66.869  1.00  0.00     0.013 C 
HETATM   23  C   UNL     1      -2.048 -11.082 -67.134  1.00  0.00     0.051 C 
HETATM   24  C   UNL     1      -1.321 -13.583 -64.725  1.00  0.00     0.025 C 
HETATM   25  C   UNL     1       3.461 -14.802 -57.021  1.00  0.00     0.135 C 
HETATM   26  C   UNL     1       2.942 -15.779 -59.162  1.00  0.00     0.154 C 
HETATM   27  C   UNL     1       0.271 -15.124 -64.614  1.00  0.00    -0.002 C 
HETATM   28  N   UNL     1       0.238 -14.989 -62.239  1.00  0.00    -0.369 N 
ATOM     29  HN  UNL     1      -0.074 -14.492 -61.405  1.00  0.00     0.161 HD
HETATM   30  C   UNL     1      -0.418 -14.964 -63.405  1.00  0.00     0.109 C 
HETATM   31  N   UNL     1       2.580 -14.957 -58.180  1.00  0.00    -0.335 N 
ATOM     32  HN  UNL     1       1.701 -14.443 -58.234  1.00  0.00     0.165 HD
HETATM   33  C   UNL     1       4.687 -15.429 -60.747  1.00  0.00     0.106 C 
HETATM   34  C   UNL     1      -0.899 -11.665 -66.311  1.00  0.00     0.077 C 
ENDROOT
BRANCH  34  35
HETATM   35  O   UNL     1       0.042 -10.686 -65.934  1.00  0.00    -0.386 OA
ATOM     36  HO  UNL     1       0.542 -10.502 -66.721  1.00  0.00     0.211 HD
ENDBRANCH  34  35
BRANCH  25  37
HETATM   37  O   UNL     1       2.714 -14.693 -55.835  1.00  0.00    -0.371 OA
ATOM     38  HO  UNL     1       2.283 -15.512 -55.623  1.00  0.00     0.212 HD
ENDBRANCH  25  37
TORSDOF 2
ENDMDL
MODEL 2
REMARK VINA RESULT:      -9.7      4.193      8.886
REMARK  2 active torsions:
REMARK  status: ('A' for Active; 'I' for Inactive)
REMARK    1  A    between atoms: O_12  and  C_27 
REMARK    2  A    between atoms: O_33  and  C_38 
ROOT
HETATM    1  C   UNL     1       3.324 -18.625 -68.685  1.00  0.00     0.087 C 
HETATM    2  N   UNL     1       4.725 -17.843 -66.893  1.00  0.00    -0.244 NA
HETATM    3  N   UNL     1       2.143 -14.563 -60.801  1.00  0.00    -0.345 N 
ATOM      4  HN  UNL     1       1.152 -14.405 -60.987  1.00  0.00     0.167 HD
HETATM    5  C   UNL     1       5.767 -19.189 -68.733  1.00  0.00     0.026 C 
HETATM    6  C   UNL     1       2.274 -15.592 -58.511  1.00  0.00     0.099 C 
HETATM    7  N   UNL     1       3.431 -16.254 -65.741  1.00  0.00    -0.360 N 
ATOM      8  HN  UNL     1       3.082 -15.328 -65.991  1.00  0.00     0.162 HD
HETATM    9  C   UNL     1       4.134 -14.419 -59.723  1.00  0.00    -0.004 C 
HETATM   10  C   UNL     1       4.179 -20.430 -67.359  1.00  0.00     0.014 C 
HETATM   11  C   UNL     1       2.670 -20.409 -67.183  1.00  0.00     0.067 C 
HETATM   12  C   UNL     1       5.291 -16.047 -62.745  1.00  0.00     0.015 C 
HETATM   13  C   UNL     1       5.432 -20.473 -69.502  1.00  0.00     0.002 C 
HETATM   14  C   UNL     1       4.545 -19.010 -67.824  1.00  0.00     0.028 C 
HETATM   15  C   UNL     1       5.719 -14.974 -61.741  1.00  0.00     0.050 C 
HETATM   16  C   UNL     1       4.541 -21.302 -68.578  1.00  0.00     0.007 C 
HETATM   17  C   UNL     1       4.165 -15.491 -63.590  1.00  0.00     0.110 C 
HETATM   18  C   UNL     1       4.057 -16.713 -64.495  1.00  0.00     0.112 C 
HETATM   19  C   UNL     1       5.489 -16.722 -65.053  1.00  0.00     0.024 C 
HETATM   20  C   UNL     1       6.309 -16.515 -63.784  1.00  0.00     0.015 C 
HETATM   21  C   UNL     1       4.717 -15.370 -57.582  1.00  0.00     0.011 C 
HETATM   22  C   UNL     1       4.995 -14.432 -58.596  1.00  0.00     0.013 C 
HETATM   23  C   UNL     1       2.740 -15.430 -56.123  1.00  0.00     0.051 C 
HETATM   24  C   UNL     1       2.773 -14.737 -59.602  1.00  0.00     0.025 C 
HETATM   25  C   UNL     1       2.228 -19.018 -67.669  1.00  0.00     0.135 C 
HETATM   26  C   UNL     1       3.445 -17.345 -66.436  1.00  0.00     0.154 C 
HETATM   27  C   UNL     1       4.427 -14.591 -61.075  1.00  0.00    -0.002 C 
HETATM   28  N   UNL     1       2.975 -15.379 -62.786  1.00  0.00    -0.369 N 
ATOM     29  HN  UNL     1       2.083 -15.808 -63.035  1.00  0.00     0.161 HD
HETATM   30  C   UNL     1       3.164 -14.654 -61.678  1.00  0.00     0.109 C 
HETATM   31  N   UNL     1       2.314 -18.026 -66.596  1.00  0.00    -0.335 N 
ATOM     32  HN  UNL     1       1.518 -17.861 -65.980  1.00  0.00     0.165 HD
HETATM   33  C   UNL     1       5.513 -18.184 -65.598  1.00  0.00     0.106 C 
HETATM   34  C   UNL     1       3.311 -15.937 -57.448  1.00  0.00     0.077 C 
ENDROOT
BRANCH  34  35
HETATM   35  O   UNL     1       3.425 -17.342 -57.480  1.00  0.00    -0.386 OA
ATOM     36  HO  UNL     1       2.719 -17.638 -58.042  1.00  0.00     0.211 HD
ENDBRANCH  34  35
BRANCH  25  37
HETATM   37  O   UNL     1       0.954 -19.002 -68.265  1.00  0.00    -0.371 OA
ATOM     38  HO  UNL     1       0.283 -18.766 -67.635  1.00  0.00     0.212 HD
ENDBRANCH  25  37
TORSDOF 2
ENDMDL
MODEL 3
REMARK VINA RESULT:      -9.0      3.771      5.456
REMARK  2 active torsions:
REMARK  status: ('A' for Active; 'I' for Inactive)
REMARK    1  A    between atoms: O_12  and  C_27 
REMARK    2  A    between atoms: O_33  and  C_38 
ROOT
HETATM    1  C   UNL     1       5.742 -14.977 -57.924  1.00  0.00     0.087 C 
HETATM    2  N   UNL     1       4.418 -14.713 -59.915  1.00  0.00    -0.244 NA
HETATM    3  N   UNL     1       5.630 -18.449 -66.169  1.00  0.00    -0.345 N 
ATOM      4  HN  UNL     1       6.517 -18.931 -66.020  1.00  0.00     0.167 HD
HETATM    5  C   UNL     1       3.665 -13.574 -57.813  1.00  0.00     0.026 C 
HETATM    6  C   UNL     1       4.040 -20.166 -67.088  1.00  0.00     0.099 C 
HETATM    7  N   UNL     1       5.767 -15.509 -61.668  1.00  0.00    -0.360 N 
ATOM      8  HN  UNL     1       6.631 -15.168 -62.090  1.00  0.00     0.162 HD
HETATM    9  C   UNL     1       3.815 -17.673 -67.288  1.00  0.00    -0.004 C 
HETATM   10  C   UNL     1       3.589 -16.010 -57.715  1.00  0.00     0.014 C 
HETATM   11  C   UNL     1       4.633 -17.113 -57.660  1.00  0.00     0.067 C 
HETATM   12  C   UNL     1       3.304 -15.903 -64.169  1.00  0.00     0.015 C 
HETATM   13  C   UNL     1       3.519 -13.949 -56.333  1.00  0.00     0.002 C 
HETATM   14  C   UNL     1       4.288 -14.835 -58.422  1.00  0.00     0.028 C 
HETATM   15  C   UNL     1       3.171 -15.700 -65.680  1.00  0.00     0.050 C 
HETATM   16  C   UNL     1       3.341 -15.466 -56.294  1.00  0.00     0.007 C 
HETATM   17  C   UNL     1       4.776 -15.910 -63.813  1.00  0.00     0.110 C 
HETATM   18  C   UNL     1       4.552 -16.025 -62.310  1.00  0.00     0.112 C 
HETATM   19  C   UNL     1       3.727 -14.747 -62.094  1.00  0.00     0.024 C 
HETATM   20  C   UNL     1       2.725 -14.837 -63.241  1.00  0.00     0.015 C 
HETATM   21  C   UNL     1       1.998 -18.965 -68.215  1.00  0.00     0.011 C 
HETATM   22  C   UNL     1       2.721 -17.756 -68.186  1.00  0.00     0.013 C 
HETATM   23  C   UNL     1       2.819 -21.162 -68.949  1.00  0.00     0.051 C 
HETATM   24  C   UNL     1       4.587 -18.802 -66.976  1.00  0.00     0.025 C 
HETATM   25  C   UNL     1       5.915 -16.481 -58.227  1.00  0.00     0.135 C 
HETATM   26  C   UNL     1       5.441 -15.604 -60.420  1.00  0.00     0.154 C 
HETATM   27  C   UNL     1       4.056 -16.774 -66.251  1.00  0.00    -0.002 C 
HETATM   28  N   UNL     1       5.380 -17.121 -64.306  1.00  0.00    -0.369 N 
ATOM     29  HN  UNL     1       5.899 -17.773 -63.717  1.00  0.00     0.161 HD
HETATM   30  C   UNL     1       5.189 -17.299 -65.618  1.00  0.00     0.109 C 
HETATM   31  N   UNL     1       5.960 -16.585 -59.687  1.00  0.00    -0.335 N 
ATOM     32  HN  UNL     1       6.383 -17.398 -60.135  1.00  0.00     0.165 HD
HETATM   33  C   UNL     1       3.130 -15.094 -60.694  1.00  0.00     0.106 C 
HETATM   34  C   UNL     1       2.662 -20.248 -67.734  1.00  0.00     0.077 C 
ENDROOT
BRANCH  34  35
HETATM   35  O   UNL     1       1.821 -20.805 -66.748  1.00  0.00    -0.386 OA
ATOM     36  HO  UNL     1       0.939 -20.568 -67.007  1.00  0.00     0.211 HD
ENDBRANCH  34  35
BRANCH  25  37
HETATM   37  O   UNL     1       7.098 -16.982 -57.653  1.00  0.00    -0.371 OA
ATOM     38  HO  UNL     1       6.923 -17.750 -57.122  1.00  0.00     0.212 HD
ENDBRANCH  25  37
TORSDOF 2
ENDMDL
MODEL 4
REMARK VINA RESULT:      -9.0      2.409      2.958
REMARK  2 active torsions:
REMARK  status: ('A' for Active; 'I' for Inactive)
REMARK    1  A    between atoms: O_12  and  C_27 
REMARK    2  A    between atoms: O_33  and  C_38 
ROOT
HETATM    1  C   UNL     1       4.532 -15.917 -57.677  1.00  0.00     0.087 C 
HETATM    2  N   UNL     1       5.386 -16.217 -59.904  1.00  0.00    -0.244 NA
HETATM    3  N   UNL     1       1.200 -15.902 -65.980  1.00  0.00    -0.345 N 
ATOM      4  HN  UNL     1       0.240 -15.864 -65.636  1.00  0.00     0.167 HD
HETATM    5  C   UNL     1       7.014 -16.068 -58.003  1.00  0.00     0.026 C 
HETATM    6  C   UNL     1       1.401 -14.088 -67.710  1.00  0.00     0.099 C 
HETATM    7  N   UNL     1       3.522 -16.798 -61.212  1.00  0.00    -0.360 N 
ATOM      8  HN  UNL     1       2.919 -17.621 -61.237  1.00  0.00     0.162 HD
HETATM    9  C   UNL     1       2.898 -16.090 -67.473  1.00  0.00    -0.004 C 
HETATM   10  C   UNL     1       5.775 -14.009 -58.426  1.00  0.00     0.014 C 
HETATM   11  C   UNL     1       4.333 -13.570 -58.238  1.00  0.00     0.067 C 
HETATM   12  C   UNL     1       4.859 -16.214 -64.429  1.00  0.00     0.015 C 
HETATM   13  C   UNL     1       7.207 -15.180 -56.769  1.00  0.00     0.002 C 
HETATM   14  C   UNL     1       5.706 -15.537 -58.602  1.00  0.00     0.028 C 
HETATM   15  C   UNL     1       4.795 -16.846 -65.822  1.00  0.00     0.050 C 
HETATM   16  C   UNL     1       6.539 -13.845 -57.096  1.00  0.00     0.007 C 
HETATM   17  C   UNL     1       3.716 -16.762 -63.601  1.00  0.00     0.110 C 
HETATM   18  C   UNL     1       4.118 -16.041 -62.320  1.00  0.00     0.112 C 
HETATM   19  C   UNL     1       5.527 -16.630 -62.148  1.00  0.00     0.024 C 
HETATM   20  C   UNL     1       6.084 -16.495 -63.562  1.00  0.00     0.015 C 
HETATM   21  C   UNL     1       3.514 -14.522 -69.202  1.00  0.00     0.011 C 
HETATM   22  C   UNL     1       3.582 -15.832 -68.688  1.00  0.00     0.013 C 
HETATM   23  C   UNL     1       1.514 -13.361 -70.034  1.00  0.00     0.051 C 
HETATM   24  C   UNL     1       1.712 -15.415 -67.148  1.00  0.00     0.025 C 
HETATM   25  C   UNL     1       3.518 -14.873 -58.195  1.00  0.00     0.135 C 
HETATM   26  C   UNL     1       3.971 -16.136 -60.197  1.00  0.00     0.154 C 
HETATM   27  C   UNL     1       3.382 -16.574 -66.258  1.00  0.00    -0.002 C 
HETATM   28  N   UNL     1       2.472 -16.223 -64.089  1.00  0.00    -0.369 N 
ATOM     29  HN  UNL     1       1.804 -15.724 -63.501  1.00  0.00     0.161 HD
HETATM   30  C   UNL     1       2.287 -16.446 -65.394  1.00  0.00     0.109 C 
HETATM   31  N   UNL     1       3.152 -15.318 -59.541  1.00  0.00    -0.335 N 
ATOM     32  HN  UNL     1       2.281 -15.004 -59.971  1.00  0.00     0.165 HD
HETATM   33  C   UNL     1       6.091 -15.585 -61.136  1.00  0.00     0.106 C 
HETATM   34  C   UNL     1       2.365 -13.612 -68.789  1.00  0.00     0.077 C 
ENDROOT
BRANCH  34  35
HETATM   35  O   UNL     1       2.937 -12.427 -68.282  1.00  0.00    -0.386 OA
ATOM     36  HO  UNL     1       2.314 -12.102 -67.642  1.00  0.00     0.211 HD
ENDBRANCH  34  35
BRANCH  25  37
HETATM   37  O   UNL     1       2.385 -14.808 -57.364  1.00  0.00    -0.371 OA
ATOM     38  HO  UNL     1       2.136 -15.671 -57.055  1.00  0.00     0.212 HD
ENDBRANCH  25  37
TORSDOF 2
ENDMDL
MODEL 5
REMARK VINA RESULT:      -8.3      5.222      8.534
REMARK  2 active torsions:
REMARK  status: ('A' for Active; 'I' for Inactive)
REMARK    1  A    between atoms: O_12  and  C_27 
REMARK    2  A    between atoms: O_33  and  C_38 
ROOT
HETATM    1  C   UNL     1      -2.458 -16.045 -63.350  1.00  0.00     0.087 C 
HETATM    2  N   UNL     1      -0.123 -15.583 -63.698  1.00  0.00    -0.244 NA
HETATM    3  N   UNL     1       4.420 -20.027 -67.460  1.00  0.00    -0.345 N 
ATOM      4  HN  UNL     1       3.878 -20.875 -67.629  1.00  0.00     0.167 HD
HETATM    5  C   UNL     1      -1.555 -13.812 -62.651  1.00  0.00     0.026 C 
HETATM    6  C   UNL     1       5.459 -19.404 -69.663  1.00  0.00     0.099 C 
HETATM    7  N   UNL     1       0.853 -17.661 -64.204  1.00  0.00    -0.360 N 
ATOM      8  HN  UNL     1       1.011 -18.507 -63.656  1.00  0.00     0.162 HD
HETATM    9  C   UNL     1       6.231 -18.661 -67.392  1.00  0.00    -0.004 C 
HETATM   10  C   UNL     1      -2.117 -14.313 -64.972  1.00  0.00     0.014 C 
HETATM   11  C   UNL     1      -2.754 -15.491 -65.688  1.00  0.00     0.067 C 
HETATM   12  C   UNL     1       3.913 -16.551 -65.575  1.00  0.00     0.015 C 
HETATM   13  C   UNL     1      -2.936 -13.199 -62.910  1.00  0.00     0.002 C 
HETATM   14  C   UNL     1      -1.470 -14.916 -63.712  1.00  0.00     0.028 C 
HETATM   15  C   UNL     1       5.385 -16.972 -65.568  1.00  0.00     0.050 C 
HETATM   16  C   UNL     1      -3.222 -13.403 -64.397  1.00  0.00     0.007 C 
HETATM   17  C   UNL     1       3.078 -17.718 -65.094  1.00  0.00     0.110 C 
HETATM   18  C   UNL     1       1.755 -16.963 -65.128  1.00  0.00     0.112 C 
HETATM   19  C   UNL     1       2.104 -15.828 -64.152  1.00  0.00     0.024 C 
HETATM   20  C   UNL     1       3.482 -15.410 -64.656  1.00  0.00     0.015 C 
HETATM   21  C   UNL     1       7.442 -17.734 -69.262  1.00  0.00     0.011 C 
HETATM   22  C   UNL     1       7.414 -18.063 -67.893  1.00  0.00     0.013 C 
HETATM   23  C   UNL     1       7.380 -19.295 -71.160  1.00  0.00     0.051 C 
HETATM   24  C   UNL     1       5.447 -19.505 -68.193  1.00  0.00     0.025 C 
HETATM   25  C   UNL     1      -2.549 -16.692 -64.750  1.00  0.00     0.135 C 
HETATM   26  C   UNL     1      -0.197 -16.908 -64.275  1.00  0.00     0.154 C 
HETATM   27  C   UNL     1       5.382 -18.247 -66.367  1.00  0.00    -0.002 C 
HETATM   28  N   UNL     1       3.072 -18.748 -66.101  1.00  0.00    -0.369 N 
ATOM     29  HN  UNL     1       2.220 -19.140 -66.502  1.00  0.00     0.161 HD
HETATM   30  C   UNL     1       4.303 -19.135 -66.454  1.00  0.00     0.109 C 
HETATM   31  N   UNL     1      -1.249 -17.327 -64.974  1.00  0.00    -0.335 N 
ATOM     32  HN  UNL     1      -1.151 -18.079 -65.656  1.00  0.00     0.165 HD
HETATM   33  C   UNL     1       0.958 -14.839 -64.530  1.00  0.00     0.106 C 
HETATM   34  C   UNL     1       6.509 -18.454 -70.227  1.00  0.00     0.077 C 
ENDROOT
BRANCH  34  35
HETATM   35  O   UNL     1       5.783 -17.464 -70.919  1.00  0.00    -0.386 OA
ATOM     36  HO  UNL     1       6.394 -16.748 -71.046  1.00  0.00     0.211 HD
ENDBRANCH  34  35
BRANCH  25  37
HETATM   37  O   UNL     1      -3.586 -17.641 -64.805  1.00  0.00    -0.371 OA
ATOM     38  HO  UNL     1      -4.387 -17.295 -64.430  1.00  0.00     0.212 HD
ENDBRANCH  25  37
TORSDOF 2
ENDMDL
