MODEL 1
REMARK VINA RESULT:      -8.6      0.000      0.000
REMARK  2 active torsions:
REMARK  status: ('A' for Active; 'I' for Inactive)
REMARK    1  A    between atoms: N_9  and  C_13 
REMARK    2  A    between atoms: C_20  and  C_28 
ROOT
HETATM    1  C   UNL     1      -2.232 -30.401   6.485  1.00  0.00     0.060 C 
HETATM    2  C   UNL     1      -2.149 -27.287   6.876  1.00  0.00     0.001 C 
HETATM    3  C   UNL     1      -3.893 -29.798   4.878  1.00  0.00     0.128 C 
HETATM    4  C   UNL     1      -1.164 -30.147   7.340  1.00  0.00     0.031 C 
HETATM    5  N   UNL     1      -2.590 -31.711   6.345  1.00  0.00    -0.190 N 
ATOM      6  HN  UNL     1      -2.040 -32.455   6.775  1.00  0.00     0.184 HD
HETATM    7  N   UNL     1      -4.134 -33.258   5.473  1.00  0.00    -0.190 N 
ATOM      8  HN  UNL     1      -3.497 -34.031   5.279  1.00  0.00     0.184 HD
HETATM    9  N   UNL     1      -4.505 -30.964   5.242  1.00  0.00    -0.168 N 
HETATM   10  C   UNL     1      -5.467 -33.440   5.600  1.00  0.00     0.063 C 
HETATM   11  C   UNL     1      -3.698 -31.991   5.618  1.00  0.00     0.689 C 
HETATM   12  C   UNL     1      -2.897 -29.410   5.772  1.00  0.00     0.008 C 
HETATM   13  C   UNL     1      -2.716 -28.043   5.900  1.00  0.00     0.015 C 
HETATM   14  C   UNL     1      -1.391 -27.774   7.922  1.00  0.00     0.000 C 
HETATM   15  C   UNL     1      -0.731 -28.971   7.877  1.00  0.00     0.002 C 
HETATM   16  C   UNL     1      -5.848 -31.108   5.333  1.00  0.00     0.117 C 
HETATM   17  C   UNL     1      -6.366 -32.377   5.445  1.00  0.00     0.049 C 
ENDROOT
BRANCH  10  18
HETATM   18  C   UNL     1      -6.000 -34.713   5.944  1.00  0.00     0.023 C 
HETATM   19  C   UNL     1      -6.905 -34.848   7.003  1.00  0.00     0.115 C 
HETATM   20  N   UNL     1      -7.542 -36.040   6.968  1.00  0.00    -0.296 N 
HETATM   21  C   UNL     1      -6.687 -37.092   6.710  1.00  0.00     0.084 C 
HETATM   22  C   UNL     1      -6.355 -38.135   7.725  1.00  0.00     0.089 C 
HETATM   23  N   UNL     1      -5.977 -37.054   5.571  1.00  0.00    -0.355 N 
HETATM   24  C   UNL     1      -5.590 -35.817   5.227  1.00  0.00     0.104 C 
ATOM     25  HN  UNL     1      -5.753 -37.884   5.022  1.00  0.00     0.166 HD
BRANCH  20  26
HETATM   26  C   UNL     1      -8.904 -36.085   6.714  1.00  0.00     0.118 C 
HETATM   27  C   UNL     1      -9.769 -36.798   7.532  1.00  0.00    -0.017 C 
HETATM   28  C   UNL     1      -9.602 -36.833   9.029  1.00  0.00     0.052 C 
HETATM   29  C   UNL     1     -10.805 -37.472   6.929  1.00  0.00     0.012 C 
HETATM   30  C   UNL     1     -11.179 -37.122   5.649  1.00  0.00     0.018 C 
HETATM   31  C   UNL     1     -10.480 -36.099   5.048  1.00  0.00     0.089 C 
HETATM   32  N   UNL     1      -9.423 -35.488   5.627  1.00  0.00    -0.351 N 
ATOM     33  HN  UNL     1      -9.039 -34.618   5.258  1.00  0.00     0.166 HD
ENDBRANCH  20  26
ENDBRANCH  10  18
TORSDOF 2
ENDMDL
MODEL 2
REMARK VINA RESULT:      -8.5      2.650      3.598
REMARK  2 active torsions:
REMARK  status: ('A' for Active; 'I' for Inactive)
REMARK    1  A    between atoms: N_9  and  C_13 
REMARK    2  A    between atoms: C_20  and  C_28 
ROOT
HETATM    1  C   UNL     1      -2.015 -30.462   6.794  1.00  0.00     0.060 C 
HETATM    2  C   UNL     1      -2.304 -27.427   6.045  1.00  0.00     0.001 C 
HETATM    3  C   UNL     1      -3.733 -30.667   5.146  1.00  0.00     0.128 C 
HETATM    4  C   UNL     1      -0.987 -29.800   7.459  1.00  0.00     0.031 C 
HETATM    5  N   UNL     1      -2.214 -31.766   7.146  1.00  0.00    -0.190 N 
ATOM      6  HN  UNL     1      -1.581 -32.240   7.790  1.00  0.00     0.184 HD
HETATM    7  N   UNL     1      -3.561 -33.685   6.946  1.00  0.00    -0.190 N 
ATOM      8  HN  UNL     1      -2.837 -34.401   7.015  1.00  0.00     0.184 HD
HETATM    9  N   UNL     1      -4.202 -31.684   5.927  1.00  0.00    -0.168 N 
HETATM   10  C   UNL     1      -4.863 -33.958   7.183  1.00  0.00     0.063 C 
HETATM   11  C   UNL     1      -3.279 -32.411   6.612  1.00  0.00     0.689 C 
HETATM   12  C   UNL     1      -2.792 -29.874   5.802  1.00  0.00     0.008 C 
HETATM   13  C   UNL     1      -2.775 -28.542   5.427  1.00  0.00     0.015 C 
HETATM   14  C   UNL     1      -1.496 -27.418   7.164  1.00  0.00     0.000 C 
HETATM   15  C   UNL     1      -0.698 -28.469   7.522  1.00  0.00     0.002 C 
HETATM   16  C   UNL     1      -5.519 -31.936   6.119  1.00  0.00     0.117 C 
HETATM   17  C   UNL     1      -5.883 -33.129   6.697  1.00  0.00     0.049 C 
ENDROOT
BRANCH  10  18
HETATM   18  C   UNL     1      -5.242 -35.074   7.981  1.00  0.00     0.023 C 
HETATM   19  C   UNL     1      -4.788 -35.199   9.298  1.00  0.00     0.115 C 
HETATM   20  N   UNL     1      -5.500 -36.119   9.987  1.00  0.00    -0.296 N 
HETATM   21  C   UNL     1      -5.714 -37.275   9.265  1.00  0.00     0.084 C 
HETATM   22  C   UNL     1      -5.084 -38.581   9.618  1.00  0.00     0.089 C 
HETATM   23  N   UNL     1      -6.351 -37.166   8.088  1.00  0.00    -0.355 N 
HETATM   24  C   UNL     1      -6.048 -36.043   7.421  1.00  0.00     0.104 C 
ATOM     25  HN  UNL     1      -7.002 -37.868   7.736  1.00  0.00     0.166 HD
BRANCH  20  26
HETATM   26  C   UNL     1      -6.308 -35.716  11.040  1.00  0.00     0.118 C 
HETATM   27  C   UNL     1      -5.913 -35.883  12.359  1.00  0.00    -0.017 C 
HETATM   28  C   UNL     1      -4.487 -35.668  12.796  1.00  0.00     0.052 C 
HETATM   29  C   UNL     1      -6.876 -36.242  13.272  1.00  0.00     0.012 C 
HETATM   30  C   UNL     1      -8.204 -36.051  12.958  1.00  0.00     0.018 C 
HETATM   31  C   UNL     1      -8.484 -35.498  11.728  1.00  0.00     0.089 C 
HETATM   32  N   UNL     1      -7.532 -35.208  10.814  1.00  0.00    -0.351 N 
ATOM     33  HN  UNL     1      -7.731 -34.632   9.996  1.00  0.00     0.166 HD
ENDBRANCH  20  26
ENDBRANCH  10  18
TORSDOF 2
ENDMDL
MODEL 3
REMARK VINA RESULT:      -8.3      5.361     11.074
REMARK  2 active torsions:
REMARK  status: ('A' for Active; 'I' for Inactive)
REMARK    1  A    between atoms: N_9  and  C_13 
REMARK    2  A    between atoms: C_20  and  C_28 
ROOT
HETATM    1  C   UNL     1      -2.505 -29.566   6.113  1.00  0.00     0.060 C 
HETATM    2  C   UNL     1      -5.579 -30.185   6.282  1.00  0.00     0.001 C 
HETATM    3  C   UNL     1      -2.370 -31.831   6.861  1.00  0.00     0.128 C 
HETATM    4  C   UNL     1      -3.153 -28.464   5.564  1.00  0.00     0.031 C 
HETATM    5  N   UNL     1      -1.167 -29.424   6.341  1.00  0.00    -0.190 N 
ATOM      6  HN  UNL     1      -0.667 -28.589   6.036  1.00  0.00     0.184 HD
HETATM    7  N   UNL     1       0.788 -30.336   7.280  1.00  0.00    -0.190 N 
ATOM      8  HN  UNL     1       1.471 -29.981   6.611  1.00  0.00     0.184 HD
HETATM    9  N   UNL     1      -1.264 -31.417   7.549  1.00  0.00    -0.168 N 
HETATM   10  C   UNL     1       1.142 -30.746   8.518  1.00  0.00     0.063 C 
HETATM   11  C   UNL     1      -0.524 -30.427   6.985  1.00  0.00     0.689 C 
HETATM   12  C   UNL     1      -3.143 -30.769   6.396  1.00  0.00     0.008 C 
HETATM   13  C   UNL     1      -4.504 -31.015   6.321  1.00  0.00     0.015 C 
HETATM   14  C   UNL     1      -5.525 -28.821   6.080  1.00  0.00     0.000 C 
HETATM   15  C   UNL     1      -4.485 -28.196   5.449  1.00  0.00     0.002 C 
HETATM   16  C   UNL     1      -0.934 -31.873   8.780  1.00  0.00     0.117 C 
HETATM   17  C   UNL     1       0.323 -31.600   9.267  1.00  0.00     0.049 C 
ENDROOT
BRANCH  10  18
HETATM   18  C   UNL     1       2.343 -30.281   9.125  1.00  0.00     0.023 C 
HETATM   19  C   UNL     1       2.364 -29.081   9.844  1.00  0.00     0.115 C 
HETATM   20  N   UNL     1       3.474 -28.975  10.608  1.00  0.00    -0.296 N 
HETATM   21  C   UNL     1       4.620 -29.344   9.934  1.00  0.00     0.084 C 
HETATM   22  C   UNL     1       5.686 -28.372   9.553  1.00  0.00     0.089 C 
HETATM   23  N   UNL     1       4.673 -30.587   9.430  1.00  0.00    -0.355 N 
HETATM   24  C   UNL     1       3.493 -31.027   8.971  1.00  0.00     0.104 C 
ATOM     25  HN  UNL     1       5.528 -31.144   9.399  1.00  0.00     0.166 HD
BRANCH  20  26
HETATM   26  C   UNL     1       3.363 -28.993  11.990  1.00  0.00     0.118 C 
HETATM   27  C   UNL     1       3.745 -27.905  12.760  1.00  0.00    -0.017 C 
HETATM   28  C   UNL     1       3.485 -26.487  12.320  1.00  0.00     0.052 C 
HETATM   29  C   UNL     1       4.365 -28.160  13.961  1.00  0.00     0.012 C 
HETATM   30  C   UNL     1       4.242 -29.411  14.527  1.00  0.00     0.018 C 
HETATM   31  C   UNL     1       3.490 -30.339  13.843  1.00  0.00     0.089 C 
HETATM   32  N   UNL     1       2.938 -30.095  12.633  1.00  0.00    -0.351 N 
ATOM     33  HN  UNL     1       2.236 -30.715  12.229  1.00  0.00     0.166 HD
ENDBRANCH  20  26
ENDBRANCH  10  18
TORSDOF 2
ENDMDL
MODEL 4
REMARK VINA RESULT:      -8.2      1.589      2.352
REMARK  2 active torsions:
REMARK  status: ('A' for Active; 'I' for Inactive)
REMARK    1  A    between atoms: N_9  and  C_13 
REMARK    2  A    between atoms: C_20  and  C_28 
ROOT
HETATM    1  C   UNL     1      -2.291 -30.286   6.484  1.00  0.00     0.060 C 
HETATM    2  C   UNL     1      -2.067 -27.166   6.758  1.00  0.00     0.001 C 
HETATM    3  C   UNL     1      -3.890 -29.668   4.820  1.00  0.00     0.128 C 
HETATM    4  C   UNL     1      -1.230 -30.049   7.352  1.00  0.00     0.031 C 
HETATM    5  N   UNL     1      -2.709 -31.582   6.387  1.00  0.00    -0.190 N 
ATOM      6  HN  UNL     1      -2.204 -32.334   6.856  1.00  0.00     0.184 HD
HETATM    7  N   UNL     1      -4.308 -33.087   5.541  1.00  0.00    -0.190 N 
ATOM      8  HN  UNL     1      -3.706 -33.896   5.391  1.00  0.00     0.184 HD
HETATM    9  N   UNL     1      -4.564 -30.789   5.215  1.00  0.00    -0.168 N 
HETATM   10  C   UNL     1      -5.651 -33.200   5.647  1.00  0.00     0.063 C 
HETATM   11  C   UNL     1      -3.815 -31.837   5.648  1.00  0.00     0.689 C 
HETATM   12  C   UNL     1      -2.894 -29.293   5.720  1.00  0.00     0.008 C 
HETATM   13  C   UNL     1      -2.650 -27.932   5.799  1.00  0.00     0.015 C 
HETATM   14  C   UNL     1      -1.354 -27.647   7.837  1.00  0.00     0.000 C 
HETATM   15  C   UNL     1      -0.751 -28.875   7.852  1.00  0.00     0.002 C 
HETATM   16  C   UNL     1      -5.914 -30.866   5.284  1.00  0.00     0.117 C 
HETATM   17  C   UNL     1      -6.495 -32.103   5.433  1.00  0.00     0.049 C 
ENDROOT
BRANCH  10  18
HETATM   18  C   UNL     1      -6.251 -34.433   6.028  1.00  0.00     0.023 C 
HETATM   19  C   UNL     1      -5.662 -35.245   7.003  1.00  0.00     0.115 C 
HETATM   20  N   UNL     1      -6.522 -36.181   7.462  1.00  0.00    -0.296 N 
HETATM   21  C   UNL     1      -7.226 -36.797   6.448  1.00  0.00     0.084 C 
HETATM   22  C   UNL     1      -7.026 -38.228   6.074  1.00  0.00     0.089 C 
HETATM   23  N   UNL     1      -7.968 -36.020   5.643  1.00  0.00    -0.355 N 
HETATM   24  C   UNL     1      -7.415 -34.824   5.400  1.00  0.00     0.104 C 
ATOM     25  HN  UNL     1      -8.865 -36.311   5.254  1.00  0.00     0.166 HD
BRANCH  20  26
HETATM   26  C   UNL     1      -6.968 -36.123   8.774  1.00  0.00     0.118 C 
HETATM   27  C   UNL     1      -6.661 -37.122   9.686  1.00  0.00    -0.017 C 
HETATM   28  C   UNL     1      -5.310 -37.789   9.713  1.00  0.00     0.052 C 
HETATM   29  C   UNL     1      -7.636 -37.483  10.587  1.00  0.00     0.012 C 
HETATM   30  C   UNL     1      -8.690 -36.624  10.815  1.00  0.00     0.018 C 
HETATM   31  C   UNL     1      -8.696 -35.438  10.116  1.00  0.00     0.089 C 
HETATM   32  N   UNL     1      -7.767 -35.123   9.187  1.00  0.00    -0.351 N 
ATOM     33  HN  UNL     1      -7.675 -34.177   8.818  1.00  0.00     0.166 HD
ENDBRANCH  20  26
ENDBRANCH  10  18
TORSDOF 2
ENDMDL
MODEL 5
REMARK VINA RESULT:      -8.1      1.311      2.025
REMARK  2 active torsions:
REMARK  status: ('A' for Active; 'I' for Inactive)
REMARK    1  A    between atoms: N_9  and  C_13 
REMARK    2  A    between atoms: C_20  and  C_28 
ROOT
HETATM    1  C   UNL     1      -2.161 -30.464   6.566  1.00  0.00     0.060 C 
HETATM    2  C   UNL     1      -1.840 -27.344   6.416  1.00  0.00     0.001 C 
HETATM    3  C   UNL     1      -3.809 -30.018   4.895  1.00  0.00     0.128 C 
HETATM    4  C   UNL     1      -1.059 -30.150   7.355  1.00  0.00     0.031 C 
HETATM    5  N   UNL     1      -2.618 -31.747   6.657  1.00  0.00    -0.190 N 
ATOM      6  HN  UNL     1      -2.116 -32.447   7.202  1.00  0.00     0.184 HD
HETATM    7  N   UNL     1      -4.291 -33.297   6.077  1.00  0.00    -0.190 N 
ATOM      8  HN  UNL     1      -3.718 -34.138   6.013  1.00  0.00     0.184 HD
HETATM    9  N   UNL     1      -4.497 -31.054   5.459  1.00  0.00    -0.168 N 
HETATM   10  C   UNL     1      -5.631 -33.352   6.246  1.00  0.00     0.063 C 
HETATM   11  C   UNL     1      -3.760 -32.061   5.999  1.00  0.00     0.689 C 
HETATM   12  C   UNL     1      -2.768 -29.560   5.699  1.00  0.00     0.008 C 
HETATM   13  C   UNL     1      -2.483 -28.210   5.589  1.00  0.00     0.015 C 
HETATM   14  C   UNL     1      -1.097 -27.703   7.523  1.00  0.00     0.000 C 
HETATM   15  C   UNL     1      -0.529 -28.936   7.678  1.00  0.00     0.002 C 
HETATM   16  C   UNL     1      -5.845 -31.078   5.587  1.00  0.00     0.117 C 
HETATM   17  C   UNL     1      -6.453 -32.265   5.920  1.00  0.00     0.049 C 
ENDROOT
BRANCH  10  18
HETATM   18  C   UNL     1      -6.249 -34.503   6.809  1.00  0.00     0.023 C 
HETATM   19  C   UNL     1      -7.497 -34.941   6.353  1.00  0.00     0.115 C 
HETATM   20  N   UNL     1      -7.763 -36.204   6.757  1.00  0.00    -0.296 N 
HETATM   21  C   UNL     1      -7.450 -36.413   8.084  1.00  0.00     0.084 C 
HETATM   22  C   UNL     1      -8.484 -36.649   9.134  1.00  0.00     0.089 C 
HETATM   23  N   UNL     1      -6.182 -36.194   8.468  1.00  0.00    -0.355 N 
HETATM   24  C   UNL     1      -5.603 -35.168   7.830  1.00  0.00     0.104 C 
ATOM     25  HN  UNL     1      -5.706 -36.754   9.175  1.00  0.00     0.166 HD
BRANCH  20  26
HETATM   26  C   UNL     1      -7.840 -37.224   5.821  1.00  0.00     0.118 C 
HETATM   27  C   UNL     1      -9.059 -37.650   5.315  1.00  0.00    -0.017 C 
HETATM   28  C   UNL     1     -10.172 -36.684   5.000  1.00  0.00     0.052 C 
HETATM   29  C   UNL     1      -9.221 -38.997   5.093  1.00  0.00     0.012 C 
HETATM   30  C   UNL     1      -8.106 -39.802   5.003  1.00  0.00     0.018 C 
HETATM   31  C   UNL     1      -6.879 -39.192   5.140  1.00  0.00     0.089 C 
HETATM   32  N   UNL     1      -6.735 -37.878   5.420  1.00  0.00    -0.351 N 
ATOM     33  HN  UNL     1      -5.835 -37.406   5.333  1.00  0.00     0.166 HD
ENDBRANCH  20  26
ENDBRANCH  10  18
TORSDOF 2
ENDMDL
MODEL 6
REMARK VINA RESULT:      -8.1      2.328      4.291
REMARK  2 active torsions:
REMARK  status: ('A' for Active; 'I' for Inactive)
REMARK    1  A    between atoms: N_9  and  C_13 
REMARK    2  A    between atoms: C_20  and  C_28 
ROOT
HETATM    1  C   UNL     1      -5.681 -30.945   5.830  1.00  0.00     0.060 C 
HETATM    2  C   UNL     1      -3.716 -28.975   4.375  1.00  0.00     0.001 C 
HETATM    3  C   UNL     1      -3.700 -32.276   5.939  1.00  0.00     0.128 C 
HETATM    4  C   UNL     1      -6.387 -29.760   5.646  1.00  0.00     0.031 C 
HETATM    5  N   UNL     1      -6.410 -32.018   6.253  1.00  0.00    -0.190 N 
ATOM      6  HN  UNL     1      -7.394 -31.920   6.504  1.00  0.00     0.184 HD
HETATM    7  N   UNL     1      -6.455 -34.328   6.698  1.00  0.00    -0.190 N 
ATOM      8  HN  UNL     1      -7.112 -34.331   7.478  1.00  0.00     0.184 HD
HETATM    9  N   UNL     1      -4.544 -33.339   5.792  1.00  0.00    -0.168 N 
HETATM   10  C   UNL     1      -6.200 -35.438   5.970  1.00  0.00     0.063 C 
HETATM   11  C   UNL     1      -5.787 -33.218   6.328  1.00  0.00     0.689 C 
HETATM   12  C   UNL     1      -4.308 -31.059   5.637  1.00  0.00     0.008 C 
HETATM   13  C   UNL     1      -3.470 -30.092   5.108  1.00  0.00     0.015 C 
HETATM   14  C   UNL     1      -4.961 -28.415   4.170  1.00  0.00     0.000 C 
HETATM   15  C   UNL     1      -6.019 -28.609   5.014  1.00  0.00     0.002 C 
HETATM   16  C   UNL     1      -4.238 -34.444   5.071  1.00  0.00     0.117 C 
HETATM   17  C   UNL     1      -5.035 -35.556   5.202  1.00  0.00     0.049 C 
ENDROOT
BRANCH  10  18
HETATM   18  C   UNL     1      -7.137 -36.508   5.920  1.00  0.00     0.023 C 
HETATM   19  C   UNL     1      -6.902 -37.628   5.114  1.00  0.00     0.115 C 
HETATM   20  N   UNL     1      -7.711 -38.660   5.444  1.00  0.00    -0.296 N 
HETATM   21  C   UNL     1      -9.019 -38.267   5.640  1.00  0.00     0.084 C 
HETATM   22  C   UNL     1     -10.130 -38.656   4.721  1.00  0.00     0.089 C 
HETATM   23  N   UNL     1      -9.257 -37.338   6.578  1.00  0.00    -0.355 N 
HETATM   24  C   UNL     1      -8.293 -36.411   6.666  1.00  0.00     0.104 C 
ATOM     25  HN  UNL     1     -10.090 -37.336   7.168  1.00  0.00     0.166 HD
BRANCH  20  26
HETATM   26  C   UNL     1      -7.169 -39.811   5.996  1.00  0.00     0.118 C 
HETATM   27  C   UNL     1      -6.938 -40.942   5.227  1.00  0.00    -0.017 C 
HETATM   28  C   UNL     1      -6.425 -40.853   3.813  1.00  0.00     0.052 C 
HETATM   29  C   UNL     1      -7.182 -42.165   5.805  1.00  0.00     0.012 C 
HETATM   30  C   UNL     1      -7.261 -42.255   7.178  1.00  0.00     0.018 C 
HETATM   31  C   UNL     1      -7.084 -41.093   7.895  1.00  0.00     0.089 C 
HETATM   32  N   UNL     1      -6.907 -39.886   7.313  1.00  0.00    -0.351 N 
ATOM     33  HN  UNL     1      -6.592 -39.074   7.844  1.00  0.00     0.166 HD
ENDBRANCH  20  26
ENDBRANCH  10  18
TORSDOF 2
ENDMDL
MODEL 7
REMARK VINA RESULT:      -8.0      3.161      4.129
REMARK  2 active torsions:
REMARK  status: ('A' for Active; 'I' for Inactive)
REMARK    1  A    between atoms: N_9  and  C_13 
REMARK    2  A    between atoms: C_20  and  C_28 
ROOT
HETATM    1  C   UNL     1      -1.704 -30.347   7.236  1.00  0.00     0.060 C 
HETATM    2  C   UNL     1      -2.578 -27.822   5.588  1.00  0.00     0.001 C 
HETATM    3  C   UNL     1      -3.053 -31.443   5.597  1.00  0.00     0.128 C 
HETATM    4  C   UNL     1      -0.974 -29.279   7.749  1.00  0.00     0.031 C 
HETATM    5  N   UNL     1      -1.644 -31.511   7.947  1.00  0.00    -0.190 N 
ATOM      6  HN  UNL     1      -1.024 -31.605   8.751  1.00  0.00     0.184 HD
HETATM    7  N   UNL     1      -2.457 -33.701   8.229  1.00  0.00    -0.190 N 
ATOM      8  HN  UNL     1      -1.605 -34.149   8.567  1.00  0.00     0.184 HD
HETATM    9  N   UNL     1      -3.385 -32.299   6.609  1.00  0.00    -0.168 N 
HETATM   10  C   UNL     1      -3.680 -34.238   8.435  1.00  0.00     0.063 C 
HETATM   11  C   UNL     1      -2.434 -32.537   7.550  1.00  0.00     0.689 C 
HETATM   12  C   UNL     1      -2.436 -30.281   6.055  1.00  0.00     0.008 C 
HETATM   13  C   UNL     1      -2.674 -29.146   5.299  1.00  0.00     0.015 C 
HETATM   14  C   UNL     1      -1.976 -27.294   6.712  1.00  0.00     0.000 C 
HETATM   15  C   UNL     1      -1.018 -27.954   7.431  1.00  0.00     0.002 C 
HETATM   16  C   UNL     1      -4.619 -32.833   6.763  1.00  0.00     0.117 C 
HETATM   17  C   UNL     1      -4.778 -33.878   7.644  1.00  0.00     0.049 C 
ENDROOT
BRANCH  10  18
HETATM   18  C   UNL     1      -3.904 -35.156   9.499  1.00  0.00     0.023 C 
HETATM   19  C   UNL     1      -5.204 -35.511   9.876  1.00  0.00     0.115 C 
HETATM   20  N   UNL     1      -5.214 -36.616  10.656  1.00  0.00    -0.296 N 
HETATM   21  C   UNL     1      -4.243 -36.583  11.635  1.00  0.00     0.084 C 
HETATM   22  C   UNL     1      -4.560 -36.457  13.088  1.00  0.00     0.089 C 
HETATM   23  N   UNL     1      -2.965 -36.458  11.243  1.00  0.00    -0.355 N 
HETATM   24  C   UNL     1      -2.814 -35.672  10.167  1.00  0.00     0.104 C 
ATOM     25  HN  UNL     1      -2.186 -36.916  11.715  1.00  0.00     0.166 HD
BRANCH  20  26
HETATM   26  C   UNL     1      -5.778 -37.790  10.179  1.00  0.00     0.118 C 
HETATM   27  C   UNL     1      -6.985 -38.263  10.672  1.00  0.00    -0.017 C 
HETATM   28  C   UNL     1      -8.125 -37.338  11.012  1.00  0.00     0.052 C 
HETATM   29  C   UNL     1      -7.119 -39.622  10.830  1.00  0.00     0.012 C 
HETATM   30  C   UNL     1      -6.255 -40.465  10.163  1.00  0.00     0.018 C 
HETATM   31  C   UNL     1      -5.300 -39.878   9.364  1.00  0.00     0.089 C 
HETATM   32  N   UNL     1      -5.139 -38.540   9.265  1.00  0.00    -0.351 N 
ATOM     33  HN  UNL     1      -4.562 -38.121   8.536  1.00  0.00     0.166 HD
ENDBRANCH  20  26
ENDBRANCH  10  18
TORSDOF 2
ENDMDL
MODEL 8
REMARK VINA RESULT:      -7.8      3.319      9.625
REMARK  2 active torsions:
REMARK  status: ('A' for Active; 'I' for Inactive)
REMARK    1  A    between atoms: N_9  and  C_13 
REMARK    2  A    between atoms: C_20  and  C_28 
ROOT
HETATM    1  C   UNL     1      -4.911 -38.565   9.900  1.00  0.00     0.060 C 
HETATM    2  C   UNL     1      -6.872 -40.445   8.325  1.00  0.00     0.001 C 
HETATM    3  C   UNL     1      -6.420 -36.901   9.087  1.00  0.00     0.128 C 
HETATM    4  C   UNL     1      -4.524 -39.867  10.201  1.00  0.00     0.031 C 
HETATM    5  N   UNL     1      -4.060 -37.577  10.305  1.00  0.00    -0.190 N 
ATOM      6  HN  UNL     1      -3.242 -37.789  10.876  1.00  0.00     0.184 HD
HETATM    7  N   UNL     1      -3.520 -35.287  10.256  1.00  0.00    -0.190 N 
ATOM      8  HN  UNL     1      -3.117 -35.195  11.189  1.00  0.00     0.184 HD
HETATM    9  N   UNL     1      -5.315 -36.102   9.004  1.00  0.00    -0.168 N 
HETATM   10  C   UNL     1      -3.266 -34.395   9.273  1.00  0.00     0.063 C 
HETATM   11  C   UNL     1      -4.338 -36.307   9.926  1.00  0.00     0.689 C 
HETATM   12  C   UNL     1      -6.101 -38.247   9.254  1.00  0.00     0.008 C 
HETATM   13  C   UNL     1      -6.995 -39.142   8.693  1.00  0.00     0.015 C 
HETATM   14  C   UNL     1      -5.813 -41.267   8.654  1.00  0.00     0.000 C 
HETATM   15  C   UNL     1      -5.005 -41.054   9.735  1.00  0.00     0.002 C 
HETATM   16  C   UNL     1      -5.113 -35.203   8.012  1.00  0.00     0.117 C 
HETATM   17  C   UNL     1      -4.112 -34.272   8.163  1.00  0.00     0.049 C 
ENDROOT
BRANCH  10  18
HETATM   18  C   UNL     1      -2.100 -33.581   9.310  1.00  0.00     0.023 C 
HETATM   19  C   UNL     1      -1.558 -33.053   8.133  1.00  0.00     0.115 C 
HETATM   20  N   UNL     1      -0.677 -32.060   8.389  1.00  0.00    -0.296 N 
HETATM   21  C   UNL     1       0.190 -32.372   9.416  1.00  0.00     0.084 C 
HETATM   22  C   UNL     1       1.648 -32.608   9.205  1.00  0.00     0.089 C 
HETATM   23  N   UNL     1      -0.343 -32.669  10.613  1.00  0.00    -0.355 N 
HETATM   24  C   UNL     1      -1.500 -33.340  10.528  1.00  0.00     0.104 C 
ATOM     25  HN  UNL     1       0.090 -32.409  11.499  1.00  0.00     0.166 HD
BRANCH  20  26
HETATM   26  C   UNL     1      -0.975 -30.760   8.010  1.00  0.00     0.118 C 
HETATM   27  C   UNL     1      -1.290 -30.445   6.696  1.00  0.00    -0.017 C 
HETATM   28  C   UNL     1      -2.132 -31.354   5.838  1.00  0.00     0.052 C 
HETATM   29  C   UNL     1      -0.816 -29.255   6.196  1.00  0.00     0.012 C 
HETATM   30  C   UNL     1      -0.404 -28.274   7.073  1.00  0.00     0.018 C 
HETATM   31  C   UNL     1      -0.499 -28.555   8.418  1.00  0.00     0.089 C 
HETATM   32  N   UNL     1      -0.907 -29.751   8.896  1.00  0.00    -0.351 N 
ATOM     33  HN  UNL     1      -1.151 -29.882   9.878  1.00  0.00     0.166 HD
ENDBRANCH  20  26
ENDBRANCH  10  18
TORSDOF 2
ENDMDL
MODEL 9
REMARK VINA RESULT:      -7.8      2.339      8.995
REMARK  2 active torsions:
REMARK  status: ('A' for Active; 'I' for Inactive)
REMARK    1  A    between atoms: N_9  and  C_13 
REMARK    2  A    between atoms: C_20  and  C_28 
ROOT
HETATM    1  C   UNL     1      -6.566 -37.379   7.131  1.00  0.00     0.060 C 
HETATM    2  C   UNL     1      -7.207 -40.054   5.618  1.00  0.00     0.001 C 
HETATM    3  C   UNL     1      -6.443 -36.557   4.892  1.00  0.00     0.128 C 
HETATM    4  C   UNL     1      -6.919 -38.302   8.111  1.00  0.00     0.031 C 
HETATM    5  N   UNL     1      -6.037 -36.203   7.579  1.00  0.00    -0.190 N 
ATOM      6  HN  UNL     1      -5.996 -35.989   8.575  1.00  0.00     0.184 HD
HETATM    7  N   UNL     1      -4.996 -34.166   7.028  1.00  0.00    -0.190 N 
ATOM      8  HN  UNL     1      -5.389 -33.578   7.764  1.00  0.00     0.184 HD
HETATM    9  N   UNL     1      -5.457 -35.740   5.367  1.00  0.00    -0.168 N 
HETATM   10  C   UNL     1      -3.868 -33.827   6.366  1.00  0.00     0.063 C 
HETATM   11  C   UNL     1      -5.568 -35.328   6.657  1.00  0.00     0.689 C 
HETATM   12  C   UNL     1      -6.755 -37.593   5.770  1.00  0.00     0.008 C 
HETATM   13  C   UNL     1      -7.172 -38.771   5.174  1.00  0.00     0.015 C 
HETATM   14  C   UNL     1      -7.019 -40.449   6.927  1.00  0.00     0.000 C 
HETATM   15  C   UNL     1      -7.230 -39.625   7.998  1.00  0.00     0.002 C 
HETATM   16  C   UNL     1      -4.352 -35.408   4.658  1.00  0.00     0.117 C 
HETATM   17  C   UNL     1      -3.562 -34.380   5.116  1.00  0.00     0.049 C 
ENDROOT
BRANCH  10  18
HETATM   18  C   UNL     1      -2.924 -32.930   6.941  1.00  0.00     0.023 C 
HETATM   19  C   UNL     1      -2.194 -32.047   6.138  1.00  0.00     0.115 C 
HETATM   20  N   UNL     1      -1.613 -31.070   6.870  1.00  0.00    -0.296 N 
HETATM   21  C   UNL     1      -1.011 -31.551   8.015  1.00  0.00     0.084 C 
HETATM   22  C   UNL     1       0.468 -31.559   8.212  1.00  0.00     0.089 C 
HETATM   23  N   UNL     1      -1.780 -32.217   8.890  1.00  0.00    -0.355 N 
HETATM   24  C   UNL     1      -2.728 -32.963   8.306  1.00  0.00     0.104 C 
ATOM     25  HN  UNL     1      -1.656 -32.161   9.901  1.00  0.00     0.166 HD
BRANCH  20  26
HETATM   26  C   UNL     1      -2.034 -29.757   6.722  1.00  0.00     0.118 C 
HETATM   27  C   UNL     1      -1.200 -28.692   7.029  1.00  0.00    -0.017 C 
HETATM   28  C   UNL     1       0.273 -28.716   6.712  1.00  0.00     0.052 C 
HETATM   29  C   UNL     1      -1.766 -27.592   7.629  1.00  0.00     0.012 C 
HETATM   30  C   UNL     1      -3.131 -27.414   7.553  1.00  0.00     0.018 C 
HETATM   31  C   UNL     1      -3.851 -28.366   6.866  1.00  0.00     0.089 C 
HETATM   32  N   UNL     1      -3.290 -29.475   6.335  1.00  0.00    -0.351 N 
ATOM     33  HN  UNL     1      -3.794 -30.068   5.676  1.00  0.00     0.166 HD
ENDBRANCH  20  26
ENDBRANCH  10  18
TORSDOF 2
ENDMDL
