REMARK  0 active torsions:
REMARK  status: ('A' for Active; 'I' for Inactive)
ROOT
HETATM    1  C   UNL     1       3.052  20.120  22.207  1.00  0.00     0.143 C 
HETATM    2  C   UNL     1       5.568  18.013  23.726  1.00  0.00     0.233 C 
HETATM    3  O   UNL     1       3.316  19.217  23.264  1.00  0.00    -0.324 OA
HETATM    4  O   UNL     1       6.688  18.053  22.840  1.00  0.00    -0.380 OA
HETATM    5  C   UNL     1       5.023  19.159  21.767  1.00  0.00    -0.001 C 
HETATM    6  C   UNL     1       4.042  20.038  21.250  1.00  0.00     0.036 C 
HETATM    7  C   UNL     1       4.601  18.833  23.070  1.00  0.00     0.084 C 
HETATM    8  C   UNL     1       6.471  19.002  21.801  1.00  0.00     0.209 C 
ENDROOT
TORSDOF 0
