MODEL 1
REMARK VINA RESULT:     -12.0      0.000      0.000
REMARK  5 active torsions:
REMARK  status: ('A' for Active; 'I' for Inactive)
REMARK    1  A    between atoms: C_3  and  C_9 
REMARK    2  A    between atoms: P_5  and  C_10 
REMARK    3  A    between atoms: C_14  and  O_19 
REMARK    4  A    between atoms: C_18  and  C_27 
REMARK    5  A    between atoms: C_29  and  O_31 
ROOT
HETATM    1  C   UNL     1      -6.343   9.260  11.118  1.00  0.00     0.013 C 
HETATM    2  C   UNL     1      -7.599   8.937  11.605  1.00  0.00    -0.015 C 
HETATM    3  C   UNL     1      -8.612   8.271  10.892  1.00  0.00    -0.022 C 
HETATM    4  C   UNL     1      -7.580  10.273  13.668  1.00  0.00     0.016 C 
HETATM    5  C   UNL     1      -9.425   7.381  11.611  1.00  0.00     0.024 C 
HETATM    6  C   UNL     1      -8.246   7.956  13.646  1.00  0.00    -0.012 C 
HETATM    7  C   UNL     1      -7.972   9.292   8.737  1.00  0.00     0.066 C 
HETATM    8  C   UNL     1      -7.587  10.267  15.055  1.00  0.00     0.037 C 
HETATM    9  C   UNL     1      -5.847   9.264   9.844  1.00  0.00     0.004 C 
HETATM   10  C   UNL     1      -9.011   7.013  12.898  1.00  0.00    -0.024 C 
HETATM   11  C   UNL     1      -8.793   8.495   9.523  1.00  0.00     0.048 C 
HETATM   12  C   UNL     1      -7.855   9.115  12.964  1.00  0.00    -0.014 C 
HETATM   13  C   UNL     1      -8.058   7.895  15.019  1.00  0.00     0.049 C 
HETATM   14  C   UNL     1      -7.802   9.071  15.722  1.00  0.00     0.066 C 
HETATM   15  C   UNL     1      -6.585   9.158   8.693  1.00  0.00     0.036 C 
ENDROOT
BRANCH  10  16
HETATM   16  C   UNL     1      -9.307   5.733  13.388  1.00  0.00     0.013 C 
HETATM   17  C   UNL     1      -9.205   4.461  12.972  1.00  0.00     0.012 C 
BRANCH  17  18
HETATM   18  C   UNL     1      -8.478   3.418  13.715  1.00  0.00    -0.036 C 
HETATM   19  C   UNL     1      -9.080   2.978  14.881  1.00  0.00     0.012 C 
HETATM   20  C   UNL     1      -8.580   2.091  15.791  1.00  0.00     0.022 C 
HETATM   21  C   UNL     1      -7.376   1.455  15.918  1.00  0.00     0.068 C 
HETATM   22  C   UNL     1      -6.295   1.494  15.058  1.00  0.00     0.021 C 
HETATM   23  C   UNL     1      -6.369   2.056  13.801  1.00  0.00     0.002 C 
HETATM   24  C   UNL     1      -7.322   2.854  13.228  1.00  0.00     0.011 C 
BRANCH  21  25
HETATM   25  P   UNL     1      -7.230   0.429  17.346  1.00  0.00     0.295 P 
HETATM   26  O   UNL     1      -6.180  -0.538  16.956  1.00  0.00    -0.636 OA
HETATM   27  O   UNL     1      -6.801   1.275  18.518  1.00  0.00    -0.636 OA
HETATM   28  O   UNL     1      -8.683   0.205  17.661  1.00  0.00    -0.636 OA
ENDBRANCH  21  25
ENDBRANCH  17  18
ENDBRANCH  10  16
BRANCH  14  29
HETATM   29  O   UNL     1      -8.212   9.125  17.022  1.00  0.00    -0.361 OA
ATOM     30  HO  UNL     1      -8.278   9.978  17.434  1.00  0.00     0.217 HD
ENDBRANCH  14  29
BRANCH   7  31
HETATM   31  O   UNL     1      -8.487  10.323   8.017  1.00  0.00    -0.361 OA
ATOM     32  HO  UNL     1      -7.946  10.803   7.400  1.00  0.00     0.217 HD
ENDBRANCH   7  31
TORSDOF 5
ENDMDL
MODEL 2
REMARK VINA RESULT:      -9.0      1.452      4.307
REMARK  5 active torsions:
REMARK  status: ('A' for Active; 'I' for Inactive)
REMARK    1  A    between atoms: C_3  and  C_9 
REMARK    2  A    between atoms: P_5  and  C_10 
REMARK    3  A    between atoms: C_14  and  O_19 
REMARK    4  A    between atoms: C_18  and  C_27 
REMARK    5  A    between atoms: C_29  and  O_31 
ROOT
HETATM    1  C   UNL     1     -10.143  10.748  14.428  1.00  0.00     0.013 C 
HETATM    2  C   UNL     1      -9.145   9.823  14.168  1.00  0.00    -0.015 C 
HETATM    3  C   UNL     1      -8.404   9.118  15.133  1.00  0.00    -0.022 C 
HETATM    4  C   UNL     1      -8.823  10.254  11.769  1.00  0.00     0.016 C 
HETATM    5  C   UNL     1      -8.047   7.795  14.828  1.00  0.00     0.024 C 
HETATM    6  C   UNL     1      -9.080   8.024  12.651  1.00  0.00    -0.012 C 
HETATM    7  C   UNL     1      -8.438  10.989  16.743  1.00  0.00     0.066 C 
HETATM    8  C   UNL     1      -8.930   9.761  10.477  1.00  0.00     0.037 C 
HETATM    9  C   UNL     1     -10.498  11.386  15.585  1.00  0.00     0.004 C 
HETATM   10  C   UNL     1      -8.671   7.188  13.730  1.00  0.00    -0.024 C 
HETATM   11  C   UNL     1      -8.044   9.720  16.343  1.00  0.00     0.048 C 
HETATM   12  C   UNL     1      -8.950   9.403  12.853  1.00  0.00    -0.014 C 
HETATM   13  C   UNL     1      -9.386   7.563  11.378  1.00  0.00     0.049 C 
HETATM   14  C   UNL     1      -9.236   8.421  10.291  1.00  0.00     0.066 C 
HETATM   15  C   UNL     1      -9.765  11.417  16.743  1.00  0.00     0.036 C 
ENDROOT
BRANCH  10  16
HETATM   16  C   UNL     1      -8.920   5.807  13.743  1.00  0.00     0.013 C 
HETATM   17  C   UNL     1      -8.466   4.710  13.118  1.00  0.00     0.012 C 
BRANCH  17  18
HETATM   18  C   UNL     1      -7.915   3.541  13.825  1.00  0.00    -0.036 C 
HETATM   19  C   UNL     1      -8.682   3.051  14.868  1.00  0.00     0.012 C 
HETATM   20  C   UNL     1      -8.364   2.042  15.732  1.00  0.00     0.022 C 
HETATM   21  C   UNL     1      -7.237   1.291  15.923  1.00  0.00     0.068 C 
HETATM   22  C   UNL     1      -6.062   1.312  15.195  1.00  0.00     0.021 C 
HETATM   23  C   UNL     1      -5.945   1.993  14.000  1.00  0.00     0.002 C 
HETATM   24  C   UNL     1      -6.759   2.923  13.412  1.00  0.00     0.011 C 
BRANCH  21  25
HETATM   25  P   UNL     1      -7.340   0.129  17.246  1.00  0.00     0.295 P 
HETATM   26  O   UNL     1      -6.196  -0.774  16.988  1.00  0.00    -0.636 OA
HETATM   27  O   UNL     1      -7.189   0.860  18.556  1.00  0.00    -0.636 OA
HETATM   28  O   UNL     1      -8.817  -0.154  17.236  1.00  0.00    -0.636 OA
ENDBRANCH  21  25
ENDBRANCH  17  18
ENDBRANCH  10  16
BRANCH  14  29
HETATM   29  O   UNL     1      -8.940   7.857   9.085  1.00  0.00    -0.361 OA
ATOM     30  HO  UNL     1      -8.329   7.130   9.069  1.00  0.00     0.217 HD
ENDBRANCH  14  29
BRANCH   7  31
HETATM   31  O   UNL     1      -7.517  11.928  17.084  1.00  0.00    -0.361 OA
ATOM     32  HO  UNL     1      -6.598  11.700  17.169  1.00  0.00     0.217 HD
ENDBRANCH   7  31
TORSDOF 5
ENDMDL
