REMARK  4 active torsions:
REMARK  status: ('A' for Active; 'I' for Inactive)
REMARK    1  A    between atoms: C_10  and  N_28 
REMARK    2  A    between atoms: C_11  and  C_35 
REMARK    3  A    between atoms: C_15  and  O_39 
REMARK    4  A    between atoms: C_27  and  N_28 
ROOT
HETATM    1  C   UNL     1     -28.666  22.549 -16.164  1.00  0.00    -0.009 C 
HETATM    2  C   UNL     1     -29.679  21.517 -15.718  1.00  0.00     0.087 C 
HETATM    3  C   UNL     1     -31.760  18.072 -18.139  1.00  0.00     0.097 C 
HETATM    4  N   UNL     1     -31.722  19.500 -20.132  1.00  0.00    -0.039 N 
ATOM      5  HN1 UNL     1     -31.776  20.324 -19.533  1.00  0.00     0.280 HD
ATOM      6  HN2 UNL     1     -32.239  19.905 -20.913  1.00  0.00     0.280 HD
HETATM    7  C   UNL     1     -32.332  18.277 -19.556  1.00  0.00     0.387 C 
HETATM    8  C   UNL     1     -29.378  20.399 -16.667  1.00  0.00    -0.070 C 
HETATM    9  N   UNL     1     -31.817  17.179 -20.409  1.00  0.00    -0.040 N 
ATOM     10  HN1 UNL     1     -32.493  16.861 -21.104  1.00  0.00     0.280 HD
ATOM     11  HN2 UNL     1     -31.719  16.296 -19.909  1.00  0.00     0.280 HD
HETATM   12  C   UNL     1     -29.443  16.631 -20.695  1.00  0.00     0.042 C 
HETATM   13  C   UNL     1     -30.562  17.648 -21.000  1.00  0.00     0.215 C 
HETATM   14  C   UNL     1     -30.347  19.068 -20.462  1.00  0.00     0.226 C 
HETATM   15  C   UNL     1     -28.621  20.247 -19.047  1.00  0.00     0.021 C 
HETATM   16  C   UNL     1     -26.846  24.181 -15.674  1.00  0.00     0.144 C 
HETATM   17  N   UNL     1     -28.184  23.666 -15.368  1.00  0.00    -0.394 N 
ATOM     18  HN  UNL     1     -28.753  24.075 -14.627  1.00  0.00     0.159 HD
HETATM   19  C   UNL     1     -26.394  23.944 -17.115  1.00  0.00     0.100 C 
HETATM   20  C   UNL     1     -29.985  19.129 -16.711  1.00  0.00     0.007 C 
HETATM   21  C   UNL     1     -30.418  18.738 -17.976  1.00  0.00    -0.070 C 
HETATM   22  C   UNL     1     -28.286  20.710 -17.630  1.00  0.00     0.025 C 
HETATM   23  C   UNL     1     -28.160  22.254 -17.556  1.00  0.00     0.041 C 
HETATM   24  C   UNL     1     -26.660  22.493 -17.463  1.00  0.00     0.038 C 
HETATM   25  C   UNL     1     -29.524  19.019 -19.159  1.00  0.00     0.048 C 
ENDROOT
BRANCH  19  26
HETATM   26  N   UNL     1     -24.947  24.150 -17.212  1.00  0.00    -0.384 N 
ATOM     27  HN  UNL     1     -24.451  24.756 -16.559  1.00  0.00     0.160 HD
BRANCH  26  28
HETATM   28  C   UNL     1     -24.277  23.481 -18.236  1.00  0.00     0.028 C 
HETATM   29  C   UNL     1     -24.704  23.662 -19.581  1.00  0.00     0.028 C 
HETATM   30  C   UNL     1     -24.185  23.337 -20.759  1.00  0.00     0.018 C 
HETATM   31  C   UNL     1     -23.085  22.496 -21.319  1.00  0.00     0.106 C 
HETATM   32  C   UNL     1     -23.732  21.344 -22.082  1.00  0.00     0.056 C 
HETATM   33  C   UNL     1     -22.146  21.985 -20.230  1.00  0.00     0.056 C 
HETATM   34  C   UNL     1     -22.241  22.225 -18.885  1.00  0.00     0.020 C 
HETATM   35  C   UNL     1     -23.190  22.622 -17.963  1.00  0.00     0.030 C 
BRANCH  31  36
HETATM   36  O   UNL     1     -22.305  23.286 -22.223  1.00  0.00    -0.381 OA
ATOM     37  HO  UNL     1     -21.605  22.751 -22.579  1.00  0.00     0.211 HD
ENDBRANCH  31  36
BRANCH  33  38
HETATM   38  C   UNL     1     -21.001  21.105 -20.672  1.00  0.00     0.208 C 
HETATM   39  O   UNL     1     -21.023  19.891 -20.425  1.00  0.00    -0.644 OA
HETATM   40  O   UNL     1     -20.021  21.664 -21.222  1.00  0.00    -0.644 OA
ENDBRANCH  33  38
ENDBRANCH  26  28
ENDBRANCH  19  26
TORSDOF 4
