REMARK  3 active torsions:
REMARK  status: ('A' for Active; 'I' for Inactive)
REMARK    1  A    between atoms: C_1  and  C_15 
REMARK    2  A    between atoms: P_3  and  C_4 
REMARK    3  A    between atoms: CA_17  and  C_19 
ROOT
HETATM    1  C   UNL     1      86.864  66.088  17.718  1.00  0.00     0.037 C 
HETATM    2  C   UNL     1      88.899  66.985  18.589  1.00  0.00     0.028 C 
HETATM    3  N   UNL     1      88.348  64.720  19.004  1.00  0.00    -0.352 N 
ATOM      4  HN  UNL     1      88.619  63.808  19.372  1.00  0.00     0.166 HD
HETATM    5  C   UNL     1      89.017  65.833  19.351  1.00  0.00     0.039 C 
HETATM    6  CA  UNL     1      87.311  64.845  18.158  1.00  0.00     0.110 C 
HETATM    7  C   UNL     1      87.751  67.147  17.838  1.00  0.00     0.004 C 
ENDROOT
BRANCH   5   8
HETATM    8  C   UNL     1      89.779  65.861  20.644  1.00  0.00     0.172 C 
HETATM    9  O   UNL     1      89.686  64.668  21.404  1.00  0.00    -0.379 OA
HETATM   10  C   UNL     1      90.829  64.536  22.259  1.00  0.00     0.187 C 
HETATM   11  C   UNL     1      91.814  65.613  21.871  1.00  0.00     0.142 C 
HETATM   12  C   UNL     1      91.253  66.225  20.589  1.00  0.00     0.059 C 
BRANCH  11  13
HETATM   13  P   UNL     1      93.478  64.905  21.665  1.00  0.00     0.266 P 
HETATM   14  O   UNL     1      94.357  65.759  22.547  1.00  0.00    -0.639 OA
HETATM   15  O   UNL     1      93.423  63.521  22.183  1.00  0.00    -0.639 OA
HETATM   16  O   UNL     1      93.754  64.987  20.187  1.00  0.00    -0.639 OA
ENDBRANCH  11  13
ENDBRANCH   5   8
BRANCH   6  17
HETATM   17  C   UNL     1      86.480  63.636  17.875  1.00  0.00     0.226 C 
HETATM   18  O   UNL     1      86.182  63.284  16.730  1.00  0.00    -0.643 OA
HETATM   19  OXT UNL     1      85.988  63.073  18.903  1.00  0.00    -0.643 OA
ENDBRANCH   6  17
TORSDOF 3
