REMARK  3 active torsions:
REMARK  status: ('A' for Active; 'I' for Inactive)
REMARK    1  A    between atoms: C_5  and  N_17 
REMARK    2  A    between atoms: O_10  and  C_16 
REMARK    3  A    between atoms: C_15  and  N_17 
ROOT
HETATM    1  C   UNL     1      89.128  66.918  19.402  1.00  0.00     0.025 C 
HETATM    2  C   UNL     1      86.370  63.443  17.559  1.00  0.00    -0.018 C 
HETATM    3  C   UNL     1      87.982  67.263  18.448  1.00  0.00     0.007 C 
HETATM    4  C   UNL     1      85.282  64.554  17.667  1.00  0.00     0.005 C 
HETATM    5  C   UNL     1      89.098  65.396  19.509  1.00  0.00     0.081 C 
HETATM    6  C   UNL     1      85.950  65.925  17.562  1.00  0.00     0.005 C 
HETATM    7  C   UNL     1      86.996  66.113  18.665  1.00  0.00    -0.008 C 
HETATM    8  C   UNL     1      85.748  62.058  17.738  1.00  0.00     0.010 C 
HETATM    9  C   UNL     1      88.002  64.964  18.544  1.00  0.00     0.012 C 
HETATM   10  C   UNL     1      87.289  63.653  18.788  1.00  0.00     0.011 C 
ENDROOT
BRANCH   5  11
HETATM   11  N   UNL     1      90.364  64.783  19.198  1.00  0.00    -0.404 N 
ATOM     12  HN  UNL     1      90.545  64.546  18.223  1.00  0.00     0.154 HD
BRANCH  11  13
HETATM   13  C   UNL     1      91.401  64.477  20.163  1.00  0.00     0.176 C 
HETATM   14  C   UNL     1      92.732  65.052  19.742  1.00  0.00     0.151 C 
HETATM   15  C   UNL     1      93.366  65.789  20.902  1.00  0.00     0.083 C 
HETATM   16  O   UNL     1      93.244  64.930  18.660  1.00  0.00    -0.296 OA
HETATM   17  C   UNL     1      92.404  65.683  22.065  1.00  0.00     0.041 C 
HETATM   18  C   UNL     1      91.133  64.990  21.586  1.00  0.00     0.148 C 
BRANCH  18  19
HETATM   19  O   UNL     1      90.921  63.818  22.380  1.00  0.00    -0.393 OA
ATOM     20  HO  UNL     1      90.755  64.135  23.260  1.00  0.00     0.210 HD
ENDBRANCH  18  19
ENDBRANCH  11  13
ENDBRANCH   5  11
TORSDOF 3
