MODEL 1
REMARK VINA RESULT:     -12.0      0.000      0.000
REMARK  0 active torsions:
REMARK  status: ('A' for Active; 'I' for Inactive)
ROOT
HETATM    1  C   UNL     1       9.692  25.569 -11.249  1.00  0.00     0.075 C 
HETATM    2  C   UNL     1       2.169  25.900  -6.226  1.00  0.00     0.029 C 
HETATM    3  C   UNL     1       6.743  25.865 -11.333  1.00  0.00     0.113 C 
HETATM    4  C   UNL     1       5.619  26.098  -7.498  1.00  0.00    -0.030 C 
HETATM    5  C   UNL     1       6.639  25.551  -6.710  1.00  0.00     0.028 C 
HETATM    6  C   UNL     1       3.493  23.762  -8.797  1.00  0.00    -0.025 C 
HETATM    7  C   UNL     1       4.639  22.998  -8.964  1.00  0.00     0.013 C 
HETATM    8  C   UNL     1       5.255  22.953 -10.197  1.00  0.00     0.012 C 
HETATM    9  C   UNL     1       7.298  26.590  -9.081  1.00  0.00     0.114 C 
HETATM   10  C   UNL     1       3.507  24.289 -11.135  1.00  0.00     0.012 C 
HETATM   11  N   UNL     1       7.601  26.398 -10.407  1.00  0.00    -0.274 N 
HETATM   12  N   UNL     1       1.017  24.085  -5.089  1.00  0.00    -0.375 N 
ATOM     13  HN  UNL     1       0.379  23.886  -4.318  1.00  0.00     0.164 HD
HETATM   14  C   UNL     1       3.185  25.299  -6.959  1.00  0.00    -0.023 C 
HETATM   15  O   UNL     1       9.337  27.808 -10.740  1.00  0.00    -0.268 OA
HETATM   16  C   UNL     1       1.546  23.069  -5.744  1.00  0.00     0.088 C 
HETATM   17  C   UNL     1       8.900  26.657 -10.780  1.00  0.00     0.253 C 
HETATM   18  C   UNL     1       1.274  25.351  -5.383  1.00  0.00     0.088 C 
HETATM   19  C   UNL     1       3.026  24.032  -7.504  1.00  0.00    -0.014 C 
HETATM   20  C   UNL     1       2.418  23.013  -6.792  1.00  0.00     0.030 C 
HETATM   21  C   UNL     1       6.846  24.656 -11.988  1.00  0.00    -0.019 C 
HETATM   22  C   UNL     1       5.633  24.048 -12.318  1.00  0.00     0.024 C 
HETATM   23  C   UNL     1       5.987  26.761  -8.668  1.00  0.00     0.060 C 
HETATM   24  C   UNL     1       2.830  24.254  -9.920  1.00  0.00     0.013 C 
HETATM   25  C   UNL     1       9.285  24.543 -11.977  1.00  0.00     0.006 C 
HETATM   26  C   UNL     1       7.946  25.850  -7.046  1.00  0.00     0.090 C 
HETATM   27  C   UNL     1       4.784  23.743 -11.242  1.00  0.00    -0.035 C 
HETATM   28  C   UNL     1       4.315  26.035  -7.150  1.00  0.00     0.024 C 
HETATM   29  N   UNL     1       8.270  26.551  -8.144  1.00  0.00    -0.352 N 
ATOM     30  HN  UNL     1       9.171  27.015  -8.260  1.00  0.00     0.166 HD
HETATM   31  C   UNL     1       8.044  24.036 -12.299  1.00  0.00     0.013 C 
ENDROOT
TORSDOF 0
ENDMDL
MODEL 2
REMARK VINA RESULT:     -11.3      1.451      3.771
REMARK  0 active torsions:
REMARK  status: ('A' for Active; 'I' for Inactive)
ROOT
HETATM    1  C   UNL     1       8.417  26.044 -12.288  1.00  0.00     0.075 C 
HETATM    2  C   UNL     1       2.140  22.764  -6.651  1.00  0.00     0.029 C 
HETATM    3  C   UNL     1       7.957  24.879  -9.601  1.00  0.00     0.113 C 
HETATM    4  C   UNL     1       4.102  23.799  -9.590  1.00  0.00    -0.030 C 
HETATM    5  C   UNL     1       3.444  24.519 -10.595  1.00  0.00     0.028 C 
HETATM    6  C   UNL     1       4.439  25.530  -6.666  1.00  0.00    -0.025 C 
HETATM    7  C   UNL     1       4.677  26.621  -7.488  1.00  0.00     0.013 C 
HETATM    8  C   UNL     1       5.975  27.017  -7.735  1.00  0.00     0.012 C 
HETATM    9  C   UNL     1       6.060  24.060 -10.880  1.00  0.00     0.114 C 
HETATM   10  C   UNL     1       6.788  25.352  -6.224  1.00  0.00     0.012 C 
HETATM   11  N   UNL     1       7.353  24.512 -10.775  1.00  0.00    -0.274 N 
HETATM   12  N   UNL     1       0.448  23.970  -5.388  1.00  0.00    -0.375 N 
ATOM     13  HN  UNL     1      -0.460  23.859  -4.938  1.00  0.00     0.164 HD
HETATM   14  C   UNL     1       2.927  23.738  -7.251  1.00  0.00    -0.023 C 
HETATM   15  O   UNL     1       8.311  23.756 -12.678  1.00  0.00    -0.268 OA
HETATM   16  C   UNL     1       0.977  25.177  -5.446  1.00  0.00     0.088 C 
HETATM   17  C   UNL     1       8.028  24.713 -11.957  1.00  0.00     0.253 C 
HETATM   18  C   UNL     1       1.039  22.894  -5.887  1.00  0.00     0.088 C 
HETATM   19  C   UNL     1       3.160  24.958  -6.630  1.00  0.00    -0.014 C 
HETATM   20  C   UNL     1       2.148  25.637  -5.976  1.00  0.00     0.030 C 
HETATM   21  C   UNL     1       8.359  26.139  -9.211  1.00  0.00    -0.019 C 
HETATM   22  C   UNL     1       8.305  26.387  -7.838  1.00  0.00     0.024 C 
HETATM   23  C   UNL     1       5.432  23.444  -9.810  1.00  0.00     0.060 C 
HETATM   24  C   UNL     1       5.479  25.015  -5.893  1.00  0.00     0.013 C 
HETATM   25  C   UNL     1       8.823  26.985 -11.453  1.00  0.00     0.006 C 
HETATM   26  C   UNL     1       4.093  24.680 -11.805  1.00  0.00     0.090 C 
HETATM   27  C   UNL     1       7.039  26.270  -7.241  1.00  0.00    -0.035 C 
HETATM   28  C   UNL     1       3.490  23.414  -8.449  1.00  0.00     0.024 C 
HETATM   29  N   UNL     1       5.352  24.265 -12.012  1.00  0.00    -0.352 N 
ATOM     30  HN  UNL     1       5.742  24.118 -12.944  1.00  0.00     0.166 HD
HETATM   31  C   UNL     1       8.775  27.130 -10.083  1.00  0.00     0.013 C 
ENDROOT
TORSDOF 0
ENDMDL
MODEL 3
REMARK VINA RESULT:     -10.3      1.332      1.776
REMARK  0 active torsions:
REMARK  status: ('A' for Active; 'I' for Inactive)
ROOT
HETATM    1  C   UNL     1       8.835  26.491  -9.665  1.00  0.00     0.075 C 
HETATM    2  C   UNL     1       1.005  23.939  -5.909  1.00  0.00     0.029 C 
HETATM    3  C   UNL     1       5.896  26.394 -10.039  1.00  0.00     0.113 C 
HETATM    4  C   UNL     1       4.454  25.055  -6.553  1.00  0.00    -0.030 C 
HETATM    5  C   UNL     1       5.490  24.402  -5.874  1.00  0.00     0.028 C 
HETATM    6  C   UNL     1       2.879  23.089  -8.859  1.00  0.00    -0.025 C 
HETATM    7  C   UNL     1       4.150  22.602  -9.123  1.00  0.00     0.013 C 
HETATM    8  C   UNL     1       4.858  23.095 -10.200  1.00  0.00     0.012 C 
HETATM    9  C   UNL     1       6.138  26.314  -7.623  1.00  0.00     0.114 C 
HETATM   10  C   UNL     1       2.981  24.430 -10.842  1.00  0.00     0.012 C 
HETATM   11  N   UNL     1       6.572  26.663  -8.878  1.00  0.00    -0.274 N 
HETATM   12  N   UNL     1       0.105  21.696  -5.641  1.00  0.00    -0.375 N 
ATOM     13  HN  UNL     1      -0.547  21.145  -5.082  1.00  0.00     0.164 HD
HETATM   14  C   UNL     1       2.164  23.791  -6.660  1.00  0.00    -0.023 C 
HETATM   15  O   UNL     1       8.054  28.319  -8.462  1.00  0.00    -0.268 OA
HETATM   16  C   UNL     1       0.852  21.071  -6.531  1.00  0.00     0.088 C 
HETATM   17  C   UNL     1       7.830  27.214  -8.958  1.00  0.00     0.253 C 
HETATM   18  C   UNL     1       0.157  23.004  -5.439  1.00  0.00     0.088 C 
HETATM   19  C   UNL     1       2.272  22.802  -7.628  1.00  0.00    -0.014 C 
HETATM   20  C   UNL     1       1.799  21.521  -7.404  1.00  0.00     0.030 C 
HETATM   21  C   UNL     1       6.260  25.532 -11.053  1.00  0.00    -0.019 C 
HETATM   22  C   UNL     1       5.201  24.928 -11.735  1.00  0.00     0.024 C 
HETATM   23  C   UNL     1       4.789  26.143  -7.358  1.00  0.00     0.060 C 
HETATM   24  C   UNL     1       2.228  23.862  -9.819  1.00  0.00     0.013 C 
HETATM   25  C   UNL     1       8.672  25.757 -10.752  1.00  0.00     0.006 C 
HETATM   26  C   UNL     1       6.746  24.978  -5.904  1.00  0.00     0.090 C 
HETATM   27  C   UNL     1       4.338  24.139 -10.958  1.00  0.00    -0.035 C 
HETATM   28  C   UNL     1       3.158  24.693  -6.429  1.00  0.00     0.024 C 
HETATM   29  N   UNL     1       7.026  26.069  -6.635  1.00  0.00    -0.352 N 
ATOM     30  HN  UNL     1       7.838  26.661  -6.459  1.00  0.00     0.166 HD
HETATM   31  C   UNL     1       7.569  25.238 -11.395  1.00  0.00     0.013 C 
ENDROOT
TORSDOF 0
ENDMDL
MODEL 4
REMARK VINA RESULT:     -10.1      1.879      4.204
REMARK  0 active torsions:
REMARK  status: ('A' for Active; 'I' for Inactive)
ROOT
HETATM    1  C   UNL     1       8.124  27.037  -9.819  1.00  0.00     0.075 C 
HETATM    2  C   UNL     1       1.432  21.060  -8.628  1.00  0.00     0.029 C 
HETATM    3  C   UNL     1       7.207  24.730  -8.199  1.00  0.00     0.113 C 
HETATM    4  C   UNL     1       3.850  23.482  -9.987  1.00  0.00    -0.030 C 
HETATM    5  C   UNL     1       3.354  24.533 -10.768  1.00  0.00     0.028 C 
HETATM    6  C   UNL     1       2.957  23.683  -6.697  1.00  0.00    -0.025 C 
HETATM    7  C   UNL     1       3.162  25.046  -6.857  1.00  0.00     0.013 C 
HETATM    8  C   UNL     1       4.353  25.608  -6.447  1.00  0.00     0.012 C 
HETATM    9  C   UNL     1       5.979  24.456 -10.277  1.00  0.00     0.114 C 
HETATM   10  C   UNL     1       5.065  23.499  -5.573  1.00  0.00     0.012 C 
HETATM   11  N   UNL     1       7.054  24.904  -9.550  1.00  0.00    -0.274 N 
HETATM   12  N   UNL     1      -0.772  21.415  -7.664  1.00  0.00    -0.375 N 
ATOM     13  HN  UNL     1      -1.721  21.040  -7.650  1.00  0.00     0.164 HD
HETATM   14  C   UNL     1       2.114  22.258  -8.456  1.00  0.00    -0.023 C 
HETATM   15  O   UNL     1       8.651  25.189 -11.124  1.00  0.00    -0.268 OA
HETATM   16  C   UNL     1      -0.535  22.548  -7.031  1.00  0.00     0.088 C 
HETATM   17  C   UNL     1       7.969  25.680 -10.225  1.00  0.00     0.253 C 
HETATM   18  C   UNL     1       0.161  20.739  -8.318  1.00  0.00     0.088 C 
HETATM   19  C   UNL     1       1.882  23.065  -7.351  1.00  0.00    -0.014 C 
HETATM   20  C   UNL     1       0.602  23.287  -6.878  1.00  0.00     0.030 C 
HETATM   21  C   UNL     1       7.189  25.693  -7.212  1.00  0.00    -0.019 C 
HETATM   22  C   UNL     1       6.699  25.273  -5.973  1.00  0.00     0.024 C 
HETATM   23  C   UNL     1       5.233  23.370  -9.850  1.00  0.00     0.060 C 
HETATM   24  C   UNL     1       3.828  22.950  -5.893  1.00  0.00     0.013 C 
HETATM   25  C   UNL     1       8.057  27.514  -8.588  1.00  0.00     0.006 C 
HETATM   26  C   UNL     1       4.261  25.284 -11.492  1.00  0.00     0.090 C 
HETATM   27  C   UNL     1       5.377  24.799  -5.963  1.00  0.00    -0.035 C 
HETATM   28  C   UNL     1       3.047  22.568  -9.399  1.00  0.00     0.024 C 
HETATM   29  N   UNL     1       5.588  25.109 -11.394  1.00  0.00    -0.352 N 
ATOM     30  HN  UNL     1       6.245  25.439 -12.102  1.00  0.00     0.166 HD
HETATM   31  C   UNL     1       7.597  27.004  -7.393  1.00  0.00     0.013 C 
ENDROOT
TORSDOF 0
ENDMDL
MODEL 5
REMARK VINA RESULT:      -9.8      2.800      6.376
REMARK  0 active torsions:
REMARK  status: ('A' for Active; 'I' for Inactive)
ROOT
HETATM    1  C   UNL     1      -0.087  22.388  -7.983  1.00  0.00     0.075 C 
HETATM    2  C   UNL     1       8.038  26.160  -6.684  1.00  0.00     0.029 C 
HETATM    3  C   UNL     1       2.817  22.107  -8.508  1.00  0.00     0.113 C 
HETATM    4  C   UNL     1       4.535  25.060  -6.419  1.00  0.00    -0.030 C 
HETATM    5  C   UNL     1       3.562  26.032  -6.158  1.00  0.00     0.028 C 
HETATM    6  C   UNL     1       5.963  25.351  -9.508  1.00  0.00    -0.025 C 
HETATM    7  C   UNL     1       4.682  25.680  -9.928  1.00  0.00     0.013 C 
HETATM    8  C   UNL     1       3.889  24.716 -10.515  1.00  0.00     0.012 C 
HETATM    9  C   UNL     1       2.757  23.512  -6.526  1.00  0.00     0.114 C 
HETATM   10  C   UNL     1       5.693  23.150 -10.415  1.00  0.00     0.012 C 
HETATM   11  N   UNL     1       2.225  22.556  -7.356  1.00  0.00    -0.274 N 
HETATM   12  N   UNL     1       8.989  28.130  -7.746  1.00  0.00    -0.375 N 
ATOM     13  HN  UNL     1       9.689  28.862  -7.618  1.00  0.00     0.164 HD
HETATM   14  C   UNL     1       6.829  25.933  -7.328  1.00  0.00    -0.023 C 
HETATM   15  O   UNL     1       0.754  21.482  -6.017  1.00  0.00    -0.268 OA
HETATM   16  C   UNL     1       8.187  28.204  -8.790  1.00  0.00     0.088 C 
HETATM   17  C   UNL     1       0.957  22.119  -7.051  1.00  0.00     0.253 C 
HETATM   18  C   UNL     1       8.933  27.152  -6.853  1.00  0.00     0.088 C 
HETATM   19  C   UNL     1       6.664  26.234  -8.673  1.00  0.00    -0.014 C 
HETATM   20  C   UNL     1       7.171  27.399  -9.218  1.00  0.00     0.030 C 
HETATM   21  C   UNL     1       2.392  22.289  -9.807  1.00  0.00    -0.019 C 
HETATM   22  C   UNL     1       3.406  22.363 -10.765  1.00  0.00     0.024 C 
HETATM   23  C   UNL     1       4.124  23.728  -6.473  1.00  0.00     0.060 C 
HETATM   24  C   UNL     1       6.529  24.145  -9.917  1.00  0.00     0.013 C 
HETATM   25  C   UNL     1       0.006  22.396  -9.302  1.00  0.00     0.006 C 
HETATM   26  C   UNL     1       2.299  25.603  -5.798  1.00  0.00     0.090 C 
HETATM   27  C   UNL     1       4.336  23.401 -10.599  1.00  0.00    -0.035 C 
HETATM   28  C   UNL     1       5.841  25.361  -6.585  1.00  0.00     0.024 C 
HETATM   29  N   UNL     1       1.949  24.307  -5.790  1.00  0.00    -0.352 N 
ATOM     30  HN  UNL     1       1.143  23.952  -5.274  1.00  0.00     0.166 HD
HETATM   31  C   UNL     1       1.066  22.418 -10.183  1.00  0.00     0.013 C 
ENDROOT
TORSDOF 0
ENDMDL
MODEL 6
REMARK VINA RESULT:      -9.5      2.409      5.000
REMARK  0 active torsions:
REMARK  status: ('A' for Active; 'I' for Inactive)
ROOT
HETATM    1  C   UNL     1       6.282  25.555 -10.349  1.00  0.00     0.075 C 
HETATM    2  C   UNL     1      -0.282  20.949  -6.150  1.00  0.00     0.029 C 
HETATM    3  C   UNL     1       5.624  23.922  -7.964  1.00  0.00     0.113 C 
HETATM    4  C   UNL     1       1.902  22.599  -8.613  1.00  0.00    -0.030 C 
HETATM    5  C   UNL     1       1.302  23.433  -9.564  1.00  0.00     0.028 C 
HETATM    6  C   UNL     1       1.753  23.826  -5.430  1.00  0.00    -0.025 C 
HETATM    7  C   UNL     1       1.987  25.054  -6.029  1.00  0.00     0.013 C 
HETATM    8  C   UNL     1       3.265  25.573  -6.044  1.00  0.00     0.012 C 
HETATM    9  C   UNL     1       3.963  23.207  -9.587  1.00  0.00     0.114 C 
HETATM   10  C   UNL     1       4.043  23.734  -4.730  1.00  0.00     0.012 C 
HETATM   11  N   UNL     1       5.191  23.720  -9.249  1.00  0.00    -0.274 N 
HETATM   12  N   UNL     1      -2.205  21.807  -4.934  1.00  0.00    -0.375 N 
ATOM     13  HN  UNL     1      -3.145  21.560  -4.625  1.00  0.00     0.164 HD
HETATM   14  C   UNL     1       0.480  22.062  -6.482  1.00  0.00    -0.023 C 
HETATM   15  O   UNL     1       6.421  23.366 -11.112  1.00  0.00    -0.268 OA
HETATM   16  C   UNL     1      -1.780  23.039  -4.729  1.00  0.00     0.088 C 
HETATM   17  C   UNL     1       5.975  24.165 -10.288  1.00  0.00     0.253 C 
HETATM   18  C   UNL     1      -1.470  20.873  -5.520  1.00  0.00     0.088 C 
HETATM   19  C   UNL     1       0.533  23.171  -5.648  1.00  0.00    -0.014 C 
HETATM   20  C   UNL     1      -0.602  23.660  -5.027  1.00  0.00     0.030 C 
HETATM   21  C   UNL     1       5.868  25.121  -7.329  1.00  0.00    -0.019 C 
HETATM   22  C   UNL     1       5.637  25.128  -5.951  1.00  0.00     0.024 C 
HETATM   23  C   UNL     1       3.275  22.377  -8.718  1.00  0.00     0.060 C 
HETATM   24  C   UNL     1       2.740  23.258  -4.625  1.00  0.00     0.013 C 
HETATM   25  C   UNL     1       6.507  26.366  -9.329  1.00  0.00     0.006 C 
HETATM   26  C   UNL     1       2.066  23.841 -10.641  1.00  0.00     0.090 C 
HETATM   27  C   UNL     1       4.328  24.826  -5.545  1.00  0.00    -0.035 C 
HETATM   28  C   UNL     1       1.201  21.985  -7.635  1.00  0.00     0.024 C 
HETATM   29  N   UNL     1       3.373  23.554 -10.752  1.00  0.00    -0.352 N 
ATOM     30  HN  UNL     1       3.877  23.594 -11.638  1.00  0.00     0.166 HD
HETATM   31  C   UNL     1       6.292  26.272  -7.971  1.00  0.00     0.013 C 
ENDROOT
TORSDOF 0
ENDMDL
MODEL 7
REMARK VINA RESULT:      -9.4      2.300      6.397
REMARK  0 active torsions:
REMARK  status: ('A' for Active; 'I' for Inactive)
ROOT
HETATM    1  C   UNL     1       3.038  25.635  -5.272  1.00  0.00     0.075 C 
HETATM    2  C   UNL     1       8.647  23.940 -12.171  1.00  0.00     0.029 C 
HETATM    3  C   UNL     1       3.947  23.568  -7.193  1.00  0.00     0.113 C 
HETATM    4  C   UNL     1       7.018  25.246  -9.138  1.00  0.00    -0.030 C 
HETATM    5  C   UNL     1       6.919  26.635  -8.996  1.00  0.00     0.028 C 
HETATM    6  C   UNL     1       5.088  23.988 -11.659  1.00  0.00    -0.025 C 
HETATM    7  C   UNL     1       4.156  24.925 -11.240  1.00  0.00     0.013 C 
HETATM    8  C   UNL     1       3.122  24.537 -10.413  1.00  0.00     0.012 C 
HETATM    9  C   UNL     1       5.836  25.093  -7.101  1.00  0.00     0.114 C 
HETATM   10  C   UNL     1       3.847  22.262 -10.552  1.00  0.00     0.012 C 
HETATM   11  N   UNL     1       4.721  24.504  -6.558  1.00  0.00    -0.274 N 
HETATM   12  N   UNL     1       8.485  24.679 -14.482  1.00  0.00    -0.375 N 
ATOM     13  HN  UNL     1       9.041  24.852 -15.319  1.00  0.00     0.164 HD
HETATM   14  C   UNL     1       7.473  24.360 -11.559  1.00  0.00    -0.023 C 
HETATM   15  O   UNL     1       5.005  24.827  -4.339  1.00  0.00    -0.268 OA
HETATM   16  C   UNL     1       7.207  25.006 -14.500  1.00  0.00     0.088 C 
HETATM   17  C   UNL     1       4.306  24.989  -5.339  1.00  0.00     0.253 C 
HETATM   18  C   UNL     1       9.082  24.137 -13.430  1.00  0.00     0.088 C 
HETATM   19  C   UNL     1       6.278  24.419 -12.262  1.00  0.00    -0.014 C 
HETATM   20  C   UNL     1       6.226  24.906 -13.556  1.00  0.00     0.030 C 
HETATM   21  C   UNL     1       2.648  23.701  -7.636  1.00  0.00    -0.019 C 
HETATM   22  C   UNL     1       2.322  22.955  -8.771  1.00  0.00     0.024 C 
HETATM   23  C   UNL     1       6.575  24.451  -8.081  1.00  0.00     0.060 C 
HETATM   24  C   UNL     1       4.829  22.632 -11.466  1.00  0.00     0.013 C 
HETATM   25  C   UNL     1       1.946  25.318  -5.948  1.00  0.00     0.006 C 
HETATM   26  C   UNL     1       6.554  27.133  -7.759  1.00  0.00     0.090 C 
HETATM   27  C   UNL     1       3.070  23.234  -9.926  1.00  0.00    -0.035 C 
HETATM   28  C   UNL     1       7.552  24.661 -10.233  1.00  0.00     0.024 C 
HETATM   29  N   UNL     1       6.199  26.342  -6.735  1.00  0.00    -0.352 N 
ATOM     30  HN  UNL     1       6.202  26.656  -5.764  1.00  0.00     0.166 HD
HETATM   31  C   UNL     1       1.701  24.520  -7.044  1.00  0.00     0.013 C 
ENDROOT
TORSDOF 0
ENDMDL
MODEL 8
REMARK VINA RESULT:      -9.3      2.169      3.240
REMARK  0 active torsions:
REMARK  status: ('A' for Active; 'I' for Inactive)
ROOT
HETATM    1  C   UNL     1       7.194  25.624  -9.151  1.00  0.00     0.075 C 
HETATM    2  C   UNL     1      -0.640  23.675  -5.057  1.00  0.00     0.029 C 
HETATM    3  C   UNL     1       4.249  25.552  -9.483  1.00  0.00     0.113 C 
HETATM    4  C   UNL     1       2.824  24.636  -5.855  1.00  0.00    -0.030 C 
HETATM    5  C   UNL     1       3.854  24.039  -5.119  1.00  0.00     0.028 C 
HETATM    6  C   UNL     1       1.179  22.465  -7.915  1.00  0.00    -0.025 C 
HETATM    7  C   UNL     1       2.436  21.924  -8.137  1.00  0.00     0.013 C 
HETATM    8  C   UNL     1       3.140  22.279  -9.268  1.00  0.00     0.012 C 
HETATM    9  C   UNL     1       4.520  25.733  -7.075  1.00  0.00     0.114 C 
HETATM   10  C   UNL     1       1.284  23.577 -10.034  1.00  0.00     0.012 C 
HETATM   11  N   UNL     1       4.946  25.932  -8.365  1.00  0.00    -0.274 N 
HETATM   12  N   UNL     1      -1.584  21.496  -4.535  1.00  0.00    -0.375 N 
ATOM     13  HN  UNL     1      -2.239  21.024  -3.912  1.00  0.00     0.164 HD
HETATM   14  C   UNL     1       0.506  23.420  -5.800  1.00  0.00    -0.023 C 
HETATM   15  O   UNL     1       6.467  27.590  -8.149  1.00  0.00    -0.268 OA
HETATM   16  C   UNL     1      -0.861  20.761  -5.358  1.00  0.00     0.088 C 
HETATM   17  C   UNL     1       6.214  26.443  -8.519  1.00  0.00     0.253 C 
HETATM   18  C   UNL     1      -1.501  22.817  -4.479  1.00  0.00     0.088 C 
HETATM   19  C   UNL     1       0.581  22.328  -6.653  1.00  0.00    -0.014 C 
HETATM   20  C   UNL     1       0.085  21.091  -6.286  1.00  0.00     0.030 C 
HETATM   21  C   UNL     1       4.582  24.577 -10.399  1.00  0.00    -0.019 C 
HETATM   22  C   UNL     1       3.503  23.925 -11.000  1.00  0.00     0.024 C 
HETATM   23  C   UNL     1       3.172  25.621  -6.779  1.00  0.00     0.060 C 
HETATM   24  C   UNL     1       0.532  23.142  -8.948  1.00  0.00     0.013 C 
HETATM   25  C   UNL     1       7.002  24.779 -10.149  1.00  0.00     0.006 C 
HETATM   26  C   UNL     1       5.122  24.580  -5.225  1.00  0.00     0.090 C 
HETATM   27  C   UNL     1       2.633  23.246 -10.132  1.00  0.00    -0.035 C 
HETATM   28  C   UNL     1       1.522  24.319  -5.679  1.00  0.00     0.024 C 
HETATM   29  N   UNL     1       5.415  25.577  -6.075  1.00  0.00    -0.352 N 
ATOM     30  HN  UNL     1       6.242  26.167  -5.974  1.00  0.00     0.166 HD
HETATM   31  C   UNL     1       5.880  24.217 -10.720  1.00  0.00     0.013 C 
ENDROOT
TORSDOF 0
ENDMDL
