MODEL 1
REMARK VINA RESULT:      -4.3      0.000      0.000
REMARK  1 active torsions:
REMARK  status: ('A' for Active; 'I' for Inactive)
REMARK    1  A    between atoms: C_3  and  N_8 
ROOT
HETATM    1  C   UNL     1      56.876  39.631  11.580  1.00  0.00     0.037 C 
HETATM    2  C   UNL     1      58.262  39.462   9.581  1.00  0.00     0.016 C 
HETATM    3  C   UNL     1      57.738  38.647  10.762  1.00  0.00     0.188 C 
HETATM    4  C   UNL     1      56.420  41.040   9.560  1.00  0.00     0.005 C 
HETATM    5  C   UNL     1      58.620  40.749  10.348  1.00  0.00     0.011 C 
HETATM    6  C   UNL     1      57.075  39.924   8.720  1.00  0.00     0.007 C 
HETATM    7  C   UNL     1      57.209  40.992  10.900  1.00  0.00    -0.012 C 
ENDROOT
BRANCH   3   8
HETATM    8  N   UNL     1      57.190  37.335  10.561  1.00  0.00    -0.075 N 
ATOM      9  HN3 UNL     1      57.723  36.653  11.101  1.00  0.00     0.274 HD
ATOM     10  HN2 UNL     1      56.281  37.267  11.020  1.00  0.00     0.274 HD
ATOM     11  HN1 UNL     1      57.111  37.021   9.594  1.00  0.00     0.274 HD
ENDBRANCH   3   8
TORSDOF 1
ENDMDL
MODEL 2
REMARK VINA RESULT:      -4.2      1.284      2.209
REMARK  1 active torsions:
REMARK  status: ('A' for Active; 'I' for Inactive)
REMARK    1  A    between atoms: C_3  and  N_8 
ROOT
HETATM    1  C   UNL     1      57.474  37.997  10.672  1.00  0.00     0.037 C 
HETATM    2  C   UNL     1      56.240  39.554   9.258  1.00  0.00     0.016 C 
HETATM    3  C   UNL     1      56.055  38.354  10.184  1.00  0.00     0.188 C 
HETATM    4  C   UNL     1      58.275  40.343  10.316  1.00  0.00     0.005 C 
HETATM    5  C   UNL     1      57.490  39.057   8.507  1.00  0.00     0.011 C 
HETATM    6  C   UNL     1      56.804  40.734  10.066  1.00  0.00     0.007 C 
HETATM    7  C   UNL     1      58.362  38.892   9.758  1.00  0.00    -0.012 C 
ENDROOT
BRANCH   3   8
HETATM    8  N   UNL     1      55.019  38.350  11.179  1.00  0.00    -0.075 N 
ATOM      9  HN3 UNL     1      55.435  38.388  12.109  1.00  0.00     0.274 HD
ATOM     10  HN2 UNL     1      54.522  39.241  11.161  1.00  0.00     0.274 HD
ATOM     11  HN1 UNL     1      54.349  37.582  11.132  1.00  0.00     0.274 HD
ENDBRANCH   3   8
TORSDOF 1
ENDMDL
MODEL 3
REMARK VINA RESULT:      -4.1      1.258      1.633
REMARK  1 active torsions:
REMARK  status: ('A' for Active; 'I' for Inactive)
REMARK    1  A    between atoms: C_3  and  N_8 
ROOT
HETATM    1  C   UNL     1      56.670  38.959  11.582  1.00  0.00     0.037 C 
HETATM    2  C   UNL     1      56.725  39.517   9.209  1.00  0.00     0.016 C 
HETATM    3  C   UNL     1      56.092  38.553  10.211  1.00  0.00     0.188 C 
HETATM    4  C   UNL     1      57.078  41.306  10.808  1.00  0.00     0.005 C 
HETATM    5  C   UNL     1      58.162  39.495   9.766  1.00  0.00     0.011 C 
HETATM    6  C   UNL     1      56.280  40.952   9.536  1.00  0.00     0.007 C 
HETATM    7  C   UNL     1      57.784  39.969  11.175  1.00  0.00    -0.012 C 
ENDROOT
BRANCH   3   8
HETATM    8  N   UNL     1      54.684  38.276  10.170  1.00  0.00    -0.075 N 
ATOM      9  HN3 UNL     1      54.190  39.065   9.752  1.00  0.00     0.274 HD
ATOM     10  HN2 UNL     1      54.496  37.551   9.477  1.00  0.00     0.274 HD
ATOM     11  HN1 UNL     1      54.245  38.027  11.056  1.00  0.00     0.274 HD
ENDBRANCH   3   8
TORSDOF 1
ENDMDL
MODEL 4
REMARK VINA RESULT:      -4.0      1.342      2.356
REMARK  1 active torsions:
REMARK  status: ('A' for Active; 'I' for Inactive)
REMARK    1  A    between atoms: C_3  and  N_8 
ROOT
HETATM    1  C   UNL     1      58.905  39.683   9.372  1.00  0.00     0.037 C 
HETATM    2  C   UNL     1      56.586  38.992   9.072  1.00  0.00     0.016 C 
HETATM    3  C   UNL     1      57.978  38.858   8.456  1.00  0.00     0.188 C 
HETATM    4  C   UNL     1      57.375  39.380  11.332  1.00  0.00     0.005 C 
HETATM    5  C   UNL     1      56.636  40.497   9.396  1.00  0.00     0.011 C 
HETATM    6  C   UNL     1      56.591  38.364  10.475  1.00  0.00     0.007 C 
HETATM    7  C   UNL     1      57.881  40.417  10.288  1.00  0.00    -0.012 C 
ENDROOT
BRANCH   3   8
HETATM    8  N   UNL     1      58.472  37.577   8.035  1.00  0.00    -0.075 N 
ATOM      9  HN3 UNL     1      57.696  36.920   7.949  1.00  0.00     0.274 HD
ATOM     10  HN2 UNL     1      58.780  37.630   7.064  1.00  0.00     0.274 HD
ATOM     11  HN1 UNL     1      59.208  37.166   8.608  1.00  0.00     0.274 HD
ENDBRANCH   3   8
TORSDOF 1
ENDMDL
MODEL 5
REMARK VINA RESULT:      -4.0      1.079      1.983
REMARK  1 active torsions:
REMARK  status: ('A' for Active; 'I' for Inactive)
REMARK    1  A    between atoms: C_3  and  N_8 
ROOT
HETATM    1  C   UNL     1      55.805  38.636   9.130  1.00  0.00     0.037 C 
HETATM    2  C   UNL     1      57.849  39.648   9.992  1.00  0.00     0.016 C 
HETATM    3  C   UNL     1      56.811  38.570  10.298  1.00  0.00     0.188 C 
HETATM    4  C   UNL     1      57.532  39.593   7.589  1.00  0.00     0.005 C 
HETATM    5  C   UNL     1      56.882  40.755   9.531  1.00  0.00     0.011 C 
HETATM    6  C   UNL     1      58.576  39.295   8.685  1.00  0.00     0.007 C 
HETATM    7  C   UNL     1      56.248  39.937   8.398  1.00  0.00    -0.012 C 
ENDROOT
BRANCH   3   8
HETATM    8  N   UNL     1      57.219  37.258  10.714  1.00  0.00    -0.075 N 
ATOM      9  HN3 UNL     1      57.705  36.789   9.948  1.00  0.00     0.274 HD
ATOM     10  HN2 UNL     1      57.975  37.333  11.395  1.00  0.00     0.274 HD
ATOM     11  HN1 UNL     1      56.486  36.650  11.079  1.00  0.00     0.274 HD
ENDBRANCH   3   8
TORSDOF 1
ENDMDL
MODEL 6
REMARK VINA RESULT:      -4.0      1.045      2.213
REMARK  1 active torsions:
REMARK  status: ('A' for Active; 'I' for Inactive)
REMARK    1  A    between atoms: C_3  and  N_8 
ROOT
HETATM    1  C   UNL     1      58.942  40.315   9.906  1.00  0.00     0.037 C 
HETATM    2  C   UNL     1      56.609  39.715  10.286  1.00  0.00     0.016 C 
HETATM    3  C   UNL     1      57.841  39.328   9.469  1.00  0.00     0.188 C 
HETATM    4  C   UNL     1      57.856  40.667  12.136  1.00  0.00     0.005 C 
HETATM    5  C   UNL     1      56.732  41.245  10.149  1.00  0.00     0.011 C 
HETATM    6  C   UNL     1      56.907  39.504  11.779  1.00  0.00     0.007 C 
HETATM    7  C   UNL     1      58.136  41.338  10.760  1.00  0.00    -0.012 C 
ENDROOT
BRANCH   3   8
HETATM    8  N   UNL     1      58.231  37.952   9.341  1.00  0.00    -0.075 N 
ATOM      9  HN3 UNL     1      58.856  37.699  10.108  1.00  0.00     0.274 HD
ATOM     10  HN2 UNL     1      57.434  37.348   9.544  1.00  0.00     0.274 HD
ATOM     11  HN1 UNL     1      58.651  37.681   8.452  1.00  0.00     0.274 HD
ENDBRANCH   3   8
TORSDOF 1
ENDMDL
MODEL 7
REMARK VINA RESULT:      -3.9      1.900      2.886
REMARK  1 active torsions:
REMARK  status: ('A' for Active; 'I' for Inactive)
REMARK    1  A    between atoms: C_3  and  N_8 
ROOT
HETATM    1  C   UNL     1      55.906  39.187   9.462  1.00  0.00     0.037 C 
HETATM    2  C   UNL     1      57.664  40.668  10.275  1.00  0.00     0.016 C 
HETATM    3  C   UNL     1      56.464  40.618   9.331  1.00  0.00     0.188 C 
HETATM    4  C   UNL     1      56.846  38.943  11.771  1.00  0.00     0.005 C 
HETATM    5  C   UNL     1      58.268  39.294   9.928  1.00  0.00     0.011 C 
HETATM    6  C   UNL     1      57.182  40.448  11.718  1.00  0.00     0.007 C 
HETATM    7  C   UNL     1      57.019  38.483  10.295  1.00  0.00    -0.012 C 
ENDROOT
BRANCH   3   8
HETATM    8  N   UNL     1      55.498  41.681   9.319  1.00  0.00    -0.075 N 
ATOM      9  HN3 UNL     1      54.649  41.369   8.847  1.00  0.00     0.274 HD
ATOM     10  HN2 UNL     1      55.140  41.831  10.263  1.00  0.00     0.274 HD
ATOM     11  HN1 UNL     1      55.806  42.568   8.923  1.00  0.00     0.274 HD
ENDBRANCH   3   8
TORSDOF 1
ENDMDL
MODEL 8
REMARK VINA RESULT:      -3.8      1.771      2.324
REMARK  1 active torsions:
REMARK  status: ('A' for Active; 'I' for Inactive)
REMARK    1  A    between atoms: C_3  and  N_8 
ROOT
HETATM    1  C   UNL     1      57.103  41.326  10.828  1.00  0.00     0.037 C 
HETATM    2  C   UNL     1      57.264  38.949  11.348  1.00  0.00     0.016 C 
HETATM    3  C   UNL     1      57.212  40.329  12.000  1.00  0.00     0.188 C 
HETATM    4  C   UNL     1      56.055  39.598   9.348  1.00  0.00     0.005 C 
HETATM    5  C   UNL     1      58.229  39.290  10.197  1.00  0.00     0.011 C 
HETATM    6  C   UNL     1      55.948  38.695  10.595  1.00  0.00     0.007 C 
HETATM    7  C   UNL     1      57.362  40.405   9.599  1.00  0.00    -0.012 C 
ENDROOT
BRANCH   3   8
HETATM    8  N   UNL     1      56.356  40.574  13.127  1.00  0.00    -0.075 N 
ATOM      9  HN3 UNL     1      55.870  41.464  13.003  1.00  0.00     0.274 HD
ATOM     10  HN2 UNL     1      55.567  39.928  13.107  1.00  0.00     0.274 HD
ATOM     11  HN1 UNL     1      56.798  40.549  14.045  1.00  0.00     0.274 HD
ENDBRANCH   3   8
TORSDOF 1
ENDMDL
MODEL 9
REMARK VINA RESULT:      -3.8      1.946      2.866
REMARK  1 active torsions:
REMARK  status: ('A' for Active; 'I' for Inactive)
REMARK    1  A    between atoms: C_3  and  N_8 
ROOT
HETATM    1  C   UNL     1      55.911  41.537   9.087  1.00  0.00     0.037 C 
HETATM    2  C   UNL     1      56.702  39.238   9.274  1.00  0.00     0.016 C 
HETATM    3  C   UNL     1      56.746  40.593   9.977  1.00  0.00     0.188 C 
HETATM    4  C   UNL     1      54.580  39.625   8.166  1.00  0.00     0.005 C 
HETATM    5  C   UNL     1      56.908  39.737   7.831  1.00  0.00     0.011 C 
HETATM    6  C   UNL     1      55.250  38.735   9.233  1.00  0.00     0.007 C 
HETATM    7  C   UNL     1      55.685  40.663   7.817  1.00  0.00    -0.012 C 
ENDROOT
BRANCH   3   8
HETATM    8  N   UNL     1      56.523  40.691  11.393  1.00  0.00    -0.075 N 
ATOM      9  HN3 UNL     1      57.227  40.144  11.890  1.00  0.00     0.274 HD
ATOM     10  HN2 UNL     1      56.757  41.630  11.714  1.00  0.00     0.274 HD
ATOM     11  HN1 UNL     1      55.593  40.435  11.723  1.00  0.00     0.274 HD
ENDBRANCH   3   8
TORSDOF 1
ENDMDL
