REMARK  1 active torsions:
REMARK  status: ('A' for Active; 'I' for Inactive)
REMARK    1  A    between atoms: O_3  and  C_5 
ROOT
HETATM    1  C   UNL     1      59.977  44.633  15.063  1.00  0.00    -0.000 C 
HETATM    2  C   UNL     1      59.487  43.355  13.063  1.00  0.00     0.014 C 
HETATM    3  C   UNL     1      58.825  42.266  13.846  1.00  0.00     0.090 C 
HETATM    4  C   UNL     1      60.023  44.462  13.688  1.00  0.00    -0.001 C 
HETATM    5  C   UNL     1      59.318  43.690  15.857  1.00  0.00    -0.001 C 
HETATM    6  C   UNL     1      57.382  42.109  13.399  1.00  0.00     0.055 C 
HETATM    7  C   UNL     1      58.934  42.469  15.299  1.00  0.00     0.014 C 
ENDROOT
BRANCH   3   8
HETATM    8  O   UNL     1      59.480  41.038  13.540  1.00  0.00    -0.382 OA
ATOM      9  HO  UNL     1      59.060  40.346  14.037  1.00  0.00     0.211 HD
ENDBRANCH   3   8
TORSDOF 1
