REMARK  2 active torsions:
REMARK  status: ('A' for Active; 'I' for Inactive)
REMARK    1  A    between atoms: C_1  and  O_9 
REMARK    2  A    between atoms: O_2  and  C_5 
ROOT
HETATM    1  C   UNL     1      58.225  43.112  14.069  1.00  0.00     0.068 C 
HETATM    2  C   UNL     1      60.303  43.328  12.887  1.00  0.00     0.005 C 
HETATM    3  C   UNL     1      59.836  44.735  14.774  1.00  0.00     0.068 C 
HETATM    4  C   UNL     1      58.584  44.153  14.925  1.00  0.00     0.072 C 
HETATM    5  C   UNL     1      59.009  42.825  12.963  1.00  0.00     0.037 C 
HETATM    6  C   UNL     1      60.754  44.207  13.863  1.00  0.00     0.037 C 
ENDROOT
BRANCH   1   7
HETATM    7  O   UNL     1      57.121  42.373  14.329  1.00  0.00    -0.361 OA
ATOM      8  HO  UNL     1      56.876  41.664  13.746  1.00  0.00     0.217 HD
ENDBRANCH   1   7
BRANCH   3   9
HETATM    9  O   UNL     1      60.045  46.001  15.236  1.00  0.00    -0.361 OA
ATOM     10  HO  UNL     1      60.901  46.399  15.133  1.00  0.00     0.217 HD
ENDBRANCH   3   9
TORSDOF 2
