MODEL 1
REMARK VINA RESULT:     -11.1      0.000      0.000
REMARK  9 active torsions:
REMARK  status: ('A' for Active; 'I' for Inactive)
REMARK    1  A    between atoms: C_4  and  C_31 
REMARK    2  A    between atoms: O_5  and  C_13 
REMARK    3  A    between atoms: O_7  and  P_17 
REMARK    4  A    between atoms: O_7  and  C_23 
REMARK       I    between atoms: C_8  and  N_19 
REMARK    5  A    between atoms: C_8  and  C_31 
REMARK    6  A    between atoms: C_11  and  O_15 
REMARK    7  A    between atoms: C_13  and  O_24 
REMARK    8  A    between atoms: N_19  and  C_22 
REMARK    9  A    between atoms: C_26  and  C_29 
ROOT
HETATM    1  C   UNL     1      50.424  83.411  16.275  1.00  0.00     0.225 C 
HETATM    2  N   UNL     1      50.291  83.391  14.936  1.00  0.00    -0.325 N 
ATOM      3  HN  UNL     1      50.208  82.496  14.455  1.00  0.00     0.169 HD
HETATM    4  O   UNL     1      50.959  84.371  16.846  1.00  0.00    -0.273 OA
ENDROOT
BRANCH   1   5
HETATM    5  C   UNL     1      49.889  82.253  17.103  1.00  0.00     0.130 C 
BRANCH   5   6
HETATM    6  C   UNL     1      49.290  81.139  16.306  1.00  0.00    -0.017 C 
HETATM    7  C   UNL     1      48.712  80.050  16.812  1.00  0.00     0.010 C 
BRANCH   7   8
HETATM    8  C   UNL     1      49.274  78.691  16.809  1.00  0.00    -0.014 C 
HETATM    9  C   UNL     1      48.448  77.557  16.634  1.00  0.00     0.018 C 
HETATM   10  C   UNL     1      48.954  76.271  16.862  1.00  0.00     0.065 C 
HETATM   11  C   UNL     1      50.311  76.116  17.216  1.00  0.00     0.196 C 
HETATM   12  O   UNL     1      51.123  77.256  17.538  1.00  0.00    -0.299 OA
HETATM   13  C   UNL     1      50.667  78.452  16.994  1.00  0.00     0.156 C 
BRANCH  11  14
HETATM   14  O   UNL     1      50.803  74.944  17.657  1.00  0.00    -0.216 OA
BRANCH  14  15
HETATM   15  P   UNL     1      52.237  74.595  18.276  1.00  0.00     0.429 P 
HETATM   16  O   UNL     1      52.417  75.514  19.464  1.00  0.00    -0.616 OA
HETATM   17  O   UNL     1      52.212  73.154  18.642  1.00  0.00    -0.616 OA
HETATM   18  O   UNL     1      53.302  74.853  17.225  1.00  0.00    -0.616 OA
ENDBRANCH  14  15
ENDBRANCH  11  14
ENDBRANCH   7   8
ENDBRANCH   5   6
ENDBRANCH   1   5
BRANCH   2  19
HETATM   19  C   UNL     1      50.264  84.593  14.180  1.00  0.00     0.097 C 
HETATM   20  C   UNL     1      49.025  85.010  13.693  1.00  0.00     0.198 C 
HETATM   21  C   UNL     1      48.944  85.701  12.365  1.00  0.00     0.259 C 
HETATM   22  O   UNL     1      48.008  85.153  14.485  1.00  0.00    -0.289 OA
HETATM   23  O   UNL     1      50.129  86.409  12.025  1.00  0.00    -0.323 OA
HETATM   24  C   UNL     1      51.413  85.804  12.239  1.00  0.00     0.311 C 
HETATM   25  C   UNL     1      51.529  85.104  13.597  1.00  0.00     0.264 C 
BRANCH  24  26
HETATM   26  O   UNL     1      52.328  86.854  12.391  1.00  0.00    -0.341 OA
ATOM     27  HO  UNL     1      52.574  87.127  11.515  1.00  0.00     0.215 HD
ENDBRANCH  24  26
BRANCH  24  28
HETATM   28  O   UNL     1      51.715  84.924  11.206  1.00  0.00    -0.341 OA
ATOM     29  HO  UNL     1      51.856  84.048  11.545  1.00  0.00     0.215 HD
ENDBRANCH  24  28
BRANCH  25  30
HETATM   30  O   UNL     1      52.567  84.146  13.585  1.00  0.00    -0.381 OA
ATOM     31  HO  UNL     1      53.257  84.385  14.192  1.00  0.00     0.210 HD
ENDBRANCH  25  30
ENDBRANCH   2  19
TORSDOF 9
ENDMDL
MODEL 2
REMARK VINA RESULT:     -10.6      3.418     10.132
REMARK  9 active torsions:
REMARK  status: ('A' for Active; 'I' for Inactive)
REMARK    1  A    between atoms: C_4  and  C_31 
REMARK    2  A    between atoms: O_5  and  C_13 
REMARK    3  A    between atoms: O_7  and  P_17 
REMARK    4  A    between atoms: O_7  and  C_23 
REMARK       I    between atoms: C_8  and  N_19 
REMARK    5  A    between atoms: C_8  and  C_31 
REMARK    6  A    between atoms: C_11  and  O_15 
REMARK    7  A    between atoms: C_13  and  O_24 
REMARK    8  A    between atoms: N_19  and  C_22 
REMARK    9  A    between atoms: C_26  and  C_29 
ROOT
HETATM    1  C   UNL     1      48.993  77.258  16.684  1.00  0.00     0.225 C 
HETATM    2  N   UNL     1      50.085  76.488  16.525  1.00  0.00    -0.325 N 
ATOM      3  HN  UNL     1      50.906  76.875  16.061  1.00  0.00     0.169 HD
HETATM    4  O   UNL     1      47.871  76.750  16.813  1.00  0.00    -0.273 OA
ENDROOT
BRANCH   1   5
HETATM    5  C   UNL     1      49.137  78.771  16.731  1.00  0.00     0.130 C 
BRANCH   5   6
HETATM    6  C   UNL     1      50.545  79.268  16.644  1.00  0.00    -0.017 C 
HETATM    7  C   UNL     1      50.992  80.418  17.149  1.00  0.00     0.010 C 
BRANCH   7   8
HETATM    8  C   UNL     1      51.360  81.615  16.378  1.00  0.00    -0.014 C 
HETATM    9  C   UNL     1      50.372  82.490  15.870  1.00  0.00     0.018 C 
HETATM   10  C   UNL     1      50.717  83.490  14.951  1.00  0.00     0.065 C 
HETATM   11  C   UNL     1      52.069  83.646  14.578  1.00  0.00     0.196 C 
HETATM   12  O   UNL     1      53.058  82.681  14.967  1.00  0.00    -0.299 OA
HETATM   13  C   UNL     1      52.718  81.940  16.095  1.00  0.00     0.156 C 
BRANCH  11  14
HETATM   14  O   UNL     1      52.438  84.430  13.549  1.00  0.00    -0.216 OA
BRANCH  14  15
HETATM   15  P   UNL     1      51.613  85.552  12.759  1.00  0.00     0.429 P 
HETATM   16  O   UNL     1      52.281  86.870  13.082  1.00  0.00    -0.616 OA
HETATM   17  O   UNL     1      51.672  85.198  11.316  1.00  0.00    -0.616 OA
HETATM   18  O   UNL     1      50.175  85.539  13.246  1.00  0.00    -0.616 OA
ENDBRANCH  14  15
ENDBRANCH  11  14
ENDBRANCH   7   8
ENDBRANCH   5   6
ENDBRANCH   1   5
BRANCH   2  19
HETATM   19  C   UNL     1      50.115  75.147  16.991  1.00  0.00     0.097 C 
HETATM   20  C   UNL     1      50.919  74.877  18.098  1.00  0.00     0.198 C 
HETATM   21  C   UNL     1      51.625  73.558  18.198  1.00  0.00     0.259 C 
HETATM   22  O   UNL     1      50.793  75.553  19.198  1.00  0.00    -0.289 OA
HETATM   23  O   UNL     1      50.953  72.506  17.520  1.00  0.00    -0.323 OA
HETATM   24  C   UNL     1      50.411  72.726  16.210  1.00  0.00     0.311 C 
HETATM   25  C   UNL     1      49.669  74.061  16.084  1.00  0.00     0.264 C 
BRANCH  24  26
HETATM   26  O   UNL     1      49.362  71.811  16.052  1.00  0.00    -0.341 OA
ATOM     27  HO  UNL     1      49.019  71.941  15.176  1.00  0.00     0.215 HD
ENDBRANCH  24  26
BRANCH  24  28
HETATM   28  O   UNL     1      51.410  72.628  15.247  1.00  0.00    -0.341 OA
ATOM     29  HO  UNL     1      51.542  73.465  14.818  1.00  0.00     0.215 HD
ENDBRANCH  24  28
BRANCH  25  30
HETATM   30  O   UNL     1      49.576  74.462  14.732  1.00  0.00    -0.381 OA
ATOM     31  HO  UNL     1      48.788  74.971  14.582  1.00  0.00     0.210 HD
ENDBRANCH  25  30
ENDBRANCH   2  19
TORSDOF 9
ENDMDL
MODEL 3
REMARK VINA RESULT:     -10.1      3.773      9.743
REMARK  9 active torsions:
REMARK  status: ('A' for Active; 'I' for Inactive)
REMARK    1  A    between atoms: C_4  and  C_31 
REMARK    2  A    between atoms: O_5  and  C_13 
REMARK    3  A    between atoms: O_7  and  P_17 
REMARK    4  A    between atoms: O_7  and  C_23 
REMARK       I    between atoms: C_8  and  N_19 
REMARK    5  A    between atoms: C_8  and  C_31 
REMARK    6  A    between atoms: C_11  and  O_15 
REMARK    7  A    between atoms: C_13  and  O_24 
REMARK    8  A    between atoms: N_19  and  C_22 
REMARK    9  A    between atoms: C_26  and  C_29 
ROOT
HETATM    1  C   UNL     1      49.127  75.619  16.645  1.00  0.00     0.225 C 
HETATM    2  N   UNL     1      49.667  75.288  17.832  1.00  0.00    -0.325 N 
ATOM      3  HN  UNL     1      49.260  75.663  18.689  1.00  0.00     0.169 HD
HETATM    4  O   UNL     1      49.802  75.578  15.607  1.00  0.00    -0.273 OA
ENDROOT
BRANCH   1   5
HETATM    5  C   UNL     1      47.664  76.026  16.568  1.00  0.00     0.130 C 
BRANCH   5   6
HETATM    6  C   UNL     1      47.351  77.353  17.183  1.00  0.00    -0.017 C 
HETATM    7  C   UNL     1      47.424  78.529  16.560  1.00  0.00     0.010 C 
BRANCH   7   8
HETATM    8  C   UNL     1      48.450  79.560  16.775  1.00  0.00    -0.014 C 
HETATM    9  C   UNL     1      48.099  80.921  16.934  1.00  0.00     0.018 C 
HETATM   10  C   UNL     1      49.086  81.914  16.906  1.00  0.00     0.065 C 
HETATM   11  C   UNL     1      50.439  81.538  16.771  1.00  0.00     0.196 C 
HETATM   12  O   UNL     1      50.800  80.183  16.464  1.00  0.00    -0.299 OA
HETATM   13  C   UNL     1      49.838  79.243  16.819  1.00  0.00     0.156 C 
BRANCH  11  14
HETATM   14  O   UNL     1      51.407  82.439  16.520  1.00  0.00    -0.216 OA
BRANCH  14  15
HETATM   15  P   UNL     1      51.419  83.690  15.522  1.00  0.00     0.429 P 
HETATM   16  O   UNL     1      51.281  84.921  16.389  1.00  0.00    -0.616 OA
HETATM   17  O   UNL     1      52.703  83.635  14.774  1.00  0.00    -0.616 OA
HETATM   18  O   UNL     1      50.247  83.567  14.565  1.00  0.00    -0.616 OA
ENDBRANCH  14  15
ENDBRANCH  11  14
ENDBRANCH   7   8
ENDBRANCH   5   6
ENDBRANCH   1   5
BRANCH   2  19
HETATM   19  C   UNL     1      50.791  74.424  17.916  1.00  0.00     0.097 C 
HETATM   20  C   UNL     1      52.051  75.021  17.928  1.00  0.00     0.198 C 
HETATM   21  C   UNL     1      53.205  74.332  17.264  1.00  0.00     0.259 C 
HETATM   22  O   UNL     1      52.345  75.948  18.787  1.00  0.00    -0.289 OA
HETATM   23  O   UNL     1      53.076  72.917  17.236  1.00  0.00    -0.323 OA
HETATM   24  C   UNL     1      51.821  72.317  16.889  1.00  0.00     0.311 C 
HETATM   25  C   UNL     1      50.624  72.992  17.568  1.00  0.00     0.264 C 
BRANCH  24  26
HETATM   26  O   UNL     1      51.803  71.052  17.492  1.00  0.00    -0.341 OA
ATOM     27  HO  UNL     1      52.552  70.579  17.150  1.00  0.00     0.215 HD
ENDBRANCH  24  26
BRANCH  24  28
HETATM   28  O   UNL     1      51.654  72.298  15.509  1.00  0.00    -0.341 OA
ATOM     29  HO  UNL     1      50.734  72.369  15.283  1.00  0.00     0.215 HD
ENDBRANCH  24  28
BRANCH  25  30
HETATM   30  O   UNL     1      49.427  72.721  16.869  1.00  0.00    -0.381 OA
ATOM     31  HO  UNL     1      49.578  72.701  15.931  1.00  0.00     0.210 HD
ENDBRANCH  25  30
ENDBRANCH   2  19
TORSDOF 9
ENDMDL
MODEL 4
REMARK VINA RESULT:      -9.9      1.744      2.235
REMARK  9 active torsions:
REMARK  status: ('A' for Active; 'I' for Inactive)
REMARK    1  A    between atoms: C_4  and  C_31 
REMARK    2  A    between atoms: O_5  and  C_13 
REMARK    3  A    between atoms: O_7  and  P_17 
REMARK    4  A    between atoms: O_7  and  C_23 
REMARK       I    between atoms: C_8  and  N_19 
REMARK    5  A    between atoms: C_8  and  C_31 
REMARK    6  A    between atoms: C_11  and  O_15 
REMARK    7  A    between atoms: C_13  and  O_24 
REMARK    8  A    between atoms: N_19  and  C_22 
REMARK    9  A    between atoms: C_26  and  C_29 
ROOT
HETATM    1  C   UNL     1      51.407  82.689  16.475  1.00  0.00     0.225 C 
HETATM    2  N   UNL     1      51.355  82.835  15.138  1.00  0.00    -0.325 N 
ATOM      3  HN  UNL     1      51.585  82.043  14.539  1.00  0.00     0.169 HD
HETATM    4  O   UNL     1      51.580  83.667  17.215  1.00  0.00    -0.273 OA
ENDROOT
BRANCH   1   5
HETATM    5  C   UNL     1      51.226  81.310  17.090  1.00  0.00     0.130 C 
BRANCH   5   6
HETATM    6  C   UNL     1      50.358  80.383  16.301  1.00  0.00    -0.017 C 
HETATM    7  C   UNL     1      49.333  79.682  16.787  1.00  0.00     0.010 C 
BRANCH   7   8
HETATM    8  C   UNL     1      49.312  78.230  17.021  1.00  0.00    -0.014 C 
HETATM    9  C   UNL     1      50.469  77.542  17.451  1.00  0.00     0.018 C 
HETATM   10  C   UNL     1      50.502  76.141  17.448  1.00  0.00     0.065 C 
HETATM   11  C   UNL     1      49.349  75.426  17.060  1.00  0.00     0.196 C 
HETATM   12  O   UNL     1      48.220  76.102  16.485  1.00  0.00    -0.299 OA
HETATM   13  C   UNL     1      48.137  77.451  16.813  1.00  0.00     0.156 C 
BRANCH  11  14
HETATM   14  O   UNL     1      49.378  74.101  16.826  1.00  0.00    -0.216 OA
BRANCH  14  15
HETATM   15  P   UNL     1      49.957  73.286  15.576  1.00  0.00     0.429 P 
HETATM   16  O   UNL     1      48.975  72.168  15.311  1.00  0.00    -0.616 OA
HETATM   17  O   UNL     1      50.074  74.250  14.448  1.00  0.00    -0.616 OA
HETATM   18  O   UNL     1      51.323  72.734  15.939  1.00  0.00    -0.616 OA
ENDBRANCH  14  15
ENDBRANCH  11  14
ENDBRANCH   7   8
ENDBRANCH   5   6
ENDBRANCH   1   5
BRANCH   2  19
HETATM   19  C   UNL     1      50.986  84.072  14.546  1.00  0.00     0.097 C 
HETATM   20  C   UNL     1      49.625  84.296  14.339  1.00  0.00     0.198 C 
HETATM   21  C   UNL     1      49.175  85.072  13.137  1.00  0.00     0.259 C 
HETATM   22  O   UNL     1      48.773  84.186  15.311  1.00  0.00    -0.289 OA
HETATM   23  O   UNL     1      50.140  86.009  12.677  1.00  0.00    -0.323 OA
HETATM   24  C   UNL     1      51.521  85.631  12.587  1.00  0.00     0.311 C 
HETATM   25  C   UNL     1      52.012  84.851  13.811  1.00  0.00     0.264 C 
BRANCH  24  26
HETATM   26  O   UNL     1      52.266  86.813  12.695  1.00  0.00    -0.341 OA
ATOM     27  HO  UNL     1      51.699  87.452  13.110  1.00  0.00     0.215 HD
ENDBRANCH  24  26
BRANCH  24  28
HETATM   28  O   UNL     1      51.754  84.910  11.420  1.00  0.00    -0.341 OA
ATOM     29  HO  UNL     1      51.527  85.429  10.658  1.00  0.00     0.215 HD
ENDBRANCH  24  28
BRANCH  25  30
HETATM   30  O   UNL     1      53.170  84.102  13.501  1.00  0.00    -0.381 OA
ATOM     31  HO  UNL     1      53.655  83.885  14.289  1.00  0.00     0.210 HD
ENDBRANCH  25  30
ENDBRANCH   2  19
TORSDOF 9
ENDMDL
MODEL 5
REMARK VINA RESULT:      -9.8      2.075      3.408
REMARK  9 active torsions:
REMARK  status: ('A' for Active; 'I' for Inactive)
REMARK    1  A    between atoms: C_4  and  C_31 
REMARK    2  A    between atoms: O_5  and  C_13 
REMARK    3  A    between atoms: O_7  and  P_17 
REMARK    4  A    between atoms: O_7  and  C_23 
REMARK       I    between atoms: C_8  and  N_19 
REMARK    5  A    between atoms: C_8  and  C_31 
REMARK    6  A    between atoms: C_11  and  O_15 
REMARK    7  A    between atoms: C_13  and  O_24 
REMARK    8  A    between atoms: N_19  and  C_22 
REMARK    9  A    between atoms: C_26  and  C_29 
ROOT
HETATM    1  C   UNL     1      48.675  81.287  16.281  1.00  0.00     0.225 C 
HETATM    2  N   UNL     1      49.088  82.506  16.676  1.00  0.00    -0.325 N 
ATOM      3  HN  UNL     1      48.441  83.116  17.174  1.00  0.00     0.169 HD
HETATM    4  O   UNL     1      49.220  80.709  15.330  1.00  0.00    -0.273 OA
ENDROOT
BRANCH   1   5
HETATM    5  C   UNL     1      47.544  80.596  17.026  1.00  0.00     0.130 C 
BRANCH   5   6
HETATM    6  C   UNL     1      47.332  79.164  16.650  1.00  0.00    -0.017 C 
HETATM    7  C   UNL     1      47.715  78.111  17.373  1.00  0.00     0.010 C 
BRANCH   7   8
HETATM    8  C   UNL     1      48.830  77.206  17.059  1.00  0.00    -0.014 C 
HETATM    9  C   UNL     1      48.597  75.870  16.656  1.00  0.00     0.018 C 
HETATM   10  C   UNL     1      49.657  74.957  16.584  1.00  0.00     0.065 C 
HETATM   11  C   UNL     1      50.967  75.398  16.868  1.00  0.00     0.196 C 
HETATM   12  O   UNL     1      51.203  76.704  17.416  1.00  0.00    -0.299 OA
HETATM   13  C   UNL     1      50.189  77.622  17.158  1.00  0.00     0.156 C 
BRANCH  11  14
HETATM   14  O   UNL     1      51.989  74.538  17.029  1.00  0.00    -0.216 OA
BRANCH  14  15
HETATM   15  P   UNL     1      53.099  74.460  18.180  1.00  0.00     0.429 P 
HETATM   16  O   UNL     1      53.285  72.992  18.486  1.00  0.00    -0.616 OA
HETATM   17  O   UNL     1      54.324  75.111  17.643  1.00  0.00    -0.616 OA
HETATM   18  O   UNL     1      52.597  75.210  19.400  1.00  0.00    -0.616 OA
ENDBRANCH  14  15
ENDBRANCH  11  14
ENDBRANCH   7   8
ENDBRANCH   5   6
ENDBRANCH   1   5
BRANCH   2  19
HETATM   19  C   UNL     1      50.408  82.958  16.412  1.00  0.00     0.097 C 
HETATM   20  C   UNL     1      50.593  83.754  15.282  1.00  0.00     0.198 C 
HETATM   21  C   UNL     1      51.866  83.644  14.497  1.00  0.00     0.259 C 
HETATM   22  O   UNL     1      49.887  84.826  15.095  1.00  0.00    -0.289 OA
HETATM   23  O   UNL     1      52.978  83.233  15.281  1.00  0.00    -0.323 OA
HETATM   24  C   UNL     1      52.834  82.162  16.225  1.00  0.00     0.311 C 
HETATM   25  C   UNL     1      51.549  82.259  17.053  1.00  0.00     0.264 C 
BRANCH  24  26
HETATM   26  O   UNL     1      53.812  82.362  17.208  1.00  0.00    -0.341 OA
ATOM     27  HO  UNL     1      53.348  82.526  18.021  1.00  0.00     0.215 HD
ENDBRANCH  24  26
BRANCH  24  28
HETATM   28  O   UNL     1      52.911  80.931  15.581  1.00  0.00    -0.341 OA
ATOM     29  HO  UNL     1      53.616  80.932  14.944  1.00  0.00     0.215 HD
ENDBRANCH  24  28
BRANCH  25  30
HETATM   30  O   UNL     1      51.201  81.002  17.597  1.00  0.00    -0.381 OA
ATOM     31  HO  UNL     1      50.705  80.486  16.972  1.00  0.00     0.210 HD
ENDBRANCH  25  30
ENDBRANCH   2  19
TORSDOF 9
ENDMDL
MODEL 6
REMARK VINA RESULT:      -9.4      1.291      2.254
REMARK  9 active torsions:
REMARK  status: ('A' for Active; 'I' for Inactive)
REMARK    1  A    between atoms: C_4  and  C_31 
REMARK    2  A    between atoms: O_5  and  C_13 
REMARK    3  A    between atoms: O_7  and  P_17 
REMARK    4  A    between atoms: O_7  and  C_23 
REMARK       I    between atoms: C_8  and  N_19 
REMARK    5  A    between atoms: C_8  and  C_31 
REMARK    6  A    between atoms: C_11  and  O_15 
REMARK    7  A    between atoms: C_13  and  O_24 
REMARK    8  A    between atoms: N_19  and  C_22 
REMARK    9  A    between atoms: C_26  and  C_29 
ROOT
HETATM    1  C   UNL     1      49.072  83.020  15.451  1.00  0.00     0.225 C 
HETATM    2  N   UNL     1      50.263  83.636  15.557  1.00  0.00    -0.325 N 
ATOM      3  HN  UNL     1      50.558  84.002  16.462  1.00  0.00     0.169 HD
HETATM    4  O   UNL     1      48.480  82.963  14.364  1.00  0.00    -0.273 OA
ENDROOT
BRANCH   1   5
HETATM    5  C   UNL     1      48.452  82.360  16.674  1.00  0.00     0.130 C 
BRANCH   5   6
HETATM    6  C   UNL     1      47.826  81.027  16.414  1.00  0.00    -0.017 C 
HETATM    7  C   UNL     1      47.932  79.958  17.202  1.00  0.00     0.010 C 
BRANCH   7   8
HETATM    8  C   UNL     1      48.728  78.753  16.923  1.00  0.00    -0.014 C 
HETATM    9  C   UNL     1      48.115  77.487  16.780  1.00  0.00     0.018 C 
HETATM   10  C   UNL     1      48.894  76.323  16.745  1.00  0.00     0.065 C 
HETATM   11  C   UNL     1      50.299  76.432  16.802  1.00  0.00     0.196 C 
HETATM   12  O   UNL     1      50.930  77.689  17.092  1.00  0.00    -0.299 OA
HETATM   13  C   UNL     1      50.147  78.801  16.799  1.00  0.00     0.156 C 
BRANCH  11  14
HETATM   14  O   UNL     1      51.090  75.360  16.992  1.00  0.00    -0.216 OA
BRANCH  14  15
HETATM   15  P   UNL     1      51.896  74.890  18.292  1.00  0.00     0.429 P 
HETATM   16  O   UNL     1      51.124  75.420  19.479  1.00  0.00    -0.616 OA
HETATM   17  O   UNL     1      51.963  73.405  18.246  1.00  0.00    -0.616 OA
HETATM   18  O   UNL     1      53.293  75.481  18.246  1.00  0.00    -0.616 OA
ENDBRANCH  14  15
ENDBRANCH  11  14
ENDBRANCH   7   8
ENDBRANCH   5   6
ENDBRANCH   1   5
BRANCH   2  19
HETATM   19  C   UNL     1      51.118  83.787  14.433  1.00  0.00     0.097 C 
HETATM   20  C   UNL     1      52.449  83.401  14.590  1.00  0.00     0.198 C 
HETATM   21  C   UNL     1      53.530  84.158  13.879  1.00  0.00     0.259 C 
HETATM   22  O   UNL     1      52.756  82.216  15.019  1.00  0.00    -0.289 OA
HETATM   23  O   UNL     1      53.091  84.766  12.671  1.00  0.00    -0.323 OA
HETATM   24  C   UNL     1      51.835  85.457  12.630  1.00  0.00     0.311 C 
HETATM   25  C   UNL     1      50.707  84.696  13.335  1.00  0.00     0.264 C 
BRANCH  24  26
HETATM   26  O   UNL     1      51.402  85.419  11.297  1.00  0.00    -0.341 OA
ATOM     27  HO  UNL     1      50.599  84.912  11.288  1.00  0.00     0.215 HD
ENDBRANCH  24  26
BRANCH  24  28
HETATM   28  O   UNL     1      51.966  86.738  13.155  1.00  0.00    -0.341 OA
ATOM     29  HO  UNL     1      52.302  86.701  14.042  1.00  0.00     0.215 HD
ENDBRANCH  24  28
BRANCH  25  30
HETATM   30  O   UNL     1      49.656  85.569  13.694  1.00  0.00    -0.381 OA
ATOM     31  HO  UNL     1      49.719  86.391  13.221  1.00  0.00     0.210 HD
ENDBRANCH  25  30
ENDBRANCH   2  19
TORSDOF 9
ENDMDL
MODEL 7
REMARK VINA RESULT:      -9.3      3.112      9.749
REMARK  9 active torsions:
REMARK  status: ('A' for Active; 'I' for Inactive)
REMARK    1  A    between atoms: C_4  and  C_31 
REMARK    2  A    between atoms: O_5  and  C_13 
REMARK    3  A    between atoms: O_7  and  P_17 
REMARK    4  A    between atoms: O_7  and  C_23 
REMARK       I    between atoms: C_8  and  N_19 
REMARK    5  A    between atoms: C_8  and  C_31 
REMARK    6  A    between atoms: C_11  and  O_15 
REMARK    7  A    between atoms: C_13  and  O_24 
REMARK    8  A    between atoms: N_19  and  C_22 
REMARK    9  A    between atoms: C_26  and  C_29 
ROOT
HETATM    1  C   UNL     1      49.890  78.290  16.545  1.00  0.00     0.225 C 
HETATM    2  N   UNL     1      49.705  77.114  17.172  1.00  0.00    -0.325 N 
ATOM      3  HN  UNL     1      49.157  77.087  18.032  1.00  0.00     0.169 HD
HETATM    4  O   UNL     1      50.864  78.466  15.800  1.00  0.00    -0.273 OA
ENDROOT
BRANCH   1   5
HETATM    5  C   UNL     1      48.881  79.412  16.731  1.00  0.00     0.130 C 
BRANCH   5   6
HETATM    6  C   UNL     1      49.476  80.731  17.109  1.00  0.00    -0.017 C 
HETATM    7  C   UNL     1      48.861  81.910  17.020  1.00  0.00     0.010 C 
BRANCH   7   8
HETATM    8  C   UNL     1      49.144  82.961  16.031  1.00  0.00    -0.014 C 
HETATM    9  C   UNL     1      48.216  83.275  15.011  1.00  0.00     0.018 C 
HETATM   10  C   UNL     1      48.589  84.107  13.947  1.00  0.00     0.065 C 
HETATM   11  C   UNL     1      49.884  84.667  13.931  1.00  0.00     0.196 C 
HETATM   12  O   UNL     1      50.882  84.245  14.873  1.00  0.00    -0.299 OA
HETATM   13  C   UNL     1      50.365  83.695  16.042  1.00  0.00     0.156 C 
BRANCH  11  14
HETATM   14  O   UNL     1      50.378  85.288  12.844  1.00  0.00    -0.216 OA
BRANCH  14  15
HETATM   15  P   UNL     1      51.893  85.490  12.371  1.00  0.00     0.429 P 
HETATM   16  O   UNL     1      52.716  84.499  13.162  1.00  0.00    -0.616 OA
HETATM   17  O   UNL     1      51.925  85.247  10.904  1.00  0.00    -0.616 OA
HETATM   18  O   UNL     1      52.318  86.915  12.678  1.00  0.00    -0.616 OA
ENDBRANCH  14  15
ENDBRANCH  11  14
ENDBRANCH   7   8
ENDBRANCH   5   6
ENDBRANCH   1   5
BRANCH   2  19
HETATM   19  C   UNL     1      50.256  75.910  16.659  1.00  0.00     0.097 C 
HETATM   20  C   UNL     1      49.380  75.029  16.026  1.00  0.00     0.198 C 
HETATM   21  C   UNL     1      49.597  73.551  16.148  1.00  0.00     0.259 C 
HETATM   22  O   UNL     1      48.619  75.426  15.053  1.00  0.00    -0.289 OA
HETATM   23  O   UNL     1      50.958  73.196  16.349  1.00  0.00    -0.323 OA
HETATM   24  C   UNL     1      51.763  73.935  17.278  1.00  0.00     0.311 C 
HETATM   25  C   UNL     1      51.574  75.451  17.163  1.00  0.00     0.264 C 
BRANCH  24  26
HETATM   26  O   UNL     1      53.092  73.790  16.857  1.00  0.00    -0.341 OA
ATOM     27  HO  UNL     1      53.634  73.919  17.626  1.00  0.00     0.215 HD
ENDBRANCH  24  26
BRANCH  24  28
HETATM   28  O   UNL     1      51.523  73.508  18.580  1.00  0.00    -0.341 OA
ATOM     29  HO  UNL     1      50.893  74.077  19.006  1.00  0.00     0.215 HD
ENDBRANCH  24  28
BRANCH  25  30
HETATM   30  O   UNL     1      51.977  76.103  18.350  1.00  0.00    -0.381 OA
ATOM     31  HO  UNL     1      51.298  76.053  19.013  1.00  0.00     0.210 HD
ENDBRANCH  25  30
ENDBRANCH   2  19
TORSDOF 9
ENDMDL
MODEL 8
REMARK VINA RESULT:      -8.8      3.537     10.276
REMARK  9 active torsions:
REMARK  status: ('A' for Active; 'I' for Inactive)
REMARK    1  A    between atoms: C_4  and  C_31 
REMARK    2  A    between atoms: O_5  and  C_13 
REMARK    3  A    between atoms: O_7  and  P_17 
REMARK    4  A    between atoms: O_7  and  C_23 
REMARK       I    between atoms: C_8  and  N_19 
REMARK    5  A    between atoms: C_8  and  C_31 
REMARK    6  A    between atoms: C_11  and  O_15 
REMARK    7  A    between atoms: C_13  and  O_24 
REMARK    8  A    between atoms: N_19  and  C_22 
REMARK    9  A    between atoms: C_26  and  C_29 
ROOT
HETATM    1  C   UNL     1      50.123  77.032  16.949  1.00  0.00     0.225 C 
HETATM    2  N   UNL     1      49.268  76.075  16.544  1.00  0.00    -0.325 N 
ATOM      3  HN  UNL     1      48.264  76.230  16.636  1.00  0.00     0.169 HD
HETATM    4  O   UNL     1      51.284  76.749  17.276  1.00  0.00    -0.273 OA
ENDROOT
BRANCH   1   5
HETATM    5  C   UNL     1      49.671  78.484  16.982  1.00  0.00     0.130 C 
BRANCH   5   6
HETATM    6  C   UNL     1      50.783  79.483  17.013  1.00  0.00    -0.017 C 
HETATM    7  C   UNL     1      50.639  80.792  17.221  1.00  0.00     0.010 C 
BRANCH   7   8
HETATM    8  C   UNL     1      50.778  81.849  16.208  1.00  0.00    -0.014 C 
HETATM    9  C   UNL     1      52.046  82.211  15.697  1.00  0.00     0.018 C 
HETATM   10  C   UNL     1      52.190  83.364  14.913  1.00  0.00     0.065 C 
HETATM   11  C   UNL     1      51.049  84.130  14.597  1.00  0.00     0.196 C 
HETATM   12  O   UNL     1      49.784  83.862  15.222  1.00  0.00    -0.299 OA
HETATM   13  C   UNL     1      49.652  82.564  15.707  1.00  0.00     0.156 C 
BRANCH  11  14
HETATM   14  O   UNL     1      51.142  85.351  14.040  1.00  0.00    -0.216 OA
BRANCH  14  15
HETATM   15  P   UNL     1      51.557  85.779  12.554  1.00  0.00     0.429 P 
HETATM   16  O   UNL     1      51.973  84.507  11.852  1.00  0.00    -0.616 OA
HETATM   17  O   UNL     1      50.367  86.429  11.943  1.00  0.00    -0.616 OA
HETATM   18  O   UNL     1      52.713  86.760  12.630  1.00  0.00    -0.616 OA
ENDBRANCH  14  15
ENDBRANCH  11  14
ENDBRANCH   7   8
ENDBRANCH   5   6
ENDBRANCH   1   5
BRANCH   2  19
HETATM   19  C   UNL     1      49.736  74.854  15.991  1.00  0.00     0.097 C 
HETATM   20  C   UNL     1      49.069  74.369  14.867  1.00  0.00     0.198 C 
HETATM   21  C   UNL     1      48.911  72.890  14.678  1.00  0.00     0.259 C 
HETATM   22  O   UNL     1      48.907  75.109  13.814  1.00  0.00    -0.289 OA
HETATM   23  O   UNL     1      49.946  72.130  15.287  1.00  0.00    -0.323 OA
HETATM   24  C   UNL     1      50.393  72.458  16.610  1.00  0.00     0.311 C 
HETATM   25  C   UNL     1      50.579  73.964  16.826  1.00  0.00     0.264 C 
BRANCH  24  26
HETATM   26  O   UNL     1      51.714  72.000  16.711  1.00  0.00    -0.341 OA
ATOM     27  HO  UNL     1      51.916  71.961  17.638  1.00  0.00     0.215 HD
ENDBRANCH  24  26
BRANCH  24  28
HETATM   28  O   UNL     1      49.528  71.930  17.562  1.00  0.00    -0.341 OA
ATOM     29  HO  UNL     1      48.993  72.616  17.944  1.00  0.00     0.215 HD
ENDBRANCH  24  28
BRANCH  25  30
HETATM   30  O   UNL     1      50.544  74.286  18.201  1.00  0.00    -0.381 OA
ATOM     31  HO  UNL     1      51.242  73.846  18.672  1.00  0.00     0.210 HD
ENDBRANCH  25  30
ENDBRANCH   2  19
TORSDOF 9
ENDMDL
MODEL 9
REMARK VINA RESULT:      -8.8      3.713     10.406
REMARK  9 active torsions:
REMARK  status: ('A' for Active; 'I' for Inactive)
REMARK    1  A    between atoms: C_4  and  C_31 
REMARK    2  A    between atoms: O_5  and  C_13 
REMARK    3  A    between atoms: O_7  and  P_17 
REMARK    4  A    between atoms: O_7  and  C_23 
REMARK       I    between atoms: C_8  and  N_19 
REMARK    5  A    between atoms: C_8  and  C_31 
REMARK    6  A    between atoms: C_11  and  O_15 
REMARK    7  A    between atoms: C_13  and  O_24 
REMARK    8  A    between atoms: N_19  and  C_22 
REMARK    9  A    between atoms: C_26  and  C_29 
ROOT
HETATM    1  C   UNL     1      49.830  77.285  17.430  1.00  0.00     0.225 C 
HETATM    2  N   UNL     1      50.848  76.461  17.124  1.00  0.00    -0.325 N 
ATOM      3  HN  UNL     1      51.679  76.840  16.671  1.00  0.00     0.169 HD
HETATM    4  O   UNL     1      48.676  76.851  17.553  1.00  0.00    -0.273 OA
ENDROOT
BRANCH   1   5
HETATM    5  C   UNL     1      50.098  78.765  17.655  1.00  0.00     0.130 C 
BRANCH   5   6
HETATM    6  C   UNL     1      50.649  79.488  16.468  1.00  0.00    -0.017 C 
HETATM    7  C   UNL     1      51.029  80.765  16.448  1.00  0.00     0.010 C 
BRANCH   7   8
HETATM    8  C   UNL     1      50.312  81.871  15.795  1.00  0.00    -0.014 C 
HETATM    9  C   UNL     1      51.007  82.984  15.269  1.00  0.00     0.018 C 
HETATM   10  C   UNL     1      50.308  84.127  14.861  1.00  0.00     0.065 C 
HETATM   11  C   UNL     1      48.899  84.135  14.932  1.00  0.00     0.196 C 
HETATM   12  O   UNL     1      48.188  83.077  15.594  1.00  0.00    -0.299 OA
HETATM   13  C   UNL     1      48.893  81.880  15.675  1.00  0.00     0.156 C 
BRANCH  11  14
HETATM   14  O   UNL     1      48.183  85.262  14.766  1.00  0.00    -0.216 OA
BRANCH  14  15
HETATM   15  P   UNL     1      46.932  85.558  13.811  1.00  0.00     0.429 P 
HETATM   16  O   UNL     1      46.104  84.293  13.798  1.00  0.00    -0.616 OA
HETATM   17  O   UNL     1      46.216  86.727  14.388  1.00  0.00    -0.616 OA
HETATM   18  O   UNL     1      47.442  85.887  12.420  1.00  0.00    -0.616 OA
ENDBRANCH  14  15
ENDBRANCH  11  14
ENDBRANCH   7   8
ENDBRANCH   5   6
ENDBRANCH   1   5
BRANCH   2  19
HETATM   19  C   UNL     1      50.789  75.074  17.420  1.00  0.00     0.097 C 
HETATM   20  C   UNL     1      51.769  74.562  18.271  1.00  0.00     0.198 C 
HETATM   21  C   UNL     1      52.284  73.171  18.057  1.00  0.00     0.259 C 
HETATM   22  O   UNL     1      51.984  75.089  19.437  1.00  0.00    -0.289 OA
HETATM   23  O   UNL     1      51.337  72.306  17.446  1.00  0.00    -0.323 OA
HETATM   24  C   UNL     1      50.558  72.767  16.332  1.00  0.00     0.311 C 
HETATM   25  C   UNL     1      50.004  74.182  16.531  1.00  0.00     0.264 C 
BRANCH  24  26
HETATM   26  O   UNL     1      49.381  72.008  16.327  1.00  0.00    -0.341 OA
ATOM     27  HO  UNL     1      48.848  72.331  17.044  1.00  0.00     0.215 HD
ENDBRANCH  24  26
BRANCH  24  28
HETATM   28  O   UNL     1      51.297  72.691  15.156  1.00  0.00    -0.341 OA
ATOM     29  HO  UNL     1      52.100  72.204  15.299  1.00  0.00     0.215 HD
ENDBRANCH  24  28
BRANCH  25  30
HETATM   30  O   UNL     1      49.676  74.775  15.291  1.00  0.00    -0.381 OA
ATOM     31  HO  UNL     1      49.736  75.722  15.341  1.00  0.00     0.210 HD
ENDBRANCH  25  30
ENDBRANCH   2  19
TORSDOF 9
ENDMDL
