MODEL 1
REMARK VINA RESULT:     -11.0      0.000      0.000
REMARK  5 active torsions:
REMARK  status: ('A' for Active; 'I' for Inactive)
REMARK    1  A    between atoms: C_4  and  N_28 
REMARK    2  A    between atoms: N_5  and  C_27 
REMARK    3  A    between atoms: C_8  and  N_19 
REMARK    4  A    between atoms: C_14  and  N_19 
REMARK    5  A    between atoms: C_21  and  C_24 
REMARK       I    between atoms: C_24  and  N_28 
ROOT
HETATM    1  C   UNL     1     141.208 -27.562  74.419  1.00  0.00     0.019 C 
HETATM    2  C   UNL     1     143.674 -26.746  75.434  1.00  0.00     0.031 C 
HETATM    3  C   UNL     1     143.411 -28.097  75.212  1.00  0.00     0.019 C 
HETATM    4  C   UNL     1     141.468 -26.217  74.632  1.00  0.00     0.031 C 
HETATM    5  C   UNL     1     142.150 -28.512  74.792  1.00  0.00     0.032 C 
HETATM    6  C   UNL     1     142.714 -25.790  75.094  1.00  0.00     0.040 C 
ENDROOT
BRANCH   6   7
HETATM    7  N   UNL     1     142.966 -24.437  75.166  1.00  0.00    -0.308 N 
HETATM    8  C   UNL     1     143.424 -23.716  74.093  1.00  0.00     0.113 C 
HETATM    9  C   UNL     1     143.186 -22.386  74.374  1.00  0.00     0.050 C 
HETATM   10  C   UNL     1     142.604 -22.311  75.653  1.00  0.00     0.021 C 
HETATM   11  C   UNL     1     142.605 -23.580  76.181  1.00  0.00     0.099 C 
BRANCH   8  12
HETATM   12  N   UNL     1     143.935 -24.241  72.900  1.00  0.00    -0.332 N 
ATOM     13  HN  UNL     1     144.884 -23.896  72.758  1.00  0.00     0.168 HD
BRANCH  12  14
HETATM   14  C   UNL     1     143.590 -25.063  71.858  1.00  0.00     0.078 C 
HETATM   15  C   UNL     1     142.178 -25.083  71.351  1.00  0.00     0.076 C 
HETATM   16  C   UNL     1     142.014 -25.344  69.857  1.00  0.00     0.013 C 
HETATM   17  C   UNL     1     143.274 -25.731  69.083  1.00  0.00    -0.000 C 
HETATM   18  C   UNL     1     144.238 -26.499  69.968  1.00  0.00     0.125 C 
HETATM   19  C   UNL     1     143.923 -24.461  68.509  1.00  0.00     0.011 C 
HETATM   20  N   UNL     1     144.488 -25.928  71.285  1.00  0.00    -0.379 N 
ATOM     21  HN  UNL     1     145.341 -26.173  71.786  1.00  0.00     0.160 HD
ENDBRANCH  12  14
ENDBRANCH   8  12
ENDBRANCH   6   7
BRANCH   5  22
HETATM   22  C   UNL     1     141.784 -29.954  74.821  1.00  0.00     0.256 C 
HETATM   23  O   UNL     1     140.659 -30.316  75.078  1.00  0.00    -0.267 OA
HETATM   24  N   UNL     1     142.809 -30.816  74.525  1.00  0.00    -0.323 N 
ATOM     25  HN  UNL     1     143.759 -30.538  74.772  1.00  0.00     0.169 HD
BRANCH  24  26
HETATM   26  C   UNL     1     142.626 -32.044  73.906  1.00  0.00     0.035 C 
HETATM   27  C   UNL     1     143.335 -33.138  74.400  1.00  0.00     0.029 C 
HETATM   28  C   UNL     1     143.648 -34.350  73.824  1.00  0.00     0.002 C 
HETATM   29  C   UNL     1     143.608 -34.704  72.506  1.00  0.00     0.000 C 
HETATM   30  C   UNL     1     143.043 -33.904  71.529  1.00  0.00     0.000 C 
HETATM   31  C   UNL     1     142.080 -32.943  71.707  1.00  0.00     0.002 C 
HETATM   32  C   UNL     1     141.801 -32.112  72.775  1.00  0.00     0.029 C 
ENDBRANCH  24  26
ENDBRANCH   5  22
TORSDOF 5
ENDMDL
MODEL 2
REMARK VINA RESULT:      -9.9      4.522      7.516
REMARK  5 active torsions:
REMARK  status: ('A' for Active; 'I' for Inactive)
REMARK    1  A    between atoms: C_4  and  N_28 
REMARK    2  A    between atoms: N_5  and  C_27 
REMARK    3  A    between atoms: C_8  and  N_19 
REMARK    4  A    between atoms: C_14  and  N_19 
REMARK    5  A    between atoms: C_21  and  C_24 
REMARK       I    between atoms: C_24  and  N_28 
ROOT
HETATM    1  C   UNL     1     145.223 -26.960  76.515  1.00  0.00     0.019 C 
HETATM    2  C   UNL     1     143.758 -24.731  75.703  1.00  0.00     0.031 C 
HETATM    3  C   UNL     1     144.226 -24.833  77.013  1.00  0.00     0.019 C 
HETATM    4  C   UNL     1     144.766 -26.860  75.211  1.00  0.00     0.031 C 
HETATM    5  C   UNL     1     144.879 -25.985  77.442  1.00  0.00     0.032 C 
HETATM    6  C   UNL     1     144.072 -25.729  74.777  1.00  0.00     0.040 C 
ENDROOT
BRANCH   6   7
HETATM    7  N   UNL     1     143.752 -25.619  73.441  1.00  0.00    -0.308 N 
HETATM    8  C   UNL     1     142.613 -26.169  72.911  1.00  0.00     0.113 C 
HETATM    9  C   UNL     1     142.400 -25.552  71.695  1.00  0.00     0.050 C 
HETATM   10  C   UNL     1     143.449 -24.639  71.483  1.00  0.00     0.021 C 
HETATM   11  C   UNL     1     144.348 -24.799  72.511  1.00  0.00     0.099 C 
BRANCH   8  12
HETATM   12  N   UNL     1     141.774 -27.099  73.536  1.00  0.00    -0.332 N 
ATOM     13  HN  UNL     1     141.785 -26.941  74.543  1.00  0.00     0.168 HD
BRANCH  12  14
HETATM   14  C   UNL     1     140.942 -28.152  73.252  1.00  0.00     0.078 C 
HETATM   15  C   UNL     1     139.861 -27.999  72.223  1.00  0.00     0.076 C 
HETATM   16  C   UNL     1     139.525 -29.255  71.425  1.00  0.00     0.013 C 
HETATM   17  C   UNL     1     140.187 -30.557  71.878  1.00  0.00    -0.000 C 
HETATM   18  C   UNL     1     140.419 -30.552  73.378  1.00  0.00     0.125 C 
HETATM   19  C   UNL     1     141.500 -30.751  71.103  1.00  0.00     0.011 C 
HETATM   20  N   UNL     1     141.021 -29.345  73.925  1.00  0.00    -0.379 N 
ATOM     21  HN  UNL     1     141.507 -29.386  74.821  1.00  0.00     0.160 HD
ENDBRANCH  12  14
ENDBRANCH   8  12
ENDBRANCH   6   7
BRANCH   5  22
HETATM   22  C   UNL     1     145.130 -26.211  78.891  1.00  0.00     0.256 C 
HETATM   23  O   UNL     1     144.398 -26.903  79.560  1.00  0.00    -0.267 OA
HETATM   24  N   UNL     1     146.248 -25.591  79.387  1.00  0.00    -0.323 N 
ATOM     25  HN  UNL     1     146.538 -24.709  78.963  1.00  0.00     0.169 HD
BRANCH  24  26
HETATM   26  C   UNL     1     147.008 -26.096  80.432  1.00  0.00     0.035 C 
HETATM   27  C   UNL     1     146.415 -27.029  81.282  1.00  0.00     0.029 C 
HETATM   28  C   UNL     1     146.747 -27.431  82.557  1.00  0.00     0.002 C 
HETATM   29  C   UNL     1     147.568 -26.818  83.460  1.00  0.00     0.000 C 
HETATM   30  C   UNL     1     148.370 -25.739  83.135  1.00  0.00     0.000 C 
HETATM   31  C   UNL     1     148.838 -25.407  81.888  1.00  0.00     0.002 C 
HETATM   32  C   UNL     1     148.302 -25.593  80.628  1.00  0.00     0.029 C 
ENDBRANCH  24  26
ENDBRANCH   5  22
TORSDOF 5
ENDMDL
MODEL 3
REMARK VINA RESULT:      -9.7      3.942      6.834
REMARK  5 active torsions:
REMARK  status: ('A' for Active; 'I' for Inactive)
REMARK    1  A    between atoms: C_4  and  N_28 
REMARK    2  A    between atoms: N_5  and  C_27 
REMARK    3  A    between atoms: C_8  and  N_19 
REMARK    4  A    between atoms: C_14  and  N_19 
REMARK    5  A    between atoms: C_21  and  C_24 
REMARK       I    between atoms: C_24  and  N_28 
ROOT
HETATM    1  C   UNL     1     143.978 -27.344  76.354  1.00  0.00     0.019 C 
HETATM    2  C   UNL     1     142.596 -25.725  74.553  1.00  0.00     0.031 C 
HETATM    3  C   UNL     1     143.492 -25.167  75.464  1.00  0.00     0.019 C 
HETATM    4  C   UNL     1     143.092 -27.904  75.445  1.00  0.00     0.031 C 
HETATM    5  C   UNL     1     144.113 -25.964  76.422  1.00  0.00     0.032 C 
HETATM    6  C   UNL     1     142.430 -27.112  74.506  1.00  0.00     0.040 C 
ENDROOT
BRANCH   6   7
HETATM    7  N   UNL     1     141.662 -27.728  73.543  1.00  0.00    -0.308 N 
HETATM    8  C   UNL     1     141.982 -27.688  72.210  1.00  0.00     0.113 C 
HETATM    9  C   UNL     1     141.273 -28.701  71.597  1.00  0.00     0.050 C 
HETATM   10  C   UNL     1     140.491 -29.337  72.580  1.00  0.00     0.021 C 
HETATM   11  C   UNL     1     140.642 -28.629  73.748  1.00  0.00     0.099 C 
BRANCH   8  12
HETATM   12  N   UNL     1     142.929 -26.849  71.610  1.00  0.00    -0.332 N 
ATOM     13  HN  UNL     1     143.862 -27.116  71.922  1.00  0.00     0.168 HD
BRANCH  12  14
HETATM   14  C   UNL     1     143.025 -25.789  70.746  1.00  0.00     0.078 C 
HETATM   15  C   UNL     1     144.206 -24.867  70.817  1.00  0.00     0.076 C 
HETATM   16  C   UNL     1     144.657 -24.265  69.489  1.00  0.00     0.013 C 
HETATM   17  C   UNL     1     143.760 -24.520  68.278  1.00  0.00    -0.000 C 
HETATM   18  C   UNL     1     142.306 -24.635  68.696  1.00  0.00     0.125 C 
HETATM   19  C   UNL     1     144.242 -25.787  67.552  1.00  0.00     0.011 C 
HETATM   20  N   UNL     1     142.038 -25.496  69.839  1.00  0.00    -0.379 N 
ATOM     21  HN  UNL     1     141.105 -25.887  69.967  1.00  0.00     0.160 HD
ENDBRANCH  12  14
ENDBRANCH   8  12
ENDBRANCH   6   7
BRANCH   5  22
HETATM   22  C   UNL     1     144.845 -25.341  77.558  1.00  0.00     0.256 C 
HETATM   23  O   UNL     1     144.637 -24.199  77.896  1.00  0.00    -0.267 OA
HETATM   24  N   UNL     1     145.746 -26.165  78.184  1.00  0.00    -0.323 N 
ATOM     25  HN  UNL     1     146.209 -26.884  77.627  1.00  0.00     0.169 HD
BRANCH  24  26
HETATM   26  C   UNL     1     146.063 -26.074  79.532  1.00  0.00     0.035 C 
HETATM   27  C   UNL     1     147.146 -25.275  79.897  1.00  0.00     0.029 C 
HETATM   28  C   UNL     1     147.912 -25.256  81.043  1.00  0.00     0.002 C 
HETATM   29  C   UNL     1     148.017 -26.209  82.015  1.00  0.00     0.000 C 
HETATM   30  C   UNL     1     147.184 -27.312  82.081  1.00  0.00     0.000 C 
HETATM   31  C   UNL     1     145.920 -27.420  81.559  1.00  0.00     0.002 C 
HETATM   32  C   UNL     1     145.333 -26.843  80.448  1.00  0.00     0.029 C 
ENDBRANCH  24  26
ENDBRANCH   5  22
TORSDOF 5
ENDMDL
MODEL 4
REMARK VINA RESULT:      -9.4      4.900      8.110
REMARK  5 active torsions:
REMARK  status: ('A' for Active; 'I' for Inactive)
REMARK    1  A    between atoms: C_4  and  N_28 
REMARK    2  A    between atoms: N_5  and  C_27 
REMARK    3  A    between atoms: C_8  and  N_19 
REMARK    4  A    between atoms: C_14  and  N_19 
REMARK    5  A    between atoms: C_21  and  C_24 
REMARK       I    between atoms: C_24  and  N_28 
ROOT
HETATM    1  C   UNL     1     144.460 -24.913  78.068  1.00  0.00     0.019 C 
HETATM    2  C   UNL     1     145.074 -26.718  76.033  1.00  0.00     0.031 C 
HETATM    3  C   UNL     1     145.405 -27.002  77.357  1.00  0.00     0.019 C 
HETATM    4  C   UNL     1     144.124 -24.627  76.754  1.00  0.00     0.031 C 
HETATM    5  C   UNL     1     145.181 -26.064  78.360  1.00  0.00     0.032 C 
HETATM    6  C   UNL     1     144.381 -25.542  75.731  1.00  0.00     0.040 C 
ENDROOT
BRANCH   6   7
HETATM    7  N   UNL     1     143.912 -25.270  74.465  1.00  0.00    -0.308 N 
HETATM    8  C   UNL     1     143.195 -26.183  73.734  1.00  0.00     0.113 C 
HETATM    9  C   UNL     1     142.557 -25.481  72.732  1.00  0.00     0.050 C 
HETATM   10  C   UNL     1     142.925 -24.127  72.850  1.00  0.00     0.021 C 
HETATM   11  C   UNL     1     143.872 -24.043  73.842  1.00  0.00     0.099 C 
BRANCH   8  12
HETATM   12  N   UNL     1     143.057 -27.547  74.019  1.00  0.00    -0.332 N 
ATOM     13  HN  UNL     1     143.979 -27.957  74.161  1.00  0.00     0.168 HD
BRANCH  12  14
HETATM   14  C   UNL     1     142.100 -28.517  74.172  1.00  0.00     0.078 C 
HETATM   15  C   UNL     1     141.139 -28.807  73.059  1.00  0.00     0.076 C 
HETATM   16  C   UNL     1     140.679 -30.257  72.941  1.00  0.00     0.013 C 
HETATM   17  C   UNL     1     141.099 -31.205  74.064  1.00  0.00    -0.000 C 
HETATM   18  C   UNL     1     141.212 -30.465  75.383  1.00  0.00     0.125 C 
HETATM   19  C   UNL     1     142.425 -31.884  73.680  1.00  0.00     0.011 C 
HETATM   20  N   UNL     1     141.945 -29.207  75.348  1.00  0.00    -0.379 N 
ATOM     21  HN  UNL     1     142.349 -28.836  76.207  1.00  0.00     0.160 HD
ENDBRANCH  12  14
ENDBRANCH   8  12
ENDBRANCH   6   7
BRANCH   5  22
HETATM   22  C   UNL     1     145.778 -26.247  79.710  1.00  0.00     0.256 C 
HETATM   23  O   UNL     1     145.813 -27.331  80.245  1.00  0.00    -0.267 OA
HETATM   24  N   UNL     1     146.287 -25.106  80.276  1.00  0.00    -0.323 N 
ATOM     25  HN  UNL     1     145.847 -24.215  80.042  1.00  0.00     0.169 HD
BRANCH  24  26
HETATM   26  C   UNL     1     147.366 -25.095  81.147  1.00  0.00     0.035 C 
HETATM   27  C   UNL     1     148.594 -25.559  80.675  1.00  0.00     0.029 C 
HETATM   28  C   UNL     1     149.714 -26.001  81.346  1.00  0.00     0.002 C 
HETATM   29  C   UNL     1     149.830 -26.389  82.650  1.00  0.00     0.000 C 
HETATM   30  C   UNL     1     148.822 -26.211  83.581  1.00  0.00     0.000 C 
HETATM   31  C   UNL     1     147.816 -25.279  83.536  1.00  0.00     0.002 C 
HETATM   32  C   UNL     1     147.157 -24.690  82.473  1.00  0.00     0.029 C 
ENDBRANCH  24  26
ENDBRANCH   5  22
TORSDOF 5
ENDMDL
MODEL 5
REMARK VINA RESULT:      -9.3      3.226      6.087
REMARK  5 active torsions:
REMARK  status: ('A' for Active; 'I' for Inactive)
REMARK    1  A    between atoms: C_4  and  N_28 
REMARK    2  A    between atoms: N_5  and  C_27 
REMARK    3  A    between atoms: C_8  and  N_19 
REMARK    4  A    between atoms: C_14  and  N_19 
REMARK    5  A    between atoms: C_21  and  C_24 
REMARK       I    between atoms: C_24  and  N_28 
ROOT
HETATM    1  C   UNL     1     142.953 -32.704  74.475  1.00  0.00     0.019 C 
HETATM    2  C   UNL     1     142.114 -32.378  71.836  1.00  0.00     0.031 C 
HETATM    3  C   UNL     1     142.910 -33.464  72.198  1.00  0.00     0.019 C 
HETATM    4  C   UNL     1     142.156 -31.625  74.122  1.00  0.00     0.031 C 
HETATM    5  C   UNL     1     143.403 -33.578  73.495  1.00  0.00     0.032 C 
HETATM    6  C   UNL     1     141.689 -31.475  72.815  1.00  0.00     0.040 C 
ENDROOT
BRANCH   6   7
HETATM    7  N   UNL     1     140.797 -30.462  72.542  1.00  0.00    -0.308 N 
HETATM    8  C   UNL     1     140.880 -29.229  73.138  1.00  0.00     0.113 C 
HETATM    9  C   UNL     1     140.126 -28.363  72.373  1.00  0.00     0.050 C 
HETATM   10  C   UNL     1     139.556 -29.101  71.319  1.00  0.00     0.021 C 
HETATM   11  C   UNL     1     139.873 -30.423  71.524  1.00  0.00     0.099 C 
BRANCH   8  12
HETATM   12  N   UNL     1     141.668 -28.896  74.247  1.00  0.00    -0.332 N 
ATOM     13  HN  UNL     1     141.881 -29.742  74.775  1.00  0.00     0.168 HD
BRANCH  12  14
HETATM   14  C   UNL     1     142.249 -27.818  74.863  1.00  0.00     0.078 C 
HETATM   15  C   UNL     1     143.387 -28.022  75.819  1.00  0.00     0.076 C 
HETATM   16  C   UNL     1     144.429 -26.908  75.855  1.00  0.00     0.013 C 
HETATM   17  C   UNL     1     144.111 -25.642  75.059  1.00  0.00    -0.000 C 
HETATM   18  C   UNL     1     142.615 -25.390  75.018  1.00  0.00     0.125 C 
HETATM   19  C   UNL     1     144.702 -25.773  73.646  1.00  0.00     0.011 C 
HETATM   20  N   UNL     1     141.785 -26.539  74.684  1.00  0.00    -0.379 N 
ATOM     21  HN  UNL     1     140.847 -26.391  74.311  1.00  0.00     0.160 HD
ENDBRANCH  12  14
ENDBRANCH   8  12
ENDBRANCH   6   7
BRANCH   5  22
HETATM   22  C   UNL     1     144.465 -34.570  73.811  1.00  0.00     0.256 C 
HETATM   23  O   UNL     1     144.218 -35.748  73.927  1.00  0.00    -0.267 OA
HETATM   24  N   UNL     1     145.725 -34.044  73.944  1.00  0.00    -0.323 N 
ATOM     25  HN  UNL     1     145.814 -33.090  74.294  1.00  0.00     0.169 HD
BRANCH  24  26
HETATM   26  C   UNL     1     146.885 -34.737  73.628  1.00  0.00     0.035 C 
HETATM   27  C   UNL     1     147.767 -35.045  74.663  1.00  0.00     0.029 C 
HETATM   28  C   UNL     1     149.103 -35.381  74.646  1.00  0.00     0.002 C 
HETATM   29  C   UNL     1     150.011 -35.216  73.639  1.00  0.00     0.000 C 
HETATM   30  C   UNL     1     149.654 -34.833  72.359  1.00  0.00     0.000 C 
HETATM   31  C   UNL     1     148.430 -35.001  71.761  1.00  0.00     0.002 C 
HETATM   32  C   UNL     1     147.150 -35.027  72.283  1.00  0.00     0.029 C 
ENDBRANCH  24  26
ENDBRANCH   5  22
TORSDOF 5
ENDMDL
MODEL 6
REMARK VINA RESULT:      -9.0      1.027      2.015
REMARK  5 active torsions:
REMARK  status: ('A' for Active; 'I' for Inactive)
REMARK    1  A    between atoms: C_4  and  N_28 
REMARK    2  A    between atoms: N_5  and  C_27 
REMARK    3  A    between atoms: C_8  and  N_19 
REMARK    4  A    between atoms: C_14  and  N_19 
REMARK    5  A    between atoms: C_21  and  C_24 
REMARK       I    between atoms: C_24  and  N_28 
ROOT
HETATM    1  C   UNL     1     143.025 -28.701  75.097  1.00  0.00     0.019 C 
HETATM    2  C   UNL     1     141.308 -26.751  74.084  1.00  0.00     0.031 C 
HETATM    3  C   UNL     1     141.010 -28.105  73.935  1.00  0.00     0.019 C 
HETATM    4  C   UNL     1     143.323 -27.357  75.253  1.00  0.00     0.031 C 
HETATM    5  C   UNL     1     141.909 -29.079  74.360  1.00  0.00     0.032 C 
HETATM    6  C   UNL     1     142.450 -26.369  74.794  1.00  0.00     0.040 C 
ENDROOT
BRANCH   6   7
HETATM    7  N   UNL     1     142.726 -25.052  75.087  1.00  0.00    -0.308 N 
HETATM    8  C   UNL     1     143.304 -24.202  74.179  1.00  0.00     0.113 C 
HETATM    9  C   UNL     1     143.073 -22.918  74.629  1.00  0.00     0.050 C 
HETATM   10  C   UNL     1     142.370 -23.006  75.845  1.00  0.00     0.021 C 
HETATM   11  C   UNL     1     142.289 -24.336  76.179  1.00  0.00     0.099 C 
BRANCH   8  12
HETATM   12  N   UNL     1     143.916 -24.569  72.974  1.00  0.00    -0.332 N 
ATOM     13  HN  UNL     1     144.927 -24.596  73.103  1.00  0.00     0.168 HD
BRANCH  12  14
HETATM   14  C   UNL     1     143.614 -24.904  71.679  1.00  0.00     0.078 C 
HETATM   15  C   UNL     1     144.599 -25.680  70.855  1.00  0.00     0.076 C 
HETATM   16  C   UNL     1     143.997 -26.637  69.831  1.00  0.00     0.013 C 
HETATM   17  C   UNL     1     142.482 -26.569  69.632  1.00  0.00    -0.000 C 
HETATM   18  C   UNL     1     141.969 -25.161  69.868  1.00  0.00     0.125 C 
HETATM   19  C   UNL     1     141.805 -27.583  70.569  1.00  0.00     0.011 C 
HETATM   20  N   UNL     1     142.451 -24.501  71.074  1.00  0.00    -0.379 N 
ATOM     21  HN  UNL     1     141.917 -23.729  71.473  1.00  0.00     0.160 HD
ENDBRANCH  12  14
ENDBRANCH   8  12
ENDBRANCH   6   7
BRANCH   5  22
HETATM   22  C   UNL     1     141.727 -30.499  73.958  1.00  0.00     0.256 C 
HETATM   23  O   UNL     1     140.725 -30.874  73.394  1.00  0.00    -0.267 OA
HETATM   24  N   UNL     1     142.778 -31.325  74.264  1.00  0.00    -0.323 N 
ATOM     25  HN  UNL     1     143.335 -31.109  75.091  1.00  0.00     0.169 HD
BRANCH  24  26
HETATM   26  C   UNL     1     143.127 -32.438  73.512  1.00  0.00     0.035 C 
HETATM   27  C   UNL     1     142.343 -32.749  72.401  1.00  0.00     0.029 C 
HETATM   28  C   UNL     1     142.200 -33.923  71.693  1.00  0.00     0.002 C 
HETATM   29  C   UNL     1     142.557 -35.189  72.060  1.00  0.00     0.000 C 
HETATM   30  C   UNL     1     143.320 -35.461  73.181  1.00  0.00     0.000 C 
HETATM   31  C   UNL     1     144.194 -34.609  73.809  1.00  0.00     0.002 C 
HETATM   32  C   UNL     1     144.197 -33.233  73.943  1.00  0.00     0.029 C 
ENDBRANCH  24  26
ENDBRANCH   5  22
TORSDOF 5
ENDMDL
MODEL 7
REMARK VINA RESULT:      -8.7      2.953      9.308
REMARK  5 active torsions:
REMARK  status: ('A' for Active; 'I' for Inactive)
REMARK    1  A    between atoms: C_4  and  N_28 
REMARK    2  A    between atoms: N_5  and  C_27 
REMARK    3  A    between atoms: C_8  and  N_19 
REMARK    4  A    between atoms: C_14  and  N_19 
REMARK    5  A    between atoms: C_21  and  C_24 
REMARK       I    between atoms: C_24  and  N_28 
ROOT
HETATM    1  C   UNL     1     141.358 -31.134  72.553  1.00  0.00     0.019 C 
HETATM    2  C   UNL     1     142.930 -32.954  73.965  1.00  0.00     0.031 C 
HETATM    3  C   UNL     1     142.473 -31.787  74.577  1.00  0.00     0.019 C 
HETATM    4  C   UNL     1     141.804 -32.295  71.942  1.00  0.00     0.031 C 
HETATM    5  C   UNL     1     141.766 -30.836  73.847  1.00  0.00     0.032 C 
HETATM    6  C   UNL     1     142.551 -33.238  72.650  1.00  0.00     0.040 C 
ENDROOT
BRANCH   6   7
HETATM    7  N   UNL     1     142.860 -34.433  72.038  1.00  0.00    -0.308 N 
HETATM    8  C   UNL     1     144.036 -35.099  72.276  1.00  0.00     0.113 C 
HETATM    9  C   UNL     1     143.855 -36.397  71.845  1.00  0.00     0.050 C 
HETATM   10  C   UNL     1     142.557 -36.499  71.312  1.00  0.00     0.021 C 
HETATM   11  C   UNL     1     142.010 -35.239  71.315  1.00  0.00     0.099 C 
BRANCH   8  12
HETATM   12  N   UNL     1     145.163 -34.583  72.928  1.00  0.00    -0.332 N 
ATOM     13  HN  UNL     1     145.131 -33.564  72.901  1.00  0.00     0.168 HD
BRANCH  12  14
HETATM   14  C   UNL     1     146.294 -34.984  73.591  1.00  0.00     0.078 C 
HETATM   15  C   UNL     1     146.885 -36.335  73.318  1.00  0.00     0.076 C 
HETATM   16  C   UNL     1     148.404 -36.427  73.429  1.00  0.00     0.013 C 
HETATM   17  C   UNL     1     149.131 -35.198  73.974  1.00  0.00    -0.000 C 
HETATM   18  C   UNL     1     148.261 -34.453  74.970  1.00  0.00     0.125 C 
HETATM   19  C   UNL     1     149.547 -34.296  72.801  1.00  0.00     0.011 C 
HETATM   20  N   UNL     1     146.886 -34.209  74.556  1.00  0.00    -0.379 N 
ATOM     21  HN  UNL     1     146.356 -33.453  74.989  1.00  0.00     0.160 HD
ENDBRANCH  12  14
ENDBRANCH   8  12
ENDBRANCH   6   7
BRANCH   5  22
HETATM   22  C   UNL     1     141.521 -29.482  74.413  1.00  0.00     0.256 C 
HETATM   23  O   UNL     1     140.512 -29.226  75.029  1.00  0.00    -0.267 OA
HETATM   24  N   UNL     1     142.525 -28.574  74.192  1.00  0.00    -0.323 N 
ATOM     25  HN  UNL     1     143.077 -28.665  73.339  1.00  0.00     0.169 HD
BRANCH  24  26
HETATM   26  C   UNL     1     142.832 -27.539  75.063  1.00  0.00     0.035 C 
HETATM   27  C   UNL     1     142.467 -26.244  74.696  1.00  0.00     0.029 C 
HETATM   28  C   UNL     1     142.920 -25.018  75.132  1.00  0.00     0.002 C 
HETATM   29  C   UNL     1     144.058 -24.726  75.828  1.00  0.00     0.000 C 
HETATM   30  C   UNL     1     144.872 -25.699  76.381  1.00  0.00     0.000 C 
HETATM   31  C   UNL     1     144.506 -26.971  76.742  1.00  0.00     0.002 C 
HETATM   32  C   UNL     1     143.554 -27.832  76.228  1.00  0.00     0.029 C 
ENDBRANCH  24  26
ENDBRANCH   5  22
TORSDOF 5
ENDMDL
MODEL 8
REMARK VINA RESULT:      -8.1      3.496      8.630
REMARK  5 active torsions:
REMARK  status: ('A' for Active; 'I' for Inactive)
REMARK    1  A    between atoms: C_4  and  N_28 
REMARK    2  A    between atoms: N_5  and  C_27 
REMARK    3  A    between atoms: C_8  and  N_19 
REMARK    4  A    between atoms: C_14  and  N_19 
REMARK    5  A    between atoms: C_21  and  C_24 
REMARK       I    between atoms: C_24  and  N_28 
ROOT
HETATM    1  C   UNL     1     143.380 -26.477  69.469  1.00  0.00     0.019 C 
HETATM    2  C   UNL     1     141.225 -25.833  71.117  1.00  0.00     0.031 C 
HETATM    3  C   UNL     1     141.427 -25.154  69.916  1.00  0.00     0.019 C 
HETATM    4  C   UNL     1     143.180 -27.159  70.659  1.00  0.00     0.031 C 
HETATM    5  C   UNL     1     142.552 -25.413  69.138  1.00  0.00     0.032 C 
HETATM    6  C   UNL     1     142.079 -26.881  71.471  1.00  0.00     0.040 C 
ENDROOT
BRANCH   6   7
HETATM    7  N   UNL     1     141.853 -27.673  72.575  1.00  0.00    -0.308 N 
HETATM    8  C   UNL     1     142.358 -27.369  73.814  1.00  0.00     0.113 C 
HETATM    9  C   UNL     1     141.637 -28.104  74.732  1.00  0.00     0.050 C 
HETATM   10  C   UNL     1     140.704 -28.885  74.023  1.00  0.00     0.021 C 
HETATM   11  C   UNL     1     140.951 -28.706  72.683  1.00  0.00     0.099 C 
BRANCH   8  12
HETATM   12  N   UNL     1     143.343 -26.414  74.095  1.00  0.00    -0.332 N 
ATOM     13  HN  UNL     1     144.259 -26.793  73.854  1.00  0.00     0.168 HD
BRANCH  12  14
HETATM   14  C   UNL     1     143.493 -25.143  74.585  1.00  0.00     0.078 C 
HETATM   15  C   UNL     1     143.519 -23.973  73.646  1.00  0.00     0.076 C 
HETATM   16  C   UNL     1     142.930 -22.675  74.189  1.00  0.00     0.013 C 
HETATM   17  C   UNL     1     142.549 -22.658  75.669  1.00  0.00    -0.000 C 
HETATM   18  C   UNL     1     143.461 -23.566  76.473  1.00  0.00     0.125 C 
HETATM   19  C   UNL     1     141.073 -23.066  75.815  1.00  0.00     0.011 C 
HETATM   20  N   UNL     1     143.684 -24.895  75.921  1.00  0.00    -0.379 N 
ATOM     21  HN  UNL     1     143.986 -25.651  76.535  1.00  0.00     0.160 HD
ENDBRANCH  12  14
ENDBRANCH   8  12
ENDBRANCH   6   7
BRANCH   5  22
HETATM   22  C   UNL     1     142.913 -24.508  68.013  1.00  0.00     0.256 C 
HETATM   23  O   UNL     1     144.036 -24.469  67.567  1.00  0.00    -0.267 OA
HETATM   24  N   UNL     1     141.879 -23.749  67.528  1.00  0.00    -0.323 N 
ATOM     25  HN  UNL     1     141.142 -23.469  68.176  1.00  0.00     0.169 HD
BRANCH  24  26
HETATM   26  C   UNL     1     141.778 -23.341  66.206  1.00  0.00     0.035 C 
HETATM   27  C   UNL     1     142.210 -22.056  65.882  1.00  0.00     0.029 C 
HETATM   28  C   UNL     1     141.929 -21.251  64.799  1.00  0.00     0.002 C 
HETATM   29  C   UNL     1     140.917 -21.367  63.890  1.00  0.00     0.000 C 
HETATM   30  C   UNL     1     140.093 -22.476  63.819  1.00  0.00     0.000 C 
HETATM   31  C   UNL     1     140.384 -23.747  64.248  1.00  0.00     0.002 C 
HETATM   32  C   UNL     1     141.182 -24.207  65.278  1.00  0.00     0.029 C 
ENDBRANCH  24  26
ENDBRANCH   5  22
TORSDOF 5
ENDMDL
