MODEL 1
REMARK VINA RESULT:     -10.7      0.000      0.000
REMARK  9 active torsions:
REMARK  status: ('A' for Active; 'I' for Inactive)
REMARK    1  A    between atoms: C_2  and  O_21 
REMARK    2  A    between atoms: C_2  and  O_24 
REMARK    3  A    between atoms: C_2  and  C_35 
REMARK    4  A    between atoms: C_3  and  C_15 
REMARK    5  A    between atoms: O_9  and  C_29 
REMARK    6  A    between atoms: C_13  and  C_34 
REMARK    7  A    between atoms: C_23  and  C_27 
REMARK    8  A    between atoms: C_23  and  C_35 
REMARK    9  A    between atoms: C_28  and  C_29 
ROOT
HETATM    1  C   UNL     1     143.276 -27.291  75.054  1.00  0.00     0.045 C 
HETATM    2  N   UNL     1     141.863 -28.474  73.055  1.00  0.00    -0.343 N 
ATOM      3  HN  UNL     1     141.267 -28.849  72.317  1.00  0.00     0.167 HD
HETATM    4  N   UNL     1     143.502 -26.940  73.773  1.00  0.00    -0.341 N 
ATOM      5  HN  UNL     1     144.338 -26.426  73.492  1.00  0.00     0.167 HD
HETATM    6  C   UNL     1     142.634 -28.501  75.340  1.00  0.00     0.058 C 
HETATM    7  C   UNL     1     142.002 -29.117  74.259  1.00  0.00     0.041 C 
HETATM    8  C   UNL     1     142.560 -27.307  72.887  1.00  0.00     0.122 C 
ENDROOT
BRANCH   1   9
HETATM    9  C   UNL     1     143.833 -26.382  76.071  1.00  0.00    -0.008 A 
HETATM   10  C   UNL     1     144.523 -26.856  77.196  1.00  0.00     0.029 A 
HETATM   11  C   UNL     1     144.871 -25.935  78.193  1.00  0.00     0.015 A 
HETATM   12  C   UNL     1     144.625 -24.575  78.039  1.00  0.00     0.015 A 
HETATM   13  C   UNL     1     143.984 -24.120  76.899  1.00  0.00     0.002 A 
HETATM   14  C   UNL     1     143.593 -25.017  75.916  1.00  0.00     0.014 A 
BRANCH  11  15
HETATM   15  C   UNL     1     145.650 -26.405  79.396  1.00  0.00     0.184 C 
HETATM   16  O   UNL     1     145.305 -27.350  80.051  1.00  0.00    -0.288 OA
BRANCH  15  17
HETATM   17  C   UNL     1     146.851 -25.555  79.702  1.00  0.00     0.114 C 
BRANCH  17  18
HETATM   18  C   UNL     1     147.346 -25.308  81.131  1.00  0.00     0.267 C 
HETATM   19 CL   UNL     1     148.887 -26.210  81.346  1.00  0.00    -0.053 Cl
BRANCH  18  20
HETATM   20  O   UNL     1     147.583 -24.010  81.366  1.00  0.00    -0.350 OA
ATOM     21  HO  UNL     1     148.521 -23.867  81.330  1.00  0.00     0.214 HD
ENDBRANCH  18  20
BRANCH  18  22
HETATM   22  O   UNL     1     146.426 -25.874  82.030  1.00  0.00    -0.350 OA
ATOM     23  HO  UNL     1     146.336 -25.257  82.747  1.00  0.00     0.214 HD
ENDBRANCH  18  22
ENDBRANCH  17  18
ENDBRANCH  15  17
ENDBRANCH  11  15
ENDBRANCH   1   9
BRANCH   8  24
HETATM   24  C   UNL     1     142.484 -26.384  71.739  1.00  0.00     0.076 C 
HETATM   25  C   UNL     1     143.705 -25.923  71.061  1.00  0.00     0.259 C 
HETATM   26  N   UNL     1     143.519 -24.937  70.122  1.00  0.00    -0.333 N 
HETATM   27  O   UNL     1     144.810 -26.409  71.285  1.00  0.00    -0.267 OA
HETATM   28  C   UNL     1     142.342 -24.818  69.439  1.00  0.00     0.091 C 
ATOM     29  HN  UNL     1     144.275 -24.279  69.931  1.00  0.00     0.168 HD
HETATM   30  C   UNL     1     141.193 -25.413  69.925  1.00  0.00     0.018 C 
HETATM   31  C   UNL     1     141.268 -26.183  71.095  1.00  0.00     0.022 C 
ENDBRANCH   8  24
BRANCH   7  32
HETATM   32  C   UNL     1     141.390 -30.480  74.475  1.00  0.00     0.163 C 
HETATM   33  C   UNL     1     142.360 -31.613  74.218  1.00  0.00     0.046 C 
BRANCH  32  34
HETATM   34  O   UNL     1     140.240 -30.607  73.651  1.00  0.00    -0.390 OA
ATOM     35  HO  UNL     1     139.559 -30.032  73.981  1.00  0.00     0.210 HD
ENDBRANCH  32  34
ENDBRANCH   7  32
TORSDOF 9
ENDMDL
MODEL 2
REMARK VINA RESULT:     -10.6      1.821      4.252
REMARK  9 active torsions:
REMARK  status: ('A' for Active; 'I' for Inactive)
REMARK    1  A    between atoms: C_2  and  O_21 
REMARK    2  A    between atoms: C_2  and  O_24 
REMARK    3  A    between atoms: C_2  and  C_35 
REMARK    4  A    between atoms: C_3  and  C_15 
REMARK    5  A    between atoms: O_9  and  C_29 
REMARK    6  A    between atoms: C_13  and  C_34 
REMARK    7  A    between atoms: C_23  and  C_27 
REMARK    8  A    between atoms: C_23  and  C_35 
REMARK    9  A    between atoms: C_28  and  C_29 
ROOT
HETATM    1  C   UNL     1     143.339 -25.111  73.094  1.00  0.00     0.045 C 
HETATM    2  N   UNL     1     143.049 -26.337  70.685  1.00  0.00    -0.343 N 
ATOM      3  HN  UNL     1     142.995 -26.868  69.816  1.00  0.00     0.167 HD
HETATM    4  N   UNL     1     142.296 -25.936  72.882  1.00  0.00    -0.341 N 
ATOM      5  HN  UNL     1     141.480 -25.945  73.494  1.00  0.00     0.167 HD
HETATM    6  C   UNL     1     144.034 -24.575  72.004  1.00  0.00     0.058 C 
HETATM    7  C   UNL     1     143.779 -25.178  70.772  1.00  0.00     0.041 C 
HETATM    8  C   UNL     1     142.396 -26.749  71.815  1.00  0.00     0.122 C 
ENDROOT
BRANCH   1   9
HETATM    9  C   UNL     1     143.599 -24.761  74.502  1.00  0.00    -0.008 A 
HETATM   10  C   UNL     1     144.209 -25.658  75.391  1.00  0.00     0.029 A 
HETATM   11  C   UNL     1     144.264 -25.309  76.746  1.00  0.00     0.015 A 
HETATM   12  C   UNL     1     143.813 -24.071  77.193  1.00  0.00     0.015 A 
HETATM   13  C   UNL     1     143.255 -23.180  76.292  1.00  0.00     0.002 A 
HETATM   14  C   UNL     1     143.152 -23.519  74.951  1.00  0.00     0.014 A 
BRANCH  11  15
HETATM   15  C   UNL     1     144.951 -26.231  77.722  1.00  0.00     0.184 C 
HETATM   16  O   UNL     1     144.925 -27.425  77.599  1.00  0.00    -0.288 OA
BRANCH  15  17
HETATM   17  C   UNL     1     145.619 -25.511  78.860  1.00  0.00     0.114 C 
BRANCH  17  18
HETATM   18  C   UNL     1     146.255 -26.247  80.044  1.00  0.00     0.267 C 
HETATM   19 CL   UNL     1     147.108 -25.030  81.057  1.00  0.00    -0.053 Cl
BRANCH  18  20
HETATM   20  O   UNL     1     145.341 -26.862  80.806  1.00  0.00    -0.350 OA
ATOM     21  HO  UNL     1     144.656 -26.236  81.014  1.00  0.00     0.214 HD
ENDBRANCH  18  20
BRANCH  18  22
HETATM   22  O   UNL     1     147.243 -27.118  79.553  1.00  0.00    -0.350 OA
ATOM     23  HO  UNL     1     148.014 -26.586  79.391  1.00  0.00     0.214 HD
ENDBRANCH  18  22
ENDBRANCH  17  18
ENDBRANCH  15  17
ENDBRANCH  11  15
ENDBRANCH   1   9
BRANCH   8  24
HETATM   24  C   UNL     1     141.650 -28.008  72.002  1.00  0.00     0.076 C 
HETATM   25  C   UNL     1     141.750 -28.763  73.260  1.00  0.00     0.259 C 
HETATM   26  N   UNL     1     141.150 -30.000  73.252  1.00  0.00    -0.333 N 
HETATM   27  O   UNL     1     142.294 -28.309  74.263  1.00  0.00    -0.267 OA
HETATM   28  C   UNL     1     140.080 -30.266  72.447  1.00  0.00     0.091 C 
ATOM     29  HN  UNL     1     141.512 -30.735  73.860  1.00  0.00     0.168 HD
HETATM   30  C   UNL     1     139.811 -29.459  71.358  1.00  0.00     0.018 C 
HETATM   31  C   UNL     1     140.619 -28.335  71.128  1.00  0.00     0.022 C 
ENDBRANCH   8  24
BRANCH   7  32
HETATM   32  C   UNL     1     144.407 -24.574  69.540  1.00  0.00     0.163 C 
HETATM   33  C   UNL     1     143.825 -25.115  68.252  1.00  0.00     0.046 C 
BRANCH  32  34
HETATM   34  O   UNL     1     145.811 -24.786  69.584  1.00  0.00    -0.390 OA
ATOM     35  HO  UNL     1     146.226 -24.254  68.916  1.00  0.00     0.210 HD
ENDBRANCH  32  34
ENDBRANCH   7  32
TORSDOF 9
ENDMDL
MODEL 3
REMARK VINA RESULT:     -10.1      3.848      7.425
REMARK  9 active torsions:
REMARK  status: ('A' for Active; 'I' for Inactive)
REMARK    1  A    between atoms: C_2  and  O_21 
REMARK    2  A    between atoms: C_2  and  O_24 
REMARK    3  A    between atoms: C_2  and  C_35 
REMARK    4  A    between atoms: C_3  and  C_15 
REMARK    5  A    between atoms: O_9  and  C_29 
REMARK    6  A    between atoms: C_13  and  C_34 
REMARK    7  A    between atoms: C_23  and  C_27 
REMARK    8  A    between atoms: C_23  and  C_35 
REMARK    9  A    between atoms: C_28  and  C_29 
ROOT
HETATM    1  C   UNL     1     142.327 -26.740  73.859  1.00  0.00     0.045 C 
HETATM    2  N   UNL     1     143.341 -24.287  73.274  1.00  0.00    -0.343 N 
ATOM      3  HN  UNL     1     143.801 -23.411  73.024  1.00  0.00     0.167 HD
HETATM    4  N   UNL     1     142.093 -26.187  72.653  1.00  0.00    -0.341 N 
ATOM      5  HN  UNL     1     141.361 -26.532  72.032  1.00  0.00     0.167 HD
HETATM    6  C   UNL     1     142.732 -25.933  74.928  1.00  0.00     0.058 C 
HETATM    7  C   UNL     1     143.155 -24.649  74.584  1.00  0.00     0.041 C 
HETATM    8  C   UNL     1     142.883 -25.151  72.317  1.00  0.00     0.122 C 
ENDROOT
BRANCH   1   9
HETATM    9  C   UNL     1     142.031 -28.180  73.966  1.00  0.00    -0.008 A 
HETATM   10  C   UNL     1     141.764 -28.970  72.839  1.00  0.00     0.029 A 
HETATM   11  C   UNL     1     141.328 -30.286  73.044  1.00  0.00     0.015 A 
HETATM   12  C   UNL     1     141.250 -30.831  74.322  1.00  0.00     0.015 A 
HETATM   13  C   UNL     1     141.564 -30.048  75.420  1.00  0.00     0.002 A 
HETATM   14  C   UNL     1     141.957 -28.729  75.245  1.00  0.00     0.014 A 
BRANCH  11  15
HETATM   15  C   UNL     1     141.072 -31.176  71.855  1.00  0.00     0.184 C 
HETATM   16  O   UNL     1     140.657 -30.747  70.813  1.00  0.00    -0.288 OA
BRANCH  15  17
HETATM   17  C   UNL     1     141.346 -32.630  72.122  1.00  0.00     0.114 C 
BRANCH  17  18
HETATM   18  C   UNL     1     142.590 -33.348  71.590  1.00  0.00     0.267 C 
HETATM   19 CL   UNL     1     143.769 -33.484  72.942  1.00  0.00    -0.053 Cl
BRANCH  18  20
HETATM   20  O   UNL     1     142.311 -34.583  71.150  1.00  0.00    -0.350 OA
ATOM     21  HO  UNL     1     143.121 -35.078  71.117  1.00  0.00     0.214 HD
ENDBRANCH  18  20
BRANCH  18  22
HETATM   22  O   UNL     1     143.195 -32.537  70.615  1.00  0.00    -0.350 OA
ATOM     23  HO  UNL     1     142.748 -32.722  69.797  1.00  0.00     0.214 HD
ENDBRANCH  18  22
ENDBRANCH  17  18
ENDBRANCH  15  17
ENDBRANCH  11  15
ENDBRANCH   1   9
BRANCH   8  24
HETATM   24  C   UNL     1     143.066 -25.041  70.858  1.00  0.00     0.076 C 
HETATM   25  C   UNL     1     144.394 -25.213  70.249  1.00  0.00     0.259 C 
HETATM   26  N   UNL     1     144.469 -24.919  68.909  1.00  0.00    -0.333 N 
HETATM   27  O   UNL     1     145.362 -25.629  70.881  1.00  0.00    -0.267 OA
HETATM   28  C   UNL     1     143.384 -25.053  68.090  1.00  0.00     0.091 C 
ATOM     29  HN  UNL     1     145.353 -24.593  68.517  1.00  0.00     0.168 HD
HETATM   30  C   UNL     1     142.111 -25.108  68.625  1.00  0.00     0.018 C 
HETATM   31  C   UNL     1     141.958 -25.081  70.019  1.00  0.00     0.022 C 
ENDBRANCH   8  24
BRANCH   7  32
HETATM   32  C   UNL     1     143.495 -23.690  75.700  1.00  0.00     0.163 C 
HETATM   33  C   UNL     1     143.908 -24.388  76.977  1.00  0.00     0.046 C 
BRANCH  32  34
HETATM   34  O   UNL     1     142.383 -22.836  75.931  1.00  0.00    -0.390 OA
ATOM     35  HO  UNL     1     141.994 -22.602  75.097  1.00  0.00     0.210 HD
ENDBRANCH  32  34
ENDBRANCH   7  32
TORSDOF 9
ENDMDL
MODEL 4
REMARK VINA RESULT:     -10.0      3.620      6.821
REMARK  9 active torsions:
REMARK  status: ('A' for Active; 'I' for Inactive)
REMARK    1  A    between atoms: C_2  and  O_21 
REMARK    2  A    between atoms: C_2  and  O_24 
REMARK    3  A    between atoms: C_2  and  C_35 
REMARK    4  A    between atoms: C_3  and  C_15 
REMARK    5  A    between atoms: O_9  and  C_29 
REMARK    6  A    between atoms: C_13  and  C_34 
REMARK    7  A    between atoms: C_23  and  C_27 
REMARK    8  A    between atoms: C_23  and  C_35 
REMARK    9  A    between atoms: C_28  and  C_29 
ROOT
HETATM    1  C   UNL     1     142.341 -27.254  73.794  1.00  0.00     0.045 C 
HETATM    2  N   UNL     1     143.651 -24.882  73.569  1.00  0.00    -0.343 N 
ATOM      3  HN  UNL     1     144.210 -24.040  73.434  1.00  0.00     0.167 HD
HETATM    4  N   UNL     1     142.062 -26.428  72.767  1.00  0.00    -0.341 N 
ATOM      5  HN  UNL     1     141.221 -26.534  72.200  1.00  0.00     0.167 HD
HETATM    6  C   UNL     1     142.982 -26.755  74.933  1.00  0.00     0.058 C 
HETATM    7  C   UNL     1     143.558 -25.492  74.794  1.00  0.00     0.041 C 
HETATM    8  C   UNL     1     142.961 -25.454  72.534  1.00  0.00     0.122 C 
ENDROOT
BRANCH   1   9
HETATM    9  C   UNL     1     141.840 -28.632  73.655  1.00  0.00    -0.008 A 
HETATM   10  C   UNL     1     142.469 -29.719  74.279  1.00  0.00     0.029 A 
HETATM   11  C   UNL     1     142.028 -31.010  73.958  1.00  0.00     0.015 A 
HETATM   12  C   UNL     1     140.938 -31.214  73.119  1.00  0.00     0.015 A 
HETATM   13  C   UNL     1     140.300 -30.125  72.548  1.00  0.00     0.002 A 
HETATM   14  C   UNL     1     140.744 -28.839  72.818  1.00  0.00     0.014 A 
BRANCH  11  15
HETATM   15  C   UNL     1     142.655 -32.199  74.642  1.00  0.00     0.184 C 
HETATM   16  O   UNL     1     142.131 -32.750  75.572  1.00  0.00    -0.288 OA
BRANCH  15  17
HETATM   17  C   UNL     1     143.994 -32.581  74.075  1.00  0.00     0.114 C 
BRANCH  17  18
HETATM   18  C   UNL     1     144.197 -33.824  73.203  1.00  0.00     0.267 C 
HETATM   19 CL   UNL     1     143.201 -33.626  71.719  1.00  0.00    -0.053 Cl
BRANCH  18  20
HETATM   20  O   UNL     1     145.475 -33.978  72.834  1.00  0.00    -0.350 OA
ATOM     21  HO  UNL     1     145.898 -34.558  73.456  1.00  0.00     0.214 HD
ENDBRANCH  18  20
BRANCH  18  22
HETATM   22  O   UNL     1     143.679 -34.940  73.883  1.00  0.00    -0.350 OA
ATOM     23  HO  UNL     1     142.939 -34.626  74.389  1.00  0.00     0.214 HD
ENDBRANCH  18  22
ENDBRANCH  17  18
ENDBRANCH  15  17
ENDBRANCH  11  15
ENDBRANCH   1   9
BRANCH   8  24
HETATM   24  C   UNL     1     142.995 -25.055  71.114  1.00  0.00     0.076 C 
HETATM   25  C   UNL     1     144.264 -25.016  70.373  1.00  0.00     0.259 C 
HETATM   26  N   UNL     1     144.193 -24.467  69.115  1.00  0.00    -0.333 N 
HETATM   27  O   UNL     1     145.310 -25.475  70.825  1.00  0.00    -0.267 OA
HETATM   28  C   UNL     1     143.042 -24.518  68.381  1.00  0.00     0.091 C 
ATOM     29  HN  UNL     1     145.016 -24.011  68.720  1.00  0.00     0.168 HD
HETATM   30  C   UNL     1     141.832 -24.762  69.002  1.00  0.00     0.018 C 
HETATM   31  C   UNL     1     141.813 -25.012  70.382  1.00  0.00     0.022 C 
ENDBRANCH   8  24
BRANCH   7  32
HETATM   32  C   UNL     1     144.164 -24.848  76.018  1.00  0.00     0.163 C 
HETATM   33  C   UNL     1     144.646 -25.855  77.040  1.00  0.00     0.046 C 
BRANCH  32  34
HETATM   34  O   UNL     1     143.215 -23.963  76.594  1.00  0.00    -0.390 OA
ATOM     35  HO  UNL     1     143.292 -23.113  76.178  1.00  0.00     0.210 HD
ENDBRANCH  32  34
ENDBRANCH   7  32
TORSDOF 9
ENDMDL
MODEL 5
REMARK VINA RESULT:      -9.9      4.645      9.233
REMARK  9 active torsions:
REMARK  status: ('A' for Active; 'I' for Inactive)
REMARK    1  A    between atoms: C_2  and  O_21 
REMARK    2  A    between atoms: C_2  and  O_24 
REMARK    3  A    between atoms: C_2  and  C_35 
REMARK    4  A    between atoms: C_3  and  C_15 
REMARK    5  A    between atoms: O_9  and  C_29 
REMARK    6  A    between atoms: C_13  and  C_34 
REMARK    7  A    between atoms: C_23  and  C_27 
REMARK    8  A    between atoms: C_23  and  C_35 
REMARK    9  A    between atoms: C_28  and  C_29 
ROOT
HETATM    1  C   UNL     1     142.340 -26.673  72.125  1.00  0.00     0.045 C 
HETATM    2  N   UNL     1     142.075 -28.201  74.357  1.00  0.00    -0.343 N 
ATOM      3  HN  UNL     1     142.069 -28.795  75.186  1.00  0.00     0.167 HD
HETATM    4  N   UNL     1     142.520 -26.121  73.341  1.00  0.00    -0.341 N 
ATOM      5  HN  UNL     1     142.517 -25.111  73.483  1.00  0.00     0.167 HD
HETATM    6  C   UNL     1     141.649 -27.883  72.005  1.00  0.00     0.058 C 
HETATM    7  C   UNL     1     141.455 -28.585  73.196  1.00  0.00     0.041 C 
HETATM    8  C   UNL     1     142.702 -26.984  74.357  1.00  0.00     0.122 C 
ENDROOT
BRANCH   1   9
HETATM    9  C   UNL     1     142.822 -25.872  70.986  1.00  0.00    -0.008 A 
HETATM   10  C   UNL     1     141.948 -25.337  70.029  1.00  0.00     0.029 A 
HETATM   11  C   UNL     1     142.502 -24.733  68.892  1.00  0.00     0.015 A 
HETATM   12  C   UNL     1     143.877 -24.582  68.752  1.00  0.00     0.015 A 
HETATM   13  C   UNL     1     144.724 -25.077  69.731  1.00  0.00     0.002 A 
HETATM   14  C   UNL     1     144.200 -25.714  70.846  1.00  0.00     0.014 A 
BRANCH  11  15
HETATM   15  C   UNL     1     141.590 -24.111  67.865  1.00  0.00     0.184 C 
HETATM   16  O   UNL     1     140.450 -23.828  68.110  1.00  0.00    -0.288 OA
BRANCH  15  17
HETATM   17  C   UNL     1     142.238 -23.929  66.520  1.00  0.00     0.114 C 
BRANCH  17  18
HETATM   18  C   UNL     1     141.619 -23.066  65.416  1.00  0.00     0.267 C 
HETATM   19 CL   UNL     1     140.523 -24.113  64.447  1.00  0.00    -0.053 Cl
BRANCH  18  20
HETATM   20  O   UNL     1     140.899 -22.050  65.912  1.00  0.00    -0.350 OA
ATOM     21  HO  UNL     1     139.999 -22.154  65.625  1.00  0.00     0.214 HD
ENDBRANCH  18  20
BRANCH  18  22
HETATM   22  O   UNL     1     142.640 -22.647  64.546  1.00  0.00    -0.350 OA
ATOM     23  HO  UNL     1     142.347 -21.829  64.161  1.00  0.00     0.214 HD
ENDBRANCH  18  22
ENDBRANCH  17  18
ENDBRANCH  15  17
ENDBRANCH  11  15
ENDBRANCH   1   9
BRANCH   8  24
HETATM   24  C   UNL     1     143.526 -26.407  75.436  1.00  0.00     0.076 C 
HETATM   25  C   UNL     1     143.337 -25.013  75.866  1.00  0.00     0.259 C 
HETATM   26  N   UNL     1     144.274 -24.541  76.753  1.00  0.00    -0.333 N 
HETATM   27  O   UNL     1     142.388 -24.329  75.493  1.00  0.00    -0.267 OA
HETATM   28  C   UNL     1     144.924 -25.378  77.615  1.00  0.00     0.091 C 
ATOM     29  HN  UNL     1     144.489 -23.543  76.769  1.00  0.00     0.168 HD
HETATM   30  C   UNL     1     144.958 -26.738  77.371  1.00  0.00     0.018 C 
HETATM   31  C   UNL     1     144.268 -27.246  76.259  1.00  0.00     0.022 C 
ENDBRANCH   8  24
BRANCH   7  32
HETATM   32  C   UNL     1     140.617 -29.840  73.153  1.00  0.00     0.163 C 
HETATM   33  C   UNL     1     141.368 -31.070  73.615  1.00  0.00     0.046 C 
BRANCH  32  34
HETATM   34  O   UNL     1     140.120 -30.021  71.835  1.00  0.00    -0.390 OA
ATOM     35  HO  UNL     1     140.796 -29.779  71.214  1.00  0.00     0.210 HD
ENDBRANCH  32  34
ENDBRANCH   7  32
TORSDOF 9
ENDMDL
MODEL 6
REMARK VINA RESULT:      -9.8      1.219      1.557
REMARK  9 active torsions:
REMARK  status: ('A' for Active; 'I' for Inactive)
REMARK    1  A    between atoms: C_2  and  O_21 
REMARK    2  A    between atoms: C_2  and  O_24 
REMARK    3  A    between atoms: C_2  and  C_35 
REMARK    4  A    between atoms: C_3  and  C_15 
REMARK    5  A    between atoms: O_9  and  C_29 
REMARK    6  A    between atoms: C_13  and  C_34 
REMARK    7  A    between atoms: C_23  and  C_27 
REMARK    8  A    between atoms: C_23  and  C_35 
REMARK    9  A    between atoms: C_28  and  C_29 
ROOT
HETATM    1  C   UNL     1     143.135 -26.815  74.468  1.00  0.00     0.045 C 
HETATM    2  N   UNL     1     142.021 -27.767  72.178  1.00  0.00    -0.343 N 
ATOM      3  HN  UNL     1     141.554 -28.041  71.314  1.00  0.00     0.167 HD
HETATM    4  N   UNL     1     143.743 -26.598  73.285  1.00  0.00    -0.341 N 
ATOM      5  HN  UNL     1     144.717 -26.301  73.223  1.00  0.00     0.167 HD
HETATM    6  C   UNL     1     142.181 -27.832  74.583  1.00  0.00     0.058 C 
HETATM    7  C   UNL     1     141.709 -28.353  73.378  1.00  0.00     0.041 C 
HETATM    8  C   UNL     1     142.987 -26.797  72.190  1.00  0.00     0.122 C 
ENDROOT
BRANCH   1   9
HETATM    9  C   UNL     1     143.621 -25.995  75.592  1.00  0.00    -0.008 A 
HETATM   10  C   UNL     1     144.241 -26.563  76.714  1.00  0.00     0.029 A 
HETATM   11  C   UNL     1     144.519 -25.731  77.807  1.00  0.00     0.015 A 
HETATM   12  C   UNL     1     144.274 -24.364  77.754  1.00  0.00     0.015 A 
HETATM   13  C   UNL     1     143.703 -23.813  76.619  1.00  0.00     0.002 A 
HETATM   14  C   UNL     1     143.381 -24.623  75.540  1.00  0.00     0.014 A 
BRANCH  11  15
HETATM   15  C   UNL     1     145.224 -26.301  79.012  1.00  0.00     0.184 C 
HETATM   16  O   UNL     1     144.757 -27.198  79.660  1.00  0.00    -0.288 OA
BRANCH  15  17
HETATM   17  C   UNL     1     146.522 -25.613  79.330  1.00  0.00     0.114 C 
BRANCH  17  18
HETATM   18  C   UNL     1     147.112 -25.574  80.743  1.00  0.00     0.267 C 
HETATM   19 CL   UNL     1     148.487 -26.732  80.799  1.00  0.00    -0.053 Cl
BRANCH  18  20
HETATM   20  O   UNL     1     147.573 -24.358  81.064  1.00  0.00    -0.350 OA
ATOM     21  HO  UNL     1     148.291 -24.146  80.478  1.00  0.00     0.214 HD
ENDBRANCH  18  20
BRANCH  18  22
HETATM   22  O   UNL     1     146.150 -26.057  81.646  1.00  0.00    -0.350 OA
ATOM     23  HO  UNL     1     146.501 -25.910  82.517  1.00  0.00     0.214 HD
ENDBRANCH  18  22
ENDBRANCH  17  18
ENDBRANCH  15  17
ENDBRANCH  11  15
ENDBRANCH   1   9
BRANCH   8  24
HETATM   24  C   UNL     1     143.410 -25.948  71.060  1.00  0.00     0.076 C 
HETATM   25  C   UNL     1     142.424 -25.407  70.113  1.00  0.00     0.259 C 
HETATM   26  N   UNL     1     142.952 -24.778  69.011  1.00  0.00    -0.333 N 
HETATM   27  O   UNL     1     141.213 -25.474  70.308  1.00  0.00    -0.267 OA
HETATM   28  C   UNL     1     144.173 -24.169  69.056  1.00  0.00     0.091 C 
ATOM     29  HN  UNL     1     142.420 -24.766  68.140  1.00  0.00     0.168 HD
HETATM   30  C   UNL     1     145.072 -24.488  70.057  1.00  0.00     0.018 C 
HETATM   31  C   UNL     1     144.688 -25.400  71.051  1.00  0.00     0.022 C 
ENDBRANCH   8  24
BRANCH   7  32
HETATM   32  C   UNL     1     140.766 -29.531  73.433  1.00  0.00     0.163 C 
HETATM   33  C   UNL     1     141.399 -30.770  74.027  1.00  0.00     0.046 C 
BRANCH  32  34
HETATM   34  O   UNL     1     140.277 -29.794  72.125  1.00  0.00    -0.390 OA
ATOM     35  HO  UNL     1     140.448 -30.702  71.909  1.00  0.00     0.210 HD
ENDBRANCH  32  34
ENDBRANCH   7  32
TORSDOF 9
ENDMDL
MODEL 7
REMARK VINA RESULT:      -9.5      3.985      8.448
REMARK  9 active torsions:
REMARK  status: ('A' for Active; 'I' for Inactive)
REMARK    1  A    between atoms: C_2  and  O_21 
REMARK    2  A    between atoms: C_2  and  O_24 
REMARK    3  A    between atoms: C_2  and  C_35 
REMARK    4  A    between atoms: C_3  and  C_15 
REMARK    5  A    between atoms: O_9  and  C_29 
REMARK    6  A    between atoms: C_13  and  C_34 
REMARK    7  A    between atoms: C_23  and  C_27 
REMARK    8  A    between atoms: C_23  and  C_35 
REMARK    9  A    between atoms: C_28  and  C_29 
ROOT
HETATM    1  C   UNL     1     142.610 -26.653  71.762  1.00  0.00     0.045 C 
HETATM    2  N   UNL     1     144.449 -24.703  72.217  1.00  0.00    -0.343 N 
ATOM      3  HN  UNL     1     145.068 -23.920  72.428  1.00  0.00     0.167 HD
HETATM    4  N   UNL     1     143.332 -26.663  72.899  1.00  0.00    -0.341 N 
ATOM      5  HN  UNL     1     143.395 -27.491  73.492  1.00  0.00     0.167 HD
HETATM    6  C   UNL     1     143.055 -25.910  70.663  1.00  0.00     0.058 C 
HETATM    7  C   UNL     1     144.067 -24.987  70.930  1.00  0.00     0.041 C 
HETATM    8  C   UNL     1     143.963 -25.516  73.206  1.00  0.00     0.122 C 
ENDROOT
BRANCH   1   9
HETATM    9  C   UNL     1     141.429 -27.534  71.750  1.00  0.00    -0.008 A 
HETATM   10  C   UNL     1     141.540 -28.927  71.627  1.00  0.00     0.029 A 
HETATM   11  C   UNL     1     140.365 -29.670  71.456  1.00  0.00     0.015 A 
HETATM   12  C   UNL     1     139.114 -29.065  71.498  1.00  0.00     0.015 A 
HETATM   13  C   UNL     1     139.022 -27.693  71.667  1.00  0.00     0.002 A 
HETATM   14  C   UNL     1     140.173 -26.930  71.797  1.00  0.00     0.014 A 
BRANCH  11  15
HETATM   15  C   UNL     1     140.446 -31.173  71.363  1.00  0.00     0.184 C 
HETATM   16  O   UNL     1     139.676 -31.815  70.704  1.00  0.00    -0.288 OA
BRANCH  15  17
HETATM   17  C   UNL     1     141.545 -31.768  72.201  1.00  0.00     0.114 C 
BRANCH  17  18
HETATM   18  C   UNL     1     142.255 -33.073  71.826  1.00  0.00     0.267 C 
HETATM   19 CL   UNL     1     143.198 -33.618  73.256  1.00  0.00    -0.053 Cl
BRANCH  18  20
HETATM   20  O   UNL     1     141.389 -34.042  71.498  1.00  0.00    -0.350 OA
ATOM     21  HO  UNL     1     140.971 -33.804  70.679  1.00  0.00     0.214 HD
ENDBRANCH  18  20
BRANCH  18  22
HETATM   22  O   UNL     1     143.191 -32.801  70.813  1.00  0.00    -0.350 OA
ATOM     23  HO  UNL     1     143.459 -33.642  70.462  1.00  0.00     0.214 HD
ENDBRANCH  18  22
ENDBRANCH  17  18
ENDBRANCH  15  17
ENDBRANCH  11  15
ENDBRANCH   1   9
BRANCH   8  24
HETATM   24  C   UNL     1     144.135 -25.346  74.661  1.00  0.00     0.076 C 
HETATM   25  C   UNL     1     143.487 -24.234  75.373  1.00  0.00     0.259 C 
HETATM   26  N   UNL     1     143.859 -24.082  76.687  1.00  0.00    -0.333 N 
HETATM   27  O   UNL     1     142.643 -23.514  74.845  1.00  0.00    -0.267 OA
HETATM   28  C   UNL     1     144.274 -25.145  77.436  1.00  0.00     0.091 C 
ATOM     29  HN  UNL     1     143.824 -23.155  77.112  1.00  0.00     0.168 HD
HETATM   30  C   UNL     1     144.702 -26.306  76.820  1.00  0.00     0.018 C 
HETATM   31  C   UNL     1     144.648 -26.392  75.420  1.00  0.00     0.022 C 
ENDBRANCH   8  24
BRANCH   7  32
HETATM   32  C   UNL     1     144.671 -24.237  69.768  1.00  0.00     0.163 C 
HETATM   33  C   UNL     1     143.857 -24.357  68.498  1.00  0.00     0.046 C 
BRANCH  32  34
HETATM   34  O   UNL     1     145.999 -24.696  69.560  1.00  0.00    -0.390 OA
ATOM     35  HO  UNL     1     146.214 -24.611  68.639  1.00  0.00     0.210 HD
ENDBRANCH  32  34
ENDBRANCH   7  32
TORSDOF 9
ENDMDL
MODEL 8
REMARK VINA RESULT:      -9.4      4.166      5.249
REMARK  9 active torsions:
REMARK  status: ('A' for Active; 'I' for Inactive)
REMARK    1  A    between atoms: C_2  and  O_21 
REMARK    2  A    between atoms: C_2  and  O_24 
REMARK    3  A    between atoms: C_2  and  C_35 
REMARK    4  A    between atoms: C_3  and  C_15 
REMARK    5  A    between atoms: O_9  and  C_29 
REMARK    6  A    between atoms: C_13  and  C_34 
REMARK    7  A    between atoms: C_23  and  C_27 
REMARK    8  A    between atoms: C_23  and  C_35 
REMARK    9  A    between atoms: C_28  and  C_29 
ROOT
HETATM    1  C   UNL     1     142.694 -25.622  73.687  1.00  0.00     0.045 C 
HETATM    2  N   UNL     1     141.904 -27.352  71.744  1.00  0.00    -0.343 N 
ATOM      3  HN  UNL     1     141.531 -27.943  71.001  1.00  0.00     0.167 HD
HETATM    4  N   UNL     1     143.134 -25.460  72.424  1.00  0.00    -0.341 N 
ATOM      5  HN  UNL     1     143.933 -24.865  72.201  1.00  0.00     0.167 HD
HETATM    6  C   UNL     1     142.175 -26.858  74.089  1.00  0.00     0.058 C 
HETATM    7  C   UNL     1     141.873 -27.747  73.057  1.00  0.00     0.041 C 
HETATM    8  C   UNL     1     142.456 -26.129  71.474  1.00  0.00     0.122 C 
ENDROOT
BRANCH   1   9
HETATM    9  C   UNL     1     142.898 -24.471  74.584  1.00  0.00    -0.008 A 
HETATM   10  C   UNL     1     142.852 -23.149  74.121  1.00  0.00     0.029 A 
HETATM   11  C   UNL     1     143.223 -22.126  75.004  1.00  0.00     0.015 A 
HETATM   12  C   UNL     1     143.539 -22.397  76.331  1.00  0.00     0.015 A 
HETATM   13  C   UNL     1     143.534 -23.706  76.783  1.00  0.00     0.002 A 
HETATM   14  C   UNL     1     143.210 -24.740  75.916  1.00  0.00     0.014 A 
BRANCH  11  15
HETATM   15  C   UNL     1     143.144 -20.690  74.550  1.00  0.00     0.184 C 
HETATM   16  O   UNL     1     142.409 -20.338  73.669  1.00  0.00    -0.288 OA
BRANCH  15  17
HETATM   17  C   UNL     1     144.095 -19.779  75.275  1.00  0.00     0.114 C 
BRANCH  17  18
HETATM   18  C   UNL     1     144.744 -18.562  74.607  1.00  0.00     0.267 C 
HETATM   19 CL   UNL     1     144.438 -17.131  75.652  1.00  0.00    -0.053 Cl
BRANCH  18  20
HETATM   20  O   UNL     1     146.069 -18.708  74.472  1.00  0.00    -0.350 OA
ATOM     21  HO  UNL     1     146.232 -19.284  73.733  1.00  0.00     0.214 HD
ENDBRANCH  18  20
BRANCH  18  22
HETATM   22  O   UNL     1     144.087 -18.313  73.390  1.00  0.00    -0.350 OA
ATOM     23  HO  UNL     1     143.178 -18.557  73.521  1.00  0.00     0.214 HD
ENDBRANCH  18  22
ENDBRANCH  17  18
ENDBRANCH  15  17
ENDBRANCH  11  15
ENDBRANCH   1   9
BRANCH   8  24
HETATM   24  C   UNL     1     142.499 -25.440  70.170  1.00  0.00     0.076 C 
HETATM   25  C   UNL     1     143.743 -25.383  69.388  1.00  0.00     0.259 C 
HETATM   26  N   UNL     1     143.703 -24.572  68.279  1.00  0.00    -0.333 N 
HETATM   27  O   UNL     1     144.737 -26.043  69.678  1.00  0.00    -0.267 OA
HETATM   28  C   UNL     1     142.535 -24.335  67.613  1.00  0.00     0.091 C 
ATOM     29  HN  UNL     1     144.564 -24.136  67.947  1.00  0.00     0.168 HD
HETATM   30  C   UNL     1     141.321 -24.572  68.230  1.00  0.00     0.018 C 
HETATM   31  C   UNL     1     141.311 -25.109  69.527  1.00  0.00     0.022 C 
ENDBRANCH   8  24
BRANCH   7  32
HETATM   32  C   UNL     1     141.419 -29.139  73.428  1.00  0.00     0.163 C 
HETATM   33  C   UNL     1     140.516 -29.764  72.387  1.00  0.00     0.046 C 
BRANCH  32  34
HETATM   34  O   UNL     1     140.772 -29.093  74.692  1.00  0.00    -0.390 OA
ATOM     35  HO  UNL     1     141.103 -29.799  75.234  1.00  0.00     0.210 HD
ENDBRANCH  32  34
ENDBRANCH   7  32
TORSDOF 9
ENDMDL
MODEL 9
REMARK VINA RESULT:      -8.7      4.184      4.990
REMARK  9 active torsions:
REMARK  status: ('A' for Active; 'I' for Inactive)
REMARK    1  A    between atoms: C_2  and  O_21 
REMARK    2  A    between atoms: C_2  and  O_24 
REMARK    3  A    between atoms: C_2  and  C_35 
REMARK    4  A    between atoms: C_3  and  C_15 
REMARK    5  A    between atoms: O_9  and  C_29 
REMARK    6  A    between atoms: C_13  and  C_34 
REMARK    7  A    between atoms: C_23  and  C_27 
REMARK    8  A    between atoms: C_23  and  C_35 
REMARK    9  A    between atoms: C_28  and  C_29 
ROOT
HETATM    1  C   UNL     1     142.444 -26.568  73.313  1.00  0.00     0.045 C 
HETATM    2  N   UNL     1     141.435 -27.861  71.144  1.00  0.00    -0.343 N 
ATOM      3  HN  UNL     1     140.999 -28.270  70.318  1.00  0.00     0.167 HD
HETATM    4  N   UNL     1     143.020 -26.406  72.106  1.00  0.00    -0.341 N 
ATOM      5  HN  UNL     1     143.956 -26.012  72.002  1.00  0.00     0.167 HD
HETATM    6  C   UNL     1     141.608 -27.667  73.542  1.00  0.00     0.058 C 
HETATM    7  C   UNL     1     141.193 -28.355  72.401  1.00  0.00     0.041 C 
HETATM    8  C   UNL     1     142.288 -26.795  71.046  1.00  0.00     0.122 C 
ENDROOT
BRANCH   1   9
HETATM    9  C   UNL     1     142.839 -25.592  74.343  1.00  0.00    -0.008 A 
HETATM   10  C   UNL     1     142.589 -24.219  74.202  1.00  0.00     0.029 A 
HETATM   11  C   UNL     1     143.145 -23.346  75.147  1.00  0.00     0.015 A 
HETATM   12  C   UNL     1     143.849 -23.825  76.246  1.00  0.00     0.015 A 
HETATM   13  C   UNL     1     144.046 -25.188  76.393  1.00  0.00     0.002 A 
HETATM   14  C   UNL     1     143.540 -26.070  75.449  1.00  0.00     0.014 A 
BRANCH  11  15
HETATM   15  C   UNL     1     142.861 -21.869  75.048  1.00  0.00     0.184 C 
HETATM   16  O   UNL     1     141.833 -21.389  75.439  1.00  0.00    -0.288 OA
BRANCH  15  17
HETATM   17  C   UNL     1     143.962 -21.089  74.385  1.00  0.00     0.114 C 
BRANCH  17  18
HETATM   18  C   UNL     1     144.300 -19.645  74.771  1.00  0.00     0.267 C 
HETATM   19 CL   UNL     1     143.485 -18.555  73.596  1.00  0.00    -0.053 Cl
BRANCH  18  20
HETATM   20  O   UNL     1     143.867 -19.337  76.001  1.00  0.00    -0.350 OA
ATOM     21  HO  UNL     1     143.441 -18.488  75.963  1.00  0.00     0.214 HD
ENDBRANCH  18  20
BRANCH  18  22
HETATM   22  O   UNL     1     145.681 -19.446  74.604  1.00  0.00    -0.350 OA
ATOM     23  HO  UNL     1     145.955 -18.866  75.305  1.00  0.00     0.214 HD
ENDBRANCH  18  22
ENDBRANCH  17  18
ENDBRANCH  15  17
ENDBRANCH  11  15
ENDBRANCH   1   9
BRANCH   8  24
HETATM   24  C   UNL     1     142.612 -26.022  69.832  1.00  0.00     0.076 C 
HETATM   25  C   UNL     1     141.598 -25.179  69.182  1.00  0.00     0.259 C 
HETATM   26  N   UNL     1     141.966 -24.648  67.969  1.00  0.00    -0.333 N 
HETATM   27  O   UNL     1     140.513 -24.931  69.700  1.00  0.00    -0.267 OA
HETATM   28  C   UNL     1     143.274 -24.393  67.671  1.00  0.00     0.091 C 
ATOM     29  HN  UNL     1     141.247 -24.440  67.276  1.00  0.00     0.168 HD
HETATM   30  C   UNL     1     144.283 -25.003  68.393  1.00  0.00     0.018 C 
HETATM   31  C   UNL     1     143.941 -25.838  69.467  1.00  0.00     0.022 C 
ENDBRANCH   8  24
BRANCH   7  32
HETATM   32  C   UNL     1     140.385 -29.617  72.585  1.00  0.00     0.163 C 
HETATM   33  C   UNL     1     141.048 -30.615  73.509  1.00  0.00     0.046 C 
BRANCH  32  34
HETATM   34  O   UNL     1     140.137 -30.198  71.313  1.00  0.00    -0.390 OA
ATOM     35  HO  UNL     1     139.209 -30.384  71.234  1.00  0.00     0.210 HD
ENDBRANCH  32  34
ENDBRANCH   7  32
TORSDOF 9
ENDMDL
