REMARK  4 active torsions:
REMARK  status: ('A' for Active; 'I' for Inactive)
REMARK       I    between atoms: C_2  and  N_19 
REMARK       I    between atoms: C_2  and  N_25 
REMARK       I    between atoms: N_5  and  C_29 
REMARK    1  A    between atoms: C_8  and  N_19 
REMARK    2  A    between atoms: C_9  and  N_25 
REMARK    3  A    between atoms: O_15  and  C_21 
REMARK    4  A    between atoms: C_24  and  C_29 
ROOT
HETATM    1  C   UNL     1       9.029   7.463  24.420  1.00  0.00     0.017 C 
HETATM    2  O   UNL     1       8.983   5.953  26.221  1.00  0.00    -0.268 OA
HETATM    3  C   UNL     1       7.537   7.967  20.942  1.00  0.00     0.104 C 
HETATM    4  C   UNL     1       7.888   8.038  22.410  1.00  0.00     0.022 C 
HETATM    5  N   UNL     1      10.660   7.446  26.195  1.00  0.00    -0.319 N 
ATOM      6  HN  UNL     1      10.897   7.348  27.182  1.00  0.00     0.169 HD
HETATM    7  C   UNL     1       9.856   8.677  21.128  1.00  0.00     0.012 C 
HETATM    8  C   UNL     1       9.888   8.319  23.694  1.00  0.00    -0.040 C 
HETATM    9  C   UNL     1      11.597   8.007  25.333  1.00  0.00     0.103 C 
HETATM   10  C   UNL     1       7.750   7.198  23.670  1.00  0.00     0.052 C 
HETATM   11  C   UNL     1       9.186   8.810  22.475  1.00  0.00     0.026 C 
HETATM   12  C   UNL     1       9.416   7.016  25.760  1.00  0.00     0.252 C 
HETATM   13  C   UNL     1       8.804   8.175  20.144  1.00  0.00     0.027 C 
HETATM   14  C   UNL     1      11.229   8.432  24.057  1.00  0.00     0.043 C 
ENDROOT
BRANCH   3  15
HETATM   15  N   UNL     1       6.758   6.809  20.524  1.00  0.00    -0.222 N 
HETATM   16  C   UNL     1       6.125   6.867  19.308  1.00  0.00     0.672 C 
HETATM   17  N   UNL     1       5.444   7.966  18.967  1.00  0.00    -0.235 N 
HETATM   18  N   UNL     1       6.218   5.838  18.414  1.00  0.00    -0.192 N 
ATOM     19  HN2 UNL     1       4.973   8.009  18.063  1.00  0.00     0.174 HD
ATOM     20  HN1 UNL     1       5.375   8.734  19.634  1.00  0.00     0.174 HD
ATOM     21  HN  UNL     1       5.864   5.954  17.465  1.00  0.00     0.184 HD
ATOM     22  HN  UNL     1       6.685   5.982  21.116  1.00  0.00     0.178 HD
BRANCH  18  23
HETATM   23  C   UNL     1       6.799   4.624  18.800  1.00  0.00     0.051 C 
HETATM   24  C   UNL     1       8.014   4.235  18.238  1.00  0.00     0.066 C 
HETATM   25  C   UNL     1       8.460   2.928  18.397  1.00  0.00     0.067 C 
HETATM   26  C   UNL     1       7.674   1.995  19.093  1.00  0.00     0.036 C 
HETATM   27  C   UNL     1       6.603   2.452  19.847  1.00  0.00     0.005 C 
HETATM   28  C   UNL     1       6.184   3.775  19.729  1.00  0.00     0.030 C 
BRANCH  25  29
HETATM   29  O   UNL     1       9.671   2.534  17.920  1.00  0.00    -0.361 OA
ATOM     30  HO  UNL     1      10.203   3.165  17.449  1.00  0.00     0.217 HD
ENDBRANCH  25  29
ENDBRANCH  18  23
ENDBRANCH   3  15
BRANCH   9  31
HETATM   31  C   UNL     1      13.036   7.634  25.626  1.00  0.00     0.266 C 
HETATM   32  N   UNL     1      13.274   7.207  26.892  1.00  0.00    -0.365 N 
ATOM     33  HN2 UNL     1      12.505   6.911  27.494  1.00  0.00     0.159 HD
ATOM     34  HN1 UNL     1      14.243   6.956  27.089  1.00  0.00     0.159 HD
HETATM   35  O   UNL     1      13.953   7.987  24.908  1.00  0.00    -0.266 OA
ENDBRANCH   9  31
TORSDOF 4
