MODEL 1
REMARK VINA RESULT:      -7.9      0.000      0.000
REMARK  2 active torsions:
REMARK  status: ('A' for Active; 'I' for Inactive)
REMARK    1  A    between atoms: N_19  and  N_26 
REMARK    2  A    between atoms: O_21  and  C_25 
ROOT
HETATM    1  C   UNL     1      15.890   5.424  17.331  1.00  0.00     0.040 C 
HETATM    2  C   UNL     1      16.064   4.118  13.803  1.00  0.00     0.019 C 
HETATM    3  C   UNL     1      15.321   8.521  17.526  1.00  0.00     0.006 C 
HETATM    4  C   UNL     1      15.314   6.831  19.325  1.00  0.00     0.245 C 
HETATM    5  C   UNL     1      14.861   8.081  18.746  1.00  0.00     0.074 C 
HETATM    6  C   UNL     1      18.292   4.005  15.778  1.00  0.00     0.030 C 
HETATM    7  C   UNL     1      18.242   5.400  15.188  1.00  0.00     0.012 C 
HETATM    8  C   UNL     1      16.939   6.149  15.051  1.00  0.00     0.026 C 
HETATM    9  N   UNL     1      15.372   5.715  18.556  1.00  0.00    -0.323 N 
ATOM     10  HN  UNL     1      14.925   4.911  18.995  1.00  0.00     0.169 HD
HETATM   11  C   UNL     1      15.785   7.769  16.445  1.00  0.00     0.010 C 
HETATM   12  C   UNL     1      16.111   3.719  12.434  1.00  0.00     0.021 C 
HETATM   13  C   UNL     1      16.198   6.444  16.361  1.00  0.00    -0.027 C 
HETATM   14  O   UNL     1      15.597   6.753  20.533  1.00  0.00    -0.268 OA
HETATM   15  C   UNL     1      15.657   4.470  10.159  1.00  0.00     0.056 C 
HETATM   16  N   UNL     1      16.209   3.191  14.761  1.00  0.00    -0.384 N 
ATOM     17  HN  UNL     1      15.744   2.298  14.599  1.00  0.00     0.160 HD
HETATM   18  C   UNL     1      15.924   5.571  14.086  1.00  0.00     0.067 C 
HETATM   19  N   UNL     1      17.847   3.429   9.737  1.00  0.00    -0.285 N 
HETATM   20  C   UNL     1      18.072   3.082  11.035  1.00  0.00     0.116 C 
HETATM   21  C   UNL     1      16.957   3.315  16.008  1.00  0.00     0.106 C 
HETATM   22  C   UNL     1      16.608   3.852   9.425  1.00  0.00     0.118 C 
HETATM   23  C   UNL     1      15.241   4.251  11.473  1.00  0.00     0.079 C 
HETATM   24  C   UNL     1      16.127   3.940  17.121  1.00  0.00     0.028 C 
HETATM   25  C   UNL     1      17.179   2.904  12.061  1.00  0.00     0.035 C 
ENDROOT
BRANCH  23  26
HETATM   26  O   UNL     1      14.014   4.537  11.801  1.00  0.00    -0.360 OA
ATOM     27  HO  UNL     1      13.456   3.863  12.169  1.00  0.00     0.217 HD
ENDBRANCH  23  26
BRANCH  19  28
HETATM   28  N   UNL     1      18.467   2.690   8.752  1.00  0.00    -0.339 N 
ATOM     29  HN2 UNL     1      17.922   2.580   7.896  1.00  0.00     0.177 HD
ATOM     30  HN1 UNL     1      19.045   1.899   9.037  1.00  0.00     0.177 HD
ENDBRANCH  19  28
TORSDOF 2
ENDMDL
MODEL 2
REMARK VINA RESULT:      -7.6      1.349      1.541
REMARK  2 active torsions:
REMARK  status: ('A' for Active; 'I' for Inactive)
REMARK    1  A    between atoms: N_19  and  N_26 
REMARK    2  A    between atoms: O_21  and  C_25 
ROOT
HETATM    1  C   UNL     1      15.892   4.230  18.397  1.00  0.00     0.040 C 
HETATM    2  C   UNL     1      16.444   3.679  14.713  1.00  0.00     0.019 C 
HETATM    3  C   UNL     1      15.436   7.250  19.188  1.00  0.00     0.006 C 
HETATM    4  C   UNL     1      15.135   5.228  20.570  1.00  0.00     0.245 C 
HETATM    5  C   UNL     1      14.811   6.599  20.227  1.00  0.00     0.074 C 
HETATM    6  C   UNL     1      18.404   3.006  16.853  1.00  0.00     0.030 C 
HETATM    7  C   UNL     1      18.487   4.493  16.575  1.00  0.00     0.012 C 
HETATM    8  C   UNL     1      17.244   5.341  16.457  1.00  0.00     0.026 C 
HETATM    9  N   UNL     1      15.240   4.295  19.590  1.00  0.00    -0.323 N 
ATOM     10  HN  UNL     1      14.708   3.449  19.794  1.00  0.00     0.169 HD
HETATM   11  C   UNL     1      15.998   6.710  18.030  1.00  0.00     0.010 C 
HETATM   12  C   UNL     1      16.643   3.572  13.304  1.00  0.00     0.021 C 
HETATM   13  C   UNL     1      16.361   5.406  17.709  1.00  0.00    -0.027 C 
HETATM   14  O   UNL     1      15.264   4.880  21.757  1.00  0.00    -0.268 OA
HETATM   15  C   UNL     1      16.505   4.809  11.208  1.00  0.00     0.056 C 
HETATM   16  N   UNL     1      16.430   2.566  15.459  1.00  0.00    -0.384 N 
ATOM     17  HN  UNL     1      15.950   1.759  15.059  1.00  0.00     0.160 HD
HETATM   18  C   UNL     1      16.333   5.047  15.284  1.00  0.00     0.067 C 
HETATM   19  N   UNL     1      18.684   3.732  10.818  1.00  0.00    -0.285 N 
HETATM   20  C   UNL     1      18.732   3.108  12.029  1.00  0.00     0.116 C 
HETATM   21  C   UNL     1      17.022   2.375  16.779  1.00  0.00     0.106 C 
HETATM   22  C   UNL     1      17.513   4.294  10.469  1.00  0.00     0.118 C 
HETATM   23  C   UNL     1      15.922   4.350  12.389  1.00  0.00     0.079 C 
HETATM   24  C   UNL     1      16.090   2.810  17.901  1.00  0.00     0.028 C 
HETATM   25  C   UNL     1      17.712   2.781  12.886  1.00  0.00     0.035 C 
ENDROOT
BRANCH  23  26
HETATM   26  O   UNL     1      14.677   4.644  12.632  1.00  0.00    -0.360 OA
ATOM     27  HO  UNL     1      14.057   4.695  11.914  1.00  0.00     0.217 HD
ENDBRANCH  23  26
BRANCH  19  28
HETATM   28  N   UNL     1      19.388   3.174   9.773  1.00  0.00    -0.339 N 
ATOM     29  HN2 UNL     1      19.868   2.302  10.000  1.00  0.00     0.177 HD
ATOM     30  HN1 UNL     1      19.857   3.802   9.120  1.00  0.00     0.177 HD
ENDBRANCH  19  28
TORSDOF 2
ENDMDL
MODEL 3
REMARK VINA RESULT:      -7.1      2.407      7.261
REMARK  2 active torsions:
REMARK  status: ('A' for Active; 'I' for Inactive)
REMARK    1  A    between atoms: N_19  and  N_26 
REMARK    2  A    between atoms: O_21  and  C_25 
ROOT
HETATM    1  C   UNL     1      15.703   5.263  12.843  1.00  0.00     0.040 C 
HETATM    2  C   UNL     1      15.964   4.347  16.487  1.00  0.00     0.019 C 
HETATM    3  C   UNL     1      17.453   3.457  10.939  1.00  0.00     0.006 C 
HETATM    4  C   UNL     1      15.718   5.107  10.340  1.00  0.00     0.245 C 
HETATM    5  C   UNL     1      16.479   3.902  10.074  1.00  0.00     0.074 C 
HETATM    6  C   UNL     1      16.723   6.986  15.330  1.00  0.00     0.030 C 
HETATM    7  C   UNL     1      17.849   6.005  15.072  1.00  0.00     0.012 C 
HETATM    8  C   UNL     1      17.577   4.618  14.546  1.00  0.00     0.026 C 
HETATM    9  N   UNL     1      15.204   5.319  11.578  1.00  0.00    -0.323 N 
ATOM     10  HN  UNL     1      14.218   5.578  11.556  1.00  0.00     0.169 HD
HETATM   11  C   UNL     1      17.550   3.649  12.318  1.00  0.00     0.010 C 
HETATM   12  C   UNL     1      16.128   3.926  17.840  1.00  0.00     0.021 C 
HETATM   13  C   UNL     1      16.911   4.547  13.166  1.00  0.00    -0.027 C 
HETATM   14  O   UNL     1      15.480   5.925   9.435  1.00  0.00    -0.268 OA
HETATM   15  C   UNL     1      17.050   2.157  19.242  1.00  0.00     0.056 C 
HETATM   16  N   UNL     1      15.117   5.349  16.211  1.00  0.00    -0.384 N 
ATOM     17  HN  UNL     1      14.238   5.354  16.729  1.00  0.00     0.160 HD
HETATM   18  C   UNL     1      16.809   3.685  15.460  1.00  0.00     0.067 C 
HETATM   19  N   UNL     1      17.857   4.077  20.553  1.00  0.00    -0.285 N 
HETATM   20  C   UNL     1      17.366   5.023  19.703  1.00  0.00     0.116 C 
HETATM   21  C   UNL     1      15.308   6.434  15.254  1.00  0.00     0.106 C 
HETATM   22  C   UNL     1      17.451   2.810  20.355  1.00  0.00     0.118 C 
HETATM   23  C   UNL     1      16.231   2.574  18.192  1.00  0.00     0.079 C 
HETATM   24  C   UNL     1      14.877   6.047  13.846  1.00  0.00     0.028 C 
HETATM   25  C   UNL     1      16.356   4.930  18.780  1.00  0.00     0.035 C 
ENDROOT
BRANCH  23  26
HETATM   26  O   UNL     1      15.543   1.683  17.539  1.00  0.00    -0.360 OA
ATOM     27  HO  UNL     1      15.994   1.007  17.047  1.00  0.00     0.217 HD
ENDBRANCH  23  26
BRANCH  19  28
HETATM   28  N   UNL     1      18.035   4.424  21.875  1.00  0.00    -0.339 N 
ATOM     29  HN2 UNL     1      17.186   4.724  22.355  1.00  0.00     0.177 HD
ATOM     30  HN1 UNL     1      18.903   4.892  22.136  1.00  0.00     0.177 HD
ENDBRANCH  19  28
TORSDOF 2
ENDMDL
MODEL 4
REMARK VINA RESULT:      -7.1      3.516      8.303
REMARK  2 active torsions:
REMARK  status: ('A' for Active; 'I' for Inactive)
REMARK    1  A    between atoms: N_19  and  N_26 
REMARK    2  A    between atoms: O_21  and  C_25 
ROOT
HETATM    1  C   UNL     1      18.717   1.896  14.524  1.00  0.00     0.040 C 
HETATM    2  C   UNL     1      16.899   2.814  17.691  1.00  0.00     0.019 C 
HETATM    3  C   UNL     1      21.547   0.587  15.002  1.00  0.00     0.006 C 
HETATM    4  C   UNL     1      20.258   0.758  12.905  1.00  0.00     0.245 C 
HETATM    5  C   UNL     1      21.227   0.097  13.757  1.00  0.00     0.074 C 
HETATM    6  C   UNL     1      17.713   4.740  15.569  1.00  0.00     0.030 C 
HETATM    7  C   UNL     1      18.921   4.435  16.431  1.00  0.00     0.012 C 
HETATM    8  C   UNL     1      19.273   3.019  16.816  1.00  0.00     0.026 C 
HETATM    9  N   UNL     1      19.076   1.175  13.426  1.00  0.00    -0.323 N 
ATOM     10  HN  UNL     1      18.275   0.881  12.869  1.00  0.00     0.169 HD
HETATM   11  C   UNL     1      20.762   1.348  15.870  1.00  0.00     0.010 C 
HETATM   12  C   UNL     1      16.291   3.126  18.944  1.00  0.00     0.021 C 
HETATM   13  C   UNL     1      19.594   2.072  15.653  1.00  0.00    -0.027 C 
HETATM   14  O   UNL     1      20.469   0.899  11.688  1.00  0.00    -0.268 OA
HETATM   15  C   UNL     1      16.487   2.793  21.351  1.00  0.00     0.056 C 
HETATM   16  N   UNL     1      16.225   3.054  16.558  1.00  0.00    -0.384 N 
ATOM     17  HN  UNL     1      15.228   2.839  16.571  1.00  0.00     0.160 HD
HETATM   18  C   UNL     1      18.293   2.299  17.719  1.00  0.00     0.067 C 
HETATM   19  N   UNL     1      15.986   5.203  21.386  1.00  0.00    -0.285 N 
HETATM   20  C   UNL     1      15.944   5.340  20.030  1.00  0.00     0.116 C 
HETATM   21  C   UNL     1      16.754   3.590  15.308  1.00  0.00     0.106 C 
HETATM   22  C   UNL     1      16.015   3.948  21.871  1.00  0.00     0.118 C 
HETATM   23  C   UNL     1      16.403   2.281  20.056  1.00  0.00     0.079 C 
HETATM   24  C   UNL     1      17.331   2.503  14.411  1.00  0.00     0.028 C 
HETATM   25  C   UNL     1      15.725   4.394  19.061  1.00  0.00     0.035 C 
ENDROOT
BRANCH  23  26
HETATM   26  O   UNL     1      16.417   0.990  19.888  1.00  0.00    -0.360 OA
ATOM     27  HO  UNL     1      15.713   0.570  19.409  1.00  0.00     0.217 HD
ENDBRANCH  23  26
BRANCH  19  28
HETATM   28  N   UNL     1      15.270   6.099  22.151  1.00  0.00    -0.339 N 
ATOM     29  HN2 UNL     1      15.263   5.895  23.150  1.00  0.00     0.177 HD
ATOM     30  HN1 UNL     1      14.418   6.494  21.754  1.00  0.00     0.177 HD
ENDBRANCH  19  28
TORSDOF 2
ENDMDL
MODEL 5
REMARK VINA RESULT:      -7.0      2.425      7.605
REMARK  2 active torsions:
REMARK  status: ('A' for Active; 'I' for Inactive)
REMARK    1  A    between atoms: N_19  and  N_26 
REMARK    2  A    between atoms: O_21  and  C_25 
ROOT
HETATM    1  C   UNL     1      16.869   3.812  12.390  1.00  0.00     0.040 C 
HETATM    2  C   UNL     1      16.415   3.712  16.128  1.00  0.00     0.019 C 
HETATM    3  C   UNL     1      19.101   1.858  11.316  1.00  0.00     0.006 C 
HETATM    4  C   UNL     1      17.423   3.140  10.039  1.00  0.00     0.245 C 
HETATM    5  C   UNL     1      18.304   2.000  10.204  1.00  0.00     0.074 C 
HETATM    6  C   UNL     1      17.219   6.120  14.568  1.00  0.00     0.030 C 
HETATM    7  C   UNL     1      18.439   5.241  14.760  1.00  0.00     0.012 C 
HETATM    8  C   UNL     1      18.380   3.753  14.521  1.00  0.00     0.026 C 
HETATM    9  N   UNL     1      16.645   3.545  11.074  1.00  0.00    -0.323 N 
ATOM     10  HN  UNL     1      15.671   3.681  10.805  1.00  0.00     0.169 HD
HETATM   11  C   UNL     1      18.891   2.344  12.609  1.00  0.00     0.010 C 
HETATM   12  C   UNL     1      16.318   3.604  17.547  1.00  0.00     0.021 C 
HETATM   13  C   UNL     1      18.027   3.321  13.092  1.00  0.00    -0.027 C 
HETATM   14  O   UNL     1      17.327   3.719   8.943  1.00  0.00    -0.268 OA
HETATM   15  C   UNL     1      17.042   2.282  19.463  1.00  0.00     0.056 C 
HETATM   16  N   UNL     1      15.579   4.532  15.474  1.00  0.00    -0.384 N 
ATOM     17  HN  UNL     1      14.613   4.545  15.800  1.00  0.00     0.160 HD
HETATM   18  C   UNL     1      17.501   2.951  15.458  1.00  0.00     0.067 C 
HETATM   19  N   UNL     1      17.420   4.513  20.433  1.00  0.00    -0.285 N 
HETATM   20  C   UNL     1      17.056   5.198  19.313  1.00  0.00     0.116 C 
HETATM   21  C   UNL     1      15.894   5.407  14.350  1.00  0.00     0.106 C 
HETATM   22  C   UNL     1      17.152   3.194  20.454  1.00  0.00     0.118 C 
HETATM   23  C   UNL     1      16.437   2.375  18.210  1.00  0.00     0.079 C 
HETATM   24  C   UNL     1      15.797   4.689  13.012  1.00  0.00     0.028 C 
HETATM   25  C   UNL     1      16.272   4.801  18.260  1.00  0.00     0.035 C 
ENDROOT
BRANCH  23  26
HETATM   26  O   UNL     1      15.964   1.295  17.657  1.00  0.00    -0.360 OA
ATOM     27  HO  UNL     1      15.043   1.084  17.749  1.00  0.00     0.217 HD
ENDBRANCH  23  26
BRANCH  19  28
HETATM   28  N   UNL     1      17.290   5.145  21.651  1.00  0.00    -0.339 N 
ATOM     29  HN2 UNL     1      16.347   5.469  21.864  1.00  0.00     0.177 HD
ATOM     30  HN1 UNL     1      18.063   5.728  21.974  1.00  0.00     0.177 HD
ENDBRANCH  19  28
TORSDOF 2
ENDMDL
MODEL 6
REMARK VINA RESULT:      -7.0      2.125      7.307
REMARK  2 active torsions:
REMARK  status: ('A' for Active; 'I' for Inactive)
REMARK    1  A    between atoms: N_19  and  N_26 
REMARK    2  A    between atoms: O_21  and  C_25 
ROOT
HETATM    1  C   UNL     1      17.489   3.909  12.485  1.00  0.00     0.040 C 
HETATM    2  C   UNL     1      17.380   4.469  16.207  1.00  0.00     0.019 C 
HETATM    3  C   UNL     1      14.759   4.500  11.018  1.00  0.00     0.006 C 
HETATM    4  C   UNL     1      16.982   4.076  10.034  1.00  0.00     0.245 C 
HETATM    5  C   UNL     1      15.662   4.674   9.994  1.00  0.00     0.074 C 
HETATM    6  C   UNL     1      17.978   1.865  14.888  1.00  0.00     0.030 C 
HETATM    7  C   UNL     1      16.477   2.076  14.880  1.00  0.00     0.012 C 
HETATM    8  C   UNL     1      15.871   3.396  14.470  1.00  0.00     0.026 C 
HETATM    9  N   UNL     1      17.725   4.158  11.167  1.00  0.00    -0.323 N 
ATOM     10  HN  UNL     1      18.676   4.479  10.992  1.00  0.00     0.169 HD
HETATM   11  C   UNL     1      15.008   4.261  12.371  1.00  0.00     0.010 C 
HETATM   12  C   UNL     1      17.241   4.708  17.607  1.00  0.00     0.021 C 
HETATM   13  C   UNL     1      16.158   3.843  13.032  1.00  0.00    -0.027 C 
HETATM   14  O   UNL     1      17.469   3.537   9.026  1.00  0.00    -0.268 OA
HETATM   15  C   UNL     1      15.758   5.661  19.291  1.00  0.00     0.056 C 
HETATM   16  N   UNL     1      18.574   4.097  15.722  1.00  0.00    -0.384 N 
ATOM     17  HN  UNL     1      19.388   4.564  16.120  1.00  0.00     0.160 HD
HETATM   18  C   UNL     1      16.157   4.580  15.371  1.00  0.00     0.067 C 
HETATM   19  N   UNL     1      16.335   3.589  20.488  1.00  0.00    -0.285 N 
HETATM   20  C   UNL     1      17.110   3.080  19.488  1.00  0.00     0.116 C 
HETATM   21  C   UNL     1      18.840   3.101  14.689  1.00  0.00     0.106 C 
HETATM   22  C   UNL     1      15.959   4.876  20.372  1.00  0.00     0.118 C 
HETATM   23  C   UNL     1      16.487   5.778  18.108  1.00  0.00     0.079 C 
HETATM   24  C   UNL     1      18.758   3.686  13.286  1.00  0.00     0.028 C 
HETATM   25  C   UNL     1      17.745   3.726  18.458  1.00  0.00     0.035 C 
ENDROOT
BRANCH  23  26
HETATM   26  O   UNL     1      16.472   6.912  17.468  1.00  0.00    -0.360 OA
ATOM     27  HO  UNL     1      16.423   6.917  16.520  1.00  0.00     0.217 HD
ENDBRANCH  23  26
BRANCH  19  28
HETATM   28  N   UNL     1      16.591   3.178  21.778  1.00  0.00    -0.339 N 
ATOM     29  HN2 UNL     1      17.515   3.429  22.130  1.00  0.00     0.177 HD
ATOM     30  HN1 UNL     1      16.209   2.282  22.081  1.00  0.00     0.177 HD
ENDBRANCH  19  28
TORSDOF 2
ENDMDL
MODEL 7
REMARK VINA RESULT:      -6.9      2.399      4.071
REMARK  2 active torsions:
REMARK  status: ('A' for Active; 'I' for Inactive)
REMARK    1  A    between atoms: N_19  and  N_26 
REMARK    2  A    between atoms: O_21  and  C_25 
ROOT
HETATM    1  C   UNL     1      15.278   6.315  13.799  1.00  0.00     0.040 C 
HETATM    2  C   UNL     1      17.019   4.723  10.864  1.00  0.00     0.019 C 
HETATM    3  C   UNL     1      16.060   5.065  16.588  1.00  0.00     0.006 C 
HETATM    4  C   UNL     1      14.771   7.117  16.121  1.00  0.00     0.245 C 
HETATM    5  C   UNL     1      15.649   6.325  16.959  1.00  0.00     0.074 C 
HETATM    6  C   UNL     1      14.069   4.780  11.275  1.00  0.00     0.030 C 
HETATM    7  C   UNL     1      14.653   3.677  12.134  1.00  0.00     0.012 C 
HETATM    8  C   UNL     1      15.880   3.908  12.982  1.00  0.00     0.026 C 
HETATM    9  N   UNL     1      15.015   7.212  14.789  1.00  0.00    -0.323 N 
ATOM     10  HN  UNL     1      15.000   8.175  14.454  1.00  0.00     0.169 HD
HETATM   11  C   UNL     1      16.216   4.540  15.303  1.00  0.00     0.010 C 
HETATM   12  C   UNL     1      17.726   4.057   9.819  1.00  0.00     0.021 C 
HETATM   13  C   UNL     1      15.746   4.980  14.070  1.00  0.00    -0.027 C 
HETATM   14  O   UNL     1      13.826   7.758  16.612  1.00  0.00    -0.268 OA
HETATM   15  C   UNL     1      19.528   2.477   9.372  1.00  0.00     0.056 C 
HETATM   16  N   UNL     1      16.210   5.747  10.559  1.00  0.00    -0.384 N 
ATOM     17  HN  UNL     1      16.548   6.393   9.845  1.00  0.00     0.160 HD
HETATM   18  C   UNL     1      17.172   4.185  12.241  1.00  0.00     0.067 C 
HETATM   19  N   UNL     1      17.879   1.560   7.791  1.00  0.00    -0.285 N 
HETATM   20  C   UNL     1      16.890   2.437   8.121  1.00  0.00     0.116 C 
HETATM   21  C   UNL     1      14.901   6.044  11.130  1.00  0.00     0.106 C 
HETATM   22  C   UNL     1      19.111   1.824   8.265  1.00  0.00     0.118 C 
HETATM   23  C   UNL     1      19.059   3.650   9.963  1.00  0.00     0.079 C 
HETATM   24  C   UNL     1      15.000   6.861  12.411  1.00  0.00     0.028 C 
HETATM   25  C   UNL     1      16.976   3.674   8.708  1.00  0.00     0.035 C 
ENDROOT
BRANCH  23  26
HETATM   26  O   UNL     1      19.887   4.383  10.651  1.00  0.00    -0.360 OA
ATOM     27  HO  UNL     1      19.928   4.287  11.595  1.00  0.00     0.217 HD
ENDBRANCH  23  26
BRANCH  19  28
HETATM   28  N   UNL     1      17.856   1.002   6.531  1.00  0.00    -0.339 N 
ATOM     29  HN2 UNL     1      18.721   1.110   6.001  1.00  0.00     0.177 HD
ATOM     30  HN1 UNL     1      16.983   1.042   6.004  1.00  0.00     0.177 HD
ENDBRANCH  19  28
TORSDOF 2
ENDMDL
MODEL 8
REMARK VINA RESULT:      -6.7      3.984      5.276
REMARK  2 active torsions:
REMARK  status: ('A' for Active; 'I' for Inactive)
REMARK    1  A    between atoms: N_19  and  N_26 
REMARK    2  A    between atoms: O_21  and  C_25 
ROOT
HETATM    1  C   UNL     1      16.793   5.054  15.379  1.00  0.00     0.040 C 
HETATM    2  C   UNL     1      19.359   2.386  14.690  1.00  0.00     0.019 C 
HETATM    3  C   UNL     1      15.998   5.315  18.421  1.00  0.00     0.006 C 
HETATM    4  C   UNL     1      15.443   6.818  16.544  1.00  0.00     0.245 C 
HETATM    5  C   UNL     1      15.694   6.572  17.951  1.00  0.00     0.074 C 
HETATM    6  C   UNL     1      16.603   2.438  13.560  1.00  0.00     0.030 C 
HETATM    7  C   UNL     1      16.532   1.909  14.978  1.00  0.00     0.012 C 
HETATM    8  C   UNL     1      17.263   2.590  16.108  1.00  0.00     0.026 C 
HETATM    9  N   UNL     1      16.275   6.292  15.610  1.00  0.00    -0.323 N 
ATOM     10  HN  UNL     1      16.582   6.981  14.924  1.00  0.00     0.169 HD
HETATM   11  C   UNL     1      16.621   4.259  17.752  1.00  0.00     0.010 C 
HETATM   12  C   UNL     1      20.332   1.354  14.530  1.00  0.00     0.021 C 
HETATM   13  C   UNL     1      16.844   4.037  16.398  1.00  0.00    -0.027 C 
HETATM   14  O   UNL     1      14.508   7.552  16.181  1.00  0.00    -0.268 OA
HETATM   15  C   UNL     1      21.830  -0.130  15.752  1.00  0.00     0.056 C 
HETATM   16  N   UNL     1      18.970   3.091  13.619  1.00  0.00    -0.384 N 
ATOM     17  HN  UNL     1      19.702   3.346  12.956  1.00  0.00     0.160 HD
HETATM   18  C   UNL     1      18.777   2.569  16.045  1.00  0.00     0.067 C 
HETATM   19  N   UNL     1      20.940  -1.787  14.164  1.00  0.00    -0.285 N 
HETATM   20  C   UNL     1      20.080  -0.924  13.554  1.00  0.00     0.116 C 
HETATM   21  C   UNL     1      17.619   3.537  13.293  1.00  0.00     0.106 C 
HETATM   22  C   UNL     1      21.850  -1.252  14.999  1.00  0.00     0.118 C 
HETATM   23  C   UNL     1      21.361   1.150  15.458  1.00  0.00     0.079 C 
HETATM   24  C   UNL     1      17.272   4.865  13.952  1.00  0.00     0.028 C 
HETATM   25  C   UNL     1      20.109   0.446  13.496  1.00  0.00     0.035 C 
ENDROOT
BRANCH  23  26
HETATM   26  O   UNL     1      21.904   2.172  16.055  1.00  0.00    -0.360 OA
ATOM     27  HO  UNL     1      21.660   3.052  15.796  1.00  0.00     0.217 HD
ENDBRANCH  23  26
BRANCH  19  28
HETATM   28  N   UNL     1      21.390  -2.873  13.443  1.00  0.00    -0.339 N 
ATOM     29  HN2 UNL     1      21.082  -3.778  13.800  1.00  0.00     0.177 HD
ATOM     30  HN1 UNL     1      22.327  -2.828  13.044  1.00  0.00     0.177 HD
ENDBRANCH  19  28
TORSDOF 2
ENDMDL
MODEL 9
REMARK VINA RESULT:      -6.2      4.594      6.271
REMARK  2 active torsions:
REMARK  status: ('A' for Active; 'I' for Inactive)
REMARK    1  A    between atoms: N_19  and  N_26 
REMARK    2  A    between atoms: O_21  and  C_25 
ROOT
HETATM    1  C   UNL     1      15.383   4.386  19.916  1.00  0.00     0.040 C 
HETATM    2  C   UNL     1      18.582   3.016  18.478  1.00  0.00     0.019 C 
HETATM    3  C   UNL     1      13.747   2.299  21.625  1.00  0.00     0.006 C 
HETATM    4  C   UNL     1      13.398   4.732  21.408  1.00  0.00     0.245 C 
HETATM    5  C   UNL     1      13.303   3.490  22.150  1.00  0.00     0.074 C 
HETATM    6  C   UNL     1      16.307   4.079  16.875  1.00  0.00     0.030 C 
HETATM    7  C   UNL     1      15.973   2.665  17.306  1.00  0.00     0.012 C 
HETATM    8  C   UNL     1      16.190   2.205  18.726  1.00  0.00     0.026 C 
HETATM    9  N   UNL     1      14.551   5.047  20.767  1.00  0.00    -0.323 N 
ATOM     10  HN  UNL     1      14.868   5.995  20.969  1.00  0.00     0.169 HD
HETATM   11  C   UNL     1      14.755   2.082  20.683  1.00  0.00     0.010 C 
HETATM   12  C   UNL     1      19.772   2.407  17.977  1.00  0.00     0.021 C 
HETATM   13  C   UNL     1      15.386   2.950  19.799  1.00  0.00    -0.027 C 
HETATM   14  O   UNL     1      12.455   5.543  21.397  1.00  0.00    -0.268 OA
HETATM   15  C   UNL     1      21.178   0.423  18.152  1.00  0.00     0.056 C 
HETATM   16  N   UNL     1      18.350   4.310  18.218  1.00  0.00    -0.384 N 
ATOM     17  HN  UNL     1      19.157   4.933  18.268  1.00  0.00     0.160 HD
HETATM   18  C   UNL     1      17.625   2.144  19.207  1.00  0.00     0.067 C 
HETATM   19  N   UNL     1      21.163   0.607  15.698  1.00  0.00    -0.285 N 
HETATM   20  C   UNL     1      20.328   1.684  15.659  1.00  0.00     0.116 C 
HETATM   21  C   UNL     1      17.076   4.931  17.872  1.00  0.00     0.106 C 
HETATM   22  C   UNL     1      21.660   0.264  16.900  1.00  0.00     0.118 C 
HETATM   23  C   UNL     1      20.525   1.506  18.741  1.00  0.00     0.079 C 
HETATM   24  C   UNL     1      16.266   5.315  19.103  1.00  0.00     0.028 C 
HETATM   25  C   UNL     1      20.056   2.615  16.629  1.00  0.00     0.035 C 
ENDROOT
BRANCH  23  26
HETATM   26  O   UNL     1      20.634   1.683  20.027  1.00  0.00    -0.360 OA
ATOM     27  HO  UNL     1      20.081   2.321  20.462  1.00  0.00     0.217 HD
ENDBRANCH  23  26
BRANCH  19  28
HETATM   28  N   UNL     1      22.030   0.421  14.642  1.00  0.00    -0.339 N 
ATOM     29  HN2 UNL     1      21.638  -0.097  13.856  1.00  0.00     0.177 HD
ATOM     30  HN1 UNL     1      23.016   0.265  14.853  1.00  0.00     0.177 HD
ENDBRANCH  19  28
TORSDOF 2
ENDMDL
