REMARK  0 active torsions:
REMARK  status: ('A' for Active; 'I' for Inactive)
ROOT
HETATM    1  C   UNL     1      18.676 -33.882   7.060  1.00  0.00    -0.046 C 
HETATM    2  O   UNL     1      16.261 -33.424  10.281  1.00  0.00    -0.267 OA
HETATM    3  N   UNL     1      18.201 -32.936   9.242  1.00  0.00    -0.332 N 
ATOM      4  HN  UNL     1      18.349 -32.079   9.774  1.00  0.00     0.168 HD
HETATM    5  C   UNL     1      19.693 -36.404  14.477  1.00  0.00     0.290 C 
HETATM    6  N   UNL     1      18.863 -36.381  11.074  1.00  0.00    -0.319 N 
ATOM      7  HN  UNL     1      19.675 -36.753  10.582  1.00  0.00     0.169 HD
HETATM    8  C   UNL     1      18.918 -33.112   8.143  1.00  0.00     0.098 C 
HETATM    9  C   UNL     1      17.018 -35.227  13.768  1.00  0.00     0.100 C 
HETATM   10  C   UNL     1      17.286 -33.817   9.706  1.00  0.00     0.257 C 
HETATM   11  C   UNL     1      17.585 -35.736   8.247  1.00  0.00     0.020 C 
HETATM   12  C   UNL     1      18.734 -36.114  12.355  1.00  0.00     0.238 C 
HETATM   13  C   UNL     1      17.664 -36.044  10.572  1.00  0.00     0.067 C 
HETATM   14  O   UNL     1      19.805 -36.006  13.176  1.00  0.00    -0.242 OA
HETATM   15  C   UNL     1      19.114 -33.355   5.720  1.00  0.00     0.049 C 
HETATM   16  N   UNL     1      17.482 -35.814  12.667  1.00  0.00    -0.296 N 
HETATM   17  C   UNL     1      18.908 -35.544  15.304  1.00  0.00     0.084 C 
HETATM   18  C   UNL     1      17.595 -35.263  15.004  1.00  0.00     0.024 C 
HETATM   19  O   UNL     1      20.144 -37.481  14.841  1.00  0.00    -0.260 OA
HETATM   20  C   UNL     1      17.512 -35.192   9.521  1.00  0.00     0.060 C 
HETATM   21  C   UNL     1      16.750 -36.082  11.575  1.00  0.00     0.130 C 
HETATM   22  C   UNL     1      17.947 -35.023   7.111  1.00  0.00     0.009 C 
ENDROOT
TORSDOF 0
