REMARK  1 active torsions:
REMARK  status: ('A' for Active; 'I' for Inactive)
REMARK    1  A    between atoms: C_7  and  O_11 
ROOT
HETATM    1  C   UNL     1      30.032  66.464   5.971  1.00  0.00     0.055 C 
HETATM    2  C   UNL     1      31.694  67.411   7.442  1.00  0.00    -0.044 C 
HETATM    3  C   UNL     1      32.005  67.216   9.854  1.00  0.00     0.041 C 
HETATM    4  N   UNL     1      26.965  66.554   7.646  1.00  0.00    -0.192 NA
HETATM    5  C   UNL     1      30.367  67.392   8.109  1.00  0.00    -0.036 C 
HETATM    6  C   UNL     1      28.035  66.927   7.399  1.00  0.00     0.095 C 
HETATM    7  C   UNL     1      32.735  67.438   8.536  1.00  0.00     0.148 C 
HETATM    8  C   UNL     1      30.526  67.461   9.573  1.00  0.00     0.043 C 
HETATM    9  C   UNL     1      29.402  67.180   7.153  1.00  0.00     0.029 C 
HETATM   10  C   UNL     1      31.537  66.591   6.195  1.00  0.00     0.042 C 
ENDROOT
BRANCH   7  11
HETATM   11  O   UNL     1      33.725  66.445   8.363  1.00  0.00    -0.391 OA
ATOM     12  HO  UNL     1      34.380  66.462   9.051  1.00  0.00     0.210 HD
ENDBRANCH   7  11
TORSDOF 1
