MODEL 1
REMARK VINA RESULT:      -6.6      0.000      0.000
REMARK  4 active torsions:
REMARK  status: ('A' for Active; 'I' for Inactive)
REMARK    1  A    between atoms: C_1  and  N_7 
REMARK    2  A    between atoms: C_2  and  C_18 
REMARK    3  A    between atoms: C_6  and  O_10 
REMARK    4  A    between atoms: O_16  and  C_18 
ROOT
HETATM    1  C   UNL     1      30.845  66.587   9.065  1.00  0.00     0.108 C 
HETATM    2  C   UNL     1      31.551  67.237   8.010  1.00  0.00     0.008 C 
HETATM    3  C   UNL     1      28.833  66.938   8.164  1.00  0.00     0.109 C 
HETATM    4  N   UNL     1      29.560  66.866   9.277  1.00  0.00    -0.330 N 
ATOM      5  HN  UNL     1      29.168  67.012  10.208  1.00  0.00     0.168 HD
HETATM    6  C   UNL     1      29.559  67.009   6.861  1.00  0.00     0.208 C 
HETATM    7  C   UNL     1      30.843  67.397   6.841  1.00  0.00     0.025 C 
HETATM    8  N   UNL     1      27.514  66.930   8.153  1.00  0.00    -0.386 N 
ATOM      9  HN1 UNL     1      26.956  66.985   7.301  1.00  0.00     0.157 HD
ATOM     10  HN2 UNL     1      27.018  66.881   9.044  1.00  0.00     0.157 HD
ENDROOT
BRANCH   1  11
HETATM   11  N   UNL     1      31.432  65.589   9.734  1.00  0.00    -0.385 N 
ATOM     12  HN2 UNL     1      31.972  64.886   9.230  1.00  0.00     0.157 HD
ATOM     13  HN1 UNL     1      31.438  65.603  10.754  1.00  0.00     0.157 HD
ENDBRANCH   1  11
BRANCH   2  14
HETATM   14  C   UNL     1      33.023  67.532   7.972  1.00  0.00     0.206 C 
BRANCH  14  15
HETATM   15  O   UNL     1      33.811  66.455   7.525  1.00  0.00    -0.396 OA
ATOM     16  HO  UNL     1      33.934  65.771   8.173  1.00  0.00     0.209 HD
ENDBRANCH  14  15
ENDBRANCH   2  14
BRANCH   6  17
HETATM   17  O   UNL     1      29.317  65.798   6.207  1.00  0.00    -0.384 OA
ATOM     18  HO  UNL     1      28.389  65.783   6.003  1.00  0.00     0.211 HD
ENDBRANCH   6  17
TORSDOF 4
ENDMDL
MODEL 2
REMARK VINA RESULT:      -5.8      2.090      2.376
REMARK  4 active torsions:
REMARK  status: ('A' for Active; 'I' for Inactive)
REMARK    1  A    between atoms: C_1  and  N_7 
REMARK    2  A    between atoms: C_2  and  C_18 
REMARK    3  A    between atoms: C_6  and  O_10 
REMARK    4  A    between atoms: O_16  and  C_18 
ROOT
HETATM    1  C   UNL     1      31.794  67.152   9.259  1.00  0.00     0.108 C 
HETATM    2  C   UNL     1      31.130  66.950   8.012  1.00  0.00     0.008 C 
HETATM    3  C   UNL     1      29.993  66.674  10.488  1.00  0.00     0.109 C 
HETATM    4  N   UNL     1      31.086  67.423  10.353  1.00  0.00    -0.330 N 
ATOM      5  HN  UNL     1      31.356  68.140  11.027  1.00  0.00     0.168 HD
HETATM    6  C   UNL     1      29.541  65.882   9.306  1.00  0.00     0.208 C 
HETATM    7  C   UNL     1      29.961  66.229   8.079  1.00  0.00     0.025 C 
HETATM    8  N   UNL     1      29.307  66.582  11.611  1.00  0.00    -0.386 N 
ATOM      9  HN1 UNL     1      28.470  66.009  11.715  1.00  0.00     0.157 HD
ATOM     10  HN2 UNL     1      29.616  67.123  12.419  1.00  0.00     0.157 HD
ENDROOT
BRANCH   1  11
HETATM   11  N   UNL     1      33.107  66.914   9.352  1.00  0.00    -0.385 N 
ATOM     12  HN2 UNL     1      33.618  67.195  10.189  1.00  0.00     0.157 HD
ATOM     13  HN1 UNL     1      33.567  66.346   8.640  1.00  0.00     0.157 HD
ENDBRANCH   1  11
BRANCH   2  14
HETATM   14  C   UNL     1      31.693  67.228   6.647  1.00  0.00     0.206 C 
BRANCH  14  15
HETATM   15  O   UNL     1      32.964  66.665   6.427  1.00  0.00    -0.396 OA
ATOM     16  HO  UNL     1      33.574  66.794   7.144  1.00  0.00     0.209 HD
ENDBRANCH  14  15
ENDBRANCH   2  14
BRANCH   6  17
HETATM   17  O   UNL     1      29.754  64.538   9.624  1.00  0.00    -0.384 OA
ATOM     18  HO  UNL     1      29.232  64.031   9.013  1.00  0.00     0.211 HD
ENDBRANCH   6  17
TORSDOF 4
ENDMDL
MODEL 3
REMARK VINA RESULT:      -5.7      2.158      4.134
REMARK  4 active torsions:
REMARK  status: ('A' for Active; 'I' for Inactive)
REMARK    1  A    between atoms: C_1  and  N_7 
REMARK    2  A    between atoms: C_2  and  C_18 
REMARK    3  A    between atoms: C_6  and  O_10 
REMARK    4  A    between atoms: O_16  and  C_18 
ROOT
HETATM    1  C   UNL     1      30.626  66.637   7.247  1.00  0.00     0.108 C 
HETATM    2  C   UNL     1      29.899  66.892   8.447  1.00  0.00     0.008 C 
HETATM    3  C   UNL     1      32.578  67.327   8.083  1.00  0.00     0.109 C 
HETATM    4  N   UNL     1      31.777  67.266   7.020  1.00  0.00    -0.330 N 
ATOM      5  HN  UNL     1      32.024  67.666   6.115  1.00  0.00     0.168 HD
HETATM    6  C   UNL     1      31.996  66.984   9.414  1.00  0.00     0.208 C 
HETATM    7  C   UNL     1      30.665  67.022   9.583  1.00  0.00     0.025 C 
HETATM    8  N   UNL     1      33.854  67.654   8.016  1.00  0.00    -0.386 N 
ATOM      9  HN1 UNL     1      34.468  67.701   8.830  1.00  0.00     0.157 HD
ATOM     10  HN2 UNL     1      34.252  67.888   7.106  1.00  0.00     0.157 HD
ENDROOT
BRANCH   1  11
HETATM   11  N   UNL     1      30.229  65.654   6.432  1.00  0.00    -0.385 N 
ATOM     12  HN2 UNL     1      29.983  64.741   6.816  1.00  0.00     0.157 HD
ATOM     13  HN1 UNL     1      30.059  65.855   5.447  1.00  0.00     0.157 HD
ENDBRANCH   1  11
BRANCH   2  14
HETATM   14  C   UNL     1      28.411  66.791   8.626  1.00  0.00     0.206 C 
BRANCH  14  15
HETATM   15  O   UNL     1      27.672  67.106   7.470  1.00  0.00    -0.396 OA
ATOM     16  HO  UNL     1      26.736  66.973   7.561  1.00  0.00     0.209 HD
ENDBRANCH  14  15
ENDBRANCH   2  14
BRANCH   6  17
HETATM   17  O   UNL     1      32.587  65.779   9.807  1.00  0.00    -0.384 OA
ATOM     18  HO  UNL     1      32.737  65.846  10.742  1.00  0.00     0.211 HD
ENDBRANCH   6  17
TORSDOF 4
ENDMDL
MODEL 4
REMARK VINA RESULT:      -5.7      1.718      3.758
REMARK  4 active torsions:
REMARK  status: ('A' for Active; 'I' for Inactive)
REMARK    1  A    between atoms: C_1  and  N_7 
REMARK    2  A    between atoms: C_2  and  C_18 
REMARK    3  A    between atoms: C_6  and  O_10 
REMARK    4  A    between atoms: O_16  and  C_18 
ROOT
HETATM    1  C   UNL     1      29.923  67.231   8.792  1.00  0.00     0.108 C 
HETATM    2  C   UNL     1      29.429  66.851   7.509  1.00  0.00     0.008 C 
HETATM    3  C   UNL     1      32.065  66.914   8.248  1.00  0.00     0.109 C 
HETATM    4  N   UNL     1      31.127  66.823   9.189  1.00  0.00    -0.330 N 
ATOM      5  HN  UNL     1      31.314  66.471  10.128  1.00  0.00     0.168 HD
HETATM    6  C   UNL     1      31.621  67.150   6.843  1.00  0.00     0.208 C 
HETATM    7  C   UNL     1      30.356  66.868   6.493  1.00  0.00     0.025 C 
HETATM    8  N   UNL     1      33.358  66.826   8.497  1.00  0.00    -0.386 N 
ATOM      9  HN1 UNL     1      34.077  66.896   7.777  1.00  0.00     0.157 HD
ATOM     10  HN2 UNL     1      33.661  66.665   9.458  1.00  0.00     0.157 HD
ENDROOT
BRANCH   1  11
HETATM   11  N   UNL     1      29.245  68.122   9.523  1.00  0.00    -0.385 N 
ATOM     12  HN2 UNL     1      28.421  68.581   9.133  1.00  0.00     0.157 HD
ATOM     13  HN1 UNL     1      29.481  68.249  10.507  1.00  0.00     0.157 HD
ENDBRANCH   1  11
BRANCH   2  14
HETATM   14  C   UNL     1      27.987  66.679   7.125  1.00  0.00     0.206 C 
BRANCH  14  15
HETATM   15  O   UNL     1      27.178  66.165   8.156  1.00  0.00    -0.396 OA
ATOM     16  HO  UNL     1      27.079  66.750   8.898  1.00  0.00     0.209 HD
ENDBRANCH  14  15
ENDBRANCH   2  14
BRANCH   6  17
HETATM   17  O   UNL     1      32.032  68.443   6.509  1.00  0.00    -0.384 OA
ATOM     18  HO  UNL     1      31.281  69.008   6.647  1.00  0.00     0.211 HD
ENDBRANCH   6  17
TORSDOF 4
ENDMDL
MODEL 5
REMARK VINA RESULT:      -5.2      2.281      2.877
REMARK  4 active torsions:
REMARK  status: ('A' for Active; 'I' for Inactive)
REMARK    1  A    between atoms: C_1  and  N_7 
REMARK    2  A    between atoms: C_2  and  C_18 
REMARK    3  A    between atoms: C_6  and  O_10 
REMARK    4  A    between atoms: O_16  and  C_18 
ROOT
HETATM    1  C   UNL     1      29.675  67.397   7.836  1.00  0.00     0.108 C 
HETATM    2  C   UNL     1      31.038  67.189   8.202  1.00  0.00     0.008 C 
HETATM    3  C   UNL     1      28.858  66.294   9.597  1.00  0.00     0.109 C 
HETATM    4  N   UNL     1      28.730  66.584   8.303  1.00  0.00    -0.330 N 
ATOM      5  HN  UNL     1      27.975  66.217   7.723  1.00  0.00     0.168 HD
HETATM    6  C   UNL     1      30.150  66.636  10.262  1.00  0.00     0.208 C 
HETATM    7  C   UNL     1      31.246  66.832   9.514  1.00  0.00     0.025 C 
HETATM    8  N   UNL     1      27.901  65.743  10.319  1.00  0.00    -0.386 N 
ATOM      9  HN1 UNL     1      27.998  65.520  11.309  1.00  0.00     0.157 HD
ATOM     10  HN2 UNL     1      27.018  65.510   9.864  1.00  0.00     0.157 HD
ENDROOT
BRANCH   1  11
HETATM   11  N   UNL     1      29.336  68.496   7.155  1.00  0.00    -0.385 N 
ATOM     12  HN2 UNL     1      29.573  69.418   7.523  1.00  0.00     0.157 HD
ATOM     13  HN1 UNL     1      28.950  68.407   6.215  1.00  0.00     0.157 HD
ENDBRANCH   1  11
BRANCH   2  14
HETATM   14  C   UNL     1      32.246  67.550   7.385  1.00  0.00     0.206 C 
BRANCH  14  15
HETATM   15  O   UNL     1      31.942  68.175   6.161  1.00  0.00    -0.396 OA
ATOM     16  HO  UNL     1      31.333  68.900   6.238  1.00  0.00     0.209 HD
ENDBRANCH  14  15
ENDBRANCH   2  14
BRANCH   6  17
HETATM   17  O   UNL     1      29.873  67.676  11.155  1.00  0.00    -0.384 OA
ATOM     18  HO  UNL     1      29.337  67.303  11.844  1.00  0.00     0.211 HD
ENDBRANCH   6  17
TORSDOF 4
ENDMDL
MODEL 6
REMARK VINA RESULT:      -5.1      2.500      3.298
REMARK  4 active torsions:
REMARK  status: ('A' for Active; 'I' for Inactive)
REMARK    1  A    between atoms: C_1  and  N_7 
REMARK    2  A    between atoms: C_2  and  C_18 
REMARK    3  A    between atoms: C_6  and  O_10 
REMARK    4  A    between atoms: O_16  and  C_18 
ROOT
HETATM    1  C   UNL     1      31.025  66.820   9.370  1.00  0.00     0.108 C 
HETATM    2  C   UNL     1      29.790  66.132   9.182  1.00  0.00     0.008 C 
HETATM    3  C   UNL     1      31.253  67.349   7.213  1.00  0.00     0.109 C 
HETATM    4  N   UNL     1      31.856  66.986   8.343  1.00  0.00    -0.330 N 
ATOM      5  HN  UNL     1      32.865  66.848   8.415  1.00  0.00     0.168 HD
HETATM    6  C   UNL     1      29.766  67.226   7.147  1.00  0.00     0.208 C 
HETATM    7  C   UNL     1      29.132  66.415   8.008  1.00  0.00     0.025 C 
HETATM    8  N   UNL     1      31.895  67.827   6.164  1.00  0.00    -0.386 N 
ATOM      9  HN1 UNL     1      31.433  68.105   5.298  1.00  0.00     0.157 HD
ATOM     10  HN2 UNL     1      32.911  67.911   6.209  1.00  0.00     0.157 HD
ENDROOT
BRANCH   1  11
HETATM   11  N   UNL     1      31.270  67.429  10.535  1.00  0.00    -0.385 N 
ATOM     12  HN2 UNL     1      32.232  67.568  10.845  1.00  0.00     0.157 HD
ATOM     13  HN1 UNL     1      30.501  67.857  11.050  1.00  0.00     0.157 HD
ENDBRANCH   1  11
BRANCH   2  14
HETATM   14  C   UNL     1      29.042  65.343  10.219  1.00  0.00     0.206 C 
BRANCH  14  15
HETATM   15  O   UNL     1      29.756  65.151  11.417  1.00  0.00    -0.396 OA
ATOM     16  HO  UNL     1      30.187  64.306  11.479  1.00  0.00     0.209 HD
ENDBRANCH  14  15
ENDBRANCH   2  14
BRANCH   6  17
HETATM   17  O   UNL     1      29.262  68.530   7.112  1.00  0.00    -0.384 OA
ATOM     18  HO  UNL     1      30.009  69.104   6.994  1.00  0.00     0.211 HD
ENDBRANCH   6  17
TORSDOF 4
ENDMDL
MODEL 7
REMARK VINA RESULT:      -5.1      3.757      4.853
REMARK  4 active torsions:
REMARK  status: ('A' for Active; 'I' for Inactive)
REMARK    1  A    between atoms: C_1  and  N_7 
REMARK    2  A    between atoms: C_2  and  C_18 
REMARK    3  A    between atoms: C_6  and  O_10 
REMARK    4  A    between atoms: O_16  and  C_18 
ROOT
HETATM    1  C   UNL     1      29.462  65.190  10.746  1.00  0.00     0.108 C 
HETATM    2  C   UNL     1      28.237  65.649  10.177  1.00  0.00     0.008 C 
HETATM    3  C   UNL     1      28.470  63.804  12.187  1.00  0.00     0.109 C 
HETATM    4  N   UNL     1      29.470  64.655  11.965  1.00  0.00    -0.330 N 
ATOM      5  HN  UNL     1      30.177  64.877  12.666  1.00  0.00     0.168 HD
HETATM    6  C   UNL     1      27.339  63.789  11.213  1.00  0.00     0.208 C 
HETATM    7  C   UNL     1      27.144  64.847  10.411  1.00  0.00     0.025 C 
HETATM    8  N   UNL     1      28.438  62.966  13.206  1.00  0.00    -0.386 N 
ATOM      9  HN1 UNL     1      27.672  62.314  13.377  1.00  0.00     0.157 HD
ATOM     10  HN2 UNL     1      29.211  62.976  13.872  1.00  0.00     0.157 HD
ENDROOT
BRANCH   1  11
HETATM   11  N   UNL     1      30.567  65.157   9.994  1.00  0.00    -0.385 N 
ATOM     12  HN2 UNL     1      30.626  65.726   9.149  1.00  0.00     0.157 HD
ATOM     13  HN1 UNL     1      31.390  64.657  10.330  1.00  0.00     0.157 HD
ENDBRANCH   1  11
BRANCH   2  14
HETATM   14  C   UNL     1      28.080  66.755   9.173  1.00  0.00     0.206 C 
BRANCH  14  15
HETATM   15  O   UNL     1      29.121  67.701   9.196  1.00  0.00    -0.396 OA
ATOM     16  HO  UNL     1      29.943  67.363   9.532  1.00  0.00     0.209 HD
ENDBRANCH  14  15
ENDBRANCH   2  14
BRANCH   6  17
HETATM   17  O   UNL     1      27.412  62.566  10.539  1.00  0.00    -0.384 OA
ATOM     18  HO  UNL     1      28.025  62.028  11.025  1.00  0.00     0.211 HD
ENDBRANCH   6  17
TORSDOF 4
ENDMDL
MODEL 8
REMARK VINA RESULT:      -5.0      2.361      4.474
REMARK  4 active torsions:
REMARK  status: ('A' for Active; 'I' for Inactive)
REMARK    1  A    between atoms: C_1  and  N_7 
REMARK    2  A    between atoms: C_2  and  C_18 
REMARK    3  A    between atoms: C_6  and  O_10 
REMARK    4  A    between atoms: O_16  and  C_18 
ROOT
HETATM    1  C   UNL     1      28.704  67.045   7.890  1.00  0.00     0.108 C 
HETATM    2  C   UNL     1      27.767  66.481   8.805  1.00  0.00     0.008 C 
HETATM    3  C   UNL     1      30.418  66.938   9.316  1.00  0.00     0.109 C 
HETATM    4  N   UNL     1      29.814  67.621   8.346  1.00  0.00    -0.330 N 
ATOM      5  HN  UNL     1      30.171  68.506   7.984  1.00  0.00     0.168 HD
HETATM    6  C   UNL     1      29.656  65.831   9.965  1.00  0.00     0.208 C 
HETATM    7  C   UNL     1      28.318  65.803   9.868  1.00  0.00     0.025 C 
HETATM    8  N   UNL     1      31.652  67.176   9.717  1.00  0.00    -0.386 N 
ATOM      9  HN1 UNL     1      32.115  66.653  10.460  1.00  0.00     0.157 HD
ATOM     10  HN2 UNL     1      32.173  67.933   9.273  1.00  0.00     0.157 HD
ENDROOT
BRANCH   1  11
HETATM   11  N   UNL     1      28.540  66.854   6.576  1.00  0.00    -0.385 N 
ATOM     12  HN2 UNL     1      29.193  66.264   6.061  1.00  0.00     0.157 HD
ATOM     13  HN1 UNL     1      27.696  67.201   6.119  1.00  0.00     0.157 HD
ENDBRANCH   1  11
BRANCH   2  14
HETATM   14  C   UNL     1      26.285  66.348   8.594  1.00  0.00     0.206 C 
BRANCH  14  15
HETATM   15  O   UNL     1      25.921  65.293   7.737  1.00  0.00    -0.396 OA
ATOM     16  HO  UNL     1      26.659  64.801   7.395  1.00  0.00     0.209 HD
ENDBRANCH  14  15
ENDBRANCH   2  14
BRANCH   6  17
HETATM   17  O   UNL     1      30.281  64.641   9.581  1.00  0.00    -0.384 OA
ATOM     18  HO  UNL     1      29.619  63.961   9.630  1.00  0.00     0.211 HD
ENDBRANCH   6  17
TORSDOF 4
ENDMDL
MODEL 9
REMARK VINA RESULT:      -4.9      1.706      2.057
REMARK  4 active torsions:
REMARK  status: ('A' for Active; 'I' for Inactive)
REMARK    1  A    between atoms: C_1  and  N_7 
REMARK    2  A    between atoms: C_2  and  C_18 
REMARK    3  A    between atoms: C_6  and  O_10 
REMARK    4  A    between atoms: O_16  and  C_18 
ROOT
HETATM    1  C   UNL     1      29.684  66.269   8.975  1.00  0.00     0.108 C 
HETATM    2  C   UNL     1      29.681  66.723   7.623  1.00  0.00     0.008 C 
HETATM    3  C   UNL     1      27.580  66.904   9.370  1.00  0.00     0.109 C 
HETATM    4  N   UNL     1      28.816  66.777   9.849  1.00  0.00    -0.330 N 
ATOM      5  HN  UNL     1      29.074  67.044  10.799  1.00  0.00     0.168 HD
HETATM    6  C   UNL     1      27.387  66.770   7.895  1.00  0.00     0.208 C 
HETATM    7  C   UNL     1      28.437  66.931   7.075  1.00  0.00     0.025 C 
HETATM    8  N   UNL     1      26.523  67.121  10.128  1.00  0.00    -0.386 N 
ATOM      9  HN1 UNL     1      25.576  67.219   9.762  1.00  0.00     0.157 HD
ATOM     10  HN2 UNL     1      26.654  67.213  11.136  1.00  0.00     0.157 HD
ENDROOT
BRANCH   1  11
HETATM   11  N   UNL     1      30.449  65.228   9.320  1.00  0.00    -0.385 N 
ATOM     12  HN2 UNL     1      30.016  64.347   9.596  1.00  0.00     0.157 HD
ATOM     13  HN1 UNL     1      31.459  65.282   9.190  1.00  0.00     0.157 HD
ENDBRANCH   1  11
BRANCH   2  14
HETATM   14  C   UNL     1      30.860  66.759   6.693  1.00  0.00     0.206 C 
BRANCH  14  15
HETATM   15  O   UNL     1      32.105  66.812   7.348  1.00  0.00    -0.396 OA
ATOM     16  HO  UNL     1      32.788  66.306   6.922  1.00  0.00     0.209 HD
ENDBRANCH  14  15
ENDBRANCH   2  14
BRANCH   6  17
HETATM   17  O   UNL     1      26.681  65.580   7.694  1.00  0.00    -0.384 OA
ATOM     18  HO  UNL     1      27.291  64.873   7.869  1.00  0.00     0.211 HD
ENDBRANCH   6  17
TORSDOF 4
ENDMDL
