REMARK  2 active torsions:
REMARK  status: ('A' for Active; 'I' for Inactive)
REMARK    1  A    between atoms: O_6  and  C_11 
REMARK    2  A    between atoms: O_9  and  C_11 
ROOT
HETATM    1  C   UNL     1      31.764  67.271   8.679  1.00  0.00     0.080 C 
HETATM    2  C   UNL     1      29.970  67.786   7.187  1.00  0.00     0.015 C 
HETATM    3  C   UNL     1      30.917  66.562   9.524  1.00  0.00     0.037 C 
HETATM    4  C   UNL     1      33.514  67.685   7.516  1.00  0.00     0.249 C 
HETATM    5  C   UNL     1      31.318  67.634   7.428  1.00  0.00     0.039 C 
HETATM    6  C   UNL     1      29.566  66.530   9.191  1.00  0.00     0.003 C 
HETATM    7  C   UNL     1      32.404  67.395   6.477  1.00  0.00     0.214 C 
HETATM    8  O   UNL     1      33.084  66.833   8.599  1.00  0.00    -0.345 OA
HETATM    9  C   UNL     1      29.086  67.275   8.125  1.00  0.00     0.001 C 
ENDROOT
BRANCH   7  10
HETATM   10  O   UNL     1      32.301  68.112   5.292  1.00  0.00    -0.360 OA
ATOM     11  HO  UNL     1      31.620  67.934   4.654  1.00  0.00     0.213 HD
ENDBRANCH   7  10
BRANCH   7  12
HETATM   12  O   UNL     1      32.619  66.031   6.114  1.00  0.00    -0.360 OA
ATOM     13  HO  UNL     1      31.938  65.853   5.476  1.00  0.00     0.213 HD
ENDBRANCH   7  12
TORSDOF 2
