REMARK  5 active torsions:
REMARK  status: ('A' for Active; 'I' for Inactive)
REMARK    1  A    between atoms: C_4  and  C_12 
REMARK    2  A    between atoms: C_8  and  C_25 
REMARK    3  A    between atoms: C_9  and  C_34 
REMARK    4  A    between atoms: C_12  and  C_13 
REMARK    5  A    between atoms: C_15  and  O_22 
ROOT
HETATM    1  C   UNL     1     -35.131 -19.696 -10.189  1.00  0.00     0.256 C 
HETATM    2  C   UNL     1     -36.362 -19.598 -12.757  1.00  0.00     0.004 C 
HETATM    3  O   UNL     1     -34.826 -19.734  -9.006  1.00  0.00    -0.267 OA
HETATM    4  C   UNL     1     -34.321 -17.351 -10.447  1.00  0.00     0.073 C 
HETATM    5  C   UNL     1     -35.010 -18.430 -10.996  1.00  0.00     0.050 C 
HETATM    6  C   UNL     1     -35.667 -18.386 -12.297  1.00  0.00     0.025 C 
HETATM    7  N   UNL     1     -35.615 -20.820 -10.812  1.00  0.00    -0.332 N 
ATOM      8  HN  UNL     1     -35.488 -21.727 -10.363  1.00  0.00     0.168 HD
HETATM    9  C   UNL     1     -36.260 -20.762 -12.012  1.00  0.00     0.104 C 
ENDROOT
BRANCH   6  10
HETATM   10  C   UNL     1     -35.616 -17.158 -13.170  1.00  0.00     0.081 C 
HETATM   11  C   UNL     1     -34.388 -16.773 -13.960  1.00  0.00     0.034 C 
HETATM   12  C   UNL     1     -33.939 -15.333 -14.268  1.00  0.00    -0.017 C 
HETATM   13  C   UNL     1     -34.834 -14.095 -14.105  1.00  0.00     0.039 C 
HETATM   14  C   UNL     1     -35.106 -13.737 -12.635  1.00  0.00     0.013 C 
HETATM   15  C   UNL     1     -36.248 -14.387 -14.684  1.00  0.00     0.155 C 
HETATM   16  C   UNL     1     -36.480 -14.282 -12.247  1.00  0.00     0.036 C 
HETATM   17  C   UNL     1     -37.005 -15.023 -13.488  1.00  0.00     0.158 C 
HETATM   18  O   UNL     1     -36.823 -16.432 -13.268  1.00  0.00    -0.342 OA
BRANCH  15  19
HETATM   19  O   UNL     1     -36.843 -13.100 -14.938  1.00  0.00    -0.392 OA
ATOM     20  HO  UNL     1     -37.707 -13.278 -15.292  1.00  0.00     0.210 HD
ENDBRANCH  15  19
ENDBRANCH   6  10
BRANCH   2  21
HETATM   21  C   UNL     1     -37.246 -19.567 -13.960  1.00  0.00    -0.024 C 
HETATM   22  C   UNL     1     -36.767 -20.009 -15.195  1.00  0.00     0.012 C 
HETATM   23  C   UNL     1     -37.345 -20.125 -16.450  1.00  0.00     0.001 C 
HETATM   24  C   UNL     1     -38.549 -19.691 -16.973  1.00  0.00     0.000 C 
HETATM   25  C   UNL     1     -39.533 -19.097 -16.186  1.00  0.00     0.000 C 
HETATM   26  C   UNL     1     -39.497 -18.896 -14.827  1.00  0.00     0.001 C 
HETATM   27  C   UNL     1     -38.563 -19.098 -13.824  1.00  0.00     0.012 C 
ENDBRANCH   2  21
BRANCH   4  28
HETATM   28  C   UNL     1     -33.211 -17.209  -9.530  1.00  0.00     0.183 C 
HETATM   29  O   UNL     1     -32.262 -17.979  -9.502  1.00  0.00    -0.288 OA
BRANCH  28  30
HETATM   30  C   UNL     1     -33.236 -16.043  -8.568  1.00  0.00     0.020 C 
HETATM   31  C   UNL     1     -33.369 -16.235  -7.162  1.00  0.00    -0.048 C 
HETATM   32  C   UNL     1     -33.960 -17.474  -6.557  1.00  0.00     0.049 C 
HETATM   33  C   UNL     1     -32.917 -15.230  -6.300  1.00  0.00     0.007 C 
HETATM   34  C   UNL     1     -32.611 -13.971  -6.802  1.00  0.00     0.001 C 
HETATM   35  C   UNL     1     -32.827 -13.688  -8.146  1.00  0.00     0.001 C 
HETATM   36  C   UNL     1     -33.073 -14.724  -9.048  1.00  0.00     0.016 C 
ENDBRANCH  28  30
ENDBRANCH   4  28
TORSDOF 5
