MODEL 1
REMARK VINA RESULT:     -12.9      0.000      0.000
REMARK  5 active torsions:
REMARK  status: ('A' for Active; 'I' for Inactive)
REMARK       I    between atoms: C_5  and  N_24 
REMARK    1  A    between atoms: C_5  and  C_36 
REMARK    2  A    between atoms: C_6  and  C_29 
REMARK    3  A    between atoms: C_9  and  C_10 
REMARK    4  A    between atoms: C_11  and  C_15 
REMARK    5  A    between atoms: C_16  and  O_30 
ROOT
HETATM    1  C   UNL     1      43.882   1.966 133.018  1.00  0.00     0.023 C 
HETATM    2  C   UNL     1      43.175   0.826 132.576  1.00  0.00    -0.035 C 
HETATM    3  C   UNL     1      46.942   1.136 131.459  1.00  0.00    -0.015 C 
HETATM    4  C   UNL     1      44.590   0.624 130.620  1.00  0.00     0.014 C 
HETATM    5  C   UNL     1      45.534   1.333 131.392  1.00  0.00    -0.015 C 
HETATM    6  C   UNL     1      47.729   2.304 131.496  1.00  0.00     0.013 C 
HETATM    7  C   UNL     1      45.840   3.460 132.519  1.00  0.00     0.012 C 
HETATM    8  C   UNL     1      43.354   0.371 131.246  1.00  0.00     0.012 C 
HETATM    9  C   UNL     1      45.060   2.302 132.329  1.00  0.00    -0.024 C 
HETATM   10  C   UNL     1      47.157   3.486 132.032  1.00  0.00     0.002 C 
ENDROOT
BRANCH   2  11
HETATM   11  C   UNL     1      42.337   0.039 133.481  1.00  0.00     0.012 C 
HETATM   12  C   UNL     1      42.440  -0.108 134.794  1.00  0.00     0.012 C 
BRANCH  12  13
HETATM   13  C   UNL     1      41.743   0.615 135.844  1.00  0.00    -0.034 C 
HETATM   14  C   UNL     1      42.197   1.862 136.312  1.00  0.00     0.049 C 
HETATM   15  C   UNL     1      42.146   2.075 137.694  1.00  0.00     0.082 C 
HETATM   16  C   UNL     1      41.622   1.086 138.545  1.00  0.00     0.065 C 
HETATM   17  C   UNL     1      40.868   0.039 137.998  1.00  0.00     0.021 C 
HETATM   18  C   UNL     1      40.743  -0.030 136.598  1.00  0.00     0.012 C 
BRANCH  15  19
HETATM   19  O   UNL     1      42.665   3.211 138.243  1.00  0.00    -0.360 OA
ATOM     20  HO  UNL     1      42.724   3.309 139.186  1.00  0.00     0.217 HD
ENDBRANCH  15  19
BRANCH  16  21
HETATM   21  C   UNL     1      41.904   1.192 140.005  1.00  0.00     0.252 C 
HETATM   22  N   UNL     1      40.891   1.481 140.838  1.00  0.00    -0.366 N 
ATOM     23  HN2 UNL     1      41.083   1.553 141.837  1.00  0.00     0.159 HD
ATOM     24  HN1 UNL     1      39.939   1.601 140.491  1.00  0.00     0.159 HD
HETATM   25  O   UNL     1      43.056   1.047 140.425  1.00  0.00    -0.268 OA
ENDBRANCH  16  21
ENDBRANCH  12  13
ENDBRANCH   2  11
BRANCH   3  26
HETATM   26  C   UNL     1      47.473  -0.230 131.751  1.00  0.00    -0.025 A 
HETATM   27  C   UNL     1      47.344  -1.227 130.767  1.00  0.00     0.013 A 
HETATM   28  C   UNL     1      47.695  -2.563 130.718  1.00  0.00     0.016 A 
HETATM   29  C   UNL     1      48.353  -3.343 131.663  1.00  0.00     0.016 A 
HETATM   30  C   UNL     1      48.588  -4.800 131.562  1.00  0.00     0.160 C 
HETATM   31  C   UNL     1      48.712  -2.937 132.984  1.00  0.00    -0.044 A 
HETATM   32  O   UNL     1      48.762  -5.456 130.565  1.00  0.00    -0.292 OA
HETATM   33  C   UNL     1      48.754  -5.310 132.999  1.00  0.00     0.088 C 
HETATM   34  C   UNL     1      49.384  -4.091 133.676  1.00  0.00     0.047 C 
HETATM   35  C   UNL     1      48.593  -1.651 133.522  1.00  0.00     0.009 A 
HETATM   36  C   UNL     1      48.040  -0.502 133.001  1.00  0.00     0.013 A 
ENDBRANCH   3  26
TORSDOF 5
ENDMDL
MODEL 2
REMARK VINA RESULT:     -12.2      4.992      6.179
REMARK  5 active torsions:
REMARK  status: ('A' for Active; 'I' for Inactive)
REMARK       I    between atoms: C_5  and  N_24 
REMARK    1  A    between atoms: C_5  and  C_36 
REMARK    2  A    between atoms: C_6  and  C_29 
REMARK    3  A    between atoms: C_9  and  C_10 
REMARK    4  A    between atoms: C_11  and  C_15 
REMARK    5  A    between atoms: C_16  and  O_30 
ROOT
HETATM    1  C   UNL     1      43.800   1.727 131.841  1.00  0.00     0.023 C 
HETATM    2  C   UNL     1      43.355   0.646 131.048  1.00  0.00    -0.035 C 
HETATM    3  C   UNL     1      47.252   1.100 131.424  1.00  0.00    -0.015 C 
HETATM    4  C   UNL     1      45.389   0.685 129.734  1.00  0.00     0.014 C 
HETATM    5  C   UNL     1      45.956   1.299 130.869  1.00  0.00    -0.015 C 
HETATM    6  C   UNL     1      47.917   2.258 131.874  1.00  0.00     0.013 C 
HETATM    7  C   UNL     1      45.734   3.277 132.259  1.00  0.00     0.012 C 
HETATM    8  C   UNL     1      44.024   0.355 129.834  1.00  0.00     0.012 C 
HETATM    9  C   UNL     1      45.130   2.147 131.671  1.00  0.00    -0.024 C 
HETATM   10  C   UNL     1      47.135   3.365 132.292  1.00  0.00     0.002 C 
ENDROOT
BRANCH   2  11
HETATM   11  C   UNL     1      42.285  -0.247 131.492  1.00  0.00     0.012 C 
HETATM   12  C   UNL     1      40.978  -0.141 131.295  1.00  0.00     0.012 C 
BRANCH  12  13
HETATM   13  C   UNL     1      40.164  -0.759 130.262  1.00  0.00    -0.034 C 
HETATM   14  C   UNL     1      40.636  -0.923 128.947  1.00  0.00     0.049 C 
HETATM   15  C   UNL     1      39.731  -0.658 127.913  1.00  0.00     0.082 C 
HETATM   16  C   UNL     1      38.407  -0.286 128.207  1.00  0.00     0.065 C 
HETATM   17  C   UNL     1      37.909  -0.490 129.501  1.00  0.00     0.021 C 
HETATM   18  C   UNL     1      38.791  -0.977 130.485  1.00  0.00     0.012 C 
BRANCH  15  19
HETATM   19  O   UNL     1      40.134  -0.687 126.610  1.00  0.00    -0.360 OA
ATOM     20  HO  UNL     1      39.633  -1.163 125.958  1.00  0.00     0.217 HD
ENDBRANCH  15  19
BRANCH  16  21
HETATM   21  C   UNL     1      37.588   0.323 127.121  1.00  0.00     0.252 C 
HETATM   22  N   UNL     1      37.294   1.631 127.192  1.00  0.00    -0.366 N 
ATOM     23  HN2 UNL     1      36.734   2.048 126.448  1.00  0.00     0.159 HD
ATOM     24  HN1 UNL     1      37.642   2.211 127.956  1.00  0.00     0.159 HD
HETATM   25  O   UNL     1      37.168  -0.379 126.196  1.00  0.00    -0.268 OA
ENDBRANCH  16  21
ENDBRANCH  12  13
ENDBRANCH   2  11
BRANCH   3  26
HETATM   26  C   UNL     1      47.706  -0.289 131.735  1.00  0.00    -0.025 A 
HETATM   27  C   UNL     1      47.533  -1.288 130.761  1.00  0.00     0.013 A 
HETATM   28  C   UNL     1      47.811  -2.642 130.729  1.00  0.00     0.016 A 
HETATM   29  C   UNL     1      48.416  -3.446 131.691  1.00  0.00     0.016 A 
HETATM   30  C   UNL     1      48.573  -4.914 131.607  1.00  0.00     0.160 C 
HETATM   31  C   UNL     1      48.782  -3.045 133.011  1.00  0.00    -0.044 A 
HETATM   32  O   UNL     1      48.722  -5.590 130.619  1.00  0.00    -0.292 OA
HETATM   33  C   UNL     1      48.695  -5.417 133.051  1.00  0.00     0.088 C 
HETATM   34  C   UNL     1      49.383  -4.226 133.723  1.00  0.00     0.047 C 
HETATM   35  C   UNL     1      48.727  -1.749 133.534  1.00  0.00     0.009 A 
HETATM   36  C   UNL     1      48.244  -0.577 132.995  1.00  0.00     0.013 A 
ENDBRANCH   3  26
TORSDOF 5
ENDMDL
MODEL 3
REMARK VINA RESULT:     -12.1      2.944      5.215
REMARK  5 active torsions:
REMARK  status: ('A' for Active; 'I' for Inactive)
REMARK       I    between atoms: C_5  and  N_24 
REMARK    1  A    between atoms: C_5  and  C_36 
REMARK    2  A    between atoms: C_6  and  C_29 
REMARK    3  A    between atoms: C_9  and  C_10 
REMARK    4  A    between atoms: C_11  and  C_15 
REMARK    5  A    between atoms: C_16  and  O_30 
ROOT
HETATM    1  C   UNL     1      46.070   2.515 134.428  1.00  0.00     0.023 C 
HETATM    2  C   UNL     1      45.084   3.513 134.263  1.00  0.00    -0.035 C 
HETATM    3  C   UNL     1      45.738   1.126 131.196  1.00  0.00    -0.015 C 
HETATM    4  C   UNL     1      45.443   3.567 131.868  1.00  0.00     0.014 C 
HETATM    5  C   UNL     1      45.927   2.254 132.043  1.00  0.00    -0.015 C 
HETATM    6  C   UNL     1      46.862   0.297 131.010  1.00  0.00     0.013 C 
HETATM    7  C   UNL     1      47.669   1.019 133.196  1.00  0.00     0.012 C 
HETATM    8  C   UNL     1      45.012   4.221 133.038  1.00  0.00     0.012 C 
HETATM    9  C   UNL     1      46.597   1.930 133.264  1.00  0.00    -0.024 C 
HETATM   10  C   UNL     1      47.845   0.254 132.031  1.00  0.00     0.002 C 
ENDROOT
BRANCH   2  11
HETATM   11  C   UNL     1      44.068   3.771 135.284  1.00  0.00     0.012 C 
HETATM   12  C   UNL     1      43.106   2.972 135.720  1.00  0.00     0.012 C 
BRANCH  12  13
HETATM   13  C   UNL     1      43.107   2.104 136.886  1.00  0.00    -0.034 C 
HETATM   14  C   UNL     1      42.254   0.989 136.980  1.00  0.00     0.049 C 
HETATM   15  C   UNL     1      41.646   0.762 138.220  1.00  0.00     0.082 C 
HETATM   16  C   UNL     1      41.927   1.602 139.312  1.00  0.00     0.065 C 
HETATM   17  C   UNL     1      43.037   2.454 139.254  1.00  0.00     0.021 C 
HETATM   18  C   UNL     1      43.779   2.501 138.059  1.00  0.00     0.012 C 
BRANCH  15  19
HETATM   19  O   UNL     1      40.722  -0.230 138.372  1.00  0.00    -0.360 OA
ATOM     20  HO  UNL     1      40.704  -0.970 137.777  1.00  0.00     0.217 HD
ENDBRANCH  15  19
BRANCH  16  21
HETATM   21  C   UNL     1      41.015   1.555 140.491  1.00  0.00     0.252 C 
HETATM   22  N   UNL     1      41.374   0.817 141.554  1.00  0.00    -0.366 N 
ATOM     23  HN2 UNL     1      40.750   0.784 142.361  1.00  0.00     0.159 HD
ATOM     24  HN1 UNL     1      42.263   0.317 141.576  1.00  0.00     0.159 HD
HETATM   25  O   UNL     1      39.938   2.159 140.464  1.00  0.00    -0.268 OA
ENDBRANCH  16  21
ENDBRANCH  12  13
ENDBRANCH   2  11
BRANCH   3  26
HETATM   26  C   UNL     1      44.351   0.745 130.789  1.00  0.00    -0.025 A 
HETATM   27  C   UNL     1      44.112   0.412 129.444  1.00  0.00     0.013 A 
HETATM   28  C   UNL     1      42.978   0.046 128.743  1.00  0.00     0.016 A 
HETATM   29  C   UNL     1      41.679  -0.152 129.200  1.00  0.00     0.016 A 
HETATM   30  C   UNL     1      40.504  -0.439 128.349  1.00  0.00     0.160 C 
HETATM   31  C   UNL     1      41.204   0.108 130.521  1.00  0.00    -0.044 A 
HETATM   32  O   UNL     1      40.472  -1.044 127.305  1.00  0.00    -0.292 OA
HETATM   33  C   UNL     1      39.275   0.026 129.141  1.00  0.00     0.088 C 
HETATM   34  C   UNL     1      39.737  -0.220 130.578  1.00  0.00     0.047 C 
HETATM   35  C   UNL     1      41.978   0.477 131.627  1.00  0.00     0.009 A 
HETATM   36  C   UNL     1      43.319   0.772 131.733  1.00  0.00     0.013 A 
ENDBRANCH   3  26
TORSDOF 5
ENDMDL
MODEL 4
REMARK VINA RESULT:     -11.9      2.599      8.291
REMARK  5 active torsions:
REMARK  status: ('A' for Active; 'I' for Inactive)
REMARK       I    between atoms: C_5  and  N_24 
REMARK    1  A    between atoms: C_5  and  C_36 
REMARK    2  A    between atoms: C_6  and  C_29 
REMARK    3  A    between atoms: C_9  and  C_10 
REMARK    4  A    between atoms: C_11  and  C_15 
REMARK    5  A    between atoms: C_16  and  O_30 
ROOT
HETATM    1  C   UNL     1      45.780   0.709 131.223  1.00  0.00     0.023 C 
HETATM    2  C   UNL     1      46.419   1.715 131.980  1.00  0.00    -0.035 C 
HETATM    3  C   UNL     1      42.540   1.267 132.519  1.00  0.00    -0.015 C 
HETATM    4  C   UNL     1      44.370   2.999 132.129  1.00  0.00     0.014 C 
HETATM    5  C   UNL     1      43.732   1.759 131.916  1.00  0.00    -0.015 C 
HETATM    6  C   UNL     1      41.655   0.578 131.667  1.00  0.00     0.013 C 
HETATM    7  C   UNL     1      43.570  -0.028 130.282  1.00  0.00     0.012 C 
HETATM    8  C   UNL     1      45.777   2.967 132.152  1.00  0.00     0.012 C 
HETATM    9  C   UNL     1      44.383   0.789 131.092  1.00  0.00    -0.024 C 
HETATM   10  C   UNL     1      42.187  -0.073 130.524  1.00  0.00     0.002 C 
ENDROOT
BRANCH   2  11
HETATM   11  C   UNL     1      47.681   1.472 132.679  1.00  0.00     0.012 C 
HETATM   12  C   UNL     1      48.037   0.430 133.415  1.00  0.00     0.012 C 
BRANCH  12  13
HETATM   13  C   UNL     1      48.794  -0.745 133.018  1.00  0.00    -0.034 C 
HETATM   14  C   UNL     1      48.511  -1.442 131.830  1.00  0.00     0.049 C 
HETATM   15  C   UNL     1      48.544  -2.840 131.894  1.00  0.00     0.082 C 
HETATM   16  C   UNL     1      48.888  -3.487 133.094  1.00  0.00     0.065 C 
HETATM   17  C   UNL     1      49.500  -2.753 134.118  1.00  0.00     0.021 C 
HETATM   18  C   UNL     1      49.663  -1.366 133.937  1.00  0.00     0.012 C 
BRANCH  15  19
HETATM   19  O   UNL     1      48.177  -3.595 130.819  1.00  0.00    -0.360 OA
ATOM     20  HO  UNL     1      47.266  -3.655 130.557  1.00  0.00     0.217 HD
ENDBRANCH  15  19
BRANCH  16  21
HETATM   21  C   UNL     1      48.574  -4.938 133.227  1.00  0.00     0.252 C 
HETATM   22  N   UNL     1      49.500  -5.752 133.760  1.00  0.00    -0.366 N 
ATOM     23  HN2 UNL     1      49.285  -6.745 133.852  1.00  0.00     0.159 HD
ATOM     24  HN1 UNL     1      50.393  -5.390 134.095  1.00  0.00     0.159 HD
HETATM   25  O   UNL     1      47.493  -5.377 132.821  1.00  0.00    -0.268 OA
ENDBRANCH  16  21
ENDBRANCH  12  13
ENDBRANCH   2  11
BRANCH   3  26
HETATM   26  C   UNL     1      42.424   1.266 134.009  1.00  0.00    -0.025 A 
HETATM   27  C   UNL     1      43.087   2.270 134.736  1.00  0.00     0.013 A 
HETATM   28  C   UNL     1      43.205   2.544 136.086  1.00  0.00     0.016 A 
HETATM   29  C   UNL     1      42.635   1.894 137.176  1.00  0.00     0.016 A 
HETATM   30  C   UNL     1      42.910   2.198 138.597  1.00  0.00     0.160 C 
HETATM   31  C   UNL     1      41.874   0.687 137.130  1.00  0.00    -0.044 A 
HETATM   32  O   UNL     1      43.187   3.264 139.089  1.00  0.00    -0.292 OA
HETATM   33  C   UNL     1      42.594   0.917 139.380  1.00  0.00     0.088 C 
HETATM   34  C   UNL     1      41.470   0.320 138.532  1.00  0.00     0.047 C 
HETATM   35  C   UNL     1      41.449   0.013 135.980  1.00  0.00     0.009 A 
HETATM   36  C   UNL     1      41.706   0.249 134.648  1.00  0.00     0.013 A 
ENDBRANCH   3  26
TORSDOF 5
ENDMDL
MODEL 5
REMARK VINA RESULT:     -11.8      2.677      8.306
REMARK  5 active torsions:
REMARK  status: ('A' for Active; 'I' for Inactive)
REMARK       I    between atoms: C_5  and  N_24 
REMARK    1  A    between atoms: C_5  and  C_36 
REMARK    2  A    between atoms: C_6  and  C_29 
REMARK    3  A    between atoms: C_9  and  C_10 
REMARK    4  A    between atoms: C_11  and  C_15 
REMARK    5  A    between atoms: C_16  and  O_30 
ROOT
HETATM    1  C   UNL     1      45.843   0.721 131.222  1.00  0.00     0.023 C 
HETATM    2  C   UNL     1      46.524   1.746 131.913  1.00  0.00    -0.035 C 
HETATM    3  C   UNL     1      42.656   1.402 132.586  1.00  0.00    -0.015 C 
HETATM    4  C   UNL     1      44.505   3.077 132.064  1.00  0.00     0.014 C 
HETATM    5  C   UNL     1      43.838   1.842 131.926  1.00  0.00    -0.015 C 
HETATM    6  C   UNL     1      41.732   0.694 131.792  1.00  0.00     0.013 C 
HETATM    7  C   UNL     1      43.591  -0.012 130.380  1.00  0.00     0.012 C 
HETATM    8  C   UNL     1      45.911   3.017 132.047  1.00  0.00     0.012 C 
HETATM    9  C   UNL     1      44.444   0.823 131.128  1.00  0.00    -0.024 C 
HETATM   10  C   UNL     1      42.216  -0.018 130.665  1.00  0.00     0.002 C 
ENDROOT
BRANCH   2  11
HETATM   11  C   UNL     1      47.802   1.508 132.584  1.00  0.00     0.012 C 
HETATM   12  C   UNL     1      48.162   0.489 133.351  1.00  0.00     0.012 C 
BRANCH  12  13
HETATM   13  C   UNL     1      48.889  -0.713 132.978  1.00  0.00    -0.034 C 
HETATM   14  C   UNL     1      48.582  -1.431 131.808  1.00  0.00     0.049 C 
HETATM   15  C   UNL     1      48.582  -2.827 131.905  1.00  0.00     0.082 C 
HETATM   16  C   UNL     1      48.916  -3.453 133.119  1.00  0.00     0.065 C 
HETATM   17  C   UNL     1      49.551  -2.710 134.122  1.00  0.00     0.021 C 
HETATM   18  C   UNL     1      49.747  -1.332 133.907  1.00  0.00     0.012 C 
BRANCH  15  19
HETATM   19  O   UNL     1      48.191  -3.598 130.850  1.00  0.00    -0.360 OA
ATOM     20  HO  UNL     1      48.091  -4.538 130.948  1.00  0.00     0.217 HD
ENDBRANCH  15  19
BRANCH  16  21
HETATM   21  C   UNL     1      48.567  -4.893 133.288  1.00  0.00     0.252 C 
HETATM   22  N   UNL     1      49.508  -5.734 133.750  1.00  0.00    -0.366 N 
ATOM     23  HN2 UNL     1      49.269  -6.719 133.866  1.00  0.00     0.159 HD
ATOM     24  HN1 UNL     1      50.436  -5.399 134.009  1.00  0.00     0.159 HD
HETATM   25  O   UNL     1      47.444  -5.298 132.975  1.00  0.00    -0.268 OA
ENDBRANCH  16  21
ENDBRANCH  12  13
ENDBRANCH   2  11
BRANCH   3  26
HETATM   26  C   UNL     1      42.585   1.470 134.077  1.00  0.00    -0.025 A 
HETATM   27  C   UNL     1      41.665   0.644 134.746  1.00  0.00     0.013 A 
HETATM   28  C   UNL     1      41.333   0.475 136.078  1.00  0.00     0.016 A 
HETATM   29  C   UNL     1      41.873   1.078 137.209  1.00  0.00     0.016 A 
HETATM   30  C   UNL     1      41.374   0.912 138.592  1.00  0.00     0.160 C 
HETATM   31  C   UNL     1      42.843   2.126 137.221  1.00  0.00    -0.044 A 
HETATM   32  O   UNL     1      40.848  -0.058 139.080  1.00  0.00    -0.292 OA
HETATM   33  C   UNL     1      41.820   2.161 139.363  1.00  0.00     0.088 C 
HETATM   34  C   UNL     1      43.131   2.498 138.650  1.00  0.00     0.047 C 
HETATM   35  C   UNL     1      43.523   2.645 136.114  1.00  0.00     0.009 A 
HETATM   36  C   UNL     1      43.393   2.379 134.769  1.00  0.00     0.013 A 
ENDBRANCH   3  26
TORSDOF 5
ENDMDL
MODEL 6
REMARK VINA RESULT:     -11.6      3.311      5.297
REMARK  5 active torsions:
REMARK  status: ('A' for Active; 'I' for Inactive)
REMARK       I    between atoms: C_5  and  N_24 
REMARK    1  A    between atoms: C_5  and  C_36 
REMARK    2  A    between atoms: C_6  and  C_29 
REMARK    3  A    between atoms: C_9  and  C_10 
REMARK    4  A    between atoms: C_11  and  C_15 
REMARK    5  A    between atoms: C_16  and  O_30 
ROOT
HETATM    1  C   UNL     1      46.589   2.761 134.119  1.00  0.00     0.023 C 
HETATM    2  C   UNL     1      45.499   3.655 134.187  1.00  0.00    -0.035 C 
HETATM    3  C   UNL     1      45.807   1.462 130.927  1.00  0.00    -0.015 C 
HETATM    4  C   UNL     1      45.406   3.833 131.774  1.00  0.00     0.014 C 
HETATM    5  C   UNL     1      46.038   2.573 131.787  1.00  0.00    -0.015 C 
HETATM    6  C   UNL     1      46.952   0.763 130.498  1.00  0.00     0.013 C 
HETATM    7  C   UNL     1      48.073   1.486 132.541  1.00  0.00     0.012 C 
HETATM    8  C   UNL     1      45.136   4.396 133.035  1.00  0.00     0.012 C 
HETATM    9  C   UNL     1      46.948   2.277 132.849  1.00  0.00    -0.024 C 
HETATM   10  C   UNL     1      48.105   0.786 131.324  1.00  0.00     0.002 C 
ENDROOT
BRANCH   2  11
HETATM   11  C   UNL     1      44.667   3.768 135.386  1.00  0.00     0.012 C 
HETATM   12  C   UNL     1      43.475   3.240 135.624  1.00  0.00     0.012 C 
BRANCH  12  13
HETATM   13  C   UNL     1      43.154   2.007 136.323  1.00  0.00    -0.034 C 
HETATM   14  C   UNL     1      43.056   0.777 135.647  1.00  0.00     0.049 C 
HETATM   15  C   UNL     1      42.005  -0.068 136.022  1.00  0.00     0.082 C 
HETATM   16  C   UNL     1      41.130   0.305 137.057  1.00  0.00     0.065 C 
HETATM   17  C   UNL     1      41.490   1.352 137.916  1.00  0.00     0.021 C 
HETATM   18  C   UNL     1      42.682   2.052 137.649  1.00  0.00     0.012 C 
BRANCH  15  19
HETATM   19  O   UNL     1      41.771  -1.230 135.347  1.00  0.00    -0.360 OA
ATOM     20  HO  UNL     1      42.459  -1.876 135.240  1.00  0.00     0.217 HD
ENDBRANCH  15  19
BRANCH  16  21
HETATM   21  C   UNL     1      39.840  -0.430 137.188  1.00  0.00     0.252 C 
HETATM   22  N   UNL     1      38.989  -0.430 136.148  1.00  0.00    -0.366 N 
ATOM     23  HN2 UNL     1      38.107  -0.934 136.238  1.00  0.00     0.159 HD
ATOM     24  HN1 UNL     1      39.224   0.037 135.273  1.00  0.00     0.159 HD
HETATM   25  O   UNL     1      39.555  -0.996 138.248  1.00  0.00    -0.268 OA
ENDBRANCH  16  21
ENDBRANCH  12  13
ENDBRANCH   2  11
BRANCH   3  26
HETATM   26  C   UNL     1      44.412   0.953 130.754  1.00  0.00    -0.025 A 
HETATM   27  C   UNL     1      44.047   0.400 129.514  1.00  0.00     0.013 A 
HETATM   28  C   UNL     1      42.869  -0.129 129.020  1.00  0.00     0.016 A 
HETATM   29  C   UNL     1      41.646  -0.315 129.655  1.00  0.00     0.016 A 
HETATM   30  C   UNL     1      40.405  -0.792 129.007  1.00  0.00     0.160 C 
HETATM   31  C   UNL     1      41.305   0.127 130.969  1.00  0.00    -0.044 A 
HETATM   32  O   UNL     1      40.297  -1.555 128.079  1.00  0.00    -0.292 OA
HETATM   33  C   UNL     1      39.244  -0.268 129.862  1.00  0.00     0.088 C 
HETATM   34  C   UNL     1      39.880  -0.260 131.253  1.00  0.00     0.047 C 
HETATM   35  C   UNL     1      42.171   0.705 131.905  1.00  0.00     0.009 A 
HETATM   36  C   UNL     1      43.492   1.079 131.801  1.00  0.00     0.013 A 
ENDBRANCH   3  26
TORSDOF 5
ENDMDL
MODEL 7
REMARK VINA RESULT:     -11.5      4.450      8.209
REMARK  5 active torsions:
REMARK  status: ('A' for Active; 'I' for Inactive)
REMARK       I    between atoms: C_5  and  N_24 
REMARK    1  A    between atoms: C_5  and  C_36 
REMARK    2  A    between atoms: C_6  and  C_29 
REMARK    3  A    between atoms: C_9  and  C_10 
REMARK    4  A    between atoms: C_11  and  C_15 
REMARK    5  A    between atoms: C_16  and  O_30 
ROOT
HETATM    1  C   UNL     1      44.626   1.783 130.811  1.00  0.00     0.023 C 
HETATM    2  C   UNL     1      44.636   0.389 131.036  1.00  0.00    -0.035 C 
HETATM    3  C   UNL     1      44.623   2.712 134.220  1.00  0.00    -0.015 C 
HETATM    4  C   UNL     1      45.741   0.674 133.173  1.00  0.00     0.014 C 
HETATM    5  C   UNL     1      45.180   1.968 133.142  1.00  0.00    -0.015 C 
HETATM    6  C   UNL     1      44.938   4.085 134.250  1.00  0.00     0.013 C 
HETATM    7  C   UNL     1      45.204   4.007 131.827  1.00  0.00     0.012 C 
HETATM    8  C   UNL     1      45.457  -0.142 132.062  1.00  0.00     0.012 C 
HETATM    9  C   UNL     1      45.019   2.611 131.876  1.00  0.00    -0.024 C 
HETATM   10  C   UNL     1      45.239   4.736 133.027  1.00  0.00     0.002 C 
ENDROOT
BRANCH   2  11
HETATM   11  C   UNL     1      43.747  -0.517 130.308  1.00  0.00     0.012 C 
HETATM   12  C   UNL     1      42.475  -0.802 130.545  1.00  0.00     0.012 C 
BRANCH  12  13
HETATM   13  C   UNL     1      41.288  -0.219 129.942  1.00  0.00    -0.034 C 
HETATM   14  C   UNL     1      40.071  -0.128 130.641  1.00  0.00     0.049 C 
HETATM   15  C   UNL     1      38.906  -0.424 129.924  1.00  0.00     0.082 C 
HETATM   16  C   UNL     1      38.979  -0.754 128.559  1.00  0.00     0.065 C 
HETATM   17  C   UNL     1      40.154  -0.479 127.848  1.00  0.00     0.021 C 
HETATM   18  C   UNL     1      41.256   0.037 128.558  1.00  0.00     0.012 C 
BRANCH  15  19
HETATM   19  O   UNL     1      37.695  -0.467 130.549  1.00  0.00    -0.360 OA
ATOM     20  HO  UNL     1      36.889  -0.473 130.045  1.00  0.00     0.217 HD
ENDBRANCH  15  19
BRANCH  16  21
HETATM   21  C   UNL     1      37.793  -1.399 127.926  1.00  0.00     0.252 C 
HETATM   22  N   UNL     1      37.411  -0.987 126.706  1.00  0.00    -0.366 N 
ATOM     23  HN2 UNL     1      36.599  -1.428 126.272  1.00  0.00     0.159 HD
ATOM     24  HN1 UNL     1      37.932  -0.268 126.202  1.00  0.00     0.159 HD
HETATM   25  O   UNL     1      37.163  -2.268 128.535  1.00  0.00    -0.268 OA
ENDBRANCH  16  21
ENDBRANCH  12  13
ENDBRANCH   2  11
BRANCH   3  26
HETATM   26  C   UNL     1      43.563   2.086 135.066  1.00  0.00    -0.025 A 
HETATM   27  C   UNL     1      43.511   2.414 136.432  1.00  0.00     0.013 A 
HETATM   28  C   UNL     1      42.697   2.012 137.475  1.00  0.00     0.016 A 
HETATM   29  C   UNL     1      41.605   1.150 137.466  1.00  0.00     0.016 A 
HETATM   30  C   UNL     1      40.861   0.695 138.661  1.00  0.00     0.160 C 
HETATM   31  C   UNL     1      41.153   0.378 136.354  1.00  0.00    -0.044 A 
HETATM   32  O   UNL     1      40.668   1.295 139.689  1.00  0.00    -0.292 OA
HETATM   33  C   UNL     1      40.209  -0.640 138.279  1.00  0.00     0.088 C 
HETATM   34  C   UNL     1      39.961  -0.432 136.783  1.00  0.00     0.047 C 
HETATM   35  C   UNL     1      41.635   0.446 135.042  1.00  0.00     0.009 A 
HETATM   36  C   UNL     1      42.681   1.159 134.500  1.00  0.00     0.013 A 
ENDBRANCH   3  26
TORSDOF 5
ENDMDL
MODEL 8
REMARK VINA RESULT:     -11.5      3.909      7.722
REMARK  5 active torsions:
REMARK  status: ('A' for Active; 'I' for Inactive)
REMARK       I    between atoms: C_5  and  N_24 
REMARK    1  A    between atoms: C_5  and  C_36 
REMARK    2  A    between atoms: C_6  and  C_29 
REMARK    3  A    between atoms: C_9  and  C_10 
REMARK    4  A    between atoms: C_11  and  C_15 
REMARK    5  A    between atoms: C_16  and  O_30 
ROOT
HETATM    1  C   UNL     1      45.198   1.934 131.277  1.00  0.00     0.023 C 
HETATM    2  C   UNL     1      45.695   0.729 131.820  1.00  0.00    -0.035 C 
HETATM    3  C   UNL     1      44.791   3.598 134.367  1.00  0.00    -0.015 C 
HETATM    4  C   UNL     1      46.580   1.888 133.755  1.00  0.00     0.014 C 
HETATM    5  C   UNL     1      45.599   2.857 133.459  1.00  0.00    -0.015 C 
HETATM    6  C   UNL     1      44.599   4.958 134.056  1.00  0.00     0.013 C 
HETATM    7  C   UNL     1      44.929   4.396 131.705  1.00  0.00     0.012 C 
HETATM    8  C   UNL     1      46.628   0.782 132.886  1.00  0.00     0.012 C 
HETATM    9  C   UNL     1      45.248   3.078 132.091  1.00  0.00    -0.024 C 
HETATM   10  C   UNL     1      44.678   5.358 132.697  1.00  0.00     0.002 C 
ENDROOT
BRANCH   2  11
HETATM   11  C   UNL     1      45.200  -0.577 131.384  1.00  0.00     0.012 C 
HETATM   12  C   UNL     1      44.219  -1.307 131.893  1.00  0.00     0.012 C 
BRANCH  12  13
HETATM   13  C   UNL     1      42.830  -1.379 131.472  1.00  0.00    -0.034 C 
HETATM   14  C   UNL     1      42.418  -2.212 130.416  1.00  0.00     0.049 C 
HETATM   15  C   UNL     1      41.479  -1.683 129.523  1.00  0.00     0.082 C 
HETATM   16  C   UNL     1      40.960  -0.391 129.723  1.00  0.00     0.065 C 
HETATM   17  C   UNL     1      41.132   0.232 130.966  1.00  0.00     0.021 C 
HETATM   18  C   UNL     1      41.902  -0.428 131.941  1.00  0.00     0.012 C 
BRANCH  15  19
HETATM   19  O   UNL     1      41.106  -2.379 128.411  1.00  0.00    -0.360 OA
ATOM     20  HO  UNL     1      41.759  -2.710 127.805  1.00  0.00     0.217 HD
ENDBRANCH  15  19
BRANCH  16  21
HETATM   21  C   UNL     1      40.252   0.267 128.588  1.00  0.00     0.252 C 
HETATM   22  N   UNL     1      40.677   0.024 127.337  1.00  0.00    -0.366 N 
ATOM     23  HN2 UNL     1      40.192   0.474 126.560  1.00  0.00     0.159 HD
ATOM     24  HN1 UNL     1      41.449  -0.617 127.154  1.00  0.00     0.159 HD
HETATM   25  O   UNL     1      39.318   1.042 128.808  1.00  0.00    -0.268 OA
ENDBRANCH  16  21
ENDBRANCH  12  13
ENDBRANCH   2  11
BRANCH   3  26
HETATM   26  C   UNL     1      44.001   2.866 135.404  1.00  0.00    -0.025 A 
HETATM   27  C   UNL     1      43.120   1.853 134.987  1.00  0.00     0.013 A 
HETATM   28  C   UNL     1      42.248   1.017 135.660  1.00  0.00     0.016 A 
HETATM   29  C   UNL     1      42.007   0.901 137.025  1.00  0.00     0.016 A 
HETATM   30  C   UNL     1      40.969   0.048 137.644  1.00  0.00     0.160 C 
HETATM   31  C   UNL     1      42.547   1.737 138.048  1.00  0.00    -0.044 A 
HETATM   32  O   UNL     1      40.541  -1.008 137.248  1.00  0.00    -0.292 OA
HETATM   33  C   UNL     1      40.656   0.674 139.010  1.00  0.00     0.088 C 
HETATM   34  C   UNL     1      42.012   1.279 139.377  1.00  0.00     0.047 C 
HETATM   35  C   UNL     1      43.516   2.734 137.885  1.00  0.00     0.009 A 
HETATM   36  C   UNL     1      44.117   3.231 136.750  1.00  0.00     0.013 A 
ENDBRANCH   3  26
TORSDOF 5
ENDMDL
MODEL 9
REMARK VINA RESULT:     -11.1      3.238      5.426
REMARK  5 active torsions:
REMARK  status: ('A' for Active; 'I' for Inactive)
REMARK       I    between atoms: C_5  and  N_24 
REMARK    1  A    between atoms: C_5  and  C_36 
REMARK    2  A    between atoms: C_6  and  C_29 
REMARK    3  A    between atoms: C_9  and  C_10 
REMARK    4  A    between atoms: C_11  and  C_15 
REMARK    5  A    between atoms: C_16  and  O_30 
ROOT
HETATM    1  C   UNL     1      46.725   2.626 134.062  1.00  0.00     0.023 C 
HETATM    2  C   UNL     1      45.691   3.587 134.064  1.00  0.00    -0.035 C 
HETATM    3  C   UNL     1      46.075   1.384 130.819  1.00  0.00    -0.015 C 
HETATM    4  C   UNL     1      45.769   3.774 131.650  1.00  0.00     0.014 C 
HETATM    5  C   UNL     1      46.318   2.476 131.698  1.00  0.00    -0.015 C 
HETATM    6  C   UNL     1      47.200   0.615 130.462  1.00  0.00     0.013 C 
HETATM    7  C   UNL     1      48.227   1.263 132.578  1.00  0.00     0.012 C 
HETATM    8  C   UNL     1      45.452   4.351 132.894  1.00  0.00     0.012 C 
HETATM    9  C   UNL     1      47.136   2.122 132.816  1.00  0.00    -0.024 C 
HETATM   10  C   UNL     1      48.296   0.564 131.362  1.00  0.00     0.002 C 
ENDROOT
BRANCH   2  11
HETATM   11  C   UNL     1      44.791   3.751 135.206  1.00  0.00     0.012 C 
HETATM   12  C   UNL     1      43.595   3.216 135.405  1.00  0.00     0.012 C 
BRANCH  12  13
HETATM   13  C   UNL     1      43.251   2.017 136.151  1.00  0.00    -0.034 C 
HETATM   14  C   UNL     1      43.131   0.764 135.524  1.00  0.00     0.049 C 
HETATM   15  C   UNL     1      42.065  -0.046 135.931  1.00  0.00     0.082 C 
HETATM   16  C   UNL     1      41.197   0.383 136.950  1.00  0.00     0.065 C 
HETATM   17  C   UNL     1      41.576   1.455 137.768  1.00  0.00     0.021 C 
HETATM   18  C   UNL     1      42.780   2.123 137.475  1.00  0.00     0.012 C 
BRANCH  15  19
HETATM   19  O   UNL     1      41.810  -1.229 135.302  1.00  0.00    -0.360 OA
ATOM     20  HO  UNL     1      42.341  -1.511 134.566  1.00  0.00     0.217 HD
ENDBRANCH  15  19
BRANCH  16  21
HETATM   21  C   UNL     1      39.894  -0.324 137.109  1.00  0.00     0.252 C 
HETATM   22  N   UNL     1      39.097  -0.454 136.036  1.00  0.00    -0.366 N 
ATOM     23  HN2 UNL     1      38.205  -0.938 136.145  1.00  0.00     0.159 HD
ATOM     24  HN1 UNL     1      39.380  -0.105 135.120  1.00  0.00     0.159 HD
HETATM   25  O   UNL     1      39.550  -0.746 138.217  1.00  0.00    -0.268 OA
ENDBRANCH  16  21
ENDBRANCH  12  13
ENDBRANCH   2  11
BRANCH   3  26
HETATM   26  C   UNL     1      44.666   0.964 130.552  1.00  0.00    -0.025 A 
HETATM   27  C   UNL     1      43.740   1.000 131.609  1.00  0.00     0.013 A 
HETATM   28  C   UNL     1      42.402   0.669 131.711  1.00  0.00     0.016 A 
HETATM   29  C   UNL     1      41.523   0.218 130.732  1.00  0.00     0.016 A 
HETATM   30  C   UNL     1      40.128  -0.216 130.965  1.00  0.00     0.160 C 
HETATM   31  C   UNL     1      41.864  -0.123 129.389  1.00  0.00    -0.044 A 
HETATM   32  O   UNL     1      39.353   0.187 131.797  1.00  0.00    -0.292 OA
HETATM   33  C   UNL     1      39.775  -1.166 129.813  1.00  0.00     0.088 C 
HETATM   34  C   UNL     1      40.621  -0.585 128.679  1.00  0.00     0.047 C 
HETATM   35  C   UNL     1      43.108   0.060 128.773  1.00  0.00     0.009 A 
HETATM   36  C   UNL     1      44.310   0.501 129.280  1.00  0.00     0.013 A 
ENDBRANCH   3  26
TORSDOF 5
ENDMDL
