REMARK  1 active torsions:
REMARK  status: ('A' for Active; 'I' for Inactive)
REMARK    1  A    between atoms: C_13  and  C_22 
ROOT
HETATM    1  C   UNL     1     -28.275  20.942 -19.024  1.00  0.00     0.022 C 
HETATM    2  C   UNL     1     -28.702  21.701 -16.080  1.00  0.00     0.230 C 
HETATM    3  C   UNL     1     -25.154  24.145 -17.474  1.00  0.00    -0.017 C 
HETATM    4  C   UNL     1     -23.839  22.313 -18.718  1.00  0.00    -0.000 C 
HETATM    5  C   UNL     1     -24.049  22.601 -20.097  1.00  0.00     0.000 C 
HETATM    6  C   UNL     1     -28.899  19.571 -17.102  1.00  0.00     0.019 C 
HETATM    7  N   UNL     1     -28.252  20.412 -16.241  1.00  0.00    -0.330 N 
ATOM      8  HN  UNL     1     -27.439  20.085 -15.720  1.00  0.00     0.168 HD
HETATM    9  C   UNL     1     -28.964  19.841 -18.461  1.00  0.00    -0.003 C 
HETATM   10  C   UNL     1     -27.563  23.857 -16.835  1.00  0.00     0.032 C 
HETATM   11  C   UNL     1     -27.866  22.085 -18.415  1.00  0.00    -0.037 C 
HETATM   12  C   UNL     1     -28.470  22.695 -17.175  1.00  0.00     0.112 C 
HETATM   13  C   UNL     1     -24.218  23.051 -17.579  1.00  0.00    -0.003 C 
HETATM   14  O   UNL     1     -29.234  22.019 -15.023  1.00  0.00    -0.272 OA
HETATM   15  C   UNL     1     -25.198  22.923 -20.885  1.00  0.00     0.001 C 
HETATM   16  C   UNL     1     -26.582  24.076 -17.986  1.00  0.00     0.042 C 
HETATM   17  C   UNL     1     -29.509  18.317 -16.535  1.00  0.00     0.069 C 
HETATM   18  C   UNL     1     -26.843  22.975 -18.987  1.00  0.00    -0.043 C 
HETATM   19  C   UNL     1     -26.520  22.989 -20.423  1.00  0.00     0.008 C 
ENDROOT
BRANCH   9  20
HETATM   20  C   UNL     1     -29.712  18.923 -19.340  1.00  0.00    -0.022 C 
HETATM   21  C   UNL     1     -29.006  17.889 -19.955  1.00  0.00     0.042 C 
HETATM   22  C   UNL     1     -29.714  16.902 -20.644  1.00  0.00     0.043 C 
HETATM   23  N   UNL     1     -29.287  15.762 -21.263  1.00  0.00    -0.365 N 
HETATM   24  C   UNL     1     -31.086  17.030 -20.856  1.00  0.00    -0.008 C 
HETATM   25  C   UNL     1     -30.362  15.137 -21.763  1.00  0.00     0.089 C 
ATOM     26  HN  UNL     1     -28.321  15.443 -21.333  1.00  0.00     0.165 HD
HETATM   27  C   UNL     1     -31.518  15.830 -21.475  1.00  0.00     0.030 C 
HETATM   28  C   UNL     1     -31.791  18.059 -20.226  1.00  0.00     0.014 C 
HETATM   29  C   UNL     1     -31.100  19.027 -19.507  1.00  0.00     0.013 C 
ENDBRANCH   9  20
TORSDOF 1
