REMARK  2 active torsions:
REMARK  status: ('A' for Active; 'I' for Inactive)
REMARK       I    between atoms: N_13  and  C_16 
REMARK    1  A    between atoms: C_21  and  C_26 
REMARK    2  A    between atoms: C_21  and  C_28 
ROOT
HETATM    1  C   UNL     1     -28.999  20.567 -16.902  1.00  0.00     0.006 C 
HETATM    2  C   UNL     1     -28.054  22.749 -17.106  1.00  0.00     0.155 C 
HETATM    3  C   UNL     1     -28.177  22.081 -18.466  1.00  0.00     0.159 C 
HETATM    4  C   UNL     1     -25.768  23.607 -17.238  1.00  0.00     0.127 C 
HETATM    5  N   UNL     1     -27.224  22.264 -19.494  1.00  0.00    -0.389 N 
ATOM      6  HN  UNL     1     -27.202  21.528 -20.200  1.00  0.00     0.156 HD
HETATM    7  C   UNL     1     -24.085  22.382 -18.832  1.00  0.00     0.133 C 
HETATM    8  C   UNL     1     -26.221  24.293 -18.519  1.00  0.00     0.078 C 
HETATM    9  O   UNL     1     -26.692  22.682 -16.676  1.00  0.00    -0.378 OA
HETATM   10  F   UNL     1     -23.517  21.998 -21.552  1.00  0.00    -0.142 F 
HETATM   11  N   UNL     1     -24.953  22.747 -19.955  1.00  0.00    -0.303 N 
HETATM   12  C   UNL     1     -28.460  20.639 -18.170  1.00  0.00     0.047 C 
HETATM   13  C   UNL     1     -26.285  23.327 -19.694  1.00  0.00     0.187 C 
HETATM   14  C   UNL     1     -24.620  22.666 -21.284  1.00  0.00     0.402 C 
HETATM   15  C   UNL     1     -29.553  17.937 -17.597  1.00  0.00     0.132 C 
HETATM   16  N   UNL     1     -28.356  19.582 -19.017  1.00  0.00    -0.363 N 
ATOM     17  HN  UNL     1     -27.596  19.474 -19.689  1.00  0.00     0.165 HD
HETATM   18  C   UNL     1     -24.426  22.929 -17.463  1.00  0.00     0.052 C 
HETATM   19  C   UNL     1     -28.918  21.886 -16.185  1.00  0.00     0.082 C 
HETATM   20  C   UNL     1     -29.361  18.686 -18.880  1.00  0.00     0.000 C 
HETATM   21  S   UNL     1     -29.559  19.088 -16.195  1.00  0.00    -0.126 SA
HETATM   22  O   UNL     1     -25.254  23.178 -22.202  1.00  0.00    -0.233 OA
ENDROOT
BRANCH  20  23
HETATM   23  C   UNL     1     -30.309  18.476 -20.021  1.00  0.00     0.091 C 
BRANCH  23  24
HETATM   24  C   UNL     1     -30.533  17.041 -20.413  1.00  0.00    -0.053 C 
HETATM   25  C   UNL     1     -29.503  16.262 -20.912  1.00  0.00     0.007 C 
HETATM   26  C   UNL     1     -29.722  14.906 -21.157  1.00  0.00     0.001 C 
HETATM   27  C   UNL     1     -30.919  14.327 -20.752  1.00  0.00     0.000 C 
HETATM   28  C   UNL     1     -32.005  15.144 -20.480  1.00  0.00     0.001 C 
HETATM   29  C   UNL     1     -31.819  16.515 -20.357  1.00  0.00     0.007 C 
ENDBRANCH  23  24
ENDBRANCH  20  23
TORSDOF 2
