REMARK  0 active torsions:
REMARK  status: ('A' for Active; 'I' for Inactive)
ROOT
HETATM    1  C   UNL     1      -2.391  14.143 -17.726  1.00  0.00    -0.028 C 
HETATM    2  C   UNL     1      -3.107  11.895 -17.611  1.00  0.00     0.136 C 
HETATM    3  C   UNL     1      -3.154  12.483 -16.222  1.00  0.00     0.136 C 
HETATM    4  N   UNL     1      -2.163  14.702 -15.451  1.00  0.00    -0.368 N 
ATOM      5  HN  UNL     1      -2.168  14.414 -14.473  1.00  0.00     0.165 HD
HETATM    6  O   UNL     1      -3.294  10.717 -17.911  1.00  0.00    -0.297 OA
HETATM    7  C   UNL     1      -1.734  15.303 -18.090  1.00  0.00     0.011 C 
HETATM    8  C   UNL     1      -2.520  12.898 -18.539  1.00  0.00     0.119 C 
HETATM    9  C   UNL     1      -2.597  13.864 -16.401  1.00  0.00     0.022 C 
HETATM   10  C   UNL     1      -1.720  15.925 -15.792  1.00  0.00     0.088 C 
HETATM   11  C   UNL     1      -1.563  16.289 -17.119  1.00  0.00     0.018 C 
ENDROOT
TORSDOF 0
