MODEL 1
REMARK VINA RESULT:      -8.6      0.000      0.000
REMARK  5 active torsions:
REMARK  status: ('A' for Active; 'I' for Inactive)
REMARK    1  A    between atoms: O_4  and  C_18 
REMARK    2  A    between atoms: O_15  and  C_28 
REMARK    3  A    between atoms: C_17  and  C_22 
REMARK    4  A    between atoms: C_18  and  O_25 
REMARK    5  A    between atoms: O_20  and  C_32 
ROOT
HETATM    1  C   UNL     1     142.756 -27.148  73.493  1.00  0.00     0.065 C 
HETATM    2  N   UNL     1     141.086 -28.022  71.455  1.00  0.00    -0.325 N 
ATOM      3  HN  UNL     1     140.457 -28.302  70.703  1.00  0.00     0.169 HD
HETATM    4  C   UNL     1     143.744 -25.652  71.672  1.00  0.00     0.002 C 
HETATM    5  C   UNL     1     144.665 -23.498  70.107  1.00  0.00     0.000 C 
HETATM    6  O   UNL     1     139.967 -29.359  72.865  1.00  0.00    -0.267 OA
HETATM    7  C   UNL     1     140.889 -28.578  72.700  1.00  0.00     0.289 C 
HETATM    8  C   UNL     1     144.237 -24.497  72.297  1.00  0.00    -0.025 C 
HETATM    9  C   UNL     1     141.786 -28.188  73.875  1.00  0.00     0.265 C 
HETATM   10  C   UNL     1     142.516 -26.554  69.847  1.00  0.00     0.105 C 
HETATM   11  C   UNL     1     144.027 -24.551  69.434  1.00  0.00     0.016 C 
HETATM   12  C   UNL     1     142.855 -26.622  72.216  1.00  0.00    -0.001 C 
HETATM   13  C   UNL     1     143.838 -25.852  70.184  1.00  0.00     0.110 C 
HETATM   14  C   UNL     1     144.726 -23.445  71.500  1.00  0.00     0.012 C 
HETATM   15  C   UNL     1     142.068 -27.121  71.163  1.00  0.00     0.026 C 
ENDROOT
BRANCH   8  16
HETATM   16  C   UNL     1     144.245 -24.406  73.719  1.00  0.00     0.015 C 
HETATM   17  C   UNL     1     143.755 -23.436  74.530  1.00  0.00    -0.076 C 
HETATM   18  C   UNL     1     142.454 -22.718  74.252  1.00  0.00     0.072 C 
HETATM   19  C   UNL     1     144.513 -23.074  75.786  1.00  0.00     0.039 C 
HETATM   20  C   UNL     1     141.686 -22.437  75.541  1.00  0.00     0.062 C 
HETATM   21  C   UNL     1     142.632 -21.687  76.477  1.00  0.00     0.043 C 
HETATM   22  C   UNL     1     141.366 -23.743  76.245  1.00  0.00     0.038 C 
HETATM   23  C   UNL     1     143.531 -22.845  76.939  1.00  0.00    -0.008 C 
HETATM   24  C   UNL     1     142.609 -24.058  77.076  1.00  0.00     0.008 C 
BRANCH  20  25
HETATM   25  O   UNL     1     140.517 -21.669  75.287  1.00  0.00    -0.390 OA
ATOM     26  HO  UNL     1     140.658 -20.757  75.508  1.00  0.00     0.210 HD
ENDBRANCH  20  25
ENDBRANCH   8  16
BRANCH  13  27
HETATM   27  O   UNL     1     144.939 -26.719  69.866  1.00  0.00    -0.380 OA
ATOM     28  HO  UNL     1     144.620 -27.569  69.587  1.00  0.00     0.211 HD
ENDBRANCH  13  27
BRANCH   9  29
HETATM   29  O   UNL     1     141.027 -27.786  74.977  1.00  0.00    -0.355 OA
ATOM     30  HO  UNL     1     141.528 -27.852  75.780  1.00  0.00     0.214 HD
ENDBRANCH   9  29
BRANCH   9  31
HETATM   31  O   UNL     1     142.407 -29.369  74.337  1.00  0.00    -0.355 OA
ATOM     32  HO  UNL     1     142.112 -29.623  75.204  1.00  0.00     0.214 HD
ENDBRANCH   9  31
TORSDOF 5
ENDMDL
MODEL 2
REMARK VINA RESULT:      -8.6      1.803      5.253
REMARK  5 active torsions:
REMARK  status: ('A' for Active; 'I' for Inactive)
REMARK    1  A    between atoms: O_4  and  C_18 
REMARK    2  A    between atoms: O_15  and  C_28 
REMARK    3  A    between atoms: C_17  and  C_22 
REMARK    4  A    between atoms: C_18  and  O_25 
REMARK    5  A    between atoms: O_20  and  C_32 
ROOT
HETATM    1  C   UNL     1     141.661 -26.053  73.568  1.00  0.00     0.065 C 
HETATM    2  N   UNL     1     142.727 -28.092  75.120  1.00  0.00    -0.325 N 
ATOM      3  HN  UNL     1     143.160 -28.826  75.681  1.00  0.00     0.169 HD
HETATM    4  C   UNL     1     142.719 -24.531  75.327  1.00  0.00     0.002 C 
HETATM    5  C   UNL     1     144.207 -22.583  76.716  1.00  0.00     0.000 C 
HETATM    6  O   UNL     1     141.998 -29.650  73.681  1.00  0.00    -0.267 OA
HETATM    7  C   UNL     1     142.043 -28.470  73.985  1.00  0.00     0.289 C 
HETATM    8  C   UNL     1     143.040 -23.319  74.697  1.00  0.00    -0.025 C 
HETATM    9  C   UNL     1     141.387 -27.418  73.089  1.00  0.00     0.265 C 
HETATM   10  C   UNL     1     143.424 -26.244  76.817  1.00  0.00     0.105 C 
HETATM   11  C   UNL     1     144.065 -23.837  77.330  1.00  0.00     0.016 C 
HETATM   12  C   UNL     1     142.394 -25.772  74.708  1.00  0.00    -0.001 C 
HETATM   13  C   UNL     1     143.003 -24.769  76.785  1.00  0.00     0.110 C 
HETATM   14  C   UNL     1     143.753 -22.344  75.418  1.00  0.00     0.012 C 
HETATM   15  C   UNL     1     142.864 -26.803  75.542  1.00  0.00     0.026 C 
ENDROOT
BRANCH   8  16
HETATM   16  C   UNL     1     142.636 -23.089  73.351  1.00  0.00     0.015 C 
HETATM   17  C   UNL     1     143.378 -23.045  72.217  1.00  0.00    -0.076 C 
HETATM   18  C   UNL     1     144.537 -23.982  71.962  1.00  0.00     0.072 C 
HETATM   19  C   UNL     1     143.020 -22.048  71.140  1.00  0.00     0.039 C 
HETATM   20  C   UNL     1     144.604 -24.400  70.495  1.00  0.00     0.062 C 
HETATM   21  C   UNL     1     144.632 -23.120  69.662  1.00  0.00     0.043 C 
HETATM   22  C   UNL     1     143.322 -25.113  70.105  1.00  0.00     0.038 C 
HETATM   23  C   UNL     1     143.157 -22.699  69.760  1.00  0.00    -0.008 C 
HETATM   24  C   UNL     1     142.350 -23.997  69.723  1.00  0.00     0.008 C 
BRANCH  20  25
HETATM   25  O   UNL     1     145.754 -25.194  70.238  1.00  0.00    -0.390 OA
ATOM     26  HO  UNL     1     145.824 -25.899  70.870  1.00  0.00     0.210 HD
ENDBRANCH  20  25
ENDBRANCH   8  16
BRANCH  13  27
HETATM   27  O   UNL     1     141.807 -24.592  77.562  1.00  0.00    -0.380 OA
ATOM     28  HO  UNL     1     141.507 -23.692  77.504  1.00  0.00     0.211 HD
ENDBRANCH  13  27
BRANCH   9  29
HETATM   29  O   UNL     1     141.784 -27.572  71.759  1.00  0.00    -0.355 OA
ATOM     30  HO  UNL     1     141.963 -28.483  71.558  1.00  0.00     0.214 HD
ENDBRANCH   9  29
BRANCH   9  31
HETATM   31  O   UNL     1     140.007 -27.713  73.041  1.00  0.00    -0.355 OA
ATOM     32  HO  UNL     1     139.466 -26.977  73.300  1.00  0.00     0.214 HD
ENDBRANCH   9  31
TORSDOF 5
ENDMDL
MODEL 3
REMARK VINA RESULT:      -8.1      5.001      7.497
REMARK  5 active torsions:
REMARK  status: ('A' for Active; 'I' for Inactive)
REMARK    1  A    between atoms: O_4  and  C_18 
REMARK    2  A    between atoms: O_15  and  C_28 
REMARK    3  A    between atoms: C_17  and  C_22 
REMARK    4  A    between atoms: C_18  and  O_25 
REMARK    5  A    between atoms: O_20  and  C_32 
ROOT
HETATM    1  C   UNL     1     140.872 -23.280  66.408  1.00  0.00     0.065 C 
HETATM    2  N   UNL     1     140.162 -21.304  64.593  1.00  0.00    -0.325 N 
ATOM      3  HN  UNL     1     139.887 -20.552  63.959  1.00  0.00     0.169 HD
HETATM    4  C   UNL     1     142.467 -21.498  67.309  1.00  0.00     0.002 C 
HETATM    5  C   UNL     1     143.885 -19.650  68.893  1.00  0.00     0.000 C 
HETATM    6  O   UNL     1     138.605 -22.627  63.669  1.00  0.00    -0.267 OA
HETATM    7  C   UNL     1     139.502 -22.507  64.488  1.00  0.00     0.289 C 
HETATM    8  C   UNL     1     142.648 -21.748  68.677  1.00  0.00    -0.025 C 
HETATM    9  C   UNL     1     139.852 -23.669  65.419  1.00  0.00     0.265 C 
HETATM   10  C   UNL     1     142.080 -19.871  65.620  1.00  0.00     0.105 C 
HETATM   11  C   UNL     1     143.588 -19.267  67.576  1.00  0.00     0.016 C 
HETATM   12  C   UNL     1     141.456 -22.025  66.456  1.00  0.00    -0.001 C 
HETATM   13  C   UNL     1     143.146 -20.349  66.613  1.00  0.00     0.110 C 
HETATM   14  C   UNL     1     143.390 -20.832  69.446  1.00  0.00     0.012 C 
HETATM   15  C   UNL     1     141.160 -21.050  65.487  1.00  0.00     0.026 C 
ENDROOT
BRANCH   8  16
HETATM   16  C   UNL     1     142.092 -22.920  69.266  1.00  0.00     0.015 C 
HETATM   17  C   UNL     1     142.662 -24.126  69.504  1.00  0.00    -0.076 C 
HETATM   18  C   UNL     1     144.091 -24.278  69.975  1.00  0.00     0.072 C 
HETATM   19  C   UNL     1     141.835 -25.379  69.329  1.00  0.00     0.039 C 
HETATM   20  C   UNL     1     144.228 -25.419  70.980  1.00  0.00     0.062 C 
HETATM   21  C   UNL     1     143.645 -26.669  70.326  1.00  0.00     0.043 C 
HETATM   22  C   UNL     1     143.355 -25.145  72.191  1.00  0.00     0.038 C 
HETATM   23  C   UNL     1     142.143 -26.369  70.457  1.00  0.00    -0.008 C 
HETATM   24  C   UNL     1     141.974 -25.674  71.809  1.00  0.00     0.008 C 
BRANCH  20  25
HETATM   25  O   UNL     1     145.588 -25.626  71.340  1.00  0.00    -0.390 OA
ATOM     26  HO  UNL     1     146.068 -26.023  70.624  1.00  0.00     0.210 HD
ENDBRANCH  20  25
ENDBRANCH   8  16
BRANCH  13  27
HETATM   27  O   UNL     1     144.301 -20.812  65.896  1.00  0.00    -0.380 OA
ATOM     28  HO  UNL     1     144.331 -20.420  65.031  1.00  0.00     0.211 HD
ENDBRANCH  13  27
BRANCH   9  29
HETATM   29  O   UNL     1     138.711 -24.174  66.047  1.00  0.00    -0.355 OA
ATOM     30  HO  UNL     1     138.371 -24.929  65.582  1.00  0.00     0.214 HD
ENDBRANCH   9  29
BRANCH   9  31
HETATM   31  O   UNL     1     140.265 -24.747  64.606  1.00  0.00    -0.355 OA
ATOM     32  HO  UNL     1     140.288 -25.572  65.075  1.00  0.00     0.214 HD
ENDBRANCH   9  31
TORSDOF 5
ENDMDL
MODEL 4
REMARK VINA RESULT:      -7.6      5.559      8.354
REMARK  5 active torsions:
REMARK  status: ('A' for Active; 'I' for Inactive)
REMARK    1  A    between atoms: O_4  and  C_18 
REMARK    2  A    between atoms: O_15  and  C_28 
REMARK    3  A    between atoms: C_17  and  C_22 
REMARK    4  A    between atoms: C_18  and  O_25 
REMARK    5  A    between atoms: O_20  and  C_32 
ROOT
HETATM    1  C   UNL     1     142.869 -20.440  66.983  1.00  0.00     0.065 C 
HETATM    2  N   UNL     1     142.484 -19.915  64.285  1.00  0.00    -0.325 N 
ATOM      3  HN  UNL     1     142.356 -19.763  63.284  1.00  0.00     0.169 HD
HETATM    4  C   UNL     1     141.098 -22.243  66.605  1.00  0.00     0.002 C 
HETATM    5  C   UNL     1     139.641 -24.648  66.430  1.00  0.00     0.000 C 
HETATM    6  O   UNL     1     144.079 -18.339  64.303  1.00  0.00    -0.267 OA
HETATM    7  C   UNL     1     143.422 -19.147  64.938  1.00  0.00     0.289 C 
HETATM    8  C   UNL     1     141.347 -23.277  67.519  1.00  0.00    -0.025 C 
HETATM    9  C   UNL     1     143.676 -19.338  66.434  1.00  0.00     0.265 C 
HETATM   10  C   UNL     1     140.550 -21.658  64.367  1.00  0.00     0.105 C 
HETATM   11  C   UNL     1     139.472 -23.721  65.390  1.00  0.00     0.016 C 
HETATM   12  C   UNL     1     141.972 -21.182  66.233  1.00  0.00    -0.001 C 
HETATM   13  C   UNL     1     139.958 -22.306  65.625  1.00  0.00     0.110 C 
HETATM   14  C   UNL     1     140.586 -24.458  67.439  1.00  0.00     0.012 C 
HETATM   15  C   UNL     1     141.713 -20.864  64.888  1.00  0.00     0.026 C 
ENDROOT
BRANCH   8  16
HETATM   16  C   UNL     1     142.355 -23.119  68.515  1.00  0.00     0.015 C 
HETATM   17  C   UNL     1     142.414 -23.613  69.775  1.00  0.00    -0.076 C 
HETATM   18  C   UNL     1     141.944 -25.005  70.132  1.00  0.00     0.072 C 
HETATM   19  C   UNL     1     143.007 -22.761  70.873  1.00  0.00     0.039 C 
HETATM   20  C   UNL     1     142.848 -25.648  71.180  1.00  0.00     0.062 C 
HETATM   21  C   UNL     1     142.922 -24.686  72.364  1.00  0.00     0.043 C 
HETATM   22  C   UNL     1     144.265 -25.749  70.645  1.00  0.00     0.038 C 
HETATM   23  C   UNL     1     143.877 -23.626  71.792  1.00  0.00    -0.008 C 
HETATM   24  C   UNL     1     144.901 -24.394  70.956  1.00  0.00     0.008 C 
BRANCH  20  25
HETATM   25  O   UNL     1     142.342 -26.912  71.589  1.00  0.00    -0.390 OA
ATOM     26  HO  UNL     1     142.906 -27.304  72.245  1.00  0.00     0.210 HD
ENDBRANCH  20  25
ENDBRANCH   8  16
BRANCH  13  27
HETATM   27  O   UNL     1     138.850 -21.522  66.096  1.00  0.00    -0.380 OA
ATOM     28  HO  UNL     1     139.161 -20.789  66.614  1.00  0.00     0.211 HD
ENDBRANCH  13  27
BRANCH   9  29
HETATM   29  O   UNL     1     145.034 -19.532  66.694  1.00  0.00    -0.355 OA
ATOM     30  HO  UNL     1     145.490 -18.702  66.769  1.00  0.00     0.214 HD
ENDBRANCH   9  29
BRANCH   9  31
HETATM   31  O   UNL     1     143.410 -18.102  67.063  1.00  0.00    -0.355 OA
ATOM     32  HO  UNL     1     143.662 -17.357  66.530  1.00  0.00     0.214 HD
ENDBRANCH   9  31
TORSDOF 5
ENDMDL
MODEL 5
REMARK VINA RESULT:      -7.6      2.445      6.276
REMARK  5 active torsions:
REMARK  status: ('A' for Active; 'I' for Inactive)
REMARK    1  A    between atoms: O_4  and  C_18 
REMARK    2  A    between atoms: O_15  and  C_28 
REMARK    3  A    between atoms: C_17  and  C_22 
REMARK    4  A    between atoms: C_18  and  O_25 
REMARK    5  A    between atoms: O_20  and  C_32 
ROOT
HETATM    1  C   UNL     1     143.446 -24.415  72.311  1.00  0.00     0.065 C 
HETATM    2  N   UNL     1     142.438 -21.843  72.584  1.00  0.00    -0.325 N 
ATOM      3  HN  UNL     1     142.031 -20.915  72.702  1.00  0.00     0.169 HD
HETATM    4  C   UNL     1     143.335 -24.436  74.864  1.00  0.00     0.002 C 
HETATM    5  C   UNL     1     142.816 -25.016  77.571  1.00  0.00     0.000 C 
HETATM    6  O   UNL     1     142.330 -21.585  70.359  1.00  0.00    -0.267 OA
HETATM    7  C   UNL     1     142.652 -22.292  71.299  1.00  0.00     0.289 C 
HETATM    8  C   UNL     1     143.135 -25.765  75.266  1.00  0.00    -0.025 C 
HETATM    9  C   UNL     1     143.242 -23.681  71.051  1.00  0.00     0.265 C 
HETATM   10  C   UNL     1     142.720 -22.158  75.154  1.00  0.00     0.105 C 
HETATM   11  C   UNL     1     142.835 -23.663  77.200  1.00  0.00     0.016 C 
HETATM   12  C   UNL     1     143.167 -23.888  73.560  1.00  0.00    -0.001 C 
HETATM   13  C   UNL     1     143.444 -23.312  75.859  1.00  0.00     0.110 C 
HETATM   14  C   UNL     1     142.912 -26.040  76.627  1.00  0.00     0.012 C 
HETATM   15  C   UNL     1     142.735 -22.557  73.707  1.00  0.00     0.026 C 
ENDROOT
BRANCH   8  16
HETATM   16  C   UNL     1     143.168 -26.813  74.301  1.00  0.00     0.015 C 
HETATM   17  C   UNL     1     142.148 -27.481  73.710  1.00  0.00    -0.076 C 
HETATM   18  C   UNL     1     140.865 -26.805  73.283  1.00  0.00     0.072 C 
HETATM   19  C   UNL     1     142.301 -28.958  73.427  1.00  0.00     0.039 C 
HETATM   20  C   UNL     1     140.342 -27.379  71.969  1.00  0.00     0.062 C 
HETATM   21  C   UNL     1     140.227 -28.891  72.150  1.00  0.00     0.043 C 
HETATM   22  C   UNL     1     141.372 -27.175  70.873  1.00  0.00     0.038 C 
HETATM   23  C   UNL     1     141.709 -29.289  72.053  1.00  0.00    -0.008 C 
HETATM   24  C   UNL     1     142.319 -28.369  70.995  1.00  0.00     0.008 C 
BRANCH  20  25
HETATM   25  O   UNL     1     139.083 -26.815  71.627  1.00  0.00    -0.390 OA
ATOM     26  HO  UNL     1     138.376 -27.296  72.039  1.00  0.00     0.210 HD
ENDBRANCH  20  25
ENDBRANCH   8  16
BRANCH  13  27
HETATM   27  O   UNL     1     144.821 -22.962  76.067  1.00  0.00    -0.380 OA
ATOM     28  HO  UNL     1     145.292 -23.691  76.454  1.00  0.00     0.211 HD
ENDBRANCH  13  27
BRANCH   9  29
HETATM   29  O   UNL     1     142.448 -24.415  70.166  1.00  0.00    -0.355 OA
ATOM     30  HO  UNL     1     141.542 -24.429  70.450  1.00  0.00     0.214 HD
ENDBRANCH   9  29
BRANCH   9  31
HETATM   31  O   UNL     1     144.439 -23.502  70.323  1.00  0.00    -0.355 OA
ATOM     32  HO  UNL     1     145.202 -23.436  70.885  1.00  0.00     0.214 HD
ENDBRANCH   9  31
TORSDOF 5
ENDMDL
MODEL 6
REMARK VINA RESULT:      -7.5      1.961      4.293
REMARK  5 active torsions:
REMARK  status: ('A' for Active; 'I' for Inactive)
REMARK    1  A    between atoms: O_4  and  C_18 
REMARK    2  A    between atoms: O_15  and  C_28 
REMARK    3  A    between atoms: C_17  and  C_22 
REMARK    4  A    between atoms: C_18  and  O_25 
REMARK    5  A    between atoms: O_20  and  C_32 
ROOT
HETATM    1  C   UNL     1     142.667 -24.370  71.990  1.00  0.00     0.065 C 
HETATM    2  N   UNL     1     142.288 -25.175  69.361  1.00  0.00    -0.325 N 
ATOM      3  HN  UNL     1     142.179 -25.502  68.401  1.00  0.00     0.169 HD
HETATM    4  C   UNL     1     141.805 -26.712  72.544  1.00  0.00     0.002 C 
HETATM    5  C   UNL     1     141.460 -29.344  73.486  1.00  0.00     0.000 C 
HETATM    6  O   UNL     1     143.105 -23.235  68.587  1.00  0.00    -0.267 OA
HETATM    7  C   UNL     1     142.789 -23.907  69.555  1.00  0.00     0.289 C 
HETATM    8  C   UNL     1     142.388 -27.099  73.759  1.00  0.00    -0.025 C 
HETATM    9  C   UNL     1     142.995 -23.362  70.970  1.00  0.00     0.265 C 
HETATM   10  C   UNL     1     141.223 -27.346  70.328  1.00  0.00     0.105 C 
HETATM   11  C   UNL     1     141.003 -29.064  72.189  1.00  0.00     0.016 C 
HETATM   12  C   UNL     1     142.199 -25.639  71.694  1.00  0.00    -0.001 C 
HETATM   13  C   UNL     1     140.858 -27.610  71.795  1.00  0.00     0.110 C 
HETATM   14  C   UNL     1     142.175 -28.407  74.232  1.00  0.00     0.012 C 
HETATM   15  C   UNL     1     141.927 -26.021  70.368  1.00  0.00     0.026 C 
ENDROOT
BRANCH   8  16
HETATM   16  C   UNL     1     143.174 -26.169  74.499  1.00  0.00     0.015 C 
HETATM   17  C   UNL     1     142.933 -24.868  74.793  1.00  0.00    -0.076 C 
HETATM   18  C   UNL     1     141.557 -24.350  75.146  1.00  0.00     0.072 C 
HETATM   19  C   UNL     1     144.085 -23.890  74.806  1.00  0.00     0.039 C 
HETATM   20  C   UNL     1     141.625 -23.281  76.233  1.00  0.00     0.062 C 
HETATM   21  C   UNL     1     142.597 -22.207  75.750  1.00  0.00     0.043 C 
HETATM   22  C   UNL     1     142.249 -23.863  77.488  1.00  0.00     0.038 C 
HETATM   23  C   UNL     1     143.935 -22.925  75.987  1.00  0.00    -0.008 C 
HETATM   24  C   UNL     1     143.757 -23.721  77.281  1.00  0.00     0.008 C 
BRANCH  20  25
HETATM   25  O   UNL     1     140.343 -22.723  76.486  1.00  0.00    -0.390 OA
ATOM     26  HO  UNL     1     139.661 -23.251  76.089  1.00  0.00     0.210 HD
ENDBRANCH  20  25
ENDBRANCH   8  16
BRANCH  13  27
HETATM   27  O   UNL     1     139.499 -27.211  72.033  1.00  0.00    -0.380 OA
ATOM     28  HO  UNL     1     139.386 -26.288  71.839  1.00  0.00     0.211 HD
ENDBRANCH  13  27
BRANCH   9  29
HETATM   29  O   UNL     1     144.294 -22.880  71.140  1.00  0.00    -0.355 OA
ATOM     30  HO  UNL     1     144.353 -21.962  70.902  1.00  0.00     0.214 HD
ENDBRANCH   9  29
BRANCH   9  31
HETATM   31  O   UNL     1     142.210 -22.193  71.085  1.00  0.00    -0.355 OA
ATOM     32  HO  UNL     1     142.357 -21.581  70.374  1.00  0.00     0.214 HD
ENDBRANCH   9  31
TORSDOF 5
ENDMDL
MODEL 7
REMARK VINA RESULT:      -7.5      3.316      6.091
REMARK  5 active torsions:
REMARK  status: ('A' for Active; 'I' for Inactive)
REMARK    1  A    between atoms: O_4  and  C_18 
REMARK    2  A    between atoms: O_15  and  C_28 
REMARK    3  A    between atoms: C_17  and  C_22 
REMARK    4  A    between atoms: C_18  and  O_25 
REMARK    5  A    between atoms: O_20  and  C_32 
ROOT
HETATM    1  C   UNL     1     140.985 -26.388  71.173  1.00  0.00     0.065 C 
HETATM    2  N   UNL     1     142.423 -27.567  73.234  1.00  0.00    -0.325 N 
ATOM      3  HN  UNL     1     142.985 -28.006  73.963  1.00  0.00     0.169 HD
HETATM    4  C   UNL     1     142.870 -24.663  71.211  1.00  0.00     0.002 C 
HETATM    5  C   UNL     1     145.013 -22.943  70.588  1.00  0.00     0.000 C 
HETATM    6  O   UNL     1     140.970 -29.271  73.353  1.00  0.00    -0.267 OA
HETATM    7  C   UNL     1     141.268 -28.205  72.841  1.00  0.00     0.289 C 
HETATM    8  C   UNL     1     142.994 -24.146  69.913  1.00  0.00    -0.025 C 
HETATM    9  C   UNL     1     140.389 -27.609  71.739  1.00  0.00     0.265 C 
HETATM   10  C   UNL     1     143.992 -25.490  73.136  1.00  0.00     0.105 C 
HETATM   11  C   UNL     1     145.036 -23.563  71.846  1.00  0.00     0.016 C 
HETATM   12  C   UNL     1     142.177 -25.840  71.615  1.00  0.00    -0.001 C 
HETATM   13  C   UNL     1     143.754 -24.202  72.338  1.00  0.00     0.110 C 
HETATM   14  C   UNL     1     144.050 -23.260  69.629  1.00  0.00     0.012 C 
HETATM   15  C   UNL     1     142.865 -26.386  72.713  1.00  0.00     0.026 C 
ENDROOT
BRANCH   8  16
HETATM   16  C   UNL     1     142.053 -24.514  68.908  1.00  0.00     0.015 C 
HETATM   17  C   UNL     1     141.144 -23.754  68.251  1.00  0.00    -0.076 C 
HETATM   18  C   UNL     1     141.431 -22.338  67.802  1.00  0.00     0.072 C 
HETATM   19  C   UNL     1     139.795 -24.345  67.914  1.00  0.00     0.039 C 
HETATM   20  C   UNL     1     140.795 -22.043  66.446  1.00  0.00     0.062 C 
HETATM   21  C   UNL     1     139.310 -22.378  66.561  1.00  0.00     0.043 C 
HETATM   22  C   UNL     1     141.349 -22.994  65.401  1.00  0.00     0.038 C 
HETATM   23  C   UNL     1     139.373 -23.913  66.506  1.00  0.00    -0.008 C 
HETATM   24  C   UNL     1     140.485 -24.249  65.511  1.00  0.00     0.008 C 
BRANCH  20  25
HETATM   25  O   UNL     1     140.978 -20.682  66.078  1.00  0.00    -0.390 OA
ATOM     26  HO  UNL     1     141.381 -20.194  66.786  1.00  0.00     0.210 HD
ENDBRANCH  20  25
ENDBRANCH   8  16
BRANCH  13  27
HETATM   27  O   UNL     1     143.061 -23.248  73.158  1.00  0.00    -0.380 OA
ATOM     28  HO  UNL     1     143.256 -22.363  72.871  1.00  0.00     0.211 HD
ENDBRANCH  13  27
BRANCH   9  29
HETATM   29  O   UNL     1     140.126 -28.550  70.741  1.00  0.00    -0.355 OA
ATOM     30  HO  UNL     1     140.522 -29.388  70.948  1.00  0.00     0.214 HD
ENDBRANCH   9  29
BRANCH   9  31
HETATM   31  O   UNL     1     139.112 -27.383  72.300  1.00  0.00    -0.355 OA
ATOM     32  HO  UNL     1     139.042 -27.703  73.192  1.00  0.00     0.214 HD
ENDBRANCH   9  31
TORSDOF 5
ENDMDL
MODEL 8
REMARK VINA RESULT:      -7.1      5.753      9.131
REMARK  5 active torsions:
REMARK  status: ('A' for Active; 'I' for Inactive)
REMARK    1  A    between atoms: O_4  and  C_18 
REMARK    2  A    between atoms: O_15  and  C_28 
REMARK    3  A    between atoms: C_17  and  C_22 
REMARK    4  A    between atoms: C_18  and  O_25 
REMARK    5  A    between atoms: O_20  and  C_32 
ROOT
HETATM    1  C   UNL     1     142.875 -21.664  66.953  1.00  0.00     0.065 C 
HETATM    2  N   UNL     1     143.619 -20.151  69.158  1.00  0.00    -0.325 N 
ATOM      3  HN  UNL     1     143.850 -19.596  69.983  1.00  0.00     0.169 HD
HETATM    4  C   UNL     1     142.326 -23.444  68.702  1.00  0.00     0.002 C 
HETATM    5  C   UNL     1     141.094 -25.377  70.340  1.00  0.00     0.000 C 
HETATM    6  O   UNL     1     144.085 -18.381  67.861  1.00  0.00    -0.267 OA
HETATM    7  C   UNL     1     143.736 -19.549  67.925  1.00  0.00     0.289 C 
HETATM    8  C   UNL     1     141.289 -24.236  68.187  1.00  0.00    -0.025 C 
HETATM    9  C   UNL     1     143.387 -20.317  66.649  1.00  0.00     0.265 C 
HETATM   10  C   UNL     1     143.191 -22.285  70.589  1.00  0.00     0.105 C 
HETATM   11  C   UNL     1     142.001 -24.501  70.956  1.00  0.00     0.016 C 
HETATM   12  C   UNL     1     142.761 -22.170  68.237  1.00  0.00    -0.001 C 
HETATM   13  C   UNL     1     142.921 -23.699  70.061  1.00  0.00     0.110 C 
HETATM   14  C   UNL     1     140.710 -25.221  69.008  1.00  0.00     0.012 C 
HETATM   15  C   UNL     1     143.214 -21.439  69.349  1.00  0.00     0.026 C 
ENDROOT
BRANCH   8  16
HETATM   16  C   UNL     1     140.845 -24.042  66.847  1.00  0.00     0.015 C 
HETATM   17  C   UNL     1     139.611 -23.737  66.377  1.00  0.00    -0.076 C 
HETATM   18  C   UNL     1     138.685 -22.768  67.078  1.00  0.00     0.072 C 
HETATM   19  C   UNL     1     139.143 -24.356  65.081  1.00  0.00     0.039 C 
HETATM   20  C   UNL     1     137.903 -21.920  66.077  1.00  0.00     0.062 C 
HETATM   21  C   UNL     1     137.202 -22.883  65.121  1.00  0.00     0.043 C 
HETATM   22  C   UNL     1     138.866 -21.120  65.218  1.00  0.00     0.038 C 
HETATM   23  C   UNL     1     138.391 -23.313  64.247  1.00  0.00    -0.008 C 
HETATM   24  C   UNL     1     139.259 -22.064  64.082  1.00  0.00     0.008 C 
BRANCH  20  25
HETATM   25  O   UNL     1     136.960 -21.087  66.736  1.00  0.00    -0.390 OA
ATOM     26  HO  UNL     1     136.196 -21.586  67.000  1.00  0.00     0.210 HD
ENDBRANCH  20  25
ENDBRANCH   8  16
BRANCH  13  27
HETATM   27  O   UNL     1     144.162 -24.413  69.936  1.00  0.00    -0.380 OA
ATOM     28  HO  UNL     1     144.847 -23.832  69.625  1.00  0.00     0.211 HD
ENDBRANCH  13  27
BRANCH   9  29
HETATM   29  O   UNL     1     142.482 -19.602  65.862  1.00  0.00    -0.355 OA
ATOM     30  HO  UNL     1     141.586 -19.807  66.099  1.00  0.00     0.214 HD
ENDBRANCH   9  29
BRANCH   9  31
HETATM   31  O   UNL     1     144.549 -20.344  65.847  1.00  0.00    -0.355 OA
ATOM     32  HO  UNL     1     144.423 -20.824  65.037  1.00  0.00     0.214 HD
ENDBRANCH   9  31
TORSDOF 5
ENDMDL
MODEL 9
REMARK VINA RESULT:      -6.3      4.740      7.748
REMARK  5 active torsions:
REMARK  status: ('A' for Active; 'I' for Inactive)
REMARK    1  A    between atoms: O_4  and  C_18 
REMARK    2  A    between atoms: O_15  and  C_28 
REMARK    3  A    between atoms: C_17  and  C_22 
REMARK    4  A    between atoms: C_18  and  O_25 
REMARK    5  A    between atoms: O_20  and  C_32 
ROOT
HETATM    1  C   UNL     1     141.316 -25.004  69.787  1.00  0.00     0.065 C 
HETATM    2  N   UNL     1     143.128 -25.088  71.887  1.00  0.00    -0.325 N 
ATOM      3  HN  UNL     1     143.828 -25.114  72.630  1.00  0.00     0.169 HD
HETATM    4  C   UNL     1     142.249 -22.651  69.435  1.00  0.00     0.002 C 
HETATM    5  C   UNL     1     143.414 -20.299  68.413  1.00  0.00     0.000 C 
HETATM    6  O   UNL     1     142.575 -27.209  72.359  1.00  0.00    -0.267 OA
HETATM    7  C   UNL     1     142.371 -26.219  71.676  1.00  0.00     0.289 C 
HETATM    8  C   UNL     1     142.131 -22.351  68.070  1.00  0.00    -0.025 C 
HETATM    9  C   UNL     1     141.319 -26.253  70.567  1.00  0.00     0.265 C 
HETATM   10  C   UNL     1     143.623 -22.583  71.373  1.00  0.00     0.105 C 
HETATM   11  C   UNL     1     143.710 -20.633  69.743  1.00  0.00     0.016 C 
HETATM   12  C   UNL     1     142.145 -23.929  70.056  1.00  0.00    -0.001 C 
HETATM   13  C   UNL     1     142.841 -21.675  70.415  1.00  0.00     0.110 C 
HETATM   14  C   UNL     1     142.688 -21.154  67.583  1.00  0.00     0.012 C 
HETATM   15  C   UNL     1     143.005 -23.935  71.169  1.00  0.00     0.026 C 
ENDROOT
BRANCH   8  16
HETATM   16  C   UNL     1     141.446 -23.249  67.200  1.00  0.00     0.015 C 
HETATM   17  C   UNL     1     140.429 -23.015  66.336  1.00  0.00    -0.076 C 
HETATM   18  C   UNL     1     140.339 -21.758  65.500  1.00  0.00     0.072 C 
HETATM   19  C   UNL     1     139.352 -24.061  66.165  1.00  0.00     0.039 C 
HETATM   20  C   UNL     1     139.789 -22.054  64.106  1.00  0.00     0.062 C 
HETATM   21  C   UNL     1     138.461 -22.785  64.290  1.00  0.00     0.043 C 
HETATM   22  C   UNL     1     140.701 -23.035  63.392  1.00  0.00     0.038 C 
HETATM   23  C   UNL     1     138.971 -24.180  64.686  1.00  0.00    -0.008 C 
HETATM   24  C   UNL     1     140.230 -24.415  63.849  1.00  0.00     0.008 C 
BRANCH  20  25
HETATM   25  O   UNL     1     139.607 -20.858  63.361  1.00  0.00    -0.390 OA
ATOM     26  HO  UNL     1     140.279 -20.222  63.575  1.00  0.00     0.210 HD
ENDBRANCH  20  25
ENDBRANCH   8  16
BRANCH  13  27
HETATM   27  O   UNL     1     141.799 -20.997  71.135  1.00  0.00    -0.380 OA
ATOM     28  HO  UNL     1     141.673 -21.397  71.988  1.00  0.00     0.211 HD
ENDBRANCH  13  27
BRANCH   9  29
HETATM   29  O   UNL     1     141.495 -27.362  69.738  1.00  0.00    -0.355 OA
ATOM     30  HO  UNL     1     140.678 -27.614  69.325  1.00  0.00     0.214 HD
ENDBRANCH   9  29
BRANCH   9  31
HETATM   31  O   UNL     1     140.074 -26.515  71.181  1.00  0.00    -0.355 OA
ATOM     32  HO  UNL     1     140.011 -27.400  71.519  1.00  0.00     0.214 HD
ENDBRANCH   9  31
TORSDOF 5
ENDMDL
