REMARK  4 active torsions:
REMARK  status: ('A' for Active; 'I' for Inactive)
REMARK    1  A    between atoms: N_9  and  C_12 
REMARK    2  A    between atoms: N_9  and  C_19 
REMARK    3  A    between atoms: C_12  and  C_14 
REMARK    4  A    between atoms: C_13  and  C_27 
ROOT
HETATM    1  C   UNL     1      26.954   9.803 -19.960  1.00  0.00     0.064 C 
HETATM    2  N   UNL     1      26.477  10.978 -19.430  1.00  0.00    -0.338 N 
ATOM      3  HN  UNL     1      26.292  11.830 -19.960  1.00  0.00     0.167 HD
HETATM    4  C   UNL     1      27.384  10.145 -17.419  1.00  0.00     0.146 C 
HETATM    5  C   UNL     1      27.214   9.575 -21.326  1.00  0.00     0.049 C 
HETATM    6  C   UNL     1      27.311   8.256 -21.724  1.00  0.00     0.091 C 
HETATM    7  N   UNL     1      26.976   7.218 -20.923  1.00  0.00    -0.362 N 
ATOM      8  HN  UNL     1      27.057   6.251 -21.237  1.00  0.00     0.165 HD
HETATM    9  C   UNL     1      26.525   7.531 -19.674  1.00  0.00     0.088 C 
HETATM   10  N   UNL     1      27.472   8.853 -17.793  1.00  0.00    -0.336 N 
ATOM     11  HN  UNL     1      27.803   8.095 -17.196  1.00  0.00     0.168 HD
HETATM   12  N   UNL     1      25.180  11.193 -17.439  1.00  0.00    -0.382 N 
ATOM     13  HN1 UNL     1      25.039  11.082 -16.435  1.00  0.00     0.157 HD
ATOM     14  HN2 UNL     1      24.415  11.673 -17.913  1.00  0.00     0.157 HD
HETATM   15  C   UNL     1      27.051   8.702 -19.096  1.00  0.00     0.090 C 
HETATM   16  C   UNL     1      26.290  10.831 -18.096  1.00  0.00     0.144 C 
ENDROOT
BRANCH   4  17
HETATM   17  N   UNL     1      28.325  10.694 -16.608  1.00  0.00    -0.369 N 
ATOM     18  HN  UNL     1      29.034  10.027 -16.304  1.00  0.00     0.161 HD
BRANCH  17  19
HETATM   19  C   UNL     1      28.532  12.026 -16.086  1.00  0.00     0.160 C 
BRANCH  19  20
HETATM   20  C   UNL     1      27.339  12.604 -15.351  1.00  0.00    -0.041 C 
HETATM   21  C   UNL     1      26.784  11.837 -14.274  1.00  0.00     0.009 C 
HETATM   22  C   UNL     1      25.608  12.125 -13.557  1.00  0.00     0.001 C 
HETATM   23  C   UNL     1      24.566  13.027 -13.870  1.00  0.00     0.000 C 
HETATM   24  C   UNL     1      24.516  14.023 -14.864  1.00  0.00     0.000 C 
HETATM   25  C   UNL     1      25.551  14.361 -15.775  1.00  0.00     0.001 C 
HETATM   26  C   UNL     1      26.883  13.896 -15.774  1.00  0.00     0.009 C 
ENDBRANCH  19  20
ENDBRANCH  17  19
ENDBRANCH   4  17
BRANCH   9  27
HETATM   27  C   UNL     1      25.387   6.866 -19.116  1.00  0.00     0.062 C 
HETATM   28  N   UNL     1      25.545   6.009 -18.089  1.00  0.00    -0.350 N 
HETATM   29  C   UNL     1      24.756   5.807 -17.062  1.00  0.00     0.180 C 
ATOM     30  HN  UNL     1      26.392   5.441 -18.114  1.00  0.00     0.166 HD
HETATM   31  N   UNL     1      23.626   6.442 -16.749  1.00  0.00    -0.362 N 
HETATM   32  C   UNL     1      22.951   7.313 -17.457  1.00  0.00     0.089 C 
ATOM     33  HN  UNL     1      23.234   6.219 -15.834  1.00  0.00     0.165 HD
HETATM   34  C   UNL     1      23.041   7.517 -18.809  1.00  0.00     0.019 C 
HETATM   35  C   UNL     1      24.119   7.170 -19.604  1.00  0.00     0.033 C 
ENDBRANCH   9  27
TORSDOF 4
