REMARK  3 active torsions:
REMARK  status: ('A' for Active; 'I' for Inactive)
REMARK    1  A    between atoms: C_1  and  O_14 
REMARK    2  A    between atoms: C_4  and  O_6 
REMARK    3  A    between atoms: C_11  and  C_16 
ROOT
HETATM    1  C   UNL     1     -28.741  -2.059  -2.192  1.00  0.00     0.091 C 
HETATM    2  C   UNL     1     -30.316  -3.548  -6.552  1.00  0.00     0.010 C 
HETATM    3  C   UNL     1     -28.205  -2.268  -6.534  1.00  0.00     0.018 C 
HETATM    4  C   UNL     1     -29.218  -1.320  -4.438  1.00  0.00    -0.007 C 
HETATM    5  C   UNL     1     -29.324  -1.392  -5.960  1.00  0.00     0.010 C 
HETATM    6  C   UNL     1     -28.757  -2.448  -3.535  1.00  0.00     0.007 C 
HETATM    7  C   UNL     1     -28.791  -3.685  -6.436  1.00  0.00     0.021 C 
HETATM    8  C   UNL     1     -28.347  -4.459  -5.180  1.00  0.00    -0.032 C 
HETATM    9  C   UNL     1     -27.904  -2.757  -1.300  1.00  0.00     0.125 C 
HETATM   10  C   UNL     1     -30.624  -2.059  -6.411  1.00  0.00     0.009 C 
HETATM   11  C   UNL     1     -28.200  -4.612  -2.668  1.00  0.00     0.100 C 
HETATM   12  N   UNL     1     -27.775  -4.093  -1.493  1.00  0.00    -0.372 N 
ATOM     13  HN  UNL     1     -27.369  -4.690  -0.773  1.00  0.00     0.164 HD
HETATM   14  C   UNL     1     -28.415  -3.815  -3.805  1.00  0.00    -0.001 C 
ENDROOT
BRANCH   8  15
HETATM   15  C   UNL     1     -27.572  -5.695  -5.439  1.00  0.00    -0.013 C 
HETATM   16  C   UNL     1     -27.554  -6.376  -6.831  1.00  0.00     0.100 C 
HETATM   17  C   UNL     1     -26.999  -7.789  -6.842  1.00  0.00     0.015 C 
HETATM   18  C   UNL     1     -28.947  -6.464  -7.481  1.00  0.00     0.056 C 
HETATM   19  C   UNL     1     -26.085  -8.149  -5.851  1.00  0.00    -0.001 C 
HETATM   20  C   UNL     1     -25.993  -7.425  -4.653  1.00  0.00     0.001 C 
HETATM   21  C   UNL     1     -26.731  -6.251  -4.461  1.00  0.00     0.011 C 
BRANCH  16  22
HETATM   22  O   UNL     1     -26.741  -5.580  -7.699  1.00  0.00    -0.381 OA
ATOM     23  HO  UNL     1     -26.730  -5.997  -8.552  1.00  0.00     0.211 HD
ENDBRANCH  16  22
ENDBRANCH   8  15
BRANCH   1  24
HETATM   24  O   UNL     1     -29.737  -1.249  -1.783  1.00  0.00    -0.358 OA
ATOM     25  HO  UNL     1     -29.726  -0.985  -0.871  1.00  0.00     0.217 HD
ENDBRANCH   1  24
TORSDOF 3
