MODEL 1
REMARK VINA RESULT:      -8.6      0.000      0.000
REMARK  1 active torsions:
REMARK  status: ('A' for Active; 'I' for Inactive)
REMARK    1  A    between atoms: C_10  and  C_12 
ROOT
HETATM    1  O   UNL     1     -26.008 -17.612 -39.038  1.00  0.00    -0.297 OA
HETATM    2  C   UNL     1     -25.763 -16.857 -42.512  1.00  0.00     0.009 A 
HETATM    3  C   UNL     1     -26.585 -20.569 -41.349  1.00  0.00     0.011 C 
HETATM    4  C   UNL     1     -26.374 -16.544 -41.166  1.00  0.00     0.079 A 
HETATM    5  C   UNL     1     -26.806 -21.921 -41.136  1.00  0.00     0.001 C 
HETATM    6  C   UNL     1     -25.452 -19.990 -40.809  1.00  0.00    -0.006 A 
HETATM    7  C   UNL     1     -24.955 -18.584 -40.908  1.00  0.00     0.077 A 
HETATM    8  C   UNL     1     -23.625 -18.653 -40.164  1.00  0.00     0.154 A 
HETATM    9  C   UNL     1     -25.916 -22.689 -40.409  1.00  0.00     0.003 C 
HETATM   10  C   UNL     1     -24.526 -20.780 -40.154  1.00  0.00     0.076 A 
HETATM   11  O   UNL     1     -23.399 -20.028 -39.810  1.00  0.00    -0.343 OA
HETATM   12  C   UNL     1     -24.786 -22.102 -39.871  1.00  0.00     0.037 C 
HETATM   13  C   UNL     1     -24.890 -18.099 -42.360  1.00  0.00     0.025 A 
HETATM   14  C   UNL     1     -25.819 -17.582 -40.228  1.00  0.00     0.142 A 
ENDROOT
BRANCH   8  15
HETATM   15  C   UNL     1     -22.327 -17.933 -40.434  1.00  0.00     0.027 C 
HETATM   16  C   UNL     1     -21.782 -17.684 -39.029  1.00  0.00     0.044 C 
HETATM   17  C   UNL     1     -20.956 -16.444 -39.225  1.00  0.00    -0.006 C 
HETATM   18  C   UNL     1     -20.750 -18.742 -38.628  1.00  0.00     0.132 C 
HETATM   19  C   UNL     1     -21.397 -15.720 -40.462  1.00  0.00     0.041 C 
HETATM   20  C   UNL     1     -19.883 -16.582 -38.215  1.00  0.00     0.244 C 
HETATM   21  C   UNL     1     -22.498 -16.568 -41.096  1.00  0.00     0.012 C 
HETATM   22  N   UNL     1     -19.828 -17.921 -37.833  1.00  0.00    -0.357 N 
HETATM   23  O   UNL     1     -19.216 -15.713 -37.755  1.00  0.00    -0.268 OA
ATOM     24  HN  UNL     1     -19.224 -18.285 -37.096  1.00  0.00     0.162 HD
ENDBRANCH   8  15
TORSDOF 1
ENDMDL
MODEL 2
REMARK VINA RESULT:      -8.4      2.526      5.827
REMARK  1 active torsions:
REMARK  status: ('A' for Active; 'I' for Inactive)
REMARK    1  A    between atoms: C_10  and  C_12 
ROOT
HETATM    1  O   UNL     1     -23.836 -18.300 -42.783  1.00  0.00    -0.297 OA
HETATM    2  C   UNL     1     -26.382 -16.732 -40.843  1.00  0.00     0.009 A 
HETATM    3  C   UNL     1     -22.680 -16.977 -39.417  1.00  0.00     0.011 C 
HETATM    4  C   UNL     1     -25.639 -16.829 -42.155  1.00  0.00     0.079 A 
HETATM    5  C   UNL     1     -21.476 -17.032 -38.730  1.00  0.00     0.001 C 
HETATM    6  C   UNL     1     -23.263 -18.162 -39.824  1.00  0.00    -0.006 A 
HETATM    7  C   UNL     1     -24.554 -18.397 -40.540  1.00  0.00     0.077 A 
HETATM    8  C   UNL     1     -24.626 -19.920 -40.596  1.00  0.00     0.154 A 
HETATM    9  C   UNL     1     -20.866 -18.238 -38.443  1.00  0.00     0.003 C 
HETATM   10  C   UNL     1     -22.690 -19.367 -39.463  1.00  0.00     0.076 A 
HETATM   11  O   UNL     1     -23.506 -20.432 -39.854  1.00  0.00    -0.343 OA
HETATM   12  C   UNL     1     -21.456 -19.419 -38.855  1.00  0.00     0.037 C 
HETATM   13  C   UNL     1     -25.728 -17.692 -39.854  1.00  0.00     0.025 A 
HETATM   14  C   UNL     1     -24.582 -17.878 -41.934  1.00  0.00     0.142 A 
ENDROOT
BRANCH   8  15
HETATM   15  C   UNL     1     -25.820 -20.836 -40.495  1.00  0.00     0.027 C 
HETATM   16  C   UNL     1     -25.596 -21.533 -39.155  1.00  0.00     0.044 C 
HETATM   17  C   UNL     1     -26.295 -22.848 -39.361  1.00  0.00    -0.006 C 
HETATM   18  C   UNL     1     -26.403 -20.872 -38.033  1.00  0.00     0.132 C 
HETATM   19  C   UNL     1     -26.436 -23.133 -40.826  1.00  0.00     0.041 C 
HETATM   20  C   UNL     1     -26.757 -23.209 -38.003  1.00  0.00     0.244 C 
HETATM   21  C   UNL     1     -25.861 -21.925 -41.564  1.00  0.00     0.012 C 
HETATM   22  N   UNL     1     -26.748 -22.051 -37.228  1.00  0.00    -0.357 N 
HETATM   23  O   UNL     1     -27.036 -24.293 -37.605  1.00  0.00    -0.268 OA
ATOM     24  HN  UNL     1     -26.954 -22.025 -36.229  1.00  0.00     0.162 HD
ENDBRANCH   8  15
TORSDOF 1
ENDMDL
MODEL 3
REMARK VINA RESULT:      -8.3      2.808      4.197
REMARK  1 active torsions:
REMARK  status: ('A' for Active; 'I' for Inactive)
REMARK    1  A    between atoms: C_10  and  C_12 
ROOT
HETATM    1  O   UNL     1     -28.320 -21.018 -40.969  1.00  0.00    -0.297 OA
HETATM    2  C   UNL     1     -24.979 -22.231 -40.714  1.00  0.00     0.009 A 
HETATM    3  C   UNL     1     -27.172 -21.776 -37.430  1.00  0.00     0.011 C 
HETATM    4  C   UNL     1     -26.350 -22.355 -41.337  1.00  0.00     0.079 A 
HETATM    5  C   UNL     1     -27.753 -21.616 -36.181  1.00  0.00     0.001 C 
HETATM    6  C   UNL     1     -27.056 -20.671 -38.252  1.00  0.00    -0.006 A 
HETATM    7  C   UNL     1     -26.451 -20.549 -39.613  1.00  0.00     0.077 A 
HETATM    8  C   UNL     1     -26.579 -19.056 -39.897  1.00  0.00     0.154 A 
HETATM    9  C   UNL     1     -28.201 -20.384 -35.749  1.00  0.00     0.003 C 
HETATM   10  C   UNL     1     -27.432 -19.427 -37.782  1.00  0.00     0.076 A 
HETATM   11  O   UNL     1     -27.106 -18.435 -38.712  1.00  0.00    -0.343 OA
HETATM   12  C   UNL     1     -28.083 -19.283 -36.578  1.00  0.00     0.037 C 
HETATM   13  C   UNL     1     -25.032 -21.126 -39.664  1.00  0.00     0.025 A 
HETATM   14  C   UNL     1     -27.183 -21.291 -40.675  1.00  0.00     0.142 A 
ENDROOT
BRANCH   8  15
HETATM   15  C   UNL     1     -25.647 -18.129 -40.637  1.00  0.00     0.027 C 
HETATM   16  C   UNL     1     -24.953 -17.375 -39.505  1.00  0.00     0.044 C 
HETATM   17  C   UNL     1     -24.610 -16.066 -40.159  1.00  0.00    -0.006 C 
HETATM   18  C   UNL     1     -23.585 -17.982 -39.179  1.00  0.00     0.132 C 
HETATM   19  C   UNL     1     -25.481 -15.845 -41.358  1.00  0.00     0.041 C 
HETATM   20  C   UNL     1     -23.377 -15.644 -39.457  1.00  0.00     0.244 C 
HETATM   21  C   UNL     1     -26.359 -17.087 -41.496  1.00  0.00     0.012 C 
HETATM   22  N   UNL     1     -22.834 -16.767 -38.837  1.00  0.00    -0.357 N 
HETATM   23  O   UNL     1     -22.942 -14.541 -39.374  1.00  0.00    -0.268 OA
ATOM     24  HN  UNL     1     -22.018 -16.749 -38.224  1.00  0.00     0.162 HD
ENDBRANCH   8  15
TORSDOF 1
ENDMDL
MODEL 4
REMARK VINA RESULT:      -8.0      2.564      6.013
REMARK  1 active torsions:
REMARK  status: ('A' for Active; 'I' for Inactive)
REMARK    1  A    between atoms: C_10  and  C_12 
ROOT
HETATM    1  O   UNL     1     -22.959 -18.425 -41.953  1.00  0.00    -0.297 OA
HETATM    2  C   UNL     1     -25.231 -16.087 -40.514  1.00  0.00     0.009 A 
HETATM    3  C   UNL     1     -21.457 -16.200 -39.269  1.00  0.00     0.011 C 
HETATM    4  C   UNL     1     -24.599 -16.670 -41.756  1.00  0.00     0.079 A 
HETATM    5  C   UNL     1     -20.212 -16.141 -38.661  1.00  0.00     0.001 C 
HETATM    6  C   UNL     1     -22.153 -17.393 -39.235  1.00  0.00    -0.006 A 
HETATM    7  C   UNL     1     -23.508 -17.726 -39.771  1.00  0.00     0.077 A 
HETATM    8  C   UNL     1     -23.694 -19.171 -39.320  1.00  0.00     0.154 A 
HETATM    9  C   UNL     1     -19.670 -17.240 -38.024  1.00  0.00     0.003 C 
HETATM   10  C   UNL     1     -21.643 -18.464 -38.527  1.00  0.00     0.076 A 
HETATM   11  O   UNL     1     -22.561 -19.518 -38.506  1.00  0.00    -0.343 OA
HETATM   12  C   UNL     1     -20.373 -18.431 -37.997  1.00  0.00     0.037 C 
HETATM   13  C   UNL     1     -24.574 -16.731 -39.298  1.00  0.00     0.025 A 
HETATM   14  C   UNL     1     -23.605 -17.684 -41.255  1.00  0.00     0.142 A 
ENDROOT
BRANCH   8  15
HETATM   15  C   UNL     1     -24.939 -19.891 -38.866  1.00  0.00     0.027 C 
HETATM   16  C   UNL     1     -25.728 -20.052 -40.164  1.00  0.00     0.044 C 
HETATM   17  C   UNL     1     -27.147 -20.089 -39.670  1.00  0.00    -0.006 C 
HETATM   18  C   UNL     1     -25.527 -21.440 -40.778  1.00  0.00     0.132 C 
HETATM   19  C   UNL     1     -27.236 -19.467 -38.309  1.00  0.00     0.041 C 
HETATM   20  C   UNL     1     -27.835 -20.943 -40.664  1.00  0.00     0.244 C 
HETATM   21  C   UNL     1     -25.812 -19.083 -37.910  1.00  0.00     0.012 C 
HETATM   22  N   UNL     1     -26.862 -21.673 -41.344  1.00  0.00    -0.357 N 
HETATM   23  O   UNL     1     -28.999 -20.975 -40.897  1.00  0.00    -0.268 OA
ATOM     24  HN  UNL     1     -27.053 -22.290 -42.133  1.00  0.00     0.162 HD
ENDBRANCH   8  15
TORSDOF 1
ENDMDL
MODEL 5
REMARK VINA RESULT:      -7.9      2.583      3.576
REMARK  1 active torsions:
REMARK  status: ('A' for Active; 'I' for Inactive)
REMARK    1  A    between atoms: C_10  and  C_12 
ROOT
HETATM    1  O   UNL     1     -25.366 -16.251 -40.233  1.00  0.00    -0.297 OA
HETATM    2  C   UNL     1     -25.257 -18.553 -42.951  1.00  0.00     0.009 A 
HETATM    3  C   UNL     1     -28.157 -18.825 -40.246  1.00  0.00     0.011 C 
HETATM    4  C   UNL     1     -25.263 -17.118 -42.479  1.00  0.00     0.079 A 
HETATM    5  C   UNL     1     -29.192 -19.118 -39.370  1.00  0.00     0.001 C 
HETATM    6  C   UNL     1     -26.862 -18.828 -39.763  1.00  0.00    -0.006 A 
HETATM    7  C   UNL     1     -25.573 -18.585 -40.480  1.00  0.00     0.077 A 
HETATM    8  C   UNL     1     -24.538 -18.824 -39.385  1.00  0.00     0.154 A 
HETATM    9  C   UNL     1     -28.948 -19.419 -38.044  1.00  0.00     0.003 C 
HETATM   10  C   UNL     1     -26.619 -19.209 -38.457  1.00  0.00     0.076 A 
HETATM   11  O   UNL     1     -25.243 -19.276 -38.216  1.00  0.00    -0.343 OA
HETATM   12  C   UNL     1     -27.650 -19.418 -37.569  1.00  0.00     0.037 C 
HETATM   13  C   UNL     1     -25.440 -19.455 -41.734  1.00  0.00     0.025 A 
HETATM   14  C   UNL     1     -25.407 -17.194 -40.982  1.00  0.00     0.142 A 
ENDROOT
BRANCH   8  15
HETATM   15  C   UNL     1     -23.163 -19.439 -39.471  1.00  0.00     0.027 C 
HETATM   16  C   UNL     1     -23.193 -20.486 -38.359  1.00  0.00     0.044 C 
HETATM   17  C   UNL     1     -21.743 -20.580 -37.973  1.00  0.00    -0.006 C 
HETATM   18  C   UNL     1     -23.509 -21.881 -38.906  1.00  0.00     0.132 C 
HETATM   19  C   UNL     1     -21.013 -19.344 -38.407  1.00  0.00     0.041 C 
HETATM   20  C   UNL     1     -21.599 -21.980 -37.517  1.00  0.00     0.244 C 
HETATM   21  C   UNL     1     -22.028 -18.473 -39.144  1.00  0.00     0.012 C 
HETATM   22  N   UNL     1     -22.678 -22.705 -38.019  1.00  0.00    -0.357 N 
HETATM   23  O   UNL     1     -20.756 -22.418 -36.803  1.00  0.00    -0.268 OA
ATOM     24  HN  UNL     1     -22.867 -23.683 -37.798  1.00  0.00     0.162 HD
ENDBRANCH   8  15
TORSDOF 1
ENDMDL
MODEL 6
REMARK VINA RESULT:      -7.8      2.364      4.379
REMARK  1 active torsions:
REMARK  status: ('A' for Active; 'I' for Inactive)
REMARK    1  A    between atoms: C_10  and  C_12 
ROOT
HETATM    1  O   UNL     1     -22.311 -23.386 -38.369  1.00  0.00    -0.297 OA
HETATM    2  C   UNL     1     -24.162 -22.300 -35.524  1.00  0.00     0.009 A 
HETATM    3  C   UNL     1     -26.040 -22.984 -38.960  1.00  0.00     0.011 C 
HETATM    4  C   UNL     1     -23.184 -23.282 -36.126  1.00  0.00     0.079 A 
HETATM    5  C   UNL     1     -26.850 -23.101 -40.080  1.00  0.00     0.001 C 
HETATM    6  C   UNL     1     -24.971 -22.111 -39.006  1.00  0.00    -0.006 A 
HETATM    7  C   UNL     1     -23.970 -21.766 -37.950  1.00  0.00     0.077 A 
HETATM    8  C   UNL     1     -23.134 -20.687 -38.629  1.00  0.00     0.154 A 
HETATM    9  C   UNL     1     -26.610 -22.360 -41.220  1.00  0.00     0.003 C 
HETATM   10  C   UNL     1     -24.785 -21.313 -40.119  1.00  0.00     0.076 A 
HETATM   11  O   UNL     1     -23.738 -20.412 -39.905  1.00  0.00    -0.343 OA
HETATM   12  C   UNL     1     -25.537 -21.490 -41.259  1.00  0.00     0.037 C 
HETATM   13  C   UNL     1     -24.642 -21.367 -36.631  1.00  0.00     0.025 A 
HETATM   14  C   UNL     1     -23.068 -22.888 -37.574  1.00  0.00     0.142 A 
ENDROOT
BRANCH   8  15
HETATM   15  C   UNL     1     -22.489 -19.453 -38.049  1.00  0.00     0.027 C 
HETATM   16  C   UNL     1     -22.791 -18.388 -39.101  1.00  0.00     0.044 C 
HETATM   17  C   UNL     1     -21.641 -17.436 -38.927  1.00  0.00    -0.006 C 
HETATM   18  C   UNL     1     -24.013 -17.548 -38.719  1.00  0.00     0.132 C 
HETATM   19  C   UNL     1     -20.498 -18.126 -38.246  1.00  0.00     0.041 C 
HETATM   20  C   UNL     1     -22.218 -16.127 -39.309  1.00  0.00     0.244 C 
HETATM   21  C   UNL     1     -20.970 -19.543 -37.928  1.00  0.00     0.012 C 
HETATM   22  N   UNL     1     -23.605 -16.238 -39.244  1.00  0.00    -0.357 N 
HETATM   23  O   UNL     1     -21.627 -15.160 -39.666  1.00  0.00    -0.268 OA
ATOM     24  HN  UNL     1     -24.256 -15.504 -39.526  1.00  0.00     0.162 HD
ENDBRANCH   8  15
TORSDOF 1
ENDMDL
MODEL 7
REMARK VINA RESULT:      -7.6      2.551      4.543
REMARK  1 active torsions:
REMARK  status: ('A' for Active; 'I' for Inactive)
REMARK    1  A    between atoms: C_10  and  C_12 
ROOT
HETATM    1  O   UNL     1     -27.019 -20.930 -41.610  1.00  0.00    -0.297 OA
HETATM    2  C   UNL     1     -28.525 -19.645 -38.647  1.00  0.00     0.009 A 
HETATM    3  C   UNL     1     -26.662 -17.178 -41.146  1.00  0.00     0.011 C 
HETATM    4  C   UNL     1     -28.664 -20.458 -39.914  1.00  0.00     0.079 A 
HETATM    5  C   UNL     1     -26.001 -16.185 -41.853  1.00  0.00     0.001 C 
HETATM    6  C   UNL     1     -25.936 -18.266 -40.698  1.00  0.00    -0.006 A 
HETATM    7  C   UNL     1     -26.378 -19.446 -39.895  1.00  0.00     0.077 A 
HETATM    8  C   UNL     1     -25.073 -20.206 -39.682  1.00  0.00     0.154 A 
HETATM    9  C   UNL     1     -24.645 -16.263 -42.104  1.00  0.00     0.003 C 
HETATM   10  C   UNL     1     -24.567 -18.297 -40.881  1.00  0.00     0.076 A 
HETATM   11  O   UNL     1     -24.014 -19.408 -40.237  1.00  0.00    -0.343 OA
HETATM   12  C   UNL     1     -23.926 -17.355 -41.654  1.00  0.00     0.037 C 
HETATM   13  C   UNL     1     -27.130 -19.029 -38.626  1.00  0.00     0.025 A 
HETATM   14  C   UNL     1     -27.330 -20.344 -40.603  1.00  0.00     0.142 A 
ENDROOT
BRANCH   8  15
HETATM   15  C   UNL     1     -24.598 -20.999 -38.490  1.00  0.00     0.027 C 
HETATM   16  C   UNL     1     -23.359 -20.227 -38.044  1.00  0.00     0.044 C 
HETATM   17  C   UNL     1     -22.532 -21.302 -37.395  1.00  0.00    -0.006 C 
HETATM   18  C   UNL     1     -23.674 -19.273 -36.888  1.00  0.00     0.132 C 
HETATM   19  C   UNL     1     -22.965 -22.651 -37.885  1.00  0.00     0.041 C 
HETATM   20  C   UNL     1     -21.773 -20.572 -36.356  1.00  0.00     0.244 C 
HETATM   21  C   UNL     1     -24.145 -22.417 -38.827  1.00  0.00     0.012 C 
HETATM   22  N   UNL     1     -22.422 -19.361 -36.126  1.00  0.00    -0.357 N 
HETATM   23  O   UNL     1     -20.758 -20.911 -35.839  1.00  0.00    -0.268 OA
ATOM     24  HN  UNL     1     -22.073 -18.629 -35.507  1.00  0.00     0.162 HD
ENDBRANCH   8  15
TORSDOF 1
ENDMDL
MODEL 8
REMARK VINA RESULT:      -7.6      1.953      2.479
REMARK  1 active torsions:
REMARK  status: ('A' for Active; 'I' for Inactive)
REMARK    1  A    between atoms: C_10  and  C_12 
ROOT
HETATM    1  O   UNL     1     -27.502 -17.920 -39.704  1.00  0.00    -0.297 OA
HETATM    2  C   UNL     1     -24.892 -18.115 -42.123  1.00  0.00     0.009 A 
HETATM    3  C   UNL     1     -26.638 -21.442 -40.827  1.00  0.00     0.011 C 
HETATM    4  C   UNL     1     -26.220 -17.527 -41.707  1.00  0.00     0.079 A 
HETATM    5  C   UNL     1     -27.074 -22.702 -40.445  1.00  0.00     0.001 C 
HETATM    6  C   UNL     1     -26.124 -20.599 -39.860  1.00  0.00    -0.006 A 
HETATM    7  C   UNL     1     -25.559 -19.222 -39.994  1.00  0.00     0.077 A 
HETATM    8  C   UNL     1     -25.103 -18.915 -38.571  1.00  0.00     0.154 A 
HETATM    9  C   UNL     1     -26.993 -23.123 -39.132  1.00  0.00     0.003 C 
HETATM   10  C   UNL     1     -25.971 -21.056 -38.565  1.00  0.00     0.076 A 
HETATM   11  O   UNL     1     -25.311 -20.101 -37.786  1.00  0.00    -0.343 OA
HETATM   12  C   UNL     1     -26.479 -22.273 -38.171  1.00  0.00     0.037 C 
HETATM   13  C   UNL     1     -24.479 -19.147 -41.079  1.00  0.00     0.025 A 
HETATM   14  C   UNL     1     -26.553 -18.191 -40.398  1.00  0.00     0.142 A 
ENDROOT
BRANCH   8  15
HETATM   15  C   UNL     1     -23.905 -18.136 -38.086  1.00  0.00     0.027 C 
HETATM   16  C   UNL     1     -23.593 -17.225 -39.271  1.00  0.00     0.044 C 
HETATM   17  C   UNL     1     -22.114 -17.003 -39.118  1.00  0.00    -0.006 C 
HETATM   18  C   UNL     1     -24.187 -15.827 -39.080  1.00  0.00     0.132 C 
HETATM   19  C   UNL     1     -21.513 -18.090 -38.279  1.00  0.00     0.041 C 
HETATM   20  C   UNL     1     -21.909 -15.652 -39.688  1.00  0.00     0.244 C 
HETATM   21  C   UNL     1     -22.665 -18.991 -37.840  1.00  0.00     0.012 C 
HETATM   22  N   UNL     1     -23.145 -15.010 -39.717  1.00  0.00    -0.357 N 
HETATM   23  O   UNL     1     -20.894 -15.197 -40.105  1.00  0.00    -0.268 OA
ATOM     24  HN  UNL     1     -23.307 -14.091 -40.128  1.00  0.00     0.162 HD
ENDBRANCH   8  15
TORSDOF 1
ENDMDL
MODEL 9
REMARK VINA RESULT:      -7.4      3.228      6.405
REMARK  1 active torsions:
REMARK  status: ('A' for Active; 'I' for Inactive)
REMARK    1  A    between atoms: C_10  and  C_12 
ROOT
HETATM    1  O   UNL     1     -25.650 -18.209 -37.343  1.00  0.00    -0.297 OA
HETATM    2  C   UNL     1     -23.343 -20.608 -38.617  1.00  0.00     0.009 A 
HETATM    3  C   UNL     1     -24.161 -17.339 -40.726  1.00  0.00     0.011 C 
HETATM    4  C   UNL     1     -23.766 -19.705 -37.482  1.00  0.00     0.079 A 
HETATM    5  C   UNL     1     -24.373 -16.307 -41.628  1.00  0.00     0.001 C 
HETATM    6  C   UNL     1     -25.242 -18.104 -40.331  1.00  0.00    -0.006 A 
HETATM    7  C   UNL     1     -25.296 -19.281 -39.411  1.00  0.00     0.077 A 
HETATM    8  C   UNL     1     -26.764 -19.690 -39.487  1.00  0.00     0.154 A 
HETATM    9  C   UNL     1     -25.630 -16.044 -42.136  1.00  0.00     0.003 C 
HETATM   10  C   UNL     1     -26.480 -17.888 -40.905  1.00  0.00     0.076 A 
HETATM   11  O   UNL     1     -27.395 -18.852 -40.470  1.00  0.00    -0.343 OA
HETATM   12  C   UNL     1     -26.707 -16.813 -41.734  1.00  0.00     0.037 C 
HETATM   13  C   UNL     1     -24.277 -20.359 -39.797  1.00  0.00     0.025 A 
HETATM   14  C   UNL     1     -24.973 -18.965 -37.994  1.00  0.00     0.142 A 
ENDROOT
BRANCH   8  15
HETATM   15  C   UNL     1     -27.390 -21.062 -39.449  1.00  0.00     0.027 C 
HETATM   16  C   UNL     1     -26.628 -21.748 -38.316  1.00  0.00     0.044 C 
HETATM   17  C   UNL     1     -26.705 -23.195 -38.715  1.00  0.00    -0.006 C 
HETATM   18  C   UNL     1     -27.409 -21.698 -37.000  1.00  0.00     0.132 C 
HETATM   19  C   UNL     1     -26.987 -23.312 -40.183  1.00  0.00     0.041 C 
HETATM   20  C   UNL     1     -26.690 -23.910 -37.420  1.00  0.00     0.244 C 
HETATM   21  C   UNL     1     -27.155 -21.888 -40.710  1.00  0.00     0.012 C 
HETATM   22  N   UNL     1     -27.039 -22.998 -36.426  1.00  0.00    -0.357 N 
HETATM   23  O   UNL     1     -26.381 -25.042 -37.229  1.00  0.00    -0.268 OA
ATOM     24  HN  UNL     1     -27.038 -23.207 -35.427  1.00  0.00     0.162 HD
ENDBRANCH   8  15
TORSDOF 1
ENDMDL
