REMARK  0 active torsions:
REMARK  status: ('A' for Active; 'I' for Inactive)
ROOT
HETATM    1  C   UNL     1      18.712   8.123  -6.833  1.00  0.00     0.027 C 
HETATM    2  N   UNL     1      21.005   8.624  -9.411  1.00  0.00    -0.376 N 
ATOM      3  HN  UNL     1      21.950   8.939  -9.629  1.00  0.00     0.160 HD
HETATM    4  C   UNL     1      19.841   8.841 -10.256  1.00  0.00     0.160 C 
HETATM    5  C   UNL     1      20.649   7.934  -8.276  1.00  0.00     0.051 C 
HETATM    6  C   UNL     1      18.684   8.261  -9.464  1.00  0.00     0.051 C 
HETATM    7  C   UNL     1      17.439   9.042  -9.738  1.00  0.00     0.019 C 
HETATM    8  C   UNL     1      21.300   7.242  -7.263  1.00  0.00     0.117 C 
HETATM    9  N   UNL     1      20.679   7.001  -6.099  1.00  0.00    -0.373 N 
ATOM     10  HN  UNL     1      21.129   6.405  -5.405  1.00  0.00     0.164 HD
HETATM   11  C   UNL     1      19.215   8.036  -8.125  1.00  0.00    -0.022 C 
HETATM   12  C   UNL     1      19.461   7.537  -5.829  1.00  0.00     0.088 C 
HETATM   13  O   UNL     1      20.075  11.174 -10.865  1.00  0.00    -0.296 OA
HETATM   14  C   UNL     1      19.363  10.209 -10.633  1.00  0.00     0.150 C 
HETATM   15  C   UNL     1      17.848  10.270 -10.540  1.00  0.00     0.081 C 
ENDROOT
TORSDOF 0
