MODEL 1
REMARK VINA RESULT:     -10.8      0.000      0.000
REMARK  3 active torsions:
REMARK  status: ('A' for Active; 'I' for Inactive)
REMARK    1  A    between atoms: O_1  and  C_21 
REMARK    2  A    between atoms: C_12  and  C_15 
REMARK    3  A    between atoms: O_25  and  C_27 
ROOT
HETATM    1  C   UNL     1      30.565   2.511   6.114  1.00  0.00     0.078 C 
HETATM    2  C   UNL     1      27.153   3.127   4.302  1.00  0.00    -0.041 C 
HETATM    3  C   UNL     1      24.387   4.057   4.844  1.00  0.00     0.010 C 
HETATM    4  C   UNL     1      24.115   2.901   4.125  1.00  0.00    -0.003 C 
HETATM    5  C   UNL     1      29.471   3.184   5.289  1.00  0.00     0.045 C 
HETATM    6  C   UNL     1      24.992   2.007   3.534  1.00  0.00    -0.022 C 
HETATM    7  C   UNL     1      28.159   0.971   5.348  1.00  0.00    -0.036 C 
HETATM    8  C   UNL     1      26.394   2.449   3.150  1.00  0.00     0.066 C 
HETATM    9  C   UNL     1      28.178   2.408   4.987  1.00  0.00    -0.043 C 
HETATM   10  C   UNL     1      27.982   5.479   4.826  1.00  0.00     0.040 C 
HETATM   11  C   UNL     1      25.468   4.957   4.719  1.00  0.00    -0.023 C 
HETATM   12  C   UNL     1      26.322   7.336   4.373  1.00  0.00     0.037 C 
HETATM   13  C   UNL     1      27.572   6.920   5.142  1.00  0.00     0.007 C 
HETATM   14  C   UNL     1      30.543   0.984   6.045  1.00  0.00     0.206 C 
HETATM   15  C   UNL     1      26.831   4.509   4.611  1.00  0.00    -0.042 C 
HETATM   16  C   UNL     1      29.133   0.513   6.435  1.00  0.00     0.113 C 
HETATM   17  C   UNL     1      25.123   6.447   4.730  1.00  0.00     0.151 C 
HETATM   18  F   UNL     1      31.434   0.514   6.979  1.00  0.00    -0.212 F 
ENDROOT
BRANCH   7  19
HETATM   19  C   UNL     1      27.761  -0.190   4.438  1.00  0.00    -0.029 A 
HETATM   20  C   UNL     1      28.129  -0.269   3.110  1.00  0.00     0.012 A 
HETATM   21  C   UNL     1      27.790  -1.385   2.359  1.00  0.00     0.001 A 
HETATM   22  C   UNL     1      27.056  -2.414   2.930  1.00  0.00     0.000 A 
HETATM   23  C   UNL     1      26.698  -2.353   4.260  1.00  0.00     0.001 A 
HETATM   24  C   UNL     1      27.035  -1.234   5.010  1.00  0.00     0.012 A 
ENDBRANCH   7  19
BRANCH  14  25
HETATM   25  O   UNL     1      30.887   0.512   4.742  1.00  0.00    -0.361 OA
ATOM     26  HO  UNL     1      31.821   0.575   4.583  1.00  0.00     0.213 HD
ENDBRANCH  14  25
BRANCH  17  27
HETATM   27  O   UNL     1      24.088   6.649   3.752  1.00  0.00    -0.391 OA
ATOM     28  HO  UNL     1      23.459   7.251   4.132  1.00  0.00     0.210 HD
ENDBRANCH  17  27
TORSDOF 3
ENDMDL
MODEL 2
REMARK VINA RESULT:      -9.0      1.903      4.214
REMARK  3 active torsions:
REMARK  status: ('A' for Active; 'I' for Inactive)
REMARK    1  A    between atoms: O_1  and  C_21 
REMARK    2  A    between atoms: C_12  and  C_15 
REMARK    3  A    between atoms: O_25  and  C_27 
ROOT
HETATM    1  C   UNL     1      26.233  -0.907   3.210  1.00  0.00     0.078 C 
HETATM    2  C   UNL     1      26.694   2.627   4.822  1.00  0.00    -0.041 C 
HETATM    3  C   UNL     1      26.849   5.497   4.085  1.00  0.00     0.010 C 
HETATM    4  C   UNL     1      27.956   5.403   4.917  1.00  0.00    -0.003 C 
HETATM    5  C   UNL     1      25.916   0.408   3.917  1.00  0.00     0.045 C 
HETATM    6  C   UNL     1      28.427   4.316   5.632  1.00  0.00    -0.022 C 
HETATM    7  C   UNL     1      28.444   0.865   4.056  1.00  0.00    -0.036 C 
HETATM    8  C   UNL     1      27.488   3.184   6.015  1.00  0.00     0.066 C 
HETATM    9  C   UNL     1      27.066   1.370   4.257  1.00  0.00    -0.043 C 
HETATM   10  C   UNL     1      24.259   2.627   4.073  1.00  0.00     0.040 C 
HETATM   11  C   UNL     1      25.619   4.806   4.148  1.00  0.00    -0.023 C 
HETATM   12  C   UNL     1      23.070   4.855   4.260  1.00  0.00     0.037 C 
HETATM   13  C   UNL     1      23.089   3.487   3.586  1.00  0.00     0.007 C 
HETATM   14  C   UNL     1      27.657  -1.411   3.445  1.00  0.00     0.206 C 
HETATM   15  C   UNL     1      25.548   3.384   4.353  1.00  0.00    -0.042 C 
HETATM   16  C   UNL     1      28.627  -0.282   3.061  1.00  0.00     0.113 C 
HETATM   17  C   UNL     1      24.352   5.644   3.961  1.00  0.00     0.151 C 
HETATM   18  F   UNL     1      27.867  -2.473   2.600  1.00  0.00    -0.212 F 
ENDROOT
BRANCH   7  19
HETATM   19  C   UNL     1      29.583   0.900   5.073  1.00  0.00    -0.029 A 
HETATM   20  C   UNL     1      29.701  -0.008   6.106  1.00  0.00     0.012 A 
HETATM   21  C   UNL     1      30.799   0.041   6.953  1.00  0.00     0.001 A 
HETATM   22  C   UNL     1      31.768   1.019   6.786  1.00  0.00     0.000 A 
HETATM   23  C   UNL     1      31.668   1.920   5.747  1.00  0.00     0.001 A 
HETATM   24  C   UNL     1      30.568   1.873   4.901  1.00  0.00     0.012 A 
ENDBRANCH   7  19
BRANCH  14  25
HETATM   25  O   UNL     1      27.858  -1.803   4.803  1.00  0.00    -0.361 OA
ATOM     26  HO  UNL     1      27.899  -1.050   5.381  1.00  0.00     0.213 HD
ENDBRANCH  14  25
BRANCH  17  27
HETATM   27  O   UNL     1      24.440   6.752   4.874  1.00  0.00    -0.391 OA
ATOM     28  HO  UNL     1      24.492   6.388   5.750  1.00  0.00     0.210 HD
ENDBRANCH  17  27
TORSDOF 3
ENDMDL
