REMARK  1 active torsions:
REMARK  status: ('A' for Active; 'I' for Inactive)
REMARK    1  A    between atoms: C_12  and  C_20 
ROOT
HETATM    1  C   UNL     1     -27.230  34.306  11.291  1.00  0.00    -0.051 C 
HETATM    2  C   UNL     1     -29.226  33.706   9.567  1.00  0.00     0.039 C 
HETATM    3  C   UNL     1     -26.128  33.696  12.116  1.00  0.00     0.039 C 
HETATM    4  C   UNL     1     -31.016  32.206   9.694  1.00  0.00     0.062 C 
HETATM    5  C   UNL     1     -29.557  34.208  10.838  1.00  0.00    -0.025 C 
HETATM    6  N   UNL     1     -30.099  32.863   8.935  1.00  0.00    -0.369 N 
ATOM      7  HN  UNL     1     -30.063  32.731   7.924  1.00  0.00     0.165 HD
HETATM    8  C   UNL     1     -31.553  32.797  10.945  1.00  0.00     0.055 C 
HETATM    9  C   UNL     1     -25.024  33.384  11.104  1.00  0.00     0.009 C 
HETATM   10  C   UNL     1     -27.971  33.982   9.020  1.00  0.00     0.037 C 
HETATM   11  C   UNL     1     -30.995  34.163  11.282  1.00  0.00     0.041 C 
HETATM   12  C   UNL     1     -25.504  33.865   9.726  1.00  0.00     0.039 C 
HETATM   13  C   UNL     1     -26.945  34.224   9.922  1.00  0.00    -0.050 C 
HETATM   14  C   UNL     1     -28.526  34.552  11.715  1.00  0.00     0.017 C 
ENDROOT
BRANCH  11  15
HETATM   15  C   UNL     1     -31.979  35.274  10.940  1.00  0.00     0.029 C 
HETATM   16  C   UNL     1     -31.821  35.877   9.557  1.00  0.00     0.136 C 
HETATM   17  C   UNL     1     -32.980  35.703   8.626  1.00  0.00     0.079 C 
HETATM   18  O   UNL     1     -30.844  36.537   9.273  1.00  0.00    -0.297 OA
HETATM   19  C   UNL     1     -34.250  36.186   9.323  1.00  0.00     0.012 C 
HETATM   20  C   UNL     1     -34.201  36.004  10.833  1.00  0.00    -0.013 C 
HETATM   21  C   UNL     1     -33.394  37.072  11.584  1.00  0.00     0.006 C 
HETATM   22  C   UNL     1     -33.402  34.729  11.078  1.00  0.00     0.022 C 
HETATM   23  C   UNL     1     -32.031  36.457  11.885  1.00  0.00     0.018 C 
ENDBRANCH  11  15
TORSDOF 1
