MODEL 1
REMARK VINA RESULT:      -7.4      0.000      0.000
REMARK  2 active torsions:
REMARK  status: ('A' for Active; 'I' for Inactive)
REMARK    1  A    between atoms: C_5  and  O_10 
REMARK    2  A    between atoms: C_12  and  O_16 
ROOT
HETATM    1  N   UNL     1     -26.403  33.166  15.884  1.00  0.00    -0.398 N 
ATOM      2  HN  UNL     1     -26.022  32.225  15.973  1.00  0.00     0.158 HD
HETATM    3  C   UNL     1     -28.020  34.760  14.771  1.00  0.00     0.067 C 
HETATM    4  C   UNL     1     -31.384  34.141  10.860  1.00  0.00     0.013 C 
HETATM    5  C   UNL     1     -33.591  34.705  11.766  1.00  0.00     0.068 C 
HETATM    6  C   UNL     1     -27.896  35.473  17.214  1.00  0.00     0.005 C 
HETATM    7  C   UNL     1     -30.171  33.707  14.645  1.00  0.00     0.043 C 
HETATM    8  C   UNL     1     -30.898  35.771  12.625  1.00  0.00     0.109 C 
HETATM    9  C   UNL     1     -26.526  35.234  17.241  1.00  0.00     0.017 C 
HETATM   10  C   UNL     1     -32.098  36.495  12.609  1.00  0.00     0.102 C 
HETATM   11  C   UNL     1     -28.449  34.291  12.552  1.00  0.00     0.044 C 
HETATM   12  O   UNL     1     -29.951  35.859  13.663  1.00  0.00    -0.336 OA
HETATM   13  C   UNL     1     -29.045  34.885  11.282  1.00  0.00     0.044 C 
HETATM   14  C   UNL     1     -30.524  34.954  11.561  1.00  0.00    -0.022 C 
HETATM   15  C   UNL     1     -28.743  35.038  16.058  1.00  0.00    -0.071 C 
HETATM   16  C   UNL     1     -27.400  33.355  14.849  1.00  0.00     0.131 C 
HETATM   17  C   UNL     1     -29.223  34.609  13.840  1.00  0.00     0.077 C 
HETATM   18  C   UNL     1     -29.936  34.113  16.113  1.00  0.00     0.038 C 
HETATM   19  C   UNL     1     -32.735  34.057  10.875  1.00  0.00     0.037 C 
HETATM   20  C   UNL     1     -33.330  35.964  12.276  1.00  0.00     0.076 C 
HETATM   21  C   UNL     1     -25.933  34.061  16.718  1.00  0.00     0.083 C 
ENDROOT
BRANCH  10  22
HETATM   22  O   UNL     1     -31.987  37.841  12.805  1.00  0.00    -0.358 OA
ATOM     23  HO  UNL     1     -32.799  38.308  12.964  1.00  0.00     0.217 HD
ENDBRANCH  10  22
BRANCH   5  24
HETATM   24  O   UNL     1     -34.771  34.099  12.085  1.00  0.00    -0.361 OA
ATOM     25  HO  UNL     1     -35.375  34.562  12.654  1.00  0.00     0.217 HD
ENDBRANCH   5  24
TORSDOF 2
ENDMDL
MODEL 2
REMARK VINA RESULT:      -6.9      3.300      6.337
REMARK  2 active torsions:
REMARK  status: ('A' for Active; 'I' for Inactive)
REMARK    1  A    between atoms: C_5  and  O_10 
REMARK    2  A    between atoms: C_12  and  O_16 
ROOT
HETATM    1  N   UNL     1     -35.788  38.687  12.446  1.00  0.00    -0.398 N 
ATOM      2  HN  UNL     1     -36.055  39.336  11.705  1.00  0.00     0.158 HD
HETATM    3  C   UNL     1     -34.263  36.852  13.282  1.00  0.00     0.067 C 
HETATM    4  C   UNL     1     -30.396  34.231  11.006  1.00  0.00     0.013 C 
HETATM    5  C   UNL     1     -28.406  34.626  12.381  1.00  0.00     0.068 C 
HETATM    6  C   UNL     1     -34.773  38.319  15.301  1.00  0.00     0.005 C 
HETATM    7  C   UNL     1     -31.996  37.444  12.767  1.00  0.00     0.043 C 
HETATM    8  C   UNL     1     -31.297  34.591  13.258  1.00  0.00     0.109 C 
HETATM    9  C   UNL     1     -36.094  38.466  14.894  1.00  0.00     0.017 C 
HETATM   10  C   UNL     1     -30.206  34.148  14.017  1.00  0.00     0.102 C 
HETATM   11  C   UNL     1     -33.511  35.413  11.641  1.00  0.00     0.044 C 
HETATM   12  O   UNL     1     -32.367  35.333  13.792  1.00  0.00    -0.336 OA
HETATM   13  C   UNL     1     -32.845  34.060  11.429  1.00  0.00     0.044 C 
HETATM   14  C   UNL     1     -31.432  34.260  11.911  1.00  0.00    -0.022 C 
HETATM   15  C   UNL     1     -33.743  37.699  14.408  1.00  0.00    -0.071 C 
HETATM   16  C   UNL     1     -34.705  37.776  12.135  1.00  0.00     0.131 C 
HETATM   17  C   UNL     1     -32.946  36.237  12.807  1.00  0.00     0.077 C 
HETATM   18  C   UNL     1     -32.458  38.337  13.935  1.00  0.00     0.038 C 
HETATM   19  C   UNL     1     -29.058  34.317  11.186  1.00  0.00     0.037 C 
HETATM   20  C   UNL     1     -28.885  34.239  13.619  1.00  0.00     0.076 C 
HETATM   21  C   UNL     1     -36.466  38.776  13.564  1.00  0.00     0.083 C 
ENDROOT
BRANCH  10  22
HETATM   22  O   UNL     1     -30.509  33.462  15.157  1.00  0.00    -0.358 OA
ATOM     23  HO  UNL     1     -31.353  33.025  15.168  1.00  0.00     0.217 HD
ENDBRANCH  10  22
BRANCH   5  24
HETATM   24  O   UNL     1     -27.207  35.272  12.314  1.00  0.00    -0.361 OA
ATOM     25  HO  UNL     1     -26.518  34.889  11.783  1.00  0.00     0.217 HD
ENDBRANCH   5  24
TORSDOF 2
ENDMDL
MODEL 3
REMARK VINA RESULT:      -6.8      1.538      2.123
REMARK  2 active torsions:
REMARK  status: ('A' for Active; 'I' for Inactive)
REMARK    1  A    between atoms: C_5  and  O_10 
REMARK    2  A    between atoms: C_12  and  O_16 
ROOT
HETATM    1  N   UNL     1     -26.180  34.129  17.301  1.00  0.00    -0.398 N 
ATOM      2  HN  UNL     1     -25.421  33.490  17.536  1.00  0.00     0.158 HD
HETATM    3  C   UNL     1     -27.827  35.017  15.600  1.00  0.00     0.067 C 
HETATM    4  C   UNL     1     -28.524  33.977  10.557  1.00  0.00     0.013 C 
HETATM    5  C   UNL     1     -30.833  33.180  10.341  1.00  0.00     0.068 C 
HETATM    6  C   UNL     1     -29.051  35.020  17.834  1.00  0.00     0.005 C 
HETATM    7  C   UNL     1     -28.828  33.160  14.459  1.00  0.00     0.043 C 
HETATM    8  C   UNL     1     -29.711  35.103  12.382  1.00  0.00     0.109 C 
HETATM    9  C   UNL     1     -27.904  35.450  18.492  1.00  0.00     0.017 C 
HETATM   10  C   UNL     1     -30.995  35.158  11.825  1.00  0.00     0.102 C 
HETATM   11  C   UNL     1     -27.048  35.018  13.427  1.00  0.00     0.044 C 
HETATM   12  O   UNL     1     -29.443  35.340  13.744  1.00  0.00    -0.336 OA
HETATM   13  C   UNL     1     -27.328  35.581  12.040  1.00  0.00     0.044 C 
HETATM   14  C   UNL     1     -28.583  34.875  11.597  1.00  0.00    -0.022 C 
HETATM   15  C   UNL     1     -29.011  34.568  16.406  1.00  0.00    -0.071 C 
HETATM   16  C   UNL     1     -26.635  34.102  15.925  1.00  0.00     0.131 C 
HETATM   17  C   UNL     1     -28.292  34.579  14.211  1.00  0.00     0.077 C 
HETATM   18  C   UNL     1     -29.431  33.218  15.876  1.00  0.00     0.038 C 
HETATM   19  C   UNL     1     -29.500  33.272   9.937  1.00  0.00     0.037 C 
HETATM   20  C   UNL     1     -31.508  34.225  10.943  1.00  0.00     0.076 C 
HETATM   21  C   UNL     1     -26.627  34.879  18.279  1.00  0.00     0.083 C 
ENDROOT
BRANCH  10  22
HETATM   22  O   UNL     1     -31.711  36.292  12.081  1.00  0.00    -0.358 OA
ATOM     23  HO  UNL     1     -32.454  36.193  12.665  1.00  0.00     0.217 HD
ENDBRANCH  10  22
BRANCH   5  24
HETATM   24  O   UNL     1     -31.515  32.033  10.058  1.00  0.00    -0.361 OA
ATOM     25  HO  UNL     1     -31.029  31.217  10.022  1.00  0.00     0.217 HD
ENDBRANCH   5  24
TORSDOF 2
ENDMDL
MODEL 4
REMARK VINA RESULT:      -6.8      3.061      5.562
REMARK  2 active torsions:
REMARK  status: ('A' for Active; 'I' for Inactive)
REMARK    1  A    between atoms: C_5  and  O_10 
REMARK    2  A    between atoms: C_12  and  O_16 
ROOT
HETATM    1  N   UNL     1     -29.260  34.149  10.735  1.00  0.00    -0.398 N 
ATOM      2  HN  UNL     1     -28.406  34.433  10.257  1.00  0.00     0.158 HD
HETATM    3  C   UNL     1     -30.967  34.552  12.557  1.00  0.00     0.067 C 
HETATM    4  C   UNL     1     -31.228  38.076  16.366  1.00  0.00     0.013 C 
HETATM    5  C   UNL     1     -33.332  39.288  16.028  1.00  0.00     0.068 C 
HETATM    6  C   UNL     1     -32.269  33.664  10.556  1.00  0.00     0.005 C 
HETATM    7  C   UNL     1     -31.547  36.879  12.565  1.00  0.00     0.043 C 
HETATM    8  C   UNL     1     -32.687  36.433  15.280  1.00  0.00     0.109 C 
HETATM    9  C   UNL     1     -31.255  32.758  10.265  1.00  0.00     0.017 C 
HETATM   10  C   UNL     1     -33.932  36.903  15.717  1.00  0.00     0.102 C 
HETATM   11  C   UNL     1     -30.105  35.490  14.483  1.00  0.00     0.044 C 
HETATM   12  O   UNL     1     -32.531  35.504  14.234  1.00  0.00    -0.336 OA
HETATM   13  C   UNL     1     -30.425  35.756  15.948  1.00  0.00     0.044 C 
HETATM   14  C   UNL     1     -31.502  36.808  15.909  1.00  0.00    -0.022 C 
HETATM   15  C   UNL     1     -32.081  34.750  11.569  1.00  0.00    -0.071 C 
HETATM   16  C   UNL     1     -29.639  34.943  11.887  1.00  0.00     0.131 C 
HETATM   17  C   UNL     1     -31.279  35.701  13.515  1.00  0.00     0.077 C 
HETATM   18  C   UNL     1     -32.213  36.236  11.333  1.00  0.00     0.038 C 
HETATM   19  C   UNL     1     -32.024  39.163  16.498  1.00  0.00     0.037 C 
HETATM   20  C   UNL     1     -34.220  38.228  15.988  1.00  0.00     0.076 C 
HETATM   21  C   UNL     1     -29.884  33.110  10.236  1.00  0.00     0.083 C 
ENDROOT
BRANCH  10  22
HETATM   22  O   UNL     1     -34.860  35.949  16.020  1.00  0.00    -0.358 OA
ATOM     23  HO  UNL     1     -35.492  35.751  15.338  1.00  0.00     0.217 HD
ENDBRANCH  10  22
BRANCH   5  24
HETATM   24  O   UNL     1     -33.772  40.527  15.664  1.00  0.00    -0.361 OA
ATOM     25  HO  UNL     1     -34.709  40.668  15.593  1.00  0.00     0.217 HD
ENDBRANCH   5  24
TORSDOF 2
ENDMDL
MODEL 5
REMARK VINA RESULT:      -6.7      2.778      6.310
REMARK  2 active torsions:
REMARK  status: ('A' for Active; 'I' for Inactive)
REMARK    1  A    between atoms: C_5  and  O_10 
REMARK    2  A    between atoms: C_12  and  O_16 
ROOT
HETATM    1  N   UNL     1     -32.224  34.101  11.690  1.00  0.00    -0.398 N 
ATOM      2  HN  UNL     1     -33.227  33.920  11.707  1.00  0.00     0.158 HD
HETATM    3  C   UNL     1     -30.126  34.825  12.903  1.00  0.00     0.067 C 
HETATM    4  C   UNL     1     -29.325  36.597  17.721  1.00  0.00     0.013 C 
HETATM    5  C   UNL     1     -27.740  35.043  18.762  1.00  0.00     0.068 C 
HETATM    6  C   UNL     1     -29.413  32.974  11.303  1.00  0.00     0.005 C 
HETATM    7  C   UNL     1     -30.054  33.728  15.034  1.00  0.00     0.043 C 
HETATM    8  C   UNL     1     -28.012  35.742  15.835  1.00  0.00     0.109 C 
HETATM    9  C   UNL     1     -30.263  33.463  10.317  1.00  0.00     0.017 C 
HETATM   10  C   UNL     1     -26.813  35.453  16.499  1.00  0.00     0.102 C 
HETATM   11  C   UNL     1     -30.468  36.423  14.533  1.00  0.00     0.044 C 
HETATM   12  O   UNL     1     -28.318  35.274  14.544  1.00  0.00    -0.336 OA
HETATM   13  C   UNL     1     -29.740  37.432  15.411  1.00  0.00     0.044 C 
HETATM   14  C   UNL     1     -28.971  36.587  16.392  1.00  0.00    -0.022 C 
HETATM   15  C   UNL     1     -29.467  33.489  12.709  1.00  0.00    -0.071 C 
HETATM   16  C   UNL     1     -31.651  34.624  12.914  1.00  0.00     0.131 C 
HETATM   17  C   UNL     1     -29.750  35.077  14.363  1.00  0.00     0.077 C 
HETATM   18  C   UNL     1     -29.720  32.677  13.957  1.00  0.00     0.038 C 
HETATM   19  C   UNL     1     -28.765  35.990  18.793  1.00  0.00     0.037 C 
HETATM   20  C   UNL     1     -26.723  35.069  17.825  1.00  0.00     0.076 C 
HETATM   21  C   UNL     1     -31.607  33.833  10.566  1.00  0.00     0.083 C 
ENDROOT
BRANCH  10  22
HETATM   22  O   UNL     1     -25.667  35.711  15.805  1.00  0.00    -0.358 OA
ATOM     23  HO  UNL     1     -25.190  36.491  16.063  1.00  0.00     0.217 HD
ENDBRANCH  10  22
BRANCH   5  24
HETATM   24  O   UNL     1     -27.703  34.099  19.745  1.00  0.00    -0.361 OA
ATOM     25  HO  UNL     1     -28.131  34.293  20.571  1.00  0.00     0.217 HD
ENDBRANCH   5  24
TORSDOF 2
ENDMDL
MODEL 6
REMARK VINA RESULT:      -6.7      3.327      4.489
REMARK  2 active torsions:
REMARK  status: ('A' for Active; 'I' for Inactive)
REMARK    1  A    between atoms: C_5  and  O_10 
REMARK    2  A    between atoms: C_12  and  O_16 
ROOT
HETATM    1  N   UNL     1     -30.802  34.985  18.073  1.00  0.00    -0.398 N 
ATOM      2  HN  UNL     1     -31.725  35.384  18.244  1.00  0.00     0.158 HD
HETATM    3  C   UNL     1     -29.076  34.125  16.438  1.00  0.00     0.067 C 
HETATM    4  C   UNL     1     -29.197  33.430  11.290  1.00  0.00     0.013 C 
HETATM    5  C   UNL     1     -27.376  34.795  10.377  1.00  0.00     0.068 C 
HETATM    6  C   UNL     1     -27.775  35.329  18.268  1.00  0.00     0.005 C 
HETATM    7  C   UNL     1     -28.928  35.657  14.599  1.00  0.00     0.043 C 
HETATM    8  C   UNL     1     -27.542  33.492  13.097  1.00  0.00     0.109 C 
HETATM    9  C   UNL     1     -28.626  34.820  19.243  1.00  0.00     0.017 C 
HETATM   10  C   UNL     1     -26.376  33.657  12.339  1.00  0.00     0.102 C 
HETATM   11  C   UNL     1     -29.959  33.084  14.576  1.00  0.00     0.044 C 
HETATM   12  O   UNL     1     -27.599  33.691  14.490  1.00  0.00    -0.336 OA
HETATM   13  C   UNL     1     -29.593  32.179  13.406  1.00  0.00     0.044 C 
HETATM   14  C   UNL     1     -28.729  33.042  12.523  1.00  0.00    -0.022 C 
HETATM   15  C   UNL     1     -28.087  35.192  16.809  1.00  0.00    -0.071 C 
HETATM   16  C   UNL     1     -30.495  34.657  16.695  1.00  0.00     0.131 C 
HETATM   17  C   UNL     1     -28.913  34.154  14.918  1.00  0.00     0.077 C 
HETATM   18  C   UNL     1     -28.243  36.316  15.812  1.00  0.00     0.038 C 
HETATM   19  C   UNL     1     -28.605  34.137  10.299  1.00  0.00     0.037 C 
HETATM   20  C   UNL     1     -26.316  34.318  11.126  1.00  0.00     0.076 C 
HETATM   21  C   UNL     1     -30.036  34.829  19.124  1.00  0.00     0.083 C 
ENDROOT
BRANCH  10  22
HETATM   22  O   UNL     1     -25.272  32.990  12.786  1.00  0.00    -0.358 OA
ATOM     23  HO  UNL     1     -25.433  32.155  13.209  1.00  0.00     0.217 HD
ENDBRANCH  10  22
BRANCH   5  24
HETATM   24  O   UNL     1     -27.194  35.915   9.620  1.00  0.00    -0.361 OA
ATOM     25  HO  UNL     1     -26.327  36.301   9.590  1.00  0.00     0.217 HD
ENDBRANCH   5  24
TORSDOF 2
ENDMDL
MODEL 7
REMARK VINA RESULT:      -6.6      1.904      2.846
REMARK  2 active torsions:
REMARK  status: ('A' for Active; 'I' for Inactive)
REMARK    1  A    between atoms: C_5  and  O_10 
REMARK    2  A    between atoms: C_12  and  O_16 
ROOT
HETATM    1  N   UNL     1     -28.419  31.987  13.180  1.00  0.00    -0.398 N 
ATOM      2  HN  UNL     1     -28.627  30.998  13.041  1.00  0.00     0.158 HD
HETATM    3  C   UNL     1     -29.207  34.389  13.216  1.00  0.00     0.067 C 
HETATM    4  C   UNL     1     -33.779  36.572  12.063  1.00  0.00     0.013 C 
HETATM    5  C   UNL     1     -34.502  37.746  14.091  1.00  0.00     0.068 C 
HETATM    6  C   UNL     1     -27.505  34.177  15.101  1.00  0.00     0.005 C 
HETATM    7  C   UNL     1     -31.288  34.497  14.403  1.00  0.00     0.043 C 
HETATM    8  C   UNL     1     -31.679  37.181  13.173  1.00  0.00     0.109 C 
HETATM    9  C   UNL     1     -26.699  33.360  14.316  1.00  0.00     0.017 C 
HETATM   10  C   UNL     1     -32.103  38.327  13.859  1.00  0.00     0.102 C 
HETATM   11  C   UNL     1     -30.869  34.873  11.688  1.00  0.00     0.044 C 
HETATM   12  O   UNL     1     -30.471  36.513  13.447  1.00  0.00    -0.336 OA
HETATM   13  C   UNL     1     -31.589  36.029  11.008  1.00  0.00     0.044 C 
HETATM   14  C   UNL     1     -32.407  36.657  12.107  1.00  0.00    -0.022 C 
HETATM   15  C   UNL     1     -28.894  34.545  14.677  1.00  0.00    -0.071 C 
HETATM   16  C   UNL     1     -29.510  32.908  12.933  1.00  0.00     0.131 C 
HETATM   17  C   UNL     1     -30.568  35.084  13.179  1.00  0.00     0.077 C 
HETATM   18  C   UNL     1     -30.170  34.280  15.441  1.00  0.00     0.038 C 
HETATM   19  C   UNL     1     -34.726  37.097  12.876  1.00  0.00     0.037 C 
HETATM   20  C   UNL     1     -33.388  38.530  14.328  1.00  0.00     0.076 C 
HETATM   21  C   UNL     1     -27.198  32.272  13.561  1.00  0.00     0.083 C 
ENDROOT
BRANCH  10  22
HETATM   22  O   UNL     1     -31.202  39.349  13.930  1.00  0.00    -0.358 OA
ATOM     23  HO  UNL     1     -30.307  39.133  13.695  1.00  0.00     0.217 HD
ENDBRANCH  10  22
BRANCH   5  24
HETATM   24  O   UNL     1     -35.462  37.661  15.055  1.00  0.00    -0.361 OA
ATOM     25  HO  UNL     1     -35.429  38.276  15.779  1.00  0.00     0.217 HD
ENDBRANCH   5  24
TORSDOF 2
ENDMDL
MODEL 8
REMARK VINA RESULT:      -6.6      2.440      3.916
REMARK  2 active torsions:
REMARK  status: ('A' for Active; 'I' for Inactive)
REMARK    1  A    between atoms: C_5  and  O_10 
REMARK    2  A    between atoms: C_12  and  O_16 
ROOT
HETATM    1  N   UNL     1     -26.773  34.156  12.809  1.00  0.00    -0.398 N 
ATOM      2  HN  UNL     1     -26.015  34.530  12.238  1.00  0.00     0.158 HD
HETATM    3  C   UNL     1     -28.986  34.505  13.981  1.00  0.00     0.067 C 
HETATM    4  C   UNL     1     -31.973  38.711  14.601  1.00  0.00     0.013 C 
HETATM    5  C   UNL     1     -34.147  38.152  13.615  1.00  0.00     0.068 C 
HETATM    6  C   UNL     1     -29.038  32.126  13.070  1.00  0.00     0.005 C 
HETATM    7  C   UNL     1     -30.468  35.665  12.494  1.00  0.00     0.043 C 
HETATM    8  C   UNL     1     -32.140  36.281  14.880  1.00  0.00     0.109 C 
HETATM    9  C   UNL     1     -27.702  31.940  13.409  1.00  0.00     0.017 C 
HETATM   10  C   UNL     1     -33.534  36.150  14.942  1.00  0.00     0.102 C 
HETATM   11  C   UNL     1     -29.301  36.635  14.814  1.00  0.00     0.044 C 
HETATM   12  O   UNL     1     -31.265  35.197  14.683  1.00  0.00    -0.336 OA
HETATM   13  C   UNL     1     -30.170  37.448  15.765  1.00  0.00     0.044 C 
HETATM   14  C   UNL     1     -31.512  37.509  15.083  1.00  0.00    -0.022 C 
HETATM   15  C   UNL     1     -29.679  33.479  13.132  1.00  0.00    -0.071 C 
HETATM   16  C   UNL     1     -27.813  35.095  13.181  1.00  0.00     0.131 C 
HETATM   17  C   UNL     1     -30.057  35.596  13.973  1.00  0.00     0.077 C 
HETATM   18  C   UNL     1     -30.345  34.213  11.992  1.00  0.00     0.038 C 
HETATM   19  C   UNL     1     -33.149  39.041  14.018  1.00  0.00     0.037 C 
HETATM   20  C   UNL     1     -34.430  36.982  14.297  1.00  0.00     0.076 C 
HETATM   21  C   UNL     1     -26.690  32.886  13.121  1.00  0.00     0.083 C 
ENDROOT
BRANCH  10  22
HETATM   22  O   UNL     1     -34.008  35.216  15.817  1.00  0.00    -0.358 OA
ATOM     23  HO  UNL     1     -33.586  34.365  15.787  1.00  0.00     0.217 HD
ENDBRANCH  10  22
BRANCH   5  24
HETATM   24  O   UNL     1     -34.924  38.493  12.547  1.00  0.00    -0.361 OA
ATOM     25  HO  UNL     1     -35.044  39.416  12.355  1.00  0.00     0.217 HD
ENDBRANCH   5  24
TORSDOF 2
ENDMDL
MODEL 9
REMARK VINA RESULT:      -6.6      2.696      6.249
REMARK  2 active torsions:
REMARK  status: ('A' for Active; 'I' for Inactive)
REMARK    1  A    between atoms: C_5  and  O_10 
REMARK    2  A    between atoms: C_12  and  O_16 
ROOT
HETATM    1  N   UNL     1     -32.593  35.534  10.343  1.00  0.00    -0.398 N 
ATOM      2  HN  UNL     1     -32.435  35.946   9.424  1.00  0.00     0.158 HD
HETATM    3  C   UNL     1     -31.655  34.501  12.452  1.00  0.00     0.067 C 
HETATM    4  C   UNL     1     -26.816  33.231  13.853  1.00  0.00     0.013 C 
HETATM    5  C   UNL     1     -26.350  34.490  15.905  1.00  0.00     0.068 C 
HETATM    6  C   UNL     1     -33.650  35.907  13.183  1.00  0.00     0.005 C 
HETATM    7  C   UNL     1     -29.791  35.817  13.189  1.00  0.00     0.043 C 
HETATM    8  C   UNL     1     -29.019  33.501  14.894  1.00  0.00     0.109 C 
HETATM    9  C   UNL     1     -34.374  35.509  12.064  1.00  0.00     0.017 C 
HETATM   10  C   UNL     1     -28.633  33.583  16.238  1.00  0.00     0.102 C 
HETATM   11  C   UNL     1     -29.739  33.254  12.134  1.00  0.00     0.044 C 
HETATM   12  O   UNL     1     -30.300  33.856  14.429  1.00  0.00    -0.336 OA
HETATM   13  C   UNL     1     -28.838  32.224  12.805  1.00  0.00     0.044 C 
HETATM   14  C   UNL     1     -28.168  32.985  13.919  1.00  0.00    -0.022 C 
HETATM   15  C   UNL     1     -32.189  35.607  13.317  1.00  0.00    -0.071 C 
HETATM   16  C   UNL     1     -31.415  35.054  11.038  1.00  0.00     0.131 C 
HETATM   17  C   UNL     1     -30.261  34.360  13.063  1.00  0.00     0.077 C 
HETATM   18  C   UNL     1     -31.075  36.611  13.501  1.00  0.00     0.038 C 
HETATM   19  C   UNL     1     -25.978  33.823  14.736  1.00  0.00     0.037 C 
HETATM   20  C   UNL     1     -27.430  34.104  16.678  1.00  0.00     0.076 C 
HETATM   21  C   UNL     1     -33.837  35.500  10.755  1.00  0.00     0.083 C 
ENDROOT
BRANCH  10  22
HETATM   22  O   UNL     1     -29.460  32.975  17.136  1.00  0.00    -0.358 OA
ATOM     23  HO  UNL     1     -29.443  33.322  18.021  1.00  0.00     0.217 HD
ENDBRANCH  10  22
BRANCH   5  24
HETATM   24  O   UNL     1     -25.567  35.518  16.339  1.00  0.00    -0.361 OA
ATOM     25  HO  UNL     1     -25.757  35.903  17.187  1.00  0.00     0.217 HD
ENDBRANCH   5  24
TORSDOF 2
ENDMDL
