REMARK  2 active torsions:
REMARK  status: ('A' for Active; 'I' for Inactive)
REMARK    1  A    between atoms: C_1  and  O_4 
REMARK    2  A    between atoms: C_3  and  N_28 
REMARK       I    between atoms: C_17  and  N_28 
REMARK       I    between atoms: C_22  and  N_28 
ROOT
HETATM    1  C   UNL     1       6.662  23.925  28.000  1.00  0.00     0.076 C 
HETATM    2  C   UNL     1       6.601  21.937  26.647  1.00  0.00     0.051 C 
HETATM    3  C   UNL     1       4.089  19.663  27.056  1.00  0.00     0.296 C 
HETATM    4  O   UNL     1       3.307  20.550  26.421  1.00  0.00    -0.206 OA
HETATM    5  C   UNL     1       7.164  25.670  21.999  1.00  0.00     0.012 C 
HETATM    6  C   UNL     1       3.729  24.324  22.046  1.00  0.00    -0.023 C 
HETATM    7  C   UNL     1       7.343  24.821  24.672  1.00  0.00    -0.028 C 
HETATM    8  C   UNL     1       4.993  24.494  21.814  1.00  0.00     0.008 C 
HETATM    9  C   UNL     1       5.610  21.439  27.512  1.00  0.00     0.080 C 
HETATM   10  O   UNL     1       2.896  20.914  24.012  1.00  0.00    -0.624 OA
HETATM   11  C   UNL     1       8.343  25.644  24.116  1.00  0.00     0.012 C 
HETATM   12  O   UNL     1       5.339  20.086  27.516  1.00  0.00    -0.273 OA
HETATM   13  C   UNL     1       4.928  22.304  28.372  1.00  0.00     0.040 C 
HETATM   14  C   UNL     1       4.065  23.442  24.361  1.00  0.00     0.142 C 
HETATM   15  C   UNL     1       5.475  23.564  28.641  1.00  0.00     0.040 C 
HETATM   16  C   UNL     1       6.983  23.291  26.770  1.00  0.00     0.001 C 
HETATM   17  C   UNL     1       8.268  26.030  22.772  1.00  0.00     0.002 C 
HETATM   18  O   UNL     1       3.411  22.869  25.491  1.00  0.00    -0.284 OA
HETATM   19  C   UNL     1       6.070  24.890  24.024  1.00  0.00    -0.035 C 
HETATM   20  C   UNL     1       3.037  23.770  23.262  1.00  0.00     0.060 C 
HETATM   21  C   UNL     1       6.068  25.043  22.616  1.00  0.00    -0.029 C 
HETATM   22  O   UNL     1       1.261  21.719  25.815  1.00  0.00    -0.624 OA
HETATM   23  P   UNL     1       2.654  21.486  25.355  1.00  0.00     0.416 P 
HETATM   24  C   UNL     1       4.788  24.731  24.806  1.00  0.00     0.073 C 
HETATM   25  C   UNL     1       7.635  23.991  25.762  1.00  0.00     0.026 C 
ENDROOT
BRANCH   3  26
HETATM   26  N   UNL     1       3.589  18.385  27.427  1.00  0.00    -0.155 N 
HETATM   27  C   UNL     1       4.414  17.595  28.269  1.00  0.00     0.303 C 
HETATM   28  O   UNL     1       5.515  17.237  27.804  1.00  0.00    -0.629 OA
HETATM   29  O   UNL     1       3.994  17.263  29.395  1.00  0.00    -0.629 OA
HETATM   30  C   UNL     1       2.312  17.958  26.970  1.00  0.00     0.303 C 
HETATM   31  O   UNL     1       1.360  18.779  26.935  1.00  0.00    -0.629 OA
HETATM   32  O   UNL     1       2.166  16.798  26.569  1.00  0.00    -0.629 OA
ENDBRANCH   3  26
BRANCH   1  33
HETATM   33  O   UNL     1       7.564  24.736  28.577  1.00  0.00    -0.360 OA
ATOM     34  HO  UNL     1       8.371  24.982  28.141  1.00  0.00     0.217 HD
ENDBRANCH   1  33
TORSDOF 2
