REMARK  1 active torsions:
REMARK  status: ('A' for Active; 'I' for Inactive)
REMARK    1  A    between atoms: C_1  and  C_8 
ROOT
HETATM    1  C   UNL     1       3.586 -14.077 -15.876  1.00  0.00    -0.045 C 
HETATM    2  N   UNL     1       2.507 -14.567 -17.889  1.00  0.00    -0.062 N 
ATOM      3  HN1 UNL     1       2.807 -13.788 -18.475  1.00  0.00     0.278 HD
ATOM      4  HN2 UNL     1       1.707 -14.831 -18.464  1.00  0.00     0.278 HD
HETATM    5  C   UNL     1       2.821 -16.926 -17.230  1.00  0.00     0.111 C 
HETATM    6  C   UNL     1       1.503 -16.670 -16.565  1.00  0.00     0.131 C 
HETATM    7  C   UNL     1       4.437 -15.144 -16.577  1.00  0.00     0.070 C 
HETATM    8  C   UNL     1       2.163 -14.189 -16.486  1.00  0.00     0.222 C 
HETATM    9  C   UNL     1       3.529 -15.643 -17.719  1.00  0.00     0.197 C 
HETATM   10  C   UNL     1       1.279 -15.332 -15.887  1.00  0.00     0.116 C 
HETATM   11  O   UNL     1       0.707 -17.631 -16.423  1.00  0.00    -0.298 OA
ENDROOT
BRANCH   1  12
HETATM   12  C   UNL     1       3.886 -13.744 -14.414  1.00  0.00    -0.074 C 
HETATM   13  C   UNL     1       2.840 -13.192 -13.462  1.00  0.00     0.039 C 
HETATM   14  C   UNL     1       3.312 -12.543 -12.142  1.00  0.00    -0.009 C 
HETATM   15  C   UNL     1       4.770 -12.034 -12.219  1.00  0.00     0.017 C 
HETATM   16  C   UNL     1       3.185 -13.557 -10.984  1.00  0.00     0.012 C 
HETATM   17  C   UNL     1       5.695 -13.200 -12.592  1.00  0.00     0.059 C 
HETATM   18  C   UNL     1       5.652 -14.282 -11.490  1.00  0.00     0.131 C 
HETATM   19  C   UNL     1       5.328 -13.868 -13.928  1.00  0.00     0.046 C 
HETATM   20  O   UNL     1       6.683 -14.902 -11.241  1.00  0.00    -0.298 OA
HETATM   21  C   UNL     1       4.381 -14.450 -10.696  1.00  0.00     0.079 C 
ENDBRANCH   1  12
TORSDOF 1
