MODEL 1
REMARK VINA RESULT:      -7.2      0.000      0.000
REMARK  0 active torsions:
REMARK  status: ('A' for Active; 'I' for Inactive)
ROOT
HETATM    1  C   UNL     1      12.055  21.950 -13.404  1.00  0.00     0.003 C 
HETATM    2  C   UNL     1      11.830  23.436 -11.313  1.00  0.00     0.035 C 
HETATM    3  C   UNL     1      13.669  25.155 -10.901  1.00  0.00     0.067 C 
HETATM    4  C   UNL     1      12.709  23.797  -9.048  1.00  0.00     0.051 C 
HETATM    5  C   UNL     1      11.650  24.904 -13.217  1.00  0.00     0.007 C 
HETATM    6  C   UNL     1      14.272  23.581  -7.174  1.00  0.00     0.008 C 
HETATM    7  C   UNL     1      13.041  24.274 -13.165  1.00  0.00    -0.008 C 
HETATM    8  C   UNL     1      11.657  22.045 -11.939  1.00  0.00     0.031 C 
HETATM    9  C   UNL     1      13.241  23.912 -11.688  1.00  0.00     0.023 C 
HETATM   10  C   UNL     1      13.088  22.947 -13.923  1.00  0.00     0.005 C 
HETATM   11  N   UNL     1      11.715  23.286  -9.860  1.00  0.00    -0.379 N 
ATOM     12  HN  UNL     1      10.911  22.809  -9.452  1.00  0.00     0.160 HD
HETATM   13  C   UNL     1      14.705  24.888  -7.051  1.00  0.00     0.074 C 
HETATM   14  O   UNL     1      14.421  27.148  -6.939  1.00  0.00    -0.268 OA
HETATM   15  C   UNL     1      13.252  25.049  -9.469  1.00  0.00     0.039 C 
HETATM   16  N   UNL     1      13.325  26.114  -8.618  1.00  0.00    -0.325 N 
ATOM     17  HN  UNL     1      12.743  26.936  -8.786  1.00  0.00     0.169 HD
HETATM   18  C   UNL     1      14.171  26.089  -7.542  1.00  0.00     0.245 C 
HETATM   19  C   UNL     1      13.228  23.083  -7.956  1.00  0.00     0.031 C 
HETATM   20  C   UNL     1      10.886  24.437 -11.975  1.00  0.00     0.032 C 
ENDROOT
TORSDOF 0
ENDMDL
MODEL 2
REMARK VINA RESULT:      -7.1      1.825      3.013
REMARK  0 active torsions:
REMARK  status: ('A' for Active; 'I' for Inactive)
ROOT
HETATM    1  C   UNL     1      11.500  23.206 -12.587  1.00  0.00     0.003 C 
HETATM    2  C   UNL     1      13.230  23.460 -10.697  1.00  0.00     0.035 C 
HETATM    3  C   UNL     1      12.588  22.557  -8.399  1.00  0.00     0.067 C 
HETATM    4  C   UNL     1      13.758  24.738  -8.667  1.00  0.00     0.051 C 
HETATM    5  C   UNL     1      12.982  21.094 -11.083  1.00  0.00     0.007 C 
HETATM    6  C   UNL     1      13.344  26.232  -6.770  1.00  0.00     0.008 C 
HETATM    7  C   UNL     1      11.672  21.684 -10.566  1.00  0.00    -0.008 C 
HETATM    8  C   UNL     1      12.560  24.078 -11.933  1.00  0.00     0.031 C 
HETATM    9  C   UNL     1      12.097  22.943  -9.799  1.00  0.00     0.023 C 
HETATM   10  C   UNL     1      10.786  22.180 -11.709  1.00  0.00     0.005 C 
HETATM   11  N   UNL     1      13.971  24.525 -10.015  1.00  0.00    -0.379 N 
ATOM     12  HN  UNL     1      14.636  25.102 -10.530  1.00  0.00     0.160 HD
HETATM   13  C   UNL     1      13.532  25.361  -5.714  1.00  0.00     0.074 C 
HETATM   14  O   UNL     1      14.631  23.726  -4.565  1.00  0.00    -0.268 OA
HETATM   15  C   UNL     1      13.576  23.556  -7.887  1.00  0.00     0.039 C 
HETATM   16  N   UNL     1      14.315  23.324  -6.764  1.00  0.00    -0.325 N 
ATOM     17  HN  UNL     1      14.995  22.563  -6.753  1.00  0.00     0.169 HD
HETATM   18  C   UNL     1      14.154  24.105  -5.650  1.00  0.00     0.245 C 
HETATM   19  C   UNL     1      13.615  26.026  -8.124  1.00  0.00     0.031 C 
HETATM   20  C   UNL     1      14.023  22.216 -11.089  1.00  0.00     0.032 C 
ENDROOT
TORSDOF 0
ENDMDL
MODEL 3
REMARK VINA RESULT:      -6.2      3.491      4.809
REMARK  0 active torsions:
REMARK  status: ('A' for Active; 'I' for Inactive)
ROOT
HETATM    1  C   UNL     1      11.658  24.556 -12.115  1.00  0.00     0.003 C 
HETATM    2  C   UNL     1      11.829  22.815 -10.226  1.00  0.00     0.035 C 
HETATM    3  C   UNL     1      14.083  21.663  -9.904  1.00  0.00     0.067 C 
HETATM    4  C   UNL     1      11.940  20.403  -9.772  1.00  0.00     0.051 C 
HETATM    5  C   UNL     1      13.295  24.630  -9.618  1.00  0.00     0.007 C 
HETATM    6  C   UNL     1      12.250  18.025 -10.274  1.00  0.00     0.008 C 
HETATM    7  C   UNL     1      13.795  23.951 -10.892  1.00  0.00    -0.008 C 
HETATM    8  C   UNL     1      10.985  23.424 -11.355  1.00  0.00     0.031 C 
HETATM    9  C   UNL     1      13.217  22.532 -10.821  1.00  0.00     0.023 C 
HETATM   10  C   UNL     1      13.184  24.582 -12.144  1.00  0.00     0.005 C 
HETATM   11  N   UNL     1      11.188  21.562  -9.819  1.00  0.00    -0.379 N 
ATOM     12  HN  UNL     1      10.199  21.545  -9.572  1.00  0.00     0.160 HD
HETATM   13  C   UNL     1      13.373  17.750  -9.518  1.00  0.00     0.074 C 
HETATM   14  O   UNL     1      14.653  17.822  -7.632  1.00  0.00    -0.268 OA
HETATM   15  C   UNL     1      13.274  20.565  -9.291  1.00  0.00     0.039 C 
HETATM   16  N   UNL     1      13.762  19.793  -8.277  1.00  0.00    -0.325 N 
ATOM     17  HN  UNL     1      13.972  20.218  -7.373  1.00  0.00     0.169 HD
HETATM   18  C   UNL     1      13.971  18.452  -8.461  1.00  0.00     0.245 C 
HETATM   19  C   UNL     1      11.464  19.180 -10.272  1.00  0.00     0.031 C 
HETATM   20  C   UNL     1      12.073  23.848  -9.128  1.00  0.00     0.032 C 
ENDROOT
TORSDOF 0
ENDMDL
MODEL 4
REMARK VINA RESULT:      -6.0      4.196      5.492
REMARK  0 active torsions:
REMARK  status: ('A' for Active; 'I' for Inactive)
ROOT
HETATM    1  C   UNL     1      18.323  20.124  -9.612  1.00  0.00     0.003 C 
HETATM    2  C   UNL     1      15.756  20.172  -9.418  1.00  0.00     0.035 C 
HETATM    3  C   UNL     1      14.453  21.089 -11.411  1.00  0.00     0.067 C 
HETATM    4  C   UNL     1      13.833  21.661  -9.069  1.00  0.00     0.051 C 
HETATM    5  C   UNL     1      16.279  18.615 -11.182  1.00  0.00     0.007 C 
HETATM    6  C   UNL     1      12.618  23.784  -8.942  1.00  0.00     0.008 C 
HETATM    7  C   UNL     1      16.720  20.024 -11.574  1.00  0.00    -0.008 C 
HETATM    8  C   UNL     1      17.112  20.368  -8.725  1.00  0.00     0.031 C 
HETATM    9  C   UNL     1      15.824  20.950 -10.740  1.00  0.00     0.023 C 
HETATM   10  C   UNL     1      18.150  20.316 -11.116  1.00  0.00     0.005 C 
HETATM   11  N   UNL     1      14.725  20.744  -8.547  1.00  0.00    -0.379 N 
ATOM     12  HN  UNL     1      14.668  20.469  -7.566  1.00  0.00     0.160 HD
HETATM   13  C   UNL     1      11.719  23.626  -9.979  1.00  0.00     0.074 C 
HETATM   14  O   UNL     1      10.180  22.479 -11.211  1.00  0.00    -0.268 OA
HETATM   15  C   UNL     1      13.394  21.389 -10.400  1.00  0.00     0.039 C 
HETATM   16  N   UNL     1      12.066  21.344 -10.715  1.00  0.00    -0.325 N 
ATOM     17  HN  UNL     1      11.639  20.457 -10.981  1.00  0.00     0.169 HD
HETATM   18  C   UNL     1      11.303  22.481 -10.675  1.00  0.00     0.245 C 
HETATM   19  C   UNL     1      13.476  22.834  -8.385  1.00  0.00     0.031 C 
HETATM   20  C   UNL     1      15.574  18.712  -9.827  1.00  0.00     0.032 C 
ENDROOT
TORSDOF 0
ENDMDL
MODEL 5
REMARK VINA RESULT:      -5.9      3.555      4.517
REMARK  0 active torsions:
REMARK  status: ('A' for Active; 'I' for Inactive)
ROOT
HETATM    1  C   UNL     1      10.981  24.110 -11.719  1.00  0.00     0.003 C 
HETATM    2  C   UNL     1      12.215  22.683  -9.966  1.00  0.00     0.035 C 
HETATM    3  C   UNL     1      14.683  22.193 -10.390  1.00  0.00     0.067 C 
HETATM    4  C   UNL     1      13.131  20.444  -9.538  1.00  0.00     0.051 C 
HETATM    5  C   UNL     1      13.229  24.869  -9.906  1.00  0.00     0.007 C 
HETATM    6  C   UNL     1      13.918  18.188 -10.077  1.00  0.00     0.008 C 
HETATM    7  C   UNL     1      13.473  24.212 -11.262  1.00  0.00    -0.008 C 
HETATM    8  C   UNL     1      10.925  22.929 -10.762  1.00  0.00     0.031 C 
HETATM    9  C   UNL     1      13.366  22.707 -10.983  1.00  0.00     0.023 C 
HETATM   10  C   UNL     1      12.350  24.526 -12.251  1.00  0.00     0.005 C 
HETATM   11  N   UNL     1      12.111  21.357  -9.351  1.00  0.00    -0.379 N 
ATOM     12  HN  UNL     1      11.294  21.111  -8.791  1.00  0.00     0.160 HD
HETATM   13  C   UNL     1      15.252  18.294  -9.731  1.00  0.00     0.074 C 
HETATM   14  O   UNL     1      16.985  18.895  -8.375  1.00  0.00    -0.268 OA
HETATM   15  C   UNL     1      14.448  20.996  -9.527  1.00  0.00     0.039 C 
HETATM   16  N   UNL     1      15.424  20.488  -8.720  1.00  0.00    -0.325 N 
ATOM     17  HN  UNL     1      15.779  21.047  -7.943  1.00  0.00     0.169 HD
HETATM   18  C   UNL     1      15.930  19.235  -8.942  1.00  0.00     0.245 C 
HETATM   19  C   UNL     1      12.883  19.093  -9.833  1.00  0.00     0.031 C 
HETATM   20  C   UNL     1      12.492  23.855  -9.027  1.00  0.00     0.032 C 
ENDROOT
TORSDOF 0
ENDMDL
MODEL 6
REMARK VINA RESULT:      -5.9      4.436      6.181
REMARK  0 active torsions:
REMARK  status: ('A' for Active; 'I' for Inactive)
ROOT
HETATM    1  C   UNL     1      13.253  24.123  -8.463  1.00  0.00     0.003 C 
HETATM    2  C   UNL     1      13.445  21.639  -9.112  1.00  0.00     0.035 C 
HETATM    3  C   UNL     1      11.575  20.661 -10.547  1.00  0.00     0.067 C 
HETATM    4  C   UNL     1      12.550  19.402  -8.634  1.00  0.00     0.051 C 
HETATM    5  C   UNL     1      13.608  22.896 -11.162  1.00  0.00     0.007 C 
HETATM    6  C   UNL     1      10.983  17.742  -7.744  1.00  0.00     0.008 C 
HETATM    7  C   UNL     1      12.228  23.085 -10.536  1.00  0.00    -0.008 C 
HETATM    8  C   UNL     1      13.643  22.717  -8.036  1.00  0.00     0.031 C 
HETATM    9  C   UNL     1      12.027  21.834  -9.670  1.00  0.00     0.023 C 
HETATM   10  C   UNL     1      12.205  24.265  -9.564  1.00  0.00     0.005 C 
HETATM   11  N   UNL     1      13.556  20.333  -8.457  1.00  0.00    -0.379 N 
ATOM     12  HN  UNL     1      14.366  20.113  -7.878  1.00  0.00     0.160 HD
HETATM   13  C   UNL     1      10.528  17.168  -8.916  1.00  0.00     0.074 C 
HETATM   14  O   UNL     1      10.775  16.257 -10.993  1.00  0.00    -0.268 OA
HETATM   15  C   UNL     1      11.989  19.357  -9.946  1.00  0.00     0.039 C 
HETATM   16  N   UNL     1      11.895  18.184 -10.638  1.00  0.00    -0.325 N 
ATOM     17  HN  UNL     1      12.463  18.043 -11.473  1.00  0.00     0.169 HD
HETATM   18  C   UNL     1      11.045  17.195 -10.220  1.00  0.00     0.245 C 
HETATM   19  C   UNL     1      12.038  18.640  -7.571  1.00  0.00     0.031 C 
HETATM   20  C   UNL     1      14.374  21.893 -10.296  1.00  0.00     0.032 C 
ENDROOT
TORSDOF 0
ENDMDL
MODEL 7
REMARK VINA RESULT:      -5.9      3.930      5.086
REMARK  0 active torsions:
REMARK  status: ('A' for Active; 'I' for Inactive)
ROOT
HETATM    1  C   UNL     1      13.326  24.895 -11.560  1.00  0.00     0.003 C 
HETATM    2  C   UNL     1      13.213  22.366 -11.087  1.00  0.00     0.035 C 
HETATM    3  C   UNL     1      13.659  21.608  -8.692  1.00  0.00     0.067 C 
HETATM    4  C   UNL     1      14.590  20.381 -10.647  1.00  0.00     0.051 C 
HETATM    5  C   UNL     1      11.411  23.376  -9.844  1.00  0.00     0.007 C 
HETATM    6  C   UNL     1      16.604  19.118 -10.054  1.00  0.00     0.008 C 
HETATM    7  C   UNL     1      12.757  23.866  -9.314  1.00  0.00    -0.008 C 
HETATM    8  C   UNL     1      13.632  23.488 -12.049  1.00  0.00     0.031 C 
HETATM    9  C   UNL     1      13.746  22.759  -9.701  1.00  0.00     0.023 C 
HETATM   10  C   UNL     1      13.233  25.117 -10.053  1.00  0.00     0.005 C 
HETATM   11  N   UNL     1      13.851  21.129 -11.543  1.00  0.00    -0.379 N 
ATOM     12  HN  UNL     1      13.752  20.824 -12.512  1.00  0.00     0.160 HD
HETATM   13  C   UNL     1      16.195  18.526  -8.874  1.00  0.00     0.074 C 
HETATM   14  O   UNL     1      14.733  17.395  -7.537  1.00  0.00    -0.268 OA
HETATM   15  C   UNL     1      14.052  20.313  -9.326  1.00  0.00     0.039 C 
HETATM   16  N   UNL     1      13.852  19.116  -8.701  1.00  0.00    -0.325 N 
ATOM     17  HN  UNL     1      12.901  18.798  -8.511  1.00  0.00     0.169 HD
HETATM   18  C   UNL     1      14.916  18.338  -8.328  1.00  0.00     0.245 C 
HETATM   19  C   UNL     1      15.836  19.825 -10.981  1.00  0.00     0.031 C 
HETATM   20  C   UNL     1      11.694  22.338 -10.934  1.00  0.00     0.032 C 
ENDROOT
TORSDOF 0
ENDMDL
MODEL 8
REMARK VINA RESULT:      -5.9      3.190      5.779
REMARK  0 active torsions:
REMARK  status: ('A' for Active; 'I' for Inactive)
ROOT
HETATM    1  C   UNL     1      13.512  24.850  -8.173  1.00  0.00     0.003 C 
HETATM    2  C   UNL     1      12.836  24.153 -10.558  1.00  0.00     0.035 C 
HETATM    3  C   UNL     1      13.971  22.087 -11.533  1.00  0.00     0.067 C 
HETATM    4  C   UNL     1      13.592  24.136 -12.894  1.00  0.00     0.051 C 
HETATM    5  C   UNL     1      12.108  22.381  -9.095  1.00  0.00     0.007 C 
HETATM    6  C   UNL     1      15.180  24.300 -14.754  1.00  0.00     0.008 C 
HETATM    7  C   UNL     1      13.631  22.485  -9.079  1.00  0.00    -0.008 C 
HETATM    8  C   UNL     1      13.143  25.296  -9.579  1.00  0.00     0.031 C 
HETATM    9  C   UNL     1      13.983  23.141 -10.421  1.00  0.00     0.023 C 
HETATM   10  C   UNL     1      14.119  23.460  -8.006  1.00  0.00     0.005 C 
HETATM   11  N   UNL     1      12.818  24.718 -11.909  1.00  0.00    -0.379 N 
ATOM     12  HN  UNL     1      12.241  25.533 -12.120  1.00  0.00     0.160 HD
HETATM   13  C   UNL     1      15.133  23.008 -15.243  1.00  0.00     0.074 C 
HETATM   14  O   UNL     1      14.081  21.101 -15.921  1.00  0.00    -0.268 OA
HETATM   15  C   UNL     1      13.653  22.710 -12.854  1.00  0.00     0.039 C 
HETATM   16  N   UNL     1      13.372  21.955 -13.956  1.00  0.00    -0.325 N 
ATOM     17  HN  UNL     1      12.537  21.370 -13.968  1.00  0.00     0.169 HD
HETATM   18  C   UNL     1      14.201  21.978 -15.046  1.00  0.00     0.245 C 
HETATM   19  C   UNL     1      14.355  24.895 -13.797  1.00  0.00     0.031 C 
HETATM   20  C   UNL     1      11.586  23.396 -10.115  1.00  0.00     0.032 C 
ENDROOT
TORSDOF 0
ENDMDL
MODEL 9
REMARK VINA RESULT:      -5.7      3.923      4.751
REMARK  0 active torsions:
REMARK  status: ('A' for Active; 'I' for Inactive)
ROOT
HETATM    1  C   UNL     1      12.215  23.990 -12.455  1.00  0.00     0.003 C 
HETATM    2  C   UNL     1      13.306  21.922 -11.374  1.00  0.00     0.035 C 
HETATM    3  C   UNL     1      14.694  22.304  -9.267  1.00  0.00     0.067 C 
HETATM    4  C   UNL     1      15.446  20.757 -11.066  1.00  0.00     0.051 C 
HETATM    5  C   UNL     1      11.688  22.749  -9.789  1.00  0.00     0.007 C 
HETATM    6  C   UNL     1      17.879  20.472 -11.063  1.00  0.00     0.008 C 
HETATM    7  C   UNL     1      12.798  23.778  -9.996  1.00  0.00    -0.008 C 
HETATM    8  C   UNL     1      12.924  22.660 -12.665  1.00  0.00     0.031 C 
HETATM    9  C   UNL     1      14.000  22.952 -10.471  1.00  0.00     0.023 C 
HETATM   10  C   UNL     1      12.476  24.732 -11.146  1.00  0.00     0.005 C 
HETATM   11  N   UNL     1      14.240  20.852 -11.733  1.00  0.00    -0.379 N 
ATOM     12  HN  UNL     1      14.003  20.186 -12.468  1.00  0.00     0.160 HD
HETATM   13  C   UNL     1      18.112  20.284  -9.713  1.00  0.00     0.074 C 
HETATM   14  O   UNL     1      17.705  19.373  -7.662  1.00  0.00    -0.268 OA
HETATM   15  C   UNL     1      15.390  21.044  -9.669  1.00  0.00     0.039 C 
HETATM   16  N   UNL     1      15.895  20.175  -8.745  1.00  0.00    -0.325 N 
ATOM     17  HN  UNL     1      15.262  19.689  -8.109  1.00  0.00     0.169 HD
HETATM   18  C   UNL     1      17.243  19.950  -8.663  1.00  0.00     0.245 C 
HETATM   19  C   UNL     1      16.656  20.510 -11.735  1.00  0.00     0.031 C 
HETATM   20  C   UNL     1      12.051  21.508 -10.608  1.00  0.00     0.032 C 
ENDROOT
TORSDOF 0
ENDMDL
