MODEL 1
REMARK VINA RESULT:     -15.0      0.000      0.000
REMARK  3 active torsions:
REMARK  status: ('A' for Active; 'I' for Inactive)
REMARK    1  A    between atoms: C_7  and  O_36 
REMARK    2  A    between atoms: C_12  and  C_38 
REMARK    3  A    between atoms: O_22  and  C_27 
ROOT
HETATM    1  C   UNL     1      37.100 -30.430  -1.259  1.00  0.00    -0.019 C 
HETATM    2  N   UNL     1      33.279 -33.326  -2.093  1.00  0.00    -0.337 N 
ATOM      3  HN  UNL     1      32.707 -34.017  -2.579  1.00  0.00     0.168 HD
HETATM    4  C   UNL     1      36.993 -28.184  -2.808  1.00  0.00     0.096 C 
HETATM    5  C   UNL     1      39.403 -30.824  -2.553  1.00  0.00     0.027 C 
HETATM    6  C   UNL     1      41.951 -31.574  -3.386  1.00  0.00     0.147 C 
HETATM    7  C   UNL     1      38.185 -30.129  -2.064  1.00  0.00    -0.036 C 
HETATM    8  C   UNL     1      35.422 -31.802  -0.583  1.00  0.00    -0.054 C 
HETATM    9  C   UNL     1      34.882 -33.126  -0.196  1.00  0.00     0.138 C 
HETATM   10  C   UNL     1      40.960 -32.636  -2.896  1.00  0.00     0.035 C 
HETATM   11  C   UNL     1      34.185 -33.895  -1.266  1.00  0.00     0.225 C 
HETATM   12  C   UNL     1      32.951 -32.054  -2.431  1.00  0.00     0.092 C 
HETATM   13  C   UNL     1      33.620 -30.881  -2.121  1.00  0.00     0.031 C 
HETATM   14  C   UNL     1      36.777 -31.394  -0.167  1.00  0.00     0.077 C 
HETATM   15  C   UNL     1      40.456 -29.705  -2.634  1.00  0.00     0.038 C 
HETATM   16  C   UNL     1      38.208 -28.850  -2.635  1.00  0.00    -0.026 C 
HETATM   17  C   UNL     1      41.307 -30.238  -3.809  1.00  0.00     0.152 C 
HETATM   18  C   UNL     1      39.955 -32.079  -1.896  1.00  0.00     0.012 C 
HETATM   19  C   UNL     1      34.862 -30.834  -1.441  1.00  0.00    -0.004 C 
HETATM   20  N   UNL     1      35.841 -28.651  -2.279  1.00  0.00    -0.364 N 
ATOM     21  HN  UNL     1      34.987 -28.094  -2.289  1.00  0.00     0.165 HD
HETATM   22  O   UNL     1      34.452 -35.108  -1.377  1.00  0.00    -0.273 OA
HETATM   23  C   UNL     1      35.869 -29.888  -1.735  1.00  0.00     0.049 C 
HETATM   24  C   UNL     1      39.613 -28.463  -2.994  1.00  0.00     0.061 C 
ENDROOT
BRANCH  24  25
HETATM   25  C   UNL     1      40.007 -27.116  -2.419  1.00  0.00    -0.038 C 
HETATM   26  C   UNL     1      40.762 -26.234  -3.226  1.00  0.00    -0.019 C 
HETATM   27  C   UNL     1      41.448 -25.182  -2.575  1.00  0.00    -0.025 C 
HETATM   28  C   UNL     1      40.850 -26.306  -4.629  1.00  0.00     0.013 C 
HETATM   29  C   UNL     1      40.928 -24.686  -1.374  1.00  0.00     0.012 C 
HETATM   30  C   UNL     1      42.600 -24.677  -3.188  1.00  0.00     0.012 C 
HETATM   31  C   UNL     1      40.000 -25.445  -0.674  1.00  0.00     0.001 C 
HETATM   32  C   UNL     1      39.574 -26.676  -1.161  1.00  0.00     0.009 C 
HETATM   33  C   UNL     1      42.683 -24.736  -4.587  1.00  0.00     0.001 C 
HETATM   34  C   UNL     1      41.804 -25.549  -5.302  1.00  0.00     0.001 C 
ENDBRANCH  24  25
BRANCH  17  35
HETATM   35  O   UNL     1      42.323 -29.301  -4.142  1.00  0.00    -0.393 OA
ATOM     36  HO  UNL     1      41.943 -28.572  -4.619  1.00  0.00     0.210 HD
ENDBRANCH  17  35
BRANCH   6  37
HETATM   37  O   UNL     1      42.582 -32.113  -4.550  1.00  0.00    -0.393 OA
ATOM     38  HO  UNL     1      42.041 -31.864  -5.290  1.00  0.00     0.210 HD
ENDBRANCH   6  37
TORSDOF 3
ENDMDL
