REMARK  1 active torsions:
REMARK  status: ('A' for Active; 'I' for Inactive)
REMARK    1  A    between atoms: C_10  and  O_11 
ROOT
HETATM    1  C   UNL     1      -0.759  64.968  23.550  1.00  0.00     0.034 C 
HETATM    2  C   UNL     1      -2.153  65.455  23.182  1.00  0.00     0.027 C 
HETATM    3  C   UNL     1      -1.834  64.107  25.744  1.00  0.00     0.018 C 
HETATM    4  C   UNL     1      -3.556  65.992  26.047  1.00  0.00     0.114 C 
HETATM    5  N   UNL     1      -4.046  65.761  24.701  1.00  0.00    -0.417 N 
ATOM      6  HN  UNL     1      -4.857  66.265  24.342  1.00  0.00     0.153 HD
HETATM    7  C   UNL     1      -2.244  65.378  26.494  1.00  0.00     0.026 C 
HETATM    8  C   UNL     1      -2.910  63.624  24.771  1.00  0.00     0.032 C 
HETATM    9  C   UNL     1      -3.339  64.780  23.874  1.00  0.00     0.077 C 
HETATM   10  C   UNL     1      -0.573  64.518  24.971  1.00  0.00     0.122 C 
ENDROOT
BRANCH  10  11
HETATM   11  O   UNL     1       0.526  63.714  25.233  1.00  0.00    -0.395 OA
ATOM     12  HO  UNL     1       0.644  63.429  26.132  1.00  0.00     0.210 HD
ENDBRANCH  10  11
TORSDOF 1
