REMARK  7 active torsions:
REMARK  status: ('A' for Active; 'I' for Inactive)
REMARK    1  A    between atoms: O_3  and  C_31 
REMARK    2  A    between atoms: C_10  and  C_31 
REMARK    3  A    between atoms: C_14  and  O_20 
REMARK    4  A    between atoms: C_14  and  O_22 
REMARK    5  A    between atoms: C_14  and  O_25 
REMARK    6  A    between atoms: C_14  and  C_31 
REMARK    7  A    between atoms: O_15  and  C_32 
ROOT
HETATM    1  C   UNL     1     138.975 145.769-273.032  1.00  0.00     0.259 C 
HETATM    2  O   UNL     1     136.089 146.828-271.698  1.00  0.00    -0.279 OA
HETATM    3  C   UNL     1     136.686 144.162-273.412  1.00  0.00     0.042 C 
HETATM    4  C   UNL     1     136.626 147.237-269.342  1.00  0.00     0.092 C 
HETATM    5  C   UNL     1     140.602 145.679-269.653  1.00  0.00     0.027 C 
HETATM    6  O   UNL     1     137.903 146.261-273.801  1.00  0.00    -0.313 OA
HETATM    7  C   UNL     1     139.562 145.197-270.649  1.00  0.00     0.013 C 
HETATM    8  C   UNL     1     136.985 145.306-274.385  1.00  0.00     0.169 C 
HETATM    9  C   UNL     1     136.081 147.772-270.612  1.00  0.00     0.302 C 
HETATM   10  C   UNL     1     135.945 145.009-270.074  1.00  0.00     0.034 C 
HETATM   11  C   UNL     1     136.325 145.907-269.050  1.00  0.00     0.024 C 
HETATM   12  C   UNL     1     140.147 145.525-268.233  1.00  0.00    -0.024 C 
HETATM   13  O   UNL     1     139.686 144.877-273.481  1.00  0.00    -0.265 OA
HETATM   14  C   UNL     1     139.017 146.015-267.761  1.00  0.00     0.036 C 
HETATM   15  O   UNL     1     137.324 149.244-268.269  1.00  0.00    -0.284 OA
HETATM   16  C   UNL     1     139.168 146.281-271.631  1.00  0.00     0.111 C 
HETATM   17  C   UNL     1     135.847 145.453-271.381  1.00  0.00     0.057 C 
HETATM   18  C   UNL     1     135.523 144.452-272.457  1.00  0.00     0.068 C 
HETATM   19  O   UNL     1     135.539 148.841-270.728  1.00  0.00    -0.259 OA
HETATM   20  C   UNL     1     138.483 147.309-267.512  1.00  0.00     0.116 C 
HETATM   21  C   UNL     1     137.483 148.036-268.409  1.00  0.00     0.221 C 
ENDROOT
BRANCH   8  22
HETATM   22  C   UNL     1     135.674 146.053-274.695  1.00  0.00     0.240 C 
BRANCH  22  23
HETATM   23  O   UNL     1     134.787 145.085-275.262  1.00  0.00    -0.385 OA
ATOM     24  HO  UNL     1     133.978 145.546-275.453  1.00  0.00     0.210 HD
ENDBRANCH  22  23
BRANCH  22  25
HETATM   25  C   UNL     1     135.888 147.250-275.654  1.00  0.00     0.305 C 
BRANCH  25  26
HETATM   26  O   UNL     1     135.963 148.374-274.855  1.00  0.00    -0.341 OA
ATOM     27  HO  UNL     1     136.711 148.285-274.276  1.00  0.00     0.215 HD
ENDBRANCH  25  26
BRANCH  25  28
HETATM   28  O   UNL     1     134.790 147.381-276.503  1.00  0.00    -0.341 OA
ATOM     29  HO  UNL     1     134.738 146.608-277.053  1.00  0.00     0.215 HD
ENDBRANCH  25  28
BRANCH  25  30
HETATM   30  O   UNL     1     137.022 147.046-276.456  1.00  0.00    -0.341 OA
ATOM     31  HO  UNL     1     136.970 146.273-277.006  1.00  0.00     0.215 HD
ENDBRANCH  25  30
ENDBRANCH  22  25
ENDBRANCH   8  22
BRANCH  20  32
HETATM   32  O   UNL     1     138.775 147.880-266.371  1.00  0.00    -0.357 OA
ATOM     33  HO  UNL     1     138.418 148.745-266.205  1.00  0.00     0.218 HD
ENDBRANCH  20  32
TORSDOF 7
