MODEL 1
REMARK VINA RESULT:      -6.6      0.000      0.000
REMARK  2 active torsions:
REMARK  status: ('A' for Active; 'I' for Inactive)
REMARK    1  A    between atoms: C_4  and  C_20 
REMARK    2  A    between atoms: O_17  and  C_19 
ROOT
HETATM    1  C   UNL     1     132.609 149.824-279.566  1.00  0.00     0.020 C 
HETATM    2  C   UNL     1     136.177 151.896-277.695  1.00  0.00     0.099 C 
HETATM    3  O   UNL     1     131.067 151.877-277.213  1.00  0.00    -0.259 OA
HETATM    4  C   UNL     1     137.150 149.727-277.059  1.00  0.00     0.105 C 
HETATM    5  C   UNL     1     134.583 152.860-280.359  1.00  0.00     0.031 C 
HETATM    6  C   UNL     1     136.495 151.169-280.526  1.00  0.00     0.010 C 
HETATM    7  C   UNL     1     132.657 150.355-278.257  1.00  0.00     0.040 C 
HETATM    8  C   UNL     1     132.462 150.693-280.641  1.00  0.00     0.035 C 
HETATM    9  O   UNL     1     134.185 154.541-278.719  1.00  0.00    -0.268 OA
HETATM   10  C   UNL     1     136.731 150.709-278.135  1.00  0.00    -0.030 C 
HETATM   11  C   UNL     1     135.346 148.029-277.651  1.00  0.00     0.033 C 
HETATM   12  C   UNL     1     134.321 148.745-277.179  1.00  0.00     0.002 C 
HETATM   13  C   UNL     1     136.888 150.372-279.488  1.00  0.00    -0.033 C 
HETATM   14  C   UNL     1     135.537 152.039-280.881  1.00  0.00     0.014 C 
HETATM   15  C   UNL     1     136.851 148.283-277.513  1.00  0.00     0.151 C 
HETATM   16  C   UNL     1     133.306 153.003-281.040  1.00  0.00     0.182 C 
HETATM   17  C   UNL     1     131.860 151.639-278.093  1.00  0.00     0.298 C 
HETATM   18  C   UNL     1     134.809 153.530-279.031  1.00  0.00     0.252 C 
HETATM   19  N   UNL     1     135.730 153.025-278.163  1.00  0.00    -0.333 N 
ATOM     20  HN  UNL     1     136.244 153.795-277.734  1.00  0.00     0.168 HD
HETATM   21  C   UNL     1     137.521 149.052-279.848  1.00  0.00     0.156 C 
HETATM   22  C   UNL     1     133.425 149.787-277.233  1.00  0.00     0.017 C 
HETATM   23  O   UNL     1     131.928 152.529-279.158  1.00  0.00    -0.278 OA
HETATM   24  C   UNL     1     132.446 152.091-280.361  1.00  0.00     0.076 C 
HETATM   25  N   UNL     1     137.555 148.040-278.795  1.00  0.00    -0.384 N 
ATOM     26  HN  UNL     1     138.063 147.168-278.941  1.00  0.00     0.156 HD
ENDROOT
BRANCH  16  27
HETATM   27  C   UNL     1     132.688 154.346-281.234  1.00  0.00     0.188 C 
HETATM   28  O   UNL     1     133.354 155.359-281.426  1.00  0.00    -0.647 OA
HETATM   29  O   UNL     1     131.399 154.360-281.252  1.00  0.00    -0.647 OA
ENDBRANCH  16  27
BRANCH  15  30
HETATM   30  O   UNL     1     137.393 147.372-276.576  1.00  0.00    -0.367 OA
ATOM     31  HO  UNL     1     136.750 147.191-275.900  1.00  0.00     0.213 HD
ENDBRANCH  15  30
TORSDOF 2
ENDMDL
MODEL 2
REMARK VINA RESULT:      -4.8      8.252     11.043
REMARK  2 active torsions:
REMARK  status: ('A' for Active; 'I' for Inactive)
REMARK    1  A    between atoms: C_4  and  C_20 
REMARK    2  A    between atoms: O_17  and  C_19 
ROOT
HETATM    1  C   UNL     1     139.722 146.221-271.787  1.00  0.00     0.020 C 
HETATM    2  C   UNL     1     135.885 145.578-269.465  1.00  0.00     0.099 C 
HETATM    3  O   UNL     1     139.352 142.765-271.997  1.00  0.00    -0.259 OA
HETATM    4  C   UNL     1     136.869 146.642-267.475  1.00  0.00     0.105 C 
HETATM    5  C   UNL     1     136.113 146.276-272.632  1.00  0.00     0.031 C 
HETATM    6  C   UNL     1     136.072 148.146-270.886  1.00  0.00     0.010 C 
HETATM    7  C   UNL     1     139.360 145.034-271.111  1.00  0.00     0.040 C 
HETATM    8  C   UNL     1     139.126 146.510-273.009  1.00  0.00     0.035 C 
HETATM    9  O   UNL     1     135.216 144.073-272.514  1.00  0.00    -0.268 OA
HETATM   10  C   UNL     1     136.371 146.744-268.903  1.00  0.00    -0.030 C 
HETATM   11  C   UNL     1     139.306 147.026-268.105  1.00  0.00     0.033 C 
HETATM   12  C   UNL     1     139.488 145.838-268.691  1.00  0.00     0.002 C 
HETATM   13  C   UNL     1     136.449 147.969-269.585  1.00  0.00    -0.033 C 
HETATM   14  C   UNL     1     136.054 147.517-272.072  1.00  0.00     0.014 C 
HETATM   15  C   UNL     1     138.116 147.530-267.283  1.00  0.00     0.151 C 
HETATM   16  C   UNL     1     136.831 146.084-273.882  1.00  0.00     0.182 C 
HETATM   17  C   UNL     1     138.953 143.905-272.043  1.00  0.00     0.298 C 
HETATM   18  C   UNL     1     135.530 145.093-271.907  1.00  0.00     0.252 C 
HETATM   19  N   UNL     1     135.328 145.153-270.562  1.00  0.00    -0.333 N 
ATOM     20  HN  UNL     1     134.434 144.716-270.336  1.00  0.00     0.168 HD
HETATM   21  C   UNL     1     136.984 149.178-268.862  1.00  0.00     0.156 C 
HETATM   22  C   UNL     1     139.315 144.937-269.715  1.00  0.00     0.017 C 
HETATM   23  O   UNL     1     138.197 144.280-273.148  1.00  0.00    -0.278 OA
HETATM   24  C   UNL     1     138.115 145.618-273.476  1.00  0.00     0.076 C 
HETATM   25  N   UNL     1     137.760 148.922-267.652  1.00  0.00    -0.384 N 
ATOM     26  HN  UNL     1     138.058 149.698-267.061  1.00  0.00     0.156 HD
ENDROOT
BRANCH  16  27
HETATM   27  C   UNL     1     136.242 145.273-274.986  1.00  0.00     0.188 C 
HETATM   28  O   UNL     1     135.042 145.276-275.241  1.00  0.00    -0.647 OA
HETATM   29  O   UNL     1     137.092 144.616-275.698  1.00  0.00    -0.647 OA
ENDBRANCH  16  27
BRANCH  15  30
HETATM   30  O   UNL     1     138.472 147.554-265.914  1.00  0.00    -0.367 OA
ATOM     31  HO  UNL     1     138.660 148.448-265.651  1.00  0.00     0.213 HD
ENDBRANCH  15  30
TORSDOF 2
ENDMDL
MODEL 3
REMARK VINA RESULT:      -4.0      1.810      6.144
REMARK  2 active torsions:
REMARK  status: ('A' for Active; 'I' for Inactive)
REMARK    1  A    between atoms: C_4  and  C_20 
REMARK    2  A    between atoms: O_17  and  C_19 
ROOT
HETATM    1  C   UNL     1     133.140 149.952-276.295  1.00  0.00     0.020 C 
HETATM    2  C   UNL     1     135.925 149.712-279.861  1.00  0.00     0.099 C 
HETATM    3  O   UNL     1     132.370 146.803-277.567  1.00  0.00    -0.259 OA
HETATM    4  C   UNL     1     134.937 151.754-280.815  1.00  0.00     0.105 C 
HETATM    5  C   UNL     1     136.652 148.880-276.802  1.00  0.00     0.031 C 
HETATM    6  C   UNL     1     136.926 151.297-277.595  1.00  0.00     0.010 C 
HETATM    7  C   UNL     1     132.925 149.173-277.454  1.00  0.00     0.040 C 
HETATM    8  C   UNL     1     134.053 149.510-275.345  1.00  0.00     0.035 C 
HETATM    9  O   UNL     1     136.712 146.857-278.059  1.00  0.00    -0.268 OA
HETATM   10  C   UNL     1     135.744 151.075-279.726  1.00  0.00    -0.030 C 
HETATM   11  C   UNL     1     132.973 152.281-279.283  1.00  0.00     0.033 C 
HETATM   12  C   UNL     1     132.540 151.021-279.173  1.00  0.00     0.002 C 
HETATM   13  C   UNL     1     136.233 151.827-278.646  1.00  0.00    -0.033 C 
HETATM   14  C   UNL     1     136.996 150.198-276.828  1.00  0.00     0.014 C 
HETATM   15  C   UNL     1     134.049 152.859-280.207  1.00  0.00     0.151 C 
HETATM   16  C   UNL     1     136.207 148.275-275.557  1.00  0.00     0.182 C 
HETATM   17  C   UNL     1     133.127 147.683-277.230  1.00  0.00     0.298 C 
HETATM   18  C   UNL     1     136.630 148.083-278.079  1.00  0.00     0.252 C 
HETATM   19  N   UNL     1     136.537 148.722-279.278  1.00  0.00    -0.333 N 
ATOM     20  HN  UNL     1     137.159 148.270-279.949  1.00  0.00     0.168 HD
HETATM   21  C   UNL     1     135.986 153.314-278.616  1.00  0.00     0.156 C 
HETATM   22  C   UNL     1     132.624 149.732-278.702  1.00  0.00     0.017 C 
HETATM   23  O   UNL     1     134.190 147.338-276.403  1.00  0.00    -0.278 OA
HETATM   24  C   UNL     1     134.785 148.321-275.638  1.00  0.00     0.076 C 
HETATM   25  N   UNL     1     134.921 153.814-279.481  1.00  0.00    -0.384 N 
ATOM     26  HN  UNL     1     134.777 154.818-279.586  1.00  0.00     0.156 HD
ENDROOT
BRANCH  16  27
HETATM   27  C   UNL     1     136.720 146.943-275.127  1.00  0.00     0.188 C 
HETATM   28  O   UNL     1     135.994 145.959-275.019  1.00  0.00    -0.647 OA
HETATM   29  O   UNL     1     137.993 146.879-274.938  1.00  0.00    -0.647 OA
ENDBRANCH  16  27
BRANCH  15  30
HETATM   30  O   UNL     1     133.427 153.591-281.246  1.00  0.00    -0.367 OA
ATOM     31  HO  UNL     1     132.509 153.354-281.295  1.00  0.00     0.213 HD
ENDBRANCH  15  30
TORSDOF 2
ENDMDL
