REMARK  1 active torsions:
REMARK  status: ('A' for Active; 'I' for Inactive)
REMARK    1  A    between atoms: C_3  and  C_10 
ROOT
HETATM    1  C   UNL     1      21.799  17.899  68.126  1.00  0.00    -0.067 C 
HETATM    2  C   UNL     1      18.977  15.863  69.471  1.00  0.00     0.016 C 
HETATM    3  C   UNL     1      18.844  14.401  67.511  1.00  0.00     0.013 C 
HETATM    4  C   UNL     1      20.024  19.220  69.431  1.00  0.00     0.040 C 
HETATM    5  C   UNL     1      18.566  14.633  68.900  1.00  0.00     0.026 C 
HETATM    6  C   UNL     1      19.960  16.615  68.780  1.00  0.00    -0.007 C 
HETATM    7  N   UNL     1      20.104  14.849  67.057  1.00  0.00    -0.362 N 
ATOM      8  HN  UNL     1      20.597  14.360  66.310  1.00  0.00     0.165 HD
HETATM    9  C   UNL     1      20.645  15.959  67.648  1.00  0.00     0.024 C 
HETATM   10  C   UNL     1      20.548  17.922  68.839  1.00  0.00    -0.043 C 
HETATM   11  C   UNL     1      22.623  19.575  70.663  1.00  0.00     0.010 C 
HETATM   12  C   UNL     1      22.767  19.047  68.249  1.00  0.00     0.039 C 
HETATM   13  C   UNL     1      22.377  20.145  69.249  1.00  0.00    -0.014 C 
HETATM   14  C   UNL     1      20.882  20.451  69.065  1.00  0.00     0.009 C 
HETATM   15  C   UNL     1      21.904  16.665  67.387  1.00  0.00     0.092 C 
ENDROOT
BRANCH   3  16
HETATM   16  C   UNL     1      18.218  13.239  66.748  1.00  0.00     0.035 C 
HETATM   17  C   UNL     1      17.074  13.633  65.808  1.00  0.00     0.011 C 
HETATM   18  C   UNL     1      16.470  12.267  65.454  1.00  0.00     0.001 C 
HETATM   19  C   UNL     1      16.515  11.487  66.774  1.00  0.00     0.001 C 
HETATM   20  C   UNL     1      17.637  12.113  67.585  1.00  0.00     0.011 C 
ENDBRANCH   3  16
TORSDOF 1
