REMARK  2 active torsions:
REMARK  status: ('A' for Active; 'I' for Inactive)
REMARK    1  A    between atoms: C_1  and  N_11 
REMARK    2  A    between atoms: C_2  and  C_20 
REMARK       I    between atoms: N_11  and  C_20 
ROOT
HETATM    1  N   UNL     1      20.194  16.527  68.375  1.00  0.00    -0.352 N 
ATOM      2  HN  UNL     1      19.378  16.513  68.987  1.00  0.00     0.163 HD
HETATM    3  O   UNL     1      21.735  14.942  67.796  1.00  0.00    -0.268 OA
HETATM    4  C   UNL     1      20.563  15.346  67.813  1.00  0.00     0.252 C 
ENDROOT
BRANCH   1   5
HETATM    5  C   UNL     1      20.845  17.794  68.188  1.00  0.00     0.089 C 
HETATM    6  C   UNL     1      22.340  17.809  67.915  1.00  0.00     0.031 C 
HETATM    7  C   UNL     1      22.848  18.985  68.769  1.00  0.00    -0.004 C 
HETATM    8  C   UNL     1      22.280  20.293  68.202  1.00  0.00    -0.010 C 
HETATM    9  C   UNL     1      21.940  19.013  69.991  1.00  0.00    -0.004 C 
HETATM   10  C   UNL     1      20.738  20.149  68.298  1.00  0.00     0.012 C 
HETATM   11  C   UNL     1      22.645  21.244  69.353  1.00  0.00     0.005 C 
HETATM   12  C   UNL     1      20.617  18.898  69.224  1.00  0.00     0.013 C 
HETATM   13  C   UNL     1      22.170  20.429  70.574  1.00  0.00     0.006 C 
ENDBRANCH   1   5
BRANCH   4  14
HETATM   14  C   UNL     1      19.487  14.468  67.233  1.00  0.00     0.032 C 
HETATM   15  C   UNL     1      19.329  14.482  65.830  1.00  0.00     0.017 C 
HETATM   16  C   UNL     1      18.893  13.400  65.053  1.00  0.00     0.001 C 
HETATM   17  C   UNL     1      17.917  12.465  65.411  1.00  0.00     0.000 C 
HETATM   18  C   UNL     1      17.622  11.983  66.687  1.00  0.00     0.000 C 
HETATM   19  C   UNL     1      18.106  12.487  67.902  1.00  0.00     0.001 C 
HETATM   20  C   UNL     1      18.697  13.729  68.127  1.00  0.00     0.017 C 
ENDBRANCH   4  14
TORSDOF 2
