MODEL 1
REMARK VINA RESULT:      -8.2      0.000      0.000
REMARK  5 active torsions:
REMARK  status: ('A' for Active; 'I' for Inactive)
REMARK    1  A    between atoms: O_1  and  N_19 
REMARK    2  A    between atoms: C_5  and  O_17 
REMARK    3  A    between atoms: O_9  and  C_15 
REMARK    4  A    between atoms: N_11  and  C_20 
REMARK    5  A    between atoms: C_22  and  O_23 
ROOT
HETATM    1  C   UNL     1      17.783   3.834  10.757  1.00  0.00     0.090 A 
HETATM    2  C   UNL     1      17.710   2.238   8.239  1.00  0.00     0.039 C 
HETATM    3  N   UNL     1      16.935   4.681  11.428  1.00  0.00    -0.225 N 
HETATM    4  C   UNL     1      16.738   3.118   8.614  1.00  0.00     0.039 C 
HETATM    5  C   UNL     1      19.638   2.610   9.797  1.00  0.00     0.039 C 
HETATM    6  C   UNL     1      19.042   3.254  10.879  1.00  0.00     0.037 C 
HETATM    7  N   UNL     1      16.319   4.991  10.284  1.00  0.00    -0.154 N 
HETATM    8  C   UNL     1      17.036   4.112   9.554  1.00  0.00     0.110 A 
HETATM    9  C   UNL     1      19.040   2.170   8.625  1.00  0.00     0.065 C 
ENDROOT
BRANCH   3  10
HETATM   10  C   UNL     1      16.282   4.561  12.677  1.00  0.00     0.093 C 
HETATM   11  C   UNL     1      16.894   3.908  13.753  1.00  0.00     0.037 C 
HETATM   12  C   UNL     1      16.560   4.234  15.062  1.00  0.00     0.039 C 
HETATM   13  C   UNL     1      15.571   5.181  15.297  1.00  0.00     0.074 C 
HETATM   14  C   UNL     1      15.070   5.918  14.217  1.00  0.00     0.007 C 
HETATM   15  C   UNL     1      14.764   7.368  14.370  1.00  0.00     0.054 C 
HETATM   16  C   UNL     1      15.151   5.330  12.942  1.00  0.00     0.103 C 
BRANCH  13  17
HETATM   17  O   UNL     1      15.190   5.455  16.575  1.00  0.00    -0.360 OA
ATOM     18  HO  UNL     1      14.279   5.617  16.793  1.00  0.00     0.217 HD
ENDBRANCH  13  17
BRANCH  16  19
HETATM   19  O   UNL     1      14.201   5.529  11.968  1.00  0.00    -0.358 OA
ATOM     20  HO  UNL     1      13.287   5.298  12.085  1.00  0.00     0.217 HD
ENDBRANCH  16  19
ENDBRANCH   3  10
BRANCH   7  21
HETATM   21  O   UNL     1      15.617   5.909  10.040  1.00  0.00    -0.267 OA
ATOM     22  HO  UNL     1      15.613   6.778  10.423  1.00  0.00     0.247 HD
ENDBRANCH   7  21
BRANCH   9  23
HETATM   23  O   UNL     1      19.795   1.439   7.754  1.00  0.00    -0.361 OA
ATOM     24  HO  UNL     1      19.311   1.203   6.971  1.00  0.00     0.217 HD
ENDBRANCH   9  23
TORSDOF 5
ENDMDL
MODEL 2
REMARK VINA RESULT:      -7.9      4.066      5.834
REMARK  5 active torsions:
REMARK  status: ('A' for Active; 'I' for Inactive)
REMARK    1  A    between atoms: O_1  and  N_19 
REMARK    2  A    between atoms: C_5  and  O_17 
REMARK    3  A    between atoms: O_9  and  C_15 
REMARK    4  A    between atoms: N_11  and  C_20 
REMARK    5  A    between atoms: C_22  and  O_23 
ROOT
HETATM    1  C   UNL     1      18.576   3.193  12.539  1.00  0.00     0.090 A 
HETATM    2  C   UNL     1      15.994   4.074  11.335  1.00  0.00     0.039 C 
HETATM    3  N   UNL     1      19.067   2.977  13.803  1.00  0.00    -0.225 N 
HETATM    4  C   UNL     1      16.249   4.065  12.675  1.00  0.00     0.039 C 
HETATM    5  C   UNL     1      18.190   3.669  10.196  1.00  0.00     0.039 C 
HETATM    6  C   UNL     1      18.960   3.093  11.205  1.00  0.00     0.037 C 
HETATM    7  N   UNL     1      18.188   3.848  14.307  1.00  0.00    -0.154 N 
HETATM    8  C   UNL     1      17.575   4.053  13.123  1.00  0.00     0.110 A 
HETATM    9  C   UNL     1      16.877   4.109  10.266  1.00  0.00     0.065 C 
ENDROOT
BRANCH   3  10
HETATM   10  C   UNL     1      19.482   1.795  14.461  1.00  0.00     0.093 C 
HETATM   11  C   UNL     1      18.957   0.547  14.106  1.00  0.00     0.037 C 
HETATM   12  C   UNL     1      19.690  -0.615  14.313  1.00  0.00     0.039 C 
HETATM   13  C   UNL     1      20.934  -0.535  14.926  1.00  0.00     0.074 C 
HETATM   14  C   UNL     1      21.499   0.726  15.147  1.00  0.00     0.007 C 
HETATM   15  C   UNL     1      22.960   0.944  14.947  1.00  0.00     0.054 C 
HETATM   16  C   UNL     1      20.619   1.816  15.266  1.00  0.00     0.103 C 
BRANCH  13  17
HETATM   17  O   UNL     1      21.627  -1.676  15.195  1.00  0.00    -0.360 OA
ATOM     18  HO  UNL     1      22.262  -2.023  14.579  1.00  0.00     0.217 HD
ENDBRANCH  13  17
BRANCH  16  19
HETATM   19  O   UNL     1      20.866   2.887  16.093  1.00  0.00    -0.358 OA
ATOM     20  HO  UNL     1      21.446   3.600  15.853  1.00  0.00     0.217 HD
ENDBRANCH  16  19
ENDBRANCH   3  10
BRANCH   7  21
HETATM   21  O   UNL     1      18.198   4.396  15.352  1.00  0.00    -0.267 OA
ATOM     22  HO  UNL     1      18.876   4.405  16.018  1.00  0.00     0.247 HD
ENDBRANCH   7  21
BRANCH   9  23
HETATM   23  O   UNL     1      16.274   4.518   9.112  1.00  0.00    -0.361 OA
ATOM     24  HO  UNL     1      15.618   3.901   8.810  1.00  0.00     0.217 HD
ENDBRANCH   9  23
TORSDOF 5
ENDMDL
MODEL 3
REMARK VINA RESULT:      -7.8      2.314      6.890
REMARK  5 active torsions:
REMARK  status: ('A' for Active; 'I' for Inactive)
REMARK    1  A    between atoms: O_1  and  N_19 
REMARK    2  A    between atoms: C_5  and  O_17 
REMARK    3  A    between atoms: O_9  and  C_15 
REMARK    4  A    between atoms: N_11  and  C_20 
REMARK    5  A    between atoms: C_22  and  O_23 
ROOT
HETATM    1  C   UNL     1      16.174   5.509  14.611  1.00  0.00     0.090 A 
HETATM    2  C   UNL     1      14.677   5.338  17.184  1.00  0.00     0.039 C 
HETATM    3  N   UNL     1      17.049   4.716  13.910  1.00  0.00    -0.225 N 
HETATM    4  C   UNL     1      15.605   4.424  16.777  1.00  0.00     0.039 C 
HETATM    5  C   UNL     1      14.868   7.283  15.614  1.00  0.00     0.039 C 
HETATM    6  C   UNL     1      15.510   6.727  14.510  1.00  0.00     0.037 C 
HETATM    7  N   UNL     1      17.439   4.123  15.041  1.00  0.00    -0.154 N 
HETATM    8  C   UNL     1      16.543   4.784  15.803  1.00  0.00     0.110 A 
HETATM    9  C   UNL     1      14.509   6.660  16.801  1.00  0.00     0.065 C 
ENDROOT
BRANCH   3  10
HETATM   10  C   UNL     1      16.928   4.054  12.665  1.00  0.00     0.093 C 
HETATM   11  C   UNL     1      15.802   4.241  11.854  1.00  0.00     0.037 C 
HETATM   12  C   UNL     1      15.886   4.073  10.478  1.00  0.00     0.039 C 
HETATM   13  C   UNL     1      17.088   3.665   9.913  1.00  0.00     0.074 C 
HETATM   14  C   UNL     1      18.232   3.617  10.719  1.00  0.00     0.007 C 
HETATM   15  C   UNL     1      19.552   4.054  10.182  1.00  0.00     0.054 C 
HETATM   16  C   UNL     1      18.041   3.436  12.099  1.00  0.00     0.103 C 
BRANCH  13  17
HETATM   17  O   UNL     1      17.159   3.432   8.573  1.00  0.00    -0.360 OA
ATOM     18  HO  UNL     1      16.724   4.002   7.950  1.00  0.00     0.217 HD
ENDBRANCH  13  17
BRANCH  16  19
HETATM   19  O   UNL     1      18.919   2.730  12.887  1.00  0.00    -0.358 OA
ATOM     20  HO  UNL     1      18.635   2.135  13.571  1.00  0.00     0.217 HD
ENDBRANCH  16  19
ENDBRANCH   3  10
BRANCH   7  21
HETATM   21  O   UNL     1      18.409   3.483  15.252  1.00  0.00    -0.267 OA
ATOM     22  HO  UNL     1      18.513   2.539  15.265  1.00  0.00     0.247 HD
ENDBRANCH   7  21
BRANCH   9  23
HETATM   23  O   UNL     1      13.762   7.367  17.698  1.00  0.00    -0.361 OA
ATOM     24  HO  UNL     1      12.969   7.716  17.309  1.00  0.00     0.217 HD
ENDBRANCH   9  23
TORSDOF 5
ENDMDL
MODEL 4
REMARK VINA RESULT:      -7.7      3.771      6.254
REMARK  5 active torsions:
REMARK  status: ('A' for Active; 'I' for Inactive)
REMARK    1  A    between atoms: O_1  and  N_19 
REMARK    2  A    between atoms: C_5  and  O_17 
REMARK    3  A    between atoms: O_9  and  C_15 
REMARK    4  A    between atoms: N_11  and  C_20 
REMARK    5  A    between atoms: C_22  and  O_23 
ROOT
HETATM    1  C   UNL     1      18.555   3.143  11.540  1.00  0.00     0.090 A 
HETATM    2  C   UNL     1      15.807   4.278  11.766  1.00  0.00     0.039 C 
HETATM    3  N   UNL     1      19.439   2.493  12.366  1.00  0.00    -0.225 N 
HETATM    4  C   UNL     1      16.517   3.779  12.818  1.00  0.00     0.039 C 
HETATM    5  C   UNL     1      17.412   4.444   9.848  1.00  0.00     0.039 C 
HETATM    6  C   UNL     1      18.432   3.572  10.222  1.00  0.00     0.037 C 
HETATM    7  N   UNL     1      18.879   3.065  13.435  1.00  0.00    -0.154 N 
HETATM    8  C   UNL     1      17.908   3.668  12.718  1.00  0.00     0.110 A 
HETATM    9  C   UNL     1      16.254   4.758  10.544  1.00  0.00     0.065 C 
ENDROOT
BRANCH   3  10
HETATM   10  C   UNL     1      19.949   1.174  12.344  1.00  0.00     0.093 C 
HETATM   11  C   UNL     1      20.930   0.793  11.421  1.00  0.00     0.037 C 
HETATM   12  C   UNL     1      21.805  -0.247  11.706  1.00  0.00     0.039 C 
HETATM   13  C   UNL     1      21.667  -0.947  12.898  1.00  0.00     0.074 C 
HETATM   14  C   UNL     1      20.775  -0.466  13.864  1.00  0.00     0.007 C 
HETATM   15  C   UNL     1      21.129  -0.517  15.311  1.00  0.00     0.054 C 
HETATM   16  C   UNL     1      19.698   0.318  13.415  1.00  0.00     0.103 C 
BRANCH  13  17
HETATM   17  O   UNL     1      22.476  -2.012  13.153  1.00  0.00    -0.360 OA
ATOM     18  HO  UNL     1      22.810  -2.178  14.027  1.00  0.00     0.217 HD
ENDBRANCH  13  17
BRANCH  16  19
HETATM   19  O   UNL     1      18.460   0.299  14.014  1.00  0.00    -0.358 OA
ATOM     20  HO  UNL     1      18.186   0.948  14.651  1.00  0.00     0.217 HD
ENDBRANCH  16  19
ENDBRANCH   3  10
BRANCH   7  21
HETATM   21  O   UNL     1      19.308   3.180  14.530  1.00  0.00    -0.267 OA
ATOM     22  HO  UNL     1      19.241   2.583  15.266  1.00  0.00     0.247 HD
ENDBRANCH   7  21
BRANCH   9  23
HETATM   23  O   UNL     1      15.323   5.540   9.924  1.00  0.00    -0.361 OA
ATOM     24  HO  UNL     1      15.513   5.662   9.001  1.00  0.00     0.217 HD
ENDBRANCH   9  23
TORSDOF 5
ENDMDL
MODEL 5
REMARK VINA RESULT:      -7.7      1.050      6.219
REMARK  5 active torsions:
REMARK  status: ('A' for Active; 'I' for Inactive)
REMARK    1  A    between atoms: O_1  and  N_19 
REMARK    2  A    between atoms: C_5  and  O_17 
REMARK    3  A    between atoms: O_9  and  C_15 
REMARK    4  A    between atoms: N_11  and  C_20 
REMARK    5  A    between atoms: C_22  and  O_23 
ROOT
HETATM    1  C   UNL     1      16.540   4.197  13.763  1.00  0.00     0.090 A 
HETATM    2  C   UNL     1      15.730   6.372  15.635  1.00  0.00     0.039 C 
HETATM    3  N   UNL     1      16.530   3.992  12.405  1.00  0.00    -0.225 N 
HETATM    4  C   UNL     1      15.484   6.387  14.293  1.00  0.00     0.039 C 
HETATM    5  C   UNL     1      16.524   4.057  16.180  1.00  0.00     0.039 C 
HETATM    6  C   UNL     1      16.939   3.573  14.941  1.00  0.00     0.037 C 
HETATM    7  N   UNL     1      15.510   4.844  12.271  1.00  0.00    -0.154 N 
HETATM    8  C   UNL     1      15.505   5.186  13.576  1.00  0.00     0.110 A 
HETATM    9  C   UNL     1      15.981   5.299  16.477  1.00  0.00     0.065 C 
ENDROOT
BRANCH   3  10
HETATM   10  C   UNL     1      17.580   3.854  11.467  1.00  0.00     0.093 C 
HETATM   11  C   UNL     1      18.776   3.213  11.810  1.00  0.00     0.037 C 
HETATM   12  C   UNL     1      19.553   2.597  10.838  1.00  0.00     0.039 C 
HETATM   13  C   UNL     1      19.161   2.667   9.506  1.00  0.00     0.074 C 
HETATM   14  C   UNL     1      17.899   3.191   9.201  1.00  0.00     0.007 C 
HETATM   15  C   UNL     1      17.068   2.577   8.127  1.00  0.00     0.054 C 
HETATM   16  C   UNL     1      17.337   4.096  10.117  1.00  0.00     0.103 C 
BRANCH  13  17
HETATM   17  O   UNL     1      19.953   2.126   8.541  1.00  0.00    -0.360 OA
ATOM     18  HO  UNL     1      19.613   1.933   7.675  1.00  0.00     0.217 HD
ENDBRANCH  13  17
BRANCH  16  19
HETATM   19  O   UNL     1      16.541   5.149   9.731  1.00  0.00    -0.358 OA
ATOM     20  HO  UNL     1      15.592   5.111   9.748  1.00  0.00     0.217 HD
ENDBRANCH  16  19
ENDBRANCH   3  10
BRANCH   7  21
HETATM   21  O   UNL     1      14.762   4.976  11.367  1.00  0.00    -0.267 OA
ATOM     22  HO  UNL     1      13.823   4.835  11.340  1.00  0.00     0.247 HD
ENDBRANCH   7  21
BRANCH   9  23
HETATM   23  O   UNL     1      15.771   5.612  17.789  1.00  0.00    -0.361 OA
ATOM     24  HO  UNL     1      16.470   6.146  18.147  1.00  0.00     0.217 HD
ENDBRANCH   9  23
TORSDOF 5
ENDMDL
MODEL 6
REMARK VINA RESULT:      -7.6      2.860      4.153
REMARK  5 active torsions:
REMARK  status: ('A' for Active; 'I' for Inactive)
REMARK    1  A    between atoms: O_1  and  N_19 
REMARK    2  A    between atoms: C_5  and  O_17 
REMARK    3  A    between atoms: O_9  and  C_15 
REMARK    4  A    between atoms: N_11  and  C_20 
REMARK    5  A    between atoms: C_22  and  O_23 
ROOT
HETATM    1  C   UNL     1      19.357   2.390  12.564  1.00  0.00     0.090 A 
HETATM    2  C   UNL     1      20.972   0.054  11.655  1.00  0.00     0.039 C 
HETATM    3  N   UNL     1      18.712   3.448  11.974  1.00  0.00    -0.225 N 
HETATM    4  C   UNL     1      20.540   1.052  10.831  1.00  0.00     0.039 C 
HETATM    5  C   UNL     1      20.536   0.834  13.997  1.00  0.00     0.039 C 
HETATM    6  C   UNL     1      19.575   1.828  13.818  1.00  0.00     0.037 C 
HETATM    7  N   UNL     1      19.542   3.389  10.928  1.00  0.00    -0.154 N 
HETATM    8  C   UNL     1      20.175   2.286  11.379  1.00  0.00     0.110 A 
HETATM    9  C   UNL     1      21.157   0.058  13.029  1.00  0.00     0.065 C 
ENDROOT
BRANCH   3  10
HETATM   10  C   UNL     1      17.339   3.780  11.882  1.00  0.00     0.093 C 
HETATM   11  C   UNL     1      16.633   4.249  12.995  1.00  0.00     0.037 C 
HETATM   12  C   UNL     1      15.518   5.063  12.835  1.00  0.00     0.039 C 
HETATM   13  C   UNL     1      15.075   5.367  11.554  1.00  0.00     0.074 C 
HETATM   14  C   UNL     1      15.870   5.004  10.460  1.00  0.00     0.007 C 
HETATM   15  C   UNL     1      16.010   5.920   9.292  1.00  0.00     0.054 C 
HETATM   16  C   UNL     1      16.743   3.916  10.630  1.00  0.00     0.103 C 
BRANCH  13  17
HETATM   17  O   UNL     1      13.944   6.107  11.389  1.00  0.00    -0.360 OA
ATOM     18  HO  UNL     1      13.679   6.418  10.531  1.00  0.00     0.217 HD
ENDBRANCH  13  17
BRANCH  16  19
HETATM   19  O   UNL     1      17.052   3.042   9.614  1.00  0.00    -0.358 OA
ATOM     20  HO  UNL     1      16.915   2.104   9.681  1.00  0.00     0.217 HD
ENDBRANCH  16  19
ENDBRANCH   3  10
BRANCH   7  21
HETATM   21  O   UNL     1      19.761   4.205  10.103  1.00  0.00    -0.267 OA
ATOM     22  HO  UNL     1      20.512   4.288   9.527  1.00  0.00     0.247 HD
ENDBRANCH   7  21
BRANCH   9  23
HETATM   23  O   UNL     1      21.973  -0.954  13.443  1.00  0.00    -0.361 OA
ATOM     24  HO  UNL     1      22.447  -0.732  14.236  1.00  0.00     0.217 HD
ENDBRANCH   9  23
TORSDOF 5
ENDMDL
MODEL 7
REMARK VINA RESULT:      -7.5      4.059      7.261
REMARK  5 active torsions:
REMARK  status: ('A' for Active; 'I' for Inactive)
REMARK    1  A    between atoms: O_1  and  N_19 
REMARK    2  A    between atoms: C_5  and  O_17 
REMARK    3  A    between atoms: O_9  and  C_15 
REMARK    4  A    between atoms: N_11  and  C_20 
REMARK    5  A    between atoms: C_22  and  O_23 
ROOT
HETATM    1  C   UNL     1      18.151   3.351  14.366  1.00  0.00     0.090 A 
HETATM    2  C   UNL     1      16.207   5.030  15.880  1.00  0.00     0.039 C 
HETATM    3  N   UNL     1      19.228   2.554  14.666  1.00  0.00    -0.225 N 
HETATM    4  C   UNL     1      17.290   4.421  16.442  1.00  0.00     0.039 C 
HETATM    5  C   UNL     1      16.486   4.818  13.398  1.00  0.00     0.039 C 
HETATM    6  C   UNL     1      17.390   3.764  13.277  1.00  0.00     0.037 C 
HETATM    7  N   UNL     1      19.451   3.253  15.782  1.00  0.00    -0.154 N 
HETATM    8  C   UNL     1      18.356   4.025  15.626  1.00  0.00     0.110 A 
HETATM    9  C   UNL     1      15.973   5.379  14.558  1.00  0.00     0.065 C 
ENDROOT
BRANCH   3  10
HETATM   10  C   UNL     1      19.426   1.158  14.549  1.00  0.00     0.093 C 
HETATM   11  C   UNL     1      18.344   0.270  14.572  1.00  0.00     0.037 C 
HETATM   12  C   UNL     1      18.427  -0.964  13.940  1.00  0.00     0.039 C 
HETATM   13  C   UNL     1      19.616  -1.336  13.325  1.00  0.00     0.074 C 
HETATM   14  C   UNL     1      20.635  -0.385  13.194  1.00  0.00     0.007 C 
HETATM   15  C   UNL     1      21.452  -0.321  11.948  1.00  0.00     0.054 C 
HETATM   16  C   UNL     1      20.659   0.668  14.124  1.00  0.00     0.103 C 
BRANCH  13  17
HETATM   17  O   UNL     1      19.728  -2.572  12.764  1.00  0.00    -0.360 OA
ATOM     18  HO  UNL     1      19.873  -2.678  11.831  1.00  0.00     0.217 HD
ENDBRANCH  13  17
BRANCH  16  19
HETATM   19  O   UNL     1      21.826   1.239  14.574  1.00  0.00    -0.358 OA
ATOM     20  HO  UNL     1      22.422   1.712  14.004  1.00  0.00     0.217 HD
ENDBRANCH  16  19
ENDBRANCH   3  10
BRANCH   7  21
HETATM   21  O   UNL     1      20.425   3.304  16.448  1.00  0.00    -0.267 OA
ATOM     22  HO  UNL     1      20.799   4.046  16.908  1.00  0.00     0.247 HD
ENDBRANCH   7  21
BRANCH   9  23
HETATM   23  O   UNL     1      14.991   6.320  14.438  1.00  0.00    -0.361 OA
ATOM     24  HO  UNL     1      14.252   6.143  15.007  1.00  0.00     0.217 HD
ENDBRANCH   9  23
TORSDOF 5
ENDMDL
MODEL 8
REMARK VINA RESULT:      -7.4      4.258      5.878
REMARK  5 active torsions:
REMARK  status: ('A' for Active; 'I' for Inactive)
REMARK    1  A    between atoms: O_1  and  N_19 
REMARK    2  A    between atoms: C_5  and  O_17 
REMARK    3  A    between atoms: O_9  and  C_15 
REMARK    4  A    between atoms: N_11  and  C_20 
REMARK    5  A    between atoms: C_22  and  O_23 
ROOT
HETATM    1  C   UNL     1      19.729   0.622  13.453  1.00  0.00     0.090 A 
HETATM    2  C   UNL     1      22.218  -0.777  14.310  1.00  0.00     0.039 C 
HETATM    3  N   UNL     1      19.241   1.905  13.490  1.00  0.00    -0.225 N 
HETATM    4  C   UNL     1      21.940   0.528  14.591  1.00  0.00     0.039 C 
HETATM    5  C   UNL     1      20.104  -1.769  13.399  1.00  0.00     0.039 C 
HETATM    6  C   UNL     1      19.384  -0.646  12.997  1.00  0.00     0.037 C 
HETATM    7  N   UNL     1      20.006   2.179  14.550  1.00  0.00    -0.154 N 
HETATM    8  C   UNL     1      20.616   0.976  14.536  1.00  0.00     0.110 A 
HETATM    9  C   UNL     1      21.359  -1.817  13.990  1.00  0.00     0.065 C 
ENDROOT
BRANCH   3  10
HETATM   10  C   UNL     1      18.947   2.829  12.459  1.00  0.00     0.093 C 
HETATM   11  C   UNL     1      19.435   2.642  11.161  1.00  0.00     0.037 C 
HETATM   12  C   UNL     1      18.761   3.172  10.068  1.00  0.00     0.039 C 
HETATM   13  C   UNL     1      17.620   3.938  10.277  1.00  0.00     0.074 C 
HETATM   14  C   UNL     1      17.073   3.998  11.565  1.00  0.00     0.007 C 
HETATM   15  C   UNL     1      15.596   3.981  11.758  1.00  0.00     0.054 C 
HETATM   16  C   UNL     1      17.943   3.777  12.646  1.00  0.00     0.103 C 
BRANCH  13  17
HETATM   17  O   UNL     1      16.994   4.518   9.217  1.00  0.00    -0.360 OA
ATOM     18  HO  UNL     1      16.119   4.254   8.957  1.00  0.00     0.217 HD
ENDBRANCH  13  17
BRANCH  16  19
HETATM   19  O   UNL     1      17.804   4.413  13.857  1.00  0.00    -0.358 OA
ATOM     20  HO  UNL     1      16.962   4.687  14.202  1.00  0.00     0.217 HD
ENDBRANCH  16  19
ENDBRANCH   3  10
BRANCH   7  21
HETATM   21  O   UNL     1      19.915   3.064  15.326  1.00  0.00    -0.267 OA
ATOM     22  HO  UNL     1      20.363   3.184  16.155  1.00  0.00     0.247 HD
ENDBRANCH   7  21
BRANCH   9  23
HETATM   23  O   UNL     1      21.934  -3.040  14.179  1.00  0.00    -0.361 OA
ATOM     24  HO  UNL     1      22.831  -2.972  14.485  1.00  0.00     0.217 HD
ENDBRANCH   9  23
TORSDOF 5
ENDMDL
MODEL 9
REMARK VINA RESULT:      -7.3      4.044      5.212
REMARK  5 active torsions:
REMARK  status: ('A' for Active; 'I' for Inactive)
REMARK    1  A    between atoms: O_1  and  N_19 
REMARK    2  A    between atoms: C_5  and  O_17 
REMARK    3  A    between atoms: O_9  and  C_15 
REMARK    4  A    between atoms: N_11  and  C_20 
REMARK    5  A    between atoms: C_22  and  O_23 
ROOT
HETATM    1  C   UNL     1      18.763   1.376  14.929  1.00  0.00     0.090 A 
HETATM    2  C   UNL     1      20.347  -0.172  12.933  1.00  0.00     0.039 C 
HETATM    3  N   UNL     1      18.891   2.568  15.598  1.00  0.00    -0.225 N 
HETATM    4  C   UNL     1      20.787   0.967  13.540  1.00  0.00     0.039 C 
HETATM    5  C   UNL     1      18.267  -0.862  14.149  1.00  0.00     0.039 C 
HETATM    6  C   UNL     1      17.874   0.315  14.782  1.00  0.00     0.037 C 
HETATM    7  N   UNL     1      20.221   2.502  15.487  1.00  0.00    -0.154 N 
HETATM    8  C   UNL     1      20.193   1.381  14.738  1.00  0.00     0.110 A 
HETATM    9  C   UNL     1      19.371  -1.071  13.336  1.00  0.00     0.065 C 
ENDROOT
BRANCH   3  10
HETATM   10  C   UNL     1      18.145   3.768  15.531  1.00  0.00     0.093 C 
HETATM   11  C   UNL     1      17.835   4.359  14.301  1.00  0.00     0.037 C 
HETATM   12  C   UNL     1      16.711   5.164  14.165  1.00  0.00     0.039 C 
HETATM   13  C   UNL     1      15.920   5.423  15.277  1.00  0.00     0.074 C 
HETATM   14  C   UNL     1      16.166   4.717  16.461  1.00  0.00     0.007 C 
HETATM   15  C   UNL     1      15.034   4.242  17.305  1.00  0.00     0.054 C 
HETATM   16  C   UNL     1      17.468   4.225  16.660  1.00  0.00     0.103 C 
BRANCH  13  17
HETATM   17  O   UNL     1      14.857   6.266  15.167  1.00  0.00    -0.360 OA
ATOM     18  HO  UNL     1      14.876   7.136  15.549  1.00  0.00     0.217 HD
ENDBRANCH  13  17
BRANCH  16  19
HETATM   19  O   UNL     1      18.051   4.140  17.902  1.00  0.00    -0.358 OA
ATOM     20  HO  UNL     1      17.569   3.889  18.682  1.00  0.00     0.217 HD
ENDBRANCH  16  19
ENDBRANCH   3  10
BRANCH   7  21
HETATM   21  O   UNL     1      21.049   3.087  16.092  1.00  0.00    -0.267 OA
ATOM     22  HO  UNL     1      21.933   3.316  15.831  1.00  0.00     0.247 HD
ENDBRANCH   7  21
BRANCH   9  23
HETATM   23  O   UNL     1      19.489  -2.278  12.709  1.00  0.00    -0.361 OA
ATOM     24  HO  UNL     1      18.740  -2.840  12.868  1.00  0.00     0.217 HD
ENDBRANCH   9  23
TORSDOF 5
ENDMDL
