MODEL 1
REMARK VINA RESULT:      -9.7      0.000      0.000
REMARK  2 active torsions:
REMARK  status: ('A' for Active; 'I' for Inactive)
REMARK    1  A    between atoms: C_7  and  O_18 
REMARK    2  A    between atoms: N_15  and  C_20 
ROOT
HETATM    1  C   UNL     1     -12.210  -1.763 -28.551  1.00  0.00     0.027 C 
HETATM    2  C   UNL     1     -15.920  -0.540 -29.277  1.00  0.00     0.254 C 
HETATM    3  C   UNL     1     -17.094  -1.423 -29.060  1.00  0.00     0.297 C 
HETATM    4  N   UNL     1     -16.674  -2.338 -28.131  1.00  0.00    -0.318 N 
ATOM      5  HN  UNL     1     -17.294  -2.920 -27.569  1.00  0.00     0.169 HD
HETATM    6  C   UNL     1      -9.948  -3.366 -28.267  1.00  0.00     0.031 C 
HETATM    7  C   UNL     1     -13.381  -0.884 -28.840  1.00  0.00     0.095 C 
HETATM    8  C   UNL     1     -12.308  -3.050 -27.936  1.00  0.00     0.045 C 
HETATM    9  C   UNL     1     -14.795  -1.272 -28.800  1.00  0.00     0.082 C 
HETATM   10  C   UNL     1     -14.571  -3.167 -27.161  1.00  0.00     0.119 C 
HETATM   11  C   UNL     1     -10.930  -1.265 -28.811  1.00  0.00     0.045 C 
HETATM   12  C   UNL     1     -11.206  -3.911 -28.053  1.00  0.00     0.033 C 
HETATM   13  O   UNL     1     -16.010   0.669 -29.673  1.00  0.00    -0.281 OA
HETATM   14  O   UNL     1     -18.274  -1.228 -29.374  1.00  0.00    -0.264 OA
HETATM   15  C   UNL     1      -9.829  -1.971 -28.314  1.00  0.00     0.026 C 
HETATM   16  N   UNL     1     -13.287  -3.363 -27.049  1.00  0.00    -0.363 N 
ATOM     17  HN  UNL     1     -12.979  -3.808 -26.184  1.00  0.00     0.165 HD
HETATM   18  C   UNL     1     -15.299  -2.363 -28.061  1.00  0.00     0.068 C 
ENDROOT
BRANCH  15  19
HETATM   19  N   UNL     1      -8.790  -1.338 -27.691  1.00  0.00    -0.399 N 
ATOM     20  HN2 UNL     1      -8.790  -1.166 -26.686  1.00  0.00     0.156 HD
ATOM     21  HN1 UNL     1      -7.910  -1.177 -28.181  1.00  0.00     0.156 HD
ENDBRANCH  15  19
BRANCH   7  22
HETATM   22  O   UNL     1     -13.181   0.443 -28.597  1.00  0.00    -0.359 OA
ATOM     23  HO  UNL     1     -13.485   1.027 -29.281  1.00  0.00     0.217 HD
ENDBRANCH   7  22
TORSDOF 2
ENDMDL
MODEL 2
REMARK VINA RESULT:      -8.5      2.138      2.387
REMARK  2 active torsions:
REMARK  status: ('A' for Active; 'I' for Inactive)
REMARK    1  A    between atoms: C_7  and  O_18 
REMARK    2  A    between atoms: N_15  and  C_20 
ROOT
HETATM    1  C   UNL     1     -12.682  -2.707 -28.722  1.00  0.00     0.027 C 
HETATM    2  C   UNL     1     -16.529  -1.808 -28.299  1.00  0.00     0.254 C 
HETATM    3  C   UNL     1     -17.452  -1.744 -29.460  1.00  0.00     0.297 C 
HETATM    4  N   UNL     1     -16.872  -2.543 -30.410  1.00  0.00    -0.318 N 
ATOM      5  HN  UNL     1     -17.357  -2.927 -31.220  1.00  0.00     0.169 HD
HETATM    6  C   UNL     1     -10.109  -2.954 -29.766  1.00  0.00     0.031 C 
HETATM    7  C   UNL     1     -14.017  -2.449 -28.108  1.00  0.00     0.095 C 
HETATM    8  C   UNL     1     -12.488  -3.080 -30.089  1.00  0.00     0.045 C 
HETATM    9  C   UNL     1     -15.286  -2.271 -28.821  1.00  0.00     0.082 C 
HETATM   10  C   UNL     1     -14.691  -3.576 -30.887  1.00  0.00     0.119 C 
HETATM   11  C   UNL     1     -11.555  -2.675 -27.894  1.00  0.00     0.045 C 
HETATM   12  C   UNL     1     -11.199  -2.936 -30.625  1.00  0.00     0.033 C 
HETATM   13  O   UNL     1     -16.897  -1.617 -27.093  1.00  0.00    -0.281 OA
HETATM   14  O   UNL     1     -18.621  -1.344 -29.494  1.00  0.00    -0.264 OA
HETATM   15  C   UNL     1     -10.345  -3.159 -28.400  1.00  0.00     0.026 C 
HETATM   16  N   UNL     1     -13.408  -3.790 -30.790  1.00  0.00    -0.363 N 
ATOM     17  HN  UNL     1     -13.051  -4.594 -31.307  1.00  0.00     0.165 HD
HETATM   18  C   UNL     1     -15.542  -2.755 -30.121  1.00  0.00     0.068 C 
ENDROOT
BRANCH  15  19
HETATM   19  N   UNL     1      -9.540  -3.989 -27.670  1.00  0.00    -0.399 N 
ATOM     20  HN2 UNL     1      -9.665  -4.112 -26.666  1.00  0.00     0.156 HD
ATOM     21  HN1 UNL     1      -8.906  -4.639 -28.135  1.00  0.00     0.156 HD
ENDBRANCH  15  19
BRANCH   7  22
HETATM   22  O   UNL     1     -14.175  -2.936 -26.843  1.00  0.00    -0.359 OA
ATOM     23  HO  UNL     1     -14.933  -3.493 -26.719  1.00  0.00     0.217 HD
ENDBRANCH   7  22
TORSDOF 2
ENDMDL
MODEL 3
REMARK VINA RESULT:      -7.7      2.361      2.933
REMARK  2 active torsions:
REMARK  status: ('A' for Active; 'I' for Inactive)
REMARK    1  A    between atoms: C_7  and  O_18 
REMARK    2  A    between atoms: N_15  and  C_20 
ROOT
HETATM    1  C   UNL     1     -13.401  -2.530 -29.875  1.00  0.00     0.027 C 
HETATM    2  C   UNL     1     -17.122  -1.506 -28.932  1.00  0.00     0.254 C 
HETATM    3  C   UNL     1     -17.416  -0.465 -27.916  1.00  0.00     0.297 C 
HETATM    4  N   UNL     1     -16.292   0.317 -27.885  1.00  0.00    -0.318 N 
ATOM      5  HN  UNL     1     -16.252   1.259 -27.495  1.00  0.00     0.169 HD
HETATM    6  C   UNL     1     -10.664  -3.039 -29.722  1.00  0.00     0.031 C 
HETATM    7  C   UNL     1     -14.886  -2.394 -29.916  1.00  0.00     0.095 C 
HETATM    8  C   UNL     1     -12.532  -1.621 -29.193  1.00  0.00     0.045 C 
HETATM    9  C   UNL     1     -15.705  -1.508 -29.082  1.00  0.00     0.082 C 
HETATM   10  C   UNL     1     -13.944   0.224 -28.610  1.00  0.00     0.119 C 
HETATM   11  C   UNL     1     -12.809  -3.553 -30.623  1.00  0.00     0.045 C 
HETATM   12  C   UNL     1     -11.224  -2.052 -28.924  1.00  0.00     0.033 C 
HETATM   13  O   UNL     1     -18.023  -2.118 -29.597  1.00  0.00    -0.281 OA
HETATM   14  O   UNL     1     -18.507  -0.152 -27.427  1.00  0.00    -0.264 OA
HETATM   15  C   UNL     1     -11.421  -3.534 -30.793  1.00  0.00     0.026 C 
HETATM   16  N   UNL     1     -12.830  -0.306 -29.034  1.00  0.00    -0.363 N 
ATOM     17  HN  UNL     1     -12.089   0.351 -29.277  1.00  0.00     0.165 HD
HETATM   18  C   UNL     1     -15.225  -0.342 -28.451  1.00  0.00     0.068 C 
ENDROOT
BRANCH  15  19
HETATM   19  N   UNL     1     -10.842  -3.759 -32.011  1.00  0.00    -0.399 N 
ATOM     20  HN2 UNL     1     -10.146  -4.492 -32.147  1.00  0.00     0.156 HD
ATOM     21  HN1 UNL     1     -11.214  -3.321 -32.853  1.00  0.00     0.156 HD
ENDBRANCH  15  19
BRANCH   7  22
HETATM   22  O   UNL     1     -15.458  -2.679 -31.121  1.00  0.00    -0.359 OA
ATOM     23  HO  UNL     1     -15.358  -3.578 -31.410  1.00  0.00     0.217 HD
ENDBRANCH   7  22
TORSDOF 2
ENDMDL
MODEL 4
REMARK VINA RESULT:      -7.4      3.019      3.570
REMARK  2 active torsions:
REMARK  status: ('A' for Active; 'I' for Inactive)
REMARK    1  A    between atoms: C_7  and  O_18 
REMARK    2  A    between atoms: N_15  and  C_20 
ROOT
HETATM    1  C   UNL     1     -13.379  -3.003 -29.862  1.00  0.00     0.027 C 
HETATM    2  C   UNL     1     -16.674  -5.162 -30.378  1.00  0.00     0.254 C 
HETATM    3  C   UNL     1     -17.871  -4.985 -29.518  1.00  0.00     0.297 C 
HETATM    4  N   UNL     1     -17.767  -3.707 -29.036  1.00  0.00    -0.318 N 
ATOM      5  HN  UNL     1     -18.537  -3.175 -28.632  1.00  0.00     0.169 HD
HETATM    6  C   UNL     1     -11.334  -1.511 -28.692  1.00  0.00     0.031 C 
HETATM    7  C   UNL     1     -14.393  -3.918 -30.462  1.00  0.00     0.095 C 
HETATM    8  C   UNL     1     -13.678  -2.014 -28.871  1.00  0.00     0.045 C 
HETATM    9  C   UNL     1     -15.758  -4.147 -29.976  1.00  0.00     0.082 C 
HETATM   10  C   UNL     1     -16.071  -1.939 -28.813  1.00  0.00     0.119 C 
HETATM   11  C   UNL     1     -12.073  -3.045 -30.358  1.00  0.00     0.045 C 
HETATM   12  C   UNL     1     -12.606  -1.485 -28.137  1.00  0.00     0.033 C 
HETATM   13  O   UNL     1     -16.621  -5.981 -31.354  1.00  0.00    -0.281 OA
HETATM   14  O   UNL     1     -18.896  -5.674 -29.473  1.00  0.00    -0.264 OA
HETATM   15  C   UNL     1     -11.186  -2.030 -29.985  1.00  0.00     0.026 C 
HETATM   16  N   UNL     1     -14.885  -1.397 -28.797  1.00  0.00    -0.363 N 
ATOM     17  HN  UNL     1     -14.861  -0.380 -28.719  1.00  0.00     0.165 HD
HETATM   18  C   UNL     1     -16.479  -3.239 -29.173  1.00  0.00     0.068 C 
ENDROOT
BRANCH  15  19
HETATM   19  N   UNL     1     -10.376  -1.411 -30.896  1.00  0.00    -0.399 N 
ATOM     20  HN2 UNL     1      -9.744  -1.937 -31.499  1.00  0.00     0.156 HD
ATOM     21  HN1 UNL     1     -10.507  -0.424 -31.123  1.00  0.00     0.156 HD
ENDBRANCH  15  19
BRANCH   7  22
HETATM   22  O   UNL     1     -14.257  -4.130 -31.802  1.00  0.00    -0.359 OA
ATOM     23  HO  UNL     1     -15.010  -4.524 -32.225  1.00  0.00     0.217 HD
ENDBRANCH   7  22
TORSDOF 2
ENDMDL
MODEL 5
REMARK VINA RESULT:      -7.0      2.121      2.765
REMARK  2 active torsions:
REMARK  status: ('A' for Active; 'I' for Inactive)
REMARK    1  A    between atoms: C_7  and  O_18 
REMARK    2  A    between atoms: N_15  and  C_20 
ROOT
HETATM    1  C   UNL     1     -12.366  -2.683 -27.877  1.00  0.00     0.027 C 
HETATM    2  C   UNL     1     -16.051  -1.200 -27.779  1.00  0.00     0.254 C 
HETATM    3  C   UNL     1     -16.383   0.119 -28.373  1.00  0.00     0.297 C 
HETATM    4  N   UNL     1     -15.415   0.327 -29.320  1.00  0.00    -0.318 N 
ATOM      5  HN  UNL     1     -15.485   1.000 -30.083  1.00  0.00     0.169 HD
HETATM    6  C   UNL     1      -9.587  -2.895 -27.916  1.00  0.00     0.031 C 
HETATM    7  C   UNL     1     -13.845  -2.574 -27.714  1.00  0.00     0.095 C 
HETATM    8  C   UNL     1     -11.584  -1.802 -28.689  1.00  0.00     0.045 C 
HETATM    9  C   UNL     1     -14.687  -1.441 -28.112  1.00  0.00     0.082 C 
HETATM   10  C   UNL     1     -13.200  -0.550 -29.935  1.00  0.00     0.119 C 
HETATM   11  C   UNL     1     -11.712  -3.763 -27.278  1.00  0.00     0.045 C 
HETATM   12  C   UNL     1     -10.198  -1.780 -28.473  1.00  0.00     0.033 C 
HETATM   13  O   UNL     1     -16.913  -1.965 -27.231  1.00  0.00    -0.281 OA
HETATM   14  O   UNL     1     -17.438   0.758 -28.291  1.00  0.00    -0.264 OA
HETATM   15  C   UNL     1     -10.382  -4.014 -27.632  1.00  0.00     0.026 C 
HETATM   16  N   UNL     1     -12.079  -1.201 -29.801  1.00  0.00    -0.363 N 
ATOM     17  HN  UNL     1     -11.499  -1.266 -30.638  1.00  0.00     0.165 HD
HETATM   18  C   UNL     1     -14.334  -0.497 -29.099  1.00  0.00     0.068 C 
ENDROOT
BRANCH  15  19
HETATM   19  N   UNL     1      -9.937  -5.275 -27.916  1.00  0.00    -0.399 N 
ATOM     20  HN2 UNL     1     -10.159  -6.070 -27.317  1.00  0.00     0.156 HD
ATOM     21  HN1 UNL     1      -9.521  -5.488 -28.823  1.00  0.00     0.156 HD
ENDBRANCH  15  19
BRANCH   7  22
HETATM   22  O   UNL     1     -14.513  -3.763 -27.703  1.00  0.00    -0.359 OA
ATOM     23  HO  UNL     1     -14.675  -4.125 -26.841  1.00  0.00     0.217 HD
ENDBRANCH   7  22
TORSDOF 2
ENDMDL
MODEL 6
REMARK VINA RESULT:      -6.7      3.239      5.823
REMARK  2 active torsions:
REMARK  status: ('A' for Active; 'I' for Inactive)
REMARK    1  A    between atoms: C_7  and  O_18 
REMARK    2  A    between atoms: N_15  and  C_20 
ROOT
HETATM    1  C   UNL     1     -17.337  -3.963 -29.197  1.00  0.00     0.027 C 
HETATM    2  C   UNL     1     -15.869  -0.280 -28.949  1.00  0.00     0.254 C 
HETATM    3  C   UNL     1     -14.439   0.015 -29.217  1.00  0.00     0.297 C 
HETATM    4  N   UNL     1     -14.019  -1.008 -30.026  1.00  0.00    -0.318 N 
ATOM      5  HN  UNL     1     -13.178  -0.984 -30.602  1.00  0.00     0.169 HD
HETATM    6  C   UNL     1     -17.575  -6.740 -29.125  1.00  0.00     0.031 C 
HETATM    7  C   UNL     1     -17.250  -2.477 -29.097  1.00  0.00     0.095 C 
HETATM    8  C   UNL     1     -16.296  -4.794 -29.719  1.00  0.00     0.045 C 
HETATM    9  C   UNL     1     -16.041  -1.661 -29.252  1.00  0.00     0.082 C 
HETATM   10  C   UNL     1     -14.751  -3.255 -30.710  1.00  0.00     0.119 C 
HETATM   11  C   UNL     1     -18.541  -4.581 -28.846  1.00  0.00     0.045 C 
HETATM   12  C   UNL     1     -16.348  -6.164 -29.424  1.00  0.00     0.033 C 
HETATM   13  O   UNL     1     -16.732   0.614 -28.658  1.00  0.00    -0.281 OA
HETATM   14  O   UNL     1     -13.824   1.073 -29.041  1.00  0.00    -0.264 OA
HETATM   15  C   UNL     1     -18.717  -5.929 -29.173  1.00  0.00     0.026 C 
HETATM   16  N   UNL     1     -15.432  -4.366 -30.675  1.00  0.00    -0.363 N 
ATOM     17  HN  UNL     1     -15.297  -4.995 -31.467  1.00  0.00     0.165 HD
HETATM   18  C   UNL     1     -14.888  -2.073 -29.953  1.00  0.00     0.068 C 
ENDROOT
BRANCH  15  19
HETATM   19  N   UNL     1     -19.876  -6.389 -29.733  1.00  0.00    -0.399 N 
ATOM     20  HN2 UNL     1     -19.890  -7.202 -30.349  1.00  0.00     0.156 HD
ATOM     21  HN1 UNL     1     -20.782  -6.043 -29.414  1.00  0.00     0.156 HD
ENDBRANCH  15  19
BRANCH   7  22
HETATM   22  O   UNL     1     -18.394  -1.809 -29.419  1.00  0.00    -0.359 OA
ATOM     23  HO  UNL     1     -18.365  -0.871 -29.276  1.00  0.00     0.217 HD
ENDBRANCH   7  22
TORSDOF 2
ENDMDL
