MODEL 1
REMARK VINA RESULT:      -8.0      0.000      0.000
REMARK  2 active torsions:
REMARK  status: ('A' for Active; 'I' for Inactive)
REMARK    1  A    between atoms: C_1  and  C_24 
REMARK    2  A    between atoms: C_21  and  C_26 
ROOT
HETATM    1  C   UNL     1     -13.519  -6.400   5.572  1.00  0.00     0.119 C 
HETATM    2  C   UNL     1     -17.200  -9.089   8.583  1.00  0.00    -0.002 C 
HETATM    3  C   UNL     1     -16.917  -7.831   4.340  1.00  0.00     0.001 C 
HETATM    4  C   UNL     1     -15.067  -8.423   5.960  1.00  0.00    -0.032 C 
HETATM    5  C   UNL     1     -15.088  -9.323   7.195  1.00  0.00     0.051 C 
HETATM    6  O   UNL     1     -14.031  -4.912   3.834  1.00  0.00    -0.293 OA
HETATM    7  C   UNL     1     -16.934 -11.075   7.265  1.00  0.00    -0.002 C 
HETATM    8  C   UNL     1     -13.652  -7.906   5.787  1.00  0.00     0.160 C 
HETATM    9  C   UNL     1     -15.890  -5.674   4.969  1.00  0.00     0.050 C 
HETATM   10  C   UNL     1     -15.876  -8.702   4.729  1.00  0.00     0.007 C 
HETATM   11  C   UNL     1     -15.912  -8.671   8.272  1.00  0.00    -0.006 C 
HETATM   12  C   UNL     1     -17.716 -10.276   8.072  1.00  0.00    -0.001 C 
HETATM   13  C   UNL     1     -14.496  -5.682   4.683  1.00  0.00     0.152 C 
HETATM   14  C   UNL     1     -16.843  -6.435   4.335  1.00  0.00     0.004 C 
HETATM   15  C   UNL     1     -13.599  -9.349   7.630  1.00  0.00     0.165 C 
HETATM   16  O   UNL     1     -13.042  -8.176   7.060  1.00  0.00    -0.370 OA
HETATM   17  C   UNL     1     -15.615 -10.695   6.909  1.00  0.00    -0.006 C 
ENDROOT
BRANCH  15  18
HETATM   18  C   UNL     1     -12.786 -10.563   7.235  1.00  0.00     0.007 C 
HETATM   19  C   UNL     1     -11.656 -10.712   6.659  1.00  0.00     0.012 C 
BRANCH  19  20
HETATM   20  C   UNL     1     -10.601 -11.713   6.491  1.00  0.00    -0.009 C 
HETATM   21  C   UNL     1      -9.216 -11.346   6.636  1.00  0.00     0.044 C 
HETATM   22  N   UNL     1      -8.771 -10.240   7.479  1.00  0.00    -0.389 N 
HETATM   23  C   UNL     1      -8.249 -12.095   5.823  1.00  0.00    -0.031 C 
HETATM   24  C   UNL     1      -7.322  -9.931   7.612  1.00  0.00     0.120 C 
ATOM     25  HN  UNL     1      -9.458  -9.677   7.980  1.00  0.00     0.159 HD
HETATM   26  C   UNL     1      -6.321 -10.814   6.847  1.00  0.00     0.024 C 
HETATM   27  C   UNL     1      -6.918 -11.389   5.541  1.00  0.00     0.042 C 
HETATM   28  C   UNL     1      -8.599 -13.360   5.298  1.00  0.00     0.009 C 
HETATM   29  C   UNL     1      -9.919 -13.830   5.411  1.00  0.00     0.002 C 
HETATM   30  C   UNL     1     -10.901 -13.049   6.075  1.00  0.00     0.014 C 
ENDBRANCH  19  20
ENDBRANCH  15  18
TORSDOF 2
ENDMDL
MODEL 2
REMARK VINA RESULT:      -6.8      4.616     10.205
REMARK  2 active torsions:
REMARK  status: ('A' for Active; 'I' for Inactive)
REMARK    1  A    between atoms: C_1  and  C_24 
REMARK    2  A    between atoms: C_21  and  C_26 
ROOT
HETATM    1  C   UNL     1      -8.165 -17.529   2.601  1.00  0.00     0.119 C 
HETATM    2  C   UNL     1      -5.580 -16.878   7.368  1.00  0.00    -0.002 C 
HETATM    3  C   UNL     1      -4.401 -16.696   3.097  1.00  0.00     0.001 C 
HETATM    4  C   UNL     1      -6.633 -16.171   4.165  1.00  0.00    -0.032 C 
HETATM    5  C   UNL     1      -6.965 -15.717   5.586  1.00  0.00     0.051 C 
HETATM    6  O   UNL     1      -7.230 -18.508   0.686  1.00  0.00    -0.293 OA
HETATM    7  C   UNL     1      -5.073 -14.588   6.864  1.00  0.00    -0.002 C 
HETATM    8  C   UNL     1      -7.932 -16.240   3.386  1.00  0.00     0.160 C 
HETATM    9  C   UNL     1      -5.855 -18.612   2.537  1.00  0.00     0.050 C 
HETATM   10  C   UNL     1      -5.391 -15.749   3.439  1.00  0.00     0.007 C 
HETATM   11  C   UNL     1      -6.698 -16.846   6.544  1.00  0.00    -0.006 C 
HETATM   12  C   UNL     1      -4.763 -15.762   7.518  1.00  0.00    -0.001 C 
HETATM   13  C   UNL     1      -7.025 -18.169   1.858  1.00  0.00     0.152 C 
HETATM   14  C   UNL     1      -4.645 -17.961   2.555  1.00  0.00     0.004 C 
HETATM   15  C   UNL     1      -8.491 -15.450   5.518  1.00  0.00     0.165 C 
HETATM   16  O   UNL     1      -8.938 -16.220   4.413  1.00  0.00    -0.370 OA
HETATM   17  C   UNL     1      -6.198 -14.501   6.005  1.00  0.00    -0.006 C 
ENDROOT
BRANCH  15  18
HETATM   18  C   UNL     1      -8.934 -14.010   5.368  1.00  0.00     0.007 C 
HETATM   19  C   UNL     1      -9.889 -13.330   5.873  1.00  0.00     0.012 C 
BRANCH  19  20
HETATM   20  C   UNL     1     -10.277 -11.938   6.110  1.00  0.00    -0.009 C 
HETATM   21  C   UNL     1      -9.353 -11.017   6.721  1.00  0.00     0.044 C 
HETATM   22  N   UNL     1      -7.904 -11.154   6.611  1.00  0.00    -0.389 N 
HETATM   23  C   UNL     1      -9.937  -9.951   7.545  1.00  0.00    -0.031 C 
HETATM   24  C   UNL     1      -7.003 -10.151   7.239  1.00  0.00     0.120 C 
ATOM     25  HN  UNL     1      -7.507 -11.943   6.101  1.00  0.00     0.159 HD
HETATM   26  C   UNL     1      -7.645  -8.972   7.990  1.00  0.00     0.024 C 
HETATM   27  C   UNL     1      -9.015  -9.340   8.607  1.00  0.00     0.042 C 
HETATM   28  C   UNL     1     -11.294  -9.591   7.377  1.00  0.00     0.009 C 
HETATM   29  C   UNL     1     -12.128 -10.358   6.543  1.00  0.00     0.002 C 
HETATM   30  C   UNL     1     -11.607 -11.480   5.848  1.00  0.00     0.014 C 
ENDBRANCH  19  20
ENDBRANCH  15  18
TORSDOF 2
ENDMDL
MODEL 3
REMARK VINA RESULT:      -6.1      4.837     10.131
REMARK  2 active torsions:
REMARK  status: ('A' for Active; 'I' for Inactive)
REMARK    1  A    between atoms: C_1  and  C_24 
REMARK    2  A    between atoms: C_21  and  C_26 
ROOT
HETATM    1  C   UNL     1      -6.415 -16.420   2.931  1.00  0.00     0.119 C 
HETATM    2  C   UNL     1      -9.035 -19.636   6.484  1.00  0.00    -0.002 C 
HETATM    3  C   UNL     1      -4.878 -18.155   6.050  1.00  0.00     0.001 C 
HETATM    4  C   UNL     1      -7.047 -17.064   5.344  1.00  0.00    -0.032 C 
HETATM    5  C   UNL     1      -8.463 -17.235   5.893  1.00  0.00     0.051 C 
HETATM    6  O   UNL     1      -4.194 -16.710   2.236  1.00  0.00    -0.293 OA
HETATM    7  C   UNL     1      -8.633 -18.101   8.282  1.00  0.00    -0.002 C 
HETATM    8  C   UNL     1      -7.102 -16.029   4.237  1.00  0.00     0.160 C 
HETATM    9  C   UNL     1      -4.963 -18.410   3.596  1.00  0.00     0.050 C 
HETATM   10  C   UNL     1      -5.822 -17.117   6.206  1.00  0.00     0.007 C 
HETATM   11  C   UNL     1      -8.967 -18.611   5.550  1.00  0.00    -0.006 C 
HETATM   12  C   UNL     1      -8.855 -19.388   7.841  1.00  0.00    -0.001 C 
HETATM   13  C   UNL     1      -5.096 -17.141   2.966  1.00  0.00     0.152 C 
HETATM   14  C   UNL     1      -4.400 -18.638   4.829  1.00  0.00     0.004 C 
HETATM   15  C   UNL     1      -9.273 -16.177   5.101  1.00  0.00     0.165 C 
HETATM   16  O   UNL     1      -8.504 -15.942   3.932  1.00  0.00    -0.370 OA
HETATM   17  C   UNL     1      -8.546 -17.017   7.372  1.00  0.00    -0.006 C 
ENDROOT
BRANCH  15  18
HETATM   18  C   UNL     1      -9.575 -14.870   5.803  1.00  0.00     0.007 C 
HETATM   19  C   UNL     1      -9.357 -13.646   5.509  1.00  0.00     0.012 C 
BRANCH  19  20
HETATM   20  C   UNL     1      -9.828 -12.304   5.857  1.00  0.00    -0.009 C 
HETATM   21  C   UNL     1      -8.929 -11.346   6.448  1.00  0.00     0.044 C 
HETATM   22  N   UNL     1      -7.488 -11.362   6.219  1.00  0.00    -0.389 N 
HETATM   23  C   UNL     1      -9.523 -10.375   7.376  1.00  0.00    -0.031 C 
HETATM   24  C   UNL     1      -6.617 -10.324   6.834  1.00  0.00     0.120 C 
ATOM     25  HN  UNL     1      -7.076 -12.088   5.635  1.00  0.00     0.159 HD
HETATM   26  C   UNL     1      -7.283  -9.241   7.700  1.00  0.00     0.024 C 
HETATM   27  C   UNL     1      -8.567  -9.750   8.398  1.00  0.00     0.042 C 
HETATM   28  C   UNL     1     -10.912 -10.116   7.334  1.00  0.00     0.009 C 
HETATM   29  C   UNL     1     -11.751 -10.902   6.523  1.00  0.00     0.002 C 
HETATM   30  C   UNL     1     -11.206 -11.941   5.725  1.00  0.00     0.014 C 
ENDBRANCH  19  20
ENDBRANCH  15  18
TORSDOF 2
ENDMDL
MODEL 4
REMARK VINA RESULT:      -5.9      7.121     10.801
REMARK  2 active torsions:
REMARK  status: ('A' for Active; 'I' for Inactive)
REMARK    1  A    between atoms: C_1  and  C_24 
REMARK    2  A    between atoms: C_21  and  C_26 
ROOT
HETATM    1  C   UNL     1      -4.240 -16.282   8.488  1.00  0.00     0.119 C 
HETATM    2  C   UNL     1      -6.498 -17.505   3.667  1.00  0.00    -0.002 C 
HETATM    3  C   UNL     1      -7.442 -18.406   7.905  1.00  0.00     0.001 C 
HETATM    4  C   UNL     1      -6.281 -16.388   6.919  1.00  0.00    -0.032 C 
HETATM    5  C   UNL     1      -6.380 -15.777   5.522  1.00  0.00     0.051 C 
HETATM    6  O   UNL     1      -4.177 -17.711  10.346  1.00  0.00    -0.293 OA
HETATM    7  C   UNL     1      -8.503 -16.312   4.221  1.00  0.00    -0.002 C 
HETATM    8  C   UNL     1      -5.334 -15.529   7.734  1.00  0.00     0.160 C 
HETATM    9  C   UNL     1      -5.052 -18.701   8.453  1.00  0.00     0.050 C 
HETATM   10  C   UNL     1      -7.443 -17.024   7.619  1.00  0.00     0.007 C 
HETATM   11  C   UNL     1      -5.749 -16.709   4.524  1.00  0.00    -0.006 C 
HETATM   12  C   UNL     1      -7.869 -17.319   3.525  1.00  0.00    -0.001 C 
HETATM   13  C   UNL     1      -4.564 -17.578   9.179  1.00  0.00     0.152 C 
HETATM   14  C   UNL     1      -6.359 -19.126   8.417  1.00  0.00     0.004 C 
HETATM   15  C   UNL     1      -5.520 -14.492   5.643  1.00  0.00     0.165 C 
HETATM   16  O   UNL     1      -4.654 -14.746   6.738  1.00  0.00    -0.370 OA
HETATM   17  C   UNL     1      -7.789 -15.474   5.116  1.00  0.00    -0.006 C 
ENDROOT
BRANCH  15  18
HETATM   18  C   UNL     1      -6.256 -13.185   5.846  1.00  0.00     0.007 C 
HETATM   19  C   UNL     1      -6.029 -12.154   6.565  1.00  0.00     0.012 C 
BRANCH  19  20
HETATM   20  C   UNL     1      -6.402 -10.741   6.656  1.00  0.00    -0.009 C 
HETATM   21  C   UNL     1      -5.450  -9.712   6.327  1.00  0.00     0.044 C 
HETATM   22  N   UNL     1      -4.356  -9.913   5.382  1.00  0.00    -0.389 N 
HETATM   23  C   UNL     1      -5.576  -8.443   7.055  1.00  0.00    -0.031 C 
HETATM   24  C   UNL     1      -3.423  -8.800   5.060  1.00  0.00     0.120 C 
ATOM     25  HN  UNL     1      -4.231 -10.823   4.939  1.00  0.00     0.159 HD
HETATM   26  C   UNL     1      -3.657  -7.441   5.744  1.00  0.00     0.024 C 
HETATM   27  C   UNL     1      -4.308  -7.586   7.140  1.00  0.00     0.042 C 
HETATM   28  C   UNL     1      -6.798  -8.108   7.683  1.00  0.00     0.009 C 
HETATM   29  C   UNL     1      -7.837  -9.053   7.753  1.00  0.00     0.002 C 
HETATM   30  C   UNL     1      -7.674 -10.338   7.173  1.00  0.00     0.014 C 
ENDBRANCH  19  20
ENDBRANCH  15  18
TORSDOF 2
ENDMDL
MODEL 5
REMARK VINA RESULT:      -5.3      5.190     10.348
REMARK  2 active torsions:
REMARK  status: ('A' for Active; 'I' for Inactive)
REMARK    1  A    between atoms: C_1  and  C_24 
REMARK    2  A    between atoms: C_21  and  C_26 
ROOT
HETATM    1  C   UNL     1      -5.750 -16.429   8.508  1.00  0.00     0.119 C 
HETATM    2  C   UNL     1      -6.087 -17.904   3.260  1.00  0.00    -0.002 C 
HETATM    3  C   UNL     1      -8.253 -18.978   6.977  1.00  0.00     0.001 C 
HETATM    4  C   UNL     1      -7.118 -16.804   6.358  1.00  0.00    -0.032 C 
HETATM    5  C   UNL     1      -6.831 -16.197   4.985  1.00  0.00     0.051 C 
HETATM    6  O   UNL     1      -6.113 -17.856  10.333  1.00  0.00    -0.293 OA
HETATM    7  C   UNL     1      -8.306 -17.012   3.076  1.00  0.00    -0.002 C 
HETATM    8  C   UNL     1      -6.623 -15.829   7.408  1.00  0.00     0.160 C 
HETATM    9  C   UNL     1      -6.165 -18.938   8.295  1.00  0.00     0.050 C 
HETATM   10  C   UNL     1      -8.349 -17.606   6.657  1.00  0.00     0.007 C 
HETATM   11  C   UNL     1      -5.782 -17.020   4.287  1.00  0.00    -0.006 C 
HETATM   12  C   UNL     1      -7.345 -17.912   2.666  1.00  0.00    -0.001 C 
HETATM   13  C   UNL     1      -6.104 -17.765   9.100  1.00  0.00     0.152 C 
HETATM   14  C   UNL     1      -7.314 -19.543   7.845  1.00  0.00     0.004 C 
HETATM   15  C   UNL     1      -6.244 -14.805   5.337  1.00  0.00     0.165 C 
HETATM   16  O   UNL     1      -5.765 -14.947   6.665  1.00  0.00    -0.370 OA
HETATM   17  C   UNL     1      -8.052 -16.093   4.125  1.00  0.00    -0.006 C 
ENDROOT
BRANCH  15  18
HETATM   18  C   UNL     1      -7.177 -13.617   5.238  1.00  0.00     0.007 C 
HETATM   19  C   UNL     1      -8.305 -13.343   5.769  1.00  0.00     0.012 C 
BRANCH  19  20
HETATM   20  C   UNL     1      -9.164 -12.192   6.056  1.00  0.00    -0.009 C 
HETATM   21  C   UNL     1      -8.623 -11.019   6.694  1.00  0.00     0.044 C 
HETATM   22  N   UNL     1      -7.224 -10.622   6.573  1.00  0.00    -0.389 N 
HETATM   23  C   UNL     1      -9.538 -10.260   7.556  1.00  0.00    -0.031 C 
HETATM   24  C   UNL     1      -6.734  -9.381   7.231  1.00  0.00     0.120 C 
ATOM     25  HN  UNL     1      -6.579 -11.199   6.034  1.00  0.00     0.159 HD
HETATM   26  C   UNL     1      -7.746  -8.535   8.024  1.00  0.00     0.024 C 
HETATM   27  C   UNL     1      -8.881  -9.391   8.634  1.00  0.00     0.042 C 
HETATM   28  C   UNL     1     -10.936 -10.408   7.406  1.00  0.00     0.009 C 
HETATM   29  C   UNL     1     -11.452 -11.398   6.550  1.00  0.00     0.002 C 
HETATM   30  C   UNL     1     -10.574 -12.236   5.815  1.00  0.00     0.014 C 
ENDBRANCH  19  20
ENDBRANCH  15  18
TORSDOF 2
ENDMDL
