REMARK  6 active torsions:
REMARK  status: ('A' for Active; 'I' for Inactive)
REMARK    1  A    between atoms: C_2  and  C_21 
REMARK    2  A    between atoms: C_4  and  C_24 
REMARK    3  A    between atoms: C_4  and  C_32 
REMARK    4  A    between atoms: O_5  and  C_17 
REMARK    5  A    between atoms: O_10  and  C_27 
REMARK    6  A    between atoms: C_18  and  C_24 
ROOT
HETATM    1  C   UNL     1     -13.204 -10.357   7.811  1.00  0.00     0.026 C 
HETATM    2  C   UNL     1     -14.228  -9.444   7.484  1.00  0.00    -0.024 C 
ENDROOT
BRANCH   2   3
HETATM    3  C   UNL     1     -13.932  -8.224   6.874  1.00  0.00     0.026 C 
BRANCH   3   4
HETATM    4  C   UNL     1     -14.198  -7.955   5.523  1.00  0.00     0.001 C 
HETATM    5  C   UNL     1     -14.918  -6.809   5.182  1.00  0.00     0.109 C 
HETATM    6  C   UNL     1     -16.228  -6.871   4.698  1.00  0.00     0.099 C 
HETATM    7  C   UNL     1     -16.610  -7.851   3.816  1.00  0.00     0.039 C 
HETATM    8  C   UNL     1     -15.813  -8.789   3.259  1.00  0.00     0.003 C 
HETATM    9  C   UNL     1     -14.514  -9.124   3.454  1.00  0.00     0.001 C 
HETATM   10  C   UNL     1     -13.704  -8.779   4.520  1.00  0.00     0.014 C 
BRANCH   5  11
HETATM   11  O   UNL     1     -14.303  -5.576   5.315  1.00  0.00    -0.357 OA
ATOM     12  HO  UNL     1     -13.413  -5.534   5.644  1.00  0.00     0.217 HD
ENDBRANCH   5  11
BRANCH   6  13
HETATM   13  O   UNL     1     -17.130  -5.929   5.073  1.00  0.00    -0.358 OA
ATOM     14  HO  UNL     1     -18.020  -5.971   4.744  1.00  0.00     0.217 HD
ENDBRANCH   6  13
ENDBRANCH   3   4
ENDBRANCH   2   3
BRANCH   2  15
HETATM   15  C   UNL     1     -15.642  -9.704   7.718  1.00  0.00    -0.026 C 
HETATM   16  C   UNL     1     -16.391  -8.921   8.588  1.00  0.00     0.012 C 
HETATM   17  C   UNL     1     -17.781  -8.955   8.528  1.00  0.00     0.001 C 
HETATM   18  C   UNL     1     -18.409  -9.858   7.693  1.00  0.00     0.000 C 
HETATM   19  C   UNL     1     -17.656 -10.745   6.945  1.00  0.00     0.001 C 
HETATM   20  C   UNL     1     -16.270 -10.723   7.017  1.00  0.00     0.012 C 
ENDBRANCH   2  15
BRANCH   1  21
HETATM   21  C   UNL     1     -11.816 -10.051   7.652  1.00  0.00    -0.009 C 
HETATM   22  C   UNL     1     -11.374  -8.760   7.884  1.00  0.00     0.100 C 
HETATM   23  N   UNL     1     -10.397  -8.315   8.695  1.00  0.00    -0.374 N 
HETATM   24  C   UNL     1      -9.271  -9.025   8.982  1.00  0.00     0.088 C 
ATOM     25  HN  UNL     1     -10.506  -7.394   9.119  1.00  0.00     0.164 HD
HETATM   26  C   UNL     1      -8.840 -10.085   8.362  1.00  0.00     0.029 C 
HETATM   27  C   UNL     1      -9.445 -10.940   7.361  1.00  0.00    -0.024 C 
HETATM   28  C   UNL     1     -10.887 -11.085   7.194  1.00  0.00    -0.014 C 
HETATM   29  C   UNL     1      -8.595 -11.704   6.543  1.00  0.00     0.012 C 
HETATM   30  C   UNL     1     -11.362 -12.236   6.544  1.00  0.00     0.013 C 
HETATM   31  C   UNL     1     -10.482 -13.053   5.827  1.00  0.00     0.001 C 
HETATM   32  C   UNL     1      -9.115 -12.795   5.842  1.00  0.00     0.001 C 
ENDBRANCH   1  21
TORSDOF 6
