MODEL 1
REMARK VINA RESULT:      -8.8      0.000      0.000
REMARK  4 active torsions:
REMARK  status: ('A' for Active; 'I' for Inactive)
REMARK    1  A    between atoms: C_1  and  O_23 
REMARK    2  A    between atoms: C_3  and  C_28 
REMARK    3  A    between atoms: O_5  and  C_13 
REMARK    4  A    between atoms: C_8  and  O_20 
ROOT
HETATM    1  C   UNL     1       4.594   7.163  18.378  1.00  0.00     0.065 C 
HETATM    2  C   UNL     1       5.673   7.196  17.455  1.00  0.00     0.005 C 
HETATM    3  C   UNL     1       4.156   9.384  19.851  1.00  0.00     0.233 C 
HETATM    4  N   UNL     1       4.066   8.108  19.237  1.00  0.00    -0.279 N 
HETATM    5  C   UNL     1       4.414   4.694  16.290  1.00  0.00     0.066 C 
HETATM    6  C   UNL     1       1.067   6.465  18.605  1.00  0.00     0.017 C 
HETATM    7  C   UNL     1       2.438   6.624  18.818  1.00  0.00     0.004 C 
HETATM    8  C   UNL     1       3.603   6.173  18.189  1.00  0.00     0.007 C 
HETATM    9  C   UNL     1       5.234   5.608  15.655  1.00  0.00     0.037 C 
HETATM   10  C   UNL     1       0.649   8.365  20.126  1.00  0.00     0.074 C 
HETATM   11  C   UNL     1       0.179   7.287  19.315  1.00  0.00     0.038 C 
HETATM   12  O   UNL     1       5.170   9.964  20.213  1.00  0.00    -0.272 OA
HETATM   13  C   UNL     1       2.030   8.567  20.181  1.00  0.00     0.012 C 
HETATM   14  C   UNL     1       3.750   4.987  17.480  1.00  0.00     0.051 C 
HETATM   15  C   UNL     1       5.341   6.921  16.115  1.00  0.00     0.017 C 
HETATM   16  C   UNL     1       2.740   9.911  20.080  1.00  0.00     0.147 C 
HETATM   17  C   UNL     1       2.833   7.692  19.545  1.00  0.00     0.063 C 
ENDROOT
BRANCH   2  18
HETATM   18  C   UNL     1       7.050   7.466  17.725  1.00  0.00     0.009 C 
HETATM   19  C   UNL     1       7.554   8.777  17.594  1.00  0.00     0.076 C 
HETATM   20  C   UNL     1       8.687   9.002  16.810  1.00  0.00     0.037 C 
HETATM   21  C   UNL     1       9.484   7.904  16.460  1.00  0.00     0.003 C 
HETATM   22  C   UNL     1       9.196   6.651  17.009  1.00  0.00     0.001 C 
HETATM   23  C   UNL     1       8.027   6.452  17.753  1.00  0.00     0.015 C 
BRANCH  19  24
HETATM   24  O   UNL     1       6.928   9.799  18.186  1.00  0.00    -0.360 OA
ATOM     25  HO  UNL     1       7.400  10.375  18.776  1.00  0.00     0.217 HD
ENDBRANCH  19  24
ENDBRANCH   2  18
BRANCH   5  26
HETATM   26  O   UNL     1       4.251   3.457  15.756  1.00  0.00    -0.361 OA
ATOM     27  HO  UNL     1       4.813   3.177  15.043  1.00  0.00     0.217 HD
ENDBRANCH   5  26
BRANCH  10  28
HETATM   28  O   UNL     1      -0.013   8.445  21.339  1.00  0.00    -0.360 OA
ATOM     29  HO  UNL     1      -0.586   9.200  21.392  1.00  0.00     0.217 HD
ENDBRANCH  10  28
TORSDOF 4
ENDMDL
MODEL 2
REMARK VINA RESULT:      -8.6      2.616      5.167
REMARK  4 active torsions:
REMARK  status: ('A' for Active; 'I' for Inactive)
REMARK    1  A    between atoms: C_1  and  O_23 
REMARK    2  A    between atoms: C_3  and  C_28 
REMARK    3  A    between atoms: O_5  and  C_13 
REMARK    4  A    between atoms: C_8  and  O_20 
ROOT
HETATM    1  C   UNL     1       1.271   7.307  18.640  1.00  0.00     0.065 C 
HETATM    2  C   UNL     1       2.529   6.730  18.323  1.00  0.00     0.005 C 
HETATM    3  C   UNL     1      -0.927   5.795  18.214  1.00  0.00     0.233 C 
HETATM    4  N   UNL     1      -0.021   6.819  18.595  1.00  0.00    -0.279 N 
HETATM    5  C   UNL     1       3.695   9.032  19.917  1.00  0.00     0.066 C 
HETATM    6  C   UNL     1      -0.518   8.937  21.310  1.00  0.00     0.017 C 
HETATM    7  C   UNL     1      -0.006   8.493  20.088  1.00  0.00     0.004 C 
HETATM    8  C   UNL     1       1.264   8.424  19.506  1.00  0.00     0.007 C 
HETATM    9  C   UNL     1       4.260   7.793  19.676  1.00  0.00     0.037 C 
HETATM   10  C   UNL     1      -2.617   7.730  20.825  1.00  0.00     0.074 C 
HETATM   11  C   UNL     1      -1.844   8.614  21.637  1.00  0.00     0.038 C 
HETATM   12  O   UNL     1      -0.880   5.099  17.211  1.00  0.00    -0.272 OA
HETATM   13  C   UNL     1      -1.997   7.198  19.692  1.00  0.00     0.012 C 
HETATM   14  C   UNL     1       2.332   9.276  19.757  1.00  0.00     0.051 C 
HETATM   15  C   UNL     1       3.465   6.686  19.374  1.00  0.00     0.017 C 
HETATM   16  C   UNL     1      -2.059   5.745  19.239  1.00  0.00     0.147 C 
HETATM   17  C   UNL     1      -0.753   7.612  19.385  1.00  0.00     0.063 C 
ENDROOT
BRANCH   2  18
HETATM   18  C   UNL     1       2.960   6.198  17.068  1.00  0.00     0.009 C 
HETATM   19  C   UNL     1       2.831   4.819  16.802  1.00  0.00     0.076 C 
HETATM   20  C   UNL     1       3.944   4.098  16.366  1.00  0.00     0.037 C 
HETATM   21  C   UNL     1       5.050   4.808  15.880  1.00  0.00     0.003 C 
HETATM   22  C   UNL     1       4.956   6.194  15.728  1.00  0.00     0.001 C 
HETATM   23  C   UNL     1       3.844   6.890  16.218  1.00  0.00     0.015 C 
BRANCH  19  24
HETATM   24  O   UNL     1       1.661   4.202  17.003  1.00  0.00    -0.360 OA
ATOM     25  HO  UNL     1       0.892   4.701  17.251  1.00  0.00     0.217 HD
ENDBRANCH  19  24
ENDBRANCH   2  18
BRANCH   5  26
HETATM   26  O   UNL     1       4.486  10.063  20.311  1.00  0.00    -0.361 OA
ATOM     27  HO  UNL     1       5.411  10.052  20.095  1.00  0.00     0.217 HD
ENDBRANCH   5  26
BRANCH  10  28
HETATM   28  O   UNL     1      -3.914   8.176  20.639  1.00  0.00    -0.360 OA
ATOM     29  HO  UNL     1      -4.046   9.058  20.967  1.00  0.00     0.217 HD
ENDBRANCH  10  28
TORSDOF 4
ENDMDL
MODEL 3
REMARK VINA RESULT:      -7.9      2.088      7.249
REMARK  4 active torsions:
REMARK  status: ('A' for Active; 'I' for Inactive)
REMARK    1  A    between atoms: C_1  and  O_23 
REMARK    2  A    between atoms: C_3  and  C_28 
REMARK    3  A    between atoms: O_5  and  C_13 
REMARK    4  A    between atoms: C_8  and  O_20 
ROOT
HETATM    1  C   UNL     1       2.514   6.470  18.346  1.00  0.00     0.065 C 
HETATM    2  C   UNL     1       1.298   7.155  18.609  1.00  0.00     0.005 C 
HETATM    3  C   UNL     1       2.406   4.354  16.670  1.00  0.00     0.233 C 
HETATM    4  N   UNL     1       2.831   5.404  17.525  1.00  0.00    -0.279 N 
HETATM    5  C   UNL     1       3.072   9.327  19.763  1.00  0.00     0.066 C 
HETATM    6  C   UNL     1       5.902   7.012  17.247  1.00  0.00     0.017 C 
HETATM    7  C   UNL     1       4.721   6.566  17.846  1.00  0.00     0.004 C 
HETATM    8  C   UNL     1       3.720   7.149  18.630  1.00  0.00     0.007 C 
HETATM    9  C   UNL     1       1.798   9.458  19.242  1.00  0.00     0.037 C 
HETATM   10  C   UNL     1       5.925   4.968  15.860  1.00  0.00     0.074 C 
HETATM   11  C   UNL     1       6.535   6.178  16.312  1.00  0.00     0.038 C 
HETATM   12  O   UNL     1       1.402   3.666  16.782  1.00  0.00    -0.272 OA
HETATM   13  C   UNL     1       4.671   4.651  16.387  1.00  0.00     0.012 C 
HETATM   14  C   UNL     1       3.876   8.219  19.502  1.00  0.00     0.051 C 
HETATM   15  C   UNL     1       1.297   8.533  18.324  1.00  0.00     0.017 C 
HETATM   16  C   UNL     1       3.472   4.146  15.595  1.00  0.00     0.147 C 
HETATM   17  C   UNL     1       4.155   5.447  17.343  1.00  0.00     0.063 C 
ENDROOT
BRANCH   2  18
HETATM   18  C   UNL     1       0.083   6.615  19.133  1.00  0.00     0.009 C 
HETATM   19  C   UNL     1      -0.937   6.186  18.259  1.00  0.00     0.076 C 
HETATM   20  C   UNL     1      -2.237   6.668  18.432  1.00  0.00     0.037 C 
HETATM   21  C   UNL     1      -2.565   7.278  19.649  1.00  0.00     0.003 C 
HETATM   22  C   UNL     1      -1.630   7.271  20.688  1.00  0.00     0.001 C 
HETATM   23  C   UNL     1      -0.323   6.823  20.466  1.00  0.00     0.015 C 
BRANCH  19  24
HETATM   24  O   UNL     1      -0.652   5.355  17.250  1.00  0.00    -0.360 OA
ATOM     25  HO  UNL     1      -1.143   4.550  17.139  1.00  0.00     0.217 HD
ENDBRANCH  19  24
ENDBRANCH   2  18
BRANCH   5  26
HETATM   26  O   UNL     1       3.567  10.300  20.571  1.00  0.00    -0.361 OA
ATOM     27  HO  UNL     1       4.303  10.823  20.276  1.00  0.00     0.217 HD
ENDBRANCH   5  26
BRANCH  10  28
HETATM   28  O   UNL     1       6.822   3.917  15.785  1.00  0.00    -0.360 OA
ATOM     29  HO  UNL     1       7.725   4.210  15.764  1.00  0.00     0.217 HD
ENDBRANCH  10  28
TORSDOF 4
ENDMDL
MODEL 4
REMARK VINA RESULT:      -7.6      1.277      1.665
REMARK  4 active torsions:
REMARK  status: ('A' for Active; 'I' for Inactive)
REMARK    1  A    between atoms: C_1  and  O_23 
REMARK    2  A    between atoms: C_3  and  C_28 
REMARK    3  A    between atoms: O_5  and  C_13 
REMARK    4  A    between atoms: C_8  and  O_20 
ROOT
HETATM    1  C   UNL     1       3.817   6.828  18.033  1.00  0.00     0.065 C 
HETATM    2  C   UNL     1       5.062   6.990  17.370  1.00  0.00     0.005 C 
HETATM    3  C   UNL     1       2.744   9.012  19.207  1.00  0.00     0.233 C 
HETATM    4  N   UNL     1       2.979   7.713  18.683  1.00  0.00    -0.279 N 
HETATM    5  C   UNL     1       4.470   4.280  16.144  1.00  0.00     0.066 C 
HETATM    6  C   UNL     1       0.466   5.604  17.529  1.00  0.00     0.017 C 
HETATM    7  C   UNL     1       1.716   5.980  18.027  1.00  0.00     0.004 C 
HETATM    8  C   UNL     1       3.046   5.690  17.704  1.00  0.00     0.007 C 
HETATM    9  C   UNL     1       5.275   5.284  15.639  1.00  0.00     0.037 C 
HETATM   10  C   UNL     1      -0.553   7.475  18.778  1.00  0.00     0.074 C 
HETATM   11  C   UNL     1      -0.668   6.307  17.964  1.00  0.00     0.038 C 
HETATM   12  O   UNL     1       3.556   9.755  19.739  1.00  0.00    -0.272 OA
HETATM   13  C   UNL     1       0.737   7.889  19.119  1.00  0.00     0.012 C 
HETATM   14  C   UNL     1       3.516   4.514  17.134  1.00  0.00     0.051 C 
HETATM   15  C   UNL     1       5.087   6.615  16.013  1.00  0.00     0.017 C 
HETATM   16  C   UNL     1       1.253   9.322  19.079  1.00  0.00     0.147 C 
HETATM   17  C   UNL     1       1.779   7.125  18.742  1.00  0.00     0.063 C 
ENDROOT
BRANCH   2  18
HETATM   18  C   UNL     1       6.289   7.480  17.915  1.00  0.00     0.009 C 
HETATM   19  C   UNL     1       6.274   8.334  19.037  1.00  0.00     0.076 C 
HETATM   20  C   UNL     1       6.963   9.549  18.985  1.00  0.00     0.037 C 
HETATM   21  C   UNL     1       7.915   9.732  17.974  1.00  0.00     0.003 C 
HETATM   22  C   UNL     1       8.237   8.658  17.139  1.00  0.00     0.001 C 
HETATM   23  C   UNL     1       7.496   7.471  17.188  1.00  0.00     0.015 C 
BRANCH  19  24
HETATM   24  O   UNL     1       5.576   8.000  20.128  1.00  0.00    -0.360 OA
ATOM     25  HO  UNL     1       5.803   8.366  20.974  1.00  0.00     0.217 HD
ENDBRANCH  19  24
ENDBRANCH   2  18
BRANCH   5  26
HETATM   26  O   UNL     1       4.610   3.012  15.679  1.00  0.00    -0.361 OA
ATOM     27  HO  UNL     1       4.413   2.823  14.769  1.00  0.00     0.217 HD
ENDBRANCH   5  26
BRANCH  10  28
HETATM   28  O   UNL     1      -1.478   7.500  19.806  1.00  0.00    -0.360 OA
ATOM     29  HO  UNL     1      -2.336   7.200  19.531  1.00  0.00     0.217 HD
ENDBRANCH  10  28
TORSDOF 4
ENDMDL
MODEL 5
REMARK VINA RESULT:      -7.1      1.905      5.181
REMARK  4 active torsions:
REMARK  status: ('A' for Active; 'I' for Inactive)
REMARK    1  A    between atoms: C_1  and  O_23 
REMARK    2  A    between atoms: C_3  and  C_28 
REMARK    3  A    between atoms: O_5  and  C_13 
REMARK    4  A    between atoms: C_8  and  O_20 
ROOT
HETATM    1  C   UNL     1       4.607   6.487  17.791  1.00  0.00     0.065 C 
HETATM    2  C   UNL     1       3.862   5.729  16.850  1.00  0.00     0.005 C 
HETATM    3  C   UNL     1       7.162   7.087  17.155  1.00  0.00     0.233 C 
HETATM    4  N   UNL     1       5.890   7.000  17.777  1.00  0.00    -0.279 N 
HETATM    5  C   UNL     1       1.444   6.557  18.483  1.00  0.00     0.066 C 
HETATM    6  C   UNL     1       4.498   9.534  19.711  1.00  0.00     0.017 C 
HETATM    7  C   UNL     1       4.705   8.242  19.220  1.00  0.00     0.004 C 
HETATM    8  C   UNL     1       3.883   7.204  18.771  1.00  0.00     0.007 C 
HETATM    9  C   UNL     1       1.485   6.193  17.149  1.00  0.00     0.037 C 
HETATM   10  C   UNL     1       6.890  10.020  19.332  1.00  0.00     0.074 C 
HETATM   11  C   UNL     1       5.604  10.389  19.832  1.00  0.00     0.038 C 
HETATM   12  O   UNL     1       7.763   6.199  16.568  1.00  0.00    -0.272 OA
HETATM   13  C   UNL     1       6.999   8.772  18.715  1.00  0.00     0.012 C 
HETATM   14  C   UNL     1       2.583   6.945  19.187  1.00  0.00     0.051 C 
HETATM   15  C   UNL     1       2.660   6.313  16.406  1.00  0.00     0.017 C 
HETATM   16  C   UNL     1       7.731   8.483  17.410  1.00  0.00     0.147 C 
HETATM   17  C   UNL     1       5.923   7.962  18.705  1.00  0.00     0.063 C 
ENDROOT
BRANCH   2  18
HETATM   18  C   UNL     1       4.182   4.446  16.306  1.00  0.00     0.009 C 
HETATM   19  C   UNL     1       5.126   4.334  15.264  1.00  0.00     0.076 C 
HETATM   20  C   UNL     1       4.783   3.642  14.100  1.00  0.00     0.037 C 
HETATM   21  C   UNL     1       3.665   2.799  14.130  1.00  0.00     0.003 C 
HETATM   22  C   UNL     1       3.011   2.578  15.346  1.00  0.00     0.001 C 
HETATM   23  C   UNL     1       3.351   3.323  16.482  1.00  0.00     0.015 C 
BRANCH  19  24
HETATM   24  O   UNL     1       6.323   4.917  15.376  1.00  0.00    -0.360 OA
ATOM     25  HO  UNL     1       6.853   5.078  14.604  1.00  0.00     0.217 HD
ENDBRANCH  19  24
ENDBRANCH   2  18
BRANCH   5  26
HETATM   26  O   UNL     1       0.261   6.528  19.148  1.00  0.00    -0.361 OA
ATOM     27  HO  UNL     1      -0.523   6.857  18.724  1.00  0.00     0.217 HD
ENDBRANCH   5  26
BRANCH  10  28
HETATM   28  O   UNL     1       7.913  10.344  20.205  1.00  0.00    -0.360 OA
ATOM     29  HO  UNL     1       7.626  10.918  20.906  1.00  0.00     0.217 HD
ENDBRANCH  10  28
TORSDOF 4
ENDMDL
MODEL 6
REMARK VINA RESULT:      -7.1      2.482      4.625
REMARK  4 active torsions:
REMARK  status: ('A' for Active; 'I' for Inactive)
REMARK    1  A    between atoms: C_1  and  O_23 
REMARK    2  A    between atoms: C_3  and  C_28 
REMARK    3  A    between atoms: O_5  and  C_13 
REMARK    4  A    between atoms: C_8  and  O_20 
ROOT
HETATM    1  C   UNL     1       2.206   7.364  18.658  1.00  0.00     0.065 C 
HETATM    2  C   UNL     1       3.519   6.829  18.585  1.00  0.00     0.005 C 
HETATM    3  C   UNL     1       0.153   5.680  18.158  1.00  0.00     0.233 C 
HETATM    4  N   UNL     1       0.954   6.797  18.513  1.00  0.00    -0.279 N 
HETATM    5  C   UNL     1       4.359   9.380  19.995  1.00  0.00     0.066 C 
HETATM    6  C   UNL     1       0.004   9.206  20.835  1.00  0.00     0.017 C 
HETATM    7  C   UNL     1       0.695   8.644  19.759  1.00  0.00     0.004 C 
HETATM    8  C   UNL     1       2.034   8.579  19.359  1.00  0.00     0.007 C 
HETATM    9  C   UNL     1       5.004   8.157  19.995  1.00  0.00     0.037 C 
HETATM   10  C   UNL     1      -1.956   7.823  20.249  1.00  0.00     0.074 C 
HETATM   11  C   UNL     1      -1.338   8.847  21.030  1.00  0.00     0.038 C 
HETATM   12  O   UNL     1       0.366   4.867  17.270  1.00  0.00    -0.272 OA
HETATM   13  C   UNL     1      -1.166   7.191  19.286  1.00  0.00     0.012 C 
HETATM   14  C   UNL     1       3.020   9.519  19.630  1.00  0.00     0.051 C 
HETATM   15  C   UNL     1       4.306   6.975  19.743  1.00  0.00     0.017 C 
HETATM   16  C   UNL     1      -1.104   5.691  19.027  1.00  0.00     0.147 C 
HETATM   17  C   UNL     1       0.089   7.638  19.090  1.00  0.00     0.063 C 
ENDROOT
BRANCH   2  18
HETATM   18  C   UNL     1       4.138   6.170  17.477  1.00  0.00     0.009 C 
HETATM   19  C   UNL     1       4.754   6.925  16.458  1.00  0.00     0.076 C 
HETATM   20  C   UNL     1       4.404   6.695  15.126  1.00  0.00     0.037 C 
HETATM   21  C   UNL     1       3.723   5.512  14.811  1.00  0.00     0.003 C 
HETATM   22  C   UNL     1       3.532   4.550  15.807  1.00  0.00     0.001 C 
HETATM   23  C   UNL     1       3.854   4.832  17.140  1.00  0.00     0.015 C 
BRANCH  19  24
HETATM   24  O   UNL     1       5.639   7.879  16.769  1.00  0.00    -0.360 OA
ATOM     25  HO  UNL     1       5.515   8.413  17.545  1.00  0.00     0.217 HD
ENDBRANCH  19  24
ENDBRANCH   2  18
BRANCH   5  26
HETATM   26  O   UNL     1       5.044  10.498  20.347  1.00  0.00    -0.361 OA
ATOM     27  HO  UNL     1       4.927  11.296  19.845  1.00  0.00     0.217 HD
ENDBRANCH   5  26
BRANCH  10  28
HETATM   28  O   UNL     1      -3.234   8.163  19.842  1.00  0.00    -0.360 OA
ATOM     29  HO  UNL     1      -3.299   8.275  18.901  1.00  0.00     0.217 HD
ENDBRANCH  10  28
TORSDOF 4
ENDMDL
MODEL 7
REMARK VINA RESULT:      -6.9      1.314      5.825
REMARK  4 active torsions:
REMARK  status: ('A' for Active; 'I' for Inactive)
REMARK    1  A    between atoms: C_1  and  O_23 
REMARK    2  A    between atoms: C_3  and  C_28 
REMARK    3  A    between atoms: O_5  and  C_13 
REMARK    4  A    between atoms: C_8  and  O_20 
ROOT
HETATM    1  C   UNL     1       3.939   7.328  17.725  1.00  0.00     0.065 C 
HETATM    2  C   UNL     1       2.749   6.684  18.154  1.00  0.00     0.005 C 
HETATM    3  C   UNL     1       4.964   9.240  19.335  1.00  0.00     0.233 C 
HETATM    4  N   UNL     1       4.744   8.292  18.302  1.00  0.00    -0.279 N 
HETATM    5  C   UNL     1       3.379   4.648  15.997  1.00  0.00     0.066 C 
HETATM    6  C   UNL     1       7.295   6.646  16.604  1.00  0.00     0.017 C 
HETATM    7  C   UNL     1       6.019   7.164  16.842  1.00  0.00     0.004 C 
HETATM    8  C   UNL     1       4.712   6.680  16.735  1.00  0.00     0.007 C 
HETATM    9  C   UNL     1       2.631   4.466  17.145  1.00  0.00     0.037 C 
HETATM   10  C   UNL     1       8.255   8.518  17.898  1.00  0.00     0.074 C 
HETATM   11  C   UNL     1       8.407   7.364  17.070  1.00  0.00     0.038 C 
HETATM   12  O   UNL     1       4.130   9.941  19.888  1.00  0.00    -0.272 OA
HETATM   13  C   UNL     1       6.952   8.900  18.226  1.00  0.00     0.012 C 
HETATM   14  C   UNL     1       4.262   5.715  15.842  1.00  0.00     0.051 C 
HETATM   15  C   UNL     1       2.815   5.282  18.262  1.00  0.00     0.017 C 
HETATM   16  C   UNL     1       6.466   9.318  19.608  1.00  0.00     0.147 C 
HETATM   17  C   UNL     1       5.925   8.221  17.679  1.00  0.00     0.063 C 
ENDROOT
BRANCH   2  18
HETATM   18  C   UNL     1       1.494   7.287  18.482  1.00  0.00     0.009 C 
HETATM   19  C   UNL     1       1.179   7.581  19.824  1.00  0.00     0.076 C 
HETATM   20  C   UNL     1      -0.025   7.122  20.363  1.00  0.00     0.037 C 
HETATM   21  C   UNL     1      -1.026   6.689  19.484  1.00  0.00     0.003 C 
HETATM   22  C   UNL     1      -0.840   6.850  18.108  1.00  0.00     0.001 C 
HETATM   23  C   UNL     1       0.396   7.270  17.601  1.00  0.00     0.015 C 
BRANCH  19  24
HETATM   24  O   UNL     1       2.044   8.260  20.585  1.00  0.00    -0.360 OA
ATOM     25  HO  UNL     1       2.601   7.803  21.204  1.00  0.00     0.217 HD
ENDBRANCH  19  24
ENDBRANCH   2  18
BRANCH   5  26
HETATM   26  O   UNL     1       3.250   3.771  14.968  1.00  0.00    -0.361 OA
ATOM     27  HO  UNL     1       2.958   2.884  15.143  1.00  0.00     0.217 HD
ENDBRANCH   5  26
BRANCH  10  28
HETATM   28  O   UNL     1       9.103   9.549  17.534  1.00  0.00    -0.360 OA
ATOM     29  HO  UNL     1       9.961   9.239  17.271  1.00  0.00     0.217 HD
ENDBRANCH  10  28
TORSDOF 4
ENDMDL
MODEL 8
REMARK VINA RESULT:      -6.8      3.158      7.803
REMARK  4 active torsions:
REMARK  status: ('A' for Active; 'I' for Inactive)
REMARK    1  A    between atoms: C_1  and  O_23 
REMARK    2  A    between atoms: C_3  and  C_28 
REMARK    3  A    between atoms: O_5  and  C_13 
REMARK    4  A    between atoms: C_8  and  O_20 
ROOT
HETATM    1  C   UNL     1      -0.503   6.979  19.020  1.00  0.00     0.065 C 
HETATM    2  C   UNL     1      -1.658   6.840  19.834  1.00  0.00     0.005 C 
HETATM    3  C   UNL     1       1.569   8.382  20.037  1.00  0.00     0.233 C 
HETATM    4  N   UNL     1       0.727   7.574  19.230  1.00  0.00    -0.279 N 
HETATM    5  C   UNL     1      -2.474   4.686  17.861  1.00  0.00     0.066 C 
HETATM    6  C   UNL     1       1.887   5.060  17.124  1.00  0.00     0.017 C 
HETATM    7  C   UNL     1       1.014   6.026  17.633  1.00  0.00     0.004 C 
HETATM    8  C   UNL     1      -0.348   6.072  17.947  1.00  0.00     0.007 C 
HETATM    9  C   UNL     1      -2.858   4.818  19.183  1.00  0.00     0.037 C 
HETATM   10  C   UNL     1       3.792   6.447  17.862  1.00  0.00     0.074 C 
HETATM   11  C   UNL     1       3.266   5.310  17.176  1.00  0.00     0.038 C 
HETATM   12  O   UNL     1       1.247   9.355  20.703  1.00  0.00    -0.272 OA
HETATM   13  C   UNL     1       2.874   7.299  18.481  1.00  0.00     0.012 C 
HETATM   14  C   UNL     1      -1.358   5.337  17.338  1.00  0.00     0.051 C 
HETATM   15  C   UNL     1      -2.068   5.519  20.095  1.00  0.00     0.017 C 
HETATM   16  C   UNL     1       3.007   7.890  19.879  1.00  0.00     0.147 C 
HETATM   17  C   UNL     1       1.560   7.052  18.324  1.00  0.00     0.063 C 
ENDROOT
BRANCH   2  18
HETATM   18  C   UNL     1      -2.454   7.877  20.412  1.00  0.00     0.009 C 
HETATM   19  C   UNL     1      -2.266   8.246  21.760  1.00  0.00     0.076 C 
HETATM   20  C   UNL     1      -3.366   8.283  22.620  1.00  0.00     0.037 C 
HETATM   21  C   UNL     1      -4.650   8.291  22.061  1.00  0.00     0.003 C 
HETATM   22  C   UNL     1      -4.788   8.392  20.673  1.00  0.00     0.001 C 
HETATM   23  C   UNL     1      -3.667   8.306  19.839  1.00  0.00     0.015 C 
BRANCH  19  24
HETATM   24  O   UNL     1      -1.040   8.522  22.217  1.00  0.00    -0.360 OA
ATOM     25  HO  UNL     1      -0.735   8.140  23.032  1.00  0.00     0.217 HD
ENDBRANCH  19  24
ENDBRANCH   2  18
BRANCH   5  26
HETATM   26  O   UNL     1      -3.210   3.910  17.025  1.00  0.00    -0.361 OA
ATOM     27  HO  UNL     1      -3.984   3.469  17.355  1.00  0.00     0.217 HD
ENDBRANCH   5  26
BRANCH  10  28
HETATM   28  O   UNL     1       4.802   7.074  17.155  1.00  0.00    -0.360 OA
ATOM     29  HO  UNL     1       4.476   7.758  16.582  1.00  0.00     0.217 HD
ENDBRANCH  10  28
TORSDOF 4
ENDMDL
MODEL 9
REMARK VINA RESULT:      -6.7      2.650      7.769
REMARK  4 active torsions:
REMARK  status: ('A' for Active; 'I' for Inactive)
REMARK    1  A    between atoms: C_1  and  O_23 
REMARK    2  A    between atoms: C_3  and  C_28 
REMARK    3  A    between atoms: O_5  and  C_13 
REMARK    4  A    between atoms: C_8  and  O_20 
ROOT
HETATM    1  C   UNL     1       0.477   6.986  19.544  1.00  0.00     0.065 C 
HETATM    2  C   UNL     1      -0.886   6.730  19.240  1.00  0.00     0.005 C 
HETATM    3  C   UNL     1       2.335   5.894  17.916  1.00  0.00     0.233 C 
HETATM    4  N   UNL     1       1.659   6.637  18.918  1.00  0.00    -0.279 N 
HETATM    5  C   UNL     1      -1.475   8.979  21.188  1.00  0.00     0.066 C 
HETATM    6  C   UNL     1       2.792   9.673  20.182  1.00  0.00     0.017 C 
HETATM    7  C   UNL     1       2.083   8.470  20.139  1.00  0.00     0.004 C 
HETATM    8  C   UNL     1       0.763   8.082  20.390  1.00  0.00     0.007 C 
HETATM    9  C   UNL     1      -2.259   8.536  20.139  1.00  0.00     0.037 C 
HETATM   10  C   UNL     1       4.598   8.611  18.873  1.00  0.00     0.074 C 
HETATM   11  C   UNL     1       4.074   9.715  19.613  1.00  0.00     0.038 C 
HETATM   12  O   UNL     1       2.064   4.772  17.514  1.00  0.00    -0.272 OA
HETATM   13  C   UNL     1       3.778   7.489  18.738  1.00  0.00     0.012 C 
HETATM   14  C   UNL     1      -0.116   8.683  21.282  1.00  0.00     0.051 C 
HETATM   15  C   UNL     1      -1.696   7.867  19.052  1.00  0.00     0.017 C 
HETATM   16  C   UNL     1       3.550   6.700  17.455  1.00  0.00     0.147 C 
HETATM   17  C   UNL     1       2.593   7.476  19.378  1.00  0.00     0.063 C 
ENDROOT
BRANCH   2  18
HETATM   18  C   UNL     1      -1.533   5.462  19.110  1.00  0.00     0.009 C 
HETATM   19  C   UNL     1      -1.663   4.860  17.842  1.00  0.00     0.076 C 
HETATM   20  C   UNL     1      -2.921   4.433  17.410  1.00  0.00     0.037 C 
HETATM   21  C   UNL     1      -3.941   4.299  18.360  1.00  0.00     0.003 C 
HETATM   22  C   UNL     1      -3.638   4.469  19.714  1.00  0.00     0.001 C 
HETATM   23  C   UNL     1      -2.380   4.941  20.107  1.00  0.00     0.015 C 
BRANCH  19  24
HETATM   24  O   UNL     1      -0.596   4.733  17.045  1.00  0.00    -0.360 OA
ATOM     25  HO  UNL     1      -0.140   3.902  16.982  1.00  0.00     0.217 HD
ENDBRANCH  19  24
ENDBRANCH   2  18
BRANCH   5  26
HETATM   26  O   UNL     1      -2.038   9.719  22.178  1.00  0.00    -0.361 OA
ATOM     27  HO  UNL     1      -2.530   9.285  22.864  1.00  0.00     0.217 HD
ENDBRANCH   5  26
BRANCH  10  28
HETATM   28  O   UNL     1       5.921   8.348  19.177  1.00  0.00    -0.360 OA
ATOM     29  HO  UNL     1       6.512   8.587  18.473  1.00  0.00     0.217 HD
ENDBRANCH  10  28
TORSDOF 4
ENDMDL
