REMARK  5 active torsions:
REMARK  status: ('A' for Active; 'I' for Inactive)
REMARK    1  A    between atoms: N_3  and  C_17 
REMARK    2  A    between atoms: N_3  and  C_24 
REMARK    3  A    between atoms: C_6  and  O_8 
REMARK    4  A    between atoms: P_7  and  O_10 
REMARK    5  A    between atoms: O_10  and  C_20 
ROOT
HETATM    1  C   UNL     1      19.294  36.925  37.480  1.00  0.00     0.075 C 
HETATM    2  C   UNL     1      18.212  39.301  37.574  1.00  0.00     0.074 C 
HETATM    3  C   UNL     1      17.786  37.730  35.834  1.00  0.00    -0.044 C 
HETATM    4  C   UNL     1      16.990  39.984  35.633  1.00  0.00     0.035 C 
HETATM    5  C   UNL     1      17.397  40.231  36.940  1.00  0.00     0.066 C 
HETATM    6  C   UNL     1      17.779  36.242  35.670  1.00  0.00     0.072 C 
HETATM    7  C   UNL     1      18.678  35.718  36.791  1.00  0.00     0.144 C 
HETATM    8  C   UNL     1      17.257  38.742  35.053  1.00  0.00     0.037 C 
HETATM    9  C   UNL     1      18.451  38.066  36.992  1.00  0.00    -0.016 C 
ENDROOT
BRANCH   4  10
HETATM   10  N   UNL     1      16.259  40.944  34.920  1.00  0.00    -0.356 N 
ATOM     11  HN  UNL     1      16.811  41.644  34.424  1.00  0.00     0.166 HD
BRANCH  10  12
HETATM   12  C   UNL     1      14.868  41.068  34.800  1.00  0.00     0.032 C 
HETATM   13  C   UNL     1      13.970  40.476  35.676  1.00  0.00     0.029 C 
HETATM   14  C   UNL     1      12.676  40.207  35.243  1.00  0.00     0.002 C 
HETATM   15  C   UNL     1      12.258  40.657  34.002  1.00  0.00     0.000 C 
HETATM   16  C   UNL     1      13.079  41.494  33.259  1.00  0.00     0.002 C 
HETATM   17  C   UNL     1      14.371  41.742  33.690  1.00  0.00     0.029 C 
ENDBRANCH  10  12
ENDBRANCH   4  10
BRANCH   2  18
HETATM   18  O   UNL     1      18.743  39.574  38.793  1.00  0.00    -0.360 OA
ATOM     19  HO  UNL     1      19.300  38.938  39.226  1.00  0.00     0.217 HD
ENDBRANCH   2  18
BRANCH   7  20
HETATM   20  O   UNL     1      17.839  35.096  37.762  1.00  0.00    -0.277 OA
BRANCH  20  21
HETATM   21  P   UNL     1      18.091  33.615  38.279  1.00  0.00     0.422 P 
HETATM   22  O   UNL     1      16.898  33.352  39.147  1.00  0.00    -0.617 OA
HETATM   23  O   UNL     1      19.382  33.592  39.056  1.00  0.00    -0.617 OA
HETATM   24  O   UNL     1      18.288  32.767  37.067  1.00  0.00    -0.617 OA
ENDBRANCH  20  21
ENDBRANCH   7  20
TORSDOF 5
