REMARK  8 active torsions:
REMARK  status: ('A' for Active; 'I' for Inactive)
REMARK    1  A    between atoms: C_1  and  N_42 
REMARK    2  A    between atoms: C_2  and  C_22 
REMARK    3  A    between atoms: O_5  and  C_33 
REMARK    4  A    between atoms: C_13  and  C_20 
REMARK    5  A    between atoms: C_14  and  C_23 
REMARK    6  A    between atoms: C_19  and  C_41 
REMARK    7  A    between atoms: C_24  and  O_30 
REMARK    8  A    between atoms: C_32  and  C_36 
ROOT
HETATM    1  C   UNL     1      -5.757  13.673  14.125  1.00  0.00     0.078 C 
HETATM    2  C   UNL     1      -6.589  13.395  15.256  1.00  0.00    -0.043 C 
HETATM    3  C   UNL     1      -4.355  12.986  15.862  1.00  0.00     0.020 C 
HETATM    4  C   UNL     1      -4.424  13.292  14.468  1.00  0.00    -0.043 C 
HETATM    5  C   UNL     1      -5.694  12.915  16.319  1.00  0.00    -0.029 C 
ENDROOT
BRANCH   4   6
HETATM    6  C   UNL     1      -3.374  13.034  13.451  1.00  0.00    -0.026 C 
HETATM    7  C   UNL     1      -2.104  13.723  13.360  1.00  0.00     0.024 C 
HETATM    8  C   UNL     1      -0.978  13.198  12.608  1.00  0.00    -0.026 C 
HETATM    9  C   UNL     1      -0.816  11.828  12.394  1.00  0.00     0.015 C 
HETATM   10  C   UNL     1      -1.668  10.743  12.552  1.00  0.00     0.037 C 
HETATM   11  C   UNL     1      -3.062  10.832  12.402  1.00  0.00     0.066 C 
HETATM   12  C   UNL     1      -3.721  12.072  12.486  1.00  0.00     0.048 C 
BRANCH   8  13
HETATM   13  C   UNL     1       0.103  14.082  12.110  1.00  0.00    -0.014 C 
HETATM   14  C   UNL     1      -0.010  14.974  10.856  1.00  0.00     0.085 C 
HETATM   15  C   UNL     1       0.396  14.208   9.603  1.00  0.00     0.051 C 
HETATM   16  C   UNL     1       0.853  16.241  10.992  1.00  0.00     0.069 C 
HETATM   17  C   UNL     1       2.217  16.007  11.510  1.00  0.00    -0.023 C 
HETATM   18  C   UNL     1       2.436  14.915  12.388  1.00  0.00    -0.003 C 
HETATM   19  C   UNL     1       1.396  13.989  12.712  1.00  0.00     0.011 C 
BRANCH  14  20
HETATM   20  O   UNL     1      -1.349  15.419  10.612  1.00  0.00    -0.385 OA
ATOM     21  HO  UNL     1      -1.602  15.897  11.393  1.00  0.00     0.211 HD
ENDBRANCH  14  20
ENDBRANCH   8  13
BRANCH  11  22
HETATM   22  O   UNL     1      -3.782   9.707  12.162  1.00  0.00    -0.361 OA
ATOM     23  HO  UNL     1      -3.337   8.870  12.105  1.00  0.00     0.217 HD
ENDBRANCH  11  22
ENDBRANCH   4   6
BRANCH   2  24
HETATM   24  C   UNL     1      -8.063  13.473  15.232  1.00  0.00     0.014 C 
HETATM   25  C   UNL     1      -9.114  14.032  14.635  1.00  0.00    -0.040 C 
HETATM   26  C   UNL     1     -10.106  13.356  13.677  1.00  0.00     0.147 C 
HETATM   27  C   UNL     1      -9.523  15.535  14.785  1.00  0.00     0.017 C 
HETATM   28  C   UNL     1     -10.983  12.311  14.372  1.00  0.00     0.051 C 
HETATM   29  C   UNL     1     -10.979  14.524  13.159  1.00  0.00     0.026 C 
HETATM   30  C   UNL     1     -11.018  15.497  14.355  1.00  0.00     0.016 C 
HETATM   31  C   UNL     1     -10.299  15.211  11.941  1.00  0.00     0.007 C 
HETATM   32  C   UNL     1      -9.257  16.278  12.279  1.00  0.00     0.001 C 
HETATM   33  C   UNL     1      -8.747  16.338  13.703  1.00  0.00     0.009 C 
BRANCH  26  34
HETATM   34  N   UNL     1      -9.391  12.656  12.606  1.00  0.00    -0.066 N 
ATOM     35  HN3 UNL     1      -8.868  11.844  12.934  1.00  0.00     0.275 HD
ATOM     36  HN2 UNL     1     -10.010  12.159  11.966  1.00  0.00     0.275 HD
ATOM     37  HN1 UNL     1      -8.807  13.352  12.143  1.00  0.00     0.275 HD
ENDBRANCH  26  34
ENDBRANCH   2  24
BRANCH   5  38
HETATM   38  C   UNL     1      -6.068  12.301  17.604  1.00  0.00     0.012 C 
HETATM   39  C   UNL     1      -5.871  12.206  18.881  1.00  0.00     0.004 C 
BRANCH  39  40
HETATM   40  C   UNL     1      -6.132  11.132  19.903  1.00  0.00    -0.076 C 
HETATM   41  C   UNL     1      -7.107  10.055  19.662  1.00  0.00     0.038 C 
HETATM   42  C   UNL     1      -7.378   9.151  20.765  1.00  0.00     0.031 C 
HETATM   43  C   UNL     1      -6.499   9.093  21.885  1.00  0.00    -0.030 C 
HETATM   44  C   UNL     1      -5.635  10.199  22.162  1.00  0.00    -0.026 C 
HETATM   45  C   UNL     1      -5.345  11.152  21.125  1.00  0.00     0.061 C 
ENDBRANCH  39  40
ENDBRANCH   5  38
TORSDOF 8
