MODEL 1
REMARK VINA RESULT:      -7.4      0.000      0.000
REMARK  0 active torsions:
REMARK  status: ('A' for Active; 'I' for Inactive)
ROOT
HETATM    1  C   UNL     1      -8.914 103.865  22.963  1.00  0.00    -0.035 C 
HETATM    2  C   UNL     1      -8.816 105.622  21.641  1.00  0.00    -0.024 C 
HETATM    3  C   UNL     1      -5.633 105.334  17.827  1.00  0.00     0.049 C 
HETATM    4  C   UNL     1      -0.948 103.409  20.932  1.00  0.00     0.009 C 
HETATM    5  C   UNL     1      -8.791 106.720  23.814  1.00  0.00     0.001 C 
HETATM    6  C   UNL     1      -6.054 105.354  19.286  1.00  0.00    -0.050 C 
HETATM    7  C   UNL     1      -7.930 103.161  22.266  1.00  0.00     0.024 C 
HETATM    8  C   UNL     1      -1.993 104.005  21.895  1.00  0.00     0.019 C 
HETATM    9  C   UNL     1      -7.350 105.705  19.673  1.00  0.00     0.020 C 
HETATM   10  C   UNL     1      -5.323 102.405  21.113  1.00  0.00     0.021 C 
HETATM   11  C   UNL     1      -6.015 103.579  20.825  1.00  0.00    -0.014 C 
HETATM   12  C   UNL     1      -8.634 106.759  22.432  1.00  0.00     0.012 C 
HETATM   13  C   UNL     1      -3.964 102.559  21.407  1.00  0.00    -0.046 C 
HETATM   14  C   UNL     1      -7.886 105.040  20.781  1.00  0.00    -0.014 C 
HETATM   15  C   UNL     1      -1.921 103.237  23.201  1.00  0.00     0.010 C 
HETATM   16  C   UNL     1      -3.994 104.831  20.584  1.00  0.00     0.021 C 
HETATM   17  C   UNL     1      -7.311 103.848  21.216  1.00  0.00    -0.013 C 
HETATM   18  C   UNL     1      -2.354 101.788  23.124  1.00  0.00     0.010 C 
HETATM   19  C   UNL     1      -9.733 104.676  22.142  1.00  0.00     0.023 C 
HETATM   20  C   UNL     1      -3.140 101.394  21.878  1.00  0.00     0.019 C 
HETATM   21  C   UNL     1      -8.819 105.633  24.638  1.00  0.00     0.001 C 
HETATM   22  C   UNL     1      -0.909 101.899  20.700  1.00  0.00     0.001 C 
HETATM   23  C   UNL     1      -3.367 103.810  21.304  1.00  0.00    -0.046 C 
HETATM   24  C   UNL     1      -5.317 104.597  20.183  1.00  0.00    -0.018 C 
HETATM   25  C   UNL     1      -2.172 101.052  20.732  1.00  0.00     0.009 C 
HETATM   26  C   UNL     1      -8.727 104.299  24.275  1.00  0.00     0.011 C 
ENDROOT
TORSDOF 0
ENDMDL
MODEL 2
REMARK VINA RESULT:      -7.1      1.272      6.432
REMARK  0 active torsions:
REMARK  status: ('A' for Active; 'I' for Inactive)
ROOT
HETATM    1  C   UNL     1      -2.338 102.252  22.820  1.00  0.00    -0.035 C 
HETATM    2  C   UNL     1      -1.870 102.955  20.788  1.00  0.00    -0.024 C 
HETATM    3  C   UNL     1      -4.250 107.053  19.272  1.00  0.00     0.049 C 
HETATM    4  C   UNL     1      -9.711 105.364  20.889  1.00  0.00     0.009 C 
HETATM    5  C   UNL     1      -2.127 100.570  20.368  1.00  0.00     0.001 C 
HETATM    6  C   UNL     1      -4.125 105.620  19.757  1.00  0.00    -0.050 C 
HETATM    7  C   UNL     1      -3.275 103.259  23.061  1.00  0.00     0.024 C 
HETATM    8  C   UNL     1      -8.786 104.132  20.837  1.00  0.00     0.019 C 
HETATM    9  C   UNL     1      -2.887 104.973  19.829  1.00  0.00     0.020 C 
HETATM   10  C   UNL     1      -5.697 104.928  22.858  1.00  0.00     0.021 C 
HETATM   11  C   UNL     1      -4.770 104.737  21.836  1.00  0.00    -0.014 C 
HETATM   12  C   UNL     1      -2.002 101.878  19.908  1.00  0.00     0.012 C 
HETATM   13  C   UNL     1      -7.040 104.783  22.492  1.00  0.00    -0.046 C 
HETATM   14  C   UNL     1      -2.702 104.069  20.881  1.00  0.00    -0.014 C 
HETATM   15  C   UNL     1      -9.244 103.156  21.905  1.00  0.00     0.010 C 
HETATM   16  C   UNL     1      -6.457 104.839  20.147  1.00  0.00     0.021 C 
HETATM   17  C   UNL     1      -3.548 104.113  21.986  1.00  0.00    -0.013 C 
HETATM   18  C   UNL     1      -9.063 103.627  23.332  1.00  0.00     0.010 C 
HETATM   19  C   UNL     1      -1.246 102.660  22.017  1.00  0.00     0.023 C 
HETATM   20  C   UNL     1      -8.129 104.817  23.526  1.00  0.00     0.019 C 
HETATM   21  C   UNL     1      -2.449 100.134  21.620  1.00  0.00     0.001 C 
HETATM   22  C   UNL     1      -9.966 106.063  22.224  1.00  0.00     0.001 C 
HETATM   23  C   UNL     1      -7.379 104.566  21.162  1.00  0.00    -0.046 C 
HETATM   24  C   UNL     1      -5.142 105.113  20.550  1.00  0.00    -0.018 C 
HETATM   25  C   UNL     1      -8.900 106.131  23.306  1.00  0.00     0.009 C 
HETATM   26  C   UNL     1      -2.698 100.907  22.742  1.00  0.00     0.011 C 
ENDROOT
TORSDOF 0
ENDMDL
MODEL 3
REMARK VINA RESULT:      -6.6      1.780      2.700
REMARK  0 active torsions:
REMARK  status: ('A' for Active; 'I' for Inactive)
ROOT
HETATM    1  C   UNL     1      -8.523 105.873  19.687  1.00  0.00    -0.035 C 
HETATM    2  C   UNL     1      -7.612 107.847  19.346  1.00  0.00    -0.024 C 
HETATM    3  C   UNL     1      -2.991 107.849  17.498  1.00  0.00     0.049 C 
HETATM    4  C   UNL     1      -0.694 103.881  21.275  1.00  0.00     0.009 C 
HETATM    5  C   UNL     1      -8.573 108.196  21.555  1.00  0.00     0.001 C 
HETATM    6  C   UNL     1      -4.081 107.548  18.511  1.00  0.00    -0.050 C 
HETATM    7  C   UNL     1      -7.394 105.168  19.266  1.00  0.00     0.024 C 
HETATM    8  C   UNL     1      -2.019 104.425  21.844  1.00  0.00     0.019 C 
HETATM    9  C   UNL     1      -5.358 108.108  18.407  1.00  0.00     0.020 C 
HETATM   10  C   UNL     1      -4.645 104.106  19.150  1.00  0.00     0.021 C 
HETATM   11  C   UNL     1      -4.985 105.456  19.081  1.00  0.00    -0.014 C 
HETATM   12  C   UNL     1      -7.743 108.601  20.514  1.00  0.00     0.012 C 
HETATM   13  C   UNL     1      -3.608 103.787  20.033  1.00  0.00    -0.046 C 
HETATM   14  C   UNL     1      -6.436 107.316  18.817  1.00  0.00    -0.014 C 
HETATM   15  C   UNL     1      -2.682 103.314  22.634  1.00  0.00     0.010 C 
HETATM   16  C   UNL     1      -3.006 106.119  20.245  1.00  0.00     0.021 C 
HETATM   17  C   UNL     1      -6.271 105.940  18.948  1.00  0.00    -0.013 C 
HETATM   18  C   UNL     1      -3.153 102.130  21.816  1.00  0.00     0.010 C 
HETATM   19  C   UNL     1      -8.741 107.084  18.987  1.00  0.00     0.023 C 
HETATM   20  C   UNL     1      -3.244 102.356  20.311  1.00  0.00     0.019 C 
HETATM   21  C   UNL     1      -9.112 106.964  21.785  1.00  0.00     0.001 C 
HETATM   22  C   UNL     1      -0.687 102.559  20.509  1.00  0.00     0.001 C 
HETATM   23  C   UNL     1      -2.924 104.799  20.698  1.00  0.00    -0.046 C 
HETATM   24  C   UNL     1      -3.967 106.386  19.259  1.00  0.00    -0.018 C 
HETATM   25  C   UNL     1      -1.870 102.121  19.660  1.00  0.00     0.009 C 
HETATM   26  C   UNL     1      -8.977 105.828  21.005  1.00  0.00     0.011 C 
ENDROOT
TORSDOF 0
ENDMDL
MODEL 4
REMARK VINA RESULT:      -6.2      1.901      6.337
REMARK  0 active torsions:
REMARK  status: ('A' for Active; 'I' for Inactive)
ROOT
HETATM    1  C   UNL     1      -2.213 101.856  20.236  1.00  0.00    -0.035 C 
HETATM    2  C   UNL     1      -3.497 101.657  22.012  1.00  0.00    -0.024 C 
HETATM    3  C   UNL     1      -8.046 103.645  21.672  1.00  0.00     0.049 C 
HETATM    4  C   UNL     1      -6.376 108.921  19.512  1.00  0.00     0.009 C 
HETATM    5  C   UNL     1      -1.409 102.329  23.068  1.00  0.00     0.001 C 
HETATM    6  C   UNL     1      -6.528 103.646  21.682  1.00  0.00    -0.050 C 
HETATM    7  C   UNL     1      -3.160 102.578  19.508  1.00  0.00     0.024 C 
HETATM    8  C   UNL     1      -5.157 108.210  20.130  1.00  0.00     0.019 C 
HETATM    9  C   UNL     1      -5.794 102.523  22.074  1.00  0.00     0.020 C 
HETATM   10  C   UNL     1      -4.996 104.730  18.673  1.00  0.00     0.021 C 
HETATM   11  C   UNL     1      -5.072 104.035  19.879  1.00  0.00    -0.014 C 
HETATM   12  C   UNL     1      -2.780 102.099  23.126  1.00  0.00     0.012 C 
HETATM   13  C   UNL     1      -5.089 106.123  18.770  1.00  0.00    -0.046 C 
HETATM   14  C   UNL     1      -4.586 102.288  21.410  1.00  0.00    -0.014 C 
HETATM   15  C   UNL     1      -3.928 108.608  19.336  1.00  0.00     0.010 C 
HETATM   16  C   UNL     1      -5.856 105.961  21.056  1.00  0.00     0.021 C 
HETATM   17  C   UNL     1      -4.336 102.910  20.190  1.00  0.00    -0.013 C 
HETATM   18  C   UNL     1      -3.892 108.111  17.907  1.00  0.00     0.010 C 
HETATM   19  C   UNL     1      -2.769 100.876  21.093  1.00  0.00     0.023 C 
HETATM   20  C   UNL     1      -4.873 106.995  17.566  1.00  0.00     0.019 C 
HETATM   21  C   UNL     1      -0.617 102.484  21.968  1.00  0.00     0.001 C 
HETATM   22  C   UNL     1      -6.621 108.831  18.007  1.00  0.00     0.001 C 
HETATM   23  C   UNL     1      -5.345 106.719  19.999  1.00  0.00    -0.046 C 
HETATM   24  C   UNL     1      -5.876 104.570  20.880  1.00  0.00    -0.018 C 
HETATM   25  C   UNL     1      -6.245 107.592  17.208  1.00  0.00     0.009 C 
HETATM   26  C   UNL     1      -1.001 102.417  20.639  1.00  0.00     0.011 C 
ENDROOT
TORSDOF 0
ENDMDL
MODEL 5
REMARK VINA RESULT:      -5.9      1.736      3.412
REMARK  0 active torsions:
REMARK  status: ('A' for Active; 'I' for Inactive)
ROOT
HETATM    1  C   UNL     1      -8.401 105.336  21.356  1.00  0.00    -0.035 C 
HETATM    2  C   UNL     1      -8.352 105.148  23.548  1.00  0.00    -0.024 C 
HETATM    3  C   UNL     1      -3.849 105.227  25.665  1.00  0.00     0.049 C 
HETATM    4  C   UNL     1      -1.280 101.264  22.062  1.00  0.00     0.009 C 
HETATM    5  C   UNL     1      -9.958 103.401  23.005  1.00  0.00     0.001 C 
HETATM    6  C   UNL     1      -4.950 104.699  24.763  1.00  0.00    -0.050 C 
HETATM    7  C   UNL     1      -7.011 105.392  21.230  1.00  0.00     0.024 C 
HETATM    8  C   UNL     1      -2.812 101.155  21.938  1.00  0.00     0.019 C 
HETATM    9  C   UNL     1      -6.254 105.197  24.824  1.00  0.00     0.020 C 
HETATM   10  C   UNL     1      -4.165 104.623  21.306  1.00  0.00     0.021 C 
HETATM   11  C   UNL     1      -5.008 104.683  22.414  1.00  0.00    -0.014 C 
HETATM   12  C   UNL     1      -9.117 104.038  23.912  1.00  0.00     0.012 C 
HETATM   13  C   UNL     1      -3.391 103.462  21.196  1.00  0.00    -0.046 C 
HETATM   14  C   UNL     1      -6.965 105.271  23.621  1.00  0.00    -0.014 C 
HETATM   15  C   UNL     1      -3.140 100.758  20.511  1.00  0.00     0.010 C 
HETATM   16  C   UNL     1      -3.918 102.837  23.470  1.00  0.00     0.021 C 
HETATM   17  C   UNL     1      -6.280 105.218  22.410  1.00  0.00    -0.013 C 
HETATM   18  C   UNL     1      -2.811 101.795  19.459  1.00  0.00     0.010 C 
HETATM   19  C   UNL     1      -8.898 105.953  22.528  1.00  0.00     0.023 C 
HETATM   20  C   UNL     1      -2.554 103.207  19.974  1.00  0.00     0.019 C 
HETATM   21  C   UNL     1      -9.968 103.492  21.644  1.00  0.00     0.001 C 
HETATM   22  C   UNL     1      -0.496 102.097  21.048  1.00  0.00     0.001 C 
HETATM   23  C   UNL     1      -3.420 102.508  22.206  1.00  0.00    -0.046 C 
HETATM   24  C   UNL     1      -4.575 104.070  23.585  1.00  0.00    -0.018 C 
HETATM   25  C   UNL     1      -1.086 103.347  20.414  1.00  0.00     0.009 C 
HETATM   26  C   UNL     1      -9.150 104.275  20.847  1.00  0.00     0.011 C 
ENDROOT
TORSDOF 0
ENDMDL
MODEL 6
REMARK VINA RESULT:      -5.6      1.659      4.023
REMARK  0 active torsions:
REMARK  status: ('A' for Active; 'I' for Inactive)
ROOT
HETATM    1  C   UNL     1      -6.187 108.147  19.862  1.00  0.00    -0.035 C 
HETATM    2  C   UNL     1      -8.080 107.033  19.731  1.00  0.00    -0.024 C 
HETATM    3  C   UNL     1      -8.573 103.157  22.812  1.00  0.00     0.049 C 
HETATM    4  C   UNL     1      -3.309 100.649  21.677  1.00  0.00     0.009 C 
HETATM    5  C   UNL     1      -7.568 107.285  17.364  1.00  0.00     0.001 C 
HETATM    6  C   UNL     1      -7.951 103.967  21.689  1.00  0.00    -0.050 C 
HETATM    7  C   UNL     1      -5.649 107.313  20.845  1.00  0.00     0.024 C 
HETATM    8  C   UNL     1      -3.650 101.656  20.561  1.00  0.00     0.019 C 
HETATM    9  C   UNL     1      -8.574 105.107  21.172  1.00  0.00     0.020 C 
HETATM   10  C   UNL     1      -4.577 104.926  22.205  1.00  0.00     0.021 C 
HETATM   11  C   UNL     1      -5.857 105.033  21.666  1.00  0.00    -0.014 C 
HETATM   12  C   UNL     1      -8.310 106.710  18.391  1.00  0.00     0.012 C 
HETATM   13  C   UNL     1      -3.876 103.761  21.876  1.00  0.00    -0.046 C 
HETATM   14  C   UNL     1      -7.743 106.154  20.760  1.00  0.00    -0.014 C 
HETATM   15  C   UNL     1      -2.353 102.264  20.063  1.00  0.00     0.010 C 
HETATM   16  C   UNL     1      -5.893 102.729  21.032  1.00  0.00     0.021 C 
HETATM   17  C   UNL     1      -6.422 106.202  21.199  1.00  0.00    -0.013 C 
HETATM   18  C   UNL     1      -1.623 103.136  21.062  1.00  0.00     0.010 C 
HETATM   19  C   UNL     1      -7.586 108.332  19.965  1.00  0.00     0.023 C 
HETATM   20  C   UNL     1      -2.436 103.590  22.269  1.00  0.00     0.019 C 
HETATM   21  C   UNL     1      -6.378 107.947  17.440  1.00  0.00     0.001 C 
HETATM   22  C   UNL     1      -2.405 101.080  22.832  1.00  0.00     0.001 C 
HETATM   23  C   UNL     1      -4.499 102.758  21.142  1.00  0.00    -0.046 C 
HETATM   24  C   UNL     1      -6.583 103.859  21.494  1.00  0.00    -0.018 C 
HETATM   25  C   UNL     1      -2.407 102.506  23.360  1.00  0.00     0.009 C 
HETATM   26  C   UNL     1      -5.643 108.228  18.580  1.00  0.00     0.011 C 
ENDROOT
TORSDOF 0
ENDMDL
MODEL 7
REMARK VINA RESULT:      -5.0      2.798      4.733
REMARK  0 active torsions:
REMARK  status: ('A' for Active; 'I' for Inactive)
ROOT
HETATM    1  C   UNL     1      -6.137 105.220  25.650  1.00  0.00    -0.035 C 
HETATM    2  C   UNL     1      -8.322 105.163  25.398  1.00  0.00    -0.024 C 
HETATM    3  C   UNL     1      -9.987 103.757  20.924  1.00  0.00     0.049 C 
HETATM    4  C   UNL     1      -6.492 107.313  17.695  1.00  0.00     0.009 C 
HETATM    5  C   UNL     1      -8.079 107.299  26.541  1.00  0.00     0.001 C 
HETATM    6  C   UNL     1      -9.240 104.631  21.916  1.00  0.00    -0.050 C 
HETATM    7  C   UNL     1      -5.875 104.836  24.333  1.00  0.00     0.024 C 
HETATM    8  C   UNL     1      -6.523 107.809  19.154  1.00  0.00     0.019 C 
HETATM    9  C   UNL     1      -9.384 104.467  23.296  1.00  0.00     0.020 C 
HETATM   10  C   UNL     1      -5.742 104.867  21.387  1.00  0.00     0.021 C 
HETATM   11  C   UNL     1      -6.916 104.902  22.136  1.00  0.00    -0.014 C 
HETATM   12  C   UNL     1      -8.847 106.384  25.827  1.00  0.00     0.012 C 
HETATM   13  C   UNL     1      -5.653 105.805  20.353  1.00  0.00    -0.046 C 
HETATM   14  C   UNL     1      -8.253 104.694  24.086  1.00  0.00    -0.014 C 
HETATM   15  C   UNL     1      -5.171 108.420  19.471  1.00  0.00     0.010 C 
HETATM   16  C   UNL     1      -8.011 106.304  20.539  1.00  0.00     0.021 C 
HETATM   17  C   UNL     1      -6.990 104.701  23.499  1.00  0.00    -0.013 C 
HETATM   18  C   UNL     1      -4.011 107.447  19.494  1.00  0.00     0.010 C 
HETATM   19  C   UNL     1      -7.297 104.627  26.203  1.00  0.00     0.023 C 
HETATM   20  C   UNL     1      -4.383 105.971  19.569  1.00  0.00     0.019 C 
HETATM   21  C   UNL     1      -6.722 107.353  26.671  1.00  0.00     0.001 C 
HETATM   22  C   UNL     1      -5.343 106.422  17.224  1.00  0.00     0.001 C 
HETATM   23  C   UNL     1      -6.736 106.628  20.066  1.00  0.00    -0.046 C 
HETATM   24  C   UNL     1      -8.088 105.265  21.479  1.00  0.00    -0.018 C 
HETATM   25  C   UNL     1      -4.668 105.428  18.157  1.00  0.00     0.009 C 
HETATM   26  C   UNL     1      -5.790 106.479  26.138  1.00  0.00     0.011 C 
ENDROOT
TORSDOF 0
ENDMDL
