REMARK  2 active torsions:
REMARK  status: ('A' for Active; 'I' for Inactive)
REMARK    1  A    between atoms: C_7  and  O_8 
REMARK    2  A    between atoms: N_17  and  C_31 
ROOT
HETATM    1  C   UNL     1      10.079   5.779  16.586  1.00  0.00     0.012 C 
HETATM    2  C   UNL     1       6.452   5.490  16.594  1.00  0.00    -0.024 C 
HETATM    3  C   UNL     1       3.814   5.048  14.719  1.00  0.00     0.000 C 
HETATM    4  C   UNL     1      11.000   6.582  15.913  1.00  0.00     0.001 C 
HETATM    5  C   UNL     1       7.748   9.569  18.077  1.00  0.00     0.030 C 
HETATM    6  C   UNL     1       5.962   4.441  15.806  1.00  0.00     0.012 C 
HETATM    7  C   UNL     1       9.378   8.383  15.832  1.00  0.00     0.013 C 
HETATM    8  C   UNL     1       4.916   4.229  14.955  1.00  0.00     0.001 C 
HETATM    9  C   UNL     1       8.779   6.250  16.814  1.00  0.00    -0.024 C 
HETATM   10  C   UNL     1       7.757   5.328  17.128  1.00  0.00     0.024 C 
HETATM   11  C   UNL     1       5.721   6.704  16.832  1.00  0.00    -0.011 C 
HETATM   12  C   UNL     1       7.512   8.323  17.479  1.00  0.00    -0.009 C 
HETATM   13  C   UNL     1       6.248   7.714  17.748  1.00  0.00     0.030 C 
HETATM   14  C   UNL     1       7.101   9.855  19.266  1.00  0.00     0.090 C 
HETATM   15  C   UNL     1       3.746   6.316  15.254  1.00  0.00     0.001 C 
HETATM   16  C   UNL     1       4.533   6.981  16.148  1.00  0.00     0.013 C 
HETATM   17  C   UNL     1      10.648   7.875  15.532  1.00  0.00     0.001 C 
HETATM   18  C   UNL     1       8.537   7.659  16.696  1.00  0.00    -0.015 C 
HETATM   19  N   UNL     1       6.184   8.991  19.793  1.00  0.00    -0.351 N 
ATOM     20  HN  UNL     1       6.005   8.918  20.794  1.00  0.00     0.166 HD
HETATM   21  C   UNL     1       5.524   8.229  18.862  1.00  0.00     0.122 C 
ENDROOT
BRANCH  21  22
HETATM   22  N   UNL     1       4.155   8.007  19.043  1.00  0.00    -0.303 N 
HETATM   23  C   UNL     1       3.274   9.079  18.841  1.00  0.00     0.230 C 
HETATM   24  C   UNL     1       1.970   8.716  18.114  1.00  0.00     0.176 C 
HETATM   25  O   UNL     1       3.487  10.171  19.325  1.00  0.00    -0.273 OA
HETATM   26  C   UNL     1       1.289   7.705  19.042  1.00  0.00     0.212 C 
HETATM   27  F   UNL     1       1.038   8.264  20.267  1.00  0.00    -0.211 F 
HETATM   28  C   UNL     1       2.166   6.479  19.257  1.00  0.00     0.094 C 
HETATM   29  C   UNL     1       3.640   6.726  19.566  1.00  0.00     0.139 C 
BRANCH  26  30
HETATM   30  O   UNL     1       0.080   7.285  18.433  1.00  0.00    -0.361 OA
ATOM     31  HO  UNL     1       0.254   6.897  17.583  1.00  0.00     0.213 HD
ENDBRANCH  26  30
ENDBRANCH  21  22
TORSDOF 2
