REMARK  5 active torsions:
REMARK  status: ('A' for Active; 'I' for Inactive)
REMARK       I    between atoms: N_3  and  C_9 
REMARK    1  A    between atoms: N_3  and  C_15 
REMARK    2  A    between atoms: O_6  and  C_20 
REMARK    3  A    between atoms: C_8  and  O_21 
REMARK    4  A    between atoms: C_9  and  C_12 
REMARK    5  A    between atoms: O_13  and  C_20 
ROOT
HETATM    1  O   UNL     1      11.824  10.054  21.706  1.00  0.00    -0.268 OA
HETATM    2  N   UNL     1      11.544   9.752  19.456  1.00  0.00    -0.317 N 
ATOM      3  HN  UNL     1      10.748   9.574  18.844  1.00  0.00     0.170 HD
HETATM    4  C   UNL     1      11.493   9.353  20.767  1.00  0.00     0.248 C 
ENDROOT
BRANCH   2   5
HETATM    5  C   UNL     1      12.693  10.410  18.941  1.00  0.00     0.061 C 
HETATM    6  C   UNL     1      13.677  10.066  17.832  1.00  0.00     0.078 C 
HETATM    7  C   UNL     1      14.781  11.112  18.106  1.00  0.00     0.036 C 
HETATM    8  C   UNL     1      14.771  11.186  19.636  1.00  0.00     0.104 C 
HETATM    9  C   UNL     1      14.046  12.436  17.721  1.00  0.00     0.137 C 
HETATM   10  N   UNL     1      13.318  11.459  19.736  1.00  0.00    -0.270 NA
HETATM   11  C   UNL     1      13.022  12.617  18.860  1.00  0.00     0.128 C 
BRANCH   9  12
HETATM   12  O   UNL     1      14.994  13.499  17.831  1.00  0.00    -0.394 OA
ATOM     13  HO  UNL     1      15.625  13.388  17.129  1.00  0.00     0.210 HD
ENDBRANCH   9  12
ENDBRANCH   2   5
BRANCH   4  14
HETATM   14  C   UNL     1      11.022   7.942  20.928  1.00  0.00    -0.007 C 
HETATM   15  C   UNL     1       9.619   7.608  21.376  1.00  0.00     0.108 C 
HETATM   16  C   UNL     1       9.683   6.208  21.995  1.00  0.00     0.163 C 
HETATM   17  C   UNL     1      11.046   5.637  21.622  1.00  0.00     0.073 C 
HETATM   18  C   UNL     1      11.930   6.875  21.477  1.00  0.00     0.045 C 
BRANCH  16  19
HETATM   19  O   UNL     1       8.695   5.330  21.518  1.00  0.00    -0.365 OA
ATOM     20  HO  UNL     1       8.735   4.462  21.902  1.00  0.00     0.213 HD
ENDBRANCH  16  19
BRANCH  16  21
HETATM   21  O   UNL     1       9.519   6.273  23.364  1.00  0.00    -0.365 OA
ATOM     22  HO  UNL     1       9.559   5.405  23.748  1.00  0.00     0.213 HD
ENDBRANCH  16  21
ENDBRANCH   4  14
TORSDOF 5
