REMARK  8 active torsions:
REMARK  status: ('A' for Active; 'I' for Inactive)
REMARK    1  A    between atoms: O_1  and  C_21 
REMARK    2  A    between atoms: O_4  and  C_18 
REMARK    3  A    between atoms: O_6  and  C_17 
REMARK    4  A    between atoms: O_12  and  C_20 
REMARK    5  A    between atoms: C_16  and  C_25 
REMARK    6  A    between atoms: C_18  and  C_19 
REMARK    7  A    between atoms: C_19  and  N_23 
REMARK    8  A    between atoms: C_22  and  N_23 
ROOT
HETATM    1  C   UNL     1      12.411  13.186  17.319  1.00  0.00     0.054 C 
HETATM    2  C   UNL     1      11.193  13.659  17.814  1.00  0.00     0.006 C 
HETATM    3  C   UNL     1      11.330  12.810  15.173  1.00  0.00     0.134 C 
HETATM    4  C   UNL     1      10.098  13.227  15.727  1.00  0.00     0.129 C 
HETATM    5  C   UNL     1      12.416  12.598  16.039  1.00  0.00     0.102 C 
HETATM    6  C   UNL     1       9.999  13.219  17.157  1.00  0.00     0.075 C 
ENDROOT
BRANCH   6   7
HETATM    7  N   UNL     1       8.934  12.897  17.906  1.00  0.00    -0.384 N 
ATOM      8  HN  UNL     1       9.142  13.173  18.866  1.00  0.00     0.159 HD
BRANCH   7   9
HETATM    9  C   UNL     1       7.613  12.318  17.901  1.00  0.00     0.151 C 
BRANCH   9  10
HETATM   10  C   UNL     1       7.493  11.137  16.946  1.00  0.00     0.131 C 
HETATM   11  C   UNL     1       6.413  10.175  17.406  1.00  0.00     0.041 C 
BRANCH  10  12
HETATM   12  O   UNL     1       7.188  11.682  15.652  1.00  0.00    -0.394 OA
ATOM     13  HO  UNL     1       7.864  12.284  15.364  1.00  0.00     0.210 HD
ENDBRANCH  10  12
ENDBRANCH   9  10
ENDBRANCH   7   9
ENDBRANCH   6   7
BRANCH   2  14
HETATM   14  C   UNL     1      11.014  14.630  18.902  1.00  0.00    -0.024 A 
HETATM   15  C   UNL     1      11.178  16.001  18.681  1.00  0.00     0.012 A 
HETATM   16  C   UNL     1      10.845  16.907  19.692  1.00  0.00     0.001 A 
HETATM   17  C   UNL     1      10.346  16.461  20.899  1.00  0.00     0.000 A 
HETATM   18  C   UNL     1      10.177  15.098  21.123  1.00  0.00     0.001 A 
HETATM   19  C   UNL     1      10.570  14.185  20.152  1.00  0.00     0.012 A 
ENDBRANCH   2  14
BRANCH   4  20
HETATM   20  O   UNL     1       9.113  13.618  14.962  1.00  0.00    -0.356 OA
ATOM     21  HO  UNL     1       8.285  13.898  15.334  1.00  0.00     0.218 HD
ENDBRANCH   4  20
BRANCH   3  22
HETATM   22  O   UNL     1      11.458  12.648  13.824  1.00  0.00    -0.356 OA
ATOM     23  HO  UNL     1      12.286  12.368  13.452  1.00  0.00     0.218 HD
ENDBRANCH   3  22
BRANCH   5  24
HETATM   24  O   UNL     1      13.388  11.720  15.677  1.00  0.00    -0.358 OA
ATOM     25  HO  UNL     1      13.391  11.323  14.814  1.00  0.00     0.217 HD
ENDBRANCH   5  24
TORSDOF 8
