REMARK  10 active torsions:
REMARK  status: ('A' for Active; 'I' for Inactive)
REMARK    1  A    between atoms: C_1  and  C_34 
REMARK    2  A    between atoms: O_4  and  C_31 
REMARK    3  A    between atoms: C_7  and  C_19 
REMARK    4  A    between atoms: C_7  and  C_20 
REMARK    5  A    between atoms: C_7  and  O_22 
REMARK    6  A    between atoms: O_15  and  C_19 
REMARK    7  A    between atoms: O_17  and  C_21 
REMARK    8  A    between atoms: C_19  and  C_26 
REMARK    9  A    between atoms: C_19  and  O_29 
REMARK   10  A    between atoms: C_25  and  C_34 
ROOT
HETATM    1  C   UNL     1      18.938 -17.155 -11.259  1.00  0.00    -0.022 C 
HETATM    2  C   UNL     1      19.102 -15.530 -13.018  1.00  0.00     0.013 C 
HETATM    3  C   UNL     1      19.727 -16.328 -12.049  1.00  0.00     0.011 C 
HETATM    4  C   UNL     1      17.734 -15.288 -12.942  1.00  0.00     0.012 C 
HETATM    5  C   UNL     1      17.562 -17.075 -11.459  1.00  0.00     0.105 C 
HETATM    6  C   UNL     1      17.072 -15.833 -11.837  1.00  0.00     0.108 C 
ENDROOT
BRANCH   1   7
HETATM    7  C   UNL     1      19.458 -18.127 -10.233  1.00  0.00     0.046 C 
BRANCH   7   8
HETATM    8  C   UNL     1      18.771 -19.472 -10.507  1.00  0.00    -0.004 C 
HETATM    9  C   UNL     1      19.622 -20.395 -11.345  1.00  0.00     0.006 C 
HETATM   10  C   UNL     1      19.689 -21.732 -10.639  1.00  0.00     0.007 C 
HETATM   11  C   UNL     1      18.661 -21.681  -9.522  1.00  0.00     0.009 C 
HETATM   12  C   UNL     1      19.155 -22.491  -8.342  1.00  0.00     0.125 C 
HETATM   13  C   UNL     1      18.408 -20.220  -9.241  1.00  0.00     0.013 C 
HETATM   14  N   UNL     1      18.499 -22.149  -7.103  1.00  0.00    -0.386 N 
HETATM   15  C   UNL     1      17.579 -21.280  -6.918  1.00  0.00     0.171 C 
ATOM     16  HN  UNL     1      18.806 -22.661  -6.276  1.00  0.00     0.160 HD
HETATM   17  N   UNL     1      16.699 -20.620  -7.582  1.00  0.00    -0.386 N 
HETATM   18  C   UNL     1      16.936 -20.050  -8.894  1.00  0.00     0.125 C 
ATOM     19  HN  UNL     1      15.779 -20.489  -7.161  1.00  0.00     0.160 HD
ENDBRANCH   7   8
ENDBRANCH   1   7
BRANCH   5  20
HETATM   20  O   UNL     1      16.755 -18.118 -11.505  1.00  0.00    -0.357 OA
ATOM     21  HO  UNL     1      15.816 -18.063 -11.641  1.00  0.00     0.217 HD
ENDBRANCH   5  20
BRANCH   6  22
HETATM   22  O   UNL     1      16.209 -15.157 -11.085  1.00  0.00    -0.357 OA
ATOM     23  HO  UNL     1      15.759 -15.527 -10.334  1.00  0.00     0.217 HD
ENDBRANCH   6  22
BRANCH   4  24
HETATM   24  C   UNL     1      16.944 -14.651 -14.060  1.00  0.00     0.227 C 
BRANCH  24  25
HETATM   25  C   UNL     1      17.596 -13.390 -14.660  1.00  0.00     0.282 C 
BRANCH  25  26
HETATM   26  O   UNL     1      18.456 -13.712 -15.705  1.00  0.00    -0.355 OA
ATOM     27  HO  UNL     1      18.858 -12.935 -16.075  1.00  0.00     0.213 HD
ENDBRANCH  25  26
BRANCH  25  28
HETATM   28  C   UNL     1      16.541 -12.440 -15.239  1.00  0.00     0.241 C 
HETATM   29  O   UNL     1      16.905 -11.243 -15.461  1.00  0.00    -0.644 OA
HETATM   30  O   UNL     1      15.502 -12.914 -15.726  1.00  0.00    -0.644 OA
ENDBRANCH  25  28
BRANCH  25  31
HETATM   31  O   UNL     1      18.353 -12.727 -13.671  1.00  0.00    -0.355 OA
ATOM     32  HO  UNL     1      18.755 -11.950 -14.041  1.00  0.00     0.213 HD
ENDBRANCH  25  31
ENDBRANCH  24  25
BRANCH  24  33
HETATM   33  O   UNL     1      15.622 -14.381 -13.626  1.00  0.00    -0.385 OA
ATOM     34  HO  UNL     1      15.220 -15.158 -13.256  1.00  0.00     0.210 HD
ENDBRANCH  24  33
ENDBRANCH   4  24
TORSDOF 10
