MODEL 1
REMARK VINA RESULT:      -6.7      0.000      0.000
REMARK  2 active torsions:
REMARK  status: ('A' for Active; 'I' for Inactive)
REMARK    1  A    between atoms: O_1  and  C_8 
REMARK    2  A    between atoms: O_3  and  C_9 
ROOT
HETATM    1  O   UNL     1      20.446  31.586  14.342  1.00  0.00    -0.260 OA
HETATM    2  C   UNL     1      20.376  33.264  15.940  1.00  0.00     0.122 C 
HETATM    3  O   UNL     1      22.191  31.695  15.699  1.00  0.00    -0.236 OA
HETATM    4  C   UNL     1      21.462  32.372  17.911  1.00  0.00     0.175 C 
HETATM    5  C   UNL     1      20.843  33.485  17.227  1.00  0.00     0.111 C 
HETATM    6  O   UNL     1      23.538  31.240  17.458  1.00  0.00    -0.256 OA
HETATM    7  C   UNL     1      21.040  32.244  15.187  1.00  0.00     0.293 C 
HETATM    8  C   UNL     1      22.480  31.687  17.062  1.00  0.00     0.327 C 
ENDROOT
BRANCH   4   9
HETATM    9  O   UNL     1      21.709  32.410  19.263  1.00  0.00    -0.353 OA
ATOM     10  HO  UNL     1      21.114  32.845  19.862  1.00  0.00     0.218 HD
ENDBRANCH   4   9
BRANCH   5  11
HETATM   11  O   UNL     1      20.515  34.617  17.916  1.00  0.00    -0.358 OA
ATOM     12  HO  UNL     1      20.046  34.575  18.741  1.00  0.00     0.217 HD
ENDBRANCH   5  11
TORSDOF 2
ENDMDL
MODEL 2
REMARK VINA RESULT:      -6.4      1.440      2.983
REMARK  2 active torsions:
REMARK  status: ('A' for Active; 'I' for Inactive)
REMARK    1  A    between atoms: O_1  and  C_8 
REMARK    2  A    between atoms: O_3  and  C_9 
ROOT
HETATM    1  O   UNL     1      21.724  30.445  17.697  1.00  0.00    -0.260 OA
HETATM    2  C   UNL     1      20.805  31.688  15.970  1.00  0.00     0.122 C 
HETATM    3  O   UNL     1      22.024  32.634  17.822  1.00  0.00    -0.236 OA
HETATM    4  C   UNL     1      20.069  33.775  16.951  1.00  0.00     0.175 C 
HETATM    5  C   UNL     1      20.269  32.952  15.778  1.00  0.00     0.111 C 
HETATM    6  O   UNL     1      21.683  34.789  18.423  1.00  0.00    -0.256 OA
HETATM    7  C   UNL     1      21.650  31.519  17.113  1.00  0.00     0.293 C 
HETATM    8  C   UNL     1      21.278  33.811  17.824  1.00  0.00     0.327 C 
ENDROOT
BRANCH   4   9
HETATM    9  O   UNL     1      19.308  34.919  16.901  1.00  0.00    -0.353 OA
ATOM     10  HO  UNL     1      18.945  35.236  16.082  1.00  0.00     0.218 HD
ENDBRANCH   4   9
BRANCH   5  11
HETATM   11  O   UNL     1      19.722  33.318  14.583  1.00  0.00    -0.358 OA
ATOM     12  HO  UNL     1      20.113  33.053  13.758  1.00  0.00     0.217 HD
ENDBRANCH   5  11
TORSDOF 2
ENDMDL
MODEL 3
REMARK VINA RESULT:      -5.9      1.234      2.957
REMARK  2 active torsions:
REMARK  status: ('A' for Active; 'I' for Inactive)
REMARK    1  A    between atoms: O_1  and  C_8 
REMARK    2  A    between atoms: O_3  and  C_9 
ROOT
HETATM    1  O   UNL     1      22.877  30.365  17.496  1.00  0.00    -0.260 OA
HETATM    2  C   UNL     1      21.970  32.313  18.367  1.00  0.00     0.122 C 
HETATM    3  O   UNL     1      20.954  31.011  16.611  1.00  0.00    -0.236 OA
HETATM    4  C   UNL     1      20.868  33.433  16.525  1.00  0.00     0.175 C 
HETATM    5  C   UNL     1      21.178  33.367  17.936  1.00  0.00     0.111 C 
HETATM    6  O   UNL     1      19.504  31.982  15.171  1.00  0.00    -0.256 OA
HETATM    7  C   UNL     1      21.910  31.111  17.592  1.00  0.00     0.293 C 
HETATM    8  C   UNL     1      20.388  32.125  15.993  1.00  0.00     0.327 C 
ENDROOT
BRANCH   4   9
HETATM    9  O   UNL     1      20.326  34.565  15.964  1.00  0.00    -0.353 OA
ATOM     10  HO  UNL     1      20.353  35.401  16.414  1.00  0.00     0.218 HD
ENDBRANCH   4   9
BRANCH   5  11
HETATM   11  O   UNL     1      20.907  34.430  18.748  1.00  0.00    -0.358 OA
ATOM     12  HO  UNL     1      20.147  34.436  19.317  1.00  0.00     0.217 HD
ENDBRANCH   5  11
TORSDOF 2
ENDMDL
MODEL 4
REMARK VINA RESULT:      -5.9      1.137      2.764
REMARK  2 active torsions:
REMARK  status: ('A' for Active; 'I' for Inactive)
REMARK    1  A    between atoms: O_1  and  C_8 
REMARK    2  A    between atoms: O_3  and  C_9 
ROOT
HETATM    1  O   UNL     1      20.982  31.557  14.472  1.00  0.00    -0.260 OA
HETATM    2  C   UNL     1      21.588  31.482  16.709  1.00  0.00     0.122 C 
HETATM    3  O   UNL     1      19.808  32.850  15.832  1.00  0.00    -0.236 OA
HETATM    4  C   UNL     1      21.248  33.714  17.581  1.00  0.00     0.175 C 
HETATM    5  C   UNL     1      21.591  32.327  17.808  1.00  0.00     0.111 C 
HETATM    6  O   UNL     1      19.147  34.704  16.948  1.00  0.00    -0.256 OA
HETATM    7  C   UNL     1      20.710  31.834  15.635  1.00  0.00     0.293 C 
HETATM    8  C   UNL     1      20.004  33.860  16.772  1.00  0.00     0.327 C 
ENDROOT
BRANCH   4   9
HETATM    9  O   UNL     1      21.480  34.674  18.538  1.00  0.00    -0.353 OA
ATOM     10  HO  UNL     1      20.970  34.707  19.339  1.00  0.00     0.218 HD
ENDBRANCH   4   9
BRANCH   5  11
HETATM   11  O   UNL     1      22.131  31.941  19.000  1.00  0.00    -0.358 OA
ATOM     12  HO  UNL     1      21.706  31.291  19.547  1.00  0.00     0.217 HD
ENDBRANCH   5  11
TORSDOF 2
ENDMDL
MODEL 5
REMARK VINA RESULT:      -5.6      5.549      6.360
REMARK  2 active torsions:
REMARK  status: ('A' for Active; 'I' for Inactive)
REMARK    1  A    between atoms: O_1  and  C_8 
REMARK    2  A    between atoms: O_3  and  C_9 
ROOT
HETATM    1  O   UNL     1      28.279  32.358  12.282  1.00  0.00    -0.260 OA
HETATM    2  C   UNL     1      26.276  32.559  13.433  1.00  0.00     0.122 C 
HETATM    3  O   UNL     1      28.196  33.971  13.795  1.00  0.00    -0.236 OA
HETATM    4  C   UNL     1      26.850  33.252  15.681  1.00  0.00     0.175 C 
HETATM    5  C   UNL     1      25.841  32.963  14.686  1.00  0.00     0.111 C 
HETATM    6  O   UNL     1      28.464  35.037  15.773  1.00  0.00    -0.256 OA
HETATM    7  C   UNL     1      27.567  33.023  13.026  1.00  0.00     0.293 C 
HETATM    8  C   UNL     1      27.921  34.145  15.151  1.00  0.00     0.327 C 
ENDROOT
BRANCH   4   9
HETATM    9  O   UNL     1      26.525  33.396  17.009  1.00  0.00    -0.353 OA
ATOM     10  HO  UNL     1      27.152  33.200  17.695  1.00  0.00     0.218 HD
ENDBRANCH   4   9
BRANCH   5  11
HETATM   11  O   UNL     1      24.530  32.856  15.051  1.00  0.00    -0.358 OA
ATOM     12  HO  UNL     1      24.278  32.724  15.957  1.00  0.00     0.217 HD
ENDBRANCH   5  11
TORSDOF 2
ENDMDL
MODEL 6
REMARK VINA RESULT:      -5.6      1.182      3.054
REMARK  2 active torsions:
REMARK  status: ('A' for Active; 'I' for Inactive)
REMARK    1  A    between atoms: O_1  and  C_8 
REMARK    2  A    between atoms: O_3  and  C_9 
ROOT
HETATM    1  O   UNL     1      21.756  34.882  18.597  1.00  0.00    -0.260 OA
HETATM    2  C   UNL     1      20.234  34.191  16.990  1.00  0.00     0.122 C 
HETATM    3  O   UNL     1      21.755  32.717  18.141  1.00  0.00    -0.236 OA
HETATM    4  C   UNL     1      21.295  32.380  15.783  1.00  0.00     0.175 C 
HETATM    5  C   UNL     1      20.129  33.201  16.025  1.00  0.00     0.111 C 
HETATM    6  O   UNL     1      22.359  30.749  17.200  1.00  0.00    -0.256 OA
HETATM    7  C   UNL     1      21.173  33.957  18.045  1.00  0.00     0.293 C 
HETATM    8  C   UNL     1      21.887  31.860  17.049  1.00  0.00     0.327 C 
ENDROOT
BRANCH   4   9
HETATM    9  O   UNL     1      21.380  31.565  14.679  1.00  0.00    -0.353 OA
ATOM     10  HO  UNL     1      22.069  31.676  14.035  1.00  0.00     0.218 HD
ENDBRANCH   4   9
BRANCH   5  11
HETATM   11  O   UNL     1      19.070  33.157  15.165  1.00  0.00    -0.358 OA
ATOM     12  HO  UNL     1      19.128  33.522  14.290  1.00  0.00     0.217 HD
ENDBRANCH   5  11
TORSDOF 2
ENDMDL
MODEL 7
REMARK VINA RESULT:      -5.5      1.764      3.289
REMARK  2 active torsions:
REMARK  status: ('A' for Active; 'I' for Inactive)
REMARK    1  A    between atoms: O_1  and  C_8 
REMARK    2  A    between atoms: O_3  and  C_9 
ROOT
HETATM    1  O   UNL     1      22.735  30.978  19.303  1.00  0.00    -0.260 OA
HETATM    2  C   UNL     1      21.193  30.917  17.572  1.00  0.00     0.122 C 
HETATM    3  O   UNL     1      23.519  31.487  17.297  1.00  0.00    -0.236 OA
HETATM    4  C   UNL     1      21.823  32.679  16.037  1.00  0.00     0.175 C 
HETATM    5  C   UNL     1      20.974  31.554  16.360  1.00  0.00     0.111 C 
HETATM    6  O   UNL     1      24.178  32.746  15.536  1.00  0.00    -0.256 OA
HETATM    7  C   UNL     1      22.523  30.980  18.096  1.00  0.00     0.293 C 
HETATM    8  C   UNL     1      23.268  32.372  16.249  1.00  0.00     0.327 C 
ENDROOT
BRANCH   4   9
HETATM    9  O   UNL     1      21.518  33.532  15.002  1.00  0.00    -0.353 OA
ATOM     10  HO  UNL     1      22.195  34.019  14.547  1.00  0.00     0.218 HD
ENDBRANCH   4   9
BRANCH   5  11
HETATM   11  O   UNL     1      19.858  31.302  15.617  1.00  0.00    -0.358 OA
ATOM     12  HO  UNL     1      19.386  30.481  15.696  1.00  0.00     0.217 HD
ENDBRANCH   5  11
TORSDOF 2
ENDMDL
MODEL 8
REMARK VINA RESULT:      -5.4      1.469      2.215
REMARK  2 active torsions:
REMARK  status: ('A' for Active; 'I' for Inactive)
REMARK    1  A    between atoms: O_1  and  C_8 
REMARK    2  A    between atoms: O_3  and  C_9 
ROOT
HETATM    1  O   UNL     1      19.933  31.594  14.921  1.00  0.00    -0.260 OA
HETATM    2  C   UNL     1      20.713  31.694  17.102  1.00  0.00     0.122 C 
HETATM    3  O   UNL     1      21.856  32.652  15.208  1.00  0.00    -0.236 OA
HETATM    4  C   UNL     1      23.127  31.570  16.967  1.00  0.00     0.175 C 
HETATM    5  C   UNL     1      21.932  31.743  17.763  1.00  0.00     0.111 C 
HETATM    6  O   UNL     1      24.090  33.004  15.289  1.00  0.00    -0.256 OA
HETATM    7  C   UNL     1      20.717  32.084  15.725  1.00  0.00     0.293 C 
HETATM    8  C   UNL     1      23.121  32.431  15.749  1.00  0.00     0.327 C 
ENDROOT
BRANCH   4   9
HETATM    9  O   UNL     1      24.349  31.336  17.554  1.00  0.00    -0.353 OA
ATOM     10  HO  UNL     1      25.105  31.083  17.037  1.00  0.00     0.218 HD
ENDBRANCH   4   9
BRANCH   5  11
HETATM   11  O   UNL     1      22.003  31.705  19.125  1.00  0.00    -0.358 OA
ATOM     12  HO  UNL     1      21.234  31.534  19.656  1.00  0.00     0.217 HD
ENDBRANCH   5  11
TORSDOF 2
ENDMDL
MODEL 9
REMARK VINA RESULT:      -5.4      5.723      7.164
REMARK  2 active torsions:
REMARK  status: ('A' for Active; 'I' for Inactive)
REMARK    1  A    between atoms: O_1  and  C_8 
REMARK    2  A    between atoms: O_3  and  C_9 
ROOT
HETATM    1  O   UNL     1      25.332  32.273  16.450  1.00  0.00    -0.260 OA
HETATM    2  C   UNL     1      26.867  31.816  14.773  1.00  0.00     0.122 C 
HETATM    3  O   UNL     1      27.104  33.597  16.380  1.00  0.00    -0.236 OA
HETATM    4  C   UNL     1      27.767  33.952  14.074  1.00  0.00     0.175 C 
HETATM    5  C   UNL     1      27.777  32.508  13.989  1.00  0.00     0.111 C 
HETATM    6  O   UNL     1      28.386  35.399  15.897  1.00  0.00    -0.256 OA
HETATM    7  C   UNL     1      26.450  32.457  15.984  1.00  0.00     0.293 C 
HETATM    8  C   UNL     1      27.774  34.431  15.487  1.00  0.00     0.327 C 
ENDROOT
BRANCH   4   9
HETATM    9  O   UNL     1      28.431  34.728  13.154  1.00  0.00    -0.353 OA
ATOM     10  HO  UNL     1      28.259  34.648  12.223  1.00  0.00     0.218 HD
ENDBRANCH   4   9
BRANCH   5  11
HETATM   11  O   UNL     1      28.479  31.885  12.998  1.00  0.00    -0.358 OA
ATOM     12  HO  UNL     1      29.292  32.247  12.665  1.00  0.00     0.217 HD
ENDBRANCH   5  11
TORSDOF 2
ENDMDL
