MODEL 1
REMARK VINA RESULT:      -6.4      0.000      0.000
REMARK  2 active torsions:
REMARK  status: ('A' for Active; 'I' for Inactive)
REMARK    1  A    between atoms: C_1  and  C_3 
REMARK    2  A    between atoms: C_4  and  O_5 
ROOT
HETATM    1  C   UNL     1      21.073  32.848  15.996  1.00  0.00     0.174 C 
HETATM    2  C   UNL     1      20.627  33.898  16.981  1.00  0.00     0.135 C 
HETATM    3  O   UNL     1      21.685  32.204  18.153  1.00  0.00    -0.315 OA
HETATM    4  C   UNL     1      21.908  31.900  16.775  1.00  0.00     0.201 C 
HETATM    5  C   UNL     1      21.353  33.557  18.239  1.00  0.00     0.313 C 
HETATM    6  O   UNL     1      21.430  34.283  19.222  1.00  0.00    -0.257 OA
ENDROOT
BRANCH   1   7
HETATM    7  C   UNL     1      20.022  32.233  15.099  1.00  0.00     0.185 C 
HETATM    8  O   UNL     1      20.413  31.556  14.114  1.00  0.00    -0.647 OA
HETATM    9  O   UNL     1      18.838  32.484  15.325  1.00  0.00    -0.647 OA
ENDBRANCH   1   7
BRANCH   2  10
HETATM   10  O   UNL     1      19.429  34.609  16.954  1.00  0.00    -0.358 OA
ATOM     11  HO  UNL     1      18.886  34.834  17.701  1.00  0.00     0.217 HD
ENDBRANCH   2  10
TORSDOF 2
ENDMDL
MODEL 2
REMARK VINA RESULT:      -6.0      1.244      2.306
REMARK  2 active torsions:
REMARK  status: ('A' for Active; 'I' for Inactive)
REMARK    1  A    between atoms: C_1  and  C_3 
REMARK    2  A    between atoms: C_4  and  O_5 
ROOT
HETATM    1  C   UNL     1      21.161  32.814  16.447  1.00  0.00     0.174 C 
HETATM    2  C   UNL     1      21.637  32.820  17.877  1.00  0.00     0.135 C 
HETATM    3  O   UNL     1      21.487  30.621  17.170  1.00  0.00    -0.315 OA
HETATM    4  C   UNL     1      21.276  31.406  15.995  1.00  0.00     0.201 C 
HETATM    5  C   UNL     1      22.126  31.430  18.111  1.00  0.00     0.313 C 
HETATM    6  O   UNL     1      22.782  31.073  19.080  1.00  0.00    -0.257 OA
ENDROOT
BRANCH   1   7
HETATM    7  C   UNL     1      19.857  33.513  16.136  1.00  0.00     0.185 C 
HETATM    8  O   UNL     1      19.513  34.473  16.873  1.00  0.00    -0.647 OA
HETATM    9  O   UNL     1      19.155  33.068  15.227  1.00  0.00    -0.647 OA
ENDBRANCH   1   7
BRANCH   2  10
HETATM   10  O   UNL     1      21.194  33.660  18.897  1.00  0.00    -0.358 OA
ATOM     11  HO  UNL     1      20.327  33.672  19.287  1.00  0.00     0.217 HD
ENDBRANCH   2  10
TORSDOF 2
ENDMDL
MODEL 3
REMARK VINA RESULT:      -5.7      1.516      3.186
REMARK  2 active torsions:
REMARK  status: ('A' for Active; 'I' for Inactive)
REMARK    1  A    between atoms: C_1  and  C_3 
REMARK    2  A    between atoms: C_4  and  O_5 
ROOT
HETATM    1  C   UNL     1      21.709  32.067  16.946  1.00  0.00     0.174 C 
HETATM    2  C   UNL     1      21.128  33.365  17.444  1.00  0.00     0.135 C 
HETATM    3  O   UNL     1      20.236  32.924  15.354  1.00  0.00    -0.315 OA
HETATM    4  C   UNL     1      20.957  31.743  15.709  1.00  0.00     0.201 C 
HETATM    5  C   UNL     1      19.981  33.633  16.529  1.00  0.00     0.313 C 
HETATM    6  O   UNL     1      19.119  34.481  16.716  1.00  0.00    -0.257 OA
ENDROOT
BRANCH   1   7
HETATM    7  C   UNL     1      23.215  31.955  16.864  1.00  0.00     0.185 C 
HETATM    8  O   UNL     1      23.785  31.122  17.613  1.00  0.00    -0.647 OA
HETATM    9  O   UNL     1      23.822  32.733  16.127  1.00  0.00    -0.647 OA
ENDBRANCH   1   7
BRANCH   2  10
HETATM   10  O   UNL     1      21.803  34.365  18.142  1.00  0.00    -0.358 OA
ATOM     11  HO  UNL     1      22.339  35.055  17.769  1.00  0.00     0.217 HD
ENDBRANCH   2  10
TORSDOF 2
ENDMDL
MODEL 4
REMARK VINA RESULT:      -5.6      0.929      4.053
REMARK  2 active torsions:
REMARK  status: ('A' for Active; 'I' for Inactive)
REMARK    1  A    between atoms: C_1  and  C_3 
REMARK    2  A    between atoms: C_4  and  O_5 
ROOT
HETATM    1  C   UNL     1      21.367  33.255  17.168  1.00  0.00     0.174 C 
HETATM    2  C   UNL     1      21.355  31.975  16.373  1.00  0.00     0.135 C 
HETATM    3  O   UNL     1      19.448  33.177  15.845  1.00  0.00    -0.315 OA
HETATM    4  C   UNL     1      20.237  34.061  16.643  1.00  0.00     0.201 C 
HETATM    5  C   UNL     1      20.296  32.187  15.344  1.00  0.00     0.313 C 
HETATM    6  O   UNL     1      20.112  31.470  14.371  1.00  0.00    -0.257 OA
ENDROOT
BRANCH   1   7
HETATM    7  C   UNL     1      21.472  33.148  18.673  1.00  0.00     0.185 C 
HETATM    8  O   UNL     1      21.420  34.212  19.343  1.00  0.00    -0.647 OA
HETATM    9  O   UNL     1      21.679  32.041  19.170  1.00  0.00    -0.647 OA
ENDBRANCH   1   7
BRANCH   2  10
HETATM   10  O   UNL     1      21.750  30.715  16.820  1.00  0.00    -0.358 OA
ATOM     11  HO  UNL     1      22.133  30.506  17.664  1.00  0.00     0.217 HD
ENDBRANCH   2  10
TORSDOF 2
ENDMDL
MODEL 5
REMARK VINA RESULT:      -5.6      1.767      2.436
REMARK  2 active torsions:
REMARK  status: ('A' for Active; 'I' for Inactive)
REMARK    1  A    between atoms: C_1  and  C_3 
REMARK    2  A    between atoms: C_4  and  O_5 
ROOT
HETATM    1  C   UNL     1      20.795  31.655  15.893  1.00  0.00     0.174 C 
HETATM    2  C   UNL     1      22.260  31.982  16.018  1.00  0.00     0.135 C 
HETATM    3  O   UNL     1      21.497  31.263  18.083  1.00  0.00    -0.315 OA
HETATM    4  C   UNL     1      20.417  31.019  17.180  1.00  0.00     0.201 C 
HETATM    5  C   UNL     1      22.664  31.385  17.325  1.00  0.00     0.313 C 
HETATM    6  O   UNL     1      23.818  31.247  17.705  1.00  0.00    -0.257 OA
ENDROOT
BRANCH   1   7
HETATM    7  C   UNL     1      19.872  32.741  15.387  1.00  0.00     0.185 C 
HETATM    8  O   UNL     1      19.550  32.719  14.171  1.00  0.00    -0.647 OA
HETATM    9  O   UNL     1      19.539  33.637  16.162  1.00  0.00    -0.647 OA
ENDBRANCH   1   7
BRANCH   2  10
HETATM   10  O   UNL     1      22.928  33.052  15.425  1.00  0.00    -0.358 OA
ATOM     11  HO  UNL     1      23.863  33.220  15.446  1.00  0.00     0.217 HD
ENDBRANCH   2  10
TORSDOF 2
ENDMDL
MODEL 6
REMARK VINA RESULT:      -5.3      5.793      6.810
REMARK  2 active torsions:
REMARK  status: ('A' for Active; 'I' for Inactive)
REMARK    1  A    between atoms: C_1  and  C_3 
REMARK    2  A    between atoms: C_4  and  O_5 
ROOT
HETATM    1  C   UNL     1      27.219  33.035  14.971  1.00  0.00     0.174 C 
HETATM    2  C   UNL     1      26.598  32.921  16.339  1.00  0.00     0.135 C 
HETATM    3  O   UNL     1      24.903  32.848  14.762  1.00  0.00    -0.315 OA
HETATM    4  C   UNL     1      26.116  32.784  14.010  1.00  0.00     0.201 C 
HETATM    5  C   UNL     1      25.199  32.474  16.075  1.00  0.00     0.313 C 
HETATM    6  O   UNL     1      24.422  32.065  16.926  1.00  0.00    -0.257 OA
ENDROOT
BRANCH   1   7
HETATM    7  C   UNL     1      28.090  34.240  14.692  1.00  0.00     0.185 C 
HETATM    8  O   UNL     1      28.449  34.443  13.504  1.00  0.00    -0.647 OA
HETATM    9  O   UNL     1      28.471  34.922  15.643  1.00  0.00    -0.647 OA
ENDBRANCH   1   7
BRANCH   2  10
HETATM   10  O   UNL     1      26.978  33.615  17.486  1.00  0.00    -0.358 OA
ATOM     11  HO  UNL     1      26.699  34.488  17.740  1.00  0.00     0.217 HD
ENDBRANCH   2  10
TORSDOF 2
ENDMDL
MODEL 7
REMARK VINA RESULT:      -5.3      1.129      3.588
REMARK  2 active torsions:
REMARK  status: ('A' for Active; 'I' for Inactive)
REMARK    1  A    between atoms: C_1  and  C_3 
REMARK    2  A    between atoms: C_4  and  O_5 
ROOT
HETATM    1  C   UNL     1      21.196  32.395  17.371  1.00  0.00     0.174 C 
HETATM    2  C   UNL     1      20.210  32.633  16.256  1.00  0.00     0.135 C 
HETATM    3  O   UNL     1      22.239  32.028  15.317  1.00  0.00    -0.315 OA
HETATM    4  C   UNL     1      22.402  31.824  16.722  1.00  0.00     0.201 C 
HETATM    5  C   UNL     1      20.869  32.052  15.050  1.00  0.00     0.313 C 
HETATM    6  O   UNL     1      20.315  31.853  13.977  1.00  0.00    -0.257 OA
ENDROOT
BRANCH   1   7
HETATM    7  C   UNL     1      21.433  33.521  18.353  1.00  0.00     0.185 C 
HETATM    8  O   UNL     1      21.410  33.246  19.580  1.00  0.00    -0.647 OA
HETATM    9  O   UNL     1      21.561  34.665  17.915  1.00  0.00    -0.647 OA
ENDBRANCH   1   7
BRANCH   2  10
HETATM   10  O   UNL     1      19.249  33.640  16.196  1.00  0.00    -0.358 OA
ATOM     11  HO  UNL     1      19.351  34.540  16.483  1.00  0.00     0.217 HD
ENDBRANCH   2  10
TORSDOF 2
ENDMDL
MODEL 8
REMARK VINA RESULT:      -5.2      5.974      7.097
REMARK  2 active torsions:
REMARK  status: ('A' for Active; 'I' for Inactive)
REMARK    1  A    between atoms: C_1  and  C_3 
REMARK    2  A    between atoms: C_4  and  O_5 
ROOT
HETATM    1  C   UNL     1      26.776  32.678  15.187  1.00  0.00     0.174 C 
HETATM    2  C   UNL     1      26.873  32.572  13.687  1.00  0.00     0.135 C 
HETATM    3  O   UNL     1      27.860  34.562  14.341  1.00  0.00    -0.315 OA
HETATM    4  C   UNL     1      27.592  33.862  15.557  1.00  0.00     0.201 C 
HETATM    5  C   UNL     1      27.856  33.627  13.303  1.00  0.00     0.313 C 
HETATM    6  O   UNL     1      28.371  33.736  12.199  1.00  0.00    -0.257 OA
ENDROOT
BRANCH   1   7
HETATM    7  C   UNL     1      25.402  32.591  15.812  1.00  0.00     0.185 C 
HETATM    8  O   UNL     1      24.417  32.955  15.119  1.00  0.00    -0.647 OA
HETATM    9  O   UNL     1      25.313  32.242  16.989  1.00  0.00    -0.647 OA
ENDBRANCH   1   7
BRANCH   2  10
HETATM   10  O   UNL     1      25.895  32.083  12.822  1.00  0.00    -0.358 OA
ATOM     11  HO  UNL     1      26.040  31.633  11.998  1.00  0.00     0.217 HD
ENDBRANCH   2  10
TORSDOF 2
ENDMDL
MODEL 9
REMARK VINA RESULT:      -5.2      2.062      3.887
REMARK  2 active torsions:
REMARK  status: ('A' for Active; 'I' for Inactive)
REMARK    1  A    between atoms: C_1  and  C_3 
REMARK    2  A    between atoms: C_4  and  O_5 
ROOT
HETATM    1  C   UNL     1      21.654  32.038  17.326  1.00  0.00     0.174 C 
HETATM    2  C   UNL     1      21.804  32.613  15.941  1.00  0.00     0.135 C 
HETATM    3  O   UNL     1      20.147  30.997  15.882  1.00  0.00    -0.315 OA
HETATM    4  C   UNL     1      20.457  31.163  17.266  1.00  0.00     0.201 C 
HETATM    5  C   UNL     1      20.596  32.135  15.208  1.00  0.00     0.313 C 
HETATM    6  O   UNL     1      20.230  32.548  14.116  1.00  0.00    -0.257 OA
ENDROOT
BRANCH   1   7
HETATM    7  C   UNL     1      22.883  31.448  17.980  1.00  0.00     0.185 C 
HETATM    8  O   UNL     1      23.946  31.408  17.307  1.00  0.00    -0.647 OA
HETATM    9  O   UNL     1      22.774  30.965  19.107  1.00  0.00    -0.647 OA
ENDBRANCH   1   7
BRANCH   2  10
HETATM   10  O   UNL     1      22.996  32.962  15.309  1.00  0.00    -0.358 OA
ATOM     11  HO  UNL     1      23.726  33.433  15.695  1.00  0.00     0.217 HD
ENDBRANCH   2  10
TORSDOF 2
ENDMDL
