MODEL 1
REMARK VINA RESULT:      -8.2      0.000      0.000
REMARK  1 active torsions:
REMARK  status: ('A' for Active; 'I' for Inactive)
REMARK    1  A    between atoms: N_2  and  O_12 
ROOT
HETATM    1  C   UNL     1      20.627  63.959  20.305  1.00  0.00     0.105 C 
HETATM    2  N   UNL     1      25.374  62.632  19.245  1.00  0.00    -0.197 N 
HETATM    3  N   UNL     1      19.277  65.220  21.870  1.00  0.00    -0.364 N 
ATOM      4  HN  UNL     1      19.459  64.491  22.559  1.00  0.00     0.165 HD
HETATM    5  C   UNL     1      22.521  63.790  19.052  1.00  0.00     0.065 C 
HETATM    6  O   UNL     1      25.270  64.148  20.936  1.00  0.00    -0.263 OA
HETATM    7  O   UNL     1      17.959  62.770  21.903  1.00  0.00    -0.265 OA
HETATM    8  C   UNL     1      18.971  62.311  22.373  1.00  0.00     0.283 C 
HETATM    9  C   UNL     1      21.618  60.492  23.070  1.00  0.00     0.033 C 
HETATM   10  C   UNL     1      24.211  63.435  17.303  1.00  0.00     0.022 C 
HETATM   11  C   UNL     1      19.627  60.458  25.407  1.00  0.00     0.088 C 
HETATM   12  C   UNL     1      23.180  64.182  17.876  1.00  0.00     0.033 C 
HETATM   13  C   UNL     1      18.954  67.134  19.497  1.00  0.00     0.002 C 
HETATM   14  C   UNL     1      18.624  66.297  22.286  1.00  0.00     0.088 C 
HETATM   15  C   UNL     1      19.334  65.822  19.567  1.00  0.00     0.032 C 
HETATM   16  C   UNL     1      21.143  63.043  21.259  1.00  0.00     0.145 C 
HETATM   17  C   UNL     1      23.181  63.276  20.197  1.00  0.00     0.132 C 
HETATM   18  C   UNL     1      21.724  59.733  24.231  1.00  0.00     0.004 C 
HETATM   19  N   UNL     1      21.174  63.848  19.065  1.00  0.00    -0.349 N 
ATOM     20  HN  UNL     1      20.611  63.813  18.215  1.00  0.00     0.166 HD
HETATM   21  C   UNL     1      18.506  67.990  20.489  1.00  0.00     0.001 C 
HETATM   22  N   UNL     1      18.756  60.968  24.546  1.00  0.00    -0.360 N 
ATOM     23  HN  UNL     1      17.779  61.105  24.803  1.00  0.00     0.165 HD
HETATM   24  C   UNL     1      24.986  62.571  17.935  1.00  0.00     0.127 C 
HETATM   25  C   UNL     1      18.260  67.515  21.771  1.00  0.00     0.017 C 
HETATM   26  N   UNL     1      20.279  62.357  22.044  1.00  0.00    -0.258 N 
HETATM   27  C   UNL     1      19.204  61.299  23.327  1.00  0.00     0.129 C 
HETATM   28  C   UNL     1      19.722  65.004  20.611  1.00  0.00     0.062 C 
HETATM   29  C   UNL     1      20.717  59.681  25.171  1.00  0.00     0.017 C 
HETATM   30  N   UNL     1      22.491  62.869  21.292  1.00  0.00    -0.334 N 
ATOM     31  HN  UNL     1      22.958  62.454  22.098  1.00  0.00     0.168 HD
HETATM   32  C   UNL     1      24.675  63.369  20.214  1.00  0.00     0.300 C 
HETATM   33  C   UNL     1      20.509  61.291  22.822  1.00  0.00     0.076 C 
ENDROOT
BRANCH   2  34
HETATM   34  O   UNL     1      26.597  62.125  19.617  1.00  0.00    -0.280 OA
ATOM     35  HO  UNL     1      26.642  61.299  20.085  1.00  0.00     0.245 HD
ENDBRANCH   2  34
TORSDOF 1
ENDMDL
MODEL 2
REMARK VINA RESULT:      -8.1      3.272      6.176
REMARK  1 active torsions:
REMARK  status: ('A' for Active; 'I' for Inactive)
REMARK    1  A    between atoms: N_2  and  O_12 
ROOT
HETATM    1  C   UNL     1      22.856  64.419  21.173  1.00  0.00     0.105 C 
HETATM    2  N   UNL     1      26.432  60.992  20.229  1.00  0.00    -0.197 N 
HETATM    3  N   UNL     1      21.155  65.778  20.115  1.00  0.00    -0.364 N 
ATOM      4  HN  UNL     1      21.905  66.348  19.722  1.00  0.00     0.165 HD
HETATM    5  C   UNL     1      23.934  62.420  21.343  1.00  0.00     0.065 C 
HETATM    6  O   UNL     1      25.179  61.446  18.387  1.00  0.00    -0.263 OA
HETATM    7  O   UNL     1      22.539  67.710  21.563  1.00  0.00    -0.265 OA
HETATM    8  C   UNL     1      23.486  67.459  20.859  1.00  0.00     0.283 C 
HETATM    9  C   UNL     1      26.462  66.737  19.664  1.00  0.00     0.033 C 
HETATM   10  C   UNL     1      25.036  60.349  22.075  1.00  0.00     0.022 C 
HETATM   11  C   UNL     1      25.561  69.520  18.734  1.00  0.00     0.088 C 
HETATM   12  C   UNL     1      23.889  61.110  21.845  1.00  0.00     0.033 C 
HETATM   13  C   UNL     1      19.239  63.845  21.525  1.00  0.00     0.002 C 
HETATM   14  C   UNL     1      19.919  66.049  19.716  1.00  0.00     0.088 C 
HETATM   15  C   UNL     1      20.555  64.147  21.741  1.00  0.00     0.032 C 
HETATM   16  C   UNL     1      23.954  64.984  20.473  1.00  0.00     0.145 C 
HETATM   17  C   UNL     1      24.777  62.834  20.280  1.00  0.00     0.132 C 
HETATM   18  C   UNL     1      27.220  67.647  18.937  1.00  0.00     0.004 C 
HETATM   19  N   UNL     1      23.174  63.352  21.954  1.00  0.00    -0.349 N 
ATOM     20  HN  UNL     1      22.863  63.263  22.921  1.00  0.00     0.166 HD
HETATM   21  C   UNL     1      18.329  64.398  20.640  1.00  0.00     0.001 C 
HETATM   22  N   UNL     1      24.624  69.423  19.668  1.00  0.00    -0.360 N 
ATOM     23  HN  UNL     1      24.005  70.206  19.879  1.00  0.00     0.165 HD
HETATM   24  C   UNL     1      26.210  60.521  21.494  1.00  0.00     0.127 C 
HETATM   25  C   UNL     1      18.668  65.514  19.885  1.00  0.00     0.017 C 
HETATM   26  N   UNL     1      24.120  66.327  20.486  1.00  0.00    -0.258 N 
HETATM   27  C   UNL     1      24.516  68.261  20.326  1.00  0.00     0.129 C 
HETATM   28  C   UNL     1      21.509  64.815  20.995  1.00  0.00     0.062 C 
HETATM   29  C   UNL     1      26.782  68.928  18.674  1.00  0.00     0.017 C 
HETATM   30  N   UNL     1      24.815  64.125  19.864  1.00  0.00    -0.334 N 
ATOM     31  HN  UNL     1      25.455  64.435  19.134  1.00  0.00     0.168 HD
HETATM   32  C   UNL     1      25.487  61.755  19.524  1.00  0.00     0.300 C 
HETATM   33  C   UNL     1      25.186  67.050  20.116  1.00  0.00     0.076 C 
ENDROOT
BRANCH   2  34
HETATM   34  O   UNL     1      27.526  60.554  19.521  1.00  0.00    -0.280 OA
ATOM     35  HO  UNL     1      27.401  60.069  18.713  1.00  0.00     0.245 HD
ENDBRANCH   2  34
TORSDOF 1
ENDMDL
MODEL 3
REMARK VINA RESULT:      -7.9      3.108      7.627
REMARK  1 active torsions:
REMARK  status: ('A' for Active; 'I' for Inactive)
REMARK    1  A    between atoms: N_2  and  O_12 
ROOT
HETATM    1  C   UNL     1      22.909  63.772  19.948  1.00  0.00     0.105 C 
HETATM    2  N   UNL     1      19.222  67.211  19.945  1.00  0.00    -0.197 N 
HETATM    3  N   UNL     1      24.639  62.795  21.332  1.00  0.00    -0.364 N 
ATOM      4  HN  UNL     1      25.157  63.669  21.240  1.00  0.00     0.165 HD
HETATM    5  C   UNL     1      20.781  64.556  19.744  1.00  0.00     0.065 C 
HETATM    6  O   UNL     1      20.132  66.938  22.011  1.00  0.00    -0.263 OA
HETATM    7  O   UNL     1      26.108  63.484  19.071  1.00  0.00    -0.265 OA
HETATM    8  C   UNL     1      25.846  64.631  19.336  1.00  0.00     0.283 C 
HETATM    9  C   UNL     1      24.925  67.786  19.260  1.00  0.00     0.033 C 
HETATM   10  C   UNL     1      18.489  65.106  19.049  1.00  0.00     0.022 C 
HETATM   11  C   UNL     1      27.918  67.540  19.898  1.00  0.00     0.088 C 
HETATM   12  C   UNL     1      19.426  64.224  19.588  1.00  0.00     0.033 C 
HETATM   13  C   UNL     1      22.785  60.355  21.305  1.00  0.00     0.002 C 
HETATM   14  C   UNL     1      25.136  61.883  22.157  1.00  0.00     0.088 C 
HETATM   15  C   UNL     1      22.866  61.449  20.489  1.00  0.00     0.032 C 
HETATM   16  C   UNL     1      23.424  65.095  19.979  1.00  0.00     0.145 C 
HETATM   17  C   UNL     1      21.240  65.805  20.234  1.00  0.00     0.132 C 
HETATM   18  C   UNL     1      25.828  68.835  19.389  1.00  0.00     0.004 C 
HETATM   19  N   UNL     1      21.698  63.652  19.342  1.00  0.00    -0.349 N 
ATOM     20  HN  UNL     1      21.499  62.938  18.642  1.00  0.00     0.166 HD
HETATM   21  C   UNL     1      23.592  59.965  22.361  1.00  0.00     0.001 C 
HETATM   22  N   UNL     1      27.801  66.280  19.496  1.00  0.00    -0.360 N 
ATOM     23  HN  UNL     1      28.618  65.674  19.416  1.00  0.00     0.165 HD
HETATM   24  C   UNL     1      18.590  66.424  19.023  1.00  0.00     0.127 C 
HETATM   25  C   UNL     1      24.757  60.663  22.654  1.00  0.00     0.017 C 
HETATM   26  N   UNL     1      24.712  65.306  19.622  1.00  0.00    -0.258 N 
HETATM   27  C   UNL     1      26.575  65.831  19.200  1.00  0.00     0.129 C 
HETATM   28  C   UNL     1      23.509  62.668  20.602  1.00  0.00     0.062 C 
HETATM   29  C   UNL     1      27.182  68.627  19.547  1.00  0.00     0.017 C 
HETATM   30  N   UNL     1      22.564  66.091  20.321  1.00  0.00    -0.334 N 
ATOM     31  HN  UNL     1      22.897  67.005  20.627  1.00  0.00     0.168 HD
HETATM   32  C   UNL     1      20.210  66.722  20.815  1.00  0.00     0.300 C 
HETATM   33  C   UNL     1      25.333  66.460  19.345  1.00  0.00     0.076 C 
ENDROOT
BRANCH   2  34
HETATM   34  O   UNL     1      18.758  68.482  20.190  1.00  0.00    -0.280 OA
ATOM     35  HO  UNL     1      17.845  68.615  20.417  1.00  0.00     0.245 HD
ENDBRANCH   2  34
TORSDOF 1
ENDMDL
MODEL 4
REMARK VINA RESULT:      -7.7      2.537      6.948
REMARK  1 active torsions:
REMARK  status: ('A' for Active; 'I' for Inactive)
REMARK    1  A    between atoms: N_2  and  O_12 
ROOT
HETATM    1  C   UNL     1      20.030  63.678  21.285  1.00  0.00     0.105 C 
HETATM    2  N   UNL     1      17.663  68.122  21.034  1.00  0.00    -0.197 N 
HETATM    3  N   UNL     1      21.380  62.287  22.735  1.00  0.00    -0.364 N 
ATOM      4  HN  UNL     1      22.151  62.936  22.582  1.00  0.00     0.165 HD
HETATM    5  C   UNL     1      18.269  65.097  21.024  1.00  0.00     0.065 C 
HETATM    6  O   UNL     1      18.481  67.708  23.115  1.00  0.00    -0.263 OA
HETATM    7  O   UNL     1      22.941  62.304  20.432  1.00  0.00    -0.265 OA
HETATM    8  C   UNL     1      23.072  63.490  20.614  1.00  0.00     0.283 C 
HETATM    9  C   UNL     1      23.226  66.759  20.313  1.00  0.00     0.033 C 
HETATM   10  C   UNL     1      16.265  66.316  20.290  1.00  0.00     0.022 C 
HETATM   11  C   UNL     1      25.990  65.595  20.968  1.00  0.00     0.088 C 
HETATM   12  C   UNL     1      16.876  65.215  20.891  1.00  0.00     0.033 C 
HETATM   13  C   UNL     1      18.833  60.588  22.882  1.00  0.00     0.002 C 
HETATM   14  C   UNL     1      21.571  61.320  23.624  1.00  0.00     0.088 C 
HETATM   15  C   UNL     1      19.246  61.538  21.990  1.00  0.00     0.032 C 
HETATM   16  C   UNL     1      20.948  64.760  21.221  1.00  0.00     0.145 C 
HETATM   17  C   UNL     1      19.120  66.158  21.424  1.00  0.00     0.132 C 
HETATM   18  C   UNL     1      24.424  67.463  20.367  1.00  0.00     0.004 C 
HETATM   19  N   UNL     1      18.833  63.919  20.688  1.00  0.00    -0.349 N 
ATOM     20  HN  UNL     1      18.396  63.263  20.040  1.00  0.00     0.166 HD
HETATM   21  C   UNL     1      19.492  60.029  23.964  1.00  0.00     0.001 C 
HETATM   22  N   UNL     1      25.461  64.418  20.657  1.00  0.00    -0.360 N 
ATOM     23  HN  UNL     1      26.034  63.575  20.621  1.00  0.00     0.165 HD
HETATM   24  C   UNL     1      16.788  67.524  20.170  1.00  0.00     0.127 C 
HETATM   25  C   UNL     1      20.827  60.327  24.206  1.00  0.00     0.017 C 
HETATM   26  N   UNL     1      22.226  64.515  20.851  1.00  0.00    -0.258 N 
HETATM   27  C   UNL     1      24.148  64.374  20.393  1.00  0.00     0.129 C 
HETATM   28  C   UNL     1      20.253  62.486  22.016  1.00  0.00     0.062 C 
HETATM   29  C   UNL     1      25.639  66.836  20.541  1.00  0.00     0.017 C 
HETATM   30  N   UNL     1      20.467  66.002  21.491  1.00  0.00    -0.334 N 
ATOM     31  HN  UNL     1      21.085  66.777  21.731  1.00  0.00     0.168 HD
HETATM   32  C   UNL     1      18.458  67.398  21.937  1.00  0.00     0.300 C 
HETATM   33  C   UNL     1      23.182  65.382  20.492  1.00  0.00     0.076 C 
ENDROOT
BRANCH   2  34
HETATM   34  O   UNL     1      17.643  69.489  21.187  1.00  0.00    -0.280 OA
ATOM     35  HO  UNL     1      16.812  69.949  21.201  1.00  0.00     0.245 HD
ENDBRANCH   2  34
TORSDOF 1
ENDMDL
MODEL 5
REMARK VINA RESULT:      -7.6      3.069      5.782
REMARK  1 active torsions:
REMARK  status: ('A' for Active; 'I' for Inactive)
REMARK    1  A    between atoms: N_2  and  O_12 
ROOT
HETATM    1  C   UNL     1      21.167  64.844  21.502  1.00  0.00     0.105 C 
HETATM    2  N   UNL     1      23.986  60.670  21.752  1.00  0.00    -0.197 N 
HETATM    3  N   UNL     1      20.091  66.359  19.950  1.00  0.00    -0.364 N 
ATOM      4  HN  UNL     1      21.018  66.706  19.702  1.00  0.00     0.165 HD
HETATM    5  C   UNL     1      21.698  62.712  22.100  1.00  0.00     0.065 C 
HETATM    6  O   UNL     1      23.299  61.110  19.629  1.00  0.00    -0.263 OA
HETATM    7  O   UNL     1      21.531  68.153  21.515  1.00  0.00    -0.265 OA
HETATM    8  C   UNL     1      22.526  67.622  21.085  1.00  0.00     0.283 C 
HETATM    9  C   UNL     1      25.445  66.158  20.712  1.00  0.00     0.033 C 
HETATM   10  C   UNL     1      22.114  60.583  23.255  1.00  0.00     0.022 C 
HETATM   11  C   UNL     1      25.425  68.911  19.353  1.00  0.00     0.088 C 
HETATM   12  C   UNL     1      21.248  61.519  22.689  1.00  0.00     0.033 C 
HETATM   13  C   UNL     1      17.527  65.064  21.019  1.00  0.00     0.002 C 
HETATM   14  C   UNL     1      19.066  66.815  19.242  1.00  0.00     0.088 C 
HETATM   15  C   UNL     1      18.798  65.121  21.519  1.00  0.00     0.032 C 
HETATM   16  C   UNL     1      22.490  65.074  21.041  1.00  0.00     0.145 C 
HETATM   17  C   UNL     1      22.823  62.797  21.241  1.00  0.00     0.132 C 
HETATM   18  C   UNL     1      26.530  66.789  20.113  1.00  0.00     0.004 C 
HETATM   19  N   UNL     1      21.057  63.853  22.426  1.00  0.00    -0.349 N 
ATOM     20  HN  UNL     1      20.532  63.963  23.294  1.00  0.00     0.166 HD
HETATM   21  C   UNL     1      16.980  65.662  19.896  1.00  0.00     0.001 C 
HETATM   22  N   UNL     1      24.311  69.134  20.038  1.00  0.00    -0.360 N 
ATOM     23  HN  UNL     1      23.857  70.047  20.024  1.00  0.00     0.165 HD
HETATM   24  C   UNL     1      23.394  60.433  22.962  1.00  0.00     0.127 C 
HETATM   25  C   UNL     1      17.720  66.571  19.150  1.00  0.00     0.017 C 
HETATM   26  N   UNL     1      22.951  66.345  20.977  1.00  0.00    -0.258 N 
HETATM   27  C   UNL     1      23.802  68.119  20.749  1.00  0.00     0.129 C 
HETATM   28  C   UNL     1      20.017  65.475  20.970  1.00  0.00     0.062 C 
HETATM   29  C   UNL     1      26.462  68.082  19.641  1.00  0.00     0.017 C 
HETATM   30  N   UNL     1      23.243  63.984  20.735  1.00  0.00    -0.334 N 
ATOM     31  HN  UNL     1      24.080  64.055  20.157  1.00  0.00     0.168 HD
HETATM   32  C   UNL     1      23.416  61.504  20.775  1.00  0.00     0.300 C 
HETATM   33  C   UNL     1      24.207  66.781  20.813  1.00  0.00     0.076 C 
ENDROOT
BRANCH   2  34
HETATM   34  O   UNL     1      25.078  59.928  21.369  1.00  0.00    -0.280 OA
ATOM     35  HO  UNL     1      25.183  59.679  20.458  1.00  0.00     0.245 HD
ENDBRANCH   2  34
TORSDOF 1
ENDMDL
MODEL 6
REMARK VINA RESULT:      -7.6      4.022      6.940
REMARK  1 active torsions:
REMARK  status: ('A' for Active; 'I' for Inactive)
REMARK    1  A    between atoms: N_2  and  O_12 
ROOT
HETATM    1  C   UNL     1      24.680  65.629  20.247  1.00  0.00     0.105 C 
HETATM    2  N   UNL     1      27.582  69.676  19.457  1.00  0.00    -0.197 N 
HETATM    3  N   UNL     1      22.963  64.256  19.234  1.00  0.00    -0.364 N 
ATOM      4  HN  UNL     1      22.310  65.025  19.384  1.00  0.00     0.165 HD
HETATM    5  C   UNL     1      26.621  66.802  20.036  1.00  0.00     0.065 C 
HETATM    6  O   UNL     1      26.406  69.094  17.599  1.00  0.00    -0.263 OA
HETATM    7  O   UNL     1      21.792  64.825  21.694  1.00  0.00    -0.265 OA
HETATM    8  C   UNL     1      21.779  65.979  21.342  1.00  0.00     0.283 C 
HETATM    9  C   UNL     1      22.074  69.245  21.130  1.00  0.00     0.033 C 
HETATM   10  C   UNL     1      28.847  67.811  20.288  1.00  0.00     0.022 C 
HETATM   11  C   UNL     1      19.121  68.411  21.049  1.00  0.00     0.088 C 
HETATM   12  C   UNL     1      28.021  66.736  19.959  1.00  0.00     0.033 C 
HETATM   13  C   UNL     1      25.230  62.204  19.023  1.00  0.00     0.002 C 
HETATM   14  C   UNL     1      22.519  63.211  18.547  1.00  0.00     0.088 C 
HETATM   15  C   UNL     1      25.079  63.321  19.797  1.00  0.00     0.032 C 
HETATM   16  C   UNL     1      23.923  66.830  20.258  1.00  0.00     0.145 C 
HETATM   17  C   UNL     1      25.853  67.908  19.588  1.00  0.00     0.132 C 
HETATM   18  C   UNL     1      20.977  70.099  21.125  1.00  0.00     0.004 C 
HETATM   19  N   UNL     1      25.976  65.777  20.630  1.00  0.00    -0.349 N 
ATOM     20  HN  UNL     1      26.424  65.164  21.311  1.00  0.00     0.166 HD
HETATM   21  C   UNL     1      24.348  61.599  18.144  1.00  0.00     0.001 C 
HETATM   22  N   UNL     1      19.544  67.226  21.471  1.00  0.00    -0.360 N 
ATOM     23  HN  UNL     1      18.885  66.488  21.719  1.00  0.00     0.165 HD
HETATM   24  C   UNL     1      28.500  69.087  20.281  1.00  0.00     0.127 C 
HETATM   25  C   UNL     1      23.038  62.048  18.038  1.00  0.00     0.017 C 
HETATM   26  N   UNL     1      22.697  66.827  20.831  1.00  0.00    -0.258 N 
HETATM   27  C   UNL     1      20.866  67.031  21.560  1.00  0.00     0.129 C 
HETATM   28  C   UNL     1      24.203  64.391  19.754  1.00  0.00     0.062 C 
HETATM   29  C   UNL     1      19.682  69.636  21.220  1.00  0.00     0.017 C 
HETATM   30  N   UNL     1      24.504  67.939  19.729  1.00  0.00    -0.334 N 
ATOM     31  HN  UNL     1      23.955  68.753  19.453  1.00  0.00     0.168 HD
HETATM   32  C   UNL     1      26.574  68.953  18.797  1.00  0.00     0.300 C 
HETATM   33  C   UNL     1      21.921  67.865  21.171  1.00  0.00     0.076 C 
ENDROOT
BRANCH   2  34
HETATM   34  O   UNL     1      27.744  70.990  19.085  1.00  0.00    -0.280 OA
ATOM     35  HO  UNL     1      27.452  71.276  18.227  1.00  0.00     0.245 HD
ENDBRANCH   2  34
TORSDOF 1
ENDMDL
MODEL 7
REMARK VINA RESULT:      -7.1      2.259      5.847
REMARK  1 active torsions:
REMARK  status: ('A' for Active; 'I' for Inactive)
REMARK    1  A    between atoms: N_2  and  O_12 
ROOT
HETATM    1  C   UNL     1      21.901  65.411  20.859  1.00  0.00     0.105 C 
HETATM    2  N   UNL     1      17.452  67.783  20.891  1.00  0.00    -0.197 N 
HETATM    3  N   UNL     1      23.234  63.821  19.612  1.00  0.00    -0.364 N 
ATOM      4  HN  UNL     1      22.599  63.090  19.934  1.00  0.00     0.165 HD
HETATM    5  C   UNL     1      20.480  67.190  20.865  1.00  0.00     0.065 C 
HETATM    6  O   UNL     1      17.774  66.600  18.976  1.00  0.00    -0.263 OA
HETATM    7  O   UNL     1      23.340  62.704  22.158  1.00  0.00    -0.265 OA
HETATM    8  C   UNL     1      22.148  62.541  22.060  1.00  0.00     0.283 C 
HETATM    9  C   UNL     1      18.899  62.444  22.542  1.00  0.00     0.033 C 
HETATM   10  C   UNL     1      19.279  69.293  21.282  1.00  0.00     0.022 C 
HETATM   11  C   UNL     1      20.056  59.607  22.343  1.00  0.00     0.088 C 
HETATM   12  C   UNL     1      20.356  68.583  20.748  1.00  0.00     0.033 C 
HETATM   13  C   UNL     1      24.901  66.299  18.924  1.00  0.00     0.002 C 
HETATM   14  C   UNL     1      24.159  63.471  18.727  1.00  0.00     0.088 C 
HETATM   15  C   UNL     1      23.998  66.054  19.921  1.00  0.00     0.032 C 
HETATM   16  C   UNL     1      20.832  64.520  21.140  1.00  0.00     0.145 C 
HETATM   17  C   UNL     1      19.408  66.280  20.678  1.00  0.00     0.132 C 
HETATM   18  C   UNL     1      18.204  61.255  22.740  1.00  0.00     0.004 C 
HETATM   19  N   UNL     1      21.678  66.696  21.240  1.00  0.00    -0.349 N 
ATOM     20  HN  UNL     1      22.360  67.243  21.766  1.00  0.00     0.166 HD
HETATM   21  C   UNL     1      25.414  65.455  17.954  1.00  0.00     0.001 C 
HETATM   22  N   UNL     1      21.241  60.184  22.495  1.00  0.00    -0.360 N 
ATOM     23  HN  UNL     1      22.090  59.627  22.594  1.00  0.00     0.165 HD
HETATM   24  C   UNL     1      18.083  68.800  21.553  1.00  0.00     0.127 C 
HETATM   25  C   UNL     1      25.117  64.098  17.972  1.00  0.00     0.017 C 
HETATM   26  N   UNL     1      21.105  63.330  21.724  1.00  0.00    -0.258 N 
HETATM   27  C   UNL     1      21.286  61.523  22.515  1.00  0.00     0.129 C 
HETATM   28  C   UNL     1      23.059  65.059  20.124  1.00  0.00     0.062 C 
HETATM   29  C   UNL     1      18.833  60.029  22.759  1.00  0.00     0.017 C 
HETATM   30  N   UNL     1      19.574  64.943  20.848  1.00  0.00    -0.334 N 
ATOM     31  HN  UNL     1      18.794  64.291  20.762  1.00  0.00     0.168 HD
HETATM   32  C   UNL     1      18.140  66.837  20.113  1.00  0.00     0.300 C 
HETATM   33  C   UNL     1      20.265  62.454  22.292  1.00  0.00     0.076 C 
ENDROOT
BRANCH   2  34
HETATM   34  O   UNL     1      16.080  67.774  20.804  1.00  0.00    -0.280 OA
ATOM     35  HO  UNL     1      15.584  67.089  21.237  1.00  0.00     0.245 HD
ENDBRANCH   2  34
TORSDOF 1
ENDMDL
MODEL 8
REMARK VINA RESULT:      -6.8      4.138      7.283
REMARK  1 active torsions:
REMARK  status: ('A' for Active; 'I' for Inactive)
REMARK    1  A    between atoms: N_2  and  O_12 
ROOT
HETATM    1  C   UNL     1      19.867  66.786  20.906  1.00  0.00     0.105 C 
HETATM    2  N   UNL     1      19.534  71.807  20.587  1.00  0.00    -0.197 N 
HETATM    3  N   UNL     1      19.494  64.742  19.664  1.00  0.00    -0.364 N 
ATOM      4  HN  UNL     1      18.492  64.902  19.772  1.00  0.00     0.165 HD
HETATM    5  C   UNL     1      20.610  68.938  20.950  1.00  0.00     0.065 C 
HETATM    6  O   UNL     1      19.116  70.796  18.594  1.00  0.00    -0.263 OA
HETATM    7  O   UNL     1      18.091  64.193  22.003  1.00  0.00    -0.265 OA
HETATM    8  C   UNL     1      17.361  65.103  21.697  1.00  0.00     0.283 C 
HETATM    9  C   UNL     1      15.502  67.813  21.643  1.00  0.00     0.033 C 
HETATM   10  C   UNL     1      21.650  71.102  21.477  1.00  0.00     0.022 C 
HETATM   11  C   UNL     1      13.784  65.305  21.214  1.00  0.00     0.088 C 
HETATM   12  C   UNL     1      21.728  69.785  21.021  1.00  0.00     0.033 C 
HETATM   13  C   UNL     1      22.557  64.633  19.618  1.00  0.00     0.002 C 
HETATM   14  C   UNL     1      19.865  63.728  18.894  1.00  0.00     0.088 C 
HETATM   15  C   UNL     1      21.679  65.316  20.414  1.00  0.00     0.032 C 
HETATM   16  C   UNL     1      18.516  67.224  20.882  1.00  0.00     0.145 C 
HETATM   17  C   UNL     1      19.340  69.341  20.465  1.00  0.00     0.132 C 
HETATM   18  C   UNL     1      14.115  67.770  21.553  1.00  0.00     0.004 C 
HETATM   19  N   UNL     1      20.741  67.686  21.432  1.00  0.00    -0.349 N 
ATOM     20  HN  UNL     1      21.438  67.434  22.133  1.00  0.00     0.166 HD
HETATM   21  C   UNL     1      22.321  63.694  18.627  1.00  0.00     0.001 C 
HETATM   22  N   UNL     1      14.844  64.625  21.633  1.00  0.00    -0.360 N 
ATOM     23  HN  UNL     1      14.799  63.617  21.781  1.00  0.00     0.165 HD
HETATM   24  C   UNL     1      20.567  71.858  21.482  1.00  0.00     0.127 C 
HETATM   25  C   UNL     1      21.037  63.217  18.399  1.00  0.00     0.017 C 
HETATM   26  N   UNL     1      17.547  66.386  21.320  1.00  0.00    -0.258 N 
HETATM   27  C   UNL     1      15.975  65.307  21.856  1.00  0.00     0.129 C 
HETATM   28  C   UNL     1      20.326  65.583  20.319  1.00  0.00     0.062 C 
HETATM   29  C   UNL     1      13.417  66.583  21.490  1.00  0.00     0.017 C 
HETATM   30  N   UNL     1      18.279  68.494  20.462  1.00  0.00    -0.334 N 
ATOM     31  HN  UNL     1      17.353  68.795  20.159  1.00  0.00     0.168 HD
HETATM   32  C   UNL     1      19.265  70.678  19.797  1.00  0.00     0.300 C 
HETATM   33  C   UNL     1      16.268  66.655  21.614  1.00  0.00     0.076 C 
ENDROOT
BRANCH   2  34
HETATM   34  O   UNL     1      18.836  72.953  20.285  1.00  0.00    -0.280 OA
ATOM     35  HO  UNL     1      19.140  73.519  19.586  1.00  0.00     0.245 HD
ENDBRANCH   2  34
TORSDOF 1
ENDMDL
MODEL 9
REMARK VINA RESULT:      -6.6      5.061      7.965
REMARK  1 active torsions:
REMARK  status: ('A' for Active; 'I' for Inactive)
REMARK    1  A    between atoms: N_2  and  O_12 
ROOT
HETATM    1  C   UNL     1      25.491  66.707  19.857  1.00  0.00     0.105 C 
HETATM    2  N   UNL     1      28.522  69.892  17.388  1.00  0.00    -0.197 N 
HETATM    3  N   UNL     1      23.465  65.401  19.631  1.00  0.00    -0.364 N 
ATOM      4  HN  UNL     1      22.940  66.275  19.668  1.00  0.00     0.165 HD
HETATM    5  C   UNL     1      27.440  67.462  18.953  1.00  0.00     0.065 C 
HETATM    6  O   UNL     1      26.909  69.029  16.037  1.00  0.00    -0.263 OA
HETATM    7  O   UNL     1      22.936  66.779  21.990  1.00  0.00    -0.265 OA
HETATM    8  C   UNL     1      22.957  67.785  21.325  1.00  0.00     0.283 C 
HETATM    9  C   UNL     1      23.513  70.790  20.115  1.00  0.00     0.033 C 
HETATM   10  C   UNL     1      29.753  68.140  18.476  1.00  0.00     0.022 C 
HETATM   11  C   UNL     1      20.550  70.438  20.836  1.00  0.00     0.088 C 
HETATM   12  C   UNL     1      28.774  67.159  18.638  1.00  0.00     0.033 C 
HETATM   13  C   UNL     1      25.417  63.037  19.609  1.00  0.00     0.002 C 
HETATM   14  C   UNL     1      22.780  64.294  19.376  1.00  0.00     0.088 C 
HETATM   15  C   UNL     1      25.552  64.329  20.036  1.00  0.00     0.032 C 
HETATM   16  C   UNL     1      24.876  67.971  19.658  1.00  0.00     0.145 C 
HETATM   17  C   UNL     1      26.703  68.516  18.353  1.00  0.00     0.132 C 
HETATM   18  C   UNL     1      22.531  71.773  20.065  1.00  0.00     0.004 C 
HETATM   19  N   UNL     1      26.848  66.746  19.931  1.00  0.00    -0.349 N 
ATOM     20  HN  UNL     1      27.376  66.273  20.665  1.00  0.00     0.166 HD
HETATM   21  C   UNL     1      24.305  62.366  19.127  1.00  0.00     0.001 C 
HETATM   22  N   UNL     1      20.940  69.356  21.499  1.00  0.00    -0.360 N 
ATOM     23  HN  UNL     1      20.285  68.824  22.072  1.00  0.00     0.165 HD
HETATM   24  C   UNL     1      29.539  69.406  18.162  1.00  0.00     0.127 C 
HETATM   25  C   UNL     1      23.055  62.972  19.142  1.00  0.00     0.017 C 
HETATM   26  N   UNL     1      23.815  68.313  20.426  1.00  0.00    -0.258 N 
HETATM   27  C   UNL     1      22.223  68.987  21.392  1.00  0.00     0.129 C 
HETATM   28  C   UNL     1      24.798  65.473  19.847  1.00  0.00     0.062 C 
HETATM   29  C   UNL     1      21.252  71.561  20.532  1.00  0.00     0.017 C 
HETATM   30  N   UNL     1      25.429  68.795  18.729  1.00  0.00    -0.334 N 
ATOM     31  HN  UNL     1      24.914  69.581  18.334  1.00  0.00     0.168 HD
HETATM   32  C   UNL     1      27.326  69.187  17.170  1.00  0.00     0.300 C 
HETATM   33  C   UNL     1      23.240  69.512  20.586  1.00  0.00     0.076 C 
ENDROOT
BRANCH   2  34
HETATM   34  O   UNL     1      28.724  71.017  16.624  1.00  0.00    -0.280 OA
ATOM     35  HO  UNL     1      28.504  71.872  16.977  1.00  0.00     0.245 HD
ENDBRANCH   2  34
TORSDOF 1
ENDMDL
