REMARK  3 active torsions:
REMARK  status: ('A' for Active; 'I' for Inactive)
REMARK    1  A    between atoms: C_2  and  O_12 
REMARK    2  A    between atoms: C_4  and  O_8 
REMARK    3  A    between atoms: C_6  and  O_35 
ROOT
HETATM    1  C   UNL     1      20.232  60.274  23.076  1.00  0.00     0.274 C 
HETATM    2  C   UNL     1      25.656  62.047  20.608  1.00  0.00     0.083 C 
HETATM    3  C   UNL     1      18.523  62.388  22.370  1.00  0.00     0.049 C 
HETATM    4  C   UNL     1      19.931  64.673  20.925  1.00  0.00     0.182 C 
HETATM    5  C   UNL     1      24.276  65.502  20.475  1.00  0.00     0.030 C 
HETATM    6  C   UNL     1      24.811  61.188  21.546  1.00  0.00     0.180 C 
HETATM    7  C   UNL     1      20.531  67.101  21.209  1.00  0.00     0.012 C 
HETATM    8  C   UNL     1      24.249  63.266  18.895  1.00  0.00     0.102 C 
HETATM    9  C   UNL     1      18.276  66.414  21.699  1.00  0.00     0.001 C 
HETATM   10  C   UNL     1      19.235  67.419  21.583  1.00  0.00     0.001 C 
HETATM   11  N   UNL     1      21.941  61.272  21.629  1.00  0.00    -0.355 N 
ATOM     12  HN  UNL     1      22.321  60.565  21.000  1.00  0.00     0.166 HD
HETATM   13  C   UNL     1      25.235  64.514  20.676  1.00  0.00     0.017 C 
HETATM   14  C   UNL     1      18.078  61.327  23.123  1.00  0.00     0.093 C 
HETATM   15  C   UNL     1      25.049  63.289  20.037  1.00  0.00     0.011 C 
HETATM   16  C   UNL     1      20.654  61.260  22.124  1.00  0.00     0.128 C 
HETATM   17  C   UNL     1      19.872  62.413  21.977  1.00  0.00     0.067 C 
HETATM   18  C   UNL     1      18.640  65.093  21.500  1.00  0.00     0.039 C 
HETATM   19  C   UNL     1      22.632  62.335  22.081  1.00  0.00     0.008 C 
HETATM   20  C   UNL     1      21.927  63.665  22.166  1.00  0.00     0.179 C 
HETATM   21  C   UNL     1      24.063  62.124  22.498  1.00  0.00     0.092 C 
HETATM   22  C   UNL     1      21.918  65.756  19.844  1.00  0.00     0.041 C 
HETATM   23  C   UNL     1      23.168  65.167  19.680  1.00  0.00     0.032 C 
HETATM   24  C   UNL     1      20.839  65.855  20.665  1.00  0.00     0.003 C 
HETATM   25  N   UNL     1      20.567  63.561  21.616  1.00  0.00    -0.335 N 
HETATM   26  N   UNL     1      18.899  60.287  23.419  1.00  0.00    -0.332 N 
ATOM     27  HN  UNL     1      18.513  59.484  23.915  1.00  0.00     0.168 HD
HETATM   28  N   UNL     1      23.300  64.217  18.709  1.00  0.00    -0.365 N 
ATOM     29  HN  UNL     1      22.709  64.222  17.878  1.00  0.00     0.165 HD
HETATM   30  O   UNL     1      21.001  59.445  23.564  1.00  0.00    -0.266 OA
ENDROOT
BRANCH   2  31
HETATM   31  O   UNL     1      26.388  61.289  19.675  1.00  0.00    -0.361 OA
ATOM     32  HO  UNL     1      26.914  61.823  19.091  1.00  0.00     0.217 HD
ENDBRANCH   2  31
BRANCH   6  33
HETATM   33  O   UNL     1      25.721  60.449  22.364  1.00  0.00    -0.389 OA
ATOM     34  HO  UNL     1      25.195  59.915  22.948  1.00  0.00     0.210 HD
ENDBRANCH   6  33
BRANCH   4  35
HETATM   35  O   UNL     1      19.624  64.147  19.668  1.00  0.00    -0.363 OA
ATOM     36  HO  UNL     1      20.456  63.876  19.297  1.00  0.00     0.213 HD
ENDBRANCH   4  35
TORSDOF 3
