MODEL 1
REMARK VINA RESULT:      -6.9      0.000      0.000
REMARK  3 active torsions:
REMARK  status: ('A' for Active; 'I' for Inactive)
REMARK    1  A    between atoms: C_1  and  C_13 
REMARK    2  A    between atoms: N_2  and  C_10 
REMARK    3  A    between atoms: C_8  and  C_13 
ROOT
HETATM    1  O   UNL     1      15.339 -36.252  23.179  1.00  0.00    -0.271 OA
HETATM    2  C   UNL     1      14.169 -33.839  25.343  1.00  0.00     0.091 C 
HETATM    3  C   UNL     1      15.114 -35.450  24.058  1.00  0.00     0.248 C 
HETATM    4  C   UNL     1      16.062 -35.319  25.267  1.00  0.00     0.276 C 
HETATM    5  N   UNL     1      13.899 -34.939  24.494  1.00  0.00    -0.354 N 
ATOM      6  HN  UNL     1      12.975 -35.293  24.247  1.00  0.00     0.162 HD
HETATM    7  C   UNL     1      15.558 -33.997  25.852  1.00  0.00     0.068 C 
ENDROOT
BRANCH   2   8
HETATM    8  C   UNL     1      13.394 -32.564  25.317  1.00  0.00     0.063 C 
BRANCH   8   9
HETATM    9  C   UNL     1      14.138 -31.431  24.664  1.00  0.00    -0.056 A 
HETATM   10  C   UNL     1      14.346 -30.241  25.333  1.00  0.00     0.007 A 
HETATM   11  C   UNL     1      14.929 -29.167  24.688  1.00  0.00     0.001 A 
HETATM   12  C   UNL     1      15.351 -29.285  23.382  1.00  0.00     0.000 A 
HETATM   13  C   UNL     1      15.217 -30.488  22.736  1.00  0.00     0.001 A 
HETATM   14  C   UNL     1      14.656 -31.565  23.389  1.00  0.00     0.007 A 
ENDBRANCH   8   9
ENDBRANCH   2   8
BRANCH   4  15
HETATM   15  N   UNL     1      17.438 -35.011  24.762  1.00  0.00    -0.066 N 
ATOM     16  HN3 UNL     1      18.014 -35.847  24.661  1.00  0.00     0.275 HD
ATOM     17  HN2 UNL     1      17.440 -34.721  23.784  1.00  0.00     0.275 HD
ATOM     18  HN1 UNL     1      17.861 -34.316  25.377  1.00  0.00     0.275 HD
ENDBRANCH   4  15
TORSDOF 3
ENDMDL
MODEL 2
REMARK VINA RESULT:      -6.6      1.542      2.334
REMARK  3 active torsions:
REMARK  status: ('A' for Active; 'I' for Inactive)
REMARK    1  A    between atoms: C_1  and  C_13 
REMARK    2  A    between atoms: N_2  and  C_10 
REMARK    3  A    between atoms: C_8  and  C_13 
ROOT
HETATM    1  O   UNL     1      18.079 -36.343  25.568  1.00  0.00    -0.271 OA
HETATM    2  C   UNL     1      15.895 -33.712  25.135  1.00  0.00     0.091 C 
HETATM    3  C   UNL     1      17.188 -35.567  25.301  1.00  0.00     0.248 C 
HETATM    4  C   UNL     1      15.995 -36.008  24.429  1.00  0.00     0.276 C 
HETATM    5  N   UNL     1      17.229 -34.184  25.185  1.00  0.00    -0.354 N 
ATOM      6  HN  UNL     1      18.071 -33.609  25.144  1.00  0.00     0.162 HD
HETATM    7  C   UNL     1      15.037 -34.842  24.688  1.00  0.00     0.068 C 
ENDROOT
BRANCH   2   8
HETATM    8  C   UNL     1      15.421 -32.494  25.854  1.00  0.00     0.063 C 
BRANCH   8   9
HETATM    9  C   UNL     1      15.232 -31.307  24.947  1.00  0.00    -0.056 A 
HETATM   10  C   UNL     1      15.362 -31.434  23.579  1.00  0.00     0.007 A 
HETATM   11  C   UNL     1      15.300 -30.320  22.763  1.00  0.00     0.001 A 
HETATM   12  C   UNL     1      15.062 -29.074  23.302  1.00  0.00     0.000 A 
HETATM   13  C   UNL     1      14.855 -28.954  24.654  1.00  0.00     0.001 A 
HETATM   14  C   UNL     1      14.896 -30.069  25.462  1.00  0.00     0.007 A 
ENDBRANCH   8   9
ENDBRANCH   2   8
BRANCH   4  15
HETATM   15  N   UNL     1      15.342 -37.188  25.078  1.00  0.00    -0.066 N 
ATOM     16  HN3 UNL     1      15.283 -37.994  24.456  1.00  0.00     0.275 HD
ATOM     17  HN2 UNL     1      15.926 -37.611  25.800  1.00  0.00     0.275 HD
ATOM     18  HN1 UNL     1      14.429 -36.900  25.431  1.00  0.00     0.275 HD
ENDBRANCH   4  15
TORSDOF 3
ENDMDL
MODEL 3
REMARK VINA RESULT:      -6.5      1.542      1.959
REMARK  3 active torsions:
REMARK  status: ('A' for Active; 'I' for Inactive)
REMARK    1  A    between atoms: C_1  and  C_13 
REMARK    2  A    between atoms: N_2  and  C_10 
REMARK    3  A    between atoms: C_8  and  C_13 
ROOT
HETATM    1  O   UNL     1      18.052 -36.345  25.548  1.00  0.00    -0.271 OA
HETATM    2  C   UNL     1      15.870 -33.710  25.134  1.00  0.00     0.091 C 
HETATM    3  C   UNL     1      17.161 -35.566  25.286  1.00  0.00     0.248 C 
HETATM    4  C   UNL     1      15.968 -36.001  24.412  1.00  0.00     0.276 C 
HETATM    5  N   UNL     1      17.203 -34.183  25.179  1.00  0.00    -0.354 N 
ATOM      6  HN  UNL     1      18.046 -33.608  25.142  1.00  0.00     0.162 HD
HETATM    7  C   UNL     1      15.011 -34.836  24.679  1.00  0.00     0.068 C 
ENDROOT
BRANCH   2   8
HETATM    8  C   UNL     1      15.397 -32.496  25.861  1.00  0.00     0.063 C 
BRANCH   8   9
HETATM    9  C   UNL     1      15.246 -31.292  24.970  1.00  0.00    -0.056 A 
HETATM   10  C   UNL     1      15.012 -30.041  25.504  1.00  0.00     0.007 A 
HETATM   11  C   UNL     1      14.761 -28.962  24.677  1.00  0.00     0.001 A 
HETATM   12  C   UNL     1      14.788 -29.113  23.308  1.00  0.00     0.000 A 
HETATM   13  C   UNL     1      15.097 -30.338  22.771  1.00  0.00     0.001 A 
HETATM   14  C   UNL     1      15.368 -31.407  23.598  1.00  0.00     0.007 A 
ENDBRANCH   8   9
ENDBRANCH   2   8
BRANCH   4  15
HETATM   15  N   UNL     1      15.314 -37.185  25.053  1.00  0.00    -0.066 N 
ATOM     16  HN3 UNL     1      15.918 -38.007  25.065  1.00  0.00     0.275 HD
ATOM     17  HN2 UNL     1      15.208 -37.075  26.062  1.00  0.00     0.275 HD
ATOM     18  HN1 UNL     1      14.426 -37.359  24.583  1.00  0.00     0.275 HD
ENDBRANCH   4  15
TORSDOF 3
ENDMDL
MODEL 4
REMARK VINA RESULT:      -6.5      2.357      3.476
REMARK  3 active torsions:
REMARK  status: ('A' for Active; 'I' for Inactive)
REMARK    1  A    between atoms: C_1  and  C_13 
REMARK    2  A    between atoms: N_2  and  C_10 
REMARK    3  A    between atoms: C_8  and  C_13 
ROOT
HETATM    1  O   UNL     1      19.487 -37.669  23.711  1.00  0.00    -0.271 OA
HETATM    2  C   UNL     1      16.712 -35.781  24.495  1.00  0.00     0.091 C 
HETATM    3  C   UNL     1      18.398 -37.163  23.874  1.00  0.00     0.248 C 
HETATM    4  C   UNL     1      17.136 -37.795  23.252  1.00  0.00     0.276 C 
HETATM    5  N   UNL     1      18.067 -35.832  24.090  1.00  0.00    -0.354 N 
ATOM      6  HN  UNL     1      18.692 -35.033  23.978  1.00  0.00     0.162 HD
HETATM    7  C   UNL     1      16.055 -37.028  24.020  1.00  0.00     0.068 C 
ENDROOT
BRANCH   2   8
HETATM    8  C   UNL     1      16.207 -34.894  25.583  1.00  0.00     0.063 C 
BRANCH   8   9
HETATM    9  C   UNL     1      15.834 -33.518  25.101  1.00  0.00    -0.056 A 
HETATM   10  C   UNL     1      15.238 -33.337  23.869  1.00  0.00     0.007 A 
HETATM   11  C   UNL     1      15.003 -32.064  23.385  1.00  0.00     0.001 A 
HETATM   12  C   UNL     1      15.318 -30.960  24.147  1.00  0.00     0.000 A 
HETATM   13  C   UNL     1      15.839 -31.136  25.404  1.00  0.00     0.001 A 
HETATM   14  C   UNL     1      16.052 -32.407  25.894  1.00  0.00     0.007 A 
ENDBRANCH   8   9
ENDBRANCH   2   8
BRANCH   4  15
HETATM   15  N   UNL     1      17.019 -39.205  23.740  1.00  0.00    -0.066 N 
ATOM     16  HN3 UNL     1      16.186 -39.355  24.309  1.00  0.00     0.275 HD
ATOM     17  HN2 UNL     1      16.797 -39.861  22.991  1.00  0.00     0.275 HD
ATOM     18  HN1 UNL     1      17.879 -39.450  24.233  1.00  0.00     0.275 HD
ENDBRANCH   4  15
TORSDOF 3
ENDMDL
MODEL 5
REMARK VINA RESULT:      -6.5      2.021      3.084
REMARK  3 active torsions:
REMARK  status: ('A' for Active; 'I' for Inactive)
REMARK    1  A    between atoms: C_1  and  C_13 
REMARK    2  A    between atoms: N_2  and  C_10 
REMARK    3  A    between atoms: C_8  and  C_13 
ROOT
HETATM    1  O   UNL     1      18.219 -35.361  27.084  1.00  0.00    -0.271 OA
HETATM    2  C   UNL     1      16.136 -35.455  24.339  1.00  0.00     0.091 C 
HETATM    3  C   UNL     1      17.480 -35.616  26.158  1.00  0.00     0.248 C 
HETATM    4  C   UNL     1      17.077 -37.072  25.850  1.00  0.00     0.276 C 
HETATM    5  N   UNL     1      17.290 -34.928  24.967  1.00  0.00    -0.354 N 
ATOM      6  HN  UNL     1      17.879 -34.176  24.607  1.00  0.00     0.162 HD
HETATM    7  C   UNL     1      15.916 -36.822  24.883  1.00  0.00     0.068 C 
ENDROOT
BRANCH   2   8
HETATM    8  C   UNL     1      15.108 -34.615  23.660  1.00  0.00     0.063 C 
BRANCH   8   9
HETATM    9  C   UNL     1      14.964 -33.245  24.268  1.00  0.00    -0.056 A 
HETATM   10  C   UNL     1      15.281 -32.113  23.545  1.00  0.00     0.007 A 
HETATM   11  C   UNL     1      15.256 -30.869  24.146  1.00  0.00     0.001 A 
HETATM   12  C   UNL     1      14.871 -30.738  25.462  1.00  0.00     0.000 A 
HETATM   13  C   UNL     1      14.481 -31.852  26.163  1.00  0.00     0.001 A 
HETATM   14  C   UNL     1      14.485 -33.089  25.555  1.00  0.00     0.007 A 
ENDBRANCH   8   9
ENDBRANCH   2   8
BRANCH   4  15
HETATM   15  N   UNL     1      16.436 -37.656  27.070  1.00  0.00    -0.066 N 
ATOM     16  HN3 UNL     1      17.017 -37.557  27.903  1.00  0.00     0.275 HD
ATOM     17  HN2 UNL     1      15.636 -37.111  27.391  1.00  0.00     0.275 HD
ATOM     18  HN1 UNL     1      16.195 -38.628  26.875  1.00  0.00     0.275 HD
ENDBRANCH   4  15
TORSDOF 3
ENDMDL
MODEL 6
REMARK VINA RESULT:      -6.2      3.063      3.658
REMARK  3 active torsions:
REMARK  status: ('A' for Active; 'I' for Inactive)
REMARK    1  A    between atoms: C_1  and  C_13 
REMARK    2  A    between atoms: N_2  and  C_10 
REMARK    3  A    between atoms: C_8  and  C_13 
ROOT
HETATM    1  O   UNL     1       9.864 -31.746  24.212  1.00  0.00    -0.271 OA
HETATM    2  C   UNL     1      12.853 -33.063  25.311  1.00  0.00     0.091 C 
HETATM    3  C   UNL     1      10.846 -32.397  24.495  1.00  0.00     0.248 C 
HETATM    4  C   UNL     1      10.955 -33.878  24.081  1.00  0.00     0.276 C 
HETATM    5  N   UNL     1      11.719 -32.255  25.565  1.00  0.00    -0.354 N 
ATOM      6  HN  UNL     1      11.570 -31.670  26.388  1.00  0.00     0.162 HD
HETATM    7  C   UNL     1      12.447 -34.112  24.338  1.00  0.00     0.068 C 
ENDROOT
BRANCH   2   8
HETATM    8  C   UNL     1      14.254 -32.633  25.590  1.00  0.00     0.063 C 
BRANCH   8   9
HETATM    9  C   UNL     1      14.658 -31.400  24.826  1.00  0.00    -0.056 A 
HETATM   10  C   UNL     1      14.666 -30.161  25.434  1.00  0.00     0.007 A 
HETATM   11  C   UNL     1      14.928 -29.021  24.698  1.00  0.00     0.001 A 
HETATM   12  C   UNL     1      15.229 -29.112  23.357  1.00  0.00     0.000 A 
HETATM   13  C   UNL     1      15.299 -30.348  22.764  1.00  0.00     0.001 A 
HETATM   14  C   UNL     1      15.059 -31.485  23.506  1.00  0.00     0.007 A 
ENDBRANCH   8   9
ENDBRANCH   2   8
BRANCH   4  15
HETATM   15  N   UNL     1      10.807 -33.970  22.594  1.00  0.00    -0.066 N 
ATOM     16  HN3 UNL     1      10.067 -34.614  22.314  1.00  0.00     0.275 HD
ATOM     17  HN2 UNL     1      10.414 -33.121  22.187  1.00  0.00     0.275 HD
ATOM     18  HN1 UNL     1      11.712 -34.215  22.193  1.00  0.00     0.275 HD
ENDBRANCH   4  15
TORSDOF 3
ENDMDL
MODEL 7
REMARK VINA RESULT:      -5.9      3.226      4.592
REMARK  3 active torsions:
REMARK  status: ('A' for Active; 'I' for Inactive)
REMARK    1  A    between atoms: C_1  and  C_13 
REMARK    2  A    between atoms: N_2  and  C_10 
REMARK    3  A    between atoms: C_8  and  C_13 
ROOT
HETATM    1  O   UNL     1      15.337 -30.393  22.846  1.00  0.00    -0.271 OA
HETATM    2  C   UNL     1      14.329 -32.850  25.043  1.00  0.00     0.091 C 
HETATM    3  C   UNL     1      15.078 -31.127  23.776  1.00  0.00     0.248 C 
HETATM    4  C   UNL     1      15.547 -30.783  25.204  1.00  0.00     0.276 C 
HETATM    5  N   UNL     1      14.870 -32.499  23.783  1.00  0.00    -0.354 N 
ATOM      6  HN  UNL     1      15.071 -33.141  23.015  1.00  0.00     0.162 HD
HETATM    7  C   UNL     1      14.696 -31.775  26.003  1.00  0.00     0.068 C 
ENDROOT
BRANCH   2   8
HETATM    8  C   UNL     1      13.222 -33.834  25.223  1.00  0.00     0.063 C 
BRANCH   8   9
HETATM    9  C   UNL     1      11.927 -33.390  24.597  1.00  0.00    -0.056 A 
HETATM   10  C   UNL     1      11.186 -34.253  23.815  1.00  0.00     0.007 A 
HETATM   11  C   UNL     1      10.059 -33.805  23.152  1.00  0.00     0.001 A 
HETATM   12  C   UNL     1       9.635 -32.502  23.301  1.00  0.00     0.000 A 
HETATM   13  C   UNL     1      10.324 -31.661  24.139  1.00  0.00     0.001 A 
HETATM   14  C   UNL     1      11.435 -32.117  24.816  1.00  0.00     0.007 A 
ENDBRANCH   8   9
ENDBRANCH   2   8
BRANCH   4  15
HETATM   15  N   UNL     1      15.007 -29.436  25.571  1.00  0.00    -0.066 N 
ATOM     16  HN3 UNL     1      14.262 -29.130  24.946  1.00  0.00     0.275 HD
ATOM     17  HN2 UNL     1      14.465 -29.454  26.436  1.00  0.00     0.275 HD
ATOM     18  HN1 UNL     1      15.783 -28.775  25.608  1.00  0.00     0.275 HD
ENDBRANCH   4  15
TORSDOF 3
ENDMDL
MODEL 8
REMARK VINA RESULT:      -5.9      2.081      2.617
REMARK  3 active torsions:
REMARK  status: ('A' for Active; 'I' for Inactive)
REMARK    1  A    between atoms: C_1  and  C_13 
REMARK    2  A    between atoms: N_2  and  C_10 
REMARK    3  A    between atoms: C_8  and  C_13 
ROOT
HETATM    1  O   UNL     1      16.561 -35.708  28.287  1.00  0.00    -0.271 OA
HETATM    2  C   UNL     1      15.790 -34.755  25.065  1.00  0.00     0.091 C 
HETATM    3  C   UNL     1      16.466 -35.501  27.096  1.00  0.00     0.248 C 
HETATM    4  C   UNL     1      17.485 -36.105  26.109  1.00  0.00     0.276 C 
HETATM    5  N   UNL     1      15.919 -34.411  26.432  1.00  0.00    -0.354 N 
ATOM      6  HN  UNL     1      15.657 -33.520  26.855  1.00  0.00     0.162 HD
HETATM    7  C   UNL     1      16.744 -35.863  24.790  1.00  0.00     0.068 C 
ENDROOT
BRANCH   2   8
HETATM    8  C   UNL     1      14.602 -34.406  24.233  1.00  0.00     0.063 C 
BRANCH   8   9
HETATM    9  C   UNL     1      14.377 -32.923  24.115  1.00  0.00    -0.056 A 
HETATM   10  C   UNL     1      13.187 -32.352  24.521  1.00  0.00     0.007 A 
HETATM   11  C   UNL     1      12.944 -31.010  24.305  1.00  0.00     0.001 A 
HETATM   12  C   UNL     1      13.905 -30.213  23.721  1.00  0.00     0.000 A 
HETATM   13  C   UNL     1      15.119 -30.758  23.386  1.00  0.00     0.001 A 
HETATM   14  C   UNL     1      15.367 -32.093  23.623  1.00  0.00     0.007 A 
ENDBRANCH   8   9
ENDBRANCH   2   8
BRANCH   4  15
HETATM   15  N   UNL     1      17.487 -37.592  26.276  1.00  0.00    -0.066 N 
ATOM     16  HN3 UNL     1      16.653 -37.933  26.754  1.00  0.00     0.275 HD
ATOM     17  HN2 UNL     1      17.354 -38.086  25.393  1.00  0.00     0.275 HD
ATOM     18  HN1 UNL     1      18.348 -37.864  26.751  1.00  0.00     0.275 HD
ENDBRANCH   4  15
TORSDOF 3
ENDMDL
MODEL 9
REMARK VINA RESULT:      -5.8      1.561      1.957
REMARK  3 active torsions:
REMARK  status: ('A' for Active; 'I' for Inactive)
REMARK    1  A    between atoms: C_1  and  C_13 
REMARK    2  A    between atoms: N_2  and  C_10 
REMARK    3  A    between atoms: C_8  and  C_13 
ROOT
HETATM    1  O   UNL     1      16.691 -38.391  24.172  1.00  0.00    -0.271 OA
HETATM    2  C   UNL     1      15.452 -35.287  25.013  1.00  0.00     0.091 C 
HETATM    3  C   UNL     1      16.472 -37.242  24.490  1.00  0.00     0.248 C 
HETATM    4  C   UNL     1      17.631 -36.289  24.847  1.00  0.00     0.276 C 
HETATM    5  N   UNL     1      15.352 -36.696  25.103  1.00  0.00    -0.354 N 
ATOM      6  HN  UNL     1      14.592 -37.218  25.540  1.00  0.00     0.162 HD
HETATM    7  C   UNL     1      16.887 -34.951  24.814  1.00  0.00     0.068 C 
ENDROOT
BRANCH   2   8
HETATM    8  C   UNL     1      14.299 -34.395  24.694  1.00  0.00     0.063 C 
BRANCH   8   9
HETATM    9  C   UNL     1      14.654 -32.932  24.730  1.00  0.00    -0.056 A 
HETATM   10  C   UNL     1      14.684 -32.240  25.925  1.00  0.00     0.007 A 
HETATM   11  C   UNL     1      14.898 -30.875  25.938  1.00  0.00     0.001 A 
HETATM   12  C   UNL     1      15.130 -30.195  24.763  1.00  0.00     0.000 A 
HETATM   13  C   UNL     1      15.179 -30.891  23.580  1.00  0.00     0.001 A 
HETATM   14  C   UNL     1      14.987 -32.256  23.572  1.00  0.00     0.007 A 
ENDBRANCH   8   9
ENDBRANCH   2   8
BRANCH   4  15
HETATM   15  N   UNL     1      18.573 -36.229  23.685  1.00  0.00    -0.066 N 
ATOM     16  HN3 UNL     1      18.678 -35.284  23.316  1.00  0.00     0.275 HD
ATOM     17  HN2 UNL     1      19.543 -36.381  23.960  1.00  0.00     0.275 HD
ATOM     18  HN1 UNL     1      18.258 -36.893  22.978  1.00  0.00     0.275 HD
ENDBRANCH   4  15
TORSDOF 3
ENDMDL
