MODEL 1
REMARK VINA RESULT:     -10.4      0.000      0.000
REMARK  4 active torsions:
REMARK  status: ('A' for Active; 'I' for Inactive)
REMARK    1  A    between atoms: C_4  and  N_34 
REMARK    2  A    between atoms: C_8  and  C_19 
REMARK       I    between atoms: C_8  and  N_34 
REMARK    3  A    between atoms: O_16  and  C_24 
REMARK    4  A    between atoms: C_21  and  O_29 
ROOT
HETATM    1  C   UNL     1      -1.159   6.813  17.680  1.00  0.00    -0.006 C 
HETATM    2  O   UNL     1       2.657   8.751  20.206  1.00  0.00    -0.292 OA
HETATM    3  C   UNL     1      -2.664   6.486  17.696  1.00  0.00     0.006 C 
HETATM    4  C   UNL     1       3.109   8.338  19.158  1.00  0.00     0.161 C 
HETATM    5  C   UNL     1       0.676   6.542  19.405  1.00  0.00     0.015 C 
HETATM    6  C   UNL     1      -0.807   6.481  19.135  1.00  0.00    -0.005 C 
HETATM    7  C   UNL     1       5.014   6.905  18.299  1.00  0.00    -0.015 C 
HETATM    8  C   UNL     1       5.512   8.965  19.441  1.00  0.00     0.017 C 
HETATM    9  C   UNL     1      -1.379   5.071  19.127  1.00  0.00    -0.010 C 
HETATM   10  C   UNL     1       2.846   5.587  18.727  1.00  0.00     0.046 C 
HETATM   11  C   UNL     1       2.186   7.963  18.005  1.00  0.00     0.093 C 
HETATM   12  C   UNL     1       7.054   8.051  17.839  1.00  0.00     0.033 C 
HETATM   13  C   UNL     1       1.697   6.510  18.255  1.00  0.00    -0.030 C 
HETATM   14  C   UNL     1       1.061   5.966  16.976  1.00  0.00     0.015 C 
HETATM   15  C   UNL     1       4.562   8.031  18.995  1.00  0.00     0.019 C 
HETATM   16  C   UNL     1       4.160   5.704  17.975  1.00  0.00     0.152 C 
HETATM   17  C   UNL     1       6.765   8.992  18.835  1.00  0.00     0.018 C 
HETATM   18  C   UNL     1      -0.759   4.444  17.861  1.00  0.00     0.010 C 
HETATM   19  C   UNL     1      -2.819   5.351  18.722  1.00  0.00     0.005 C 
HETATM   20  C   UNL     1      -0.438   5.652  16.964  1.00  0.00    -0.009 C 
HETATM   21  C   UNL     1       6.342   6.861  17.863  1.00  0.00     0.027 C 
ENDROOT
BRANCH  12  22
HETATM   22  C   UNL     1       8.008   8.266  16.730  1.00  0.00     0.256 C 
HETATM   23  O   UNL     1       8.423   9.397  16.486  1.00  0.00    -0.267 OA
HETATM   24  N   UNL     1       8.407   7.195  15.986  1.00  0.00    -0.323 N 
ATOM     25  HN  UNL     1       9.417   7.054  15.978  1.00  0.00     0.169 HD
BRANCH  24  26
HETATM   26  C   UNL     1       7.699   6.253  15.232  1.00  0.00     0.037 C 
HETATM   27  C   UNL     1       6.715   6.662  14.339  1.00  0.00     0.066 C 
HETATM   28  C   UNL     1       6.146   5.736  13.477  1.00  0.00     0.067 C 
HETATM   29  C   UNL     1       6.667   4.437  13.394  1.00  0.00     0.036 C 
HETATM   30  C   UNL     1       7.634   4.029  14.300  1.00  0.00     0.005 C 
HETATM   31  C   UNL     1       8.055   4.913  15.290  1.00  0.00     0.029 C 
BRANCH  28  32
HETATM   32  O   UNL     1       5.008   6.011  12.796  1.00  0.00    -0.361 OA
ATOM     33  HO  UNL     1       4.396   5.325  12.557  1.00  0.00     0.217 HD
ENDBRANCH  28  32
ENDBRANCH  24  26
ENDBRANCH  12  22
BRANCH  16  34
HETATM   34  O   UNL     1       3.979   5.588  16.580  1.00  0.00    -0.391 OA
ATOM     35  HO  UNL     1       3.171   5.127  16.386  1.00  0.00     0.210 HD
ENDBRANCH  16  34
TORSDOF 4
ENDMDL
MODEL 2
REMARK VINA RESULT:     -10.0      2.498      6.721
REMARK  4 active torsions:
REMARK  status: ('A' for Active; 'I' for Inactive)
REMARK    1  A    between atoms: C_4  and  N_34 
REMARK    2  A    between atoms: C_8  and  C_19 
REMARK       I    between atoms: C_8  and  N_34 
REMARK    3  A    between atoms: O_16  and  C_24 
REMARK    4  A    between atoms: C_21  and  O_29 
ROOT
HETATM    1  C   UNL     1       4.409   1.544  13.127  1.00  0.00    -0.006 C 
HETATM    2  O   UNL     1       8.440   3.399  15.365  1.00  0.00    -0.292 OA
HETATM    3  C   UNL     1       3.852   0.428  12.225  1.00  0.00     0.006 C 
HETATM    4  C   UNL     1       7.527   4.161  15.608  1.00  0.00     0.161 C 
HETATM    5  C   UNL     1       6.509   2.957  13.016  1.00  0.00     0.015 C 
HETATM    6  C   UNL     1       5.766   1.771  12.450  1.00  0.00    -0.005 C 
HETATM    7  C   UNL     1       7.002   6.640  15.539  1.00  0.00    -0.015 C 
HETATM    8  C   UNL     1       8.724   5.841  17.019  1.00  0.00     0.017 C 
HETATM    9  C   UNL     1       5.217   1.995  11.048  1.00  0.00    -0.010 C 
HETATM   10  C   UNL     1       6.355   5.389  13.385  1.00  0.00     0.046 C 
HETATM   11  C   UNL     1       6.083   3.755  15.347  1.00  0.00     0.093 C 
HETATM   12  C   UNL     1       7.535   7.873  17.509  1.00  0.00     0.033 C 
HETATM   13  C   UNL     1       5.785   4.028  13.848  1.00  0.00    -0.030 C 
HETATM   14  C   UNL     1       4.276   3.970  13.616  1.00  0.00     0.015 C 
HETATM   15  C   UNL     1       7.774   5.577  16.020  1.00  0.00     0.019 C 
HETATM   16  C   UNL     1       6.127   6.570  14.312  1.00  0.00     0.152 C 
HETATM   17  C   UNL     1       8.586   6.991  17.791  1.00  0.00     0.018 C 
HETATM   18  C   UNL     1       4.106   3.043  11.266  1.00  0.00     0.010 C 
HETATM   19  C   UNL     1       4.451   0.697  10.833  1.00  0.00     0.005 C 
HETATM   20  C   UNL     1       3.698   2.857  12.737  1.00  0.00    -0.009 C 
HETATM   21  C   UNL     1       7.025   7.861  16.219  1.00  0.00     0.027 C 
ENDROOT
BRANCH  12  22
HETATM   22  C   UNL     1       6.888   8.757  18.502  1.00  0.00     0.256 C 
HETATM   23  O   UNL     1       7.576   9.455  19.245  1.00  0.00    -0.267 OA
HETATM   24  N   UNL     1       5.527   8.775  18.582  1.00  0.00    -0.323 N 
ATOM     25  HN  UNL     1       5.120   9.699  18.442  1.00  0.00     0.169 HD
BRANCH  24  26
HETATM   26  C   UNL     1       4.582   7.771  18.817  1.00  0.00     0.037 C 
HETATM   27  C   UNL     1       3.259   8.101  19.089  1.00  0.00     0.066 C 
HETATM   28  C   UNL     1       2.302   7.097  19.148  1.00  0.00     0.067 C 
HETATM   29  C   UNL     1       2.634   5.785  18.782  1.00  0.00     0.036 C 
HETATM   30  C   UNL     1       3.957   5.458  18.532  1.00  0.00     0.005 C 
HETATM   31  C   UNL     1       4.938   6.438  18.670  1.00  0.00     0.029 C 
BRANCH  28  32
HETATM   32  O   UNL     1       1.076   7.322  19.677  1.00  0.00    -0.361 OA
ATOM     33  HO  UNL     1       0.932   8.007  20.319  1.00  0.00     0.217 HD
ENDBRANCH  28  32
ENDBRANCH  24  26
ENDBRANCH  12  22
BRANCH  16  34
HETATM   34  O   UNL     1       4.767   6.703  14.667  1.00  0.00    -0.391 OA
ATOM     35  HO  UNL     1       4.304   7.225  14.023  1.00  0.00     0.210 HD
ENDBRANCH  16  34
TORSDOF 4
ENDMDL
MODEL 3
REMARK VINA RESULT:      -9.6      1.585      2.091
REMARK  4 active torsions:
REMARK  status: ('A' for Active; 'I' for Inactive)
REMARK    1  A    between atoms: C_4  and  N_34 
REMARK    2  A    between atoms: C_8  and  C_19 
REMARK       I    between atoms: C_8  and  N_34 
REMARK    3  A    between atoms: O_16  and  C_24 
REMARK    4  A    between atoms: C_21  and  O_29 
ROOT
HETATM    1  C   UNL     1      -0.455   8.108  19.317  1.00  0.00    -0.006 C 
HETATM    2  O   UNL     1       4.028  10.069  20.189  1.00  0.00    -0.292 OA
HETATM    3  C   UNL     1      -1.926   8.043  19.764  1.00  0.00     0.006 C 
HETATM    4  C   UNL     1       4.160   9.301  19.259  1.00  0.00     0.161 C 
HETATM    5  C   UNL     1       1.733   8.066  20.595  1.00  0.00     0.015 C 
HETATM    6  C   UNL     1       0.230   8.165  20.689  1.00  0.00    -0.005 C 
HETATM    7  C   UNL     1       5.657   7.394  18.517  1.00  0.00    -0.015 C 
HETATM    8  C   UNL     1       6.599   9.593  18.795  1.00  0.00     0.017 C 
HETATM    9  C   UNL     1      -0.440   6.924  21.261  1.00  0.00    -0.010 C 
HETATM   10  C   UNL     1       3.569   6.622  19.808  1.00  0.00     0.046 C 
HETATM   11  C   UNL     1       2.946   8.755  18.519  1.00  0.00     0.093 C 
HETATM   12  C   UNL     1       7.599   8.016  17.280  1.00  0.00     0.033 C 
HETATM   13  C   UNL     1       2.418   7.537  19.325  1.00  0.00    -0.030 C 
HETATM   14  C   UNL     1       1.434   6.750  18.460  1.00  0.00     0.015 C 
HETATM   15  C   UNL     1       5.493   8.732  18.893  1.00  0.00     0.019 C 
HETATM   16  C   UNL     1       4.653   6.304  18.792  1.00  0.00     0.152 C 
HETATM   17  C   UNL     1       7.653   9.241  17.957  1.00  0.00     0.018 C 
HETATM   18  C   UNL     1      -0.219   5.863  20.162  1.00  0.00     0.010 C 
HETATM   19  C   UNL     1      -1.907   7.298  21.110  1.00  0.00     0.005 C 
HETATM   20  C   UNL     1      -0.039   6.688  18.877  1.00  0.00    -0.009 C 
HETATM   21  C   UNL     1       6.821   7.015  17.842  1.00  0.00     0.027 C 
ENDROOT
BRANCH  12  22
HETATM   22  C   UNL     1       8.252   7.742  15.982  1.00  0.00     0.256 C 
HETATM   23  O   UNL     1       9.049   8.551  15.511  1.00  0.00    -0.267 OA
HETATM   24  N   UNL     1       7.947   6.589  15.321  1.00  0.00    -0.323 N 
ATOM     25  HN  UNL     1       8.757   6.000  15.127  1.00  0.00     0.169 HD
BRANCH  24  26
HETATM   26  C   UNL     1       6.739   6.057  14.859  1.00  0.00     0.037 C 
HETATM   27  C   UNL     1       6.485   4.694  14.964  1.00  0.00     0.066 C 
HETATM   28  C   UNL     1       5.220   4.210  14.661  1.00  0.00     0.067 C 
HETATM   29  C   UNL     1       4.167   5.099  14.407  1.00  0.00     0.036 C 
HETATM   30  C   UNL     1       4.430   6.454  14.284  1.00  0.00     0.005 C 
HETATM   31  C   UNL     1       5.743   6.905  14.395  1.00  0.00     0.029 C 
BRANCH  28  32
HETATM   32  O   UNL     1       4.997   2.887  14.476  1.00  0.00    -0.361 OA
ATOM     33  HO  UNL     1       4.236   2.456  14.848  1.00  0.00     0.217 HD
ENDBRANCH  28  32
ENDBRANCH  24  26
ENDBRANCH  12  22
BRANCH  16  34
HETATM   34  O   UNL     1       4.111   5.814  17.584  1.00  0.00    -0.391 OA
ATOM     35  HO  UNL     1       3.448   6.407  17.251  1.00  0.00     0.210 HD
ENDBRANCH  16  34
TORSDOF 4
ENDMDL
MODEL 4
REMARK VINA RESULT:      -9.4      3.734      9.213
REMARK  4 active torsions:
REMARK  status: ('A' for Active; 'I' for Inactive)
REMARK    1  A    between atoms: C_4  and  N_34 
REMARK    2  A    between atoms: C_8  and  C_19 
REMARK       I    between atoms: C_8  and  N_34 
REMARK    3  A    between atoms: O_16  and  C_24 
REMARK    4  A    between atoms: C_21  and  O_29 
ROOT
HETATM    1  C   UNL     1       7.305   6.157  17.618  1.00  0.00    -0.006 C 
HETATM    2  O   UNL     1       3.928   8.881  20.042  1.00  0.00    -0.292 OA
HETATM    3  C   UNL     1       8.742   6.102  17.069  1.00  0.00     0.006 C 
HETATM    4  C   UNL     1       3.378   7.845  19.729  1.00  0.00     0.161 C 
HETATM    5  C   UNL     1       5.519   7.954  17.582  1.00  0.00     0.015 C 
HETATM    6  C   UNL     1       6.965   7.620  17.306  1.00  0.00    -0.005 C 
HETATM    7  C   UNL     1       1.245   7.042  18.619  1.00  0.00    -0.015 C 
HETATM    8  C   UNL     1       1.110   8.243  20.702  1.00  0.00     0.017 C 
HETATM    9  C   UNL     1       7.316   7.560  15.826  1.00  0.00    -0.010 C 
HETATM   10  C   UNL     1       3.205   7.351  16.981  1.00  0.00     0.046 C 
HETATM   11  C   UNL     1       4.187   6.648  19.248  1.00  0.00     0.093 C 
HETATM   12  C   UNL     1      -0.615   6.692  20.070  1.00  0.00     0.033 C 
HETATM   13  C   UNL     1       4.461   6.848  17.733  1.00  0.00    -0.030 C 
HETATM   14  C   UNL     1       4.956   5.533  17.132  1.00  0.00     0.015 C 
HETATM   15  C   UNL     1       1.890   7.739  19.647  1.00  0.00     0.019 C 
HETATM   16  C   UNL     1       1.895   6.659  17.313  1.00  0.00     0.152 C 
HETATM   17  C   UNL     1      -0.147   7.693  20.932  1.00  0.00     0.018 C 
HETATM   18  C   UNL     1       6.559   6.310  15.332  1.00  0.00     0.010 C 
HETATM   19  C   UNL     1       8.765   7.099  15.897  1.00  0.00     0.005 C 
HETATM   20  C   UNL     1       6.389   5.451  16.596  1.00  0.00    -0.009 C 
HETATM   21  C   UNL     1      -0.090   6.663  18.786  1.00  0.00     0.027 C 
ENDROOT
BRANCH  12  22
HETATM   22  C   UNL     1      -1.569   5.629  20.454  1.00  0.00     0.256 C 
HETATM   23  O   UNL     1      -2.013   4.864  19.599  1.00  0.00    -0.267 OA
HETATM   24  N   UNL     1      -1.946   5.522  21.759  1.00  0.00    -0.323 N 
ATOM     25  HN  UNL     1      -1.751   4.608  22.169  1.00  0.00     0.169 HD
BRANCH  24  26
HETATM   26  C   UNL     1      -2.550   6.421  22.644  1.00  0.00     0.037 C 
HETATM   27  C   UNL     1      -2.102   6.524  23.956  1.00  0.00     0.066 C 
HETATM   28  C   UNL     1      -2.591   7.538  24.768  1.00  0.00     0.067 C 
HETATM   29  C   UNL     1      -3.406   8.542  24.228  1.00  0.00     0.036 C 
HETATM   30  C   UNL     1      -3.866   8.423  22.926  1.00  0.00     0.005 C 
HETATM   31  C   UNL     1      -3.525   7.295  22.184  1.00  0.00     0.029 C 
BRANCH  28  32
HETATM   32  O   UNL     1      -2.408   7.516  26.110  1.00  0.00    -0.361 OA
ATOM     33  HO  UNL     1      -2.972   7.005  26.678  1.00  0.00     0.217 HD
ENDBRANCH  28  32
ENDBRANCH  24  26
ENDBRANCH  12  22
BRANCH  16  34
HETATM   34  O   UNL     1       2.001   5.255  17.207  1.00  0.00    -0.391 OA
ATOM     35  HO  UNL     1       1.401   4.925  16.548  1.00  0.00     0.210 HD
ENDBRANCH  16  34
TORSDOF 4
ENDMDL
MODEL 5
REMARK VINA RESULT:      -9.3      2.768      7.497
REMARK  4 active torsions:
REMARK  status: ('A' for Active; 'I' for Inactive)
REMARK    1  A    between atoms: C_4  and  N_34 
REMARK    2  A    between atoms: C_8  and  C_19 
REMARK       I    between atoms: C_8  and  N_34 
REMARK    3  A    between atoms: O_16  and  C_24 
REMARK    4  A    between atoms: C_21  and  O_29 
ROOT
HETATM    1  C   UNL     1       3.744   2.244  12.439  1.00  0.00    -0.006 C 
HETATM    2  O   UNL     1       4.272   2.737  17.355  1.00  0.00    -0.292 OA
HETATM    3  C   UNL     1       3.806   1.280  11.240  1.00  0.00     0.006 C 
HETATM    4  C   UNL     1       4.021   3.842  16.922  1.00  0.00     0.161 C 
HETATM    5  C   UNL     1       5.250   2.591  14.446  1.00  0.00     0.015 C 
HETATM    6  C   UNL     1       4.934   1.722  13.253  1.00  0.00    -0.005 C 
HETATM    7  C   UNL     1       4.882   6.222  17.063  1.00  0.00    -0.015 C 
HETATM    8  C   UNL     1       4.027   5.158  19.047  1.00  0.00     0.017 C 
HETATM    9  C   UNL     1       5.957   1.814  12.130  1.00  0.00    -0.010 C 
HETATM   10  C   UNL     1       5.881   4.880  15.108  1.00  0.00     0.046 C 
HETATM   11  C   UNL     1       3.493   4.021  15.504  1.00  0.00     0.093 C 
HETATM   12  C   UNL     1       3.981   7.552  18.826  1.00  0.00     0.033 C 
HETATM   13  C   UNL     1       4.716   4.029  14.548  1.00  0.00    -0.030 C 
HETATM   14  C   UNL     1       4.281   4.548  13.178  1.00  0.00     0.015 C 
HETATM   15  C   UNL     1       4.360   5.082  17.684  1.00  0.00     0.019 C 
HETATM   16  C   UNL     1       5.511   6.232  15.692  1.00  0.00     0.152 C 
HETATM   17  C   UNL     1       3.808   6.409  19.617  1.00  0.00     0.018 C 
HETATM   18  C   UNL     1       5.764   3.246  11.591  1.00  0.00     0.010 C 
HETATM   19  C   UNL     1       5.297   0.940  11.073  1.00  0.00     0.005 C 
HETATM   20  C   UNL     1       4.318   3.600  11.976  1.00  0.00    -0.009 C 
HETATM   21  C   UNL     1       4.832   7.447  17.735  1.00  0.00     0.027 C 
ENDROOT
BRANCH  12  22
HETATM   22  C   UNL     1       3.269   8.832  19.029  1.00  0.00     0.256 C 
HETATM   23  O   UNL     1       3.900   9.848  19.313  1.00  0.00    -0.267 OA
HETATM   24  N   UNL     1       1.912   8.859  18.905  1.00  0.00    -0.323 N 
ATOM     25  HN  UNL     1       1.577   9.520  18.204  1.00  0.00     0.169 HD
BRANCH  24  26
HETATM   26  C   UNL     1       0.890   8.156  19.552  1.00  0.00     0.037 C 
HETATM   27  C   UNL     1       0.443   8.559  20.804  1.00  0.00     0.066 C 
HETATM   28  C   UNL     1      -0.682   7.961  21.354  1.00  0.00     0.067 C 
HETATM   29  C   UNL     1      -1.453   7.074  20.590  1.00  0.00     0.036 C 
HETATM   30  C   UNL     1      -0.992   6.660  19.351  1.00  0.00     0.005 C 
HETATM   31  C   UNL     1       0.242   7.119  18.895  1.00  0.00     0.029 C 
BRANCH  28  32
HETATM   32  O   UNL     1      -0.992   8.111  22.664  1.00  0.00    -0.361 OA
ATOM     33  HO  UNL     1      -1.821   7.804  23.015  1.00  0.00     0.217 HD
ENDBRANCH  28  32
ENDBRANCH  24  26
ENDBRANCH  12  22
BRANCH  16  34
HETATM   34  O   UNL     1       4.732   6.996  14.797  1.00  0.00    -0.391 OA
ATOM     35  HO  UNL     1       4.140   7.567  15.273  1.00  0.00     0.210 HD
ENDBRANCH  16  34
TORSDOF 4
ENDMDL
MODEL 6
REMARK VINA RESULT:      -9.3      3.418      8.443
REMARK  4 active torsions:
REMARK  status: ('A' for Active; 'I' for Inactive)
REMARK    1  A    between atoms: C_4  and  N_34 
REMARK    2  A    between atoms: C_8  and  C_19 
REMARK       I    between atoms: C_8  and  N_34 
REMARK    3  A    between atoms: O_16  and  C_24 
REMARK    4  A    between atoms: C_21  and  O_29 
ROOT
HETATM    1  C   UNL     1       7.280   7.539  15.669  1.00  0.00    -0.006 C 
HETATM    2  O   UNL     1       4.783   4.277  12.873  1.00  0.00    -0.292 OA
HETATM    3  C   UNL     1       8.470   8.515  15.735  1.00  0.00     0.006 C 
HETATM    4  C   UNL     1       4.250   4.278  13.964  1.00  0.00     0.161 C 
HETATM    5  C   UNL     1       7.034   5.189  14.757  1.00  0.00     0.015 C 
HETATM    6  C   UNL     1       7.919   6.407  14.855  1.00  0.00    -0.005 C 
HETATM    7  C   UNL     1       3.462   2.648  15.738  1.00  0.00    -0.015 C 
HETATM    8  C   UNL     1       2.430   2.612  13.562  1.00  0.00     0.017 C 
HETATM    9  C   UNL     1       9.133   6.221  15.754  1.00  0.00    -0.010 C 
HETATM   10  C   UNL     1       5.869   3.482  16.101  1.00  0.00     0.046 C 
HETATM   11  C   UNL     1       4.549   5.376  14.976  1.00  0.00     0.093 C 
HETATM   12  C   UNL     1       1.227   1.851  15.500  1.00  0.00     0.033 C 
HETATM   13  C   UNL     1       5.854   4.981  15.720  1.00  0.00    -0.030 C 
HETATM   14  C   UNL     1       6.006   5.854  16.965  1.00  0.00     0.015 C 
HETATM   15  C   UNL     1       3.406   3.135  14.427  1.00  0.00     0.019 C 
HETATM   16  C   UNL     1       4.591   2.922  16.700  1.00  0.00     0.152 C 
HETATM   17  C   UNL     1       1.313   1.986  14.109  1.00  0.00     0.018 C 
HETATM   18  C   UNL     1       8.517   6.111  17.164  1.00  0.00     0.010 C 
HETATM   19  C   UNL     1       9.723   7.623  15.727  1.00  0.00     0.005 C 
HETATM   20  C   UNL     1       7.172   6.845  17.043  1.00  0.00    -0.009 C 
HETATM   21  C   UNL     1       2.417   1.851  16.213  1.00  0.00     0.027 C 
ENDROOT
BRANCH  12  22
HETATM   22  C   UNL     1      -0.038   1.782  16.262  1.00  0.00     0.256 C 
HETATM   23  O   UNL     1      -0.856   0.898  16.016  1.00  0.00    -0.267 OA
HETATM   24  N   UNL     1      -0.279   2.714  17.227  1.00  0.00    -0.323 N 
ATOM     25  HN  UNL     1      -0.445   2.316  18.151  1.00  0.00     0.169 HD
BRANCH  24  26
HETATM   26  C   UNL     1      -0.342   4.111  17.195  1.00  0.00     0.037 C 
HETATM   27  C   UNL     1      -1.533   4.755  16.882  1.00  0.00     0.066 C 
HETATM   28  C   UNL     1      -1.625   6.132  17.024  1.00  0.00     0.067 C 
HETATM   29  C   UNL     1      -0.582   6.849  17.627  1.00  0.00     0.036 C 
HETATM   30  C   UNL     1       0.611   6.207  17.918  1.00  0.00     0.005 C 
HETATM   31  C   UNL     1       0.758   4.862  17.587  1.00  0.00     0.029 C 
BRANCH  28  32
HETATM   32  O   UNL     1      -2.647   6.832  16.477  1.00  0.00    -0.361 OA
ATOM     33  HO  UNL     1      -3.517   6.817  16.858  1.00  0.00     0.217 HD
ENDBRANCH  28  32
ENDBRANCH  24  26
ENDBRANCH  12  22
BRANCH  16  34
HETATM   34  O   UNL     1       4.135   3.700  17.787  1.00  0.00    -0.391 OA
ATOM     35  HO  UNL     1       3.704   3.151  18.432  1.00  0.00     0.210 HD
ENDBRANCH  16  34
TORSDOF 4
ENDMDL
MODEL 7
REMARK VINA RESULT:      -9.3      3.012      7.366
REMARK  4 active torsions:
REMARK  status: ('A' for Active; 'I' for Inactive)
REMARK    1  A    between atoms: C_4  and  N_34 
REMARK    2  A    between atoms: C_8  and  C_19 
REMARK       I    between atoms: C_8  and  N_34 
REMARK    3  A    between atoms: O_16  and  C_24 
REMARK    4  A    between atoms: C_21  and  O_29 
ROOT
HETATM    1  C   UNL     1       3.506   2.158  11.503  1.00  0.00    -0.006 C 
HETATM    2  O   UNL     1       3.626   1.997  16.468  1.00  0.00    -0.292 OA
HETATM    3  C   UNL     1       3.458   1.336  10.201  1.00  0.00     0.006 C 
HETATM    4  C   UNL     1       3.695   3.168  16.158  1.00  0.00     0.161 C 
HETATM    5  C   UNL     1       4.836   1.908  13.645  1.00  0.00     0.015 C 
HETATM    6  C   UNL     1       4.445   1.273  12.332  1.00  0.00    -0.005 C 
HETATM    7  C   UNL     1       5.084   5.228  16.659  1.00  0.00    -0.015 C 
HETATM    8  C   UNL     1       3.798   4.216  18.425  1.00  0.00     0.017 C 
HETATM    9  C   UNL     1       5.570   1.220  11.309  1.00  0.00    -0.010 C 
HETATM   10  C   UNL     1       5.927   3.885  14.632  1.00  0.00     0.046 C 
HETATM   11  C   UNL     1       3.375   3.618  14.738  1.00  0.00     0.093 C 
HETATM   12  C   UNL     1       4.353   6.554  18.501  1.00  0.00     0.033 C 
HETATM   13  C   UNL     1       4.656   3.416  13.885  1.00  0.00    -0.030 C 
HETATM   14  C   UNL     1       4.503   4.165  12.562  1.00  0.00     0.015 C 
HETATM   15  C   UNL     1       4.242   4.198  17.092  1.00  0.00     0.019 C 
HETATM   16  C   UNL     1       5.835   5.220  15.351  1.00  0.00     0.152 C 
HETATM   17  C   UNL     1       3.829   5.417  19.128  1.00  0.00     0.018 C 
HETATM   18  C   UNL     1       5.784   2.702  10.940  1.00  0.00     0.010 C 
HETATM   19  C   UNL     1       4.832   0.652  10.105  1.00  0.00     0.005 C 
HETATM   20  C   UNL     1       4.434   3.366  11.256  1.00  0.00    -0.009 C 
HETATM   21  C   UNL     1       5.261   6.351  17.473  1.00  0.00     0.027 C 
ENDROOT
BRANCH  12  22
HETATM   22  C   UNL     1       3.953   7.944  18.808  1.00  0.00     0.256 C 
HETATM   23  O   UNL     1       4.723   8.686  19.415  1.00  0.00    -0.267 OA
HETATM   24  N   UNL     1       2.721   8.378  18.416  1.00  0.00    -0.323 N 
ATOM     25  HN  UNL     1       2.749   9.198  17.810  1.00  0.00     0.169 HD
BRANCH  24  26
HETATM   26  C   UNL     1       1.428   7.917  18.685  1.00  0.00     0.037 C 
HETATM   27  C   UNL     1       0.684   7.292  17.691  1.00  0.00     0.066 C 
HETATM   28  C   UNL     1      -0.522   6.688  18.017  1.00  0.00     0.067 C 
HETATM   29  C   UNL     1      -0.911   6.571  19.359  1.00  0.00     0.036 C 
HETATM   30  C   UNL     1      -0.177   7.213  20.343  1.00  0.00     0.005 C 
HETATM   31  C   UNL     1       0.926   7.982  19.977  1.00  0.00     0.029 C 
BRANCH  28  32
HETATM   32  O   UNL     1      -1.407   6.318  17.061  1.00  0.00    -0.361 OA
ATOM     33  HO  UNL     1      -1.118   6.036  16.201  1.00  0.00     0.217 HD
ENDBRANCH  28  32
ENDBRANCH  24  26
ENDBRANCH  12  22
BRANCH  16  34
HETATM   34  O   UNL     1       5.359   6.243  14.502  1.00  0.00    -0.391 OA
ATOM     35  HO  UNL     1       4.414   6.314  14.564  1.00  0.00     0.210 HD
ENDBRANCH  16  34
TORSDOF 4
ENDMDL
MODEL 8
REMARK VINA RESULT:      -9.2      2.747      7.593
REMARK  4 active torsions:
REMARK  status: ('A' for Active; 'I' for Inactive)
REMARK    1  A    between atoms: C_4  and  N_34 
REMARK    2  A    between atoms: C_8  and  C_19 
REMARK       I    between atoms: C_8  and  N_34 
REMARK    3  A    between atoms: O_16  and  C_24 
REMARK    4  A    between atoms: C_21  and  O_29 
ROOT
HETATM    1  C   UNL     1       6.842   3.885  16.135  1.00  0.00    -0.006 C 
HETATM    2  O   UNL     1       5.353   7.659  19.005  1.00  0.00    -0.292 OA
HETATM    3  C   UNL     1       8.025   3.238  15.393  1.00  0.00     0.006 C 
HETATM    4  C   UNL     1       4.366   6.993  18.769  1.00  0.00     0.161 C 
HETATM    5  C   UNL     1       6.052   6.283  16.348  1.00  0.00     0.015 C 
HETATM    6  C   UNL     1       7.152   5.365  15.875  1.00  0.00    -0.005 C 
HETATM    7  C   UNL     1       1.981   7.282  17.962  1.00  0.00    -0.015 C 
HETATM    8  C   UNL     1       2.650   8.287  20.045  1.00  0.00     0.017 C 
HETATM    9  C   UNL     1       7.256   5.249  14.361  1.00  0.00    -0.010 C 
HETATM   10  C   UNL     1       3.657   6.799  16.070  1.00  0.00     0.046 C 
HETATM   11  C   UNL     1       4.493   5.595  18.179  1.00  0.00     0.093 C 
HETATM   12  C   UNL     1       0.352   7.696  19.653  1.00  0.00     0.033 C 
HETATM   13  C   UNL     1       4.640   5.749  16.641  1.00  0.00    -0.030 C 
HETATM   14  C   UNL     1       4.421   4.391  15.976  1.00  0.00     0.015 C 
HETATM   15  C   UNL     1       2.988   7.559  18.892  1.00  0.00     0.019 C 
HETATM   16  C   UNL     1       2.227   6.735  16.578  1.00  0.00     0.152 C 
HETATM   17  C   UNL     1       1.317   8.333  20.444  1.00  0.00     0.018 C 
HETATM   18  C   UNL     1       5.968   4.493  13.974  1.00  0.00     0.010 C 
HETATM   19  C   UNL     1       8.346   4.194  14.232  1.00  0.00     0.005 C 
HETATM   20  C   UNL     1       5.590   3.720  15.248  1.00  0.00    -0.009 C 
HETATM   21  C   UNL     1       0.648   7.520  18.310  1.00  0.00     0.027 C 
ENDROOT
BRANCH  12  22
HETATM   22  C   UNL     1      -0.920   7.140  20.163  1.00  0.00     0.256 C 
HETATM   23  O   UNL     1      -1.129   7.091  21.373  1.00  0.00    -0.267 OA
HETATM   24  N   UNL     1      -1.842   6.680  19.270  1.00  0.00    -0.323 N 
ATOM     25  HN  UNL     1      -2.752   7.136  19.348  1.00  0.00     0.169 HD
BRANCH  24  26
HETATM   26  C   UNL     1      -1.783   5.704  18.270  1.00  0.00     0.037 C 
HETATM   27  C   UNL     1      -1.235   4.455  18.537  1.00  0.00     0.066 C 
HETATM   28  C   UNL     1      -1.341   3.445  17.591  1.00  0.00     0.067 C 
HETATM   29  C   UNL     1      -2.129   3.632  16.447  1.00  0.00     0.036 C 
HETATM   30  C   UNL     1      -2.656   4.884  16.176  1.00  0.00     0.005 C 
HETATM   31  C   UNL     1      -2.376   5.942  17.037  1.00  0.00     0.029 C 
BRANCH  28  32
HETATM   32  O   UNL     1      -0.595   2.318  17.676  1.00  0.00    -0.361 OA
ATOM     33  HO  UNL     1      -0.300   1.981  18.514  1.00  0.00     0.217 HD
ENDBRANCH  28  32
ENDBRANCH  24  26
ENDBRANCH  12  22
BRANCH  16  34
HETATM   34  O   UNL     1       1.684   5.438  16.455  1.00  0.00    -0.391 OA
ATOM     35  HO  UNL     1       0.898   5.354  16.982  1.00  0.00     0.210 HD
ENDBRANCH  16  34
TORSDOF 4
ENDMDL
MODEL 9
REMARK VINA RESULT:      -9.2      3.182      6.614
REMARK  4 active torsions:
REMARK  status: ('A' for Active; 'I' for Inactive)
REMARK    1  A    between atoms: C_4  and  N_34 
REMARK    2  A    between atoms: C_8  and  C_19 
REMARK       I    between atoms: C_8  and  N_34 
REMARK    3  A    between atoms: O_16  and  C_24 
REMARK    4  A    between atoms: C_21  and  O_29 
ROOT
HETATM    1  C   UNL     1       2.372   1.473  13.060  1.00  0.00    -0.006 C 
HETATM    2  O   UNL     1       6.860   1.956  15.138  1.00  0.00    -0.292 OA
HETATM    3  C   UNL     1       1.343   0.498  12.460  1.00  0.00     0.006 C 
HETATM    4  C   UNL     1       6.404   3.076  15.035  1.00  0.00     0.161 C 
HETATM    5  C   UNL     1       4.882   1.699  12.801  1.00  0.00     0.015 C 
HETATM    6  C   UNL     1       3.665   0.853  12.517  1.00  0.00    -0.005 C 
HETATM    7  C   UNL     1       7.069   5.370  14.185  1.00  0.00    -0.015 C 
HETATM    8  C   UNL     1       8.272   4.403  16.033  1.00  0.00     0.017 C 
HETATM    9  C   UNL     1       3.243   0.843  11.055  1.00  0.00    -0.010 C 
HETATM   10  C   UNL     1       5.867   3.927  12.425  1.00  0.00     0.046 C 
HETATM   11  C   UNL     1       4.927   3.290  14.729  1.00  0.00     0.093 C 
HETATM   12  C   UNL     1       8.156   6.789  15.762  1.00  0.00     0.033 C 
HETATM   13  C   UNL     1       4.749   3.180  13.191  1.00  0.00    -0.030 C 
HETATM   14  C   UNL     1       3.375   3.725  12.803  1.00  0.00     0.015 C 
HETATM   15  C   UNL     1       7.281   4.286  15.045  1.00  0.00     0.019 C 
HETATM   16  C   UNL     1       6.227   5.312  12.935  1.00  0.00     0.152 C 
HETATM   17  C   UNL     1       8.695   5.673  16.415  1.00  0.00     0.018 C 
HETATM   18  C   UNL     1       2.740   2.282  10.821  1.00  0.00     0.010 C 
HETATM   19  C   UNL     1       1.963   0.023  11.134  1.00  0.00     0.005 C 
HETATM   20  C   UNL     1       2.330   2.768  12.221  1.00  0.00    -0.009 C 
HETATM   21  C   UNL     1       7.665   6.599  14.479  1.00  0.00     0.027 C 
ENDROOT
BRANCH  12  22
HETATM   22  C   UNL     1       8.011   8.130  16.369  1.00  0.00     0.256 C 
HETATM   23  O   UNL     1       8.970   8.898  16.400  1.00  0.00    -0.267 OA
HETATM   24  N   UNL     1       6.806   8.488  16.895  1.00  0.00    -0.323 N 
ATOM     25  HN  UNL     1       6.413   9.335  16.483  1.00  0.00     0.169 HD
BRANCH  24  26
HETATM   26  C   UNL     1       6.003   7.920  17.891  1.00  0.00     0.037 C 
HETATM   27  C   UNL     1       5.431   8.719  18.874  1.00  0.00     0.066 C 
HETATM   28  C   UNL     1       4.503   8.169  19.746  1.00  0.00     0.067 C 
HETATM   29  C   UNL     1       4.027   6.867  19.541  1.00  0.00     0.036 C 
HETATM   30  C   UNL     1       4.614   6.069  18.572  1.00  0.00     0.005 C 
HETATM   31  C   UNL     1       5.683   6.570  17.834  1.00  0.00     0.029 C 
BRANCH  28  32
HETATM   32  O   UNL     1       4.132   8.813  20.879  1.00  0.00    -0.361 OA
ATOM     33  HO  UNL     1       4.414   8.512  21.735  1.00  0.00     0.217 HD
ENDBRANCH  28  32
ENDBRANCH  24  26
ENDBRANCH  12  22
BRANCH  16  34
HETATM   34  O   UNL     1       5.088   6.135  13.067  1.00  0.00    -0.391 OA
ATOM     35  HO  UNL     1       5.302   6.924  13.552  1.00  0.00     0.210 HD
ENDBRANCH  16  34
TORSDOF 4
ENDMDL
