REMARK  4 active torsions:
REMARK  status: ('A' for Active; 'I' for Inactive)
REMARK    1  A    between atoms: N_1  and  C_21 
REMARK    2  A    between atoms: N_1  and  C_23 
REMARK    3  A    between atoms: CA_4  and  C_30 
REMARK    4  A    between atoms: O_8  and  C_20 
ROOT
HETATM    1  CA  UNL     1      27.041  13.264  23.536  1.00  0.00     0.110 C 
HETATM    2  N   UNL     1      27.950  14.255  23.430  1.00  0.00    -0.347 N 
ATOM      3  HN  UNL     1      28.637  14.227  22.677  1.00  0.00     0.166 HD
HETATM    4  C   UNL     1      27.170  14.545  26.445  1.00  0.00     0.032 C 
HETATM    5  N   UNL     1      29.001  16.175  26.005  1.00  0.00    -0.338 N 
ATOM      6  HN  UNL     1      29.418  16.338  26.921  1.00  0.00     0.167 HD
HETATM    7  C   UNL     1      26.292  13.068  24.669  1.00  0.00     0.037 C 
HETATM    8  C   UNL     1      27.965  15.280  24.301  1.00  0.00     0.097 C 
HETATM    9  C   UNL     1      28.126  16.614  24.038  1.00  0.00     0.139 C 
HETATM   10  C   UNL     1      29.184  16.930  24.888  1.00  0.00     0.143 C 
HETATM   11  C   UNL     1      26.343  13.576  25.929  1.00  0.00     0.005 C 
HETATM   12  C   UNL     1      28.151  15.154  25.669  1.00  0.00     0.063 C 
ENDROOT
BRANCH  10  13
HETATM   13  N   UNL     1      30.389  17.450  24.482  1.00  0.00    -0.330 N 
ATOM     14  HN  UNL     1      30.690  18.301  24.958  1.00  0.00     0.168 HD
BRANCH  13  15
HETATM   15  C   UNL     1      31.218  16.983  23.542  1.00  0.00     0.079 C 
HETATM   16  C   UNL     1      30.802  15.986  22.509  1.00  0.00     0.078 C 
HETATM   17  C   UNL     1      31.958  16.088  21.527  1.00  0.00     0.039 C 
HETATM   18  C   UNL     1      32.781  17.307  21.893  1.00  0.00     0.040 C 
HETATM   19  C   UNL     1      32.426  18.508  21.076  1.00  0.00     0.058 C 
HETATM   20  C   UNL     1      34.276  17.060  21.765  1.00  0.00     0.087 C 
HETATM   21  N   UNL     1      32.408  17.555  23.282  1.00  0.00    -0.370 N 
HETATM   22  C   UNL     1      32.945  18.517  19.733  1.00  0.00    -0.022 C 
HETATM   23  C   UNL     1      34.034  17.735  19.403  1.00  0.00     0.020 C 
HETATM   24  C   UNL     1      34.686  16.973  20.349  1.00  0.00     0.004 C 
HETATM   25  N   UNL     1      35.684  16.133  20.029  1.00  0.00    -0.402 N 
ATOM     26  HN2 UNL     1      36.166  15.569  20.729  1.00  0.00     0.156 HD
ATOM     27  HN1 UNL     1      35.967  16.073  19.051  1.00  0.00     0.156 HD
ATOM     28  HN  UNL     1      32.965  18.082  23.954  1.00  0.00     0.161 HD
ENDBRANCH  13  15
ENDBRANCH  10  13
BRANCH   9  29
HETATM   29  O   UNL     1      27.137  17.424  23.523  1.00  0.00    -0.355 OA
ATOM     30  HO  UNL     1      27.249  18.350  23.341  1.00  0.00     0.218 HD
ENDBRANCH   9  29
BRANCH   1  31
HETATM   31  C   UNL     1      27.025  12.271  22.483  1.00  0.00     0.226 C 
HETATM   32  O   UNL     1      27.013  11.067  22.757  1.00  0.00    -0.643 OA
HETATM   33  OXT UNL     1      26.927  12.631  21.310  1.00  0.00    -0.643 OA
ENDBRANCH   1  31
TORSDOF 4
