MODEL 1
REMARK VINA RESULT:      -7.4      0.000      0.000
REMARK  7 active torsions:
REMARK  status: ('A' for Active; 'I' for Inactive)
REMARK    1  A    between atoms: O_3  and  C_20 
REMARK    2  A    between atoms: C_5  and  O_10 
REMARK    3  A    between atoms: C_6  and  C_13 
REMARK    4  A    between atoms: C_6  and  C_14 
REMARK    5  A    between atoms: C_6  and  N_22 
REMARK    6  A    between atoms: O_8  and  C_19 
REMARK    7  A    between atoms: C_15  and  O_16 
ROOT
HETATM    1  C   UNL     1      52.036 -21.285 -40.795  1.00  0.00     0.022 C 
ENDROOT
BRANCH   1   2
HETATM    2  C   UNL     1      52.340 -20.688 -39.457  1.00  0.00     0.070 C 
HETATM    3  C   UNL     1      51.345 -19.647 -38.983  1.00  0.00     0.159 C 
HETATM    4  C   UNL     1      52.042 -19.014 -37.779  1.00  0.00     0.176 C 
HETATM    5  C   UNL     1      53.496 -19.429 -37.818  1.00  0.00     0.150 C 
HETATM    6  C   UNL     1      53.716 -20.171 -39.130  1.00  0.00     0.048 C 
BRANCH   3   7
HETATM    7  O   UNL     1      50.151 -20.327 -38.589  1.00  0.00    -0.392 OA
ATOM      8  HO  UNL     1      50.392 -21.000 -37.962  1.00  0.00     0.210 HD
ENDBRANCH   3   7
BRANCH   4   9
HETATM    9  O   UNL     1      51.869 -17.607 -37.846  1.00  0.00    -0.390 OA
ATOM     10  HO  UNL     1      51.104 -17.373 -37.334  1.00  0.00     0.210 HD
ENDBRANCH   4   9
BRANCH   5  11
HETATM   11  O   UNL     1      54.391 -18.329 -37.730  1.00  0.00    -0.393 OA
ATOM     12  HO  UNL     1      54.349 -17.882 -36.892  1.00  0.00     0.210 HD
ENDBRANCH   5  11
ENDBRANCH   1   2
BRANCH   1  13
HETATM   13  C   UNL     1      52.790 -20.912 -42.010  1.00  0.00     0.022 C 
HETATM   14  C   UNL     1      54.176 -20.962 -42.045  1.00  0.00     0.058 C 
HETATM   15  C   UNL     1      54.853 -20.092 -42.888  1.00  0.00     0.117 C 
HETATM   16  F   UNL     1      56.187 -20.030 -42.812  1.00  0.00    -0.206 F 
HETATM   17  C   UNL     1      54.173 -19.270 -43.771  1.00  0.00     0.045 C 
HETATM   18  C   UNL     1      52.816 -19.477 -43.954  1.00  0.00     0.040 C 
HETATM   19  C   UNL     1      52.154 -20.395 -43.142  1.00  0.00     0.078 C 
BRANCH  19  20
HETATM   20  O   UNL     1      50.886 -20.798 -43.446  1.00  0.00    -0.360 OA
ATOM     21  HO  UNL     1      50.150 -20.212 -43.310  1.00  0.00     0.217 HD
ENDBRANCH  19  20
ENDBRANCH   1  13
BRANCH   1  22
HETATM   22  N   UNL     1      51.313 -22.444 -40.841  1.00  0.00    -0.401 N 
ATOM     23  HN2 UNL     1      51.237 -22.909 -41.745  1.00  0.00     0.156 HD
ATOM     24  HN1 UNL     1      51.114 -22.927 -39.964  1.00  0.00     0.156 HD
ENDBRANCH   1  22
TORSDOF 7
ENDMDL
MODEL 2
REMARK VINA RESULT:      -7.3      2.521      3.296
REMARK  7 active torsions:
REMARK  status: ('A' for Active; 'I' for Inactive)
REMARK    1  A    between atoms: O_3  and  C_20 
REMARK    2  A    between atoms: C_5  and  O_10 
REMARK    3  A    between atoms: C_6  and  C_13 
REMARK    4  A    between atoms: C_6  and  C_14 
REMARK    5  A    between atoms: C_6  and  N_22 
REMARK    6  A    between atoms: O_8  and  C_19 
REMARK    7  A    between atoms: C_15  and  O_16 
ROOT
HETATM    1  C   UNL     1      52.015 -21.499 -41.727  1.00  0.00     0.022 C 
ENDROOT
BRANCH   1   2
HETATM    2  C   UNL     1      52.234 -20.648 -40.515  1.00  0.00     0.070 C 
HETATM    3  C   UNL     1      53.653 -20.654 -39.981  1.00  0.00     0.159 C 
HETATM    4  C   UNL     1      53.520 -19.971 -38.621  1.00  0.00     0.176 C 
HETATM    5  C   UNL     1      52.050 -19.930 -38.267  1.00  0.00     0.150 C 
HETATM    6  C   UNL     1      51.311 -20.732 -39.329  1.00  0.00     0.048 C 
BRANCH   3   7
HETATM    7  O   UNL     1      54.460 -19.878 -40.871  1.00  0.00    -0.392 OA
ATOM      8  HO  UNL     1      54.762 -20.451 -41.566  1.00  0.00     0.210 HD
ENDBRANCH   3   7
BRANCH   4   9
HETATM    9  O   UNL     1      54.295 -20.695 -37.677  1.00  0.00    -0.390 OA
ATOM     10  HO  UNL     1      53.920 -20.560 -36.813  1.00  0.00     0.210 HD
ENDBRANCH   4   9
BRANCH   5  11
HETATM   11  O   UNL     1      51.774 -20.462 -36.980  1.00  0.00    -0.393 OA
ATOM     12  HO  UNL     1      52.157 -19.951 -36.276  1.00  0.00     0.210 HD
ENDBRANCH   5  11
ENDBRANCH   1   2
BRANCH   1  13
HETATM   13  C   UNL     1      52.018 -20.934 -43.093  1.00  0.00     0.022 C 
HETATM   14  C   UNL     1      50.898 -20.305 -43.618  1.00  0.00     0.058 C 
HETATM   15  C   UNL     1      50.700 -20.334 -44.991  1.00  0.00     0.117 C 
HETATM   16  F   UNL     1      49.549 -19.865 -45.485  1.00  0.00    -0.206 F 
HETATM   17  C   UNL     1      51.650 -20.869 -45.844  1.00  0.00     0.045 C 
HETATM   18  C   UNL     1      52.897 -21.185 -45.330  1.00  0.00     0.040 C 
HETATM   19  C   UNL     1      53.105 -21.097 -43.956  1.00  0.00     0.078 C 
BRANCH  19  20
HETATM   20  O   UNL     1      54.368 -21.168 -43.442  1.00  0.00    -0.360 OA
ATOM     21  HO  UNL     1      54.503 -21.379 -42.526  1.00  0.00     0.217 HD
ENDBRANCH  19  20
ENDBRANCH   1  13
BRANCH   1  22
HETATM   22  N   UNL     1      52.181 -22.851 -41.611  1.00  0.00    -0.401 N 
ATOM     23  HN2 UNL     1      52.775 -23.307 -42.302  1.00  0.00     0.156 HD
ATOM     24  HN1 UNL     1      51.941 -23.295 -40.724  1.00  0.00     0.156 HD
ENDBRANCH   1  22
TORSDOF 7
ENDMDL
MODEL 3
REMARK VINA RESULT:      -7.1      1.819      2.642
REMARK  7 active torsions:
REMARK  status: ('A' for Active; 'I' for Inactive)
REMARK    1  A    between atoms: O_3  and  C_20 
REMARK    2  A    between atoms: C_5  and  O_10 
REMARK    3  A    between atoms: C_6  and  C_13 
REMARK    4  A    between atoms: C_6  and  C_14 
REMARK    5  A    between atoms: C_6  and  N_22 
REMARK    6  A    between atoms: O_8  and  C_19 
REMARK    7  A    between atoms: C_15  and  O_16 
ROOT
HETATM    1  C   UNL     1      51.927 -20.905 -42.050  1.00  0.00     0.022 C 
ENDROOT
BRANCH   1   2
HETATM    2  C   UNL     1      52.297 -20.268 -40.748  1.00  0.00     0.070 C 
HETATM    3  C   UNL     1      53.670 -20.641 -40.224  1.00  0.00     0.159 C 
HETATM    4  C   UNL     1      53.657 -20.108 -38.792  1.00  0.00     0.176 C 
HETATM    5  C   UNL     1      52.223 -19.792 -38.430  1.00  0.00     0.150 C 
HETATM    6  C   UNL     1      51.352 -20.287 -39.576  1.00  0.00     0.048 C 
BRANCH   3   7
HETATM    7  O   UNL     1      54.644 -19.960 -41.019  1.00  0.00    -0.392 OA
ATOM      8  HO  UNL     1      54.535 -19.027 -40.877  1.00  0.00     0.210 HD
ENDBRANCH   3   7
BRANCH   4   9
HETATM    9  O   UNL     1      54.237 -21.087 -37.942  1.00  0.00    -0.390 OA
ATOM     10  HO  UNL     1      54.551 -20.655 -37.156  1.00  0.00     0.210 HD
ENDBRANCH   4   9
BRANCH   5  11
HETATM   11  O   UNL     1      51.811 -20.397 -37.213  1.00  0.00    -0.393 OA
ATOM     12  HO  UNL     1      52.371 -21.118 -36.947  1.00  0.00     0.210 HD
ENDBRANCH   5  11
ENDBRANCH   1   2
BRANCH   1  13
HETATM   13  C   UNL     1      52.090 -20.204 -43.341  1.00  0.00     0.022 C 
HETATM   14  C   UNL     1      53.288 -19.595 -43.688  1.00  0.00     0.058 C 
HETATM   15  C   UNL     1      53.256 -18.497 -44.536  1.00  0.00     0.117 C 
HETATM   16  F   UNL     1      54.387 -17.816 -44.748  1.00  0.00    -0.206 F 
HETATM   17  C   UNL     1      52.077 -18.079 -45.128  1.00  0.00     0.045 C 
HETATM   18  C   UNL     1      50.963 -18.898 -45.034  1.00  0.00     0.040 C 
HETATM   19  C   UNL     1      51.022 -20.031 -44.226  1.00  0.00     0.078 C 
BRANCH  19  20
HETATM   20  O   UNL     1      50.042 -20.978 -44.292  1.00  0.00    -0.360 OA
ATOM     21  HO  UNL     1      50.247 -21.894 -44.140  1.00  0.00     0.217 HD
ENDBRANCH  19  20
ENDBRANCH   1  13
BRANCH   1  22
HETATM   22  N   UNL     1      51.785 -22.264 -42.092  1.00  0.00    -0.401 N 
ATOM     23  HN2 UNL     1      51.469 -22.725 -41.239  1.00  0.00     0.156 HD
ATOM     24  HN1 UNL     1      51.737 -22.719 -43.005  1.00  0.00     0.156 HD
ENDBRANCH   1  22
TORSDOF 7
ENDMDL
MODEL 4
REMARK VINA RESULT:      -7.1      2.073      5.258
REMARK  7 active torsions:
REMARK  status: ('A' for Active; 'I' for Inactive)
REMARK    1  A    between atoms: O_3  and  C_20 
REMARK    2  A    between atoms: C_5  and  O_10 
REMARK    3  A    between atoms: C_6  and  C_13 
REMARK    4  A    between atoms: C_6  and  C_14 
REMARK    5  A    between atoms: C_6  and  N_22 
REMARK    6  A    between atoms: O_8  and  C_19 
REMARK    7  A    between atoms: C_15  and  O_16 
ROOT
HETATM    1  C   UNL     1      52.379 -21.264 -40.915  1.00  0.00     0.022 C 
ENDROOT
BRANCH   1   2
HETATM    2  C   UNL     1      52.799 -20.841 -42.287  1.00  0.00     0.070 C 
HETATM    3  C   UNL     1      51.999 -21.460 -43.416  1.00  0.00     0.159 C 
HETATM    4  C   UNL     1      52.811 -21.102 -44.661  1.00  0.00     0.176 C 
HETATM    5  C   UNL     1      54.175 -20.636 -44.203  1.00  0.00     0.150 C 
HETATM    6  C   UNL     1      54.247 -20.868 -42.700  1.00  0.00     0.048 C 
BRANCH   3   7
HETATM    7  O   UNL     1      50.715 -20.831 -43.440  1.00  0.00    -0.392 OA
ATOM      8  HO  UNL     1      50.555 -20.462 -42.579  1.00  0.00     0.210 HD
ENDBRANCH   3   7
BRANCH   4   9
HETATM    9  O   UNL     1      52.872 -22.244 -45.502  1.00  0.00    -0.390 OA
ATOM     10  HO  UNL     1      53.651 -22.179 -46.042  1.00  0.00     0.210 HD
ENDBRANCH   4   9
BRANCH   5  11
HETATM   11  O   UNL     1      55.241 -21.317 -44.849  1.00  0.00    -0.393 OA
ATOM     12  HO  UNL     1      55.400 -22.182 -44.491  1.00  0.00     0.210 HD
ENDBRANCH   5  11
ENDBRANCH   1   2
BRANCH   1  13
HETATM   13  C   UNL     1      52.440 -20.346 -39.758  1.00  0.00     0.022 C 
HETATM   14  C   UNL     1      53.482 -19.443 -39.604  1.00  0.00     0.058 C 
HETATM   15  C   UNL     1      53.846 -19.057 -38.322  1.00  0.00     0.117 C 
HETATM   16  F   UNL     1      54.945 -18.311 -38.162  1.00  0.00    -0.206 F 
HETATM   17  C   UNL     1      53.119 -19.461 -37.215  1.00  0.00     0.045 C 
HETATM   18  C   UNL     1      51.897 -20.081 -37.418  1.00  0.00     0.040 C 
HETATM   19  C   UNL     1      51.512 -20.413 -38.714  1.00  0.00     0.078 C 
BRANCH  19  20
HETATM   20  O   UNL     1      50.230 -20.802 -38.977  1.00  0.00    -0.360 OA
ATOM     21  HO  UNL     1      49.524 -20.165 -38.977  1.00  0.00     0.217 HD
ENDBRANCH  19  20
ENDBRANCH   1  13
BRANCH   1  22
HETATM   22  N   UNL     1      51.592 -22.374 -40.788  1.00  0.00    -0.401 N 
ATOM     23  HN2 UNL     1      51.648 -23.071 -41.532  1.00  0.00     0.156 HD
ATOM     24  HN1 UNL     1      51.202 -22.591 -39.871  1.00  0.00     0.156 HD
ENDBRANCH   1  22
TORSDOF 7
ENDMDL
MODEL 5
REMARK VINA RESULT:      -7.0      2.049      3.027
REMARK  7 active torsions:
REMARK  status: ('A' for Active; 'I' for Inactive)
REMARK    1  A    between atoms: O_3  and  C_20 
REMARK    2  A    between atoms: C_5  and  O_10 
REMARK    3  A    between atoms: C_6  and  C_13 
REMARK    4  A    between atoms: C_6  and  C_14 
REMARK    5  A    between atoms: C_6  and  N_22 
REMARK    6  A    between atoms: O_8  and  C_19 
REMARK    7  A    between atoms: C_15  and  O_16 
ROOT
HETATM    1  C   UNL     1      53.764 -20.221 -41.694  1.00  0.00     0.022 C 
ENDROOT
BRANCH   1   2
HETATM    2  C   UNL     1      52.907 -19.966 -40.494  1.00  0.00     0.070 C 
HETATM    3  C   UNL     1      53.645 -19.984 -39.170  1.00  0.00     0.159 C 
HETATM    4  C   UNL     1      52.517 -19.997 -38.138  1.00  0.00     0.176 C 
HETATM    5  C   UNL     1      51.235 -20.344 -38.861  1.00  0.00     0.150 C 
HETATM    6  C   UNL     1      51.611 -20.704 -40.293  1.00  0.00     0.048 C 
BRANCH   3   7
HETATM    7  O   UNL     1      54.414 -18.782 -39.078  1.00  0.00    -0.392 OA
ATOM      8  HO  UNL     1      53.809 -18.050 -39.060  1.00  0.00     0.210 HD
ENDBRANCH   3   7
BRANCH   4   9
HETATM    9  O   UNL     1      52.847 -20.932 -37.122  1.00  0.00    -0.390 OA
ATOM     10  HO  UNL     1      53.648 -21.379 -37.372  1.00  0.00     0.210 HD
ENDBRANCH   4   9
BRANCH   5  11
HETATM   11  O   UNL     1      50.533 -21.422 -38.260  1.00  0.00    -0.393 OA
ATOM     12  HO  UNL     1      50.590 -21.421 -37.312  1.00  0.00     0.210 HD
ENDBRANCH   5  11
ENDBRANCH   1   2
BRANCH   1  13
HETATM   13  C   UNL     1      53.272 -20.003 -43.070  1.00  0.00     0.022 C 
HETATM   14  C   UNL     1      53.644 -18.885 -43.803  1.00  0.00     0.058 C 
HETATM   15  C   UNL     1      52.771 -18.396 -44.764  1.00  0.00     0.117 C 
HETATM   16  F   UNL     1      53.056 -17.235 -45.361  1.00  0.00    -0.206 F 
HETATM   17  C   UNL     1      51.602 -19.068 -45.081  1.00  0.00     0.045 C 
HETATM   18  C   UNL     1      51.417 -20.346 -44.580  1.00  0.00     0.040 C 
HETATM   19  C   UNL     1      52.331 -20.852 -43.660  1.00  0.00     0.078 C 
BRANCH  19  20
HETATM   20  O   UNL     1      52.318 -22.176 -43.329  1.00  0.00    -0.360 OA
ATOM     21  HO  UNL     1      52.886 -22.506 -42.642  1.00  0.00     0.217 HD
ENDBRANCH  19  20
ENDBRANCH   1  13
BRANCH   1  22
HETATM   22  N   UNL     1      55.118 -20.303 -41.521  1.00  0.00    -0.401 N 
ATOM     23  HN2 UNL     1      55.681 -19.542 -41.900  1.00  0.00     0.156 HD
ATOM     24  HN1 UNL     1      55.479 -20.946 -40.816  1.00  0.00     0.156 HD
ENDBRANCH   1  22
TORSDOF 7
ENDMDL
MODEL 6
REMARK VINA RESULT:      -6.9      2.975      6.203
REMARK  7 active torsions:
REMARK  status: ('A' for Active; 'I' for Inactive)
REMARK    1  A    between atoms: O_3  and  C_20 
REMARK    2  A    between atoms: C_5  and  O_10 
REMARK    3  A    between atoms: C_6  and  C_13 
REMARK    4  A    between atoms: C_6  and  C_14 
REMARK    5  A    between atoms: C_6  and  N_22 
REMARK    6  A    between atoms: O_8  and  C_19 
REMARK    7  A    between atoms: C_15  and  O_16 
ROOT
HETATM    1  C   UNL     1      53.109 -20.896 -42.920  1.00  0.00     0.022 C 
ENDROOT
BRANCH   1   2
HETATM    2  C   UNL     1      52.105 -21.087 -44.013  1.00  0.00     0.070 C 
HETATM    3  C   UNL     1      52.666 -20.995 -45.417  1.00  0.00     0.159 C 
HETATM    4  C   UNL     1      51.416 -20.928 -46.294  1.00  0.00     0.176 C 
HETATM    5  C   UNL     1      50.239 -20.624 -45.394  1.00  0.00     0.150 C 
HETATM    6  C   UNL     1      50.796 -20.342 -44.005  1.00  0.00     0.048 C 
BRANCH   3   7
HETATM    7  O   UNL     1      53.411 -22.188 -45.672  1.00  0.00    -0.392 OA
ATOM      8  HO  UNL     1      52.791 -22.894 -45.816  1.00  0.00     0.210 HD
ENDBRANCH   3   7
BRANCH   4   9
HETATM    9  O   UNL     1      51.618 -19.938 -47.291  1.00  0.00    -0.390 OA
ATOM     10  HO  UNL     1      51.770 -20.374 -48.122  1.00  0.00     0.210 HD
ENDBRANCH   4   9
BRANCH   5  11
HETATM   11  O   UNL     1      49.470 -19.516 -45.840  1.00  0.00    -0.393 OA
ATOM     12  HO  UNL     1      49.956 -18.933 -46.412  1.00  0.00     0.210 HD
ENDBRANCH   5  11
ENDBRANCH   1   2
BRANCH   1  13
HETATM   13  C   UNL     1      52.858 -21.345 -41.535  1.00  0.00     0.022 C 
HETATM   14  C   UNL     1      52.152 -22.510 -41.269  1.00  0.00     0.058 C 
HETATM   15  C   UNL     1      51.432 -22.597 -40.086  1.00  0.00     0.117 C 
HETATM   16  F   UNL     1      50.629 -23.650 -39.897  1.00  0.00    -0.206 F 
HETATM   17  C   UNL     1      51.503 -21.602 -39.125  1.00  0.00     0.045 C 
HETATM   18  C   UNL     1      52.467 -20.617 -39.264  1.00  0.00     0.040 C 
HETATM   19  C   UNL     1      53.226 -20.571 -40.431  1.00  0.00     0.078 C 
BRANCH  19  20
HETATM   20  O   UNL     1      54.332 -19.775 -40.505  1.00  0.00    -0.360 OA
ATOM     21  HO  UNL     1      54.242 -18.834 -40.600  1.00  0.00     0.217 HD
ENDBRANCH  19  20
ENDBRANCH   1  13
BRANCH   1  22
HETATM   22  N   UNL     1      54.407 -20.642 -43.267  1.00  0.00    -0.401 N 
ATOM     23  HN2 UNL     1      55.088 -21.381 -43.093  1.00  0.00     0.156 HD
ATOM     24  HN1 UNL     1      54.596 -19.870 -43.908  1.00  0.00     0.156 HD
ENDBRANCH   1  22
TORSDOF 7
ENDMDL
MODEL 7
REMARK VINA RESULT:      -6.9      1.326      1.491
REMARK  7 active torsions:
REMARK  status: ('A' for Active; 'I' for Inactive)
REMARK    1  A    between atoms: O_3  and  C_20 
REMARK    2  A    between atoms: C_5  and  O_10 
REMARK    3  A    between atoms: C_6  and  C_13 
REMARK    4  A    between atoms: C_6  and  C_14 
REMARK    5  A    between atoms: C_6  and  N_22 
REMARK    6  A    between atoms: O_8  and  C_19 
REMARK    7  A    between atoms: C_15  and  O_16 
ROOT
HETATM    1  C   UNL     1      52.335 -20.386 -41.783  1.00  0.00     0.022 C 
ENDROOT
BRANCH   1   2
HETATM    2  C   UNL     1      52.564 -20.495 -40.309  1.00  0.00     0.070 C 
HETATM    3  C   UNL     1      51.306 -20.441 -39.464  1.00  0.00     0.159 C 
HETATM    4  C   UNL     1      51.843 -20.274 -38.043  1.00  0.00     0.176 C 
HETATM    5  C   UNL     1      53.300 -19.883 -38.143  1.00  0.00     0.150 C 
HETATM    6  C   UNL     1      53.602 -19.651 -39.618  1.00  0.00     0.048 C 
BRANCH   3   7
HETATM    7  O   UNL     1      50.622 -21.688 -39.614  1.00  0.00    -0.392 OA
ATOM      8  HO  UNL     1      51.047 -22.323 -39.048  1.00  0.00     0.210 HD
ENDBRANCH   3   7
BRANCH   4   9
HETATM    9  O   UNL     1      51.055 -19.300 -37.376  1.00  0.00    -0.390 OA
ATOM     10  HO  UNL     1      50.444 -18.926 -38.001  1.00  0.00     0.210 HD
ENDBRANCH   4   9
BRANCH   5  11
HETATM   11  O   UNL     1      53.615 -18.717 -37.396  1.00  0.00    -0.393 OA
ATOM     12  HO  UNL     1      54.298 -18.862 -36.751  1.00  0.00     0.210 HD
ENDBRANCH   5  11
ENDBRANCH   1   2
BRANCH   1  13
HETATM   13  C   UNL     1      53.451 -20.253 -42.743  1.00  0.00     0.022 C 
HETATM   14  C   UNL     1      54.600 -21.023 -42.628  1.00  0.00     0.058 C 
HETATM   15  C   UNL     1      55.798 -20.507 -43.100  1.00  0.00     0.117 C 
HETATM   16  F   UNL     1      56.929 -21.177 -42.853  1.00  0.00    -0.206 F 
HETATM   17  C   UNL     1      55.844 -19.302 -43.782  1.00  0.00     0.045 C 
HETATM   18  C   UNL     1      54.650 -18.720 -44.175  1.00  0.00     0.040 C 
HETATM   19  C   UNL     1      53.450 -19.278 -43.745  1.00  0.00     0.078 C 
BRANCH  19  20
HETATM   20  O   UNL     1      52.266 -18.883 -44.298  1.00  0.00    -0.360 OA
ATOM     21  HO  UNL     1      51.506 -18.729 -43.748  1.00  0.00     0.217 HD
ENDBRANCH  19  20
ENDBRANCH   1  13
BRANCH   1  22
HETATM   22  N   UNL     1      51.125 -20.778 -42.285  1.00  0.00    -0.401 N 
ATOM     23  HN2 UNL     1      50.326 -20.743 -41.652  1.00  0.00     0.156 HD
ATOM     24  HN1 UNL     1      51.013 -20.828 -43.298  1.00  0.00     0.156 HD
ENDBRANCH   1  22
TORSDOF 7
ENDMDL
MODEL 8
REMARK VINA RESULT:      -6.8      2.406      3.262
REMARK  7 active torsions:
REMARK  status: ('A' for Active; 'I' for Inactive)
REMARK    1  A    between atoms: O_3  and  C_20 
REMARK    2  A    between atoms: C_5  and  O_10 
REMARK    3  A    between atoms: C_6  and  C_13 
REMARK    4  A    between atoms: C_6  and  C_14 
REMARK    5  A    between atoms: C_6  and  N_22 
REMARK    6  A    between atoms: O_8  and  C_19 
REMARK    7  A    between atoms: C_15  and  O_16 
ROOT
HETATM    1  C   UNL     1      53.867 -20.239 -41.803  1.00  0.00     0.022 C 
ENDROOT
BRANCH   1   2
HETATM    2  C   UNL     1      52.938 -20.008 -40.653  1.00  0.00     0.070 C 
HETATM    3  C   UNL     1      53.597 -20.026 -39.288  1.00  0.00     0.159 C 
HETATM    4  C   UNL     1      52.412 -20.066 -38.324  1.00  0.00     0.176 C 
HETATM    5  C   UNL     1      51.180 -20.426 -39.123  1.00  0.00     0.150 C 
HETATM    6  C   UNL     1      51.644 -20.768 -40.533  1.00  0.00     0.048 C 
BRANCH   3   7
HETATM    7  O   UNL     1      54.340 -18.813 -39.143  1.00  0.00    -0.392 OA
ATOM      8  HO  UNL     1      54.604 -18.527 -40.010  1.00  0.00     0.210 HD
ENDBRANCH   3   7
BRANCH   4   9
HETATM    9  O   UNL     1      52.698 -21.004 -37.298  1.00  0.00    -0.390 OA
ATOM     10  HO  UNL     1      52.252 -20.729 -36.505  1.00  0.00     0.210 HD
ENDBRANCH   4   9
BRANCH   5  11
HETATM   11  O   UNL     1      50.462 -21.521 -38.573  1.00  0.00    -0.393 OA
ATOM     12  HO  UNL     1      50.304 -22.216 -39.201  1.00  0.00     0.210 HD
ENDBRANCH   5  11
ENDBRANCH   1   2
BRANCH   1  13
HETATM   13  C   UNL     1      53.404 -20.201 -43.206  1.00  0.00     0.022 C 
HETATM   14  C   UNL     1      52.681 -21.248 -43.759  1.00  0.00     0.058 C 
HETATM   15  C   UNL     1      52.781 -21.480 -45.123  1.00  0.00     0.117 C 
HETATM   16  F   UNL     1      52.211 -22.577 -45.633  1.00  0.00    -0.206 F 
HETATM   17  C   UNL     1      53.486 -20.621 -45.949  1.00  0.00     0.045 C 
HETATM   18  C   UNL     1      53.915 -19.410 -45.432  1.00  0.00     0.040 C 
HETATM   19  C   UNL     1      53.758 -19.161 -44.071  1.00  0.00     0.078 C 
BRANCH  19  20
HETATM   20  O   UNL     1      53.946 -17.904 -43.572  1.00  0.00    -0.360 OA
ATOM     21  HO  UNL     1      54.820 -17.537 -43.508  1.00  0.00     0.217 HD
ENDBRANCH  19  20
ENDBRANCH   1  13
BRANCH   1  22
HETATM   22  N   UNL     1      55.211 -20.121 -41.587  1.00  0.00    -0.401 N 
ATOM     23  HN2 UNL     1      55.713 -20.965 -41.310  1.00  0.00     0.156 HD
ATOM     24  HN1 UNL     1      55.692 -19.301 -41.957  1.00  0.00     0.156 HD
ENDBRANCH   1  22
TORSDOF 7
ENDMDL
MODEL 9
REMARK VINA RESULT:      -6.8      2.068      2.411
REMARK  7 active torsions:
REMARK  status: ('A' for Active; 'I' for Inactive)
REMARK    1  A    between atoms: O_3  and  C_20 
REMARK    2  A    between atoms: C_5  and  O_10 
REMARK    3  A    between atoms: C_6  and  C_13 
REMARK    4  A    between atoms: C_6  and  C_14 
REMARK    5  A    between atoms: C_6  and  N_22 
REMARK    6  A    between atoms: O_8  and  C_19 
REMARK    7  A    between atoms: C_15  and  O_16 
ROOT
HETATM    1  C   UNL     1      52.168 -21.620 -41.098  1.00  0.00     0.022 C 
ENDROOT
BRANCH   1   2
HETATM    2  C   UNL     1      52.401 -20.876 -39.822  1.00  0.00     0.070 C 
HETATM    3  C   UNL     1      51.230 -20.037 -39.351  1.00  0.00     0.159 C 
HETATM    4  C   UNL     1      51.833 -19.184 -38.235  1.00  0.00     0.176 C 
HETATM    5  C   UNL     1      53.338 -19.284 -38.340  1.00  0.00     0.150 C 
HETATM    6  C   UNL     1      53.648 -20.057 -39.615  1.00  0.00     0.048 C 
BRANCH   3   7
HETATM    7  O   UNL     1      50.231 -20.924 -38.840  1.00  0.00    -0.392 OA
ATOM      8  HO  UNL     1      49.891 -21.430 -39.568  1.00  0.00     0.210 HD
ENDBRANCH   3   7
BRANCH   4   9
HETATM    9  O   UNL     1      51.357 -17.855 -38.377  1.00  0.00    -0.390 OA
ATOM     10  HO  UNL     1      50.432 -17.887 -38.591  1.00  0.00     0.210 HD
ENDBRANCH   4   9
BRANCH   5  11
HETATM   11  O   UNL     1      53.978 -18.017 -38.376  1.00  0.00    -0.393 OA
ATOM     12  HO  UNL     1      54.525 -17.854 -37.617  1.00  0.00     0.210 HD
ENDBRANCH   5  11
ENDBRANCH   1   2
BRANCH   1  13
HETATM   13  C   UNL     1      52.231 -20.956 -42.417  1.00  0.00     0.022 C 
HETATM   14  C   UNL     1      51.136 -20.286 -42.944  1.00  0.00     0.058 C 
HETATM   15  C   UNL     1      51.000 -20.212 -44.323  1.00  0.00     0.117 C 
HETATM   16  F   UNL     1      49.872 -19.705 -44.831  1.00  0.00    -0.206 F 
HETATM   17  C   UNL     1      51.988 -20.685 -45.170  1.00  0.00     0.045 C 
HETATM   18  C   UNL     1      53.211 -21.041 -44.624  1.00  0.00     0.040 C 
HETATM   19  C   UNL     1      53.357 -21.057 -43.240  1.00  0.00     0.078 C 
BRANCH  19  20
HETATM   20  O   UNL     1      54.595 -21.168 -42.677  1.00  0.00    -0.360 OA
ATOM     21  HO  UNL     1      54.970 -22.025 -42.504  1.00  0.00     0.217 HD
ENDBRANCH  19  20
ENDBRANCH   1  13
BRANCH   1  22
HETATM   22  N   UNL     1      52.260 -22.984 -41.083  1.00  0.00    -0.401 N 
ATOM     23  HN2 UNL     1      52.290 -23.437 -40.169  1.00  0.00     0.156 HD
ATOM     24  HN1 UNL     1      52.030 -23.496 -41.935  1.00  0.00     0.156 HD
ENDBRANCH   1  22
TORSDOF 7
ENDMDL
