MODEL 1
REMARK VINA RESULT:     -10.3      0.000      0.000
REMARK  6 active torsions:
REMARK  status: ('A' for Active; 'I' for Inactive)
REMARK    1  A    between atoms: C_5  and  O_26 
REMARK    2  A    between atoms: C_6  and  N_36 
REMARK    3  A    between atoms: O_11  and  S_19 
REMARK    4  A    between atoms: O_11  and  P_35 
REMARK       I    between atoms: C_15  and  N_16 
REMARK    5  A    between atoms: S_19  and  C_22 
REMARK    6  A    between atoms: C_23  and  P_35 
ROOT
HETATM    1  C   UNL     1      66.594  39.930  44.589  1.00  0.00     0.001 C 
HETATM    2  C   UNL     1      67.691  40.334  45.528  1.00  0.00     0.157 C 
HETATM    3  C   UNL     1      68.524  41.761  43.649  1.00  0.00     0.295 C 
HETATM    4  N   UNL     1      67.269  41.546  42.941  1.00  0.00    -0.267 N 
HETATM    5  C   UNL     1      64.843  39.100  42.601  1.00  0.00     0.052 C 
HETATM    6  C   UNL     1      65.934  38.715  44.716  1.00  0.00     0.032 C 
HETATM    7  C   UNL     1      66.358  40.691  43.466  1.00  0.00     0.076 C 
HETATM    8  N   UNL     1      65.789  41.035  41.369  1.00  0.00    -0.306 N 
ATOM      9  HN  UNL     1      65.255  41.062  40.501  1.00  0.00     0.171 HD
HETATM   10  C   UNL     1      66.909  41.705  41.643  1.00  0.00     0.329 C 
HETATM   11  C   UNL     1      68.283  41.697  45.171  1.00  0.00     0.091 C 
HETATM   12  C   UNL     1      64.943  38.407  43.799  1.00  0.00     0.063 C 
HETATM   13  O   UNL     1      67.632  42.219  40.783  1.00  0.00    -0.246 OA
HETATM   14  C   UNL     1      65.500  40.308  42.484  1.00  0.00     0.065 C 
ENDROOT
BRANCH  12  15
HETATM   15  P   UNL     1      63.639  37.323  44.176  1.00  0.00     0.300 P 
HETATM   16  O   UNL     1      62.787  37.150  43.008  1.00  0.00    -0.642 OA
HETATM   17  O   UNL     1      64.289  36.098  44.670  1.00  0.00    -0.642 OA
BRANCH  15  18
HETATM   18  O   UNL     1      62.826  38.045  45.316  1.00  0.00    -0.179 OA
BRANCH  18  19
HETATM   19  S   UNL     1      61.331  37.661  45.422  1.00  0.00     0.306 S 
HETATM   20  O   UNL     1      60.585  38.426  44.447  1.00  0.00    -0.193 OA
HETATM   21  O   UNL     1      61.155  36.243  45.222  1.00  0.00    -0.193 OA
BRANCH  19  22
HETATM   22  C   UNL     1      60.877  38.053  46.938  1.00  0.00     0.087 C 
HETATM   23  C   UNL     1      60.815  37.087  47.935  1.00  0.00     0.029 C 
HETATM   24  C   UNL     1      59.636  36.991  48.690  1.00  0.00    -0.071 C 
HETATM   25  C   UNL     1      59.105  38.164  49.293  1.00  0.00     0.091 C 
HETATM   26  C   UNL     1      58.649  35.885  48.472  1.00  0.00     0.055 C 
HETATM   27  C   UNL     1      58.328  38.698  48.201  1.00  0.00     0.021 C 
HETATM   28  N   UNL     1      57.329  37.798  47.698  1.00  0.00    -0.295 N 
HETATM   29  C   UNL     1      59.034  39.586  47.400  1.00  0.00     0.027 C 
HETATM   30  C   UNL     1      57.255  36.434  48.229  1.00  0.00     0.139 C 
HETATM   31  C   UNL     1      56.358  38.175  46.798  1.00  0.00     0.290 C 
HETATM   32  O   UNL     1      55.159  37.847  47.076  1.00  0.00    -0.629 OA
HETATM   33  O   UNL     1      56.686  38.817  45.794  1.00  0.00    -0.629 OA
HETATM   34  C   UNL     1      60.392  39.333  47.141  1.00  0.00     0.028 C 
ENDBRANCH  19  22
ENDBRANCH  18  19
ENDBRANCH  15  18
ENDBRANCH  12  15
BRANCH   2  35
HETATM   35  O   UNL     1      67.261  40.317  46.875  1.00  0.00    -0.391 OA
ATOM     36  HO  UNL     1      67.167  41.195  47.226  1.00  0.00     0.210 HD
ENDBRANCH   2  35
BRANCH   3  37
HETATM   37  N   UNL     1      69.242  42.949  43.240  1.00  0.00    -0.058 N 
ATOM     38  HN3 UNL     1      68.643  43.771  43.316  1.00  0.00     0.276 HD
ATOM     39  HN2 UNL     1      69.956  43.188  43.928  1.00  0.00     0.276 HD
ATOM     40  HN1 UNL     1      69.651  42.892  42.307  1.00  0.00     0.276 HD
ENDBRANCH   3  37
TORSDOF 6
ENDMDL
MODEL 2
REMARK VINA RESULT:      -9.9      1.056      2.277
REMARK  6 active torsions:
REMARK  status: ('A' for Active; 'I' for Inactive)
REMARK    1  A    between atoms: C_5  and  O_26 
REMARK    2  A    between atoms: C_6  and  N_36 
REMARK    3  A    between atoms: O_11  and  S_19 
REMARK    4  A    between atoms: O_11  and  P_35 
REMARK       I    between atoms: C_15  and  N_16 
REMARK    5  A    between atoms: S_19  and  C_22 
REMARK    6  A    between atoms: C_23  and  P_35 
ROOT
HETATM    1  C   UNL     1      66.167  40.265  42.875  1.00  0.00     0.001 C 
HETATM    2  C   UNL     1      66.510  41.165  41.725  1.00  0.00     0.157 C 
HETATM    3  C   UNL     1      68.103  42.273  43.304  1.00  0.00     0.295 C 
HETATM    4  N   UNL     1      67.927  41.171  44.240  1.00  0.00    -0.267 N 
HETATM    5  C   UNL     1      65.479  38.922  45.205  1.00  0.00     0.052 C 
HETATM    6  C   UNL     1      64.935  39.632  42.966  1.00  0.00     0.032 C 
HETATM    7  C   UNL     1      67.017  40.209  43.958  1.00  0.00     0.076 C 
HETATM    8  N   UNL     1      67.526  40.010  46.088  1.00  0.00    -0.306 N 
ATOM      9  HN  UNL     1      67.617  39.639  47.034  1.00  0.00     0.171 HD
HETATM   10  C   UNL     1      68.189  41.042  45.566  1.00  0.00     0.329 C 
HETATM   11  C   UNL     1      67.907  41.768  41.860  1.00  0.00     0.091 C 
HETATM   12  C   UNL     1      64.689  38.829  44.067  1.00  0.00     0.063 C 
HETATM   13  O   UNL     1      68.786  41.890  46.237  1.00  0.00    -0.246 OA
HETATM   14  C   UNL     1      66.704  39.551  45.106  1.00  0.00     0.065 C 
ENDROOT
BRANCH  12  15
HETATM   15  P   UNL     1      63.556  37.514  44.019  1.00  0.00     0.300 P 
HETATM   16  O   UNL     1      63.596  36.875  42.713  1.00  0.00    -0.642 OA
HETATM   17  O   UNL     1      63.918  36.652  45.156  1.00  0.00    -0.642 OA
BRANCH  15  18
HETATM   18  O   UNL     1      62.146  38.186  44.230  1.00  0.00    -0.179 OA
BRANCH  18  19
HETATM   19  S   UNL     1      61.088  37.314  44.948  1.00  0.00     0.306 S 
HETATM   20  O   UNL     1      59.874  37.316  44.161  1.00  0.00    -0.193 OA
HETATM   21  O   UNL     1      61.582  35.974  45.147  1.00  0.00    -0.193 OA
BRANCH  19  22
HETATM   22  C   UNL     1      60.840  38.018  46.398  1.00  0.00     0.087 C 
HETATM   23  C   UNL     1      60.976  37.292  47.575  1.00  0.00     0.029 C 
HETATM   24  C   UNL     1      59.926  37.339  48.505  1.00  0.00    -0.071 C 
HETATM   25  C   UNL     1      59.429  38.606  48.920  1.00  0.00     0.091 C 
HETATM   26  C   UNL     1      58.977  36.193  48.682  1.00  0.00     0.055 C 
HETATM   27  C   UNL     1      58.473  38.874  47.872  1.00  0.00     0.021 C 
HETATM   28  N   UNL     1      57.460  37.867  47.732  1.00  0.00    -0.295 N 
HETATM   29  C   UNL     1      59.008  39.580  46.803  1.00  0.00     0.027 C 
HETATM   30  C   UNL     1      57.536  36.650  48.545  1.00  0.00     0.139 C 
HETATM   31  C   UNL     1      56.349  38.021  46.933  1.00  0.00     0.290 C 
HETATM   32  O   UNL     1      55.223  37.738  47.456  1.00  0.00    -0.629 OA
HETATM   33  O   UNL     1      56.493  38.435  45.778  1.00  0.00    -0.629 OA
HETATM   34  C   UNL     1      60.325  39.302  46.397  1.00  0.00     0.028 C 
ENDBRANCH  19  22
ENDBRANCH  18  19
ENDBRANCH  15  18
ENDBRANCH  12  15
BRANCH   2  35
HETATM   35  O   UNL     1      66.372  40.503  40.483  1.00  0.00    -0.391 OA
ATOM     36  HO  UNL     1      67.025  39.821  40.373  1.00  0.00     0.210 HD
ENDBRANCH   2  35
BRANCH   3  37
HETATM   37  N   UNL     1      69.333  43.015  43.481  1.00  0.00    -0.058 N 
ATOM     38  HN3 UNL     1      69.837  43.087  42.596  1.00  0.00     0.276 HD
ATOM     39  HN2 UNL     1      69.134  44.001  43.649  1.00  0.00     0.276 HD
ATOM     40  HN1 UNL     1      69.945  42.646  44.209  1.00  0.00     0.276 HD
ENDBRANCH   3  37
TORSDOF 6
ENDMDL
MODEL 3
REMARK VINA RESULT:      -8.8      5.545      8.849
REMARK  6 active torsions:
REMARK  status: ('A' for Active; 'I' for Inactive)
REMARK    1  A    between atoms: C_5  and  O_26 
REMARK    2  A    between atoms: C_6  and  N_36 
REMARK    3  A    between atoms: O_11  and  S_19 
REMARK    4  A    between atoms: O_11  and  P_35 
REMARK       I    between atoms: C_15  and  N_16 
REMARK    5  A    between atoms: S_19  and  C_22 
REMARK    6  A    between atoms: C_23  and  P_35 
ROOT
HETATM    1  C   UNL     1      62.715  45.429  43.557  1.00  0.00     0.001 C 
HETATM    2  C   UNL     1      63.647  46.481  44.079  1.00  0.00     0.157 C 
HETATM    3  C   UNL     1      61.586  47.822  44.537  1.00  0.00     0.295 C 
HETATM    4  N   UNL     1      60.773  46.637  44.301  1.00  0.00    -0.267 N 
HETATM    5  C   UNL     1      60.836  43.760  42.377  1.00  0.00     0.052 C 
HETATM    6  C   UNL     1      63.120  44.495  42.614  1.00  0.00     0.032 C 
HETATM    7  C   UNL     1      61.377  45.500  43.878  1.00  0.00     0.076 C 
HETATM    8  N   UNL     1      59.221  45.259  43.517  1.00  0.00    -0.306 N 
ATOM      9  HN  UNL     1      58.311  44.844  43.315  1.00  0.00     0.171 HD
HETATM   10  C   UNL     1      59.454  46.467  44.030  1.00  0.00     0.329 C 
HETATM   11  C   UNL     1      62.967  47.409  45.084  1.00  0.00     0.091 C 
HETATM   12  C   UNL     1      62.195  43.565  42.170  1.00  0.00     0.063 C 
HETATM   13  O   UNL     1      58.621  47.379  44.052  1.00  0.00    -0.246 OA
HETATM   14  C   UNL     1      60.441  44.689  43.318  1.00  0.00     0.065 C 
ENDROOT
BRANCH  12  15
HETATM   15  P   UNL     1      62.667  42.012  41.552  1.00  0.00     0.300 P 
HETATM   16  O   UNL     1      61.757  40.988  42.042  1.00  0.00    -0.642 OA
HETATM   17  O   UNL     1      62.704  42.176  40.089  1.00  0.00    -0.642 OA
BRANCH  15  18
HETATM   18  O   UNL     1      64.106  41.761  42.141  1.00  0.00    -0.179 OA
BRANCH  18  19
HETATM   19  S   UNL     1      65.199  41.389  41.111  1.00  0.00     0.306 S 
HETATM   20  O   UNL     1      64.648  40.435  40.173  1.00  0.00    -0.193 OA
HETATM   21  O   UNL     1      65.683  42.568  40.435  1.00  0.00    -0.193 OA
BRANCH  19  22
HETATM   22  C   UNL     1      66.414  40.724  41.970  1.00  0.00     0.087 C 
HETATM   23  C   UNL     1      66.151  39.821  42.994  1.00  0.00     0.029 C 
HETATM   24  C   UNL     1      66.743  40.050  44.245  1.00  0.00    -0.071 C 
HETATM   25  C   UNL     1      68.146  40.273  44.314  1.00  0.00     0.091 C 
HETATM   26  C   UNL     1      65.956  40.583  45.403  1.00  0.00     0.055 C 
HETATM   27  C   UNL     1      68.204  41.693  44.059  1.00  0.00     0.021 C 
HETATM   28  N   UNL     1      67.441  42.485  44.982  1.00  0.00    -0.295 N 
HETATM   29  C   UNL     1      68.352  42.009  42.715  1.00  0.00     0.027 C 
HETATM   30  C   UNL     1      66.613  41.819  45.990  1.00  0.00     0.139 C 
HETATM   31  C   UNL     1      67.516  43.859  45.038  1.00  0.00     0.290 C 
HETATM   32  O   UNL     1      67.675  44.378  46.190  1.00  0.00    -0.629 OA
HETATM   33  O   UNL     1      67.446  44.507  43.988  1.00  0.00    -0.629 OA
HETATM   34  C   UNL     1      67.686  41.224  41.757  1.00  0.00     0.028 C 
ENDBRANCH  19  22
ENDBRANCH  18  19
ENDBRANCH  15  18
ENDBRANCH  12  15
BRANCH   2  35
HETATM   35  O   UNL     1      64.816  45.914  44.638  1.00  0.00    -0.391 OA
ATOM     36  HO  UNL     1      64.652  45.546  45.499  1.00  0.00     0.210 HD
ENDBRANCH   2  35
BRANCH   3  37
HETATM   37  N   UNL     1      60.940  48.837  45.341  1.00  0.00    -0.058 N 
ATOM     38  HN3 UNL     1      60.246  49.342  44.789  1.00  0.00     0.276 HD
ATOM     39  HN2 UNL     1      60.330  48.406  46.036  1.00  0.00     0.276 HD
ATOM     40  HN1 UNL     1      61.583  49.491  45.788  1.00  0.00     0.276 HD
ENDBRANCH   3  37
TORSDOF 6
ENDMDL
MODEL 4
REMARK VINA RESULT:      -8.4      5.759      8.803
REMARK  6 active torsions:
REMARK  status: ('A' for Active; 'I' for Inactive)
REMARK    1  A    between atoms: C_5  and  O_26 
REMARK    2  A    between atoms: C_6  and  N_36 
REMARK    3  A    between atoms: O_11  and  S_19 
REMARK    4  A    between atoms: O_11  and  P_35 
REMARK       I    between atoms: C_15  and  N_16 
REMARK    5  A    between atoms: S_19  and  C_22 
REMARK    6  A    between atoms: C_23  and  P_35 
ROOT
HETATM    1  C   UNL     1      60.838  44.422  42.040  1.00  0.00     0.001 C 
HETATM    2  C   UNL     1      59.780  44.927  42.974  1.00  0.00     0.157 C 
HETATM    3  C   UNL     1      59.953  47.082  41.715  1.00  0.00     0.295 C 
HETATM    4  N   UNL     1      60.734  46.408  40.687  1.00  0.00    -0.267 N 
HETATM    5  C   UNL     1      62.996  43.801  40.407  1.00  0.00     0.052 C 
HETATM    6  C   UNL     1      61.697  43.391  42.396  1.00  0.00     0.032 C 
HETATM    7  C   UNL     1      61.090  45.114  40.875  1.00  0.00     0.076 C 
HETATM    8  N   UNL     1      62.347  45.898  39.250  1.00  0.00    -0.306 N 
ATOM      9  HN  UNL     1      62.984  45.952  38.456  1.00  0.00     0.171 HD
HETATM   10  C   UNL     1      61.553  46.867  39.707  1.00  0.00     0.329 C 
HETATM   11  C   UNL     1      58.980  46.081  42.372  1.00  0.00     0.091 C 
HETATM   12  C   UNL     1      62.659  42.993  41.483  1.00  0.00     0.063 C 
HETATM   13  O   UNL     1      61.693  48.062  39.428  1.00  0.00    -0.246 OA
HETATM   14  C   UNL     1      62.135  44.823  40.057  1.00  0.00     0.065 C 
ENDROOT
BRANCH  12  15
HETATM   15  P   UNL     1      63.325  41.389  41.482  1.00  0.00     0.300 P 
HETATM   16  O   UNL     1      62.386  40.463  42.098  1.00  0.00    -0.642 OA
HETATM   17  O   UNL     1      63.655  41.110  40.075  1.00  0.00    -0.642 OA
BRANCH  15  18
HETATM   18  O   UNL     1      64.623  41.487  42.370  1.00  0.00    -0.179 OA
BRANCH  18  19
HETATM   19  S   UNL     1      65.449  40.185  42.499  1.00  0.00     0.306 S 
HETATM   20  O   UNL     1      64.807  39.322  43.466  1.00  0.00    -0.193 OA
HETATM   21  O   UNL     1      65.576  39.535  41.218  1.00  0.00    -0.193 OA
BRANCH  19  22
HETATM   22  C   UNL     1      66.924  40.644  43.020  1.00  0.00     0.087 C 
HETATM   23  C   UNL     1      67.480  40.088  44.166  1.00  0.00     0.029 C 
HETATM   24  C   UNL     1      67.975  40.959  45.149  1.00  0.00    -0.071 C 
HETATM   25  C   UNL     1      68.886  41.982  44.769  1.00  0.00     0.091 C 
HETATM   26  C   UNL     1      67.232  41.210  46.426  1.00  0.00     0.055 C 
HETATM   27  C   UNL     1      67.969  43.018  44.356  1.00  0.00     0.021 C 
HETATM   28  N   UNL     1      67.037  43.414  45.375  1.00  0.00    -0.295 N 
HETATM   29  C   UNL     1      67.656  42.973  43.004  1.00  0.00     0.027 C 
HETATM   30  C   UNL     1      67.016  42.695  46.651  1.00  0.00     0.139 C 
HETATM   31  C   UNL     1      66.213  44.510  45.257  1.00  0.00     0.290 C 
HETATM   32  O   UNL     1      66.182  45.314  46.244  1.00  0.00    -0.629 OA
HETATM   33  O   UNL     1      65.570  44.668  44.213  1.00  0.00    -0.629 OA
HETATM   34  C   UNL     1      67.513  41.721  42.381  1.00  0.00     0.028 C 
ENDBRANCH  19  22
ENDBRANCH  18  19
ENDBRANCH  15  18
ENDBRANCH  12  15
BRANCH   2  35
HETATM   35  O   UNL     1      58.915  43.890  43.395  1.00  0.00    -0.391 OA
ATOM     36  HO  UNL     1      58.093  43.903  42.920  1.00  0.00     0.210 HD
ENDBRANCH   2  35
BRANCH   3  37
HETATM   37  N   UNL     1      59.300  48.294  41.268  1.00  0.00    -0.058 N 
ATOM     38  HN3 UNL     1      59.993  49.003  41.027  1.00  0.00     0.276 HD
ATOM     39  HN2 UNL     1      58.871  48.151  40.353  1.00  0.00     0.276 HD
ATOM     40  HN1 UNL     1      58.619  48.671  41.926  1.00  0.00     0.276 HD
ENDBRANCH   3  37
TORSDOF 6
ENDMDL
MODEL 5
REMARK VINA RESULT:      -8.3      5.536      8.875
REMARK  6 active torsions:
REMARK  status: ('A' for Active; 'I' for Inactive)
REMARK    1  A    between atoms: C_5  and  O_26 
REMARK    2  A    between atoms: C_6  and  N_36 
REMARK    3  A    between atoms: O_11  and  S_19 
REMARK    4  A    between atoms: O_11  and  P_35 
REMARK       I    between atoms: C_15  and  N_16 
REMARK    5  A    between atoms: S_19  and  C_22 
REMARK    6  A    between atoms: C_23  and  P_35 
ROOT
HETATM    1  C   UNL     1      60.884  45.433  43.264  1.00  0.00     0.001 C 
HETATM    2  C   UNL     1      59.403  45.618  43.399  1.00  0.00     0.157 C 
HETATM    3  C   UNL     1      59.954  47.224  45.237  1.00  0.00     0.295 C 
HETATM    4  N   UNL     1      61.350  47.206  44.821  1.00  0.00    -0.267 N 
HETATM    5  C   UNL     1      63.628  45.025  43.391  1.00  0.00     0.052 C 
HETATM    6  C   UNL     1      61.432  44.267  42.747  1.00  0.00     0.032 C 
HETATM    7  C   UNL     1      61.730  46.359  43.834  1.00  0.00     0.076 C 
HETATM    8  N   UNL     1      63.563  47.034  44.846  1.00  0.00    -0.306 N 
ATOM      9  HN  UNL     1      64.543  47.222  45.055  1.00  0.00     0.171 HD
HETATM   10  C   UNL     1      62.499  47.571  45.444  1.00  0.00     0.329 C 
HETATM   11  C   UNL     1      59.043  46.967  44.019  1.00  0.00     0.091 C 
HETATM   12  C   UNL     1      62.811  44.167  42.669  1.00  0.00     0.063 C 
HETATM   13  O   UNL     1      62.539  48.143  46.539  1.00  0.00    -0.246 OA
HETATM   14  C   UNL     1      63.077  46.184  43.901  1.00  0.00     0.065 C 
ENDROOT
BRANCH  12  15
HETATM   15  P   UNL     1      63.600  43.144  41.508  1.00  0.00     0.300 P 
HETATM   16  O   UNL     1      62.605  42.434  40.718  1.00  0.00    -0.642 OA
HETATM   17  O   UNL     1      64.489  44.039  40.749  1.00  0.00    -0.642 OA
BRANCH  15  18
HETATM   18  O   UNL     1      64.420  42.111  42.369  1.00  0.00    -0.179 OA
BRANCH  18  19
HETATM   19  S   UNL     1      64.504  40.675  41.796  1.00  0.00     0.306 S 
HETATM   20  O   UNL     1      63.379  39.912  42.290  1.00  0.00    -0.193 OA
HETATM   21  O   UNL     1      64.525  40.704  40.354  1.00  0.00    -0.193 OA
BRANCH  19  22
HETATM   22  C   UNL     1      65.909  40.058  42.344  1.00  0.00     0.087 C 
HETATM   23  C   UNL     1      65.920  39.005  43.251  1.00  0.00     0.029 C 
HETATM   24  C   UNL     1      66.695  39.141  44.413  1.00  0.00    -0.071 C 
HETATM   25  C   UNL     1      68.059  39.524  44.292  1.00  0.00     0.091 C 
HETATM   26  C   UNL     1      66.072  39.418  45.747  1.00  0.00     0.055 C 
HETATM   27  C   UNL     1      67.931  40.961  44.244  1.00  0.00     0.021 C 
HETATM   28  N   UNL     1      67.265  41.527  45.383  1.00  0.00    -0.295 N 
HETATM   29  C   UNL     1      67.810  41.463  42.956  1.00  0.00     0.027 C 
HETATM   30  C   UNL     1      66.695  40.640  46.400  1.00  0.00     0.139 C 
HETATM   31  C   UNL     1      67.212  42.881  45.629  1.00  0.00     0.290 C 
HETATM   32  O   UNL     1      67.517  43.263  46.805  1.00  0.00    -0.629 OA
HETATM   33  O   UNL     1      66.896  43.646  44.712  1.00  0.00    -0.629 OA
HETATM   34  C   UNL     1      67.070  40.734  42.009  1.00  0.00     0.028 C 
ENDBRANCH  19  22
ENDBRANCH  18  19
ENDBRANCH  15  18
ENDBRANCH  12  15
BRANCH   2  35
HETATM   35  O   UNL     1      58.739  45.447  42.162  1.00  0.00    -0.391 OA
ATOM     36  HO  UNL     1      58.007  44.845  42.236  1.00  0.00     0.210 HD
ENDBRANCH   2  35
BRANCH   3  37
HETATM   37  N   UNL     1      59.573  48.399  45.991  1.00  0.00    -0.058 N 
ATOM     38  HN3 UNL     1      58.949  48.989  45.440  1.00  0.00     0.276 HD
ATOM     39  HN2 UNL     1      58.944  48.144  46.753  1.00  0.00     0.276 HD
ATOM     40  HN1 UNL     1      60.359  48.944  46.345  1.00  0.00     0.276 HD
ENDBRANCH   3  37
TORSDOF 6
ENDMDL
MODEL 6
REMARK VINA RESULT:      -8.0      5.950      8.628
REMARK  6 active torsions:
REMARK  status: ('A' for Active; 'I' for Inactive)
REMARK    1  A    between atoms: C_5  and  O_26 
REMARK    2  A    between atoms: C_6  and  N_36 
REMARK    3  A    between atoms: O_11  and  S_19 
REMARK    4  A    between atoms: O_11  and  P_35 
REMARK       I    between atoms: C_15  and  N_16 
REMARK    5  A    between atoms: S_19  and  C_22 
REMARK    6  A    between atoms: C_23  and  P_35 
ROOT
HETATM    1  C   UNL     1      61.760  43.776  41.365  1.00  0.00     0.001 C 
HETATM    2  C   UNL     1      60.651  44.527  42.038  1.00  0.00     0.157 C 
HETATM    3  C   UNL     1      60.872  46.170  40.164  1.00  0.00     0.295 C 
HETATM    4  N   UNL     1      61.711  45.222  39.444  1.00  0.00    -0.267 N 
HETATM    5  C   UNL     1      64.004  42.718  40.119  1.00  0.00     0.052 C 
HETATM    6  C   UNL     1      62.608  42.934  42.072  1.00  0.00     0.032 C 
HETATM    7  C   UNL     1      62.066  44.065  40.053  1.00  0.00     0.076 C 
HETATM    8  N   UNL     1      63.400  44.320  38.323  1.00  0.00    -0.306 N 
ATOM      9  HN  UNL     1      64.077  44.133  37.584  1.00  0.00     0.171 HD
HETATM   10  C   UNL     1      62.576  45.364  38.408  1.00  0.00     0.329 C 
HETATM   11  C   UNL     1      59.874  45.409  41.061  1.00  0.00     0.091 C 
HETATM   12  C   UNL     1      63.619  42.287  41.380  1.00  0.00     0.063 C 
HETATM   13  O   UNL     1      62.721  46.411  37.768  1.00  0.00    -0.246 OA
HETATM   14  C   UNL     1      63.156  43.554  39.421  1.00  0.00     0.065 C 
ENDROOT
BRANCH  12  15
HETATM   15  P   UNL     1      64.296  40.784  41.924  1.00  0.00     0.300 P 
HETATM   16  O   UNL     1      63.234  39.900  42.381  1.00  0.00    -0.642 OA
HETATM   17  O   UNL     1      65.087  40.285  40.787  1.00  0.00    -0.642 OA
BRANCH  15  18
HETATM   18  O   UNL     1      65.217  41.170  43.142  1.00  0.00    -0.179 OA
BRANCH  18  19
HETATM   19  S   UNL     1      65.916  39.989  43.858  1.00  0.00     0.306 S 
HETATM   20  O   UNL     1      65.109  39.591  44.991  1.00  0.00    -0.193 OA
HETATM   21  O   UNL     1      66.118  38.890  42.946  1.00  0.00    -0.193 OA
BRANCH  19  22
HETATM   22  C   UNL     1      67.363  40.558  44.347  1.00  0.00     0.087 C 
HETATM   23  C   UNL     1      67.742  40.490  45.682  1.00  0.00     0.029 C 
HETATM   24  C   UNL     1      68.207  41.661  46.299  1.00  0.00    -0.071 C 
HETATM   25  C   UNL     1      69.243  42.406  45.670  1.00  0.00     0.091 C 
HETATM   26  C   UNL     1      67.360  42.436  47.261  1.00  0.00     0.055 C 
HETATM   27  C   UNL     1      68.472  43.224  44.764  1.00  0.00     0.021 C 
HETATM   28  N   UNL     1      67.478  44.035  45.409  1.00  0.00    -0.295 N 
HETATM   29  C   UNL     1      68.301  42.652  43.511  1.00  0.00     0.027 C 
HETATM   30  C   UNL     1      67.257  43.894  46.850  1.00  0.00     0.139 C 
HETATM   31  C   UNL     1      66.774  45.024  44.759  1.00  0.00     0.290 C 
HETATM   32  O   UNL     1      66.712  46.158  45.335  1.00  0.00    -0.629 OA
HETATM   33  O   UNL     1      66.262  44.774  43.662  1.00  0.00    -0.629 OA
HETATM   34  C   UNL     1      68.112  41.262  43.420  1.00  0.00     0.028 C 
ENDBRANCH  19  22
ENDBRANCH  18  19
ENDBRANCH  15  18
ENDBRANCH  12  15
BRANCH   2  35
HETATM   35  O   UNL     1      59.773  43.658  42.727  1.00  0.00    -0.391 OA
ATOM     36  HO  UNL     1      58.946  43.558  42.270  1.00  0.00     0.210 HD
ENDBRANCH   2  35
BRANCH   3  37
HETATM   37  N   UNL     1      60.234  47.160  39.323  1.00  0.00    -0.058 N 
ATOM     38  HN3 UNL     1      59.342  46.809  38.973  1.00  0.00     0.276 HD
ATOM     39  HN2 UNL     1      59.904  47.946  39.884  1.00  0.00     0.276 HD
ATOM     40  HN1 UNL     1      60.813  47.491  38.552  1.00  0.00     0.276 HD
ENDBRANCH   3  37
TORSDOF 6
ENDMDL
MODEL 7
REMARK VINA RESULT:      -7.8      5.903      7.397
REMARK  6 active torsions:
REMARK  status: ('A' for Active; 'I' for Inactive)
REMARK    1  A    between atoms: C_5  and  O_26 
REMARK    2  A    between atoms: C_6  and  N_36 
REMARK    3  A    between atoms: O_11  and  S_19 
REMARK    4  A    between atoms: O_11  and  P_35 
REMARK       I    between atoms: C_15  and  N_16 
REMARK    5  A    between atoms: S_19  and  C_22 
REMARK    6  A    between atoms: C_23  and  P_35 
ROOT
HETATM    1  C   UNL     1      66.817  40.945  43.933  1.00  0.00     0.001 C 
HETATM    2  C   UNL     1      67.854  39.998  44.457  1.00  0.00     0.157 C 
HETATM    3  C   UNL     1      68.825  41.991  45.617  1.00  0.00     0.295 C 
HETATM    4  N   UNL     1      67.618  42.746  45.311  1.00  0.00    -0.267 N 
HETATM    5  C   UNL     1      65.191  42.917  42.848  1.00  0.00     0.052 C 
HETATM    6  C   UNL     1      66.136  40.701  42.747  1.00  0.00     0.032 C 
HETATM    7  C   UNL     1      66.664  42.174  44.537  1.00  0.00     0.076 C 
HETATM    8  N   UNL     1      66.238  44.331  44.597  1.00  0.00    -0.306 N 
ATOM      9  HN  UNL     1      65.764  45.229  44.509  1.00  0.00     0.171 HD
HETATM   10  C   UNL     1      67.345  44.075  45.295  1.00  0.00     0.329 C 
HETATM   11  C   UNL     1      68.484  40.493  45.758  1.00  0.00     0.091 C 
HETATM   12  C   UNL     1      65.204  41.633  42.322  1.00  0.00     0.063 C 
HETATM   13  O   UNL     1      68.129  44.945  45.688  1.00  0.00    -0.246 OA
HETATM   14  C   UNL     1      65.868  43.151  44.028  1.00  0.00     0.065 C 
ENDROOT
BRANCH  12  15
HETATM   15  P   UNL     1      63.866  41.203  41.301  1.00  0.00     0.300 P 
HETATM   16  O   UNL     1      64.359  40.660  40.044  1.00  0.00    -0.642 OA
HETATM   17  O   UNL     1      63.047  40.283  42.108  1.00  0.00    -0.642 OA
BRANCH  15  18
HETATM   18  O   UNL     1      63.112  42.558  41.027  1.00  0.00    -0.179 OA
BRANCH  18  19
HETATM   19  S   UNL     1      63.374  43.206  39.646  1.00  0.00     0.306 S 
HETATM   20  O   UNL     1      64.779  43.070  39.329  1.00  0.00    -0.193 OA
HETATM   21  O   UNL     1      62.546  42.596  38.634  1.00  0.00    -0.193 OA
BRANCH  19  22
HETATM   22  C   UNL     1      62.963  44.776  39.805  1.00  0.00     0.087 C 
HETATM   23  C   UNL     1      63.756  45.649  40.540  1.00  0.00     0.029 C 
HETATM   24  C   UNL     1      63.137  46.433  41.526  1.00  0.00    -0.071 C 
HETATM   25  C   UNL     1      61.989  47.197  41.179  1.00  0.00     0.091 C 
HETATM   26  C   UNL     1      63.278  46.121  42.984  1.00  0.00     0.055 C 
HETATM   27  C   UNL     1      60.949  46.211  41.353  1.00  0.00     0.021 C 
HETATM   28  N   UNL     1      60.896  45.642  42.670  1.00  0.00    -0.295 N 
HETATM   29  C   UNL     1      60.664  45.498  40.196  1.00  0.00     0.027 C 
HETATM   30  C   UNL     1      61.920  46.004  43.653  1.00  0.00     0.139 C 
HETATM   31  C   UNL     1      59.867  44.835  43.101  1.00  0.00     0.290 C 
HETATM   32  O   UNL     1      59.350  45.119  44.230  1.00  0.00    -0.629 OA
HETATM   33  O   UNL     1      59.490  43.906  42.380  1.00  0.00    -0.629 OA
HETATM   34  C   UNL     1      61.719  45.154  39.333  1.00  0.00     0.028 C 
ENDBRANCH  19  22
ENDBRANCH  18  19
ENDBRANCH  15  18
ENDBRANCH  12  15
BRANCH   2  35
HETATM   35  O   UNL     1      67.335  38.693  44.622  1.00  0.00    -0.391 OA
ATOM     36  HO  UNL     1      66.540  38.693  45.142  1.00  0.00     0.210 HD
ENDBRANCH   2  35
BRANCH   3  37
HETATM   37  N   UNL     1      69.582  42.506  46.737  1.00  0.00    -0.058 N 
ATOM     38  HN3 UNL     1      69.108  43.311  47.147  1.00  0.00     0.276 HD
ATOM     39  HN2 UNL     1      69.539  41.859  47.524  1.00  0.00     0.276 HD
ATOM     40  HN1 UNL     1      70.551  42.737  46.519  1.00  0.00     0.276 HD
ENDBRANCH   3  37
TORSDOF 6
ENDMDL
MODEL 8
REMARK VINA RESULT:      -7.8      5.620      8.602
REMARK  6 active torsions:
REMARK  status: ('A' for Active; 'I' for Inactive)
REMARK    1  A    between atoms: C_5  and  O_26 
REMARK    2  A    between atoms: C_6  and  N_36 
REMARK    3  A    between atoms: O_11  and  S_19 
REMARK    4  A    between atoms: O_11  and  P_35 
REMARK       I    between atoms: C_15  and  N_16 
REMARK    5  A    between atoms: S_19  and  C_22 
REMARK    6  A    between atoms: C_23  and  P_35 
ROOT
HETATM    1  C   UNL     1      63.573  44.210  40.747  1.00  0.00     0.001 C 
HETATM    2  C   UNL     1      64.168  45.315  39.928  1.00  0.00     0.157 C 
HETATM    3  C   UNL     1      61.922  46.404  40.096  1.00  0.00     0.295 C 
HETATM    4  N   UNL     1      61.544  45.446  41.126  1.00  0.00    -0.267 N 
HETATM    5  C   UNL     1      62.187  42.160  42.006  1.00  0.00     0.052 C 
HETATM    6  C   UNL     1      64.062  42.912  40.690  1.00  0.00     0.032 C 
HETATM    7  C   UNL     1      62.400  44.440  41.432  1.00  0.00     0.076 C 
HETATM    8  N   UNL     1      60.441  43.902  42.277  1.00  0.00    -0.306 N 
ATOM      9  HN  UNL     1      59.714  43.443  42.824  1.00  0.00     0.171 HD
HETATM   10  C   UNL     1      60.344  45.063  41.629  1.00  0.00     0.329 C 
HETATM   11  C   UNL     1      63.445  46.644  40.138  1.00  0.00     0.091 C 
HETATM   12  C   UNL     1      63.447  41.943  41.466  1.00  0.00     0.063 C 
HETATM   13  O   UNL     1      59.271  45.605  41.342  1.00  0.00    -0.246 OA
HETATM   14  C   UNL     1      61.708  43.453  42.061  1.00  0.00     0.065 C 
ENDROOT
BRANCH  12  15
HETATM   15  P   UNL     1      64.285  40.521  42.006  1.00  0.00     0.300 P 
HETATM   16  O   UNL     1      63.327  39.533  42.479  1.00  0.00    -0.642 OA
HETATM   17  O   UNL     1      65.109  40.103  40.860  1.00  0.00    -0.642 OA
BRANCH  15  18
HETATM   18  O   UNL     1      65.175  41.007  43.211  1.00  0.00    -0.179 OA
BRANCH  18  19
HETATM   19  S   UNL     1      65.896  39.893  44.007  1.00  0.00     0.306 S 
HETATM   20  O   UNL     1      65.109  39.576  45.178  1.00  0.00    -0.193 OA
HETATM   21  O   UNL     1      66.098  38.727  43.180  1.00  0.00    -0.193 OA
BRANCH  19  22
HETATM   22  C   UNL     1      67.344  40.512  44.429  1.00  0.00     0.087 C 
HETATM   23  C   UNL     1      67.683  40.684  45.766  1.00  0.00     0.029 C 
HETATM   24  C   UNL     1      68.162  41.940  46.169  1.00  0.00    -0.071 C 
HETATM   25  C   UNL     1      69.235  42.533  45.448  1.00  0.00     0.091 C 
HETATM   26  C   UNL     1      67.308  42.897  46.944  1.00  0.00     0.055 C 
HETATM   27  C   UNL     1      68.511  43.185  44.382  1.00  0.00     0.021 C 
HETATM   28  N   UNL     1      67.522  44.122  44.833  1.00  0.00    -0.295 N 
HETATM   29  C   UNL     1      68.361  42.393  43.251  1.00  0.00     0.027 C 
HETATM   30  C   UNL     1      67.256  44.255  46.268  1.00  0.00     0.139 C 
HETATM   31  C   UNL     1      66.863  44.987  43.989  1.00  0.00     0.290 C 
HETATM   32  O   UNL     1      66.815  46.210  44.343  1.00  0.00    -0.629 OA
HETATM   33  O   UNL     1      66.376  44.549  42.941  1.00  0.00    -0.629 OA
HETATM   34  C   UNL     1      68.137  41.015  43.412  1.00  0.00     0.028 C 
ENDBRANCH  19  22
ENDBRANCH  18  19
ENDBRANCH  15  18
ENDBRANCH  12  15
BRANCH   2  35
HETATM   35  O   UNL     1      65.554  45.460  40.172  1.00  0.00    -0.391 OA
ATOM     36  HO  UNL     1      65.756  45.401  41.099  1.00  0.00     0.210 HD
ENDBRANCH   2  35
BRANCH   3  37
HETATM   37  N   UNL     1      61.155  47.631  40.114  1.00  0.00    -0.058 N 
ATOM     38  HN3 UNL     1      60.844  47.843  41.062  1.00  0.00     0.276 HD
ATOM     39  HN2 UNL     1      61.762  48.433  39.945  1.00  0.00     0.276 HD
ATOM     40  HN1 UNL     1      60.364  47.641  39.470  1.00  0.00     0.276 HD
ENDBRANCH   3  37
TORSDOF 6
ENDMDL
MODEL 9
REMARK VINA RESULT:      -7.7      6.518      8.806
REMARK  6 active torsions:
REMARK  status: ('A' for Active; 'I' for Inactive)
REMARK    1  A    between atoms: C_5  and  O_26 
REMARK    2  A    between atoms: C_6  and  N_36 
REMARK    3  A    between atoms: O_11  and  S_19 
REMARK    4  A    between atoms: O_11  and  P_35 
REMARK       I    between atoms: C_15  and  N_16 
REMARK    5  A    between atoms: S_19  and  C_22 
REMARK    6  A    between atoms: C_23  and  P_35 
ROOT
HETATM    1  C   UNL     1      67.027  41.047  43.929  1.00  0.00     0.001 C 
HETATM    2  C   UNL     1      68.090  40.176  44.527  1.00  0.00     0.157 C 
HETATM    3  C   UNL     1      68.786  42.211  45.804  1.00  0.00     0.295 C 
HETATM    4  N   UNL     1      67.550  42.872  45.406  1.00  0.00    -0.267 N 
HETATM    5  C   UNL     1      65.343  42.906  42.739  1.00  0.00     0.052 C 
HETATM    6  C   UNL     1      66.476  40.779  42.684  1.00  0.00     0.032 C 
HETATM    7  C   UNL     1      66.720  42.244  44.539  1.00  0.00     0.076 C 
HETATM    8  N   UNL     1      66.110  44.356  44.600  1.00  0.00    -0.306 N 
ATOM      9  HN  UNL     1      65.572  45.214  44.486  1.00  0.00     0.171 HD
HETATM   10  C   UNL     1      67.170  44.175  45.389  1.00  0.00     0.329 C 
HETATM   11  C   UNL     1      68.560  40.688  45.887  1.00  0.00     0.091 C 
HETATM   12  C   UNL     1      65.509  41.641  42.193  1.00  0.00     0.063 C 
HETATM   13  O   UNL     1      67.841  45.096  45.866  1.00  0.00    -0.246 OA
HETATM   14  C   UNL     1      65.892  43.165  43.979  1.00  0.00     0.065 C 
ENDROOT
BRANCH  12  15
HETATM   15  P   UNL     1      64.307  41.129  41.050  1.00  0.00     0.300 P 
HETATM   16  O   UNL     1      64.837  40.056  40.222  1.00  0.00    -0.642 OA
HETATM   17  O   UNL     1      63.130  40.777  41.861  1.00  0.00    -0.642 OA
BRANCH  15  18
HETATM   18  O   UNL     1      64.033  42.395  40.154  1.00  0.00    -0.179 OA
BRANCH  18  19
HETATM   19  S   UNL     1      64.923  42.533  38.895  1.00  0.00     0.306 S 
HETATM   20  O   UNL     1      66.259  42.082  39.220  1.00  0.00    -0.193 OA
HETATM   21  O   UNL     1      64.369  41.782  37.795  1.00  0.00    -0.193 OA
BRANCH  19  22
HETATM   22  C   UNL     1      64.922  44.120  38.520  1.00  0.00     0.087 C 
HETATM   23  C   UNL     1      64.894  45.088  39.517  1.00  0.00     0.029 C 
HETATM   24  C   UNL     1      63.927  46.101  39.428  1.00  0.00    -0.071 C 
HETATM   25  C   UNL     1      63.804  46.832  38.214  1.00  0.00     0.091 C 
HETATM   26  C   UNL     1      62.710  46.107  40.302  1.00  0.00     0.055 C 
HETATM   27  C   UNL     1      62.922  45.965  37.468  1.00  0.00     0.021 C 
HETATM   28  N   UNL     1      61.671  45.701  38.120  1.00  0.00    -0.295 N 
HETATM   29  C   UNL     1      63.593  45.033  36.687  1.00  0.00     0.027 C 
HETATM   30  C   UNL     1      61.442  46.213  39.474  1.00  0.00     0.139 C 
HETATM   31  C   UNL     1      60.618  45.065  37.502  1.00  0.00     0.290 C 
HETATM   32  O   UNL     1      59.474  45.616  37.605  1.00  0.00    -0.629 OA
HETATM   33  O   UNL     1      60.831  44.023  36.874  1.00  0.00    -0.629 OA
HETATM   34  C   UNL     1      64.772  44.453  37.186  1.00  0.00     0.028 C 
ENDBRANCH  19  22
ENDBRANCH  18  19
ENDBRANCH  15  18
ENDBRANCH  12  15
BRANCH   2  35
HETATM   35  O   UNL     1      67.671  38.828  44.622  1.00  0.00    -0.391 OA
ATOM     36  HO  UNL     1      68.305  38.294  45.086  1.00  0.00     0.210 HD
ENDBRANCH   2  35
BRANCH   3  37
HETATM   37  N   UNL     1      69.396  42.758  46.997  1.00  0.00    -0.058 N 
ATOM     38  HN3 UNL     1      69.757  42.009  47.588  1.00  0.00     0.276 HD
ATOM     39  HN2 UNL     1      70.269  43.233  46.765  1.00  0.00     0.276 HD
ATOM     40  HN1 UNL     1      68.787  43.375  47.535  1.00  0.00     0.276 HD
ENDBRANCH   3  37
TORSDOF 6
ENDMDL
