MODEL 1
REMARK VINA RESULT:      -9.3      0.000      0.000
REMARK  2 active torsions:
REMARK  status: ('A' for Active; 'I' for Inactive)
REMARK    1  A    between atoms: C_17  and  O_18 
REMARK    2  A    between atoms: C_17  and  O_24 
ROOT
HETATM    1  C   UNL     1      51.820 106.985  39.150  1.00  0.00     0.002 C 
HETATM    2  C   UNL     1      51.640 112.654  39.747  1.00  0.00     0.014 C 
HETATM    3  C   UNL     1      52.783 106.533  38.246  1.00  0.00     0.011 C 
HETATM    4  C   UNL     1      51.626 108.356  39.316  1.00  0.00     0.011 C 
HETATM    5  N   UNL     1      54.870 112.590  37.093  1.00  0.00    -0.335 N 
ATOM      6  HN  UNL     1      53.924 112.829  36.795  1.00  0.00     0.165 HD
HETATM    7  C   UNL     1      52.683 110.823  40.918  1.00  0.00     0.040 C 
HETATM    8  C   UNL     1      52.463 112.339  41.007  1.00  0.00    -0.009 C 
HETATM    9  C   UNL     1      52.661 112.009  38.792  1.00  0.00     0.027 C 
HETATM   10  C   UNL     1      53.426 108.804  37.815  1.00  0.00     0.023 C 
HETATM   11  C   UNL     1      55.487 111.847  36.141  1.00  0.00     0.033 C 
HETATM   12  C   UNL     1      52.571 109.244  38.814  1.00  0.00    -0.033 C 
HETATM   13  C   UNL     1      52.777 110.613  39.411  1.00  0.00    -0.065 C 
HETATM   14  C   UNL     1      55.201 110.221  34.377  1.00  0.00    -0.023 C 
HETATM   15  C   UNL     1      57.398 111.013  34.968  1.00  0.00     0.003 C 
HETATM   16  C   UNL     1      54.740 107.413  35.319  1.00  0.00     0.013 C 
HETATM   17  C   UNL     1      55.129 113.125  38.349  1.00  0.00     0.248 C 
HETATM   18  C   UNL     1      54.674 111.111  35.295  1.00  0.00     0.041 C 
HETATM   19  C   UNL     1      52.681 108.928  31.987  1.00  0.00     0.001 C 
HETATM   20  C   UNL     1      53.867 109.516  32.415  1.00  0.00     0.013 C 
HETATM   21  C   UNL     1      54.475 106.989  36.500  1.00  0.00     0.012 C 
HETATM   22  C   UNL     1      52.649 107.544  33.960  1.00  0.00     0.012 C 
HETATM   23  C   UNL     1      56.577 110.234  34.161  1.00  0.00     0.012 C 
HETATM   24  C   UNL     1      54.316 109.265  33.703  1.00  0.00    -0.016 C 
HETATM   25  C   UNL     1      53.865 108.104  34.344  1.00  0.00    -0.025 C 
HETATM   26  C   UNL     1      52.076 107.936  32.757  1.00  0.00     0.001 C 
HETATM   27  C   UNL     1      53.842 112.928  40.680  1.00  0.00     0.017 C 
HETATM   28  C   UNL     1      56.857 111.824  35.953  1.00  0.00     0.029 C 
HETATM   29  C   UNL     1      53.544 107.451  37.530  1.00  0.00    -0.035 C 
HETATM   30  C   UNL     1      53.844 112.886  39.159  1.00  0.00     0.080 C 
ENDROOT
BRANCH  17  31
HETATM   31  O   UNL     1      55.376 114.414  38.217  1.00  0.00    -0.348 OA
ATOM     32  HO  UNL     1      54.552 114.885  38.226  1.00  0.00     0.215 HD
ENDBRANCH  17  31
BRANCH  17  33
HETATM   33  O   UNL     1      56.170 112.539  38.941  1.00  0.00    -0.348 OA
ATOM     34  HO  UNL     1      56.925 113.113  38.991  1.00  0.00     0.215 HD
ENDBRANCH  17  33
TORSDOF 2
ENDMDL
MODEL 2
REMARK VINA RESULT:      -8.5      2.669      6.104
REMARK  2 active torsions:
REMARK  status: ('A' for Active; 'I' for Inactive)
REMARK    1  A    between atoms: C_17  and  O_18 
REMARK    2  A    between atoms: C_17  and  O_24 
ROOT
HETATM    1  C   UNL     1      52.606 109.321  39.514  1.00  0.00     0.002 C 
HETATM    2  C   UNL     1      54.410 106.574  34.852  1.00  0.00     0.014 C 
HETATM    3  C   UNL     1      52.880 110.689  39.515  1.00  0.00     0.011 C 
HETATM    4  C   UNL     1      53.074 108.529  38.464  1.00  0.00     0.011 C 
HETATM    5  N   UNL     1      55.583 110.388  33.602  1.00  0.00    -0.335 N 
ATOM      6  HN  UNL     1      56.246 109.707  33.971  1.00  0.00     0.165 HD
HETATM    7  C   UNL     1      52.335 107.554  35.589  1.00  0.00     0.040 C 
HETATM    8  C   UNL     1      52.934 106.722  34.448  1.00  0.00    -0.009 C 
HETATM    9  C   UNL     1      54.631 108.092  34.990  1.00  0.00     0.027 C 
HETATM   10  C   UNL     1      53.938 110.469  37.374  1.00  0.00     0.023 C 
HETATM   11  C   UNL     1      55.896 111.633  34.039  1.00  0.00     0.033 C 
HETATM   12  C   UNL     1      53.542 109.141  37.306  1.00  0.00    -0.033 C 
HETATM   13  C   UNL     1      53.509 108.449  35.967  1.00  0.00    -0.065 C 
HETATM   14  C   UNL     1      56.853 112.939  35.832  1.00  0.00    -0.023 C 
HETATM   15  C   UNL     1      55.934 114.020  33.886  1.00  0.00     0.003 C 
HETATM   16  C   UNL     1      55.084 113.270  38.229  1.00  0.00     0.013 C 
HETATM   17  C   UNL     1      54.635 109.755  32.806  1.00  0.00     0.248 C 
HETATM   18  C   UNL     1      56.597 111.721  35.231  1.00  0.00     0.041 C 
HETATM   19  C   UNL     1      59.220 112.694  38.674  1.00  0.00     0.001 C 
HETATM   20  C   UNL     1      58.694 113.158  37.473  1.00  0.00     0.013 C 
HETATM   21  C   UNL     1      53.993 112.661  38.519  1.00  0.00     0.012 C 
HETATM   22  C   UNL     1      56.992 112.269  39.491  1.00  0.00     0.012 C 
HETATM   23  C   UNL     1      56.587 114.100  35.110  1.00  0.00     0.012 C 
HETATM   24  C   UNL     1      57.343 112.977  37.214  1.00  0.00    -0.016 C 
HETATM   25  C   UNL     1      56.483 112.790  38.304  1.00  0.00    -0.025 C 
HETATM   26  C   UNL     1      58.368 112.256  39.686  1.00  0.00     0.001 C 
HETATM   27  C   UNL     1      52.991 107.704  33.269  1.00  0.00     0.017 C 
HETATM   28  C   UNL     1      55.593 112.791  33.345  1.00  0.00     0.029 C 
HETATM   29  C   UNL     1      53.604 111.251  38.470  1.00  0.00    -0.035 C 
HETATM   30  C   UNL     1      54.274 108.466  33.563  1.00  0.00     0.080 C 
ENDROOT
BRANCH  17  31
HETATM   31  O   UNL     1      55.178 109.484  31.636  1.00  0.00    -0.348 OA
ATOM     32  HO  UNL     1      54.530 109.632  30.957  1.00  0.00     0.215 HD
ENDBRANCH  17  31
BRANCH  17  33
HETATM   33  O   UNL     1      53.550 110.508  32.620  1.00  0.00    -0.348 OA
ATOM     34  HO  UNL     1      53.128 110.738  33.440  1.00  0.00     0.215 HD
ENDBRANCH  17  33
TORSDOF 2
ENDMDL
MODEL 3
REMARK VINA RESULT:      -8.5      3.196      6.860
REMARK  2 active torsions:
REMARK  status: ('A' for Active; 'I' for Inactive)
REMARK    1  A    between atoms: C_17  and  O_18 
REMARK    2  A    between atoms: C_17  and  O_24 
ROOT
HETATM    1  C   UNL     1      53.520 110.046  37.878  1.00  0.00     0.002 C 
HETATM    2  C   UNL     1      55.538 109.064  32.635  1.00  0.00     0.014 C 
HETATM    3  C   UNL     1      53.943 111.251  38.439  1.00  0.00     0.011 C 
HETATM    4  C   UNL     1      54.016 109.658  36.633  1.00  0.00     0.011 C 
HETATM    5  N   UNL     1      57.268 112.845  33.075  1.00  0.00    -0.335 N 
ATOM      6  HN  UNL     1      57.804 111.984  33.185  1.00  0.00     0.165 HD
HETATM    7  C   UNL     1      53.513 109.982  33.565  1.00  0.00     0.040 C 
HETATM    8  C   UNL     1      54.145 109.573  32.229  1.00  0.00    -0.009 C 
HETATM    9  C   UNL     1      55.910 110.361  33.376  1.00  0.00     0.027 C 
HETATM   10  C   UNL     1      55.213 111.715  36.457  1.00  0.00     0.023 C 
HETATM   11  C   UNL     1      57.665 113.765  33.989  1.00  0.00     0.033 C 
HETATM   12  C   UNL     1      54.682 110.590  35.844  1.00  0.00    -0.033 C 
HETATM   13  C   UNL     1      54.728 110.478  34.341  1.00  0.00    -0.065 C 
HETATM   14  C   UNL     1      58.546 114.125  36.209  1.00  0.00    -0.023 C 
HETATM   15  C   UNL     1      57.987 115.994  34.796  1.00  0.00     0.003 C 
HETATM   16  C   UNL     1      56.557 113.770  38.423  1.00  0.00     0.013 C 
HETATM   17  C   UNL     1      56.355 112.715  32.035  1.00  0.00     0.248 C 
HETATM   18  C   UNL     1      58.228 113.284  35.159  1.00  0.00     0.041 C 
HETATM   19  C   UNL     1      60.522 112.459  38.865  1.00  0.00     0.001 C 
HETATM   20  C   UNL     1      60.195 113.421  37.916  1.00  0.00     0.013 C 
HETATM   21  C   UNL     1      55.378 113.265  38.378  1.00  0.00     0.012 C 
HETATM   22  C   UNL     1      58.181 112.089  39.304  1.00  0.00     0.012 C 
HETATM   23  C   UNL     1      58.498 115.500  35.991  1.00  0.00     0.012 C 
HETATM   24  C   UNL     1      58.873 113.557  37.521  1.00  0.00    -0.016 C 
HETATM   25  C   UNL     1      57.875 113.096  38.390  1.00  0.00    -0.025 C 
HETATM   26  C   UNL     1      59.514 111.798  39.565  1.00  0.00     0.001 C 
HETATM   27  C   UNL     1      54.449 110.912  31.542  1.00  0.00     0.017 C 
HETATM   28  C   UNL     1      57.577 115.132  33.792  1.00  0.00     0.029 C 
HETATM   29  C   UNL     1      54.843 112.057  37.750  1.00  0.00    -0.035 C 
HETATM   30  C   UNL     1      55.766 111.303  32.194  1.00  0.00     0.080 C 
ENDROOT
BRANCH  17  31
HETATM   31  O   UNL     1      56.997 112.836  30.890  1.00  0.00    -0.348 OA
ATOM     32  HO  UNL     1      56.444 113.308  30.279  1.00  0.00     0.215 HD
ENDBRANCH  17  31
BRANCH  17  33
HETATM   33  O   UNL     1      55.390 113.633  32.094  1.00  0.00    -0.348 OA
ATOM     34  HO  UNL     1      55.301 114.005  32.963  1.00  0.00     0.215 HD
ENDBRANCH  17  33
TORSDOF 2
ENDMDL
MODEL 4
REMARK VINA RESULT:      -8.4      3.074      7.475
REMARK  2 active torsions:
REMARK  status: ('A' for Active; 'I' for Inactive)
REMARK    1  A    between atoms: C_17  and  O_18 
REMARK    2  A    between atoms: C_17  and  O_24 
ROOT
HETATM    1  C   UNL     1      53.333 110.531  38.398  1.00  0.00     0.002 C 
HETATM    2  C   UNL     1      57.757 110.938  34.822  1.00  0.00     0.014 C 
HETATM    3  C   UNL     1      53.127 111.663  39.187  1.00  0.00     0.011 C 
HETATM    4  C   UNL     1      54.435 110.481  37.545  1.00  0.00     0.011 C 
HETATM    5  N   UNL     1      58.077 114.811  36.366  1.00  0.00    -0.335 N 
ATOM      6  HN  UNL     1      58.692 114.053  36.663  1.00  0.00     0.165 HD
HETATM    7  C   UNL     1      55.377 111.291  34.677  1.00  0.00     0.040 C 
HETATM    8  C   UNL     1      56.644 111.262  33.812  1.00  0.00    -0.009 C 
HETATM    9  C   UNL     1      57.401 112.115  35.749  1.00  0.00     0.027 C 
HETATM   10  C   UNL     1      55.022 112.712  38.157  1.00  0.00     0.023 C 
HETATM   11  C   UNL     1      57.755 115.595  37.424  1.00  0.00     0.033 C 
HETATM   12  C   UNL     1      55.141 111.649  37.274  1.00  0.00    -0.033 C 
HETATM   13  C   UNL     1      55.916 111.836  35.994  1.00  0.00    -0.065 C 
HETATM   14  C   UNL     1      57.364 115.674  39.807  1.00  0.00    -0.023 C 
HETATM   15  C   UNL     1      57.094 117.650  38.456  1.00  0.00     0.003 C 
HETATM   16  C   UNL     1      54.723 114.559  40.685  1.00  0.00     0.013 C 
HETATM   17  C   UNL     1      57.828 114.722  35.002  1.00  0.00     0.248 C 
HETATM   18  C   UNL     1      57.798 115.006  38.677  1.00  0.00     0.041 C 
HETATM   19  C   UNL     1      58.195 113.907  42.957  1.00  0.00     0.001 C 
HETATM   20  C   UNL     1      58.128 114.960  42.051  1.00  0.00     0.013 C 
HETATM   21  C   UNL     1      53.872 113.872  40.014  1.00  0.00     0.012 C 
HETATM   22  C   UNL     1      56.098 113.054  42.128  1.00  0.00     0.012 C 
HETATM   23  C   UNL     1      57.085 117.035  39.702  1.00  0.00     0.012 C 
HETATM   24  C   UNL     1      57.162 114.933  41.056  1.00  0.00    -0.016 C 
HETATM   25  C   UNL     1      56.021 114.146  41.267  1.00  0.00    -0.025 C 
HETATM   26  C   UNL     1      57.175 112.958  43.001  1.00  0.00     0.001 C 
HETATM   27  C   UNL     1      56.893 112.739  33.478  1.00  0.00     0.017 C 
HETATM   28  C   UNL     1      57.434 116.936  37.318  1.00  0.00     0.029 C 
HETATM   29  C   UNL     1      54.015 112.731  39.110  1.00  0.00    -0.035 C 
HETATM   30  C   UNL     1      57.603 113.224  34.732  1.00  0.00     0.080 C 
ENDROOT
BRANCH  17  31
HETATM   31  O   UNL     1      58.881 115.171  34.348  1.00  0.00    -0.348 OA
ATOM     32  HO  UNL     1      58.799 116.111  34.245  1.00  0.00     0.215 HD
ENDBRANCH  17  31
BRANCH  17  33
HETATM   33  O   UNL     1      56.756 115.427  34.639  1.00  0.00    -0.348 OA
ATOM     34  HO  UNL     1      56.959 116.345  34.505  1.00  0.00     0.215 HD
ENDBRANCH  17  33
TORSDOF 2
ENDMDL
MODEL 5
REMARK VINA RESULT:      -8.3      4.245      6.087
REMARK  2 active torsions:
REMARK  status: ('A' for Active; 'I' for Inactive)
REMARK    1  A    between atoms: C_17  and  O_18 
REMARK    2  A    between atoms: C_17  and  O_24 
ROOT
HETATM    1  C   UNL     1      52.982 112.041  39.719  1.00  0.00     0.002 C 
HETATM    2  C   UNL     1      52.999 117.319  41.878  1.00  0.00     0.014 C 
HETATM    3  C   UNL     1      54.126 111.716  38.987  1.00  0.00     0.011 C 
HETATM    4  C   UNL     1      52.836 113.332  40.225  1.00  0.00     0.011 C 
HETATM    5  N   UNL     1      56.822 117.516  40.195  1.00  0.00    -0.335 N 
ATOM      6  HN  UNL     1      56.011 117.953  39.758  1.00  0.00     0.165 HD
HETATM    7  C   UNL     1      53.566 115.119  42.682  1.00  0.00     0.040 C 
HETATM    8  C   UNL     1      53.426 116.572  43.153  1.00  0.00    -0.009 C 
HETATM    9  C   UNL     1      54.201 116.815  41.057  1.00  0.00     0.027 C 
HETATM   10  C   UNL     1      55.003 113.909  39.407  1.00  0.00     0.023 C 
HETATM   11  C   UNL     1      57.629 116.973  39.250  1.00  0.00     0.033 C 
HETATM   12  C   UNL     1      53.936 114.183  40.250  1.00  0.00    -0.033 C 
HETATM   13  C   UNL     1      54.056 115.304  41.251  1.00  0.00    -0.065 C 
HETATM   14  C   UNL     1      57.735 115.927  37.075  1.00  0.00    -0.023 C 
HETATM   15  C   UNL     1      59.732 116.225  38.389  1.00  0.00     0.003 C 
HETATM   16  C   UNL     1      56.860 113.060  37.015  1.00  0.00     0.013 C 
HETATM   17  C   UNL     1      56.761 117.659  41.576  1.00  0.00     0.248 C 
HETATM   18  C   UNL     1      57.034 116.607  38.054  1.00  0.00     0.041 C 
HETATM   19  C   UNL     1      55.891 115.671  33.871  1.00  0.00     0.001 C 
HETATM   20  C   UNL     1      56.948 115.955  34.728  1.00  0.00     0.013 C 
HETATM   21  C   UNL     1      56.256 112.380  37.920  1.00  0.00     0.012 C 
HETATM   22  C   UNL     1      55.233 113.832  35.285  1.00  0.00     0.012 C 
HETATM   23  C   UNL     1      59.116 115.808  37.215  1.00  0.00     0.012 C 
HETATM   24  C   UNL     1      57.012 115.314  35.957  1.00  0.00    -0.016 C 
HETATM   25  C   UNL     1      56.331 114.098  36.101  1.00  0.00    -0.025 C 
HETATM   26  C   UNL     1      55.037 114.603  34.146  1.00  0.00     0.001 C 
HETATM   27  C   UNL     1      54.875 117.032  43.359  1.00  0.00     0.017 C 
HETATM   28  C   UNL     1      58.994 116.813  39.404  1.00  0.00     0.029 C 
HETATM   29  C   UNL     1      55.109 112.677  38.779  1.00  0.00    -0.035 C 
HETATM   30  C   UNL     1      55.291 117.394  41.942  1.00  0.00     0.080 C 
ENDROOT
BRANCH  17  31
HETATM   31  O   UNL     1      57.115 118.890  41.890  1.00  0.00    -0.348 OA
ATOM     32  HO  UNL     1      56.486 119.239  42.511  1.00  0.00     0.215 HD
ENDBRANCH  17  31
BRANCH  17  33
HETATM   33  O   UNL     1      57.562 116.800  42.208  1.00  0.00    -0.348 OA
ATOM     34  HO  UNL     1      58.089 117.224  42.874  1.00  0.00     0.215 HD
ENDBRANCH  17  33
TORSDOF 2
ENDMDL
MODEL 6
REMARK VINA RESULT:      -7.6      5.976      9.515
REMARK  2 active torsions:
REMARK  status: ('A' for Active; 'I' for Inactive)
REMARK    1  A    between atoms: C_17  and  O_18 
REMARK    2  A    between atoms: C_17  and  O_24 
ROOT
HETATM    1  C   UNL     1      62.906 112.804  37.001  1.00  0.00     0.002 C 
HETATM    2  C   UNL     1      62.567 117.804  34.280  1.00  0.00     0.014 C 
HETATM    3  C   UNL     1      61.686 112.143  37.142  1.00  0.00     0.011 C 
HETATM    4  C   UNL     1      62.936 114.074  36.427  1.00  0.00     0.011 C 
HETATM    5  N   UNL     1      58.525 116.808  33.886  1.00  0.00    -0.335 N 
ATOM      6  HN  UNL     1      58.856 117.479  34.579  1.00  0.00     0.165 HD
HETATM    7  C   UNL     1      63.092 115.533  33.667  1.00  0.00     0.040 C 
HETATM    8  C   UNL     1      63.055 116.955  33.094  1.00  0.00    -0.009 C 
HETATM    9  C   UNL     1      61.300 116.955  34.499  1.00  0.00     0.027 C 
HETATM   10  C   UNL     1      60.589 113.951  36.011  1.00  0.00     0.023 C 
HETATM   11  C   UNL     1      57.531 116.046  34.407  1.00  0.00     0.033 C 
HETATM   12  C   UNL     1      61.816 114.539  35.745  1.00  0.00    -0.033 C 
HETATM   13  C   UNL     1      61.921 115.563  34.642  1.00  0.00    -0.065 C 
HETATM   14  C   UNL     1      56.632 115.029  36.404  1.00  0.00    -0.023 C 
HETATM   15  C   UNL     1      55.569 114.684  34.271  1.00  0.00     0.003 C 
HETATM   16  C   UNL     1      58.087 112.578  37.332  1.00  0.00     0.013 C 
HETATM   17  C   UNL     1      59.230 116.957  32.698  1.00  0.00     0.248 C 
HETATM   18  C   UNL     1      57.518 115.889  35.782  1.00  0.00     0.041 C 
HETATM   19  C   UNL     1      56.610 115.376  40.094  1.00  0.00     0.001 C 
HETATM   20  C   UNL     1      56.094 115.313  38.804  1.00  0.00     0.013 C 
HETATM   21  C   UNL     1      59.220 112.116  36.946  1.00  0.00     0.012 C 
HETATM   22  C   UNL     1      58.351 113.827  39.479  1.00  0.00     0.012 C 
HETATM   23  C   UNL     1      55.598 114.485  35.646  1.00  0.00     0.012 C 
HETATM   24  C   UNL     1      56.830 114.678  37.814  1.00  0.00    -0.016 C 
HETATM   25  C   UNL     1      57.787 113.734  38.208  1.00  0.00    -0.025 C 
HETATM   26  C   UNL     1      57.735 114.626  40.434  1.00  0.00     0.001 C 
HETATM   27  C   UNL     1      61.843 116.940  32.152  1.00  0.00     0.017 C 
HETATM   28  C   UNL     1      56.528 115.468  33.649  1.00  0.00     0.029 C 
HETATM   29  C   UNL     1      60.515 112.750  36.701  1.00  0.00    -0.035 C 
HETATM   30  C   UNL     1      60.694 117.161  33.123  1.00  0.00     0.080 C 
ENDROOT
BRANCH  17  31
HETATM   31  O   UNL     1      58.768 118.015  32.060  1.00  0.00    -0.348 OA
ATOM     32  HO  UNL     1      59.276 118.139  31.267  1.00  0.00     0.215 HD
ENDBRANCH  17  31
BRANCH  17  33
HETATM   33  O   UNL     1      59.118 115.888  31.908  1.00  0.00    -0.348 OA
ATOM     34  HO  UNL     1      59.888 115.334  31.942  1.00  0.00     0.215 HD
ENDBRANCH  17  33
TORSDOF 2
ENDMDL
MODEL 7
REMARK VINA RESULT:      -7.5      3.483      5.039
REMARK  2 active torsions:
REMARK  status: ('A' for Active; 'I' for Inactive)
REMARK    1  A    between atoms: C_17  and  O_18 
REMARK    2  A    between atoms: C_17  and  O_24 
ROOT
HETATM    1  C   UNL     1      50.885 112.331  40.000  1.00  0.00     0.002 C 
HETATM    2  C   UNL     1      53.008 117.330  41.739  1.00  0.00     0.014 C 
HETATM    3  C   UNL     1      51.829 111.470  39.441  1.00  0.00     0.011 C 
HETATM    4  C   UNL     1      51.271 113.615  40.385  1.00  0.00     0.011 C 
HETATM    5  N   UNL     1      56.660 115.695  40.525  1.00  0.00    -0.335 N 
ATOM      6  HN  UNL     1      56.153 116.377  39.961  1.00  0.00     0.165 HD
HETATM    7  C   UNL     1      52.506 115.211  42.771  1.00  0.00     0.040 C 
HETATM    8  C   UNL     1      52.970 116.634  43.109  1.00  0.00    -0.009 C 
HETATM    9  C   UNL     1      53.935 116.273  41.111  1.00  0.00     0.027 C 
HETATM   10  C   UNL     1      53.531 113.123  39.797  1.00  0.00     0.023 C 
HETATM   11  C   UNL     1      57.225 114.754  39.729  1.00  0.00     0.033 C 
HETATM   12  C   UNL     1      52.625 113.920  40.480  1.00  0.00    -0.033 C 
HETATM   13  C   UNL     1      53.138 114.999  41.400  1.00  0.00    -0.065 C 
HETATM   14  C   UNL     1      57.039 113.505  37.670  1.00  0.00    -0.023 C 
HETATM   15  C   UNL     1      58.859 113.092  39.191  1.00  0.00     0.003 C 
HETATM   16  C   UNL     1      55.021 111.289  37.721  1.00  0.00     0.013 C 
HETATM   17  C   UNL     1      56.559 116.017  41.873  1.00  0.00     0.248 C 
HETATM   18  C   UNL     1      56.626 114.530  38.501  1.00  0.00     0.041 C 
HETATM   19  C   UNL     1      55.519 113.664  34.293  1.00  0.00     0.001 C 
HETATM   20  C   UNL     1      56.526 113.579  35.249  1.00  0.00     0.013 C 
HETATM   21  C   UNL     1      54.114 111.042  38.594  1.00  0.00     0.012 C 
HETATM   22  C   UNL     1      54.026 112.459  35.752  1.00  0.00     0.012 C 
HETATM   23  C   UNL     1      58.217 112.834  37.986  1.00  0.00     0.012 C 
HETATM   24  C   UNL     1      56.211 113.124  36.521  1.00  0.00    -0.016 C 
HETATM   25  C   UNL     1      55.063 112.335  36.673  1.00  0.00    -0.025 C 
HETATM   26  C   UNL     1      54.271 113.097  34.542  1.00  0.00     0.001 C 
HETATM   27  C   UNL     1      54.455 116.462  43.456  1.00  0.00     0.017 C 
HETATM   28  C   UNL     1      58.371 114.054  40.061  1.00  0.00     0.029 C 
HETATM   29  C   UNL     1      53.144 111.894  39.281  1.00  0.00    -0.035 C 
HETATM   30  C   UNL     1      55.095 116.441  42.076  1.00  0.00     0.080 C 
ENDROOT
BRANCH  17  31
HETATM   31  O   UNL     1      57.384 117.012  42.134  1.00  0.00    -0.348 OA
ATOM     32  HO  UNL     1      57.151 117.389  42.975  1.00  0.00     0.215 HD
ENDBRANCH  17  31
BRANCH  17  33
HETATM   33  O   UNL     1      56.859 114.984  42.662  1.00  0.00    -0.348 OA
ATOM     34  HO  UNL     1      56.111 114.688  43.166  1.00  0.00     0.215 HD
ENDBRANCH  17  33
TORSDOF 2
ENDMDL
MODEL 8
REMARK VINA RESULT:      -7.2      3.216      6.577
REMARK  2 active torsions:
REMARK  status: ('A' for Active; 'I' for Inactive)
REMARK    1  A    between atoms: C_17  and  O_18 
REMARK    2  A    between atoms: C_17  and  O_24 
ROOT
HETATM    1  C   UNL     1      54.891 111.119  35.741  1.00  0.00     0.002 C 
HETATM    2  C   UNL     1      51.232 112.840  39.763  1.00  0.00     0.014 C 
HETATM    3  C   UNL     1      56.224 111.430  36.008  1.00  0.00     0.011 C 
HETATM    4  C   UNL     1      53.896 111.563  36.612  1.00  0.00     0.011 C 
HETATM    5  N   UNL     1      54.691 114.114  41.736  1.00  0.00    -0.335 N 
ATOM      6  HN  UNL     1      54.078 114.760  41.237  1.00  0.00     0.165 HD
HETATM    7  C   UNL     1      52.393 110.793  39.241  1.00  0.00     0.040 C 
HETATM    8  C   UNL     1      51.336 111.368  40.194  1.00  0.00    -0.009 C 
HETATM    9  C   UNL     1      52.740 113.103  39.926  1.00  0.00     0.027 C 
HETATM   10  C   UNL     1      55.558 112.479  38.059  1.00  0.00     0.023 C 
HETATM   11  C   UNL     1      55.989 114.462  41.551  1.00  0.00     0.033 C 
HETATM   12  C   UNL     1      54.254 112.047  37.866  1.00  0.00    -0.033 C 
HETATM   13  C   UNL     1      53.313 111.992  39.042  1.00  0.00    -0.065 C 
HETATM   14  C   UNL     1      57.596 115.457  40.047  1.00  0.00    -0.023 C 
HETATM   15  C   UNL     1      58.297 114.565  42.171  1.00  0.00     0.003 C 
HETATM   16  C   UNL     1      58.441 113.702  37.769  1.00  0.00     0.013 C 
HETATM   17  C   UNL     1      53.940 113.149  42.394  1.00  0.00     0.248 C 
HETATM   18  C   UNL     1      56.290 115.168  40.398  1.00  0.00     0.041 C 
HETATM   19  C   UNL     1      57.852 117.821  37.204  1.00  0.00     0.001 C 
HETATM   20  C   UNL     1      58.085 117.306  38.474  1.00  0.00     0.013 C 
HETATM   21  C   UNL     1      57.930 112.595  37.369  1.00  0.00     0.012 C 
HETATM   22  C   UNL     1      57.657 115.584  36.328  1.00  0.00     0.012 C 
HETATM   23  C   UNL     1      58.599 115.222  40.984  1.00  0.00     0.012 C 
HETATM   24  C   UNL     1      57.893 115.951  38.698  1.00  0.00    -0.016 C 
HETATM   25  C   UNL     1      57.947 115.087  37.596  1.00  0.00    -0.025 C 
HETATM   26  C   UNL     1      57.646 116.959  36.128  1.00  0.00     0.001 C 
HETATM   27  C   UNL     1      52.065 111.449  41.543  1.00  0.00     0.017 C 
HETATM   28  C   UNL     1      56.995 114.190  42.461  1.00  0.00     0.029 C 
HETATM   29  C   UNL     1      56.550 112.168  37.140  1.00  0.00    -0.035 C 
HETATM   30  C   UNL     1      52.835 112.753  41.400  1.00  0.00     0.080 C 
ENDROOT
BRANCH  17  31
HETATM   31  O   UNL     1      53.428 113.682  43.487  1.00  0.00    -0.348 OA
ATOM     32  HO  UNL     1      53.008 114.502  43.258  1.00  0.00     0.215 HD
ENDBRANCH  17  31
BRANCH  17  33
HETATM   33  O   UNL     1      54.670 112.084  42.729  1.00  0.00    -0.348 OA
ATOM     34  HO  UNL     1      55.396 112.311  43.297  1.00  0.00     0.215 HD
ENDBRANCH  17  33
TORSDOF 2
ENDMDL
MODEL 9
REMARK VINA RESULT:      -7.1      4.291      8.080
REMARK  2 active torsions:
REMARK  status: ('A' for Active; 'I' for Inactive)
REMARK    1  A    between atoms: C_17  and  O_18 
REMARK    2  A    between atoms: C_17  and  O_24 
ROOT
HETATM    1  C   UNL     1      51.872 117.737  43.074  1.00  0.00     0.002 C 
HETATM    2  C   UNL     1      50.039 112.458  44.211  1.00  0.00     0.014 C 
HETATM    3  C   UNL     1      52.781 117.814  42.018  1.00  0.00     0.011 C 
HETATM    4  C   UNL     1      51.418 116.489  43.499  1.00  0.00     0.011 C 
HETATM    5  N   UNL     1      52.399 111.409  40.923  1.00  0.00    -0.335 N 
ATOM      6  HN  UNL     1      52.704 111.255  41.884  1.00  0.00     0.165 HD
HETATM    7  C   UNL     1      49.235 114.329  42.922  1.00  0.00     0.040 C 
HETATM    8  C   UNL     1      48.825 112.927  43.392  1.00  0.00    -0.009 C 
HETATM    9  C   UNL     1      51.038 112.700  43.064  1.00  0.00     0.027 C 
HETATM   10  C   UNL     1      52.647 115.435  41.745  1.00  0.00     0.023 C 
HETATM   11  C   UNL     1      53.446 111.808  40.158  1.00  0.00     0.033 C 
HETATM   12  C   UNL     1      51.640 115.374  42.696  1.00  0.00    -0.033 C 
HETATM   13  C   UNL     1      50.739 114.166  42.741  1.00  0.00    -0.065 C 
HETATM   14  C   UNL     1      55.543 113.004  40.108  1.00  0.00    -0.023 C 
HETATM   15  C   UNL     1      54.634 112.045  38.095  1.00  0.00     0.003 C 
HETATM   16  C   UNL     1      55.289 115.991  40.131  1.00  0.00     0.013 C 
HETATM   17  C   UNL     1      51.040 111.147  40.801  1.00  0.00     0.248 C 
HETATM   18  C   UNL     1      54.491 112.442  40.807  1.00  0.00     0.041 C 
HETATM   19  C   UNL     1      58.339 114.077  42.292  1.00  0.00     0.001 C 
HETATM   20  C   UNL     1      57.706 113.430  41.237  1.00  0.00     0.013 C 
HETATM   21  C   UNL     1      54.254 116.712  40.364  1.00  0.00     0.012 C 
HETATM   22  C   UNL     1      56.732 115.869  42.165  1.00  0.00     0.012 C 
HETATM   23  C   UNL     1      55.651 112.730  38.747  1.00  0.00     0.012 C 
HETATM   24  C   UNL     1      56.477 113.901  40.797  1.00  0.00    -0.016 C 
HETATM   25  C   UNL     1      56.145 115.234  41.073  1.00  0.00    -0.025 C 
HETATM   26  C   UNL     1      57.856 115.301  42.752  1.00  0.00     0.001 C 
HETATM   27  C   UNL     1      48.912 112.074  42.119  1.00  0.00     0.017 C 
HETATM   28  C   UNL     1      53.534 111.577  38.797  1.00  0.00     0.029 C 
HETATM   29  C   UNL     1      53.217 116.650  41.395  1.00  0.00    -0.035 C 
HETATM   30  C   UNL     1      50.399 111.761  42.056  1.00  0.00     0.080 C 
ENDROOT
BRANCH  17  31
HETATM   31  O   UNL     1      50.862 109.841  40.765  1.00  0.00    -0.348 OA
ATOM     32  HO  UNL     1      49.933 109.658  40.838  1.00  0.00     0.215 HD
ENDBRANCH  17  31
BRANCH  17  33
HETATM   33  O   UNL     1      50.520 111.688  39.699  1.00  0.00    -0.348 OA
ATOM     34  HO  UNL     1      51.152 112.216  39.225  1.00  0.00     0.215 HD
ENDBRANCH  17  33
TORSDOF 2
ENDMDL
