REMARK  0 active torsions:
REMARK  status: ('A' for Active; 'I' for Inactive)
ROOT
HETATM    1  C   UNL     1      71.160 -32.942 -14.374  1.00  0.00     0.002 C 
HETATM    2  C   UNL     1      69.351 -40.000 -14.967  1.00  0.00     0.045 C 
HETATM    3  C   UNL     1      71.110 -34.083 -13.565  1.00  0.00     0.001 C 
HETATM    4  C   UNL     1      70.386 -36.396 -19.765  1.00  0.00     0.009 C 
HETATM    5  C   UNL     1      70.887 -37.839 -17.727  1.00  0.00     0.024 C 
HETATM    6  C   UNL     1      74.401 -31.748 -17.838  1.00  0.00     0.029 C 
HETATM    7  C   UNL     1      73.115 -30.776 -19.652  1.00  0.00     0.007 C 
HETATM    8  C   UNL     1      70.183 -39.750 -16.251  1.00  0.00     0.016 C 
HETATM    9  C   UNL     1      72.461 -32.002 -19.840  1.00  0.00    -0.052 C 
HETATM   10  C   UNL     1      71.663 -38.757 -11.459  1.00  0.00     0.092 C 
HETATM   11  C   UNL     1      70.152 -40.372 -12.495  1.00  0.00     0.252 C 
HETATM   12  C   UNL     1      71.675 -37.936 -12.613  1.00  0.00     0.025 C 
HETATM   13  C   UNL     1      70.309 -38.184 -16.320  1.00  0.00     0.044 C 
HETATM   14  C   UNL     1      70.756 -35.400 -17.520  1.00  0.00     0.027 C 
HETATM   15  C   UNL     1      71.395 -35.439 -13.844  1.00  0.00     0.009 C 
HETATM   16  C   UNL     1      71.405 -36.096 -15.123  1.00  0.00    -0.036 C 
HETATM   17  C   UNL     1      71.757 -32.847 -15.625  1.00  0.00     0.030 C 
HETATM   18  C   UNL     1      70.137 -39.551 -13.747  1.00  0.00     0.017 C 
HETATM   19  C   UNL     1      71.779 -32.688 -22.144  1.00  0.00     0.010 C 
HETATM   20  C   UNL     1      70.285 -33.195 -20.256  1.00  0.00     0.018 C 
HETATM   21  O   UNL     1      69.393 -41.342 -12.363  1.00  0.00    -0.268 OA
HETATM   22  C   UNL     1      71.288 -32.174 -20.786  1.00  0.00     0.019 C 
HETATM   23  N   UNL     1      70.922 -39.926 -11.424  1.00  0.00    -0.333 N 
ATOM     24  HN  UNL     1      70.941 -40.488 -10.573  1.00  0.00     0.168 HD
HETATM   25  C   UNL     1      70.438 -36.465 -18.302  1.00  0.00    -0.018 C 
HETATM   26  C   UNL     1      73.653 -32.931 -17.944  1.00  0.00     0.033 C 
HETATM   27  N   UNL     1      73.547 -33.904 -16.935  1.00  0.00    -0.356 N 
ATOM     28  HN  UNL     1      74.328 -34.511 -16.686  1.00  0.00     0.166 HD
HETATM   29  C   UNL     1      70.684 -35.613 -20.774  1.00  0.00    -0.021 C 
HETATM   30  C   UNL     1      71.027 -38.369 -13.818  1.00  0.00    -0.036 C 
HETATM   31  C   UNL     1      74.172 -30.695 -18.731  1.00  0.00     0.003 C 
HETATM   32  C   UNL     1      70.085 -34.311 -21.290  1.00  0.00     0.009 C 
HETATM   33  S   UNL     1      72.017 -38.836 -18.617  1.00  0.00    -0.084 SA
HETATM   34  C   UNL     1      72.869 -33.107 -19.089  1.00  0.00     0.037 C 
HETATM   35  C   UNL     1      71.294 -37.659 -15.173  1.00  0.00     0.062 C 
HETATM   36  C   UNL     1      71.534 -35.211 -16.338  1.00  0.00    -0.002 C 
HETATM   37  C   UNL     1      72.310 -33.990 -16.293  1.00  0.00     0.043 C 
HETATM   38  C   UNL     1      70.867 -33.851 -22.530  1.00  0.00     0.009 C 
ENDROOT
TORSDOF 0
