REMARK  2 active torsions:
REMARK  status: ('A' for Active; 'I' for Inactive)
REMARK    1  A    between atoms: C_3  and  C_31 
REMARK    2  A    between atoms: S_30  and  C_31 
ROOT
HETATM    1  C   UNL     1      73.176 -32.371 -17.015  1.00  0.00    -0.036 C 
HETATM    2  C   UNL     1      71.374 -32.888 -15.301  1.00  0.00     0.013 C 
HETATM    3  C   UNL     1      70.927 -38.564 -14.823  1.00  0.00    -0.033 C 
HETATM    4  C   UNL     1      70.076 -38.650 -15.952  1.00  0.00     0.010 C 
HETATM    5  C   UNL     1      71.886 -37.893 -18.753  1.00  0.00     0.012 C 
HETATM    6  C   UNL     1      70.414 -39.213 -17.183  1.00  0.00     0.012 C 
HETATM    7  C   UNL     1      70.597 -38.359 -18.390  1.00  0.00    -0.036 C 
HETATM    8  C   UNL     1      70.892 -36.525 -20.514  1.00  0.00    -0.041 C 
HETATM    9  C   UNL     1      69.498 -38.027 -19.202  1.00  0.00     0.012 C 
HETATM   10  C   UNL     1      72.448 -35.174 -15.492  1.00  0.00    -0.025 C 
HETATM   11  C   UNL     1      69.664 -37.166 -20.302  1.00  0.00     0.009 C 
HETATM   12  C   UNL     1      72.059 -32.067 -16.204  1.00  0.00     0.012 C 
HETATM   13  C   UNL     1      73.102 -31.381 -20.274  1.00  0.00     0.111 C 
HETATM   14  C   UNL     1      73.794 -30.679 -19.106  1.00  0.00    -0.060 C 
HETATM   15  C   UNL     1      73.680 -33.673 -17.143  1.00  0.00     0.012 C 
HETATM   16  C   UNL     1      72.443 -30.376 -21.234  1.00  0.00     0.030 C 
HETATM   17  N   UNL     1      70.638 -34.120 -20.698  1.00  0.00    -0.376 N 
ATOM     18  HN  UNL     1      69.851 -34.211 -20.056  1.00  0.00     0.161 HD
HETATM   19  C   UNL     1      71.204 -32.909 -20.766  1.00  0.00     0.073 C 
HETATM   20  C   UNL     1      71.378 -34.328 -13.397  1.00  0.00     0.012 C 
HETATM   21  C   UNL     1      71.296 -36.804 -12.994  1.00  0.00     0.012 C 
HETATM   22  C   UNL     1      71.882 -31.182 -22.412  1.00  0.00     0.010 C 
HETATM   23  C   UNL     1      73.363 -34.868 -16.523  1.00  0.00     0.013 C 
HETATM   24  C   UNL     1      71.480 -37.269 -14.356  1.00  0.00    -0.028 C 
HETATM   25  C   UNL     1      71.435 -35.488 -12.622  1.00  0.00     0.002 C 
HETATM   26  C   UNL     1      72.316 -36.569 -15.241  1.00  0.00     0.024 C 
HETATM   27  C   UNL     1      70.671 -31.944 -21.815  1.00  0.00     0.076 C 
HETATM   28  C   UNL     1      71.012 -35.332 -21.435  1.00  0.00     0.159 C 
HETATM   29  C   UNL     1      75.050 -29.932 -19.530  1.00  0.00     0.045 C 
HETATM   30  C   UNL     1      71.774 -34.138 -14.745  1.00  0.00    -0.026 C 
HETATM   31  N   UNL     1      72.226 -32.508 -19.916  1.00  0.00    -0.372 N 
ATOM     32  HN  UNL     1      72.371 -33.000 -19.034  1.00  0.00     0.161 HD
HETATM   33  C   UNL     1      73.923 -31.252 -17.707  1.00  0.00     0.016 C 
HETATM   34  C   UNL     1      72.026 -36.990 -19.819  1.00  0.00     0.009 C 
ENDROOT
BRANCH   3  35
HETATM   35  C   UNL     1      71.374 -39.806 -14.088  1.00  0.00     0.196 C 
BRANCH  35  36
HETATM   36  S   UNL     1      70.456 -40.202 -12.718  1.00  0.00     0.254 S 
HETATM   37  O   UNL     1      70.952 -39.837 -11.502  1.00  0.00    -0.212 OA
HETATM   38  O   UNL     1      69.251 -40.848 -13.008  1.00  0.00    -0.212 OA
ENDBRANCH  35  36
ENDBRANCH   3  35
TORSDOF 2
