REMARK  6 active torsions:
REMARK  status: ('A' for Active; 'I' for Inactive)
REMARK    1  A    between atoms: C_3  and  C_33 
REMARK    2  A    between atoms: C_8  and  O_13 
REMARK    3  A    between atoms: O_17  and  C_30 
REMARK    4  A    between atoms: C_21  and  C_36 
REMARK    5  A    between atoms: C_22  and  C_29 
REMARK    6  A    between atoms: C_29  and  C_35 
ROOT
HETATM    1  C   UNL     1      41.348   1.657 137.618  1.00  0.00    -0.009 C 
HETATM    2  C   UNL     1      43.141   1.477 133.243  1.00  0.00    -0.018 C 
HETATM    3  C   UNL     1      40.536   1.455 140.075  1.00  0.00     0.002 C 
HETATM    4  C   UNL     1      40.771   1.030 138.767  1.00  0.00     0.014 C 
HETATM    5  C   UNL     1      42.253   2.845 137.754  1.00  0.00     0.042 C 
HETATM    6  N   UNL     1      42.532   3.424 138.990  1.00  0.00    -0.365 N 
ATOM      7  HN  UNL     1      43.047   4.299 138.888  1.00  0.00     0.165 HD
HETATM    8  C   UNL     1      41.021   1.016 136.356  1.00  0.00     0.029 C 
HETATM    9  C   UNL     1      43.427   2.798 135.471  1.00  0.00     0.015 C 
HETATM   10  C   UNL     1      40.750   1.205 132.563  1.00  0.00     0.038 C 
HETATM   11  C   UNL     1      42.107   1.314 132.206  1.00  0.00     0.015 C 
HETATM   12  C   UNL     1      41.313   2.331 140.874  1.00  0.00     0.017 C 
HETATM   13  C   UNL     1      43.045   3.397 136.664  1.00  0.00     0.031 C 
HETATM   14  C   UNL     1      40.316   1.287 133.949  1.00  0.00     0.076 C 
HETATM   15  C   UNL     1      42.298   3.129 140.302  1.00  0.00     0.088 C 
HETATM   16  C   UNL     1      42.698   1.884 134.628  1.00  0.00    -0.012 C 
HETATM   17  C   UNL     1      41.351   1.397 135.038  1.00  0.00     0.009 C 
ENDROOT
BRANCH   2  18
HETATM   18  C   UNL     1      44.511   1.210 132.861  1.00  0.00    -0.045 C 
HETATM   19  C   UNL     1      45.555   2.259 132.584  1.00  0.00    -0.073 C 
HETATM   20  C   UNL     1      46.956   1.850 132.592  1.00  0.00     0.039 C 
HETATM   21  C   UNL     1      47.301   0.461 132.348  1.00  0.00    -0.006 C 
HETATM   22  C   UNL     1      46.236  -0.569 132.176  1.00  0.00     0.010 C 
HETATM   23  C   UNL     1      44.871  -0.225 132.655  1.00  0.00     0.040 C 
BRANCH  19  24
HETATM   24  C   UNL     1      45.186   3.672 132.158  1.00  0.00     0.030 C 
HETATM   25  C   UNL     1      45.069   4.707 133.260  1.00  0.00     0.010 C 
ENDBRANCH  19  24
BRANCH  21  26
HETATM   26  C   UNL     1      48.751   0.006 132.370  1.00  0.00     0.043 C 
BRANCH  26  27
HETATM   27  C   UNL     1      48.927  -1.510 132.405  1.00  0.00    -0.055 C 
HETATM   28  C   UNL     1      49.012  -2.229 133.647  1.00  0.00     0.007 C 
HETATM   29  C   UNL     1      48.932  -3.664 133.652  1.00  0.00     0.003 C 
HETATM   30  C   UNL     1      48.894  -4.371 132.428  1.00  0.00     0.036 C 
HETATM   31  C   UNL     1      49.104  -3.660 131.199  1.00  0.00     0.066 C 
HETATM   32  C   UNL     1      48.985  -2.238 131.174  1.00  0.00     0.043 C 
BRANCH  31  33
HETATM   33  O   UNL     1      49.458  -4.349 130.080  1.00  0.00    -0.361 OA
ATOM     34  HO  UNL     1      49.597  -3.878 129.267  1.00  0.00     0.217 HD
ENDBRANCH  31  33
ENDBRANCH  26  27
ENDBRANCH  21  26
ENDBRANCH   2  18
BRANCH  14  35
HETATM   35  O   UNL     1      39.026   1.305 134.287  1.00  0.00    -0.360 OA
ATOM     36  HO  UNL     1      38.743   1.359 135.192  1.00  0.00     0.217 HD
ENDBRANCH  14  35
TORSDOF 6
