MODEL 1
REMARK VINA RESULT:     -12.1      0.000      0.000
REMARK  7 active torsions:
REMARK  status: ('A' for Active; 'I' for Inactive)
REMARK    1  A    between atoms: O_1  and  C_9 
REMARK    2  A    between atoms: C_9  and  C_23 
REMARK    3  A    between atoms: C_13  and  C_15 
REMARK    4  A    between atoms: C_17  and  O_32 
REMARK    5  A    between atoms: C_22  and  C_31 
REMARK    6  A    between atoms: C_25  and  C_28 
REMARK    7  A    between atoms: C_30  and  C_35 
ROOT
HETATM    1  C   UNL     1      43.990   2.124 132.350  1.00  0.00     0.009 C 
HETATM    2  C   UNL     1      45.199   2.476 132.435  1.00  0.00    -0.013 C 
ENDROOT
BRANCH   2   3
HETATM    3  C   UNL     1      46.489   1.778 132.783  1.00  0.00     0.085 A 
HETATM    4  C   UNL     1      46.351   0.285 132.583  1.00  0.00     0.054 A 
HETATM    5  C   UNL     1      47.399  -0.140 131.580  1.00  0.00    -0.033 A 
HETATM    6  C   UNL     1      48.267   1.042 131.228  1.00  0.00     0.218 A 
HETATM    7  C   UNL     1      47.626   2.234 131.891  1.00  0.00     0.167 A 
HETATM    8  O   UNL     1      48.115   3.355 131.904  1.00  0.00    -0.294 OA
BRANCH   5   9
HETATM    9  C   UNL     1      47.876  -1.562 131.744  1.00  0.00    -0.031 C 
HETATM   10  C   UNL     1      48.442  -2.055 132.933  1.00  0.00     0.012 C 
HETATM   11  C   UNL     1      48.968  -3.358 132.968  1.00  0.00     0.010 C 
HETATM   12  C   UNL     1      48.885  -4.174 131.834  1.00  0.00    -0.035 C 
HETATM   13  C   UNL     1      48.176  -3.744 130.715  1.00  0.00     0.010 C 
HETATM   14  C   UNL     1      47.783  -2.400 130.629  1.00  0.00     0.012 C 
BRANCH  12  15
HETATM   15  C   UNL     1      49.544  -5.536 131.817  1.00  0.00     0.202 C 
BRANCH  15  16
HETATM   16  O   UNL     1      49.283  -6.280 130.628  1.00  0.00    -0.396 OA
ATOM     17  HO  UNL     1      48.874  -5.767 129.942  1.00  0.00     0.209 HD
ENDBRANCH  15  16
ENDBRANCH  12  15
ENDBRANCH   5   9
BRANCH   6  18
HETATM   18  O   UNL     1      49.641   0.929 131.476  1.00  0.00    -0.384 OA
ATOM     19  HO  UNL     1      50.124   0.505 130.776  1.00  0.00     0.211 HD
ENDBRANCH   6  18
ENDBRANCH   2   3
BRANCH   1  20
HETATM   20  C   UNL     1      43.044   1.095 131.896  1.00  0.00    -0.025 C 
HETATM   21  C   UNL     1      43.111   0.527 130.603  1.00  0.00     0.012 C 
HETATM   22  C   UNL     1      41.899   0.232 129.945  1.00  0.00     0.001 C 
HETATM   23  C   UNL     1      40.707   0.162 130.672  1.00  0.00     0.001 C 
HETATM   24  C   UNL     1      40.739   0.366 132.076  1.00  0.00     0.013 C 
HETATM   25  C   UNL     1      41.936   0.713 132.729  1.00  0.00    -0.016 C 
BRANCH  25  26
HETATM   26  C   UNL     1      42.032   0.786 134.223  1.00  0.00    -0.024 A 
HETATM   27  C   UNL     1      41.590  -0.302 135.017  1.00  0.00     0.013 A 
HETATM   28  C   UNL     1      41.528  -0.212 136.414  1.00  0.00     0.013 A 
HETATM   29  C   UNL     1      41.967   0.971 137.077  1.00  0.00    -0.026 A 
HETATM   30  C   UNL     1      42.466   2.086 136.273  1.00  0.00    -0.025 A 
HETATM   31  C   UNL     1      42.023   1.067 138.497  1.00  0.00     0.012 C 
HETATM   32  C   UNL     1      42.887   3.270 136.932  1.00  0.00     0.012 C 
HETATM   33  C   UNL     1      42.518   1.951 134.859  1.00  0.00     0.024 A 
HETATM   34  C   UNL     1      43.032   3.288 138.333  1.00  0.00     0.001 C 
HETATM   35  C   UNL     1      42.520   2.228 139.114  1.00  0.00     0.001 C 
ENDBRANCH  25  26
ENDBRANCH   1  20
TORSDOF 7
ENDMDL
MODEL 2
REMARK VINA RESULT:     -11.9      3.089      8.395
REMARK  7 active torsions:
REMARK  status: ('A' for Active; 'I' for Inactive)
REMARK    1  A    between atoms: O_1  and  C_9 
REMARK    2  A    between atoms: C_9  and  C_23 
REMARK    3  A    between atoms: C_13  and  C_15 
REMARK    4  A    between atoms: C_17  and  O_32 
REMARK    5  A    between atoms: C_22  and  C_31 
REMARK    6  A    between atoms: C_25  and  C_28 
REMARK    7  A    between atoms: C_30  and  C_35 
ROOT
HETATM    1  C   UNL     1      44.550   0.670 131.452  1.00  0.00     0.009 C 
HETATM    2  C   UNL     1      43.448   0.054 131.426  1.00  0.00    -0.013 C 
ENDROOT
BRANCH   2   3
HETATM    3  C   UNL     1      42.410  -0.315 132.455  1.00  0.00     0.085 A 
HETATM    4  C   UNL     1      42.884   0.061 133.840  1.00  0.00     0.054 A 
HETATM    5  C   UNL     1      41.871   1.019 134.425  1.00  0.00    -0.033 A 
HETATM    6  C   UNL     1      40.710   1.166 133.474  1.00  0.00     0.218 A 
HETATM    7  C   UNL     1      41.109   0.426 132.223  1.00  0.00     0.167 A 
HETATM    8  O   UNL     1      40.367   0.249 131.267  1.00  0.00    -0.294 OA
BRANCH   5   9
HETATM    9  C   UNL     1      41.773   0.977 135.930  1.00  0.00    -0.031 C 
HETATM   10  C   UNL     1      41.143  -0.064 136.636  1.00  0.00     0.012 C 
HETATM   11  C   UNL     1      40.993   0.030 138.031  1.00  0.00     0.010 C 
HETATM   12  C   UNL     1      41.510   1.136 138.715  1.00  0.00    -0.035 C 
HETATM   13  C   UNL     1      42.279   2.079 138.038  1.00  0.00     0.010 C 
HETATM   14  C   UNL     1      42.303   2.062 136.636  1.00  0.00     0.012 C 
BRANCH  12  15
HETATM   15  C   UNL     1      41.259   1.308 140.198  1.00  0.00     0.202 C 
BRANCH  15  16
HETATM   16  O   UNL     1      42.429   1.140 140.996  1.00  0.00    -0.396 OA
ATOM     17  HO  UNL     1      42.342   1.490 141.875  1.00  0.00     0.209 HD
ENDBRANCH  15  16
ENDBRANCH  12  15
ENDBRANCH   5   9
BRANCH   6  18
HETATM   18  O   UNL     1      39.439   0.823 133.951  1.00  0.00    -0.384 OA
ATOM     19  HO  UNL     1      38.774   0.779 133.274  1.00  0.00     0.211 HD
ENDBRANCH   6  18
ENDBRANCH   2   3
BRANCH   1  20
HETATM   20  C   UNL     1      45.294   1.824 131.976  1.00  0.00    -0.025 C 
HETATM   21  C   UNL     1      44.671   3.066 132.242  1.00  0.00     0.012 C 
HETATM   22  C   UNL     1      45.394   4.243 131.960  1.00  0.00     0.001 C 
HETATM   23  C   UNL     1      46.778   4.188 131.775  1.00  0.00     0.001 C 
HETATM   24  C   UNL     1      47.444   2.941 131.900  1.00  0.00     0.013 C 
HETATM   25  C   UNL     1      46.721   1.756 132.129  1.00  0.00    -0.016 C 
BRANCH  25  26
HETATM   26  C   UNL     1      47.406   0.453 132.415  1.00  0.00    -0.024 A 
HETATM   27  C   UNL     1      48.268   0.334 133.534  1.00  0.00     0.013 A 
HETATM   28  C   UNL     1      49.035  -0.818 133.748  1.00  0.00     0.013 A 
HETATM   29  C   UNL     1      48.921  -1.932 132.866  1.00  0.00    -0.026 A 
HETATM   30  C   UNL     1      48.004  -1.840 131.730  1.00  0.00    -0.025 A 
HETATM   31  C   UNL     1      49.600  -3.161 133.104  1.00  0.00     0.012 C 
HETATM   32  C   UNL     1      47.903  -2.941 130.841  1.00  0.00     0.012 C 
HETATM   33  C   UNL     1      47.240  -0.655 131.553  1.00  0.00     0.024 A 
HETATM   34  C   UNL     1      48.501  -4.173 131.169  1.00  0.00     0.001 C 
HETATM   35  C   UNL     1      49.414  -4.257 132.244  1.00  0.00     0.001 C 
ENDBRANCH  25  26
ENDBRANCH   1  20
TORSDOF 7
ENDMDL
MODEL 3
REMARK VINA RESULT:     -11.5      1.508      2.797
REMARK  7 active torsions:
REMARK  status: ('A' for Active; 'I' for Inactive)
REMARK    1  A    between atoms: O_1  and  C_9 
REMARK    2  A    between atoms: C_9  and  C_23 
REMARK    3  A    between atoms: C_13  and  C_15 
REMARK    4  A    between atoms: C_17  and  O_32 
REMARK    5  A    between atoms: C_22  and  C_31 
REMARK    6  A    between atoms: C_25  and  C_28 
REMARK    7  A    between atoms: C_30  and  C_35 
ROOT
HETATM    1  C   UNL     1      44.083   2.778 134.665  1.00  0.00     0.009 C 
HETATM    2  C   UNL     1      45.089   3.357 134.167  1.00  0.00    -0.013 C 
ENDROOT
BRANCH   2   3
HETATM    3  C   UNL     1      46.310   2.905 133.408  1.00  0.00     0.085 A 
HETATM    4  C   UNL     1      46.586   1.443 133.675  1.00  0.00     0.054 A 
HETATM    5  C   UNL     1      46.557   0.723 132.346  1.00  0.00    -0.033 A 
HETATM    6  C   UNL     1      46.378   1.725 131.234  1.00  0.00     0.218 A 
HETATM    7  C   UNL     1      46.118   3.047 131.912  1.00  0.00     0.167 A 
HETATM    8  O   UNL     1      46.023   4.112 131.318  1.00  0.00    -0.294 OA
BRANCH   5   9
HETATM    9  C   UNL     1      47.429  -0.508 132.287  1.00  0.00    -0.031 C 
HETATM   10  C   UNL     1      47.270  -1.522 131.326  1.00  0.00     0.012 C 
HETATM   11  C   UNL     1      48.048  -2.691 131.410  1.00  0.00     0.010 C 
HETATM   12  C   UNL     1      49.007  -2.818 132.422  1.00  0.00    -0.035 C 
HETATM   13  C   UNL     1      49.278  -1.746 133.266  1.00  0.00     0.010 C 
HETATM   14  C   UNL     1      48.408  -0.646 133.275  1.00  0.00     0.012 C 
BRANCH  12  15
HETATM   15  C   UNL     1      49.772  -4.113 132.596  1.00  0.00     0.202 C 
BRANCH  15  16
HETATM   16  O   UNL     1      49.964  -4.829 131.377  1.00  0.00    -0.396 OA
ATOM     17  HO  UNL     1      50.246  -4.279 130.655  1.00  0.00     0.209 HD
ENDBRANCH  15  16
ENDBRANCH  12  15
ENDBRANCH   5   9
BRANCH   6  18
HETATM   18  O   UNL     1      47.373   1.781 130.250  1.00  0.00    -0.384 OA
ATOM     19  HO  UNL     1      47.110   2.248 129.465  1.00  0.00     0.211 HD
ENDBRANCH   6  18
ENDBRANCH   2   3
BRANCH   1  20
HETATM   20  C   UNL     1      43.050   1.749 134.482  1.00  0.00    -0.025 C 
HETATM   21  C   UNL     1      43.011   0.913 133.341  1.00  0.00     0.012 C 
HETATM   22  C   UNL     1      41.749   0.576 132.810  1.00  0.00     0.001 C 
HETATM   23  C   UNL     1      40.595   0.754 133.578  1.00  0.00     0.001 C 
HETATM   24  C   UNL     1      40.714   1.252 134.902  1.00  0.00     0.013 C 
HETATM   25  C   UNL     1      41.965   1.639 135.418  1.00  0.00    -0.016 C 
BRANCH  25  26
HETATM   26  C   UNL     1      42.144   2.024 136.856  1.00  0.00    -0.024 A 
HETATM   27  C   UNL     1      43.076   3.032 137.211  1.00  0.00     0.013 A 
HETATM   28  C   UNL     1      43.375   3.314 138.549  1.00  0.00     0.013 A 
HETATM   29  C   UNL     1      42.700   2.625 139.598  1.00  0.00    -0.026 A 
HETATM   30  C   UNL     1      41.705   1.611 139.247  1.00  0.00    -0.025 A 
HETATM   31  C   UNL     1      42.894   2.953 140.970  1.00  0.00     0.012 C 
HETATM   32  C   UNL     1      41.044   0.912 140.290  1.00  0.00     0.012 C 
HETATM   33  C   UNL     1      41.427   1.360 137.876  1.00  0.00     0.024 A 
HETATM   34  C   UNL     1      41.179   1.338 141.626  1.00  0.00     0.001 C 
HETATM   35  C   UNL     1      42.163   2.291 141.972  1.00  0.00     0.001 C 
ENDBRANCH  25  26
ENDBRANCH   1  20
TORSDOF 7
ENDMDL
MODEL 4
REMARK VINA RESULT:     -11.5      1.028      4.583
REMARK  7 active torsions:
REMARK  status: ('A' for Active; 'I' for Inactive)
REMARK    1  A    between atoms: O_1  and  C_9 
REMARK    2  A    between atoms: C_9  and  C_23 
REMARK    3  A    between atoms: C_13  and  C_15 
REMARK    4  A    between atoms: C_17  and  O_32 
REMARK    5  A    between atoms: C_22  and  C_31 
REMARK    6  A    between atoms: C_25  and  C_28 
REMARK    7  A    between atoms: C_30  and  C_35 
ROOT
HETATM    1  C   UNL     1      43.951   2.377 133.305  1.00  0.00     0.009 C 
HETATM    2  C   UNL     1      44.963   2.124 132.594  1.00  0.00    -0.013 C 
ENDROOT
BRANCH   2   3
HETATM    3  C   UNL     1      46.323   1.527 132.853  1.00  0.00     0.085 A 
HETATM    4  C   UNL     1      46.281   0.025 132.679  1.00  0.00     0.054 A 
HETATM    5  C   UNL     1      47.281  -0.338 131.605  1.00  0.00    -0.033 A 
HETATM    6  C   UNL     1      48.032   0.898 131.177  1.00  0.00     0.218 A 
HETATM    7  C   UNL     1      47.355   2.050 131.874  1.00  0.00     0.167 A 
HETATM    8  O   UNL     1      47.760   3.203 131.839  1.00  0.00    -0.294 OA
BRANCH   5   9
HETATM    9  C   UNL     1      47.872  -1.719 131.748  1.00  0.00    -0.031 C 
HETATM   10  C   UNL     1      48.521  -2.165 132.914  1.00  0.00     0.012 C 
HETATM   11  C   UNL     1      49.146  -3.425 132.926  1.00  0.00     0.010 C 
HETATM   12  C   UNL     1      49.081  -4.246 131.794  1.00  0.00    -0.035 C 
HETATM   13  C   UNL     1      48.297  -3.874 130.705  1.00  0.00     0.010 C 
HETATM   14  C   UNL     1      47.799  -2.565 130.637  1.00  0.00     0.012 C 
BRANCH  12  15
HETATM   15  C   UNL     1      49.842  -5.554 131.749  1.00  0.00     0.202 C 
BRANCH  15  16
HETATM   16  O   UNL     1      49.459  -6.398 130.665  1.00  0.00    -0.396 OA
ATOM     17  HO  UNL     1      49.061  -5.929 129.942  1.00  0.00     0.209 HD
ENDBRANCH  15  16
ENDBRANCH  12  15
ENDBRANCH   5   9
BRANCH   6  18
HETATM   18  O   UNL     1      49.424   0.889 131.323  1.00  0.00    -0.384 OA
ATOM     19  HO  UNL     1      49.864   1.590 130.856  1.00  0.00     0.211 HD
ENDBRANCH   6  18
ENDBRANCH   2   3
BRANCH   1  20
HETATM   20  C   UNL     1      43.057   1.906 134.372  1.00  0.00    -0.025 C 
HETATM   21  C   UNL     1      42.858   2.636 135.567  1.00  0.00     0.012 C 
HETATM   22  C   UNL     1      42.719   1.913 136.770  1.00  0.00     0.001 C 
HETATM   23  C   UNL     1      42.426   0.547 136.736  1.00  0.00     0.001 C 
HETATM   24  C   UNL     1      42.247  -0.092 135.481  1.00  0.00     0.013 C 
HETATM   25  C   UNL     1      42.437   0.613 134.278  1.00  0.00    -0.016 C 
BRANCH  25  26
HETATM   26  C   UNL     1      42.110   0.009 132.946  1.00  0.00    -0.024 A 
HETATM   27  C   UNL     1      42.822  -1.127 132.486  1.00  0.00     0.013 A 
HETATM   28  C   UNL     1      42.646  -1.627 131.189  1.00  0.00     0.013 A 
HETATM   29  C   UNL     1      41.692  -1.032 130.313  1.00  0.00    -0.026 A 
HETATM   30  C   UNL     1      40.919   0.116 130.789  1.00  0.00    -0.025 A 
HETATM   31  C   UNL     1      41.403  -1.571 129.028  1.00  0.00     0.012 C 
HETATM   32  C   UNL     1      39.982   0.720 129.910  1.00  0.00     0.012 C 
HETATM   33  C   UNL     1      41.125   0.588 132.113  1.00  0.00     0.024 A 
HETATM   34  C   UNL     1      39.645   0.095 128.694  1.00  0.00     0.001 C 
HETATM   35  C   UNL     1      40.412  -0.992 128.217  1.00  0.00     0.001 C 
ENDBRANCH  25  26
ENDBRANCH   1  20
TORSDOF 7
ENDMDL
MODEL 5
REMARK VINA RESULT:     -11.3      1.289      4.676
REMARK  7 active torsions:
REMARK  status: ('A' for Active; 'I' for Inactive)
REMARK    1  A    between atoms: O_1  and  C_9 
REMARK    2  A    between atoms: C_9  and  C_23 
REMARK    3  A    between atoms: C_13  and  C_15 
REMARK    4  A    between atoms: C_17  and  O_32 
REMARK    5  A    between atoms: C_22  and  C_31 
REMARK    6  A    between atoms: C_25  and  C_28 
REMARK    7  A    between atoms: C_30  and  C_35 
ROOT
HETATM    1  C   UNL     1      43.600   3.652 135.122  1.00  0.00     0.009 C 
HETATM    2  C   UNL     1      44.436   3.754 134.181  1.00  0.00    -0.013 C 
ENDROOT
BRANCH   2   3
HETATM    3  C   UNL     1      45.864   3.320 133.974  1.00  0.00     0.085 A 
HETATM    4  C   UNL     1      45.958   1.812 133.940  1.00  0.00     0.054 A 
HETATM    5  C   UNL     1      46.555   1.421 132.608  1.00  0.00    -0.033 A 
HETATM    6  C   UNL     1      46.943   2.664 131.846  1.00  0.00     0.218 A 
HETATM    7  C   UNL     1      46.411   3.821 132.653  1.00  0.00     0.167 A 
HETATM    8  O   UNL     1      46.627   4.995 132.387  1.00  0.00    -0.294 OA
BRANCH   5   9
HETATM    9  C   UNL     1      47.332   0.127 132.630  1.00  0.00    -0.031 C 
HETATM   10  C   UNL     1      46.938  -1.023 131.922  1.00  0.00     0.012 C 
HETATM   11  C   UNL     1      47.653  -2.223 132.087  1.00  0.00     0.010 C 
HETATM   12  C   UNL     1      48.777  -2.255 132.921  1.00  0.00    -0.035 C 
HETATM   13  C   UNL     1      49.261  -1.079 133.486  1.00  0.00     0.010 C 
HETATM   14  C   UNL     1      48.470   0.078 133.439  1.00  0.00     0.012 C 
BRANCH  12  15
HETATM   15  C   UNL     1      49.489  -3.562 133.199  1.00  0.00     0.202 C 
BRANCH  15  16
HETATM   16  O   UNL     1      49.862  -4.269 132.018  1.00  0.00    -0.396 OA
ATOM     17  HO  UNL     1      50.397  -5.036 132.189  1.00  0.00     0.209 HD
ENDBRANCH  15  16
ENDBRANCH  12  15
ENDBRANCH   5   9
BRANCH   6  18
HETATM   18  O   UNL     1      48.288   2.802 131.480  1.00  0.00    -0.384 OA
ATOM     19  HO  UNL     1      48.889   2.800 132.216  1.00  0.00     0.211 HD
ENDBRANCH   6  18
ENDBRANCH   2   3
BRANCH   1  20
HETATM   20  C   UNL     1      43.025   2.783 136.157  1.00  0.00    -0.025 C 
HETATM   21  C   UNL     1      43.056   3.122 137.530  1.00  0.00     0.012 C 
HETATM   22  C   UNL     1      43.263   2.086 138.464  1.00  0.00     0.001 C 
HETATM   23  C   UNL     1      43.082   0.754 138.084  1.00  0.00     0.001 C 
HETATM   24  C   UNL     1      42.664   0.462 136.759  1.00  0.00     0.013 C 
HETATM   25  C   UNL     1      42.507   1.488 135.809  1.00  0.00    -0.016 C 
BRANCH  25  26
HETATM   26  C   UNL     1      41.923   1.230 134.453  1.00  0.00    -0.024 A 
HETATM   27  C   UNL     1      40.517   1.173 134.283  1.00  0.00     0.013 A 
HETATM   28  C   UNL     1      39.941   0.790 133.065  1.00  0.00     0.013 A 
HETATM   29  C   UNL     1      40.766   0.500 131.939  1.00  0.00    -0.026 A 
HETATM   30  C   UNL     1      42.219   0.595 132.088  1.00  0.00    -0.025 A 
HETATM   31  C   UNL     1      40.223   0.211 130.656  1.00  0.00     0.012 C 
HETATM   32  C   UNL     1      43.041   0.289 130.973  1.00  0.00     0.012 C 
HETATM   33  C   UNL     1      42.761   0.993 133.339  1.00  0.00     0.024 A 
HETATM   34  C   UNL     1      42.470   0.116 129.697  1.00  0.00     0.001 C 
HETATM   35  C   UNL     1      41.070  -0.010 129.556  1.00  0.00     0.001 C 
ENDBRANCH  25  26
ENDBRANCH   1  20
TORSDOF 7
ENDMDL
MODEL 6
REMARK VINA RESULT:     -11.3      3.494      6.499
REMARK  7 active torsions:
REMARK  status: ('A' for Active; 'I' for Inactive)
REMARK    1  A    between atoms: O_1  and  C_9 
REMARK    2  A    between atoms: C_9  and  C_23 
REMARK    3  A    between atoms: C_13  and  C_15 
REMARK    4  A    between atoms: C_17  and  O_32 
REMARK    5  A    between atoms: C_22  and  C_31 
REMARK    6  A    between atoms: C_25  and  C_28 
REMARK    7  A    between atoms: C_30  and  C_35 
ROOT
HETATM    1  C   UNL     1      43.500   0.586 133.678  1.00  0.00     0.009 C 
HETATM    2  C   UNL     1      43.624  -0.481 133.015  1.00  0.00    -0.013 C 
ENDROOT
BRANCH   2   3
HETATM    3  C   UNL     1      43.457  -0.861 131.566  1.00  0.00     0.085 A 
HETATM    4  C   UNL     1      42.010  -0.724 131.149  1.00  0.00     0.054 A 
HETATM    5  C   UNL     1      41.956   0.259 130.002  1.00  0.00    -0.033 A 
HETATM    6  C   UNL     1      43.359   0.659 129.616  1.00  0.00     0.218 A 
HETATM    7  C   UNL     1      44.260   0.047 130.658  1.00  0.00     0.167 A 
HETATM    8  O   UNL     1      45.482   0.080 130.609  1.00  0.00    -0.294 OA
BRANCH   5   9
HETATM    9  C   UNL     1      40.813   0.034 129.043  1.00  0.00    -0.031 C 
HETATM   10  C   UNL     1      39.731   0.923 128.909  1.00  0.00     0.012 C 
HETATM   11  C   UNL     1      38.648   0.584 128.078  1.00  0.00     0.010 C 
HETATM   12  C   UNL     1      38.673  -0.615 127.356  1.00  0.00    -0.035 C 
HETATM   13  C   UNL     1      39.816  -1.409 127.361  1.00  0.00     0.010 C 
HETATM   14  C   UNL     1      40.828  -1.147 128.295  1.00  0.00     0.012 C 
BRANCH  12  15
HETATM   15  C   UNL     1      37.469  -1.049 126.547  1.00  0.00     0.202 C 
BRANCH  15  16
HETATM   16  O   UNL     1      36.586   0.022 126.220  1.00  0.00    -0.396 OA
ATOM     17  HO  UNL     1      36.830   0.487 125.429  1.00  0.00     0.209 HD
ENDBRANCH  15  16
ENDBRANCH  12  15
ENDBRANCH   5   9
BRANCH   6  18
HETATM   18  O   UNL     1      43.763   0.403 128.300  1.00  0.00    -0.384 OA
ATOM     19  HO  UNL     1      43.087   0.007 127.761  1.00  0.00     0.211 HD
ENDBRANCH   6  18
ENDBRANCH   2   3
BRANCH   1  20
HETATM   20  C   UNL     1      43.755   2.033 133.725  1.00  0.00    -0.025 C 
HETATM   21  C   UNL     1      43.976   2.798 132.556  1.00  0.00     0.012 C 
HETATM   22  C   UNL     1      44.927   3.838 132.614  1.00  0.00     0.001 C 
HETATM   23  C   UNL     1      45.359   4.322 133.851  1.00  0.00     0.001 C 
HETATM   24  C   UNL     1      44.812   3.774 135.040  1.00  0.00     0.013 C 
HETATM   25  C   UNL     1      43.902   2.701 134.988  1.00  0.00    -0.016 C 
BRANCH  25  26
HETATM   26  C   UNL     1      43.194   2.203 136.212  1.00  0.00    -0.024 A 
HETATM   27  C   UNL     1      42.160   1.240 136.092  1.00  0.00     0.013 A 
HETATM   28  C   UNL     1      41.380   0.861 137.192  1.00  0.00     0.013 A 
HETATM   29  C   UNL     1      41.650   1.401 138.484  1.00  0.00    -0.026 A 
HETATM   30  C   UNL     1      42.741   2.364 138.631  1.00  0.00    -0.025 A 
HETATM   31  C   UNL     1      40.955   0.966 139.648  1.00  0.00     0.012 C 
HETATM   32  C   UNL     1      42.998   2.915 139.913  1.00  0.00     0.012 C 
HETATM   33  C   UNL     1      43.511   2.716 137.490  1.00  0.00     0.024 A 
HETATM   34  C   UNL     1      42.368   2.382 141.053  1.00  0.00     0.001 C 
HETATM   35  C   UNL     1      41.291   1.477 140.913  1.00  0.00     0.001 C 
ENDBRANCH  25  26
ENDBRANCH   1  20
TORSDOF 7
ENDMDL
MODEL 7
REMARK VINA RESULT:     -11.2      3.264      8.230
REMARK  7 active torsions:
REMARK  status: ('A' for Active; 'I' for Inactive)
REMARK    1  A    between atoms: O_1  and  C_9 
REMARK    2  A    between atoms: C_9  and  C_23 
REMARK    3  A    between atoms: C_13  and  C_15 
REMARK    4  A    between atoms: C_17  and  O_32 
REMARK    5  A    between atoms: C_22  and  C_31 
REMARK    6  A    between atoms: C_25  and  C_28 
REMARK    7  A    between atoms: C_30  and  C_35 
ROOT
HETATM    1  C   UNL     1      42.106   1.357 131.873  1.00  0.00     0.009 C 
HETATM    2  C   UNL     1      42.593   1.719 132.980  1.00  0.00    -0.013 C 
ENDROOT
BRANCH   2   3
HETATM    3  C   UNL     1      42.916   1.025 134.279  1.00  0.00     0.085 A 
HETATM    4  C   UNL     1      42.760   1.979 135.441  1.00  0.00     0.054 A 
HETATM    5  C   UNL     1      41.733   1.390 136.381  1.00  0.00    -0.033 A 
HETATM    6  C   UNL     1      41.323   0.026 135.887  1.00  0.00     0.218 A 
HETATM    7  C   UNL     1      41.976  -0.135 134.538  1.00  0.00     0.167 A 
HETATM    8  O   UNL     1      41.944  -1.166 133.881  1.00  0.00    -0.294 OA
BRANCH   5   9
HETATM    9  C   UNL     1      41.918   1.780 137.827  1.00  0.00    -0.031 C 
HETATM   10  C   UNL     1      42.838   2.756 138.252  1.00  0.00     0.012 C 
HETATM   11  C   UNL     1      43.032   2.980 139.627  1.00  0.00     0.010 C 
HETATM   12  C   UNL     1      42.278   2.262 140.563  1.00  0.00    -0.035 C 
HETATM   13  C   UNL     1      41.253   1.422 140.137  1.00  0.00     0.010 C 
HETATM   14  C   UNL     1      41.160   1.092 138.778  1.00  0.00     0.012 C 
BRANCH  12  15
HETATM   15  C   UNL     1      42.553   2.408 142.045  1.00  0.00     0.202 C 
BRANCH  15  16
HETATM   16  O   UNL     1      42.640   3.764 142.477  1.00  0.00    -0.396 OA
ATOM     17  HO  UNL     1      43.504   4.009 142.785  1.00  0.00     0.209 HD
ENDBRANCH  15  16
ENDBRANCH  12  15
ENDBRANCH   5   9
BRANCH   6  18
HETATM   18  O   UNL     1      41.528  -1.061 136.746  1.00  0.00    -0.384 OA
ATOM     19  HO  UNL     1      41.492  -0.833 137.668  1.00  0.00     0.211 HD
ENDBRANCH   6  18
ENDBRANCH   2   3
BRANCH   1  20
HETATM   20  C   UNL     1      42.090   0.332 130.821  1.00  0.00    -0.025 C 
HETATM   21  C   UNL     1      40.953   0.097 130.013  1.00  0.00     0.012 C 
HETATM   22  C   UNL     1      40.658  -1.234 129.654  1.00  0.00     0.001 C 
HETATM   23  C   UNL     1      41.635  -2.226 129.780  1.00  0.00     0.001 C 
HETATM   24  C   UNL     1      42.927  -1.871 130.248  1.00  0.00     0.013 C 
HETATM   25  C   UNL     1      43.210  -0.554 130.657  1.00  0.00    -0.016 C 
BRANCH  25  26
HETATM   26  C   UNL     1      44.599  -0.116 131.010  1.00  0.00    -0.024 A 
HETATM   27  C   UNL     1      45.084   1.139 130.562  1.00  0.00     0.013 A 
HETATM   28  C   UNL     1      46.420   1.516 130.747  1.00  0.00     0.013 A 
HETATM   29  C   UNL     1      47.318   0.661 131.450  1.00  0.00    -0.026 A 
HETATM   30  C   UNL     1      46.821  -0.619 131.955  1.00  0.00    -0.025 A 
HETATM   31  C   UNL     1      48.653   1.049 131.754  1.00  0.00     0.012 C 
HETATM   32  C   UNL     1      47.719  -1.478 132.640  1.00  0.00     0.012 C 
HETATM   33  C   UNL     1      45.457  -0.960 131.751  1.00  0.00     0.024 A 
HETATM   34  C   UNL     1      48.994  -1.016 133.017  1.00  0.00     0.001 C 
HETATM   35  C   UNL     1      49.489   0.203 132.502  1.00  0.00     0.001 C 
ENDBRANCH  25  26
ENDBRANCH   1  20
TORSDOF 7
ENDMDL
MODEL 8
REMARK VINA RESULT:     -11.1      3.135      7.450
REMARK  7 active torsions:
REMARK  status: ('A' for Active; 'I' for Inactive)
REMARK    1  A    between atoms: O_1  and  C_9 
REMARK    2  A    between atoms: C_9  and  C_23 
REMARK    3  A    between atoms: C_13  and  C_15 
REMARK    4  A    between atoms: C_17  and  O_32 
REMARK    5  A    between atoms: C_22  and  C_31 
REMARK    6  A    between atoms: C_25  and  C_28 
REMARK    7  A    between atoms: C_30  and  C_35 
ROOT
HETATM    1  C   UNL     1      46.507   2.299 131.679  1.00  0.00     0.009 C 
HETATM    2  C   UNL     1      45.817   3.314 131.975  1.00  0.00    -0.013 C 
ENDROOT
BRANCH   2   3
HETATM    3  C   UNL     1      44.608   3.564 132.840  1.00  0.00     0.085 A 
HETATM    4  C   UNL     1      43.581   2.473 132.639  1.00  0.00     0.054 A 
HETATM    5  C   UNL     1      43.334   1.826 133.982  1.00  0.00    -0.033 A 
HETATM    6  C   UNL     1      44.105   2.564 135.047  1.00  0.00     0.218 A 
HETATM    7  C   UNL     1      44.967   3.559 134.312  1.00  0.00     0.167 A 
HETATM    8  O   UNL     1      45.658   4.404 134.864  1.00  0.00    -0.294 OA
BRANCH   5   9
HETATM    9  C   UNL     1      41.952   1.241 134.146  1.00  0.00    -0.031 C 
HETATM   10  C   UNL     1      40.938   1.372 133.179  1.00  0.00     0.012 C 
HETATM   11  C   UNL     1      39.644   0.899 133.458  1.00  0.00     0.010 C 
HETATM   12  C   UNL     1      39.382   0.260 134.676  1.00  0.00    -0.035 C 
HETATM   13  C   UNL     1      40.424  -0.017 135.556  1.00  0.00     0.010 C 
HETATM   14  C   UNL     1      41.675   0.580 135.346  1.00  0.00     0.012 C 
BRANCH  12  15
HETATM   15  C   UNL     1      37.972  -0.153 135.039  1.00  0.00     0.202 C 
BRANCH  15  16
HETATM   16  O   UNL     1      37.902  -0.979 136.199  1.00  0.00    -0.396 OA
ATOM     17  HO  UNL     1      37.711  -1.889 136.006  1.00  0.00     0.209 HD
ENDBRANCH  15  16
ENDBRANCH  12  15
ENDBRANCH   5   9
BRANCH   6  18
HETATM   18  O   UNL     1      43.374   3.123 136.103  1.00  0.00    -0.384 OA
ATOM     19  HO  UNL     1      42.759   3.794 135.831  1.00  0.00     0.211 HD
ENDBRANCH   6  18
ENDBRANCH   2   3
BRANCH   1  20
HETATM   20  C   UNL     1      47.149   1.072 132.170  1.00  0.00    -0.025 C 
HETATM   21  C   UNL     1      48.353   1.094 132.912  1.00  0.00     0.012 C 
HETATM   22  C   UNL     1      49.293   0.069 132.680  1.00  0.00     0.001 C 
HETATM   23  C   UNL     1      48.905  -1.103 132.026  1.00  0.00     0.001 C 
HETATM   24  C   UNL     1      47.553  -1.256 131.624  1.00  0.00     0.013 C 
HETATM   25  C   UNL     1      46.623  -0.215 131.805  1.00  0.00    -0.016 C 
BRANCH  25  26
HETATM   26  C   UNL     1      45.161  -0.401 131.530  1.00  0.00    -0.024 A 
HETATM   27  C   UNL     1      44.368  -1.185 132.406  1.00  0.00     0.013 A 
HETATM   28  C   UNL     1      43.037  -1.501 132.104  1.00  0.00     0.013 A 
HETATM   29  C   UNL     1      42.427  -0.988 130.922  1.00  0.00    -0.026 A 
HETATM   30  C   UNL     1      43.221  -0.143 130.030  1.00  0.00    -0.025 A 
HETATM   31  C   UNL     1      41.050  -1.194 130.629  1.00  0.00     0.012 C 
HETATM   32  C   UNL     1      42.620   0.353 128.844  1.00  0.00     0.012 C 
HETATM   33  C   UNL     1      44.566   0.158 130.377  1.00  0.00     0.024 A 
HETATM   34  C   UNL     1      41.232   0.222 128.644  1.00  0.00     0.001 C 
HETATM   35  C   UNL     1      40.470  -0.620 129.484  1.00  0.00     0.001 C 
ENDBRANCH  25  26
ENDBRANCH   1  20
TORSDOF 7
ENDMDL
MODEL 9
REMARK VINA RESULT:     -11.0      4.108      9.054
REMARK  7 active torsions:
REMARK  status: ('A' for Active; 'I' for Inactive)
REMARK    1  A    between atoms: O_1  and  C_9 
REMARK    2  A    between atoms: C_9  and  C_23 
REMARK    3  A    between atoms: C_13  and  C_15 
REMARK    4  A    between atoms: C_17  and  O_32 
REMARK    5  A    between atoms: C_22  and  C_31 
REMARK    6  A    between atoms: C_25  and  C_28 
REMARK    7  A    between atoms: C_30  and  C_35 
ROOT
HETATM    1  C   UNL     1      44.950   0.749 130.599  1.00  0.00     0.009 C 
HETATM    2  C   UNL     1      43.972   0.238 129.986  1.00  0.00    -0.013 C 
ENDROOT
BRANCH   2   3
HETATM    3  C   UNL     1      42.533  -0.051 130.331  1.00  0.00     0.085 A 
HETATM    4  C   UNL     1      41.624   0.382 129.203  1.00  0.00     0.054 A 
HETATM    5  C   UNL     1      40.855  -0.836 128.743  1.00  0.00    -0.033 A 
HETATM    6  C   UNL     1      41.184  -2.005 129.637  1.00  0.00     0.218 A 
HETATM    7  C   UNL     1      42.298  -1.533 130.537  1.00  0.00     0.167 A 
HETATM    8  O   UNL     1      42.753  -2.189 131.463  1.00  0.00    -0.294 OA
BRANCH   5   9
HETATM    9  C   UNL     1      39.497  -0.530 128.161  1.00  0.00    -0.031 C 
HETATM   10  C   UNL     1      38.713  -1.483 127.486  1.00  0.00     0.012 C 
HETATM   11  C   UNL     1      37.511  -1.089 126.872  1.00  0.00     0.010 C 
HETATM   12  C   UNL     1      37.078   0.238 126.975  1.00  0.00    -0.035 C 
HETATM   13  C   UNL     1      37.768   1.137 127.783  1.00  0.00     0.010 C 
HETATM   14  C   UNL     1      39.035   0.785 128.271  1.00  0.00     0.012 C 
BRANCH  12  15
HETATM   15  C   UNL     1      35.847   0.705 126.227  1.00  0.00     0.202 C 
BRANCH  15  16
HETATM   16  O   UNL     1      36.146   1.490 125.074  1.00  0.00    -0.396 OA
ATOM     17  HO  UNL     1      36.479   0.981 124.345  1.00  0.00     0.209 HD
ENDBRANCH  15  16
ENDBRANCH  12  15
ENDBRANCH   5   9
BRANCH   6  18
HETATM   18  O   UNL     1      40.123  -2.611 130.322  1.00  0.00    -0.384 OA
ATOM     19  HO  UNL     1      39.432  -2.008 130.571  1.00  0.00     0.211 HD
ENDBRANCH   6  18
ENDBRANCH   2   3
BRANCH   1  20
HETATM   20  C   UNL     1      45.407   1.821 131.495  1.00  0.00    -0.025 C 
HETATM   21  C   UNL     1      44.631   2.976 131.747  1.00  0.00     0.012 C 
HETATM   22  C   UNL     1      45.302   4.209 131.881  1.00  0.00     0.001 C 
HETATM   23  C   UNL     1      46.679   4.235 132.117  1.00  0.00     0.001 C 
HETATM   24  C   UNL     1      47.383   3.010 132.245  1.00  0.00     0.013 C 
HETATM   25  C   UNL     1      46.728   1.778 132.059  1.00  0.00    -0.016 C 
BRANCH  25  26
HETATM   26  C   UNL     1      47.407   0.470 132.335  1.00  0.00    -0.024 A 
HETATM   27  C   UNL     1      48.279   0.342 133.446  1.00  0.00     0.013 A 
HETATM   28  C   UNL     1      49.041  -0.815 133.650  1.00  0.00     0.013 A 
HETATM   29  C   UNL     1      48.912  -1.926 132.765  1.00  0.00    -0.026 A 
HETATM   30  C   UNL     1      47.985  -1.824 131.638  1.00  0.00    -0.025 A 
HETATM   31  C   UNL     1      49.585  -3.159 132.993  1.00  0.00     0.012 C 
HETATM   32  C   UNL     1      47.870  -2.922 130.747  1.00  0.00     0.012 C 
HETATM   33  C   UNL     1      47.227  -0.634 131.471  1.00  0.00     0.024 A 
HETATM   34  C   UNL     1      48.464  -4.159 131.065  1.00  0.00     0.001 C 
HETATM   35  C   UNL     1      49.386  -4.251 132.132  1.00  0.00     0.001 C 
ENDBRANCH  25  26
ENDBRANCH   1  20
TORSDOF 7
ENDMDL
