MODEL 1
REMARK VINA RESULT:      -8.3      0.000      0.000
REMARK  1 active torsions:
REMARK  status: ('A' for Active; 'I' for Inactive)
REMARK    1  A    between atoms: C_13  and  C_14 
ROOT
HETATM    1  C   UNL     1      12.583   9.549  23.518  1.00  0.00    -0.025 C 
HETATM    2  C   UNL     1      12.108  11.572  31.063  1.00  0.00     0.005 C 
HETATM    3  C   UNL     1      12.204   9.841  28.463  1.00  0.00     0.035 C 
HETATM    4  C   UNL     1      13.057  11.393  25.019  1.00  0.00     0.008 C 
HETATM    5  C   UNL     1      11.532  12.619  28.986  1.00  0.00     0.013 C 
HETATM    6  C   UNL     1      13.014  12.233  28.909  1.00  0.00     0.015 C 
HETATM    7  C   UNL     1      13.425  11.896  30.350  1.00  0.00     0.009 C 
HETATM    8  C   UNL     1      14.643   9.507  25.016  1.00  0.00     0.018 C 
HETATM    9  C   UNL     1      15.761   8.935  27.259  1.00  0.00     0.006 C 
HETATM   10  C   UNL     1      13.676   8.727  24.129  1.00  0.00     0.046 C 
HETATM   11  C   UNL     1      10.970  10.217  29.274  1.00  0.00     0.009 C 
HETATM   12  C   UNL     1      12.306  10.818  23.965  1.00  0.00    -0.003 C 
HETATM   13  C   UNL     1      14.094  10.753  27.138  1.00  0.00    -0.048 C 
HETATM   14  C   UNL     1      11.015  11.578  29.981  1.00  0.00    -0.014 C 
HETATM   15  C   UNL     1      15.438  10.344  27.719  1.00  0.00     0.039 C 
HETATM   16  C   UNL     1      13.914  10.576  25.761  1.00  0.00    -0.038 C 
HETATM   17  C   UNL     1      13.061  11.011  28.014  1.00  0.00    -0.069 C 
HETATM   18  C   UNL     1      15.190   8.444  25.953  1.00  0.00     0.020 C 
ENDROOT
BRANCH   8  19
HETATM   19  C   UNL     1      15.780  10.095  24.222  1.00  0.00    -0.044 C 
HETATM   20  C   UNL     1      16.030  11.456  24.140  1.00  0.00     0.008 C 
HETATM   21  C   UNL     1      17.237  12.113  23.933  1.00  0.00     0.001 C 
HETATM   22  C   UNL     1      18.385  11.713  23.260  1.00  0.00     0.001 C 
HETATM   23  C   UNL     1      18.564  10.407  22.812  1.00  0.00     0.007 C 
HETATM   24  C   UNL     1      17.401   9.677  22.551  1.00  0.00    -0.061 C 
HETATM   25  C   UNL     1      16.814   9.623  21.169  1.00  0.00     0.048 C 
HETATM   26  C   UNL     1      16.624   9.173  23.615  1.00  0.00     0.015 C 
ENDBRANCH   8  19
TORSDOF 1
ENDMDL
