REMARK  0 active torsions:
REMARK  status: ('A' for Active; 'I' for Inactive)
ROOT
HETATM    1  C   UNL     1      15.372   8.851  26.676  1.00  0.00     0.147 C 
HETATM    2  C   UNL     1      16.420  10.876  24.569  1.00  0.00     0.043 C 
HETATM    3  F   UNL     1      18.409  11.742  23.594  1.00  0.00    -0.211 F 
HETATM    4  C   UNL     1      13.266   8.779  25.332  1.00  0.00     0.030 C 
HETATM    5  C   UNL     1      13.582   9.315  22.805  1.00  0.00     0.014 C 
HETATM    6  O   UNL     1      16.133   8.010  26.252  1.00  0.00    -0.296 OA
HETATM    7  C   UNL     1      12.011   9.861  27.658  1.00  0.00    -0.009 C 
HETATM    8  C   UNL     1      12.962  11.674  31.122  1.00  0.00     0.043 C 
HETATM    9  C   UNL     1      17.420  10.883  23.603  1.00  0.00     0.094 C 
HETATM   10  C   UNL     1      10.800  11.764  29.831  1.00  0.00     0.002 C 
HETATM   11  O   UNL     1      14.021  11.986  25.995  1.00  0.00    -0.295 OA
HETATM   12  C   UNL     1      13.946  10.886  26.494  1.00  0.00     0.160 C 
HETATM   13  C   UNL     1      12.628   9.048  23.959  1.00  0.00     0.003 C 
HETATM   14  C   UNL     1      15.056   9.187  23.210  1.00  0.00    -0.018 C 
HETATM   15  C   UNL     1      15.377   9.094  28.166  1.00  0.00     0.081 C 
HETATM   16  C   UNL     1      14.477   9.674  25.725  1.00  0.00     0.106 C 
HETATM   17  C   UNL     1      12.954  12.005  28.530  1.00  0.00     0.055 C 
HETATM   18  C   UNL     1      15.306   7.695  23.467  1.00  0.00     0.020 C 
HETATM   19  C   UNL     1      15.954   9.623  22.049  1.00  0.00     0.020 C 
HETATM   20  C   UNL     1      13.281  10.647  27.861  1.00  0.00     0.044 C 
HETATM   21  C   UNL     1      12.198  11.838  29.830  1.00  0.00    -0.082 C 
HETATM   22  C   UNL     1      10.743  10.004  28.076  1.00  0.00    -0.003 C 
HETATM   23  C   UNL     1      17.401   9.893  22.462  1.00  0.00     0.071 C 
HETATM   24  C   UNL     1      14.224   9.855  28.790  1.00  0.00     0.029 C 
HETATM   25  C   UNL     1      15.299  10.043  24.467  1.00  0.00    -0.046 C 
HETATM   26  C   UNL     1      10.092  10.849  29.012  1.00  0.00     0.000 C 
ENDROOT
TORSDOF 0
