REMARK  5 active torsions:
REMARK  status: ('A' for Active; 'I' for Inactive)
REMARK    1  A    between atoms: O_5  and  C_8 
REMARK    2  A    between atoms: C_11  and  N_22 
REMARK    3  A    between atoms: O_17  and  C_27 
REMARK       I    between atoms: C_19  and  N_22 
REMARK    4  A    between atoms: C_19  and  C_26 
REMARK    5  A    between atoms: N_22  and  C_23 
ROOT
HETATM    1  O   UNL     1      -4.906  17.601  27.635  1.00  0.00    -0.272 OA
HETATM    2  C   UNL     1      -4.415  18.629  27.171  1.00  0.00     0.233 C 
HETATM    3  N   UNL     1      -3.233  18.564  26.534  1.00  0.00    -0.273 N 
ENDROOT
BRANCH   3   4
HETATM    4  C   UNL     1      -2.221  17.802  27.053  1.00  0.00     0.110 C 
HETATM    5  C   UNL     1      -1.558  18.114  28.293  1.00  0.00     0.272 C 
HETATM    6  O   UNL     1      -1.927  19.036  29.002  1.00  0.00    -0.266 OA
HETATM    7  N   UNL     1      -0.483  17.358  28.653  1.00  0.00    -0.332 N 
HETATM    8  C   UNL     1      -0.331  16.091  28.147  1.00  0.00     0.091 C 
ATOM      9  HN  UNL     1       0.210  17.734  29.300  1.00  0.00     0.168 HD
HETATM   10  C   UNL     1      -0.975  15.735  26.986  1.00  0.00     0.020 C 
HETATM   11  C   UNL     1      -1.851  16.643  26.397  1.00  0.00     0.037 C 
ENDBRANCH   3   4
BRANCH   3  12
HETATM   12  C   UNL     1      -3.155  19.046  25.242  1.00  0.00     0.093 C 
HETATM   13  C   UNL     1      -3.428  18.184  24.215  1.00  0.00     0.037 C 
HETATM   14  C   UNL     1      -3.082  18.116  22.915  1.00  0.00     0.042 C 
HETATM   15  C   UNL     1      -2.386  19.056  22.196  1.00  0.00     0.099 C 
HETATM   16  C   UNL     1      -2.552  20.406  22.453  1.00  0.00     0.102 C 
HETATM   17  C   UNL     1      -2.693  20.901  23.699  1.00  0.00     0.096 C 
HETATM   18  C   UNL     1      -2.838  20.380  24.966  1.00  0.00     0.201 C 
HETATM   19  O   UNL     1      -2.713  21.179  25.983  1.00  0.00    -0.286 OA
BRANCH  15  20
HETATM   20  O   UNL     1      -1.521  18.708  21.219  1.00  0.00    -0.358 OA
ATOM     21  HO  UNL     1      -1.407  17.781  21.043  1.00  0.00     0.217 HD
ENDBRANCH  15  20
BRANCH  16  22
HETATM   22  O   UNL     1      -2.546  21.207  21.355  1.00  0.00    -0.358 OA
ATOM     23  HO  UNL     1      -2.447  20.858  20.477  1.00  0.00     0.217 HD
ENDBRANCH  16  22
ENDBRANCH   3  12
BRANCH   2  24
HETATM   24  C   UNL     1      -5.097  19.964  27.257  1.00  0.00     0.079 C 
HETATM   25  C   UNL     1      -6.082  20.142  26.111  1.00  0.00     0.014 C 
HETATM   26  C   UNL     1      -7.429  19.770  26.699  1.00  0.00     0.001 C 
HETATM   27  C   UNL     1      -7.373  20.106  28.173  1.00  0.00     0.001 C 
HETATM   28  C   UNL     1      -5.909  20.080  28.536  1.00  0.00     0.014 C 
ENDBRANCH   2  24
TORSDOF 5
