REMARK  5 active torsions:
REMARK  status: ('A' for Active; 'I' for Inactive)
REMARK    1  A    between atoms: C_7  and  N_23 
REMARK    2  A    between atoms: C_9  and  C_28 
REMARK    3  A    between atoms: C_14  and  N_16 
REMARK    4  A    between atoms: C_21  and  N_23 
REMARK    5  A    between atoms: C_25  and  C_28 
ROOT
HETATM    1  N   UNL     1      18.747 -17.963 -10.280  1.00  0.00    -0.355 N 
ATOM      2  HN  UNL     1      18.119 -17.863  -9.483  1.00  0.00     0.166 HD
ENDROOT
BRANCH   1   3
HETATM    3  C   UNL     1      19.721 -18.990 -10.250  1.00  0.00     0.043 C 
HETATM    4  C   UNL     1      19.307 -20.280  -9.867  1.00  0.00    -0.009 C 
HETATM    5  C   UNL     1      19.854 -21.339 -10.580  1.00  0.00     0.014 C 
HETATM    6  C   UNL     1      21.098 -21.179 -11.181  1.00  0.00     0.001 C 
HETATM    7  C   UNL     1      21.706 -19.936 -11.208  1.00  0.00     0.002 C 
HETATM    8  C   UNL     1      21.028 -18.831 -10.713  1.00  0.00     0.030 C 
BRANCH   4   9
HETATM    9  C   UNL     1      18.319 -20.506  -8.734  1.00  0.00     0.025 C 
BRANCH   9  10
HETATM   10  C   UNL     1      18.621 -20.669  -7.253  1.00  0.00    -0.035 C 
HETATM   11  C   UNL     1      17.588 -20.466  -6.341  1.00  0.00     0.011 C 
HETATM   12  C   UNL     1      17.589 -21.180  -5.148  1.00  0.00     0.001 C 
HETATM   13  C   UNL     1      18.717 -21.894  -4.765  1.00  0.00     0.000 C 
HETATM   14  C   UNL     1      19.876 -21.779  -5.528  1.00  0.00     0.001 C 
HETATM   15  C   UNL     1      19.838 -21.123  -6.763  1.00  0.00     0.011 C 
ENDBRANCH   9  10
ENDBRANCH   4   9
ENDBRANCH   1   3
BRANCH   1  16
HETATM   16  C   UNL     1      18.606 -17.066 -11.371  1.00  0.00     0.035 C 
HETATM   17  C   UNL     1      19.565 -16.098 -11.608  1.00  0.00     0.047 C 
HETATM   18  C   UNL     1      19.501 -15.358 -12.770  1.00  0.00     0.102 C 
HETATM   19  N   UNL     1      18.354 -15.369 -13.522  1.00  0.00    -0.298 N 
HETATM   20  C   UNL     1      17.438 -16.372 -13.339  1.00  0.00     0.102 C 
HETATM   21  C   UNL     1      17.478 -17.141 -12.194  1.00  0.00     0.047 C 
BRANCH  19  22
HETATM   22  C   UNL     1      17.952 -14.165 -14.173  1.00  0.00     0.237 C 
HETATM   23  N   UNL     1      18.982 -13.444 -14.767  1.00  0.00    -0.288 N 
HETATM   24  C   UNL     1      18.775 -12.750 -15.925  1.00  0.00     0.250 C 
ATOM     25  HN  UNL     1      19.905 -13.433 -14.332  1.00  0.00     0.172 HD
HETATM   26  O   UNL     1      19.653 -12.097 -16.480  1.00  0.00    -0.268 OA
HETATM   27  C   UNL     1      17.453 -12.858 -16.481  1.00  0.00     0.099 C 
HETATM   28  C   UNL     1      16.419 -13.198 -15.632  1.00  0.00     0.151 C 
HETATM   29  O   UNL     1      16.701 -14.020 -14.565  1.00  0.00    -0.291 OA
ENDBRANCH  19  22
ENDBRANCH   1  16
TORSDOF 5
