REMARK  3 active torsions:
REMARK  status: ('A' for Active; 'I' for Inactive)
REMARK    1  A    between atoms: C_2  and  C_14 
REMARK    2  A    between atoms: C_9  and  C_11 
REMARK    3  A    between atoms: C_11  and  C_20 
ROOT
HETATM    1  C   UNL     1       7.484 -39.124  49.740  1.00  0.00    -0.051 C 
HETATM    2  C   UNL     1       8.352 -38.004  50.271  1.00  0.00     0.044 C 
HETATM    3  C   UNL     1       8.010 -39.664  48.586  1.00  0.00    -0.051 C 
HETATM    4  C   UNL     1       7.333 -40.669  47.899  1.00  0.00     0.020 C 
HETATM    5  C   UNL     1       5.974 -40.865  48.210  1.00  0.00    -0.025 C 
HETATM    6  C   UNL     1       5.448 -40.347  49.402  1.00  0.00     0.013 C 
HETATM    7  C   UNL     1       9.269 -38.944  48.159  1.00  0.00     0.044 C 
HETATM    8  C   UNL     1       9.352 -37.819  49.166  1.00  0.00    -0.002 C 
HETATM    9  C   UNL     1       6.238 -39.524  50.212  1.00  0.00     0.008 C 
ENDROOT
BRANCH   8  10
HETATM   10  C   UNL     1      10.155 -36.580  48.941  1.00  0.00     0.043 C 
BRANCH  10  11
HETATM   11  C   UNL     1       9.883 -35.842  47.660  1.00  0.00    -0.058 C 
HETATM   12  C   UNL     1       9.047 -34.733  47.658  1.00  0.00     0.007 C 
HETATM   13  C   UNL     1       8.804 -34.037  46.480  1.00  0.00     0.001 C 
HETATM   14  C   UNL     1       9.374 -34.454  45.299  1.00  0.00     0.000 C 
HETATM   15  C   UNL     1      10.316 -35.468  45.321  1.00  0.00     0.001 C 
HETATM   16  C   UNL     1      10.488 -36.218  46.473  1.00  0.00     0.007 C 
ENDBRANCH  10  11
ENDBRANCH   8  10
BRANCH   5  17
HETATM   17  C   UNL     1       5.111 -41.510  47.174  1.00  0.00    -0.026 C 
HETATM   18  C   UNL     1       4.584 -42.791  47.352  1.00  0.00     0.012 C 
HETATM   19  C   UNL     1       3.799 -43.361  46.355  1.00  0.00     0.001 C 
HETATM   20  C   UNL     1       3.498 -42.657  45.213  1.00  0.00     0.000 C 
HETATM   21  C   UNL     1       4.135 -41.451  44.964  1.00  0.00     0.001 C 
HETATM   22  C   UNL     1       4.877 -40.845  45.971  1.00  0.00     0.012 C 
ENDBRANCH   5  17
TORSDOF 3
