MODEL 1
REMARK VINA RESULT:      -8.5      0.000      0.000
REMARK  3 active torsions:
REMARK  status: ('A' for Active; 'I' for Inactive)
REMARK    1  A    between atoms: N_9  and  C_12 
REMARK    2  A    between atoms: C_14  and  O_20 
REMARK    3  A    between atoms: O_15  and  C_19 
ROOT
HETATM    1  C   UNL     1      89.871  66.427  20.398  1.00  0.00     0.270 C 
HETATM    2  C   UNL     1      91.551  65.276  21.484  1.00  0.00     0.121 C 
HETATM    3  O   UNL     1      90.656  66.328  19.260  1.00  0.00    -0.311 OA
HETATM    4  C   UNL     1      90.823  64.909  19.156  1.00  0.00     0.221 C 
HETATM    5  N   UNL     1      88.564  66.626  20.204  1.00  0.00    -0.316 N 
ATOM      6  HN  UNL     1      87.949  66.983  20.934  1.00  0.00     0.170 HD
HETATM    7  C   UNL     1      93.813  64.793  22.131  1.00  0.00     0.039 C 
HETATM    8  C   UNL     1      93.994  64.043  20.975  1.00  0.00     0.003 C 
HETATM    9  C   UNL     1      92.661  65.553  22.292  1.00  0.00     0.100 C 
HETATM   10  O   UNL     1      90.396  66.031  21.616  1.00  0.00    -0.270 OA
HETATM   11  C   UNL     1      91.810  64.660  20.252  1.00  0.00     0.003 C 
HETATM   12  C   UNL     1      92.980  63.961  20.039  1.00  0.00     0.012 C 
ENDROOT
BRANCH   5  13
HETATM   13  C   UNL     1      88.112  66.310  18.940  1.00  0.00     0.035 C 
HETATM   14  C   UNL     1      87.710  65.022  18.590  1.00  0.00     0.032 C 
HETATM   15  C   UNL     1      86.798  64.858  17.554  1.00  0.00     0.039 C 
HETATM   16  C   UNL     1      86.269  66.032  16.985  1.00  0.00     0.065 C 
HETATM   17  C   UNL     1      87.117  67.133  16.919  1.00  0.00     0.039 C 
HETATM   18  C   UNL     1      88.061  67.267  17.929  1.00  0.00     0.032 C 
BRANCH  16  19
HETATM   19  O   UNL     1      84.921  66.242  17.052  1.00  0.00    -0.361 OA
ATOM     20  HO  UNL     1      84.381  65.614  17.520  1.00  0.00     0.217 HD
ENDBRANCH  16  19
ENDBRANCH   5  13
BRANCH   9  21
HETATM   21  O   UNL     1      92.599  66.486  23.277  1.00  0.00    -0.358 OA
ATOM     22  HO  UNL     1      92.080  67.275  23.177  1.00  0.00     0.217 HD
ENDBRANCH   9  21
TORSDOF 3
ENDMDL
MODEL 2
REMARK VINA RESULT:      -8.0      1.520      6.501
REMARK  3 active torsions:
REMARK  status: ('A' for Active; 'I' for Inactive)
REMARK    1  A    between atoms: N_9  and  C_12 
REMARK    2  A    between atoms: C_14  and  O_20 
REMARK    3  A    between atoms: O_15  and  C_19 
ROOT
HETATM    1  C   UNL     1      90.192  66.694  20.068  1.00  0.00     0.270 C 
HETATM    2  C   UNL     1      88.508  66.295  18.542  1.00  0.00     0.121 C 
HETATM    3  O   UNL     1      89.653  65.652  20.806  1.00  0.00    -0.311 OA
HETATM    4  C   UNL     1      89.700  64.581  19.855  1.00  0.00     0.221 C 
HETATM    5  N   UNL     1      91.473  66.990  20.303  1.00  0.00    -0.316 N 
ATOM      6  HN  UNL     1      91.889  67.883  20.039  1.00  0.00     0.170 HD
HETATM    7  C   UNL     1      86.251  65.908  17.819  1.00  0.00     0.039 C 
HETATM    8  C   UNL     1      86.390  64.550  18.078  1.00  0.00     0.003 C 
HETATM    9  C   UNL     1      87.240  66.796  18.221  1.00  0.00     0.100 C 
HETATM   10  O   UNL     1      89.507  67.161  18.960  1.00  0.00    -0.270 OA
HETATM   11  C   UNL     1      88.568  64.957  18.952  1.00  0.00     0.003 C 
HETATM   12  C   UNL     1      87.563  64.069  18.631  1.00  0.00     0.012 C 
ENDROOT
BRANCH   5  13
HETATM   13  C   UNL     1      92.191  65.994  20.930  1.00  0.00     0.035 C 
HETATM   14  C   UNL     1      92.978  65.083  20.227  1.00  0.00     0.032 C 
HETATM   15  C   UNL     1      94.055  64.484  20.870  1.00  0.00     0.039 C 
HETATM   16  C   UNL     1      94.331  64.918  22.180  1.00  0.00     0.065 C 
HETATM   17  C   UNL     1      93.238  65.274  22.965  1.00  0.00     0.039 C 
HETATM   18  C   UNL     1      92.144  65.827  22.313  1.00  0.00     0.032 C 
BRANCH  16  19
HETATM   19  O   UNL     1      95.543  65.493  22.437  1.00  0.00    -0.361 OA
ATOM     20  HO  UNL     1      95.906  66.101  21.803  1.00  0.00     0.217 HD
ENDBRANCH  16  19
ENDBRANCH   5  13
BRANCH   9  21
HETATM   21  O   UNL     1      86.992  68.132  18.216  1.00  0.00    -0.358 OA
ATOM     22  HO  UNL     1      87.700  68.765  18.217  1.00  0.00     0.217 HD
ENDBRANCH   9  21
TORSDOF 3
ENDMDL
MODEL 3
REMARK VINA RESULT:      -7.7      3.639      4.739
REMARK  3 active torsions:
REMARK  status: ('A' for Active; 'I' for Inactive)
REMARK    1  A    between atoms: N_9  and  C_12 
REMARK    2  A    between atoms: C_14  and  O_20 
REMARK    3  A    between atoms: O_15  and  C_19 
ROOT
HETATM    1  C   UNL     1      91.619  68.110  19.536  1.00  0.00     0.270 C 
HETATM    2  C   UNL     1      91.419  65.891  20.139  1.00  0.00     0.121 C 
HETATM    3  O   UNL     1      92.911  67.797  19.142  1.00  0.00    -0.311 OA
HETATM    4  C   UNL     1      92.669  66.750  18.194  1.00  0.00     0.221 C 
HETATM    5  N   UNL     1      91.074  69.196  18.982  1.00  0.00    -0.316 N 
ATOM      6  HN  UNL     1      90.268  69.673  19.385  1.00  0.00     0.170 HD
HETATM    7  C   UNL     1      92.084  63.837  21.189  1.00  0.00     0.039 C 
HETATM    8  C   UNL     1      92.851  63.505  20.079  1.00  0.00     0.003 C 
HETATM    9  C   UNL     1      91.522  65.103  21.292  1.00  0.00     0.100 C 
HETATM   10  O   UNL     1      90.876  67.164  20.220  1.00  0.00    -0.270 OA
HETATM   11  C   UNL     1      92.327  65.616  19.108  1.00  0.00     0.003 C 
HETATM   12  C   UNL     1      92.958  64.393  19.023  1.00  0.00     0.012 C 
ENDROOT
BRANCH   5  13
HETATM   13  C   UNL     1      91.686  69.623  17.822  1.00  0.00     0.035 C 
HETATM   14  C   UNL     1      92.800  70.460  17.829  1.00  0.00     0.032 C 
HETATM   15  C   UNL     1      93.675  70.428  16.750  1.00  0.00     0.039 C 
HETATM   16  C   UNL     1      93.415  69.469  15.752  1.00  0.00     0.065 C 
HETATM   17  C   UNL     1      92.078  69.177  15.498  1.00  0.00     0.039 C 
HETATM   18  C   UNL     1      91.198  69.259  16.569  1.00  0.00     0.032 C 
BRANCH  16  19
HETATM   19  O   UNL     1      94.358  68.513  15.502  1.00  0.00    -0.361 OA
ATOM     20  HO  UNL     1      94.821  68.122  16.234  1.00  0.00     0.217 HD
ENDBRANCH  16  19
ENDBRANCH   5  13
BRANCH   9  21
HETATM   21  O   UNL     1      91.008  65.521  22.479  1.00  0.00    -0.358 OA
ATOM     22  HO  UNL     1      90.289  66.140  22.514  1.00  0.00     0.217 HD
ENDBRANCH   9  21
TORSDOF 3
ENDMDL
MODEL 4
REMARK VINA RESULT:      -7.5      4.309      6.412
REMARK  3 active torsions:
REMARK  status: ('A' for Active; 'I' for Inactive)
REMARK    1  A    between atoms: N_9  and  C_12 
REMARK    2  A    between atoms: C_14  and  O_20 
REMARK    3  A    between atoms: O_15  and  C_19 
ROOT
HETATM    1  C   UNL     1      86.345  67.385  15.719  1.00  0.00     0.270 C 
HETATM    2  C   UNL     1      86.421  65.871  17.460  1.00  0.00     0.121 C 
HETATM    3  O   UNL     1      86.774  66.344  14.910  1.00  0.00    -0.311 OA
HETATM    4  C   UNL     1      85.751  65.369  15.140  1.00  0.00     0.221 C 
HETATM    5  N   UNL     1      85.716  68.393  15.110  1.00  0.00    -0.316 N 
ATOM      6  HN  UNL     1      85.607  69.312  15.538  1.00  0.00     0.170 HD
HETATM    7  C   UNL     1      87.391  64.157  18.833  1.00  0.00     0.039 C 
HETATM    8  C   UNL     1      86.937  63.181  17.955  1.00  0.00     0.003 C 
HETATM    9  C   UNL     1      87.292  65.500  18.492  1.00  0.00     0.100 C 
HETATM   10  O   UNL     1      86.316  67.203  17.091  1.00  0.00    -0.270 OA
HETATM   11  C   UNL     1      86.122  64.888  16.507  1.00  0.00     0.003 C 
HETATM   12  C   UNL     1      86.282  63.548  16.793  1.00  0.00     0.012 C 
ENDROOT
BRANCH   5  13
HETATM   13  C   UNL     1      85.225  68.095  13.856  1.00  0.00     0.035 C 
HETATM   14  C   UNL     1      86.008  68.185  12.706  1.00  0.00     0.032 C 
HETATM   15  C   UNL     1      85.682  67.402  11.605  1.00  0.00     0.039 C 
HETATM   16  C   UNL     1      84.620  66.492  11.768  1.00  0.00     0.065 C 
HETATM   17  C   UNL     1      83.577  66.890  12.598  1.00  0.00     0.039 C 
HETATM   18  C   UNL     1      83.899  67.714  13.669  1.00  0.00     0.032 C 
BRANCH  16  19
HETATM   19  O   UNL     1      84.872  65.158  11.619  1.00  0.00    -0.361 OA
ATOM     20  HO  UNL     1      85.006  64.627  12.396  1.00  0.00     0.217 HD
ENDBRANCH  16  19
ENDBRANCH   5  13
BRANCH   9  21
HETATM   21  O   UNL     1      87.969  66.432  19.211  1.00  0.00    -0.358 OA
ATOM     22  HO  UNL     1      87.670  66.704  20.071  1.00  0.00     0.217 HD
ENDBRANCH   9  21
TORSDOF 3
ENDMDL
MODEL 5
REMARK VINA RESULT:      -7.3      4.234      6.185
REMARK  3 active torsions:
REMARK  status: ('A' for Active; 'I' for Inactive)
REMARK    1  A    between atoms: N_9  and  C_12 
REMARK    2  A    between atoms: C_14  and  O_20 
REMARK    3  A    between atoms: O_15  and  C_19 
ROOT
HETATM    1  C   UNL     1      91.007  68.877  18.740  1.00  0.00     0.270 C 
HETATM    2  C   UNL     1      92.220  70.460  17.577  1.00  0.00     0.121 C 
HETATM    3  O   UNL     1      91.043  68.122  17.578  1.00  0.00    -0.311 OA
HETATM    4  C   UNL     1      92.455  68.015  17.356  1.00  0.00     0.221 C 
HETATM    5  N   UNL     1      90.795  68.211  19.877  1.00  0.00    -0.316 N 
ATOM      6  HN  UNL     1      90.478  68.668  20.732  1.00  0.00     0.170 HD
HETATM    7  C   UNL     1      92.743  71.895  15.724  1.00  0.00     0.039 C 
HETATM    8  C   UNL     1      93.427  70.858  15.101  1.00  0.00     0.003 C 
HETATM    9  C   UNL     1      91.991  71.644  16.865  1.00  0.00     0.100 C 
HETATM   10  O   UNL     1      91.471  70.181  18.710  1.00  0.00    -0.270 OA
HETATM   11  C   UNL     1      92.766  69.390  16.856  1.00  0.00     0.003 C 
HETATM   12  C   UNL     1      93.454  69.602  15.681  1.00  0.00     0.012 C 
ENDROOT
BRANCH   5  13
HETATM   13  C   UNL     1      91.038  66.855  19.808  1.00  0.00     0.035 C 
HETATM   14  C   UNL     1      92.308  66.312  20.002  1.00  0.00     0.032 C 
HETATM   15  C   UNL     1      92.420  65.001  20.449  1.00  0.00     0.039 C 
HETATM   16  C   UNL     1      91.220  64.336  20.766  1.00  0.00     0.065 C 
HETATM   17  C   UNL     1      90.106  64.653  19.994  1.00  0.00     0.039 C 
HETATM   18  C   UNL     1      90.022  65.951  19.507  1.00  0.00     0.032 C 
BRANCH  16  19
HETATM   19  O   UNL     1      91.032  63.898  22.045  1.00  0.00    -0.361 OA
ATOM     20  HO  UNL     1      91.786  63.819  22.618  1.00  0.00     0.217 HD
ENDBRANCH  16  19
ENDBRANCH   5  13
BRANCH   9  21
HETATM   21  O   UNL     1      91.114  72.579  17.316  1.00  0.00    -0.358 OA
ATOM     22  HO  UNL     1      90.396  72.882  16.774  1.00  0.00     0.217 HD
ENDBRANCH   9  21
TORSDOF 3
ENDMDL
MODEL 6
REMARK VINA RESULT:      -7.2      4.240      5.272
REMARK  3 active torsions:
REMARK  status: ('A' for Active; 'I' for Inactive)
REMARK    1  A    between atoms: N_9  and  C_12 
REMARK    2  A    between atoms: C_14  and  O_20 
REMARK    3  A    between atoms: O_15  and  C_19 
ROOT
HETATM    1  C   UNL     1      92.963  68.155  18.269  1.00  0.00     0.270 C 
HETATM    2  C   UNL     1      91.742  66.790  19.673  1.00  0.00     0.121 C 
HETATM    3  O   UNL     1      92.018  67.858  17.299  1.00  0.00    -0.311 OA
HETATM    4  C   UNL     1      90.811  68.281  17.944  1.00  0.00     0.221 C 
HETATM    5  N   UNL     1      93.662  69.280  18.094  1.00  0.00    -0.316 N 
ATOM      6  HN  UNL     1      94.547  69.457  18.569  1.00  0.00     0.170 HD
HETATM    7  C   UNL     1      90.561  64.800  20.313  1.00  0.00     0.039 C 
HETATM    8  C   UNL     1      89.403  65.281  19.714  1.00  0.00     0.003 C 
HETATM    9  C   UNL     1      91.766  65.468  20.133  1.00  0.00     0.100 C 
HETATM   10  O   UNL     1      92.933  67.471  19.472  1.00  0.00    -0.270 OA
HETATM   11  C   UNL     1      90.617  67.176  18.933  1.00  0.00     0.003 C 
HETATM   12  C   UNL     1      89.427  66.487  19.035  1.00  0.00     0.012 C 
ENDROOT
BRANCH   5  13
HETATM   13  C   UNL     1      93.096  70.184  17.220  1.00  0.00     0.035 C 
HETATM   14  C   UNL     1      93.247  70.083  15.838  1.00  0.00     0.032 C 
HETATM   15  C   UNL     1      92.278  70.637  15.010  1.00  0.00     0.039 C 
HETATM   16  C   UNL     1      91.147  71.190  15.642  1.00  0.00     0.065 C 
HETATM   17  C   UNL     1      91.355  71.798  16.877  1.00  0.00     0.039 C 
HETATM   18  C   UNL     1      92.359  71.273  17.680  1.00  0.00     0.032 C 
BRANCH  16  19
HETATM   19  O   UNL     1      89.919  70.661  15.366  1.00  0.00    -0.361 OA
ATOM     20  HO  UNL     1      89.202  71.250  15.161  1.00  0.00     0.217 HD
ENDBRANCH  16  19
ENDBRANCH   5  13
BRANCH   9  21
HETATM   21  O   UNL     1      92.932  64.865  20.484  1.00  0.00    -0.358 OA
ATOM     22  HO  UNL     1      93.731  65.365  20.595  1.00  0.00     0.217 HD
ENDBRANCH   9  21
TORSDOF 3
ENDMDL
MODEL 7
REMARK VINA RESULT:      -7.1      4.300      6.530
REMARK  3 active torsions:
REMARK  status: ('A' for Active; 'I' for Inactive)
REMARK    1  A    between atoms: N_9  and  C_12 
REMARK    2  A    between atoms: C_14  and  O_20 
REMARK    3  A    between atoms: O_15  and  C_19 
ROOT
HETATM    1  C   UNL     1      86.264  67.268  15.756  1.00  0.00     0.270 C 
HETATM    2  C   UNL     1      86.401  65.758  17.496  1.00  0.00     0.121 C 
HETATM    3  O   UNL     1      86.648  66.221  14.932  1.00  0.00    -0.311 OA
HETATM    4  C   UNL     1      85.626  65.256  15.209  1.00  0.00     0.221 C 
HETATM    5  N   UNL     1      85.619  68.280  15.171  1.00  0.00    -0.316 N 
ATOM      6  HN  UNL     1      85.538  69.201  15.601  1.00  0.00     0.170 HD
HETATM    7  C   UNL     1      87.413  64.038  18.832  1.00  0.00     0.039 C 
HETATM    8  C   UNL     1      86.912  63.064  17.977  1.00  0.00     0.003 C 
HETATM    9  C   UNL     1      87.312  65.381  18.490  1.00  0.00     0.100 C 
HETATM   10  O   UNL     1      86.293  67.090  17.128  1.00  0.00    -0.270 OA
HETATM   11  C   UNL     1      86.052  64.775  16.561  1.00  0.00     0.003 C 
HETATM   12  C   UNL     1      86.211  63.435  16.843  1.00  0.00     0.012 C 
ENDROOT
BRANCH   5  13
HETATM   13  C   UNL     1      85.072  67.984  13.940  1.00  0.00     0.035 C 
HETATM   14  C   UNL     1      83.785  67.467  13.799  1.00  0.00     0.032 C 
HETATM   15  C   UNL     1      83.096  67.686  12.612  1.00  0.00     0.039 C 
HETATM   16  C   UNL     1      83.727  68.506  11.656  1.00  0.00     0.065 C 
HETATM   17  C   UNL     1      85.115  68.429  11.584  1.00  0.00     0.039 C 
HETATM   18  C   UNL     1      85.796  68.161  12.764  1.00  0.00     0.032 C 
BRANCH  16  19
HETATM   19  O   UNL     1      83.110  69.664  11.279  1.00  0.00    -0.361 OA
ATOM     20  HO  UNL     1      83.421  70.118  10.504  1.00  0.00     0.217 HD
ENDBRANCH  16  19
ENDBRANCH   5  13
BRANCH   9  21
HETATM   21  O   UNL     1      88.029  66.309  19.177  1.00  0.00    -0.358 OA
ATOM     22  HO  UNL     1      88.568  66.948  18.726  1.00  0.00     0.217 HD
ENDBRANCH   9  21
TORSDOF 3
ENDMDL
MODEL 8
REMARK VINA RESULT:      -6.8      4.597      5.726
REMARK  3 active torsions:
REMARK  status: ('A' for Active; 'I' for Inactive)
REMARK    1  A    between atoms: N_9  and  C_12 
REMARK    2  A    between atoms: C_14  and  O_20 
REMARK    3  A    between atoms: O_15  and  C_19 
ROOT
HETATM    1  C   UNL     1      91.241  68.990  18.845  1.00  0.00     0.270 C 
HETATM    2  C   UNL     1      90.717  66.798  19.344  1.00  0.00     0.121 C 
HETATM    3  O   UNL     1      92.549  68.658  19.159  1.00  0.00    -0.311 OA
HETATM    4  C   UNL     1      92.789  67.573  18.254  1.00  0.00     0.221 C 
HETATM    5  N   UNL     1      91.069  70.054  18.056  1.00  0.00    -0.316 N 
ATOM      6  HN  UNL     1      90.180  70.548  17.986  1.00  0.00     0.170 HD
HETATM    7  C   UNL     1      90.723  64.787  20.656  1.00  0.00     0.039 C 
HETATM    8  C   UNL     1      91.933  64.408  20.088  1.00  0.00     0.003 C 
HETATM    9  C   UNL     1      90.213  66.058  20.420  1.00  0.00     0.100 C 
HETATM   10  O   UNL     1      90.234  68.075  19.099  1.00  0.00    -0.270 OA
HETATM   11  C   UNL     1      92.011  66.479  18.914  1.00  0.00     0.003 C 
HETATM   12  C   UNL     1      92.572  65.251  19.197  1.00  0.00     0.012 C 
ENDROOT
BRANCH   5  13
HETATM   13  C   UNL     1      92.187  70.431  17.342  1.00  0.00     0.035 C 
HETATM   14  C   UNL     1      92.390  70.054  16.015  1.00  0.00     0.032 C 
HETATM   15  C   UNL     1      93.189  70.850  15.203  1.00  0.00     0.039 C 
HETATM   16  C   UNL     1      93.669  72.048  15.765  1.00  0.00     0.065 C 
HETATM   17  C   UNL     1      93.965  72.027  17.125  1.00  0.00     0.039 C 
HETATM   18  C   UNL     1      93.197  71.192  17.927  1.00  0.00     0.032 C 
BRANCH  16  19
HETATM   19  O   UNL     1      93.311  73.232  15.187  1.00  0.00    -0.361 OA
ATOM     20  HO  UNL     1      93.448  73.347  14.253  1.00  0.00     0.217 HD
ENDBRANCH  16  19
ENDBRANCH   5  13
BRANCH   9  21
HETATM   21  O   UNL     1      89.186  66.525  21.177  1.00  0.00    -0.358 OA
ATOM     22  HO  UNL     1      88.731  65.962  21.792  1.00  0.00     0.217 HD
ENDBRANCH   9  21
TORSDOF 3
ENDMDL
MODEL 9
REMARK VINA RESULT:      -6.8      3.827      6.016
REMARK  3 active torsions:
REMARK  status: ('A' for Active; 'I' for Inactive)
REMARK    1  A    between atoms: N_9  and  C_12 
REMARK    2  A    between atoms: C_14  and  O_20 
REMARK    3  A    between atoms: O_15  and  C_19 
ROOT
HETATM    1  C   UNL     1      93.154  67.117  18.155  1.00  0.00     0.270 C 
HETATM    2  C   UNL     1      92.806  68.520  16.356  1.00  0.00     0.121 C 
HETATM    3  O   UNL     1      92.269  67.928  18.849  1.00  0.00    -0.311 OA
HETATM    4  C   UNL     1      91.106  67.853  18.014  1.00  0.00     0.221 C 
HETATM    5  N   UNL     1      93.313  65.875  18.621  1.00  0.00    -0.316 N 
ATOM      6  HN  UNL     1      94.116  65.296  18.377  1.00  0.00     0.170 HD
HETATM    7  C   UNL     1      92.625  70.631  15.225  1.00  0.00     0.039 C 
HETATM    8  C   UNL     1      91.295  70.736  15.612  1.00  0.00     0.003 C 
HETATM    9  C   UNL     1      93.423  69.620  15.748  1.00  0.00     0.100 C 
HETATM   10  O   UNL     1      93.582  67.507  16.898  1.00  0.00    -0.270 OA
HETATM   11  C   UNL     1      91.521  68.729  16.874  1.00  0.00     0.003 C 
HETATM   12  C   UNL     1      90.734  69.769  16.427  1.00  0.00     0.012 C 
ENDROOT
BRANCH   5  13
HETATM   13  C   UNL     1      92.308  65.437  19.457  1.00  0.00     0.035 C 
HETATM   14  C   UNL     1      92.343  65.634  20.836  1.00  0.00     0.032 C 
HETATM   15  C   UNL     1      91.147  65.679  21.543  1.00  0.00     0.039 C 
HETATM   16  C   UNL     1      89.962  65.612  20.785  1.00  0.00     0.065 C 
HETATM   17  C   UNL     1      89.996  64.824  19.638  1.00  0.00     0.039 C 
HETATM   18  C   UNL     1      91.206  64.741  18.963  1.00  0.00     0.032 C 
BRANCH  16  19
HETATM   19  O   UNL     1      89.091  66.662  20.838  1.00  0.00    -0.361 OA
ATOM     20  HO  UNL     1      88.383  66.703  20.205  1.00  0.00     0.217 HD
ENDBRANCH  16  19
ENDBRANCH   5  13
BRANCH   9  21
HETATM   21  O   UNL     1      94.771  69.672  15.588  1.00  0.00    -0.358 OA
ATOM     22  HO  UNL     1      95.345  69.888  16.313  1.00  0.00     0.217 HD
ENDBRANCH   9  21
TORSDOF 3
ENDMDL
