REMARK  3 active torsions:
REMARK  status: ('A' for Active; 'I' for Inactive)
REMARK    1  A    between atoms: O_1  and  C_6 
REMARK    2  A    between atoms: C_3  and  C_8 
REMARK       I    between atoms: C_3  and  N_16 
REMARK    3  A    between atoms: C_9  and  C_10 
REMARK       I    between atoms: C_9  and  N_11 
ROOT
HETATM    1  C   UNL     1     101.568  44.768  11.451  1.00  0.00     0.021 C 
HETATM    2  C   UNL     1     100.930  46.033  13.855  1.00  0.00     0.054 C 
HETATM    3  C   UNL     1     101.949  46.536  13.050  1.00  0.00     0.082 C 
HETATM    4  C   UNL     1     102.242  45.934  11.830  1.00  0.00     0.065 C 
HETATM    5  C   UNL     1     100.201  44.933  13.435  1.00  0.00     0.034 C 
HETATM    6  C   UNL     1     100.613  44.228  12.301  1.00  0.00     0.018 C 
ENDROOT
BRANCH   4   7
HETATM    7  C   UNL     1     103.233  46.535  10.889  1.00  0.00     0.252 C 
HETATM    8  O   UNL     1     102.887  46.821   9.753  1.00  0.00    -0.268 OA
HETATM    9  N   UNL     1     104.500  46.681  11.334  1.00  0.00    -0.366 N 
ATOM     10  HN2 UNL     1     104.789  46.442  12.283  1.00  0.00     0.159 HD
ATOM     11  HN1 UNL     1     105.177  47.092  10.691  1.00  0.00     0.159 HD
ENDBRANCH   4   7
BRANCH   3  12
HETATM   12  O   UNL     1     102.668  47.604  13.465  1.00  0.00    -0.360 OA
ATOM     13  HO  UNL     1     103.363  47.947  12.916  1.00  0.00     0.217 HD
ENDBRANCH   3  12
BRANCH   5  14
HETATM   14  C   UNL     1      99.115  44.361  14.297  1.00  0.00     0.251 C 
HETATM   15  N   UNL     1      99.010  44.799  15.554  1.00  0.00    -0.361 N 
HETATM   16  C   UNL     1      99.782  44.271  16.665  1.00  0.00     0.149 C 
ATOM     17  HN  UNL     1      98.347  45.550  15.746  1.00  0.00     0.162 HD
HETATM   18  O   UNL     1      98.191  43.749  13.757  1.00  0.00    -0.268 OA
ENDBRANCH   5  14
TORSDOF 3
