MODEL 1
REMARK VINA RESULT:      -8.9      0.000      0.000
REMARK  1 active torsions:
REMARK  status: ('A' for Active; 'I' for Inactive)
REMARK    1  A    between atoms: C_12  and  O_18 
ROOT
HETATM    1  C   UNL     1      15.282 -52.909 -29.181  1.00  0.00     0.037 C 
HETATM    2  C   UNL     1      15.139 -52.334 -26.366  1.00  0.00     0.019 C 
HETATM    3  C   UNL     1      14.105 -52.055 -25.449  1.00  0.00     0.114 C 
HETATM    4  C   UNL     1      15.649 -54.096 -28.646  1.00  0.00     0.003 C 
HETATM    5  C   UNL     1      16.007 -54.402 -27.351  1.00  0.00     0.001 C 
HETATM    6  C   UNL     1      15.427 -49.967 -26.859  1.00  0.00     0.266 C 
HETATM    7  C   UNL     1      14.137 -49.033 -23.623  1.00  0.00     0.031 C 
HETATM    8  C   UNL     1      13.068 -52.694 -23.423  1.00  0.00     0.143 C 
HETATM    9  C   UNL     1      15.916 -53.481 -26.311  1.00  0.00     0.015 C 
HETATM   10  O   UNL     1      16.115 -49.147 -27.437  1.00  0.00    -0.267 OA
HETATM   11  O   UNL     1      13.422 -52.991 -24.745  1.00  0.00    -0.320 OA
HETATM   12  C   UNL     1      15.189 -51.624 -28.716  1.00  0.00     0.082 C 
HETATM   13  C   UNL     1      14.763 -48.646 -24.809  1.00  0.00     0.101 C 
HETATM   14  C   UNL     1      14.081 -50.751 -25.028  1.00  0.00     0.087 C 
HETATM   15  C   UNL     1      13.396 -51.415 -22.868  1.00  0.00     0.038 C 
HETATM   16  N   UNL     1      14.763 -49.735 -25.657  1.00  0.00    -0.285 N 
HETATM   17  C   UNL     1      15.284 -51.325 -27.350  1.00  0.00     0.079 C 
HETATM   18  C   UNL     1      13.890 -50.414 -23.709  1.00  0.00    -0.003 C 
ENDROOT
BRANCH  12  19
HETATM   19  O   UNL     1      14.888 -50.648 -29.606  1.00  0.00    -0.360 OA
ATOM     20  HO  UNL     1      15.300 -50.684 -30.462  1.00  0.00     0.217 HD
ENDBRANCH  12  19
TORSDOF 1
ENDMDL
MODEL 2
REMARK VINA RESULT:      -8.6      1.547      5.441
REMARK  1 active torsions:
REMARK  status: ('A' for Active; 'I' for Inactive)
REMARK    1  A    between atoms: C_12  and  O_18 
ROOT
HETATM    1  C   UNL     1      13.282 -50.399 -22.682  1.00  0.00     0.037 C 
HETATM    2  C   UNL     1      14.808 -50.832 -25.082  1.00  0.00     0.019 C 
HETATM    3  C   UNL     1      14.507 -51.187 -26.413  1.00  0.00     0.114 C 
HETATM    4  C   UNL     1      13.721 -49.147 -22.950  1.00  0.00     0.003 C 
HETATM    5  C   UNL     1      14.694 -48.729 -23.831  1.00  0.00     0.001 C 
HETATM    6  C   UNL     1      15.088 -53.168 -24.454  1.00  0.00     0.266 C 
HETATM    7  C   UNL     1      15.955 -54.076 -27.836  1.00  0.00     0.031 C 
HETATM    8  C   UNL     1      14.698 -50.572 -28.687  1.00  0.00     0.143 C 
HETATM    9  C   UNL     1      15.322 -49.595 -24.722  1.00  0.00     0.015 C 
HETATM   10  O   UNL     1      15.442 -53.925 -23.571  1.00  0.00    -0.267 OA
HETATM   11  O   UNL     1      14.213 -50.306 -27.401  1.00  0.00    -0.320 OA
HETATM   12  C   UNL     1      13.638 -51.658 -23.088  1.00  0.00     0.082 C 
HETATM   13  C   UNL     1      15.861 -54.446 -26.494  1.00  0.00     0.101 C 
HETATM   14  C   UNL     1      14.897 -52.458 -26.744  1.00  0.00     0.087 C 
HETATM   15  C   UNL     1      15.447 -51.767 -28.934  1.00  0.00     0.038 C 
HETATM   16  N   UNL     1      15.243 -53.414 -25.817  1.00  0.00    -0.285 N 
HETATM   17  C   UNL     1      14.516 -51.867 -24.161  1.00  0.00     0.079 C 
HETATM   18  C   UNL     1      15.519 -52.744 -27.937  1.00  0.00    -0.003 C 
ENDROOT
BRANCH  12  19
HETATM   19  O   UNL     1      13.027 -52.711 -22.494  1.00  0.00    -0.360 OA
ATOM     20  HO  UNL     1      13.219 -52.879 -21.579  1.00  0.00     0.217 HD
ENDBRANCH  12  19
TORSDOF 1
ENDMDL
MODEL 3
REMARK VINA RESULT:      -8.5      2.754      4.954
REMARK  1 active torsions:
REMARK  status: ('A' for Active; 'I' for Inactive)
REMARK    1  A    between atoms: C_12  and  O_18 
ROOT
HETATM    1  C   UNL     1      14.450 -54.143 -23.661  1.00  0.00     0.037 C 
HETATM    2  C   UNL     1      16.706 -52.943 -24.982  1.00  0.00     0.019 C 
HETATM    3  C   UNL     1      17.011 -51.661 -25.483  1.00  0.00     0.114 C 
HETATM    4  C   UNL     1      15.372 -54.148 -22.672  1.00  0.00     0.003 C 
HETATM    5  C   UNL     1      16.731 -53.926 -22.738  1.00  0.00     0.001 C 
HETATM    6  C   UNL     1      15.787 -53.635 -27.128  1.00  0.00     0.266 C 
HETATM    7  C   UNL     1      17.848 -51.255 -28.889  1.00  0.00     0.031 C 
HETATM    8  C   UNL     1      18.520 -49.844 -25.406  1.00  0.00     0.143 C 
HETATM    9  C   UNL     1      17.367 -53.517 -23.907  1.00  0.00     0.015 C 
HETATM   10  O   UNL     1      15.356 -54.573 -27.770  1.00  0.00    -0.267 OA
HETATM   11  O   UNL     1      17.586 -50.666 -24.764  1.00  0.00    -0.320 OA
HETATM   12  C   UNL     1      14.490 -53.999 -25.022  1.00  0.00     0.082 C 
HETATM   13  C   UNL     1      16.970 -52.338 -28.948  1.00  0.00     0.101 C 
HETATM   14  C   UNL     1      17.036 -51.598 -26.852  1.00  0.00     0.087 C 
HETATM   15  C   UNL     1      18.813 -50.045 -26.793  1.00  0.00     0.038 C 
HETATM   16  N   UNL     1      16.507 -52.570 -27.668  1.00  0.00    -0.285 N 
HETATM   17  C   UNL     1      15.647 -53.568 -25.685  1.00  0.00     0.079 C 
HETATM   18  C   UNL     1      18.025 -50.929 -27.534  1.00  0.00    -0.003 C 
ENDROOT
BRANCH  12  19
HETATM   19  O   UNL     1      13.337 -54.176 -25.713  1.00  0.00    -0.360 OA
ATOM     20  HO  UNL     1      13.331 -54.819 -26.412  1.00  0.00     0.217 HD
ENDBRANCH  12  19
TORSDOF 1
ENDMDL
MODEL 4
REMARK VINA RESULT:      -8.4      1.647      3.321
REMARK  1 active torsions:
REMARK  status: ('A' for Active; 'I' for Inactive)
REMARK    1  A    between atoms: C_12  and  O_18 
ROOT
HETATM    1  C   UNL     1      14.704 -53.715 -27.992  1.00  0.00     0.037 C 
HETATM    2  C   UNL     1      14.922 -51.172 -26.665  1.00  0.00     0.019 C 
HETATM    3  C   UNL     1      15.717 -50.646 -25.625  1.00  0.00     0.114 C 
HETATM    4  C   UNL     1      15.208 -52.940 -28.980  1.00  0.00     0.003 C 
HETATM    5  C   UNL     1      15.314 -51.568 -29.051  1.00  0.00     0.001 C 
HETATM    6  C   UNL     1      13.206 -51.874 -25.087  1.00  0.00     0.266 C 
HETATM    7  C   UNL     1      14.182 -49.318 -22.736  1.00  0.00     0.031 C 
HETATM    8  C   UNL     1      17.236 -48.948 -24.998  1.00  0.00     0.143 C 
HETATM    9  C   UNL     1      15.003 -50.736 -27.979  1.00  0.00     0.015 C 
HETATM   10  O   UNL     1      12.084 -52.329 -24.975  1.00  0.00    -0.267 OA
HETATM   11  O   UNL     1      16.924 -50.054 -25.798  1.00  0.00    -0.320 OA
HETATM   12  C   UNL     1      14.085 -53.476 -26.794  1.00  0.00     0.082 C 
HETATM   13  C   UNL     1      13.269 -50.308 -23.103  1.00  0.00     0.101 C 
HETATM   14  C   UNL     1      15.025 -50.432 -24.462  1.00  0.00     0.087 C 
HETATM   15  C   UNL     1      16.305 -48.499 -24.007  1.00  0.00     0.038 C 
HETATM   16  N   UNL     1      13.783 -50.963 -24.205  1.00  0.00    -0.285 N 
HETATM   17  C   UNL     1      14.050 -52.196 -26.223  1.00  0.00     0.079 C 
HETATM   18  C   UNL     1      15.185 -49.285 -23.719  1.00  0.00    -0.003 C 
ENDROOT
BRANCH  12  19
HETATM   19  O   UNL     1      13.599 -54.539 -26.109  1.00  0.00    -0.360 OA
ATOM     20  HO  UNL     1      13.374 -55.321 -26.601  1.00  0.00     0.217 HD
ENDBRANCH  12  19
TORSDOF 1
ENDMDL
MODEL 5
REMARK VINA RESULT:      -8.2      1.959      4.080
REMARK  1 active torsions:
REMARK  status: ('A' for Active; 'I' for Inactive)
REMARK    1  A    between atoms: C_12  and  O_18 
ROOT
HETATM    1  C   UNL     1      17.472 -54.277 -24.763  1.00  0.00     0.037 C 
HETATM    2  C   UNL     1      15.825 -51.977 -25.286  1.00  0.00     0.019 C 
HETATM    3  C   UNL     1      15.944 -50.588 -25.079  1.00  0.00     0.114 C 
HETATM    4  C   UNL     1      17.492 -54.235 -26.115  1.00  0.00     0.003 C 
HETATM    5  C   UNL     1      16.702 -53.512 -26.982  1.00  0.00     0.001 C 
HETATM    6  C   UNL     1      14.762 -52.274 -23.115  1.00  0.00     0.266 C 
HETATM    7  C   UNL     1      13.538 -48.881 -23.139  1.00  0.00     0.031 C 
HETATM    8  C   UNL     1      15.917 -48.454 -26.095  1.00  0.00     0.143 C 
HETATM    9  C   UNL     1      15.787 -52.559 -26.544  1.00  0.00     0.015 C 
HETATM   10  O   UNL     1      14.191 -53.062 -22.386  1.00  0.00    -0.267 OA
HETATM   11  O   UNL     1      16.500 -49.720 -25.960  1.00  0.00    -0.320 OA
HETATM   12  C   UNL     1      16.687 -53.721 -23.788  1.00  0.00     0.082 C 
HETATM   13  C   UNL     1      13.534 -50.141 -22.539  1.00  0.00     0.101 C 
HETATM   14  C   UNL     1      15.125 -50.107 -24.091  1.00  0.00     0.087 C 
HETATM   15  C   UNL     1      14.790 -48.098 -25.286  1.00  0.00     0.038 C 
HETATM   16  N   UNL     1      14.493 -50.908 -23.170  1.00  0.00    -0.285 N 
HETATM   17  C   UNL     1      15.762 -52.707 -24.074  1.00  0.00     0.079 C 
HETATM   18  C   UNL     1      14.409 -48.942 -24.240  1.00  0.00    -0.003 C 
ENDROOT
BRANCH  12  19
HETATM   19  O   UNL     1      16.908 -54.098 -22.505  1.00  0.00    -0.360 OA
ATOM     20  HO  UNL     1      16.945 -55.028 -22.315  1.00  0.00     0.217 HD
ENDBRANCH  12  19
TORSDOF 1
ENDMDL
MODEL 6
REMARK VINA RESULT:      -8.2      1.979      4.536
REMARK  1 active torsions:
REMARK  status: ('A' for Active; 'I' for Inactive)
REMARK    1  A    between atoms: C_12  and  O_18 
ROOT
HETATM    1  C   UNL     1      16.565 -48.078 -26.367  1.00  0.00     0.037 C 
HETATM    2  C   UNL     1      16.511 -50.946 -26.586  1.00  0.00     0.019 C 
HETATM    3  C   UNL     1      15.821 -51.880 -27.387  1.00  0.00     0.114 C 
HETATM    4  C   UNL     1      17.799 -48.332 -26.860  1.00  0.00     0.003 C 
HETATM    5  C   UNL     1      18.474 -49.529 -26.960  1.00  0.00     0.001 C 
HETATM    6  C   UNL     1      14.770 -51.020 -24.886  1.00  0.00     0.266 C 
HETATM    7  C   UNL     1      13.811 -54.355 -25.871  1.00  0.00     0.031 C 
HETATM    8  C   UNL     1      16.029 -53.679 -28.905  1.00  0.00     0.143 C 
HETATM    9  C   UNL     1      17.883 -50.752 -26.655  1.00  0.00     0.015 C 
HETATM   10  O   UNL     1      14.456 -50.663 -23.767  1.00  0.00    -0.267 OA
HETATM   11  O   UNL     1      16.250 -52.333 -28.590  1.00  0.00    -0.320 OA
HETATM   12  C   UNL     1      15.593 -48.826 -25.757  1.00  0.00     0.082 C 
HETATM   13  C   UNL     1      13.691 -53.305 -24.959  1.00  0.00     0.101 C 
HETATM   14  C   UNL     1      14.869 -52.590 -26.705  1.00  0.00     0.087 C 
HETATM   15  C   UNL     1      15.333 -54.522 -27.980  1.00  0.00     0.038 C 
HETATM   16  N   UNL     1      14.391 -52.229 -25.467  1.00  0.00    -0.285 N 
HETATM   17  C   UNL     1      15.652 -50.226 -25.722  1.00  0.00     0.079 C 
HETATM   18  C   UNL     1      14.716 -53.947 -26.866  1.00  0.00    -0.003 C 
ENDROOT
BRANCH  12  19
HETATM   19  O   UNL     1      14.502 -48.178 -25.281  1.00  0.00    -0.360 OA
ATOM     20  HO  UNL     1      13.737 -48.698 -25.060  1.00  0.00     0.217 HD
ENDBRANCH  12  19
TORSDOF 1
ENDMDL
MODEL 7
REMARK VINA RESULT:      -8.2      2.597      4.167
REMARK  1 active torsions:
REMARK  status: ('A' for Active; 'I' for Inactive)
REMARK    1  A    between atoms: C_12  and  O_18 
ROOT
HETATM    1  C   UNL     1      19.051 -49.509 -27.182  1.00  0.00     0.037 C 
HETATM    2  C   UNL     1      16.957 -50.956 -25.841  1.00  0.00     0.019 C 
HETATM    3  C   UNL     1      16.810 -52.258 -25.319  1.00  0.00     0.114 C 
HETATM    4  C   UNL     1      18.992 -48.859 -25.997  1.00  0.00     0.003 C 
HETATM    5  C   UNL     1      18.032 -48.918 -25.011  1.00  0.00     0.001 C 
HETATM    6  C   UNL     1      16.087 -51.656 -28.005  1.00  0.00     0.266 C 
HETATM    7  C   UNL     1      14.216 -54.345 -26.495  1.00  0.00     0.031 C 
HETATM    8  C   UNL     1      16.309 -53.547 -23.403  1.00  0.00     0.143 C 
HETATM    9  C   UNL     1      16.970 -49.817 -25.051  1.00  0.00     0.015 C 
HETATM   10  O   UNL     1      15.721 -51.275 -29.100  1.00  0.00    -0.267 OA
HETATM   11  O   UNL     1      17.137 -52.626 -24.057  1.00  0.00    -0.320 OA
HETATM   12  C   UNL     1      18.222 -50.364 -27.860  1.00  0.00     0.082 C 
HETATM   13  C   UNL     1      14.492 -53.581 -27.630  1.00  0.00     0.101 C 
HETATM   14  C   UNL     1      15.964 -53.050 -26.050  1.00  0.00     0.087 C 
HETATM   15  C   UNL     1      15.177 -54.098 -24.086  1.00  0.00     0.038 C 
HETATM   16  N   UNL     1      15.550 -52.748 -27.327  1.00  0.00    -0.285 N 
HETATM   17  C   UNL     1      17.102 -50.944 -27.250  1.00  0.00     0.079 C 
HETATM   18  C   UNL     1      15.025 -53.859 -25.454  1.00  0.00    -0.003 C 
ENDROOT
BRANCH  12  19
HETATM   19  O   UNL     1      18.579 -50.728 -29.115  1.00  0.00    -0.360 OA
ATOM     20  HO  UNL     1      19.193 -51.446 -29.212  1.00  0.00     0.217 HD
ENDBRANCH  12  19
TORSDOF 1
ENDMDL
MODEL 8
REMARK VINA RESULT:      -8.2      1.896      3.751
REMARK  1 active torsions:
REMARK  status: ('A' for Active; 'I' for Inactive)
REMARK    1  A    between atoms: C_12  and  O_18 
ROOT
HETATM    1  C   UNL     1      15.111 -54.489 -27.203  1.00  0.00     0.037 C 
HETATM    2  C   UNL     1      16.138 -51.805 -27.076  1.00  0.00     0.019 C 
HETATM    3  C   UNL     1      17.210 -51.170 -26.416  1.00  0.00     0.114 C 
HETATM    4  C   UNL     1      15.582 -54.323 -28.460  1.00  0.00     0.003 C 
HETATM    5  C   UNL     1      15.978 -53.170 -29.104  1.00  0.00     0.001 C 
HETATM    6  C   UNL     1      14.634 -51.343 -25.217  1.00  0.00     0.266 C 
HETATM    7  C   UNL     1      16.580 -48.471 -24.228  1.00  0.00     0.031 C 
HETATM    8  C   UNL     1      19.161 -49.861 -26.674  1.00  0.00     0.143 C 
HETATM    9  C   UNL     1      16.067 -51.942 -28.454  1.00  0.00     0.015 C 
HETATM   10  O   UNL     1      13.480 -51.385 -24.837  1.00  0.00    -0.267 OA
HETATM   11  O   UNL     1      18.465 -51.052 -26.914  1.00  0.00    -0.320 OA
HETATM   12  C   UNL     1      14.796 -53.649 -26.168  1.00  0.00     0.082 C 
HETATM   13  C   UNL     1      15.416 -49.227 -24.076  1.00  0.00     0.101 C 
HETATM   14  C   UNL     1      16.814 -50.345 -25.396  1.00  0.00     0.087 C 
HETATM   15  C   UNL     1      18.556 -48.828 -25.889  1.00  0.00     0.038 C 
HETATM   16  N   UNL     1      15.555 -50.366 -24.843  1.00  0.00    -0.285 N 
HETATM   17  C   UNL     1      15.157 -52.295 -26.180  1.00  0.00     0.079 C 
HETATM   18  C   UNL     1      17.363 -49.097 -25.212  1.00  0.00    -0.003 C 
ENDROOT
BRANCH  12  19
HETATM   19  O   UNL     1      14.221 -54.190 -25.066  1.00  0.00    -0.360 OA
ATOM     20  HO  UNL     1      14.192 -55.137 -24.999  1.00  0.00     0.217 HD
ENDBRANCH  12  19
TORSDOF 1
ENDMDL
MODEL 9
REMARK VINA RESULT:      -8.1      2.046      4.510
REMARK  1 active torsions:
REMARK  status: ('A' for Active; 'I' for Inactive)
REMARK    1  A    between atoms: C_12  and  O_18 
ROOT
HETATM    1  C   UNL     1      17.815 -48.906 -24.960  1.00  0.00     0.037 C 
HETATM    2  C   UNL     1      15.835 -50.852 -25.715  1.00  0.00     0.019 C 
HETATM    3  C   UNL     1      15.643 -52.230 -25.488  1.00  0.00     0.114 C 
HETATM    4  C   UNL     1      16.741 -48.482 -24.256  1.00  0.00     0.003 C 
HETATM    5  C   UNL     1      15.417 -48.848 -24.369  1.00  0.00     0.001 C 
HETATM    6  C   UNL     1      17.083 -51.295 -27.758  1.00  0.00     0.266 C 
HETATM    7  C   UNL     1      15.392 -54.447 -28.226  1.00  0.00     0.031 C 
HETATM    8  C   UNL     1      14.180 -53.885 -24.648  1.00  0.00     0.143 C 
HETATM    9  C   UNL     1      14.992 -49.873 -25.209  1.00  0.00     0.015 C 
HETATM   10  O   UNL     1      17.595 -50.792 -28.740  1.00  0.00    -0.267 OA
HETATM   11  O   UNL     1      14.978 -52.755 -24.431  1.00  0.00    -0.320 OA
HETATM   12  C   UNL     1      18.005 -49.746 -26.026  1.00  0.00     0.082 C 
HETATM   13  C   UNL     1      16.246 -53.469 -28.739  1.00  0.00     0.101 C 
HETATM   14  C   UNL     1      15.848 -53.003 -26.602  1.00  0.00     0.087 C 
HETATM   15  C   UNL     1      14.117 -54.473 -25.953  1.00  0.00     0.038 C 
HETATM   16  N   UNL     1      16.485 -52.553 -27.735  1.00  0.00    -0.285 N 
HETATM   17  C   UNL     1      16.982 -50.580 -26.499  1.00  0.00     0.079 C 
HETATM   18  C   UNL     1      14.999 -54.030 -26.942  1.00  0.00    -0.003 C 
ENDROOT
BRANCH  12  19
HETATM   19  O   UNL     1      19.252 -49.836 -26.547  1.00  0.00    -0.360 OA
ATOM     20  HO  UNL     1      19.804 -50.554 -26.260  1.00  0.00     0.217 HD
ENDBRANCH  12  19
TORSDOF 1
ENDMDL
