REMARK  2 active torsions:
REMARK  status: ('A' for Active; 'I' for Inactive)
REMARK    1  A    between atoms: C_5  and  O_12 
REMARK    2  A    between atoms: C_19  and  N_21 
ROOT
HETATM    1  N   UNL     1      16.084 -52.867 -28.300  1.00  0.00    -0.307 N 
ATOM      2  HN  UNL     1      16.208 -53.442 -29.133  1.00  0.00     0.170 HD
HETATM    3  C   UNL     1      15.190 -53.268 -27.318  1.00  0.00     0.334 C 
HETATM    4  O   UNL     1      14.296 -50.006 -26.420  1.00  0.00    -0.267 OA
HETATM    5  C   UNL     1      17.363 -49.754 -27.089  1.00  0.00     0.019 A 
HETATM    6  C   UNL     1      18.078 -51.327 -28.625  1.00  0.00     0.030 A 
HETATM    7  C   UNL     1      15.046 -50.922 -26.681  1.00  0.00     0.269 C 
HETATM    8  O   UNL     1      14.953 -54.459 -27.127  1.00  0.00    -0.246 OA
HETATM    9  C   UNL     1      16.807 -51.701 -28.165  1.00  0.00     0.052 A 
HETATM   10  C   UNL     1      16.350 -50.715 -27.270  1.00  0.00     0.059 A 
HETATM   11  C   UNL     1      18.448 -50.180 -27.889  1.00  0.00     0.003 A 
HETATM   12  N   UNL     1      14.655 -52.266 -26.477  1.00  0.00    -0.227 N 
ENDROOT
BRANCH  12  13
HETATM   13  C   UNL     1      13.709 -52.564 -25.447  1.00  0.00     0.081 C 
HETATM   14  C   UNL     1      14.115 -53.174 -24.249  1.00  0.00     0.099 C 
HETATM   15  C   UNL     1      13.242 -53.224 -23.158  1.00  0.00    -0.026 C 
HETATM   16  C   UNL     1      13.564 -54.036 -21.928  1.00  0.00     0.051 C 
HETATM   17  C   UNL     1      12.031 -52.547 -23.232  1.00  0.00     0.010 C 
HETATM   18  C   UNL     1      11.570 -52.059 -24.453  1.00  0.00     0.003 C 
HETATM   19  C   UNL     1      12.382 -52.140 -25.577  1.00  0.00     0.033 C 
BRANCH  14  20
HETATM   20  O   UNL     1      15.345 -53.726 -24.148  1.00  0.00    -0.358 OA
ATOM     21  HO  UNL     1      15.938 -53.692 -24.889  1.00  0.00     0.217 HD
ENDBRANCH  14  20
ENDBRANCH  12  13
TORSDOF 2
