MODEL 1
REMARK VINA RESULT:     -10.8      0.000      0.000
REMARK  1 active torsions:
REMARK  status: ('A' for Active; 'I' for Inactive)
REMARK    1  A    between atoms: C_7  and  O_28 
ROOT
HETATM    1  C   UNL     1     -48.865 -11.694  31.294  1.00  0.00     0.049 C 
HETATM    2  C   UNL     1     -53.730  -4.880  28.674  1.00  0.00     0.041 C 
HETATM    3  C   UNL     1     -52.366  -5.032  30.850  1.00  0.00     0.041 C 
HETATM    4  N   UNL     1     -51.019  -7.001  31.204  1.00  0.00    -0.369 N 
ATOM      5  HN  UNL     1     -50.049  -6.724  31.054  1.00  0.00     0.161 HD
HETATM    6  C   UNL     1     -49.371 -13.455  33.986  1.00  0.00     0.049 C 
HETATM    7  C   UNL     1     -51.150  -7.846  33.602  1.00  0.00     0.093 C 
HETATM    8  C   UNL     1     -53.278  -6.313  28.329  1.00  0.00     0.258 C 
HETATM    9  C   UNL     1     -52.881  -4.161  29.713  1.00  0.00     0.005 C 
HETATM   10  C   UNL     1     -52.000 -10.199  32.407  1.00  0.00    -0.017 C 
HETATM   11  C   UNL     1     -53.415  -7.239  30.468  1.00  0.00     0.226 C 
HETATM   12  C   UNL     1     -52.103  -6.465  30.378  1.00  0.00     0.122 C 
HETATM   13  C   UNL     1     -52.218  -8.951  31.825  1.00  0.00    -0.016 C 
HETATM   14  C   UNL     1     -51.860  -6.446  28.893  1.00  0.00     0.187 C 
HETATM   15  C   UNL     1     -51.372  -7.908  32.209  1.00  0.00     0.070 C 
HETATM   16  C   UNL     1     -50.154 -12.333  33.370  1.00  0.00    -0.055 C 
HETATM   17  C   UNL     1     -50.107 -12.150  31.978  1.00  0.00    -0.056 C 
HETATM   18  C   UNL     1     -50.931 -11.484  34.156  1.00  0.00     0.019 C 
HETATM   19  C   UNL     1     -50.949  -9.060  34.263  1.00  0.00     0.051 C 
HETATM   20  C   UNL     1     -51.332 -10.250  33.636  1.00  0.00    -0.022 C 
HETATM   21  C   UNL     1     -52.325 -11.343  31.661  1.00  0.00     0.013 C 
HETATM   22  N   UNL     1     -54.055  -7.234  29.155  1.00  0.00    -0.057 N 
ATOM     23  HN1 UNL     1     -54.151  -8.164  28.747  1.00  0.00     0.278 HD
ATOM     24  HN2 UNL     1     -55.049  -7.009  29.189  1.00  0.00     0.278 HD
HETATM   25  C   UNL     1     -53.368  -8.674  30.940  1.00  0.00     0.078 C 
HETATM   26  O   UNL     1     -50.819  -6.470  28.312  1.00  0.00    -0.293 OA
HETATM   27  C   UNL     1     -51.311 -12.233  31.286  1.00  0.00     0.008 C 
ENDROOT
BRANCH   7  28
HETATM   28  O   UNL     1     -51.347  -6.711  34.270  1.00  0.00    -0.358 OA
ATOM     29  HO  UNL     1     -51.882  -6.698  35.055  1.00  0.00     0.217 HD
ENDBRANCH   7  28
TORSDOF 1
ENDMDL
MODEL 2
REMARK VINA RESULT:     -10.6      2.044      6.430
REMARK  1 active torsions:
REMARK  status: ('A' for Active; 'I' for Inactive)
REMARK    1  A    between atoms: C_7  and  O_28 
ROOT
HETATM    1  C   UNL     1     -54.411  -7.243  29.174  1.00  0.00     0.049 C 
HETATM    2  C   UNL     1     -49.301 -12.963  33.430  1.00  0.00     0.041 C 
HETATM    3  C   UNL     1     -50.190 -10.732  34.354  1.00  0.00     0.041 C 
HETATM    4  N   UNL     1     -51.693  -9.454  32.967  1.00  0.00    -0.369 N 
ATOM      5  HN  UNL     1     -52.625  -9.563  33.366  1.00  0.00     0.161 HD
HETATM    6  C   UNL     1     -53.606  -4.177  28.428  1.00  0.00     0.049 C 
HETATM    7  C   UNL     1     -51.185  -6.960  33.029  1.00  0.00     0.093 C 
HETATM    8  C   UNL     1     -50.009 -12.655  32.096  1.00  0.00     0.258 C 
HETATM    9  C   UNL     1     -49.807 -12.179  34.633  1.00  0.00     0.005 C 
HETATM   10  C   UNL     1     -50.937  -7.250  30.283  1.00  0.00    -0.017 C 
HETATM   11  C   UNL     1     -49.560 -10.366  31.991  1.00  0.00     0.226 C 
HETATM   12  C   UNL     1     -50.741 -10.567  32.935  1.00  0.00     0.122 C 
HETATM   13  C   UNL     1     -50.674  -8.297  31.165  1.00  0.00    -0.016 C 
HETATM   14  C   UNL     1     -51.283 -11.892  32.471  1.00  0.00     0.187 C 
HETATM   15  C   UNL     1     -51.269  -8.235  32.427  1.00  0.00     0.070 C 
HETATM   16  C   UNL     1     -52.820  -5.284  29.067  1.00  0.00    -0.055 C 
HETATM   17  C   UNL     1     -53.130  -6.616  28.745  1.00  0.00    -0.056 C 
HETATM   18  C   UNL     1     -51.786  -5.008  29.961  1.00  0.00     0.019 C 
HETATM   19  C   UNL     1     -51.410  -5.858  32.201  1.00  0.00     0.051 C 
HETATM   20  C   UNL     1     -51.335  -6.018  30.815  1.00  0.00    -0.022 C 
HETATM   21  C   UNL     1     -50.937  -7.529  28.906  1.00  0.00     0.013 C 
HETATM   22  N   UNL     1     -49.213 -11.653  31.392  1.00  0.00    -0.057 N 
ATOM     23  HN1 UNL     1     -49.334 -11.676  30.379  1.00  0.00     0.278 HD
ATOM     24  HN2 UNL     1     -48.212 -11.849  31.403  1.00  0.00     0.278 HD
HETATM   25  C   UNL     1     -49.706  -9.371  30.863  1.00  0.00     0.078 C 
HETATM   26  O   UNL     1     -52.416 -12.266  32.457  1.00  0.00    -0.293 OA
HETATM   27  C   UNL     1     -52.119  -7.382  28.172  1.00  0.00     0.008 C 
ENDROOT
BRANCH   7  28
HETATM   28  O   UNL     1     -50.697  -6.822  34.261  1.00  0.00    -0.358 OA
ATOM     29  HO  UNL     1     -49.760  -6.805  34.410  1.00  0.00     0.217 HD
ENDBRANCH   7  28
TORSDOF 1
ENDMDL
MODEL 3
REMARK VINA RESULT:      -9.9      2.499      6.623
REMARK  1 active torsions:
REMARK  status: ('A' for Active; 'I' for Inactive)
REMARK    1  A    between atoms: C_7  and  O_28 
ROOT
HETATM    1  C   UNL     1     -49.966  -4.366  35.031  1.00  0.00     0.049 C 
HETATM    2  C   UNL     1     -50.265 -12.858  32.853  1.00  0.00     0.041 C 
HETATM    3  C   UNL     1     -49.844 -10.888  31.252  1.00  0.00     0.041 C 
HETATM    4  N   UNL     1     -49.685  -8.677  32.201  1.00  0.00    -0.369 N 
ATOM      5  HN  UNL     1     -48.699  -8.419  32.181  1.00  0.00     0.161 HD
HETATM    6  C   UNL     1     -51.991  -2.060  33.941  1.00  0.00     0.049 C 
HETATM    7  C   UNL     1     -50.900  -6.931  30.800  1.00  0.00     0.093 C 
HETATM    8  C   UNL     1     -50.411 -11.847  34.007  1.00  0.00     0.258 C 
HETATM    9  C   UNL     1     -49.548 -12.336  31.615  1.00  0.00     0.005 C 
HETATM   10  C   UNL     1     -52.291  -6.453  33.150  1.00  0.00    -0.017 C 
HETATM   11  C   UNL     1     -51.587 -10.187  32.861  1.00  0.00     0.226 C 
HETATM   12  C   UNL     1     -50.111 -10.045  32.502  1.00  0.00     0.122 C 
HETATM   13  C   UNL     1     -51.747  -7.702  32.852  1.00  0.00    -0.016 C 
HETATM   14  C   UNL     1     -49.445 -10.704  33.679  1.00  0.00     0.187 C 
HETATM   15  C   UNL     1     -50.690  -7.738  31.940  1.00  0.00     0.070 C 
HETATM   16  C   UNL     1     -51.969  -3.546  33.729  1.00  0.00    -0.055 C 
HETATM   17  C   UNL     1     -51.423  -4.371  34.728  1.00  0.00    -0.056 C 
HETATM   18  C   UNL     1     -52.489  -4.113  32.567  1.00  0.00     0.019 C 
HETATM   19  C   UNL     1     -51.468  -5.673  31.016  1.00  0.00     0.051 C 
HETATM   20  C   UNL     1     -52.125  -5.418  32.223  1.00  0.00    -0.022 C 
HETATM   21  C   UNL     1     -52.842  -6.260  34.428  1.00  0.00     0.013 C 
HETATM   22  N   UNL     1     -51.725 -11.220  33.885  1.00  0.00    -0.057 N 
ATOM     23  HN1 UNL     1     -52.091 -10.870  34.770  1.00  0.00     0.278 HD
ATOM     24  HN2 UNL     1     -52.475 -11.885  33.693  1.00  0.00     0.278 HD
HETATM   25  C   UNL     1     -52.325  -8.965  33.356  1.00  0.00     0.078 C 
HETATM   26  O   UNL     1     -48.399 -10.435  34.186  1.00  0.00    -0.293 OA
HETATM   27  C   UNL     1     -52.265  -5.323  35.294  1.00  0.00     0.008 C 
ENDROOT
BRANCH   7  28
HETATM   28  O   UNL     1     -50.769  -7.440  29.576  1.00  0.00    -0.358 OA
ATOM     29  HO  UNL     1     -51.145  -8.285  29.362  1.00  0.00     0.217 HD
ENDBRANCH   7  28
TORSDOF 1
ENDMDL
MODEL 4
REMARK VINA RESULT:      -9.7      2.865      4.313
REMARK  1 active torsions:
REMARK  status: ('A' for Active; 'I' for Inactive)
REMARK    1  A    between atoms: C_7  and  O_28 
ROOT
HETATM    1  C   UNL     1     -50.817  -8.348  29.053  1.00  0.00     0.049 C 
HETATM    2  C   UNL     1     -52.044  -2.027  35.010  1.00  0.00     0.041 C 
HETATM    3  C   UNL     1     -50.731  -4.212  35.355  1.00  0.00     0.041 C 
HETATM    4  N   UNL     1     -50.464  -5.680  33.461  1.00  0.00    -0.369 N 
ATOM      5  HN  UNL     1     -49.498  -5.585  33.150  1.00  0.00     0.161 HD
HETATM    6  C   UNL     1     -51.862 -11.421  29.314  1.00  0.00     0.049 C 
HETATM    7  C   UNL     1     -50.769  -8.130  34.084  1.00  0.00     0.093 C 
HETATM    8  C   UNL     1     -52.365  -2.484  33.574  1.00  0.00     0.258 C 
HETATM    9  C   UNL     1     -50.866  -2.729  35.671  1.00  0.00     0.005 C 
HETATM   10  C   UNL     1     -52.743  -8.066  32.138  1.00  0.00    -0.017 C 
HETATM   11  C   UNL     1     -52.736  -4.747  34.011  1.00  0.00     0.226 C 
HETATM   12  C   UNL     1     -51.229  -4.527  33.942  1.00  0.00     0.122 C 
HETATM   13  C   UNL     1     -52.389  -6.935  32.872  1.00  0.00    -0.016 C 
HETATM   14  C   UNL     1     -51.139  -3.277  33.110  1.00  0.00     0.187 C 
HETATM   15  C   UNL     1     -51.117  -6.918  33.448  1.00  0.00     0.070 C 
HETATM   16  C   UNL     1     -52.065 -10.224  30.195  1.00  0.00    -0.055 C 
HETATM   17  C   UNL     1     -52.060  -8.942  29.619  1.00  0.00    -0.056 C 
HETATM   18  C   UNL     1     -52.267 -10.368  31.567  1.00  0.00     0.019 C 
HETATM   19  C   UNL     1     -51.116  -9.310  33.421  1.00  0.00     0.051 C 
HETATM   20  C   UNL     1     -52.075  -9.266  32.405  1.00  0.00    -0.022 C 
HETATM   21  C   UNL     1     -53.640  -7.907  31.069  1.00  0.00     0.013 C 
HETATM   22  N   UNL     1     -53.410  -3.501  33.656  1.00  0.00    -0.057 N 
ATOM     23  HN1 UNL     1     -53.975  -3.572  32.809  1.00  0.00     0.278 HD
ATOM     24  HN2 UNL     1     -54.169  -3.253  34.291  1.00  0.00     0.278 HD
HETATM   25  C   UNL     1     -53.340  -5.842  33.162  1.00  0.00     0.078 C 
HETATM   26  O   UNL     1     -50.292  -2.964  32.330  1.00  0.00    -0.293 OA
HETATM   27  C   UNL     1     -53.213  -8.178  29.764  1.00  0.00     0.008 C 
ENDROOT
BRANCH   7  28
HETATM   28  O   UNL     1     -50.339  -8.136  35.344  1.00  0.00    -0.358 OA
ATOM     29  HO  UNL     1     -49.410  -8.156  35.538  1.00  0.00     0.217 HD
ENDBRANCH   7  28
TORSDOF 1
ENDMDL
MODEL 5
REMARK VINA RESULT:      -8.8      1.891      3.296
REMARK  1 active torsions:
REMARK  status: ('A' for Active; 'I' for Inactive)
REMARK    1  A    between atoms: C_7  and  O_28 
ROOT
HETATM    1  C   UNL     1     -50.669 -11.003  34.992  1.00  0.00     0.049 C 
HETATM    2  C   UNL     1     -52.971  -5.141  28.886  1.00  0.00     0.041 C 
HETATM    3  C   UNL     1     -53.729  -7.597  29.003  1.00  0.00     0.041 C 
HETATM    4  N   UNL     1     -53.021  -8.908  30.899  1.00  0.00    -0.369 N 
ATOM      5  HN  UNL     1     -53.836  -9.016  31.503  1.00  0.00     0.161 HD
HETATM    6  C   UNL     1     -49.013 -13.753  34.445  1.00  0.00     0.049 C 
HETATM    7  C   UNL     1     -52.313 -11.263  30.240  1.00  0.00     0.093 C 
HETATM    8  C   UNL     1     -52.120  -5.377  30.149  1.00  0.00     0.258 C 
HETATM    9  C   UNL     1     -54.077  -6.159  28.645  1.00  0.00     0.005 C 
HETATM   10  C   UNL     1     -49.921 -10.557  31.451  1.00  0.00    -0.017 C 
HETATM   11  C   UNL     1     -51.341  -7.519  29.641  1.00  0.00     0.226 C 
HETATM   12  C   UNL     1     -52.759  -7.655  30.186  1.00  0.00     0.122 C 
HETATM   13  C   UNL     1     -50.757  -9.613  30.856  1.00  0.00    -0.016 C 
HETATM   14  C   UNL     1     -52.902  -6.391  30.990  1.00  0.00     0.187 C 
HETATM   15  C   UNL     1     -52.105  -9.950  30.717  1.00  0.00     0.070 C 
HETATM   16  C   UNL     1     -49.400 -12.628  33.532  1.00  0.00    -0.055 C 
HETATM   17  C   UNL     1     -49.552 -11.336  34.065  1.00  0.00    -0.056 C 
HETATM   18  C   UNL     1     -49.599 -12.844  32.169  1.00  0.00     0.019 C 
HETATM   19  C   UNL     1     -51.493 -12.262  30.770  1.00  0.00     0.051 C 
HETATM   20  C   UNL     1     -50.312 -11.900  31.425  1.00  0.00    -0.022 C 
HETATM   21  C   UNL     1     -48.809 -10.093  32.174  1.00  0.00     0.013 C 
HETATM   22  N   UNL     1     -50.928  -6.121  29.748  1.00  0.00    -0.057 N 
ATOM     23  HN1 UNL     1     -50.132  -5.979  30.370  1.00  0.00     0.278 HD
ATOM     24  HN2 UNL     1     -50.490  -5.761  28.901  1.00  0.00     0.278 HD
HETATM   25  C   UNL     1     -50.250  -8.358  30.264  1.00  0.00     0.078 C 
HETATM   26  O   UNL     1     -53.518  -6.217  31.996  1.00  0.00    -0.293 OA
HETATM   27  C   UNL     1     -48.732 -10.337  33.551  1.00  0.00     0.008 C 
ENDROOT
BRANCH   7  28
HETATM   28  O   UNL     1     -53.092 -11.485  29.183  1.00  0.00    -0.358 OA
ATOM     29  HO  UNL     1     -52.791 -11.273  28.307  1.00  0.00     0.217 HD
ENDBRANCH   7  28
TORSDOF 1
ENDMDL
MODEL 6
REMARK VINA RESULT:      -8.7      2.326      6.693
REMARK  1 active torsions:
REMARK  status: ('A' for Active; 'I' for Inactive)
REMARK    1  A    between atoms: C_7  and  O_28 
ROOT
HETATM    1  C   UNL     1     -50.477  -2.934  33.097  1.00  0.00     0.049 C 
HETATM    2  C   UNL     1     -51.009 -11.482  31.200  1.00  0.00     0.041 C 
HETATM    3  C   UNL     1     -51.089  -9.539  29.516  1.00  0.00     0.041 C 
HETATM    4  N   UNL     1     -50.774  -7.301  30.357  1.00  0.00    -0.369 N 
ATOM      5  HN  UNL     1     -49.836  -7.012  30.079  1.00  0.00     0.161 HD
HETATM    6  C   UNL     1     -52.800  -0.723  32.532  1.00  0.00     0.049 C 
HETATM    7  C   UNL     1     -52.373  -5.631  29.291  1.00  0.00     0.093 C 
HETATM    8  C   UNL     1     -50.890 -10.449  32.338  1.00  0.00     0.258 C 
HETATM    9  C   UNL     1     -50.655 -10.968  29.812  1.00  0.00     0.005 C 
HETATM   10  C   UNL     1     -53.128  -5.141  31.913  1.00  0.00    -0.017 C 
HETATM   11  C   UNL     1     -52.383  -8.856  31.509  1.00  0.00     0.226 C 
HETATM   12  C   UNL     1     -51.056  -8.675  30.779  1.00  0.00     0.122 C 
HETATM   13  C   UNL     1     -52.633  -6.378  31.504  1.00  0.00    -0.016 C 
HETATM   14  C   UNL     1     -50.085  -9.284  31.754  1.00  0.00     0.187 C 
HETATM   15  C   UNL     1     -51.846  -6.402  30.350  1.00  0.00     0.070 C 
HETATM   16  C   UNL     1     -52.777  -2.211  32.344  1.00  0.00    -0.055 C 
HETATM   17  C   UNL     1     -51.962  -2.993  33.181  1.00  0.00    -0.056 C 
HETATM   18  C   UNL     1     -53.558  -2.824  31.365  1.00  0.00     0.019 C 
HETATM   19  C   UNL     1     -52.913  -4.387  29.627  1.00  0.00     0.051 C 
HETATM   20  C   UNL     1     -53.246  -4.124  30.958  1.00  0.00    -0.022 C 
HETATM   21  C   UNL     1     -53.339  -4.934  33.287  1.00  0.00     0.013 C 
HETATM   22  N   UNL     1     -52.214  -9.868  32.549  1.00  0.00    -0.057 N 
ATOM     23  HN1 UNL     1     -52.353  -9.508  33.494  1.00  0.00     0.278 HD
ATOM     24  HN2 UNL     1     -52.962 -10.560  32.568  1.00  0.00     0.278 HD
HETATM   25  C   UNL     1     -53.014  -7.646  32.159  1.00  0.00     0.078 C 
HETATM   26  O   UNL     1     -48.954  -8.968  31.969  1.00  0.00    -0.293 OA
HETATM   27  C   UNL     1     -52.594  -3.958  33.959  1.00  0.00     0.008 C 
ENDROOT
BRANCH   7  28
HETATM   28  O   UNL     1     -52.543  -6.165  28.083  1.00  0.00    -0.358 OA
ATOM     29  HO  UNL     1     -52.292  -5.685  27.303  1.00  0.00     0.217 HD
ENDBRANCH   7  28
TORSDOF 1
ENDMDL
MODEL 7
REMARK VINA RESULT:      -8.6      2.578      4.573
REMARK  1 active torsions:
REMARK  status: ('A' for Active; 'I' for Inactive)
REMARK    1  A    between atoms: C_7  and  O_28 
ROOT
HETATM    1  C   UNL     1     -53.020 -10.842  31.635  1.00  0.00     0.049 C 
HETATM    2  C   UNL     1     -52.320  -2.958  35.416  1.00  0.00     0.041 C 
HETATM    3  C   UNL     1     -52.435  -3.431  32.890  1.00  0.00     0.041 C 
HETATM    4  N   UNL     1     -52.768  -5.712  32.183  1.00  0.00    -0.369 N 
ATOM      5  HN  UNL     1     -53.734  -5.783  31.863  1.00  0.00     0.161 HD
HETATM    6  C   UNL     1     -50.827 -12.182  29.635  1.00  0.00     0.049 C 
HETATM    7  C   UNL     1     -51.314  -6.331  30.187  1.00  0.00     0.093 C 
HETATM    8  C   UNL     1     -52.392  -4.476  35.672  1.00  0.00     0.258 C 
HETATM    9  C   UNL     1     -52.794  -2.504  34.043  1.00  0.00     0.005 C 
HETATM   10  C   UNL     1     -50.385  -8.331  31.867  1.00  0.00    -0.017 C 
HETATM   11  C   UNL     1     -51.023  -5.182  33.917  1.00  0.00     0.226 C 
HETATM   12  C   UNL     1     -52.406  -4.894  33.343  1.00  0.00     0.122 C 
HETATM   13  C   UNL     1     -50.864  -7.116  32.356  1.00  0.00    -0.016 C 
HETATM   14  C   UNL     1     -53.280  -5.040  34.559  1.00  0.00     0.187 C 
HETATM   15  C   UNL     1     -51.733  -6.394  31.534  1.00  0.00     0.070 C 
HETATM   16  C   UNL     1     -50.810 -10.900  30.414  1.00  0.00    -0.055 C 
HETATM   17  C   UNL     1     -51.531 -10.821  31.618  1.00  0.00    -0.056 C 
HETATM   18  C   UNL     1     -50.082  -9.798  29.968  1.00  0.00     0.019 C 
HETATM   19  C   UNL     1     -50.796  -7.504  29.634  1.00  0.00     0.051 C 
HETATM   20  C   UNL     1     -50.376  -8.532  30.482  1.00  0.00    -0.022 C 
HETATM   21  C   UNL     1     -50.081  -9.343  32.794  1.00  0.00     0.013 C 
HETATM   22  N   UNL     1     -51.078  -5.039  35.370  1.00  0.00    -0.057 N 
ATOM     23  HN1 UNL     1     -50.882  -5.905  35.872  1.00  0.00     0.278 HD
ATOM     24  HN2 UNL     1     -50.305  -4.495  35.754  1.00  0.00     0.278 HD
HETATM   25  C   UNL     1     -50.390  -6.523  33.623  1.00  0.00     0.078 C 
HETATM   26  O   UNL     1     -54.402  -5.441  34.622  1.00  0.00    -0.293 OA
HETATM   27  C   UNL     1     -50.810 -10.538  32.773  1.00  0.00     0.008 C 
ENDROOT
BRANCH   7  28
HETATM   28  O   UNL     1     -51.214  -5.159  29.562  1.00  0.00    -0.358 OA
ATOM     29  HO  UNL     1     -50.440  -4.946  29.056  1.00  0.00     0.217 HD
ENDBRANCH   7  28
TORSDOF 1
ENDMDL
MODEL 8
REMARK VINA RESULT:      -8.6      2.842      6.316
REMARK  1 active torsions:
REMARK  status: ('A' for Active; 'I' for Inactive)
REMARK    1  A    between atoms: C_7  and  O_28 
ROOT
HETATM    1  C   UNL     1     -49.699  -3.781  34.703  1.00  0.00     0.049 C 
HETATM    2  C   UNL     1     -51.000 -11.643  31.037  1.00  0.00     0.041 C 
HETATM    3  C   UNL     1     -51.354  -9.358  29.909  1.00  0.00     0.041 C 
HETATM    4  N   UNL     1     -50.768  -7.380  31.156  1.00  0.00    -0.369 N 
ATOM      5  HN  UNL     1     -49.900  -7.026  30.755  1.00  0.00     0.161 HD
HETATM    6  C   UNL     1     -51.990  -1.517  35.188  1.00  0.00     0.049 C 
HETATM    7  C   UNL     1     -52.483  -5.518  30.884  1.00  0.00     0.093 C 
HETATM    8  C   UNL     1     -50.595 -10.906  32.329  1.00  0.00     0.258 C 
HETATM    9  C   UNL     1     -50.930 -10.813  29.763  1.00  0.00     0.005 C 
HETATM   10  C   UNL     1     -52.637  -5.667  33.648  1.00  0.00    -0.017 C 
HETATM   11  C   UNL     1     -52.160  -9.175  32.239  1.00  0.00     0.226 C 
HETATM   12  C   UNL     1     -51.013  -8.817  31.300  1.00  0.00     0.122 C 
HETATM   13  C   UNL     1     -52.296  -6.768  32.864  1.00  0.00    -0.016 C 
HETATM   14  C   UNL     1     -49.883  -9.630  31.870  1.00  0.00     0.187 C 
HETATM   15  C   UNL     1     -51.776  -6.513  31.593  1.00  0.00     0.070 C 
HETATM   16  C   UNL     1     -52.073  -2.919  34.660  1.00  0.00    -0.055 C 
HETATM   17  C   UNL     1     -51.133  -3.870  35.093  1.00  0.00    -0.056 C 
HETATM   18  C   UNL     1     -53.072  -3.289  33.760  1.00  0.00     0.019 C 
HETATM   19  C   UNL     1     -52.884  -4.393  31.608  1.00  0.00     0.051 C 
HETATM   20  C   UNL     1     -52.912  -4.454  33.005  1.00  0.00    -0.022 C 
HETATM   21  C   UNL     1     -52.539  -5.792  35.044  1.00  0.00     0.013 C 
HETATM   22  N   UNL     1     -51.816 -10.403  32.953  1.00  0.00    -0.057 N 
ATOM     23  HN1 UNL     1     -51.734 -10.277  33.962  1.00  0.00     0.278 HD
ATOM     24  HN2 UNL     1     -52.573 -11.086  32.974  1.00  0.00     0.278 HD
HETATM   25  C   UNL     1     -52.583  -8.158  33.274  1.00  0.00     0.078 C 
HETATM   26  O   UNL     1     -48.721  -9.365  31.900  1.00  0.00    -0.293 OA
HETATM   27  C   UNL     1     -51.625  -4.997  35.745  1.00  0.00     0.008 C 
ENDROOT
BRANCH   7  28
HETATM   28  O   UNL     1     -52.932  -5.753  29.652  1.00  0.00    -0.358 OA
ATOM     29  HO  UNL     1     -52.359  -6.123  28.991  1.00  0.00     0.217 HD
ENDBRANCH   7  28
TORSDOF 1
ENDMDL
MODEL 9
REMARK VINA RESULT:      -8.4      4.204      7.428
REMARK  1 active torsions:
REMARK  status: ('A' for Active; 'I' for Inactive)
REMARK    1  A    between atoms: C_7  and  O_28 
ROOT
HETATM    1  C   UNL     1     -50.709  -0.421  33.126  1.00  0.00     0.049 C 
HETATM    2  C   UNL     1     -51.346  -9.021  31.520  1.00  0.00     0.041 C 
HETATM    3  C   UNL     1     -53.264  -7.455  32.216  1.00  0.00     0.041 C 
HETATM    4  N   UNL     1     -52.777  -5.104  32.445  1.00  0.00    -0.369 N 
ATOM      5  HN  UNL     1     -53.188  -4.639  31.636  1.00  0.00     0.161 HD
HETATM    6  C   UNL     1     -51.328   1.022  35.979  1.00  0.00     0.049 C 
HETATM    7  C   UNL     1     -53.890  -4.078  34.492  1.00  0.00     0.093 C 
HETATM    8  C   UNL     1     -50.380  -7.823  31.602  1.00  0.00     0.258 C 
HETATM    9  C   UNL     1     -52.821  -8.664  31.404  1.00  0.00     0.005 C 
HETATM   10  C   UNL     1     -51.296  -3.379  35.177  1.00  0.00    -0.017 C 
HETATM   11  C   UNL     1     -51.260  -6.806  33.511  1.00  0.00     0.226 C 
HETATM   12  C   UNL     1     -52.142  -6.419  32.329  1.00  0.00     0.122 C 
HETATM   13  C   UNL     1     -51.580  -4.503  34.402  1.00  0.00    -0.016 C 
HETATM   14  C   UNL     1     -51.200  -6.603  31.170  1.00  0.00     0.187 C 
HETATM   15  C   UNL     1     -52.795  -4.514  33.713  1.00  0.00     0.070 C 
HETATM   16  C   UNL     1     -51.310  -0.424  35.579  1.00  0.00    -0.055 C 
HETATM   17  C   UNL     1     -50.464  -0.835  34.535  1.00  0.00    -0.056 C 
HETATM   18  C   UNL     1     -52.109  -1.361  36.234  1.00  0.00     0.019 C 
HETATM   19  C   UNL     1     -53.674  -2.971  35.316  1.00  0.00     0.051 C 
HETATM   20  C   UNL     1     -52.364  -2.590  35.619  1.00  0.00    -0.022 C 
HETATM   21  C   UNL     1     -49.949  -3.014  35.344  1.00  0.00     0.013 C 
HETATM   22  N   UNL     1     -50.114  -7.564  33.015  1.00  0.00    -0.057 N 
ATOM     23  HN1 UNL     1     -49.219  -7.104  33.182  1.00  0.00     0.278 HD
ATOM     24  HN2 UNL     1     -49.922  -8.410  33.553  1.00  0.00     0.278 HD
HETATM   25  C   UNL     1     -50.721  -5.705  34.394  1.00  0.00     0.078 C 
HETATM   26  O   UNL     1     -51.148  -5.985  30.151  1.00  0.00    -0.293 OA
HETATM   27  C   UNL     1     -49.498  -1.789  34.839  1.00  0.00     0.008 C 
ENDROOT
BRANCH   7  28
HETATM   28  O   UNL     1     -54.989  -4.823  34.594  1.00  0.00    -0.358 OA
ATOM     29  HO  UNL     1     -54.973  -5.743  34.356  1.00  0.00     0.217 HD
ENDBRANCH   7  28
TORSDOF 1
ENDMDL
