MODEL 1
REMARK VINA RESULT:      -9.0      0.000      0.000
REMARK  6 active torsions:
REMARK  status: ('A' for Active; 'I' for Inactive)
REMARK    1  A    between atoms: C_1  and  O_22 
REMARK    2  A    between atoms: O_3  and  C_25 
REMARK    3  A    between atoms: O_11  and  C_28 
REMARK    4  A    between atoms: C_13  and  C_15 
REMARK    5  A    between atoms: C_15  and  C_27 
REMARK    6  A    between atoms: C_26  and  C_27 
ROOT
HETATM    1  C   UNL     1       8.312  11.866  15.376  1.00  0.00     0.026 C 
HETATM    2  C   UNL     1       6.745  12.942  16.850  1.00  0.00     0.015 C 
HETATM    3  C   UNL     1       8.323  11.921  19.079  1.00  0.00     0.015 C 
HETATM    4  C   UNL     1       8.710  11.811  17.756  1.00  0.00    -0.023 C 
HETATM    5  C   UNL     1       9.670  11.580  15.159  1.00  0.00    -0.002 C 
HETATM    6  C   UNL     1       6.089  13.400  17.963  1.00  0.00     0.037 C 
HETATM    7  C   UNL     1       7.906  12.193  16.686  1.00  0.00    -0.025 C 
HETATM    8  C   UNL     1       9.983  11.273  17.526  1.00  0.00     0.049 C 
HETATM    9  C   UNL     1       7.208  12.281  19.764  1.00  0.00     0.037 C 
HETATM   10  C   UNL     1      10.528  11.415  16.250  1.00  0.00     0.076 C 
HETATM   11  C   UNL     1       6.092  12.934  19.274  1.00  0.00     0.065 C 
ENDROOT
BRANCH   5  12
HETATM   12  C   UNL     1      10.231  11.538  13.867  1.00  0.00     0.019 C 
BRANCH  12  13
HETATM   13  C   UNL     1      11.216  10.818  13.284  1.00  0.00    -0.047 C 
HETATM   14  C   UNL     1      11.050   9.355  12.970  1.00  0.00     0.046 C 
BRANCH  13  15
HETATM   15  C   UNL     1      12.431  11.530  12.746  1.00  0.00     0.151 C 
HETATM   16  C   UNL     1      12.905  11.019  11.385  1.00  0.00     0.047 C 
HETATM   17  C   UNL     1      13.909  12.095  10.946  1.00  0.00     0.042 C 
HETATM   18  C   UNL     1      13.829  13.089  12.114  1.00  0.00     0.084 C 
HETATM   19  C   UNL     1      14.578  12.382  13.248  1.00  0.00     0.271 C 
HETATM   20  C   UNL     1      12.384  13.058  12.617  1.00  0.00     0.083 C 
HETATM   21  N   UNL     1      13.578  11.370  13.697  1.00  0.00    -0.059 N 
ATOM     22  HN2 UNL     1      13.943  10.420  13.752  1.00  0.00     0.278 HD
ATOM     23  HN1 UNL     1      13.318  11.449  14.680  1.00  0.00     0.278 HD
BRANCH  18  24
HETATM   24  O   UNL     1      14.346  14.374  11.827  1.00  0.00    -0.388 OA
ATOM     25  HO  UNL     1      14.193  15.001  12.524  1.00  0.00     0.210 HD
ENDBRANCH  18  24
ENDBRANCH  13  15
ENDBRANCH  12  13
ENDBRANCH   5  12
BRANCH  10  26
HETATM   26  O   UNL     1      11.864  11.373  16.084  1.00  0.00    -0.360 OA
ATOM     27  HO  UNL     1      12.373  12.171  16.004  1.00  0.00     0.217 HD
ENDBRANCH  10  26
BRANCH  11  28
HETATM   28  O   UNL     1       4.996  13.092  20.067  1.00  0.00    -0.361 OA
ATOM     29  HO  UNL     1       4.166  13.363  19.694  1.00  0.00     0.217 HD
ENDBRANCH  11  28
TORSDOF 6
ENDMDL
MODEL 2
REMARK VINA RESULT:      -8.7      1.359      2.186
REMARK  6 active torsions:
REMARK  status: ('A' for Active; 'I' for Inactive)
REMARK    1  A    between atoms: C_1  and  O_22 
REMARK    2  A    between atoms: O_3  and  C_25 
REMARK    3  A    between atoms: O_11  and  C_28 
REMARK    4  A    between atoms: C_13  and  C_15 
REMARK    5  A    between atoms: C_15  and  C_27 
REMARK    6  A    between atoms: C_26  and  C_27 
ROOT
HETATM    1  C   UNL     1      10.369  11.758  17.067  1.00  0.00     0.026 C 
HETATM    2  C   UNL     1       8.766  11.731  18.860  1.00  0.00     0.015 C 
HETATM    3  C   UNL     1       6.809  12.771  16.966  1.00  0.00     0.015 C 
HETATM    4  C   UNL     1       8.079  12.361  16.604  1.00  0.00    -0.023 C 
HETATM    5  C   UNL     1      10.563  11.506  15.699  1.00  0.00    -0.002 C 
HETATM    6  C   UNL     1       7.618  11.855  19.599  1.00  0.00     0.037 C 
HETATM    7  C   UNL     1       9.052  11.975  17.520  1.00  0.00    -0.025 C 
HETATM    8  C   UNL     1       8.361  12.360  15.232  1.00  0.00     0.049 C 
HETATM    9  C   UNL     1       6.129  13.011  18.117  1.00  0.00     0.037 C 
HETATM   10  C   UNL     1       9.505  11.686  14.804  1.00  0.00     0.076 C 
HETATM   11  C   UNL     1       6.494  12.651  19.401  1.00  0.00     0.065 C 
ENDROOT
BRANCH   5  12
HETATM   12  C   UNL     1      11.772  10.987  15.195  1.00  0.00     0.019 C 
BRANCH  12  13
HETATM   13  C   UNL     1      12.972  11.521  14.874  1.00  0.00    -0.047 C 
HETATM   14  C   UNL     1      14.227  11.162  15.625  1.00  0.00     0.046 C 
BRANCH  13  15
HETATM   15  C   UNL     1      13.104  12.334  13.613  1.00  0.00     0.151 C 
HETATM   16  C   UNL     1      12.667  11.599  12.344  1.00  0.00     0.047 C 
HETATM   17  C   UNL     1      12.598  12.726  11.303  1.00  0.00     0.042 C 
HETATM   18  C   UNL     1      12.971  13.953  12.148  1.00  0.00     0.084 C 
HETATM   19  C   UNL     1      14.480  13.800  12.368  1.00  0.00     0.271 C 
HETATM   20  C   UNL     1      12.416  13.704  13.551  1.00  0.00     0.083 C 
HETATM   21  N   UNL     1      14.534  12.737  13.413  1.00  0.00    -0.059 N 
ATOM     22  HN2 UNL     1      15.157  11.962  13.187  1.00  0.00     0.278 HD
ATOM     23  HN1 UNL     1      15.011  13.020  14.269  1.00  0.00     0.278 HD
BRANCH  18  24
HETATM   24  O   UNL     1      12.620  15.194  11.566  1.00  0.00    -0.388 OA
ATOM     25  HO  UNL     1      12.911  15.278  10.665  1.00  0.00     0.210 HD
ENDBRANCH  18  24
ENDBRANCH  13  15
ENDBRANCH  12  13
ENDBRANCH   5  12
BRANCH  10  26
HETATM   26  O   UNL     1       9.582  11.236  13.537  1.00  0.00    -0.360 OA
ATOM     27  HO  UNL     1      10.185  11.624  12.915  1.00  0.00     0.217 HD
ENDBRANCH  10  26
BRANCH  11  28
HETATM   28  O   UNL     1       5.767  13.097  20.462  1.00  0.00    -0.361 OA
ATOM     29  HO  UNL     1       5.281  12.488  21.005  1.00  0.00     0.217 HD
ENDBRANCH  11  28
TORSDOF 6
ENDMDL
MODEL 3
REMARK VINA RESULT:      -8.7      1.183      1.651
REMARK  6 active torsions:
REMARK  status: ('A' for Active; 'I' for Inactive)
REMARK    1  A    between atoms: C_1  and  O_22 
REMARK    2  A    between atoms: O_3  and  C_25 
REMARK    3  A    between atoms: O_11  and  C_28 
REMARK    4  A    between atoms: C_13  and  C_15 
REMARK    5  A    between atoms: C_15  and  C_27 
REMARK    6  A    between atoms: C_26  and  C_27 
ROOT
HETATM    1  C   UNL     1       9.072  11.220  16.035  1.00  0.00     0.026 C 
HETATM    2  C   UNL     1       7.249  12.505  16.934  1.00  0.00     0.015 C 
HETATM    3  C   UNL     1       8.443  12.133  19.568  1.00  0.00     0.015 C 
HETATM    4  C   UNL     1       9.055  11.745  18.390  1.00  0.00    -0.023 C 
HETATM    5  C   UNL     1      10.454  10.978  16.116  1.00  0.00    -0.002 C 
HETATM    6  C   UNL     1       6.400  13.166  17.783  1.00  0.00     0.037 C 
HETATM    7  C   UNL     1       8.439  11.815  17.145  1.00  0.00    -0.025 C 
HETATM    8  C   UNL     1      10.360  11.250  18.505  1.00  0.00     0.049 C 
HETATM    9  C   UNL     1       7.217  12.571  19.957  1.00  0.00     0.037 C 
HETATM   10  C   UNL     1      11.114  11.127  17.338  1.00  0.00     0.076 C 
HETATM   11  C   UNL     1       6.187  13.018  19.150  1.00  0.00     0.065 C 
ENDROOT
BRANCH   5  12
HETATM   12  C   UNL     1      11.230  10.674  14.979  1.00  0.00     0.019 C 
BRANCH  12  13
HETATM   13  C   UNL     1      11.209  11.063  13.685  1.00  0.00    -0.047 C 
HETATM   14  C   UNL     1      10.204  10.514  12.707  1.00  0.00     0.046 C 
BRANCH  13  15
HETATM   15  C   UNL     1      12.069  12.222  13.249  1.00  0.00     0.151 C 
HETATM   16  C   UNL     1      12.318  13.263  14.341  1.00  0.00     0.047 C 
HETATM   17  C   UNL     1      13.444  14.121  13.744  1.00  0.00     0.042 C 
HETATM   18  C   UNL     1      13.699  13.411  12.406  1.00  0.00     0.084 C 
HETATM   19  C   UNL     1      12.494  13.807  11.547  1.00  0.00     0.271 C 
HETATM   20  C   UNL     1      13.446  11.921  12.644  1.00  0.00     0.083 C 
HETATM   21  N   UNL     1      11.418  12.937  12.104  1.00  0.00    -0.059 N 
ATOM     22  HN2 UNL     1      10.566  13.438  12.356  1.00  0.00     0.278 HD
ATOM     23  HN1 UNL     1      10.986  12.318  11.417  1.00  0.00     0.278 HD
BRANCH  18  24
HETATM   24  O   UNL     1      14.938  13.729  11.801  1.00  0.00    -0.388 OA
ATOM     25  HO  UNL     1      15.395  12.966  11.468  1.00  0.00     0.210 HD
ENDBRANCH  18  24
ENDBRANCH  13  15
ENDBRANCH  12  13
ENDBRANCH   5  12
BRANCH  10  26
HETATM   26  O   UNL     1      12.459  11.134  17.406  1.00  0.00    -0.360 OA
ATOM     27  HO  UNL     1      12.927  10.489  17.923  1.00  0.00     0.217 HD
ENDBRANCH  10  26
BRANCH  11  28
HETATM   28  O   UNL     1       4.968  13.286  19.694  1.00  0.00    -0.361 OA
ATOM     29  HO  UNL     1       4.771  14.149  20.036  1.00  0.00     0.217 HD
ENDBRANCH  11  28
TORSDOF 6
ENDMDL
MODEL 4
REMARK VINA RESULT:      -8.6      1.723      2.643
REMARK  6 active torsions:
REMARK  status: ('A' for Active; 'I' for Inactive)
REMARK    1  A    between atoms: C_1  and  O_22 
REMARK    2  A    between atoms: O_3  and  C_25 
REMARK    3  A    between atoms: O_11  and  C_28 
REMARK    4  A    between atoms: C_13  and  C_15 
REMARK    5  A    between atoms: C_15  and  C_27 
REMARK    6  A    between atoms: C_26  and  C_27 
ROOT
HETATM    1  C   UNL     1       9.114  11.007  17.172  1.00  0.00     0.026 C 
HETATM    2  C   UNL     1       7.215  12.446  16.841  1.00  0.00     0.015 C 
HETATM    3  C   UNL     1       7.213  12.906  19.720  1.00  0.00     0.015 C 
HETATM    4  C   UNL     1       8.205  12.205  19.060  1.00  0.00    -0.023 C 
HETATM    5  C   UNL     1      10.317  10.840  17.878  1.00  0.00    -0.002 C 
HETATM    6  C   UNL     1       6.166  13.304  17.042  1.00  0.00     0.037 C 
HETATM    7  C   UNL     1       8.149  11.885  17.707  1.00  0.00    -0.025 C 
HETATM    8  C   UNL     1       9.301  11.805  19.835  1.00  0.00     0.049 C 
HETATM    9  C   UNL     1       5.983  13.404  19.431  1.00  0.00     0.037 C 
HETATM   10  C   UNL     1      10.443  11.364  19.167  1.00  0.00     0.076 C 
HETATM   11  C   UNL     1       5.410  13.562  18.182  1.00  0.00     0.065 C 
ENDROOT
BRANCH   5  12
HETATM   12  C   UNL     1      11.450  10.236  17.297  1.00  0.00     0.019 C 
BRANCH  12  13
HETATM   13  C   UNL     1      12.510  10.691  16.592  1.00  0.00    -0.047 C 
HETATM   14  C   UNL     1      13.920  10.557  17.103  1.00  0.00     0.046 C 
BRANCH  13  15
HETATM   15  C   UNL     1      12.306  11.157  15.173  1.00  0.00     0.151 C 
HETATM   16  C   UNL     1      11.296  10.327  14.379  1.00  0.00     0.047 C 
HETATM   17  C   UNL     1      11.051  11.188  13.132  1.00  0.00     0.042 C 
HETATM   18  C   UNL     1      11.936  12.411  13.419  1.00  0.00     0.084 C 
HETATM   19  C   UNL     1      13.360  11.893  13.189  1.00  0.00     0.271 C 
HETATM   20  C   UNL     1      11.914  12.620  14.935  1.00  0.00     0.083 C 
HETATM   21  N   UNL     1      13.604  11.097  14.426  1.00  0.00    -0.059 N 
ATOM     22  HN2 UNL     1      13.940  10.150  14.252  1.00  0.00     0.278 HD
ATOM     23  HN1 UNL     1      14.411  11.406  14.967  1.00  0.00     0.278 HD
BRANCH  18  24
HETATM   24  O   UNL     1      11.629  13.552  12.642  1.00  0.00    -0.388 OA
ATOM     25  HO  UNL     1      11.641  13.380  11.708  1.00  0.00     0.210 HD
ENDBRANCH  18  24
ENDBRANCH  13  15
ENDBRANCH  12  13
ENDBRANCH   5  12
BRANCH  10  26
HETATM   26  O   UNL     1      11.643  11.430  19.776  1.00  0.00    -0.360 OA
ATOM     27  HO  UNL     1      12.400  10.984  19.416  1.00  0.00     0.217 HD
ENDBRANCH  10  26
BRANCH  11  28
HETATM   28  O   UNL     1       4.107  13.942  18.077  1.00  0.00    -0.361 OA
ATOM     29  HO  UNL     1       3.724  14.533  18.714  1.00  0.00     0.217 HD
ENDBRANCH  11  28
TORSDOF 6
ENDMDL
MODEL 5
REMARK VINA RESULT:      -8.0      1.685      2.923
REMARK  6 active torsions:
REMARK  status: ('A' for Active; 'I' for Inactive)
REMARK    1  A    between atoms: C_1  and  O_22 
REMARK    2  A    between atoms: O_3  and  C_25 
REMARK    3  A    between atoms: O_11  and  C_28 
REMARK    4  A    between atoms: C_13  and  C_15 
REMARK    5  A    between atoms: C_15  and  C_27 
REMARK    6  A    between atoms: C_26  and  C_27 
ROOT
HETATM    1  C   UNL     1       9.359  11.789  18.713  1.00  0.00     0.026 C 
HETATM    2  C   UNL     1       8.078  12.234  20.700  1.00  0.00     0.015 C 
HETATM    3  C   UNL     1       6.145  13.607  19.002  1.00  0.00     0.015 C 
HETATM    4  C   UNL     1       7.221  12.891  18.510  1.00  0.00    -0.023 C 
HETATM    5  C   UNL     1       9.283  11.429  17.357  1.00  0.00    -0.002 C 
HETATM    6  C   UNL     1       7.111  12.663  21.571  1.00  0.00     0.037 C 
HETATM    7  C   UNL     1       8.207  12.334  19.318  1.00  0.00    -0.025 C 
HETATM    8  C   UNL     1       7.287  12.753  17.117  1.00  0.00     0.049 C 
HETATM    9  C   UNL     1       5.718  14.060  20.209  1.00  0.00     0.037 C 
HETATM   10  C   UNL     1       8.171  11.806  16.600  1.00  0.00     0.076 C 
HETATM   11  C   UNL     1       6.179  13.691  21.459  1.00  0.00     0.065 C 
ENDROOT
BRANCH   5  12
HETATM   12  C   UNL     1      10.255  10.613  16.742  1.00  0.00     0.019 C 
BRANCH  12  13
HETATM   13  C   UNL     1      11.505  10.820  16.272  1.00  0.00    -0.047 C 
HETATM   14  C   UNL     1      12.725  10.495  17.091  1.00  0.00     0.046 C 
BRANCH  13  15
HETATM   15  C   UNL     1      11.696  11.189  14.823  1.00  0.00     0.151 C 
HETATM   16  C   UNL     1      10.979  10.263  13.840  1.00  0.00     0.047 C 
HETATM   17  C   UNL     1      11.070  11.034  12.515  1.00  0.00     0.042 C 
HETATM   18  C   UNL     1      11.797  12.315  12.951  1.00  0.00     0.084 C 
HETATM   19  C   UNL     1      13.244  11.858  13.166  1.00  0.00     0.271 C 
HETATM   20  C   UNL     1      11.340  12.614  14.380  1.00  0.00     0.083 C 
HETATM   21  N   UNL     1      13.154  11.151  14.475  1.00  0.00    -0.059 N 
ATOM     22  HN2 UNL     1      13.556  10.213  14.471  1.00  0.00     0.278 HD
ATOM     23  HN1 UNL     1      13.764  11.532  15.198  1.00  0.00     0.278 HD
BRANCH  18  24
HETATM   24  O   UNL     1      11.686  13.391  12.039  1.00  0.00    -0.388 OA
ATOM     25  HO  UNL     1      12.462  13.505  11.502  1.00  0.00     0.210 HD
ENDBRANCH  18  24
ENDBRANCH  13  15
ENDBRANCH  12  13
ENDBRANCH   5  12
BRANCH  10  26
HETATM   26  O   UNL     1       7.954  11.286  15.376  1.00  0.00    -0.360 OA
ATOM     27  HO  UNL     1       8.677  11.081  14.796  1.00  0.00     0.217 HD
ENDBRANCH  10  26
BRANCH  11  28
HETATM   28  O   UNL     1       5.739  14.350  22.566  1.00  0.00    -0.361 OA
ATOM     29  HO  UNL     1       4.984  14.924  22.517  1.00  0.00     0.217 HD
ENDBRANCH  11  28
TORSDOF 6
ENDMDL
MODEL 6
REMARK VINA RESULT:      -8.0      3.892      9.462
REMARK  6 active torsions:
REMARK  status: ('A' for Active; 'I' for Inactive)
REMARK    1  A    between atoms: C_1  and  O_22 
REMARK    2  A    between atoms: O_3  and  C_25 
REMARK    3  A    between atoms: O_11  and  C_28 
REMARK    4  A    between atoms: C_13  and  C_15 
REMARK    5  A    between atoms: C_15  and  C_27 
REMARK    6  A    between atoms: C_26  and  C_27 
ROOT
HETATM    1  C   UNL     1       6.756  13.363  17.718  1.00  0.00     0.026 C 
HETATM    2  C   UNL     1       8.006  12.250  15.990  1.00  0.00     0.015 C 
HETATM    3  C   UNL     1       9.699  11.146  18.091  1.00  0.00     0.015 C 
HETATM    4  C   UNL     1       8.547  11.869  18.340  1.00  0.00    -0.023 C 
HETATM    5  C   UNL     1       6.221  13.232  19.010  1.00  0.00    -0.002 C 
HETATM    6  C   UNL     1       8.923  11.488  15.315  1.00  0.00     0.037 C 
HETATM    7  C   UNL     1       7.803  12.494  17.345  1.00  0.00    -0.025 C 
HETATM    8  C   UNL     1       8.151  11.960  19.681  1.00  0.00     0.049 C 
HETATM    9  C   UNL     1      10.487  10.864  17.022  1.00  0.00     0.037 C 
HETATM   10  C   UNL     1       6.860  12.417  19.947  1.00  0.00     0.076 C 
HETATM   11  C   UNL     1      10.195  11.059  15.685  1.00  0.00     0.065 C 
ENDROOT
BRANCH   5  12
HETATM   12  C   UNL     1       4.998  13.828  19.379  1.00  0.00     0.019 C 
BRANCH  12  13
HETATM   13  C   UNL     1       4.548  15.100  19.454  1.00  0.00    -0.047 C 
HETATM   14  C   UNL     1       3.821  15.754  18.309  1.00  0.00     0.046 C 
BRANCH  13  15
HETATM   15  C   UNL     1       4.587  15.820  20.778  1.00  0.00     0.151 C 
HETATM   16  C   UNL     1       5.319  17.163  20.740  1.00  0.00     0.047 C 
HETATM   17  C   UNL     1       4.933  17.800  22.083  1.00  0.00     0.042 C 
HETATM   18  C   UNL     1       3.999  16.734  22.676  1.00  0.00     0.084 C 
HETATM   19  C   UNL     1       4.950  15.612  23.104  1.00  0.00     0.271 C 
HETATM   20  C   UNL     1       3.261  16.095  21.498  1.00  0.00     0.083 C 
HETATM   21  N   UNL     1       5.282  14.972  21.799  1.00  0.00    -0.059 N 
ATOM     22  HN2 UNL     1       6.282  14.857  21.633  1.00  0.00     0.278 HD
ATOM     23  HN1 UNL     1       5.045  13.981  21.749  1.00  0.00     0.278 HD
BRANCH  18  24
HETATM   24  O   UNL     1       3.178  17.196  23.731  1.00  0.00    -0.388 OA
ATOM     25  HO  UNL     1       3.628  17.789  24.321  1.00  0.00     0.210 HD
ENDBRANCH  18  24
ENDBRANCH  13  15
ENDBRANCH  12  13
ENDBRANCH   5  12
BRANCH  10  26
HETATM   26  O   UNL     1       6.258  12.084  21.105  1.00  0.00    -0.360 OA
ATOM     27  HO  UNL     1       5.565  12.622  21.469  1.00  0.00     0.217 HD
ENDBRANCH  10  26
BRANCH  11  28
HETATM   28  O   UNL     1      11.157  10.855  14.744  1.00  0.00    -0.361 OA
ATOM     29  HO  UNL     1      11.047  10.187  14.077  1.00  0.00     0.217 HD
ENDBRANCH  11  28
TORSDOF 6
ENDMDL
MODEL 7
REMARK VINA RESULT:      -8.0      2.059      3.189
REMARK  6 active torsions:
REMARK  status: ('A' for Active; 'I' for Inactive)
REMARK    1  A    between atoms: C_1  and  O_22 
REMARK    2  A    between atoms: O_3  and  C_25 
REMARK    3  A    between atoms: O_11  and  C_28 
REMARK    4  A    between atoms: C_13  and  C_15 
REMARK    5  A    between atoms: C_15  and  C_27 
REMARK    6  A    between atoms: C_26  and  C_27 
ROOT
HETATM    1  C   UNL     1       8.224  11.458  18.400  1.00  0.00     0.026 C 
HETATM    2  C   UNL     1       6.855  12.746  19.901  1.00  0.00     0.015 C 
HETATM    3  C   UNL     1       9.107  12.755  21.753  1.00  0.00     0.015 C 
HETATM    4  C   UNL     1       9.181  12.260  20.465  1.00  0.00    -0.023 C 
HETATM    5  C   UNL     1       9.519  11.299  17.880  1.00  0.00    -0.002 C 
HETATM    6  C   UNL     1       6.400  13.459  20.979  1.00  0.00     0.037 C 
HETATM    7  C   UNL     1       8.081  12.149  19.620  1.00  0.00    -0.025 C 
HETATM    8  C   UNL     1      10.448  11.851  20.030  1.00  0.00     0.049 C 
HETATM    9  C   UNL     1       8.137  13.172  22.607  1.00  0.00     0.037 C 
HETATM   10  C   UNL     1      10.627  11.628  18.665  1.00  0.00     0.076 C 
HETATM   11  C   UNL     1       6.819  13.466  22.306  1.00  0.00     0.065 C 
ENDROOT
BRANCH   5  12
HETATM   12  C   UNL     1       9.750  10.901  16.547  1.00  0.00     0.019 C 
BRANCH  12  13
HETATM   13  C   UNL     1       9.612  11.499  15.343  1.00  0.00    -0.047 C 
HETATM   14  C   UNL     1       8.607  12.597  15.111  1.00  0.00     0.046 C 
BRANCH  13  15
HETATM   15  C   UNL     1      10.618  11.213  14.258  1.00  0.00     0.151 C 
HETATM   16  C   UNL     1      11.911  10.566  14.757  1.00  0.00     0.047 C 
HETATM   17  C   UNL     1      12.586  10.103  13.457  1.00  0.00     0.042 C 
HETATM   18  C   UNL     1      11.550  10.523  12.403  1.00  0.00     0.084 C 
HETATM   19  C   UNL     1      11.702  12.046  12.329  1.00  0.00     0.271 C 
HETATM   20  C   UNL     1      10.175  10.370  13.055  1.00  0.00     0.083 C 
HETATM   21  N   UNL     1      11.004  12.487  13.571  1.00  0.00    -0.059 N 
ATOM     22  HN2 UNL     1      11.550  13.124  14.152  1.00  0.00     0.278 HD
ATOM     23  HN1 UNL     1      10.224  13.124  13.407  1.00  0.00     0.278 HD
BRANCH  18  24
HETATM   24  O   UNL     1      11.703   9.890  11.147  1.00  0.00    -0.388 OA
ATOM     25  HO  UNL     1      12.518  10.115  10.714  1.00  0.00     0.210 HD
ENDBRANCH  18  24
ENDBRANCH  13  15
ENDBRANCH  12  13
ENDBRANCH   5  12
BRANCH  10  26
HETATM   26  O   UNL     1      11.859  11.712  18.128  1.00  0.00    -0.360 OA
ATOM     27  HO  UNL     1      12.416  12.463  18.296  1.00  0.00     0.217 HD
ENDBRANCH  10  26
BRANCH  11  28
HETATM   28  O   UNL     1       5.938  13.733  23.309  1.00  0.00    -0.361 OA
ATOM     29  HO  UNL     1       5.242  13.121  23.516  1.00  0.00     0.217 HD
ENDBRANCH  11  28
TORSDOF 6
ENDMDL
MODEL 8
REMARK VINA RESULT:      -7.7      1.445      2.216
REMARK  6 active torsions:
REMARK  status: ('A' for Active; 'I' for Inactive)
REMARK    1  A    between atoms: C_1  and  O_22 
REMARK    2  A    between atoms: O_3  and  C_25 
REMARK    3  A    between atoms: O_11  and  C_28 
REMARK    4  A    between atoms: C_13  and  C_15 
REMARK    5  A    between atoms: C_15  and  C_27 
REMARK    6  A    between atoms: C_26  and  C_27 
ROOT
HETATM    1  C   UNL     1      10.126  11.477  17.157  1.00  0.00     0.026 C 
HETATM    2  C   UNL     1       8.528  11.620  18.950  1.00  0.00     0.015 C 
HETATM    3  C   UNL     1       6.759  13.019  17.102  1.00  0.00     0.015 C 
HETATM    4  C   UNL     1       7.955  12.437  16.722  1.00  0.00    -0.023 C 
HETATM    5  C   UNL     1      10.285  11.255  15.779  1.00  0.00    -0.002 C 
HETATM    6  C   UNL     1       7.409  11.885  19.694  1.00  0.00     0.037 C 
HETATM    7  C   UNL     1       8.854  11.871  17.620  1.00  0.00    -0.025 C 
HETATM    8  C   UNL     1       8.240  12.449  15.350  1.00  0.00     0.049 C 
HETATM    9  C   UNL     1       6.118  13.312  18.263  1.00  0.00     0.037 C 
HETATM   10  C   UNL     1       9.271  11.628  14.894  1.00  0.00     0.076 C 
HETATM   11  C   UNL     1       6.418  12.849  19.531  1.00  0.00     0.065 C 
ENDROOT
BRANCH   5  12
HETATM   12  C   UNL     1      11.405  10.580  15.252  1.00  0.00     0.019 C 
BRANCH  12  13
HETATM   13  C   UNL     1      12.176  10.738  14.154  1.00  0.00    -0.047 C 
HETATM   14  C   UNL     1      12.147   9.753  13.015  1.00  0.00     0.046 C 
BRANCH  13  15
HETATM   15  C   UNL     1      12.931  12.028  13.961  1.00  0.00     0.151 C 
HETATM   16  C   UNL     1      12.310  12.969  12.926  1.00  0.00     0.047 C 
HETATM   17  C   UNL     1      13.063  14.285  13.165  1.00  0.00     0.042 C 
HETATM   18  C   UNL     1      13.983  13.909  14.337  1.00  0.00     0.084 C 
HETATM   19  C   UNL     1      15.056  13.028  13.691  1.00  0.00     0.271 C 
HETATM   20  C   UNL     1      13.212  12.900  15.191  1.00  0.00     0.083 C 
HETATM   21  N   UNL     1      14.328  11.739  13.505  1.00  0.00    -0.059 N 
ATOM     22  HN2 UNL     1      14.388  11.360  12.560  1.00  0.00     0.278 HD
ATOM     23  HN1 UNL     1      14.763  10.944  13.973  1.00  0.00     0.278 HD
BRANCH  18  24
HETATM   24  O   UNL     1      14.521  15.014  15.038  1.00  0.00    -0.388 OA
ATOM     25  HO  UNL     1      15.468  15.068  14.975  1.00  0.00     0.210 HD
ENDBRANCH  18  24
ENDBRANCH  13  15
ENDBRANCH  12  13
ENDBRANCH   5  12
BRANCH  10  26
HETATM   26  O   UNL     1       9.285  11.223  13.609  1.00  0.00    -0.360 OA
ATOM     27  HO  UNL     1       8.481  10.996  13.158  1.00  0.00     0.217 HD
ENDBRANCH  10  26
BRANCH  11  28
HETATM   28  O   UNL     1       5.762  13.357  20.610  1.00  0.00    -0.361 OA
ATOM     29  HO  UNL     1       4.820  13.269  20.687  1.00  0.00     0.217 HD
ENDBRANCH  11  28
TORSDOF 6
ENDMDL
MODEL 9
REMARK VINA RESULT:      -7.3      1.885      3.019
REMARK  6 active torsions:
REMARK  status: ('A' for Active; 'I' for Inactive)
REMARK    1  A    between atoms: C_1  and  O_22 
REMARK    2  A    between atoms: O_3  and  C_25 
REMARK    3  A    between atoms: O_11  and  C_28 
REMARK    4  A    between atoms: C_13  and  C_15 
REMARK    5  A    between atoms: C_15  and  C_27 
REMARK    6  A    between atoms: C_26  and  C_27 
ROOT
HETATM    1  C   UNL     1      11.759  12.071  15.536  1.00  0.00     0.026 C 
HETATM    2  C   UNL     1      11.150  11.697  17.833  1.00  0.00     0.015 C 
HETATM    3  C   UNL     1       8.362  11.833  16.991  1.00  0.00     0.015 C 
HETATM    4  C   UNL     1       9.426  11.832  16.109  1.00  0.00    -0.023 C 
HETATM    5  C   UNL     1      11.446  11.760  14.202  1.00  0.00    -0.002 C 
HETATM    6  C   UNL     1      10.441  11.509  18.990  1.00  0.00     0.037 C 
HETATM    7  C   UNL     1      10.758  11.884  16.511  1.00  0.00    -0.025 C 
HETATM    8  C   UNL     1       9.102  11.786  14.747  1.00  0.00     0.049 C 
HETATM    9  C   UNL     1       8.179  11.950  18.332  1.00  0.00     0.037 C 
HETATM   10  C   UNL     1      10.123  11.488  13.845  1.00  0.00     0.076 C 
HETATM   11  C   UNL     1       9.138  11.863  19.324  1.00  0.00     0.065 C 
ENDROOT
BRANCH   5  12
HETATM   12  C   UNL     1      12.439  11.623  13.211  1.00  0.00     0.019 C 
BRANCH  12  13
HETATM   13  C   UNL     1      12.938  12.433  12.251  1.00  0.00    -0.047 C 
HETATM   14  C   UNL     1      12.072  13.420  11.515  1.00  0.00     0.046 C 
BRANCH  13  15
HETATM   15  C   UNL     1      14.430  12.505  12.049  1.00  0.00     0.151 C 
HETATM   16  C   UNL     1      14.918  11.863  10.749  1.00  0.00     0.047 C 
HETATM   17  C   UNL     1      16.370  12.353  10.650  1.00  0.00     0.042 C 
HETATM   18  C   UNL     1      16.485  13.241  11.898  1.00  0.00     0.084 C 
HETATM   19  C   UNL     1      16.553  12.238  13.055  1.00  0.00     0.271 C 
HETATM   20  C   UNL     1      15.110  13.878  12.109  1.00  0.00     0.083 C 
HETATM   21  N   UNL     1      15.131  11.803  13.172  1.00  0.00    -0.059 N 
ATOM     22  HN2 UNL     1      15.004  10.791  13.175  1.00  0.00     0.278 HD
ATOM     23  HN1 UNL     1      14.719  11.971  14.090  1.00  0.00     0.278 HD
BRANCH  18  24
HETATM   24  O   UNL     1      17.576  14.140  11.880  1.00  0.00    -0.388 OA
ATOM     25  HO  UNL     1      18.175  13.983  11.159  1.00  0.00     0.210 HD
ENDBRANCH  18  24
ENDBRANCH  13  15
ENDBRANCH  12  13
ENDBRANCH   5  12
BRANCH  10  26
HETATM   26  O   UNL     1       9.822  10.962  12.642  1.00  0.00    -0.360 OA
ATOM     27  HO  UNL     1       9.013  10.483  12.505  1.00  0.00     0.217 HD
ENDBRANCH  10  26
BRANCH  11  28
HETATM   28  O   UNL     1       8.807  12.149  20.613  1.00  0.00    -0.361 OA
ATOM     29  HO  UNL     1       9.477  12.199  21.284  1.00  0.00     0.217 HD
ENDBRANCH  11  28
TORSDOF 6
ENDMDL
