REMARK  4 active torsions:
REMARK  status: ('A' for Active; 'I' for Inactive)
REMARK    1  A    between atoms: C_2  and  C_5 
REMARK    2  A    between atoms: C_2  and  C_10 
REMARK    3  A    between atoms: C_3  and  O_16 
REMARK    4  A    between atoms: P_11  and  O_16 
ROOT
HETATM    1  C   UNL     1      49.293  40.375  -3.349  1.00  0.00     0.083 C 
HETATM    2  C   UNL     1      51.937  43.654  -1.368  1.00  0.00     0.137 C 
HETATM    3  C   UNL     1      49.533  40.990  -1.022  1.00  0.00     0.040 C 
HETATM    4  C   UNL     1      50.239  42.116  -1.431  1.00  0.00     0.075 C 
HETATM    5  C   UNL     1      50.213  41.370  -3.712  1.00  0.00     0.047 C 
HETATM    6  C   UNL     1      49.105  40.090  -1.999  1.00  0.00     0.040 C 
HETATM    7  C   UNL     1      51.511  43.499  -2.846  1.00  0.00     0.074 C 
HETATM    8  C   UNL     1      50.660  42.265  -2.741  1.00  0.00    -0.020 C 
HETATM    9  O   UNL     1      50.802  43.097  -0.657  1.00  0.00    -0.345 OA
ENDROOT
BRANCH   2  10
HETATM   10  C   UNL     1      51.959  45.120  -0.934  1.00  0.00     0.071 C 
BRANCH  10  11
HETATM   11  C   UNL     1      53.305  45.777  -0.725  1.00  0.00    -0.056 C 
HETATM   12  C   UNL     1      53.626  46.208   0.580  1.00  0.00     0.007 C 
HETATM   13  C   UNL     1      54.739  46.916   1.025  1.00  0.00     0.001 C 
HETATM   14  C   UNL     1      55.949  47.224   0.379  1.00  0.00     0.000 C 
HETATM   15  C   UNL     1      56.307  46.797  -0.904  1.00  0.00     0.000 C 
HETATM   16  C   UNL     1      55.404  46.458  -1.922  1.00  0.00     0.001 C 
HETATM   17  C   UNL     1      54.037  46.176  -1.846  1.00  0.00     0.007 C 
ENDBRANCH  10  11
ENDBRANCH   2  10
BRANCH   1  18
HETATM   18  O   UNL     1      48.624  39.668  -4.320  1.00  0.00    -0.240 OA
BRANCH  18  19
HETATM   19  P   UNL     1      47.279  40.103  -5.071  1.00  0.00     0.427 P 
HETATM   20  O   UNL     1      46.400  40.822  -4.110  1.00  0.00    -0.617 OA
HETATM   21  O   UNL     1      46.599  38.845  -5.524  1.00  0.00    -0.617 OA
HETATM   22  O   UNL     1      47.708  40.999  -6.188  1.00  0.00    -0.617 OA
ENDBRANCH  18  19
ENDBRANCH   1  18
TORSDOF 4
