MODEL 1
REMARK VINA RESULT:      -9.5      0.000      0.000
REMARK  3 active torsions:
REMARK  status: ('A' for Active; 'I' for Inactive)
REMARK    1  A    between atoms: C_1  and  C_6 
REMARK    2  A    between atoms: C_1  and  C_17 
REMARK    3  A    between atoms: C_11  and  O_13 
ROOT
HETATM    1  C   UNL     1     -34.521 -23.544   8.974  1.00  0.00     0.011 C 
HETATM    2  C   UNL     1     -36.903 -24.650   6.358  1.00  0.00    -0.047 C 
HETATM    3  C   UNL     1     -34.553 -24.367   6.606  1.00  0.00     0.044 C 
HETATM    4  C   UNL     1     -35.683 -24.756   5.680  1.00  0.00    -0.051 C 
HETATM    5  C   UNL     1     -35.233 -23.450   7.627  1.00  0.00    -0.005 C 
HETATM    6  C   UNL     1     -35.511 -25.060   4.347  1.00  0.00     0.010 C 
HETATM    7  C   UNL     1     -38.160 -26.245   4.913  1.00  0.00     0.037 C 
HETATM    8  C   UNL     1     -37.359 -26.580   3.821  1.00  0.00     0.065 C 
HETATM    9  C   UNL     1     -37.996 -25.414   5.988  1.00  0.00     0.011 C 
HETATM   10  C   UNL     1     -36.221 -25.849   3.476  1.00  0.00     0.037 C 
HETATM   11  C   UNL     1     -36.691 -23.954   7.687  1.00  0.00     0.033 C 
ENDROOT
BRANCH  11  12
HETATM   12  C   UNL     1     -37.680 -22.788   7.894  1.00  0.00     0.122 C 
BRANCH  12  13
HETATM   13  C   UNL     1     -38.463 -22.958   9.206  1.00  0.00     0.173 C 
HETATM   14  O   UNL     1     -38.490 -24.078   9.747  1.00  0.00    -0.648 OA
HETATM   15  O   UNL     1     -39.188 -21.966   9.567  1.00  0.00    -0.648 OA
ENDBRANCH  12  13
ENDBRANCH  11  12
BRANCH   8  16
HETATM   16  O   UNL     1     -37.725 -27.613   3.014  1.00  0.00    -0.361 OA
ATOM     17  HO  UNL     1     -37.173 -28.385   2.963  1.00  0.00     0.217 HD
ENDBRANCH   8  16
TORSDOF 3
ENDMDL
MODEL 2
REMARK VINA RESULT:      -8.4      2.130      3.383
REMARK  3 active torsions:
REMARK  status: ('A' for Active; 'I' for Inactive)
REMARK    1  A    between atoms: C_1  and  C_6 
REMARK    2  A    between atoms: C_1  and  C_17 
REMARK    3  A    between atoms: C_11  and  O_13 
ROOT
HETATM    1  C   UNL     1     -38.258 -22.527   9.120  1.00  0.00     0.011 C 
HETATM    2  C   UNL     1     -36.405 -24.575   6.647  1.00  0.00    -0.047 C 
HETATM    3  C   UNL     1     -38.667 -24.160   7.262  1.00  0.00     0.044 C 
HETATM    4  C   UNL     1     -37.728 -24.927   6.359  1.00  0.00    -0.051 C 
HETATM    5  C   UNL     1     -37.795 -23.832   8.479  1.00  0.00    -0.005 C 
HETATM    6  C   UNL     1     -38.143 -25.898   5.472  1.00  0.00     0.010 C 
HETATM    7  C   UNL     1     -35.461 -25.213   4.430  1.00  0.00     0.037 C 
HETATM    8  C   UNL     1     -36.450 -25.870   3.700  1.00  0.00     0.065 C 
HETATM    9  C   UNL     1     -35.413 -24.675   5.688  1.00  0.00     0.011 C 
HETATM   10  C   UNL     1     -37.616 -26.361   4.290  1.00  0.00     0.037 C 
HETATM   11  C   UNL     1     -36.362 -23.745   7.914  1.00  0.00     0.033 C 
ENDROOT
BRANCH  11  12
HETATM   12  C   UNL     1     -35.326 -24.283   8.923  1.00  0.00     0.122 C 
BRANCH  12  13
HETATM   13  C   UNL     1     -33.912 -23.792   8.575  1.00  0.00     0.173 C 
HETATM   14  O   UNL     1     -33.787 -22.767   7.882  1.00  0.00    -0.648 OA
HETATM   15  O   UNL     1     -32.947 -24.578   8.878  1.00  0.00    -0.648 OA
ENDBRANCH  12  13
ENDBRANCH  11  12
BRANCH   8  16
HETATM   16  O   UNL     1     -36.258 -26.108   2.373  1.00  0.00    -0.361 OA
ATOM     17  HO  UNL     1     -36.794 -26.755   1.931  1.00  0.00     0.217 HD
ENDBRANCH   8  16
TORSDOF 3
ENDMDL
MODEL 3
REMARK VINA RESULT:      -7.3      2.886      5.404
REMARK  3 active torsions:
REMARK  status: ('A' for Active; 'I' for Inactive)
REMARK    1  A    between atoms: C_1  and  C_6 
REMARK    2  A    between atoms: C_1  and  C_17 
REMARK    3  A    between atoms: C_11  and  O_13 
ROOT
HETATM    1  C   UNL     1     -36.268 -23.158   5.763  1.00  0.00     0.011 C 
HETATM    2  C   UNL     1     -34.063 -23.738   8.686  1.00  0.00    -0.047 C 
HETATM    3  C   UNL     1     -33.948 -23.930   6.316  1.00  0.00     0.044 C 
HETATM    4  C   UNL     1     -33.227 -24.123   7.631  1.00  0.00    -0.051 C 
HETATM    5  C   UNL     1     -35.426 -24.010   6.709  1.00  0.00    -0.005 C 
HETATM    6  C   UNL     1     -31.977 -24.694   7.742  1.00  0.00     0.010 C 
HETATM    7  C   UNL     1     -32.242 -23.277  10.324  1.00  0.00     0.037 C 
HETATM    8  C   UNL     1     -31.034 -23.710   9.778  1.00  0.00     0.065 C 
HETATM    9  C   UNL     1     -33.540 -23.299   9.889  1.00  0.00     0.011 C 
HETATM   10  C   UNL     1     -30.974 -24.556   8.670  1.00  0.00     0.037 C 
HETATM   11  C   UNL     1     -35.466 -23.500   8.165  1.00  0.00     0.033 C 
ENDROOT
BRANCH  11  12
HETATM   12  C   UNL     1     -36.526 -24.255   8.996  1.00  0.00     0.122 C 
BRANCH  12  13
HETATM   13  C   UNL     1     -37.666 -23.314   9.417  1.00  0.00     0.173 C 
HETATM   14  O   UNL     1     -37.445 -22.090   9.468  1.00  0.00    -0.648 OA
HETATM   15  O   UNL     1     -38.729 -23.873   9.860  1.00  0.00    -0.648 OA
ENDBRANCH  12  13
ENDBRANCH  11  12
BRANCH   8  16
HETATM   16  O   UNL     1     -29.863 -23.356  10.377  1.00  0.00    -0.361 OA
ATOM     17  HO  UNL     1     -29.043 -23.492   9.917  1.00  0.00     0.217 HD
ENDBRANCH   8  16
TORSDOF 3
ENDMDL
MODEL 4
REMARK VINA RESULT:      -7.2      1.325      5.235
REMARK  3 active torsions:
REMARK  status: ('A' for Active; 'I' for Inactive)
REMARK    1  A    between atoms: C_1  and  C_6 
REMARK    2  A    between atoms: C_1  and  C_17 
REMARK    3  A    between atoms: C_11  and  O_13 
ROOT
HETATM    1  C   UNL     1     -33.467 -24.115   4.667  1.00  0.00     0.011 C 
HETATM    2  C   UNL     1     -36.639 -24.194   6.583  1.00  0.00    -0.047 C 
HETATM    3  C   UNL     1     -34.335 -23.758   6.991  1.00  0.00     0.044 C 
HETATM    4  C   UNL     1     -35.720 -23.869   7.587  1.00  0.00    -0.051 C 
HETATM    5  C   UNL     1     -34.418 -24.637   5.739  1.00  0.00    -0.005 C 
HETATM    6  C   UNL     1     -35.983 -23.766   8.937  1.00  0.00     0.010 C 
HETATM    7  C   UNL     1     -38.649 -23.292   7.749  1.00  0.00     0.037 C 
HETATM    8  C   UNL     1     -38.288 -22.942   9.049  1.00  0.00     0.065 C 
HETATM    9  C   UNL     1     -37.973 -23.844   6.694  1.00  0.00     0.011 C 
HETATM   10  C   UNL     1     -37.097 -23.372   9.637  1.00  0.00     0.037 C 
HETATM   11  C   UNL     1     -35.899 -24.560   5.313  1.00  0.00     0.033 C 
ENDROOT
BRANCH  11  12
HETATM   12  C   UNL     1     -36.386 -25.903   4.726  1.00  0.00     0.122 C 
BRANCH  12  13
HETATM   13  C   UNL     1     -36.734 -25.758   3.237  1.00  0.00     0.173 C 
HETATM   14  O   UNL     1     -37.852 -26.137   2.843  1.00  0.00    -0.648 OA
HETATM   15  O   UNL     1     -35.775 -25.415   2.460  1.00  0.00    -0.648 OA
ENDBRANCH  12  13
ENDBRANCH  11  12
BRANCH   8  16
HETATM   16  O   UNL     1     -39.147 -22.209   9.810  1.00  0.00    -0.361 OA
ATOM     17  HO  UNL     1     -39.754 -22.654  10.389  1.00  0.00     0.217 HD
ENDBRANCH   8  16
TORSDOF 3
ENDMDL
MODEL 5
REMARK VINA RESULT:      -7.1      2.895      5.835
REMARK  3 active torsions:
REMARK  status: ('A' for Active; 'I' for Inactive)
REMARK    1  A    between atoms: C_1  and  C_6 
REMARK    2  A    between atoms: C_1  and  C_17 
REMARK    3  A    between atoms: C_11  and  O_13 
ROOT
HETATM    1  C   UNL     1     -36.223 -26.066   3.820  1.00  0.00     0.011 C 
HETATM    2  C   UNL     1     -35.306 -24.134   6.848  1.00  0.00    -0.047 C 
HETATM    3  C   UNL     1     -37.266 -25.063   5.867  1.00  0.00     0.044 C 
HETATM    4  C   UNL     1     -36.690 -24.261   7.012  1.00  0.00    -0.051 C 
HETATM    5  C   UNL     1     -36.249 -24.850   4.741  1.00  0.00    -0.005 C 
HETATM    6  C   UNL     1     -37.456 -23.669   7.994  1.00  0.00     0.010 C 
HETATM    7  C   UNL     1     -34.780 -23.730   9.251  1.00  0.00     0.037 C 
HETATM    8  C   UNL     1     -35.978 -23.568   9.945  1.00  0.00     0.065 C 
HETATM    9  C   UNL     1     -34.471 -23.949   7.935  1.00  0.00     0.011 C 
HETATM   10  C   UNL     1     -37.193 -23.332   9.299  1.00  0.00     0.037 C 
HETATM   11  C   UNL     1     -34.908 -24.625   5.471  1.00  0.00     0.033 C 
ENDROOT
BRANCH  11  12
HETATM   12  C   UNL     1     -34.027 -23.601   4.724  1.00  0.00     0.122 C 
BRANCH  12  13
HETATM   13  C   UNL     1     -32.544 -23.790   5.078  1.00  0.00     0.173 C 
HETATM   14  O   UNL     1     -31.961 -22.895   5.717  1.00  0.00    -0.648 OA
HETATM   15  O   UNL     1     -31.953 -24.788   4.535  1.00  0.00    -0.648 OA
ENDBRANCH  12  13
ENDBRANCH  11  12
BRANCH   8  16
HETATM   16  O   UNL     1     -35.969 -23.570  11.307  1.00  0.00    -0.361 OA
ATOM     17  HO  UNL     1     -35.200 -23.260  11.770  1.00  0.00     0.217 HD
ENDBRANCH   8  16
TORSDOF 3
ENDMDL
MODEL 6
REMARK VINA RESULT:      -7.0      2.666      5.269
REMARK  3 active torsions:
REMARK  status: ('A' for Active; 'I' for Inactive)
REMARK    1  A    between atoms: C_1  and  C_6 
REMARK    2  A    between atoms: C_1  and  C_17 
REMARK    3  A    between atoms: C_11  and  O_13 
ROOT
HETATM    1  C   UNL     1     -38.686 -25.627   5.763  1.00  0.00     0.011 C 
HETATM    2  C   UNL     1     -35.883 -23.868   7.433  1.00  0.00    -0.047 C 
HETATM    3  C   UNL     1     -37.918 -24.939   8.048  1.00  0.00     0.044 C 
HETATM    4  C   UNL     1     -36.703 -24.175   8.525  1.00  0.00    -0.051 C 
HETATM    5  C   UNL     1     -38.054 -24.508   6.585  1.00  0.00    -0.005 C 
HETATM    6  C   UNL     1     -36.518 -23.768   9.829  1.00  0.00     0.010 C 
HETATM    7  C   UNL     1     -33.775 -23.612   8.737  1.00  0.00     0.037 C 
HETATM    8  C   UNL     1     -34.085 -23.657  10.096  1.00  0.00     0.065 C 
HETATM    9  C   UNL     1     -34.522 -23.677   7.592  1.00  0.00     0.011 C 
HETATM   10  C   UNL     1     -35.390 -23.516  10.571  1.00  0.00     0.037 C 
HETATM   11  C   UNL     1     -36.610 -24.186   6.143  1.00  0.00     0.033 C 
ENDROOT
BRANCH  11  12
HETATM   12  C   UNL     1     -36.577 -23.001   5.153  1.00  0.00     0.122 C 
BRANCH  12  13
HETATM   13  C   UNL     1     -37.360 -21.801   5.706  1.00  0.00     0.173 C 
HETATM   14  O   UNL     1     -38.277 -21.316   5.019  1.00  0.00    -0.648 OA
HETATM   15  O   UNL     1     -36.897 -21.263   6.772  1.00  0.00    -0.648 OA
ENDBRANCH  12  13
ENDBRANCH  11  12
BRANCH   8  16
HETATM   16  O   UNL     1     -33.082 -23.777  11.009  1.00  0.00    -0.361 OA
ATOM     17  HO  UNL     1     -32.534 -24.553  11.003  1.00  0.00     0.217 HD
ENDBRANCH   8  16
TORSDOF 3
ENDMDL
MODEL 7
REMARK VINA RESULT:      -6.9      2.897      5.522
REMARK  3 active torsions:
REMARK  status: ('A' for Active; 'I' for Inactive)
REMARK    1  A    between atoms: C_1  and  C_6 
REMARK    2  A    between atoms: C_1  and  C_17 
REMARK    3  A    between atoms: C_11  and  O_13 
ROOT
HETATM    1  C   UNL     1     -31.498 -23.468   8.126  1.00  0.00     0.011 C 
HETATM    2  C   UNL     1     -35.150 -23.498   7.490  1.00  0.00    -0.047 C 
HETATM    3  C   UNL     1     -33.673 -23.764   9.338  1.00  0.00     0.044 C 
HETATM    4  C   UNL     1     -35.109 -23.761   8.864  1.00  0.00    -0.051 C 
HETATM    5  C   UNL     1     -32.884 -24.105   8.070  1.00  0.00    -0.005 C 
HETATM    6  C   UNL     1     -36.181 -24.081   9.669  1.00  0.00     0.010 C 
HETATM    7  C   UNL     1     -37.487 -22.633   7.446  1.00  0.00     0.037 C 
HETATM    8  C   UNL     1     -38.065 -22.852   8.696  1.00  0.00     0.065 C 
HETATM    9  C   UNL     1     -36.262 -22.918   6.906  1.00  0.00     0.011 C 
HETATM   10  C   UNL     1     -37.506 -23.717   9.638  1.00  0.00     0.037 C 
HETATM   11  C   UNL     1     -33.748 -23.551   6.917  1.00  0.00     0.033 C 
ENDROOT
BRANCH  11  12
HETATM   12  C   UNL     1     -33.668 -24.457   5.670  1.00  0.00     0.122 C 
BRANCH  12  13
HETATM   13  C   UNL     1     -32.512 -24.027   4.753  1.00  0.00     0.173 C 
HETATM   14  O   UNL     1     -31.644 -24.866   4.450  1.00  0.00    -0.648 OA
HETATM   15  O   UNL     1     -32.422 -22.775   4.500  1.00  0.00    -0.648 OA
ENDBRANCH  12  13
ENDBRANCH  11  12
BRANCH   8  16
HETATM   16  O   UNL     1     -39.252 -22.258   8.999  1.00  0.00    -0.361 OA
ATOM     17  HO  UNL     1     -40.018 -22.798   9.155  1.00  0.00     0.217 HD
ENDBRANCH   8  16
TORSDOF 3
ENDMDL
MODEL 8
REMARK VINA RESULT:      -6.8      3.041      5.308
REMARK  3 active torsions:
REMARK  status: ('A' for Active; 'I' for Inactive)
REMARK    1  A    between atoms: C_1  and  C_6 
REMARK    2  A    between atoms: C_1  and  C_17 
REMARK    3  A    between atoms: C_11  and  O_13 
ROOT
HETATM    1  C   UNL     1     -32.191 -24.739   5.394  1.00  0.00     0.011 C 
HETATM    2  C   UNL     1     -34.468 -23.645   8.108  1.00  0.00    -0.047 C 
HETATM    3  C   UNL     1     -34.566 -24.025   5.760  1.00  0.00     0.044 C 
HETATM    4  C   UNL     1     -35.315 -23.579   6.996  1.00  0.00    -0.051 C 
HETATM    5  C   UNL     1     -33.102 -23.751   6.117  1.00  0.00    -0.005 C 
HETATM    6  C   UNL     1     -36.603 -23.087   6.975  1.00  0.00     0.010 C 
HETATM    7  C   UNL     1     -36.272 -23.834   9.817  1.00  0.00     0.037 C 
HETATM    8  C   UNL     1     -37.500 -23.629   9.190  1.00  0.00     0.065 C 
HETATM    9  C   UNL     1     -34.973 -23.824   9.383  1.00  0.00     0.011 C 
HETATM   10  C   UNL     1     -37.606 -23.074   7.914  1.00  0.00     0.037 C 
HETATM   11  C   UNL     1     -33.045 -23.898   7.652  1.00  0.00     0.033 C 
ENDROOT
BRANCH  11  12
HETATM   12  C   UNL     1     -32.050 -22.897   8.276  1.00  0.00     0.122 C 
BRANCH  12  13
HETATM   13  C   UNL     1     -31.399 -23.484   9.538  1.00  0.00     0.173 C 
HETATM   14  O   UNL     1     -31.003 -24.663   9.515  1.00  0.00    -0.648 OA
HETATM   15  O   UNL     1     -31.466 -22.767  10.597  1.00  0.00    -0.648 OA
ENDBRANCH  12  13
ENDBRANCH  11  12
BRANCH   8  16
HETATM   16  O   UNL     1     -38.651 -23.914   9.860  1.00  0.00    -0.361 OA
ATOM     17  HO  UNL     1     -38.727 -24.736  10.330  1.00  0.00     0.217 HD
ENDBRANCH   8  16
TORSDOF 3
ENDMDL
MODEL 9
REMARK VINA RESULT:      -6.8      2.310      5.800
REMARK  3 active torsions:
REMARK  status: ('A' for Active; 'I' for Inactive)
REMARK    1  A    between atoms: C_1  and  C_6 
REMARK    2  A    between atoms: C_1  and  C_17 
REMARK    3  A    between atoms: C_11  and  O_13 
ROOT
HETATM    1  C   UNL     1     -39.047 -26.217   5.830  1.00  0.00     0.011 C 
HETATM    2  C   UNL     1     -36.195 -24.408   7.358  1.00  0.00    -0.047 C 
HETATM    3  C   UNL     1     -38.436 -24.978   7.922  1.00  0.00     0.044 C 
HETATM    4  C   UNL     1     -37.172 -24.268   8.350  1.00  0.00    -0.051 C 
HETATM    5  C   UNL     1     -38.332 -24.992   6.394  1.00  0.00    -0.005 C 
HETATM    6  C   UNL     1     -37.069 -23.515   9.501  1.00  0.00     0.010 C 
HETATM    7  C   UNL     1     -34.233 -24.043   8.852  1.00  0.00     0.037 C 
HETATM    8  C   UNL     1     -34.697 -23.639  10.103  1.00  0.00     0.065 C 
HETATM    9  C   UNL     1     -34.848 -24.353   7.668  1.00  0.00     0.011 C 
HETATM   10  C   UNL     1     -36.005 -23.197  10.310  1.00  0.00     0.037 C 
HETATM   11  C   UNL     1     -36.815 -25.003   6.111  1.00  0.00     0.033 C 
ENDROOT
BRANCH  11  12
HETATM   12  C   UNL     1     -36.473 -24.184   4.848  1.00  0.00     0.122 C 
BRANCH  12  13
HETATM   13  C   UNL     1     -35.455 -24.927   3.970  1.00  0.00     0.173 C 
HETATM   14  O   UNL     1     -35.869 -25.596   3.005  1.00  0.00    -0.648 OA
HETATM   15  O   UNL     1     -34.248 -24.952   4.397  1.00  0.00    -0.648 OA
ENDBRANCH  12  13
ENDBRANCH  11  12
BRANCH   8  16
HETATM   16  O   UNL     1     -33.837 -23.606  11.158  1.00  0.00    -0.361 OA
ATOM     17  HO  UNL     1     -33.851 -24.310  11.795  1.00  0.00     0.217 HD
ENDBRANCH   8  16
TORSDOF 3
ENDMDL
