REMARK  3 active torsions:
REMARK  status: ('A' for Active; 'I' for Inactive)
REMARK    1  A    between atoms: C_3  and  C_7 
REMARK    2  A    between atoms: C_3  and  C_12 
REMARK    3  A    between atoms: C_6  and  C_10 
ROOT
HETATM    1  N   UNL     1     250.927 107.324   2.209  1.00  0.00    -0.359 N 
ATOM      2  HN  UNL     1     251.119 108.176   1.682  1.00  0.00     0.166 HD
HETATM    3  C   UNL     1     250.298 105.255   2.749  1.00  0.00    -0.007 C 
HETATM    4  C   UNL     1     248.706 103.964   1.557  1.00  0.00     0.041 C 
HETATM    5  C   UNL     1     251.354 107.045   3.466  1.00  0.00     0.010 C 
HETATM    6  C   UNL     1     249.701 104.015   2.534  1.00  0.00     0.032 C 
HETATM    7  C   UNL     1     250.192 106.253   1.776  1.00  0.00     0.042 C 
HETATM    8  C   UNL     1     248.845 104.785   0.434  1.00  0.00     0.021 C 
HETATM    9  C   UNL     1     249.569 105.962   0.565  1.00  0.00     0.031 C 
HETATM   10  C   UNL     1     250.954 105.788   3.849  1.00  0.00     0.038 C 
ENDROOT
BRANCH   4  11
HETATM   11  C   UNL     1     247.502 103.169   1.792  1.00  0.00     0.209 C 
HETATM   12  O   UNL     1     246.377 103.614   1.444  1.00  0.00    -0.644 OA
HETATM   13  O   UNL     1     247.563 102.225   2.623  1.00  0.00    -0.644 OA
ENDBRANCH   4  11
BRANCH   5  14
HETATM   14  C   UNL     1     252.131 107.957   4.362  1.00  0.00     0.057 C 
BRANCH  14  15
HETATM   15  C   UNL     1     253.165 108.856   3.750  1.00  0.00     0.002 C 
HETATM   16  C   UNL     1     252.829 110.303   4.038  1.00  0.00     0.005 C 
ENDBRANCH  14  15
ENDBRANCH   5  14
TORSDOF 3
