REMARK  6 active torsions:
REMARK  status: ('A' for Active; 'I' for Inactive)
REMARK    1  A    between atoms: C_2  and  O_23 
REMARK    2  A    between atoms: O_3  and  C_22 
REMARK    3  A    between atoms: O_3  and  C_25 
REMARK    4  A    between atoms: O_14  and  C_19 
REMARK    5  A    between atoms: O_16  and  C_18 
REMARK    6  A    between atoms: C_19  and  O_20 
ROOT
HETATM    1  C   UNL     1       6.102  59.815   0.068  1.00  0.00     0.186 C 
HETATM    2  C   UNL     1       7.102  58.751  -0.379  1.00  0.00    -0.015 C 
HETATM    3  C   UNL     1       9.206  58.153  -1.381  1.00  0.00     0.005 C 
HETATM    4  C   UNL     1       8.203  59.106  -1.163  1.00  0.00     0.035 C 
HETATM    5  C   UNL     1       6.958  57.435   0.048  1.00  0.00     0.001 C 
HETATM    6  N   UNL     1       9.167  56.979  -0.739  1.00  0.00    -0.369 N 
ATOM      7  HN  UNL     1       9.985  56.370  -0.750  1.00  0.00     0.165 HD
HETATM    8  C   UNL     1       5.264  59.316   1.235  1.00  0.00     0.216 C 
HETATM    9  C   UNL     1       4.574  57.984   0.911  1.00  0.00     0.220 C 
HETATM   10  C   UNL     1       5.685  56.955   0.687  1.00  0.00     0.228 C 
HETATM   11  C   UNL     1       8.062  56.597  -0.082  1.00  0.00     0.098 C 
HETATM   12  C   UNL     1      10.378  58.416  -2.303  1.00  0.00     0.068 C 
ENDROOT
BRANCH  10  13
HETATM   13  O   UNL     1       5.167  55.736   0.162  1.00  0.00    -0.336 OA
BRANCH  13  14
HETATM   14  C   UNL     1       5.654  54.564   0.690  1.00  0.00     0.070 C 
HETATM   15  C   UNL     1       5.324  53.392   0.038  1.00  0.00     0.037 C 
HETATM   16  C   UNL     1       5.562  52.069   0.311  1.00  0.00     0.003 C 
HETATM   17  C   UNL     1       6.624  51.543   1.031  1.00  0.00     0.000 C 
HETATM   18  C   UNL     1       7.464  52.293   1.810  1.00  0.00     0.000 C 
HETATM   19  C   UNL     1       7.396  53.618   2.132  1.00  0.00     0.003 C 
HETATM   20  C   UNL     1       6.476  54.587   1.805  1.00  0.00     0.037 C 
ENDBRANCH  13  14
ENDBRANCH  10  13
BRANCH   9  21
HETATM   21  O   UNL     1       3.814  57.570   2.026  1.00  0.00    -0.361 OA
ATOM     22  HO  UNL     1       3.387  56.745   1.825  1.00  0.00     0.213 HD
ENDBRANCH   9  21
BRANCH   9  23
HETATM   23  O   UNL     1       3.744  58.105  -0.216  1.00  0.00    -0.361 OA
ATOM     24  HO  UNL     1       4.256  58.384  -0.966  1.00  0.00     0.213 HD
ENDBRANCH   9  23
BRANCH   8  25
HETATM   25  O   UNL     1       4.347  60.296   1.682  1.00  0.00    -0.387 OA
ATOM     26  HO  UNL     1       3.824  59.984   2.411  1.00  0.00     0.210 HD
ENDBRANCH   8  25
BRANCH   1  27
HETATM   27  O   UNL     1       5.315  60.219  -1.038  1.00  0.00    -0.388 OA
ATOM     28  HO  UNL     1       4.693  60.881  -0.760  1.00  0.00     0.210 HD
ENDBRANCH   1  27
TORSDOF 6
