MODEL 1
REMARK VINA RESULT:      -9.3      0.000      0.000
REMARK  5 active torsions:
REMARK  status: ('A' for Active; 'I' for Inactive)
REMARK    1  A    between atoms: C_3  and  C_13 
REMARK    2  A    between atoms: O_4  and  C_10 
REMARK    3  A    between atoms: C_11  and  C_19 
REMARK    4  A    between atoms: C_13  and  C_14 
REMARK    5  A    between atoms: C_18  and  C_21 
ROOT
HETATM    1  C   UNL     1       5.794   8.427   7.284  1.00  0.00     0.013 C 
ENDROOT
BRANCH   1   2
HETATM    2  C   UNL     1       4.556   8.454   6.724  1.00  0.00     0.002 C 
HETATM    3  C   UNL     1       3.652   7.518   6.190  1.00  0.00     0.011 C 
BRANCH   3   4
HETATM    4  C   UNL     1       3.507   7.458   4.733  1.00  0.00    -0.036 C 
HETATM    5  C   UNL     1       2.232   7.434   4.144  1.00  0.00     0.014 C 
HETATM    6  C   UNL     1       2.114   7.049   2.805  1.00  0.00     0.037 C 
HETATM    7  C   UNL     1       3.241   6.624   2.104  1.00  0.00     0.065 C 
HETATM    8  C   UNL     1       4.494   6.993   2.581  1.00  0.00     0.037 C 
HETATM    9  C   UNL     1       4.634   7.421   3.904  1.00  0.00     0.014 C 
BRANCH   7  10
HETATM   10  O   UNL     1       3.147   5.927   0.940  1.00  0.00    -0.361 OA
ATOM     11  HO  UNL     1       2.790   5.047   0.949  1.00  0.00     0.217 HD
ENDBRANCH   7  10
ENDBRANCH   3   4
ENDBRANCH   1   2
BRANCH   1  12
HETATM   12  C   UNL     1       6.904   9.308   6.776  1.00  0.00    -0.020 C 
HETATM   13  C   UNL     1       6.717  10.060   5.621  1.00  0.00     0.032 C 
HETATM   14  C   UNL     1       7.808  10.729   5.082  1.00  0.00     0.057 C 
HETATM   15  C   UNL     1       9.067  10.561   5.657  1.00  0.00     0.106 C 
HETATM   16  N   UNL     1       9.222   9.879   6.799  1.00  0.00    -0.373 N 
HETATM   17  C   UNL     1       8.147   9.342   7.403  1.00  0.00     0.099 C 
ATOM     18  HN  UNL     1      10.149   9.766   7.208  1.00  0.00     0.164 HD
BRANCH  14  19
HETATM   19  C   UNL     1       7.603  11.667   3.926  1.00  0.00     0.210 C 
HETATM   20  O   UNL     1       8.477  11.963   3.121  1.00  0.00    -0.644 OA
HETATM   21  O   UNL     1       6.347  11.749   3.602  1.00  0.00    -0.644 OA
ENDBRANCH  14  19
ENDBRANCH   1  12
TORSDOF 5
ENDMDL
MODEL 2
REMARK VINA RESULT:      -8.9      1.123      1.495
REMARK  5 active torsions:
REMARK  status: ('A' for Active; 'I' for Inactive)
REMARK    1  A    between atoms: C_3  and  C_13 
REMARK    2  A    between atoms: O_4  and  C_10 
REMARK    3  A    between atoms: C_11  and  C_19 
REMARK    4  A    between atoms: C_13  and  C_14 
REMARK    5  A    between atoms: C_18  and  C_21 
ROOT
HETATM    1  C   UNL     1       5.475   8.856   6.150  1.00  0.00     0.013 C 
ENDROOT
BRANCH   1   2
HETATM    2  C   UNL     1       5.268   7.744   5.397  1.00  0.00     0.002 C 
HETATM    3  C   UNL     1       5.433   7.372   4.051  1.00  0.00     0.011 C 
BRANCH   3   4
HETATM    4  C   UNL     1       4.233   7.266   3.217  1.00  0.00    -0.036 C 
HETATM    5  C   UNL     1       3.003   7.773   3.668  1.00  0.00     0.014 C 
HETATM    6  C   UNL     1       1.830   7.376   3.020  1.00  0.00     0.037 C 
HETATM    7  C   UNL     1       1.888   6.432   1.996  1.00  0.00     0.065 C 
HETATM    8  C   UNL     1       3.104   6.233   1.351  1.00  0.00     0.037 C 
HETATM    9  C   UNL     1       4.289   6.657   1.957  1.00  0.00     0.014 C 
BRANCH   7  10
HETATM   10  O   UNL     1       0.786   5.761   1.568  1.00  0.00    -0.361 OA
ATOM     11  HO  UNL     1       0.342   6.047   0.778  1.00  0.00     0.217 HD
ENDBRANCH   7  10
ENDBRANCH   3   4
ENDBRANCH   1   2
BRANCH   1  12
HETATM   12  C   UNL     1       6.814   9.543   6.183  1.00  0.00    -0.020 C 
HETATM   13  C   UNL     1       7.209  10.340   5.114  1.00  0.00     0.032 C 
HETATM   14  C   UNL     1       8.511  10.823   5.093  1.00  0.00     0.057 C 
HETATM   15  C   UNL     1       9.403  10.429   6.089  1.00  0.00     0.106 C 
HETATM   16  N   UNL     1       8.995   9.707   7.140  1.00  0.00    -0.373 N 
HETATM   17  C   UNL     1       7.702   9.350   7.239  1.00  0.00     0.099 C 
ATOM     18  HN  UNL     1       9.660   9.428   7.861  1.00  0.00     0.164 HD
BRANCH  14  19
HETATM   19  C   UNL     1       8.918  11.806   4.031  1.00  0.00     0.210 C 
HETATM   20  O   UNL     1      10.080  12.090   3.771  1.00  0.00    -0.644 OA
HETATM   21  O   UNL     1       7.982  11.953   3.141  1.00  0.00    -0.644 OA
ENDBRANCH  14  19
ENDBRANCH   1  12
TORSDOF 5
ENDMDL
MODEL 3
REMARK VINA RESULT:      -8.7      1.903      2.348
REMARK  5 active torsions:
REMARK  status: ('A' for Active; 'I' for Inactive)
REMARK    1  A    between atoms: C_3  and  C_13 
REMARK    2  A    between atoms: O_4  and  C_10 
REMARK    3  A    between atoms: C_11  and  C_19 
REMARK    4  A    between atoms: C_13  and  C_14 
REMARK    5  A    between atoms: C_18  and  C_21 
ROOT
HETATM    1  C   UNL     1       5.859   9.855   6.385  1.00  0.00     0.013 C 
ENDROOT
BRANCH   1   2
HETATM    2  C   UNL     1       5.093   8.764   6.122  1.00  0.00     0.002 C 
HETATM    3  C   UNL     1       5.236   7.557   5.414  1.00  0.00     0.011 C 
BRANCH   3   4
HETATM    4  C   UNL     1       4.554   7.435   4.123  1.00  0.00    -0.036 C 
HETATM    5  C   UNL     1       3.169   7.648   4.024  1.00  0.00     0.014 C 
HETATM    6  C   UNL     1       2.498   7.211   2.878  1.00  0.00     0.037 C 
HETATM    7  C   UNL     1       3.191   6.508   1.894  1.00  0.00     0.065 C 
HETATM    8  C   UNL     1       4.576   6.630   1.848  1.00  0.00     0.037 C 
HETATM    9  C   UNL     1       5.269   7.103   2.965  1.00  0.00     0.014 C 
BRANCH   7  10
HETATM   10  O   UNL     1       2.552   5.774   0.945  1.00  0.00    -0.361 OA
ATOM     11  HO  UNL     1       1.855   6.171   0.437  1.00  0.00     0.217 HD
ENDBRANCH   7  10
ENDBRANCH   3   4
ENDBRANCH   1   2
BRANCH   1  12
HETATM   12  C   UNL     1       6.737  10.470   5.329  1.00  0.00    -0.020 C 
HETATM   13  C   UNL     1       8.087  10.682   5.589  1.00  0.00     0.032 C 
HETATM   14  C   UNL     1       8.835  11.403   4.666  1.00  0.00     0.057 C 
HETATM   15  C   UNL     1       8.200  11.963   3.559  1.00  0.00     0.106 C 
HETATM   16  N   UNL     1       6.912  11.707   3.294  1.00  0.00    -0.373 N 
HETATM   17  C   UNL     1       6.215  10.896   4.109  1.00  0.00     0.099 C 
ATOM     18  HN  UNL     1       6.463  12.123   2.479  1.00  0.00     0.164 HD
BRANCH  14  19
HETATM   19  C   UNL     1      10.322  11.515   4.847  1.00  0.00     0.210 C 
HETATM   20  O   UNL     1      11.098  11.831   3.954  1.00  0.00    -0.644 OA
HETATM   21  O   UNL     1      10.633  11.705   6.094  1.00  0.00    -0.644 OA
ENDBRANCH  14  19
ENDBRANCH   1  12
TORSDOF 5
ENDMDL
MODEL 4
REMARK VINA RESULT:      -8.5      2.209      6.333
REMARK  5 active torsions:
REMARK  status: ('A' for Active; 'I' for Inactive)
REMARK    1  A    between atoms: C_3  and  C_13 
REMARK    2  A    between atoms: O_4  and  C_10 
REMARK    3  A    between atoms: C_11  and  C_19 
REMARK    4  A    between atoms: C_13  and  C_14 
REMARK    5  A    between atoms: C_18  and  C_21 
ROOT
HETATM    1  C   UNL     1       5.025   8.413   6.461  1.00  0.00     0.013 C 
ENDROOT
BRANCH   1   2
HETATM    2  C   UNL     1       6.370   8.464   6.281  1.00  0.00     0.002 C 
HETATM    3  C   UNL     1       7.456   9.155   6.848  1.00  0.00     0.011 C 
BRANCH   3   4
HETATM    4  C   UNL     1       8.049  10.251   6.078  1.00  0.00    -0.036 C 
HETATM    5  C   UNL     1       7.330  10.865   5.040  1.00  0.00     0.014 C 
HETATM    6  C   UNL     1       8.018  11.662   4.120  1.00  0.00     0.037 C 
HETATM    7  C   UNL     1       9.405  11.772   4.199  1.00  0.00     0.065 C 
HETATM    8  C   UNL     1      10.024  11.465   5.406  1.00  0.00     0.037 C 
HETATM    9  C   UNL     1       9.344  10.704   6.361  1.00  0.00     0.014 C 
BRANCH   7  10
HETATM   10  O   UNL     1      10.153  12.236   3.163  1.00  0.00    -0.361 OA
ATOM     11  HO  UNL     1      10.520  13.111   3.206  1.00  0.00     0.217 HD
ENDBRANCH   7  10
ENDBRANCH   3   4
ENDBRANCH   1   2
BRANCH   1  12
HETATM   12  C   UNL     1       4.116   7.811   5.423  1.00  0.00    -0.020 C 
HETATM   13  C   UNL     1       4.635   7.417   4.194  1.00  0.00     0.032 C 
HETATM   14  C   UNL     1       3.752   7.024   3.197  1.00  0.00     0.057 C 
HETATM   15  C   UNL     1       2.380   7.117   3.422  1.00  0.00     0.106 C 
HETATM   16  N   UNL     1       1.895   7.448   4.626  1.00  0.00    -0.373 N 
HETATM   17  C   UNL     1       2.745   7.696   5.638  1.00  0.00     0.099 C 
ATOM     18  HN  UNL     1       0.888   7.510   4.775  1.00  0.00     0.164 HD
BRANCH  14  19
HETATM   19  C   UNL     1       4.291   6.450   1.916  1.00  0.00     0.210 C 
HETATM   20  O   UNL     1       3.656   6.395   0.871  1.00  0.00    -0.644 OA
HETATM   21  O   UNL     1       5.590   6.461   1.904  1.00  0.00    -0.644 OA
ENDBRANCH  14  19
ENDBRANCH   1  12
TORSDOF 5
ENDMDL
MODEL 5
REMARK VINA RESULT:      -8.4      2.511      6.657
REMARK  5 active torsions:
REMARK  status: ('A' for Active; 'I' for Inactive)
REMARK    1  A    between atoms: C_3  and  C_13 
REMARK    2  A    between atoms: O_4  and  C_10 
REMARK    3  A    between atoms: C_11  and  C_19 
REMARK    4  A    between atoms: C_13  and  C_14 
REMARK    5  A    between atoms: C_18  and  C_21 
ROOT
HETATM    1  C   UNL     1       5.526   7.717   5.161  1.00  0.00     0.013 C 
ENDROOT
BRANCH   1   2
HETATM    2  C   UNL     1       5.735   8.983   5.609  1.00  0.00     0.002 C 
HETATM    3  C   UNL     1       5.903  10.258   5.039  1.00  0.00     0.011 C 
BRANCH   3   4
HETATM    4  C   UNL     1       7.252  10.828   5.018  1.00  0.00    -0.036 C 
HETATM    5  C   UNL     1       7.643  11.698   3.987  1.00  0.00     0.014 C 
HETATM    6  C   UNL     1       9.004  11.961   3.804  1.00  0.00     0.037 C 
HETATM    7  C   UNL     1       9.949  11.303   4.589  1.00  0.00     0.065 C 
HETATM    8  C   UNL     1       9.535  10.750   5.796  1.00  0.00     0.037 C 
HETATM    9  C   UNL     1       8.176  10.514   6.022  1.00  0.00     0.014 C 
BRANCH   7  10
HETATM   10  O   UNL     1      11.263  11.249   4.245  1.00  0.00    -0.361 OA
ATOM     11  HO  UNL     1      11.584  10.514   3.736  1.00  0.00     0.217 HD
ENDBRANCH   7  10
ENDBRANCH   3   4
ENDBRANCH   1   2
BRANCH   1  12
HETATM   12  C   UNL     1       4.932   7.452   3.803  1.00  0.00    -0.020 C 
HETATM   13  C   UNL     1       3.553   7.515   3.628  1.00  0.00     0.032 C 
HETATM   14  C   UNL     1       3.020   7.103   2.414  1.00  0.00     0.057 C 
HETATM   15  C   UNL     1       3.863   6.561   1.445  1.00  0.00     0.106 C 
HETATM   16  N   UNL     1       5.193   6.556   1.606  1.00  0.00    -0.373 N 
HETATM   17  C   UNL     1       5.728   7.080   2.723  1.00  0.00     0.099 C 
ATOM     18  HN  UNL     1       5.796   6.157   0.887  1.00  0.00     0.164 HD
BRANCH  14  19
HETATM   19  C   UNL     1       1.555   7.302   2.143  1.00  0.00     0.210 C 
HETATM   20  O   UNL     1       1.097   8.256   1.528  1.00  0.00    -0.644 OA
HETATM   21  O   UNL     1       0.907   6.178   2.204  1.00  0.00    -0.644 OA
ENDBRANCH  14  19
ENDBRANCH   1  12
TORSDOF 5
ENDMDL
MODEL 6
REMARK VINA RESULT:      -8.2      2.245      6.692
REMARK  5 active torsions:
REMARK  status: ('A' for Active; 'I' for Inactive)
REMARK    1  A    between atoms: C_3  and  C_13 
REMARK    2  A    between atoms: O_4  and  C_10 
REMARK    3  A    between atoms: C_11  and  C_19 
REMARK    4  A    between atoms: C_13  and  C_14 
REMARK    5  A    between atoms: C_18  and  C_21 
ROOT
HETATM    1  C   UNL     1       4.580   7.844   5.648  1.00  0.00     0.013 C 
ENDROOT
BRANCH   1   2
HETATM    2  C   UNL     1       5.914   8.021   5.836  1.00  0.00     0.002 C 
HETATM    3  C   UNL     1       6.738   8.824   6.645  1.00  0.00     0.011 C 
BRANCH   3   4
HETATM    4  C   UNL     1       7.421   9.958   6.015  1.00  0.00    -0.036 C 
HETATM    5  C   UNL     1       6.771  10.731   5.040  1.00  0.00     0.014 C 
HETATM    6  C   UNL     1       7.533  11.578   4.231  1.00  0.00     0.037 C 
HETATM    7  C   UNL     1       8.921  11.587   4.349  1.00  0.00     0.065 C 
HETATM    8  C   UNL     1       9.486  11.106   5.525  1.00  0.00     0.037 C 
HETATM    9  C   UNL     1       8.734  10.289   6.373  1.00  0.00     0.014 C 
BRANCH   7  10
HETATM   10  O   UNL     1       9.725  12.113   3.387  1.00  0.00    -0.361 OA
ATOM     11  HO  UNL     1      10.344  11.551   2.936  1.00  0.00     0.217 HD
ENDBRANCH   7  10
ENDBRANCH   3   4
ENDBRANCH   1   2
BRANCH   1  12
HETATM   12  C   UNL     1       4.017   7.493   4.297  1.00  0.00    -0.020 C 
HETATM   13  C   UNL     1       2.651   7.280   4.151  1.00  0.00     0.032 C 
HETATM   14  C   UNL     1       2.181   6.795   2.937  1.00  0.00     0.057 C 
HETATM   15  C   UNL     1       3.092   6.455   1.938  1.00  0.00     0.106 C 
HETATM   16  N   UNL     1       4.399   6.715   2.072  1.00  0.00    -0.373 N 
HETATM   17  C   UNL     1       4.845   7.313   3.191  1.00  0.00     0.099 C 
ATOM     18  HN  UNL     1       5.052   6.461   1.331  1.00  0.00     0.164 HD
BRANCH  14  19
HETATM   19  C   UNL     1       0.700   6.700   2.701  1.00  0.00     0.210 C 
HETATM   20  O   UNL     1       0.165   6.906   1.620  1.00  0.00    -0.644 OA
HETATM   21  O   UNL     1       0.127   5.949   3.594  1.00  0.00    -0.644 OA
ENDBRANCH  14  19
ENDBRANCH   1  12
TORSDOF 5
ENDMDL
MODEL 7
REMARK VINA RESULT:      -8.2      2.319      6.079
REMARK  5 active torsions:
REMARK  status: ('A' for Active; 'I' for Inactive)
REMARK    1  A    between atoms: C_3  and  C_13 
REMARK    2  A    between atoms: O_4  and  C_10 
REMARK    3  A    between atoms: C_11  and  C_19 
REMARK    4  A    between atoms: C_13  and  C_14 
REMARK    5  A    between atoms: C_18  and  C_21 
ROOT
HETATM    1  C   UNL     1       4.794   7.776   7.536  1.00  0.00     0.013 C 
ENDROOT
BRANCH   1   2
HETATM    2  C   UNL     1       6.012   8.005   6.979  1.00  0.00     0.002 C 
HETATM    3  C   UNL     1       7.087   8.888   7.190  1.00  0.00     0.011 C 
BRANCH   3   4
HETATM    4  C   UNL     1       7.262   9.993   6.244  1.00  0.00    -0.036 C 
HETATM    5  C   UNL     1       6.179  10.457   5.481  1.00  0.00     0.014 C 
HETATM    6  C   UNL     1       6.434  11.267   4.370  1.00  0.00     0.037 C 
HETATM    7  C   UNL     1       7.748  11.535   3.993  1.00  0.00     0.065 C 
HETATM    8  C   UNL     1       8.752  11.375   4.942  1.00  0.00     0.037 C 
HETATM    9  C   UNL     1       8.512  10.604   6.083  1.00  0.00     0.014 C 
BRANCH   7  10
HETATM   10  O   UNL     1       8.064  12.014   2.760  1.00  0.00    -0.361 OA
ATOM     11  HO  UNL     1       8.090  12.952   2.616  1.00  0.00     0.217 HD
ENDBRANCH   7  10
ENDBRANCH   3   4
ENDBRANCH   1   2
BRANCH   1  12
HETATM   12  C   UNL     1       3.662   7.193   6.733  1.00  0.00    -0.020 C 
HETATM   13  C   UNL     1       3.517   7.533   5.393  1.00  0.00     0.032 C 
HETATM   14  C   UNL     1       2.373   7.119   4.723  1.00  0.00     0.057 C 
HETATM   15  C   UNL     1       1.371   6.454   5.428  1.00  0.00     0.106 C 
HETATM   16  N   UNL     1       1.547   6.086   6.704  1.00  0.00    -0.373 N 
HETATM   17  C   UNL     1       2.709   6.363   7.320  1.00  0.00     0.099 C 
ATOM     18  HN  UNL     1       0.804   5.599   7.205  1.00  0.00     0.164 HD
BRANCH  14  19
HETATM   19  C   UNL     1       2.262   7.341   3.241  1.00  0.00     0.210 C 
HETATM   20  O   UNL     1       3.208   7.273   2.466  1.00  0.00    -0.644 OA
HETATM   21  O   UNL     1       1.047   7.145   2.824  1.00  0.00    -0.644 OA
ENDBRANCH  14  19
ENDBRANCH   1  12
TORSDOF 5
ENDMDL
MODEL 8
REMARK VINA RESULT:      -7.8      3.790      5.675
REMARK  5 active torsions:
REMARK  status: ('A' for Active; 'I' for Inactive)
REMARK    1  A    between atoms: C_3  and  C_13 
REMARK    2  A    between atoms: O_4  and  C_10 
REMARK    3  A    between atoms: C_11  and  C_19 
REMARK    4  A    between atoms: C_13  and  C_14 
REMARK    5  A    between atoms: C_18  and  C_21 
ROOT
HETATM    1  C   UNL     1       5.116   7.141   7.470  1.00  0.00     0.013 C 
ENDROOT
BRANCH   1   2
HETATM    2  C   UNL     1       5.667   7.473   6.273  1.00  0.00     0.002 C 
HETATM    3  C   UNL     1       5.404   8.394   5.244  1.00  0.00     0.011 C 
BRANCH   3   4
HETATM    4  C   UNL     1       4.816   7.886   4.001  1.00  0.00    -0.036 C 
HETATM    5  C   UNL     1       3.430   7.953   3.788  1.00  0.00     0.014 C 
HETATM    6  C   UNL     1       2.865   7.180   2.769  1.00  0.00     0.037 C 
HETATM    7  C   UNL     1       3.665   6.303   2.039  1.00  0.00     0.065 C 
HETATM    8  C   UNL     1       5.039   6.519   2.025  1.00  0.00     0.037 C 
HETATM    9  C   UNL     1       5.626   7.321   3.007  1.00  0.00     0.014 C 
BRANCH   7  10
HETATM   10  O   UNL     1       3.139   5.297   1.290  1.00  0.00    -0.361 OA
ATOM     11  HO  UNL     1       3.584   4.459   1.255  1.00  0.00     0.217 HD
ENDBRANCH   7  10
ENDBRANCH   3   4
ENDBRANCH   1   2
BRANCH   1  12
HETATM   12  C   UNL     1       3.634   7.256   7.712  1.00  0.00    -0.020 C 
HETATM   13  C   UNL     1       2.761   6.370   7.089  1.00  0.00     0.032 C 
HETATM   14  C   UNL     1       1.396   6.603   7.193  1.00  0.00     0.057 C 
HETATM   15  C   UNL     1       0.944   7.753   7.838  1.00  0.00     0.106 C 
HETATM   16  N   UNL     1       1.793   8.569   8.478  1.00  0.00    -0.373 N 
HETATM   17  C   UNL     1       3.105   8.276   8.499  1.00  0.00     0.099 C 
ATOM     18  HN  UNL     1       1.447   9.405   8.946  1.00  0.00     0.164 HD
BRANCH  14  19
HETATM   19  C   UNL     1       0.429   5.582   6.662  1.00  0.00     0.210 C 
HETATM   20  O   UNL     1       0.644   4.881   5.681  1.00  0.00    -0.644 OA
HETATM   21  O   UNL     1      -0.405   5.198   7.582  1.00  0.00    -0.644 OA
ENDBRANCH  14  19
ENDBRANCH   1  12
TORSDOF 5
ENDMDL
MODEL 9
REMARK VINA RESULT:      -7.8      3.052      6.664
REMARK  5 active torsions:
REMARK  status: ('A' for Active; 'I' for Inactive)
REMARK    1  A    between atoms: C_3  and  C_13 
REMARK    2  A    between atoms: O_4  and  C_10 
REMARK    3  A    between atoms: C_11  and  C_19 
REMARK    4  A    between atoms: C_13  and  C_14 
REMARK    5  A    between atoms: C_18  and  C_21 
ROOT
HETATM    1  C   UNL     1       4.591   8.254   8.080  1.00  0.00     0.013 C 
ENDROOT
BRANCH   1   2
HETATM    2  C   UNL     1       5.427   8.218   7.010  1.00  0.00     0.002 C 
HETATM    3  C   UNL     1       6.746   8.612   6.725  1.00  0.00     0.011 C 
BRANCH   3   4
HETATM    4  C   UNL     1       6.942   9.814   5.909  1.00  0.00    -0.036 C 
HETATM    5  C   UNL     1       5.902  10.308   5.106  1.00  0.00     0.014 C 
HETATM    6  C   UNL     1       6.204  11.236   4.105  1.00  0.00     0.037 C 
HETATM    7  C   UNL     1       7.530  11.594   3.868  1.00  0.00     0.065 C 
HETATM    8  C   UNL     1       8.462  11.379   4.878  1.00  0.00     0.037 C 
HETATM    9  C   UNL     1       8.170  10.488   5.914  1.00  0.00     0.014 C 
BRANCH   7  10
HETATM   10  O   UNL     1       7.919  12.208   2.719  1.00  0.00    -0.361 OA
ATOM     11  HO  UNL     1       7.924  13.157   2.674  1.00  0.00     0.217 HD
ENDBRANCH   7  10
ENDBRANCH   3   4
ENDBRANCH   1   2
BRANCH   1  12
HETATM   12  C   UNL     1       3.195   7.697   8.006  1.00  0.00    -0.020 C 
HETATM   13  C   UNL     1       2.796   6.978   6.884  1.00  0.00     0.032 C 
HETATM   14  C   UNL     1       1.459   6.623   6.765  1.00  0.00     0.057 C 
HETATM   15  C   UNL     1       0.545   7.066   7.720  1.00  0.00     0.106 C 
HETATM   16  N   UNL     1       0.951   7.712   8.822  1.00  0.00    -0.373 N 
HETATM   17  C   UNL     1       2.262   7.939   9.012  1.00  0.00     0.099 C 
ATOM     18  HN  UNL     1       0.270   8.028   9.511  1.00  0.00     0.164 HD
BRANCH  14  19
HETATM   19  C   UNL     1       1.031   5.718   5.643  1.00  0.00     0.210 C 
HETATM   20  O   UNL     1       0.202   4.826   5.763  1.00  0.00    -0.644 OA
HETATM   21  O   UNL     1       1.258   6.263   4.485  1.00  0.00    -0.644 OA
ENDBRANCH  14  19
ENDBRANCH   1  12
TORSDOF 5
ENDMDL
