MODEL 1
REMARK VINA RESULT:      -9.0      0.000      0.000
REMARK  8 active torsions:
REMARK  status: ('A' for Active; 'I' for Inactive)
REMARK    1  A    between atoms: C_1  and  O_8 
REMARK    2  A    between atoms: C_3  and  O_27 
REMARK    3  A    between atoms: O_5  and  C_11 
REMARK    4  A    between atoms: C_11  and  C_12 
REMARK    5  A    between atoms: C_11  and  O_18 
REMARK    6  A    between atoms: C_11  and  C_21 
REMARK    7  A    between atoms: O_13  and  C_23 
REMARK    8  A    between atoms: O_16  and  C_22 
ROOT
HETATM    1  C   UNL     1      53.757  39.902   6.364  1.00  0.00     0.184 C 
HETATM    2  C   UNL     1      52.300  38.330   5.172  1.00  0.00     0.052 C 
HETATM    3  C   UNL     1      52.533  38.288   7.668  1.00  0.00     0.184 C 
HETATM    4  C   UNL     1      55.955  39.523   7.940  1.00  0.00     0.048 C 
HETATM    5  C   UNL     1      54.491  39.544   7.616  1.00  0.00    -0.043 C 
HETATM    6  C   UNL     1      56.021  38.728   9.232  1.00  0.00     0.061 C 
HETATM    7  C   UNL     1      53.837  38.562   8.320  1.00  0.00    -0.043 C 
HETATM    8  C   UNL     1      52.413  39.180   6.431  1.00  0.00     0.113 C 
HETATM    9  C   UNL     1      54.753  37.922   9.329  1.00  0.00     0.048 C 
ENDROOT
BRANCH   6  10
HETATM   10  C   UNL     1      57.368  38.417   9.851  1.00  0.00     0.193 C 
BRANCH  10  11
HETATM   11  O   UNL     1      58.326  38.163   8.865  1.00  0.00    -0.361 OA
ATOM     12  HO  UNL     1      58.742  38.968   8.579  1.00  0.00     0.213 HD
ENDBRANCH  10  11
BRANCH  10  13
HETATM   13  O   UNL     1      57.142  37.267  10.613  1.00  0.00    -0.361 OA
ATOM     14  HO  UNL     1      56.317  37.339  11.079  1.00  0.00     0.213 HD
ENDBRANCH  10  13
BRANCH  10  15
HETATM   15  C   UNL     1      57.845  39.522  10.761  1.00  0.00     0.006 C 
HETATM   16  C   UNL     1      58.700  40.505  10.285  1.00  0.00     0.013 C 
HETATM   17  C   UNL     1      59.191  41.473  11.149  1.00  0.00     0.003 C 
HETATM   18  C   UNL     1      58.655  41.593  12.427  1.00  0.00     0.036 C 
HETATM   19  C   UNL     1      57.694  40.689  12.858  1.00  0.00     0.066 C 
HETATM   20  C   UNL     1      57.338  39.626  12.040  1.00  0.00     0.049 C 
BRANCH  19  21
HETATM   21  O   UNL     1      57.174  40.807  14.104  1.00  0.00    -0.361 OA
ATOM     22  HO  UNL     1      57.619  40.403  14.839  1.00  0.00     0.217 HD
ENDBRANCH  19  21
ENDBRANCH  10  15
ENDBRANCH   6  10
BRANCH   1  23
HETATM   23  O   UNL     1      53.637  41.284   6.104  1.00  0.00    -0.388 OA
ATOM     24  HO  UNL     1      54.093  41.595   5.331  1.00  0.00     0.210 HD
ENDBRANCH   1  23
BRANCH   3  25
HETATM   25  O   UNL     1      51.423  38.256   8.527  1.00  0.00    -0.388 OA
ATOM     26  HO  UNL     1      50.964  37.426   8.571  1.00  0.00     0.210 HD
ENDBRANCH   3  25
BRANCH   8  27
HETATM   27  O   UNL     1      51.297  40.064   6.543  1.00  0.00    -0.384 OA
ATOM     28  HO  UNL     1      50.825  40.182   5.727  1.00  0.00     0.210 HD
ENDBRANCH   8  27
TORSDOF 8
ENDMDL
MODEL 2
REMARK VINA RESULT:      -8.8      1.047      1.463
REMARK  8 active torsions:
REMARK  status: ('A' for Active; 'I' for Inactive)
REMARK    1  A    between atoms: C_1  and  O_8 
REMARK    2  A    between atoms: C_3  and  O_27 
REMARK    3  A    between atoms: O_5  and  C_11 
REMARK    4  A    between atoms: C_11  and  C_12 
REMARK    5  A    between atoms: C_11  and  O_18 
REMARK    6  A    between atoms: C_11  and  C_21 
REMARK    7  A    between atoms: O_13  and  C_23 
REMARK    8  A    between atoms: O_16  and  C_22 
ROOT
HETATM    1  C   UNL     1      53.619  39.870   6.228  1.00  0.00     0.184 C 
HETATM    2  C   UNL     1      52.074  38.285   5.171  1.00  0.00     0.052 C 
HETATM    3  C   UNL     1      52.375  38.383   7.658  1.00  0.00     0.184 C 
HETATM    4  C   UNL     1      55.847  39.502   7.766  1.00  0.00     0.048 C 
HETATM    5  C   UNL     1      54.375  39.559   7.480  1.00  0.00    -0.043 C 
HETATM    6  C   UNL     1      55.920  38.783   9.102  1.00  0.00     0.061 C 
HETATM    7  C   UNL     1      53.707  38.645   8.258  1.00  0.00    -0.043 C 
HETATM    8  C   UNL     1      52.253  39.204   6.374  1.00  0.00     0.113 C 
HETATM    9  C   UNL     1      54.627  38.032   9.280  1.00  0.00     0.048 C 
ENDROOT
BRANCH   6  10
HETATM   10  C   UNL     1      57.273  38.459   9.703  1.00  0.00     0.193 C 
BRANCH  10  11
HETATM   11  O   UNL     1      58.219  38.214   8.703  1.00  0.00    -0.361 OA
ATOM     12  HO  UNL     1      58.945  38.824   8.765  1.00  0.00     0.213 HD
ENDBRANCH  10  11
BRANCH  10  13
HETATM   13  O   UNL     1      57.050  37.300  10.452  1.00  0.00    -0.361 OA
ATOM     14  HO  UNL     1      56.361  37.449  11.090  1.00  0.00     0.213 HD
ENDBRANCH  10  13
BRANCH  10  15
HETATM   15  C   UNL     1      57.763  39.550  10.621  1.00  0.00     0.006 C 
HETATM   16  C   UNL     1      57.361  39.584  11.949  1.00  0.00     0.013 C 
HETATM   17  C   UNL     1      57.758  40.634  12.765  1.00  0.00     0.003 C 
HETATM   18  C   UNL     1      58.733  41.523  12.322  1.00  0.00     0.036 C 
HETATM   19  C   UNL     1      59.238  41.403  11.035  1.00  0.00     0.066 C 
HETATM   20  C   UNL     1      58.707  40.452  10.175  1.00  0.00     0.049 C 
BRANCH  19  21
HETATM   21  O   UNL     1      60.187  42.270  10.605  1.00  0.00    -0.361 OA
ATOM     22  HO  UNL     1      60.500  42.953  11.187  1.00  0.00     0.217 HD
ENDBRANCH  19  21
ENDBRANCH  10  15
ENDBRANCH   6  10
BRANCH   1  23
HETATM   23  O   UNL     1      53.542  41.237   5.889  1.00  0.00    -0.388 OA
ATOM     24  HO  UNL     1      54.324  41.604   5.493  1.00  0.00     0.210 HD
ENDBRANCH   1  23
BRANCH   3  25
HETATM   25  O   UNL     1      51.290  38.443   8.547  1.00  0.00    -0.388 OA
ATOM     26  HO  UNL     1      50.692  37.706   8.511  1.00  0.00     0.210 HD
ENDBRANCH   3  25
BRANCH   8  27
HETATM   27  O   UNL     1      51.173  40.134   6.461  1.00  0.00    -0.384 OA
ATOM     28  HO  UNL     1      50.404  39.869   5.969  1.00  0.00     0.210 HD
ENDBRANCH   8  27
TORSDOF 8
ENDMDL
MODEL 3
REMARK VINA RESULT:      -8.4      2.104      3.855
REMARK  8 active torsions:
REMARK  status: ('A' for Active; 'I' for Inactive)
REMARK    1  A    between atoms: C_1  and  O_8 
REMARK    2  A    between atoms: C_3  and  O_27 
REMARK    3  A    between atoms: O_5  and  C_11 
REMARK    4  A    between atoms: C_11  and  C_12 
REMARK    5  A    between atoms: C_11  and  O_18 
REMARK    6  A    between atoms: C_11  and  C_21 
REMARK    7  A    between atoms: O_13  and  C_23 
REMARK    8  A    between atoms: O_16  and  C_22 
ROOT
HETATM    1  C   UNL     1      51.644  38.087   7.937  1.00  0.00     0.184 C 
HETATM    2  C   UNL     1      50.022  39.924   7.861  1.00  0.00     0.052 C 
HETATM    3  C   UNL     1      52.253  40.080   6.729  1.00  0.00     0.184 C 
HETATM    4  C   UNL     1      54.172  37.921   8.959  1.00  0.00     0.048 C 
HETATM    5  C   UNL     1      53.123  38.305   7.958  1.00  0.00    -0.043 C 
HETATM    6  C   UNL     1      55.374  38.755   8.550  1.00  0.00     0.061 C 
HETATM    7  C   UNL     1      53.466  39.485   7.343  1.00  0.00    -0.043 C 
HETATM    8  C   UNL     1      51.061  39.173   7.037  1.00  0.00     0.113 C 
HETATM    9  C   UNL     1      54.864  39.902   7.719  1.00  0.00     0.048 C 
ENDROOT
BRANCH   6  10
HETATM   10  C   UNL     1      56.638  38.703   9.383  1.00  0.00     0.193 C 
BRANCH  10  11
HETATM   11  O   UNL     1      56.746  37.480  10.054  1.00  0.00    -0.361 OA
ATOM     12  HO  UNL     1      57.209  37.583  10.877  1.00  0.00     0.213 HD
ENDBRANCH  10  11
BRANCH  10  13
HETATM   13  O   UNL     1      56.492  39.747  10.302  1.00  0.00    -0.361 OA
ATOM     14  HO  UNL     1      56.491  40.583   9.851  1.00  0.00     0.213 HD
ENDBRANCH  10  13
BRANCH  10  15
HETATM   15  C   UNL     1      57.875  38.948   8.556  1.00  0.00     0.006 C 
HETATM   16  C   UNL     1      59.036  39.420   9.151  1.00  0.00     0.013 C 
HETATM   17  C   UNL     1      60.145  39.713   8.369  1.00  0.00     0.003 C 
HETATM   18  C   UNL     1      60.169  39.323   7.033  1.00  0.00     0.036 C 
HETATM   19  C   UNL     1      59.052  38.722   6.472  1.00  0.00     0.066 C 
HETATM   20  C   UNL     1      57.893  38.590   7.223  1.00  0.00     0.049 C 
BRANCH  19  21
HETATM   21  O   UNL     1      59.078  38.344   5.170  1.00  0.00    -0.361 OA
ATOM     22  HO  UNL     1      58.712  37.504   4.917  1.00  0.00     0.217 HD
ENDBRANCH  19  21
ENDBRANCH  10  15
ENDBRANCH   6  10
BRANCH   1  23
HETATM   23  O   UNL     1      51.228  36.785   7.585  1.00  0.00    -0.388 OA
ATOM     24  HO  UNL     1      51.342  36.554   6.671  1.00  0.00     0.210 HD
ENDBRANCH   1  23
BRANCH   3  25
HETATM   25  O   UNL     1      52.395  40.498   5.397  1.00  0.00    -0.388 OA
ATOM     26  HO  UNL     1      53.248  40.845   5.166  1.00  0.00     0.210 HD
ENDBRANCH   3  25
BRANCH   8  27
HETATM   27  O   UNL     1      50.479  38.665   5.835  1.00  0.00    -0.384 OA
ATOM     28  HO  UNL     1      51.041  38.757   5.075  1.00  0.00     0.210 HD
ENDBRANCH   8  27
TORSDOF 8
ENDMDL
MODEL 4
REMARK VINA RESULT:      -8.3      1.844      3.293
REMARK  8 active torsions:
REMARK  status: ('A' for Active; 'I' for Inactive)
REMARK    1  A    between atoms: C_1  and  O_8 
REMARK    2  A    between atoms: C_3  and  O_27 
REMARK    3  A    between atoms: O_5  and  C_11 
REMARK    4  A    between atoms: C_11  and  C_12 
REMARK    5  A    between atoms: C_11  and  O_18 
REMARK    6  A    between atoms: C_11  and  C_21 
REMARK    7  A    between atoms: O_13  and  C_23 
REMARK    8  A    between atoms: O_16  and  C_22 
ROOT
HETATM    1  C   UNL     1      53.489  39.900   6.201  1.00  0.00     0.184 C 
HETATM    2  C   UNL     1      52.047  38.229   5.133  1.00  0.00     0.052 C 
HETATM    3  C   UNL     1      52.369  38.307   7.618  1.00  0.00     0.184 C 
HETATM    4  C   UNL     1      55.754  39.664   7.710  1.00  0.00     0.048 C 
HETATM    5  C   UNL     1      54.279  39.623   7.439  1.00  0.00    -0.043 C 
HETATM    6  C   UNL     1      55.893  38.930   9.032  1.00  0.00     0.061 C 
HETATM    7  C   UNL     1      53.685  38.651   8.209  1.00  0.00    -0.043 C 
HETATM    8  C   UNL     1      52.175  39.138   6.349  1.00  0.00     0.113 C 
HETATM    9  C   UNL     1      54.658  38.088   9.211  1.00  0.00     0.048 C 
ENDROOT
BRANCH   6  10
HETATM   10  C   UNL     1      57.272  38.692   9.614  1.00  0.00     0.193 C 
BRANCH  10  11
HETATM   11  O   UNL     1      57.375  37.403  10.145  1.00  0.00    -0.361 OA
ATOM     12  HO  UNL     1      56.926  37.342  10.980  1.00  0.00     0.213 HD
ENDBRANCH  10  11
BRANCH  10  13
HETATM   13  O   UNL     1      57.388  39.645  10.630  1.00  0.00    -0.361 OA
ATOM     14  HO  UNL     1      56.769  40.352  10.489  1.00  0.00     0.213 HD
ENDBRANCH  10  13
BRANCH  10  15
HETATM   15  C   UNL     1      58.365  38.920   8.600  1.00  0.00     0.006 C 
HETATM   16  C   UNL     1      59.533  39.576   8.961  1.00  0.00     0.013 C 
HETATM   17  C   UNL     1      60.499  39.847   8.002  1.00  0.00     0.003 C 
HETATM   18  C   UNL     1      60.401  39.268   6.741  1.00  0.00     0.036 C 
HETATM   19  C   UNL     1      59.294  38.495   6.423  1.00  0.00     0.066 C 
HETATM   20  C   UNL     1      58.257  38.373   7.337  1.00  0.00     0.049 C 
BRANCH  19  21
HETATM   21  O   UNL     1      59.200  37.933   5.193  1.00  0.00    -0.361 OA
ATOM     22  HO  UNL     1      59.826  38.169   4.519  1.00  0.00     0.217 HD
ENDBRANCH  19  21
ENDBRANCH  10  15
ENDBRANCH   6  10
BRANCH   1  23
HETATM   23  O   UNL     1      53.313  41.264   5.887  1.00  0.00    -0.388 OA
ATOM     24  HO  UNL     1      54.111  41.779   5.841  1.00  0.00     0.210 HD
ENDBRANCH   1  23
BRANCH   3  25
HETATM   25  O   UNL     1      51.292  38.276   8.518  1.00  0.00    -0.388 OA
ATOM     26  HO  UNL     1      50.430  38.341   8.126  1.00  0.00     0.210 HD
ENDBRANCH   3  25
BRANCH   8  27
HETATM   27  O   UNL     1      51.033  39.989   6.464  1.00  0.00    -0.384 OA
ATOM     28  HO  UNL     1      50.306  39.587   6.925  1.00  0.00     0.210 HD
ENDBRANCH   8  27
TORSDOF 8
ENDMDL
MODEL 5
REMARK VINA RESULT:      -8.2      1.480      2.435
REMARK  8 active torsions:
REMARK  status: ('A' for Active; 'I' for Inactive)
REMARK    1  A    between atoms: C_1  and  O_8 
REMARK    2  A    between atoms: C_3  and  O_27 
REMARK    3  A    between atoms: O_5  and  C_11 
REMARK    4  A    between atoms: C_11  and  C_12 
REMARK    5  A    between atoms: C_11  and  O_18 
REMARK    6  A    between atoms: C_11  and  C_21 
REMARK    7  A    between atoms: O_13  and  C_23 
REMARK    8  A    between atoms: O_16  and  C_22 
ROOT
HETATM    1  C   UNL     1      51.350  38.073   8.139  1.00  0.00     0.184 C 
HETATM    2  C   UNL     1      49.809  39.981   8.098  1.00  0.00     0.052 C 
HETATM    3  C   UNL     1      51.962  39.989   6.812  1.00  0.00     0.184 C 
HETATM    4  C   UNL     1      53.933  37.827   8.992  1.00  0.00     0.048 C 
HETATM    5  C   UNL     1      52.835  38.223   8.051  1.00  0.00    -0.043 C 
HETATM    6  C   UNL     1      55.139  38.587   8.470  1.00  0.00     0.061 C 
HETATM    7  C   UNL     1      53.186  39.361   7.366  1.00  0.00    -0.043 C 
HETATM    8  C   UNL     1      50.754  39.151   7.237  1.00  0.00     0.113 C 
HETATM    9  C   UNL     1      54.624  39.725   7.629  1.00  0.00     0.048 C 
ENDROOT
BRANCH   6  10
HETATM   10  C   UNL     1      56.455  38.506   9.217  1.00  0.00     0.193 C 
BRANCH  10  11
HETATM   11  O   UNL     1      57.535  38.492   8.329  1.00  0.00    -0.361 OA
ATOM     12  HO  UNL     1      57.695  37.615   8.002  1.00  0.00     0.213 HD
ENDBRANCH  10  11
BRANCH  10  13
HETATM   13  O   UNL     1      56.384  37.295   9.912  1.00  0.00    -0.361 OA
ATOM     14  HO  UNL     1      55.945  36.639   9.384  1.00  0.00     0.213 HD
ENDBRANCH  10  13
BRANCH  10  15
HETATM   15  C   UNL     1      56.617  39.632  10.208  1.00  0.00     0.006 C 
HETATM   16  C   UNL     1      56.680  40.947   9.772  1.00  0.00     0.013 C 
HETATM   17  C   UNL     1      56.904  41.969  10.685  1.00  0.00     0.003 C 
HETATM   18  C   UNL     1      56.840  41.701  12.049  1.00  0.00     0.036 C 
HETATM   19  C   UNL     1      56.638  40.400  12.486  1.00  0.00     0.066 C 
HETATM   20  C   UNL     1      56.584  39.366  11.561  1.00  0.00     0.049 C 
BRANCH  19  21
HETATM   21  O   UNL     1      56.577  40.141  13.815  1.00  0.00    -0.361 OA
ATOM     22  HO  UNL     1      56.883  40.792  14.436  1.00  0.00     0.217 HD
ENDBRANCH  19  21
ENDBRANCH  10  15
ENDBRANCH   6  10
BRANCH   1  23
HETATM   23  O   UNL     1      50.853  36.780   7.869  1.00  0.00    -0.388 OA
ATOM     24  HO  UNL     1      50.740  36.570   6.949  1.00  0.00     0.210 HD
ENDBRANCH   1  23
BRANCH   3  25
HETATM   25  O   UNL     1      52.029  40.350   5.457  1.00  0.00    -0.388 OA
ATOM     26  HO  UNL     1      52.571  41.104   5.262  1.00  0.00     0.210 HD
ENDBRANCH   3  25
BRANCH   8  27
HETATM   27  O   UNL     1      50.068  38.627   6.099  1.00  0.00    -0.384 OA
ATOM     28  HO  UNL     1      50.559  38.711   5.290  1.00  0.00     0.210 HD
ENDBRANCH   8  27
TORSDOF 8
ENDMDL
MODEL 6
REMARK VINA RESULT:      -7.9      1.801      6.724
REMARK  8 active torsions:
REMARK  status: ('A' for Active; 'I' for Inactive)
REMARK    1  A    between atoms: C_1  and  O_8 
REMARK    2  A    between atoms: C_3  and  O_27 
REMARK    3  A    between atoms: O_5  and  C_11 
REMARK    4  A    between atoms: C_11  and  C_12 
REMARK    5  A    between atoms: C_11  and  O_18 
REMARK    6  A    between atoms: C_11  and  C_21 
REMARK    7  A    between atoms: O_13  and  C_23 
REMARK    8  A    between atoms: O_16  and  C_22 
ROOT
HETATM    1  C   UNL     1      57.725  39.819   8.146  1.00  0.00     0.184 C 
HETATM    2  C   UNL     1      58.387  40.393  10.436  1.00  0.00     0.052 C 
HETATM    3  C   UNL     1      56.900  38.437   9.938  1.00  0.00     0.184 C 
HETATM    4  C   UNL     1      55.285  39.704   6.921  1.00  0.00     0.048 C 
HETATM    5  C   UNL     1      56.397  39.222   7.806  1.00  0.00    -0.043 C 
HETATM    6  C   UNL     1      54.113  38.822   7.313  1.00  0.00     0.061 C 
HETATM    7  C   UNL     1      55.884  38.503   8.859  1.00  0.00    -0.043 C 
HETATM    8  C   UNL     1      58.133  39.225   9.491  1.00  0.00     0.113 C 
HETATM    9  C   UNL     1      54.409  38.259   8.678  1.00  0.00     0.048 C 
ENDROOT
BRANCH   6  10
HETATM   10  C   UNL     1      52.756  39.057   6.680  1.00  0.00     0.193 C 
BRANCH  10  11
HETATM   11  O   UNL     1      52.649  38.383   5.460  1.00  0.00    -0.361 OA
ATOM     12  HO  UNL     1      52.327  38.961   4.779  1.00  0.00     0.213 HD
ENDBRANCH  10  11
BRANCH  10  13
HETATM   13  O   UNL     1      52.705  40.439   6.476  1.00  0.00    -0.361 OA
ATOM     14  HO  UNL     1      52.122  40.643   5.753  1.00  0.00     0.213 HD
ENDBRANCH  10  13
BRANCH  10  15
HETATM   15  C   UNL     1      51.625  38.655   7.593  1.00  0.00     0.006 C 
HETATM   16  C   UNL     1      51.610  37.398   8.180  1.00  0.00     0.013 C 
HETATM   17  C   UNL     1      50.527  37.011   8.958  1.00  0.00     0.003 C 
HETATM   18  C   UNL     1      49.574  37.953   9.332  1.00  0.00     0.036 C 
HETATM   19  C   UNL     1      49.667  39.252   8.854  1.00  0.00     0.066 C 
HETATM   20  C   UNL     1      50.661  39.578   7.942  1.00  0.00     0.049 C 
BRANCH  19  21
HETATM   21  O   UNL     1      48.737  40.168   9.218  1.00  0.00    -0.361 OA
ATOM     22  HO  UNL     1      47.885  39.878   9.525  1.00  0.00     0.217 HD
ENDBRANCH  19  21
ENDBRANCH  10  15
ENDBRANCH   6  10
BRANCH   1  23
HETATM   23  O   UNL     1      58.719  39.690   7.152  1.00  0.00    -0.388 OA
ATOM     24  HO  UNL     1      59.614  39.660   7.472  1.00  0.00     0.210 HD
ENDBRANCH   1  23
BRANCH   3  25
HETATM   25  O   UNL     1      57.132  37.159  10.471  1.00  0.00    -0.388 OA
ATOM     26  HO  UNL     1      56.369  36.598  10.533  1.00  0.00     0.210 HD
ENDBRANCH   3  25
BRANCH   8  27
HETATM   27  O   UNL     1      59.282  38.380   9.416  1.00  0.00    -0.384 OA
ATOM     28  HO  UNL     1      60.022  38.785   8.980  1.00  0.00     0.210 HD
ENDBRANCH   8  27
TORSDOF 8
ENDMDL
MODEL 7
REMARK VINA RESULT:      -7.9      1.607      2.778
REMARK  8 active torsions:
REMARK  status: ('A' for Active; 'I' for Inactive)
REMARK    1  A    between atoms: C_1  and  O_8 
REMARK    2  A    between atoms: C_3  and  O_27 
REMARK    3  A    between atoms: O_5  and  C_11 
REMARK    4  A    between atoms: C_11  and  C_12 
REMARK    5  A    between atoms: C_11  and  O_18 
REMARK    6  A    between atoms: C_11  and  C_21 
REMARK    7  A    between atoms: O_13  and  C_23 
REMARK    8  A    between atoms: O_16  and  C_22 
ROOT
HETATM    1  C   UNL     1      51.676  38.144   8.163  1.00  0.00     0.184 C 
HETATM    2  C   UNL     1      49.919  39.846   8.337  1.00  0.00     0.052 C 
HETATM    3  C   UNL     1      51.777  40.026   6.662  1.00  0.00     0.184 C 
HETATM    4  C   UNL     1      54.382  38.267   8.514  1.00  0.00     0.048 C 
HETATM    5  C   UNL     1      53.086  38.464   7.785  1.00  0.00    -0.043 C 
HETATM    6  C   UNL     1      55.361  39.130   7.738  1.00  0.00     0.061 C 
HETATM    7  C   UNL     1      53.154  39.588   6.998  1.00  0.00    -0.043 C 
HETATM    8  C   UNL     1      50.788  39.080   7.347  1.00  0.00     0.113 C 
HETATM    9  C   UNL     1      54.555  40.139   6.963  1.00  0.00     0.048 C 
ENDROOT
BRANCH   6  10
HETATM   10  C   UNL     1      56.792  39.258   8.221  1.00  0.00     0.193 C 
BRANCH  10  11
HETATM   11  O   UNL     1      57.413  40.375   7.655  1.00  0.00    -0.361 OA
ATOM     12  HO  UNL     1      58.358  40.284   7.672  1.00  0.00     0.213 HD
ENDBRANCH  10  11
BRANCH  10  13
HETATM   13  O   UNL     1      57.412  38.085   7.780  1.00  0.00    -0.361 OA
ATOM     14  HO  UNL     1      58.310  38.052   8.088  1.00  0.00     0.213 HD
ENDBRANCH  10  13
BRANCH  10  15
HETATM   15  C   UNL     1      56.881  39.323   9.725  1.00  0.00     0.006 C 
HETATM   16  C   UNL     1      57.291  38.216  10.454  1.00  0.00     0.013 C 
HETATM   17  C   UNL     1      57.297  38.265  11.841  1.00  0.00     0.003 C 
HETATM   18  C   UNL     1      57.113  39.482  12.490  1.00  0.00     0.036 C 
HETATM   19  C   UNL     1      56.838  40.621  11.748  1.00  0.00     0.066 C 
HETATM   20  C   UNL     1      56.668  40.522  10.374  1.00  0.00     0.049 C 
BRANCH  19  21
HETATM   21  O   UNL     1      56.658  41.806  12.382  1.00  0.00    -0.361 OA
ATOM     22  HO  UNL     1      56.696  41.842  13.331  1.00  0.00     0.217 HD
ENDBRANCH  19  21
ENDBRANCH  10  15
ENDBRANCH   6  10
BRANCH   1  23
HETATM   23  O   UNL     1      51.311  36.786   8.049  1.00  0.00    -0.388 OA
ATOM     24  HO  UNL     1      50.376  36.615   8.022  1.00  0.00     0.210 HD
ENDBRANCH   1  23
BRANCH   3  25
HETATM   25  O   UNL     1      51.544  40.301   5.306  1.00  0.00    -0.388 OA
ATOM     26  HO  UNL     1      52.071  40.999   4.934  1.00  0.00     0.210 HD
ENDBRANCH   3  25
BRANCH   8  27
HETATM   27  O   UNL     1      49.978  38.402   6.385  1.00  0.00    -0.384 OA
ATOM     28  HO  UNL     1      50.417  37.668   5.972  1.00  0.00     0.210 HD
ENDBRANCH   8  27
TORSDOF 8
ENDMDL
MODEL 8
REMARK VINA RESULT:      -7.8      2.970      4.360
REMARK  8 active torsions:
REMARK  status: ('A' for Active; 'I' for Inactive)
REMARK    1  A    between atoms: C_1  and  O_8 
REMARK    2  A    between atoms: C_3  and  O_27 
REMARK    3  A    between atoms: O_5  and  C_11 
REMARK    4  A    between atoms: C_11  and  C_12 
REMARK    5  A    between atoms: C_11  and  O_18 
REMARK    6  A    between atoms: C_11  and  C_21 
REMARK    7  A    between atoms: O_13  and  C_23 
REMARK    8  A    between atoms: O_16  and  C_22 
ROOT
HETATM    1  C   UNL     1      54.108  39.848   6.587  1.00  0.00     0.184 C 
HETATM    2  C   UNL     1      52.359  38.149   6.330  1.00  0.00     0.052 C 
HETATM    3  C   UNL     1      53.722  38.340   8.425  1.00  0.00     0.184 C 
HETATM    4  C   UNL     1      56.805  39.653   6.979  1.00  0.00     0.048 C 
HETATM    5  C   UNL     1      55.358  39.619   7.374  1.00  0.00    -0.043 C 
HETATM    6  C   UNL     1      57.507  38.981   8.146  1.00  0.00     0.061 C 
HETATM    7  C   UNL     1      55.162  38.694   8.372  1.00  0.00    -0.043 C 
HETATM    8  C   UNL     1      52.993  39.113   7.325  1.00  0.00     0.113 C 
HETATM    9  C   UNL     1      56.477  38.165   8.882  1.00  0.00     0.048 C 
ENDROOT
BRANCH   6  10
HETATM   10  C   UNL     1      59.003  38.751   8.087  1.00  0.00     0.193 C 
BRANCH  10  11
HETATM   11  O   UNL     1      59.300  37.385   8.068  1.00  0.00    -0.361 OA
ATOM     12  HO  UNL     1      58.659  36.891   8.565  1.00  0.00     0.213 HD
ENDBRANCH  10  11
BRANCH  10  13
HETATM   13  O   UNL     1      59.490  39.335   9.260  1.00  0.00    -0.361 OA
ATOM     14  HO  UNL     1      60.386  39.625   9.136  1.00  0.00     0.213 HD
ENDBRANCH  10  13
BRANCH  10  15
HETATM   15  C   UNL     1      59.637  39.433   6.900  1.00  0.00     0.006 C 
HETATM   16  C   UNL     1      60.608  40.407   7.085  1.00  0.00     0.013 C 
HETATM   17  C   UNL     1      61.130  41.080   5.990  1.00  0.00     0.003 C 
HETATM   18  C   UNL     1      60.850  40.628   4.704  1.00  0.00     0.036 C 
HETATM   19  C   UNL     1      59.982  39.560   4.524  1.00  0.00     0.066 C 
HETATM   20  C   UNL     1      59.338  39.007   5.622  1.00  0.00     0.049 C 
BRANCH  19  21
HETATM   21  O   UNL     1      59.710  39.122   3.271  1.00  0.00    -0.361 OA
ATOM     22  HO  UNL     1      59.041  38.460   3.139  1.00  0.00     0.217 HD
ENDBRANCH  19  21
ENDBRANCH  10  15
ENDBRANCH   6  10
BRANCH   1  23
HETATM   23  O   UNL     1      53.803  41.198   6.312  1.00  0.00    -0.388 OA
ATOM     24  HO  UNL     1      54.032  41.816   6.997  1.00  0.00     0.210 HD
ENDBRANCH   1  23
BRANCH   3  25
HETATM   25  O   UNL     1      53.140  38.368   9.702  1.00  0.00    -0.388 OA
ATOM     26  HO  UNL     1      53.736  38.552  10.419  1.00  0.00     0.210 HD
ENDBRANCH   3  25
BRANCH   8  27
HETATM   27  O   UNL     1      52.006  39.984   7.879  1.00  0.00    -0.384 OA
ATOM     28  HO  UNL     1      52.375  40.718   8.357  1.00  0.00     0.210 HD
ENDBRANCH   8  27
TORSDOF 8
ENDMDL
MODEL 9
REMARK VINA RESULT:      -7.8      1.807      6.703
REMARK  8 active torsions:
REMARK  status: ('A' for Active; 'I' for Inactive)
REMARK    1  A    between atoms: C_1  and  O_8 
REMARK    2  A    between atoms: C_3  and  O_27 
REMARK    3  A    between atoms: O_5  and  C_11 
REMARK    4  A    between atoms: C_11  and  C_12 
REMARK    5  A    between atoms: C_11  and  O_18 
REMARK    6  A    between atoms: C_11  and  C_21 
REMARK    7  A    between atoms: O_13  and  C_23 
REMARK    8  A    between atoms: O_16  and  C_22 
ROOT
HETATM    1  C   UNL     1      57.523  39.819   8.126  1.00  0.00     0.184 C 
HETATM    2  C   UNL     1      58.166  40.425  10.414  1.00  0.00     0.052 C 
HETATM    3  C   UNL     1      56.672  38.470   9.931  1.00  0.00     0.184 C 
HETATM    4  C   UNL     1      55.095  39.701   6.879  1.00  0.00     0.048 C 
HETATM    5  C   UNL     1      56.195  39.226   7.782  1.00  0.00    -0.043 C 
HETATM    6  C   UNL     1      53.913  38.833   7.272  1.00  0.00     0.061 C 
HETATM    7  C   UNL     1      55.667  38.526   8.840  1.00  0.00    -0.043 C 
HETATM    8  C   UNL     1      57.914  39.243   9.485  1.00  0.00     0.113 C 
HETATM    9  C   UNL     1      54.192  38.289   8.648  1.00  0.00     0.048 C 
ENDROOT
BRANCH   6  10
HETATM   10  C   UNL     1      52.565  39.066   6.622  1.00  0.00     0.193 C 
BRANCH  10  11
HETATM   11  O   UNL     1      52.394  38.236   5.511  1.00  0.00    -0.361 OA
ATOM     12  HO  UNL     1      52.961  37.475   5.564  1.00  0.00     0.213 HD
ENDBRANCH  10  11
BRANCH  10  13
HETATM   13  O   UNL     1      52.600  40.406   6.223  1.00  0.00    -0.361 OA
ATOM     14  HO  UNL     1      52.912  40.952   6.936  1.00  0.00     0.213 HD
ENDBRANCH  10  13
BRANCH  10  15
HETATM   15  C   UNL     1      51.425  38.873   7.590  1.00  0.00     0.006 C 
HETATM   16  C   UNL     1      50.400  39.805   7.664  1.00  0.00     0.013 C 
HETATM   17  C   UNL     1      49.396  39.656   8.611  1.00  0.00     0.003 C 
HETATM   18  C   UNL     1      49.293  38.467   9.326  1.00  0.00     0.036 C 
HETATM   19  C   UNL     1      50.245  37.474   9.150  1.00  0.00     0.066 C 
HETATM   20  C   UNL     1      51.336  37.708   8.324  1.00  0.00     0.049 C 
BRANCH  19  21
HETATM   21  O   UNL     1      50.144  36.316   9.848  1.00  0.00    -0.361 OA
ATOM     22  HO  UNL     1      49.942  35.508   9.391  1.00  0.00     0.217 HD
ENDBRANCH  19  21
ENDBRANCH  10  15
ENDBRANCH   6  10
BRANCH   1  23
HETATM   23  O   UNL     1      58.526  39.669   7.145  1.00  0.00    -0.388 OA
ATOM     24  HO  UNL     1      58.870  38.789   7.044  1.00  0.00     0.210 HD
ENDBRANCH   1  23
BRANCH   3  25
HETATM   25  O   UNL     1      56.890  37.200  10.486  1.00  0.00    -0.388 OA
ATOM     26  HO  UNL     1      56.107  36.705  10.696  1.00  0.00     0.210 HD
ENDBRANCH   3  25
BRANCH   8  27
HETATM   27  O   UNL     1      59.058  38.390   9.434  1.00  0.00    -0.384 OA
ATOM     28  HO  UNL     1      58.866  37.487   9.658  1.00  0.00     0.210 HD
ENDBRANCH   8  27
TORSDOF 8
ENDMDL
