REMARK  2 active torsions:
REMARK  status: ('A' for Active; 'I' for Inactive)
REMARK    1  A    between atoms: O_11  and  C_18 
REMARK    2  A    between atoms: C_18  and  O_22 
ROOT
HETATM    1  C   UNL     1     -20.367  -1.116  -2.001  1.00  0.00     0.259 C 
HETATM    2  C   UNL     1     -21.171  -0.760  -6.007  1.00  0.00     0.007 C 
HETATM    3  C   UNL     1     -21.487   0.597  -5.889  1.00  0.00     0.044 C 
HETATM    4  N   UNL     1     -21.404   1.144  -4.637  1.00  0.00    -0.364 N 
ATOM      5  HN  UNL     1     -21.330   2.153  -4.508  1.00  0.00     0.165 HD
HETATM    6  C   UNL     1     -19.859  -1.134  -5.695  1.00  0.00     0.027 C 
HETATM    7  N   UNL     1     -21.651  -0.050 -10.450  1.00  0.00    -0.296 N 
ATOM      8  HN  UNL     1     -21.268  -0.104 -11.394  1.00  0.00     0.168 HD
HETATM    9  C   UNL     1     -21.423   0.298  -3.568  1.00  0.00     0.106 C 
HETATM   10  C   UNL     1     -18.994  -2.545  -3.988  1.00  0.00     0.030 C 
HETATM   11  N   UNL     1     -19.627  -2.228  -1.700  1.00  0.00    -0.328 N 
HETATM   12  C   UNL     1     -19.187  -2.448  -0.319  1.00  0.00     0.159 C 
HETATM   13  C   UNL     1     -19.735  -1.405  -4.333  1.00  0.00    -0.017 C 
HETATM   14  C   UNL     1     -22.427  -0.642  -8.374  1.00  0.00     0.114 C 
HETATM   15  C   UNL     1     -22.167  -1.678  -6.325  1.00  0.00     0.102 C 
HETATM   16  C   UNL     1     -21.872   1.162  -9.697  1.00  0.00     0.280 C 
HETATM   17  O   UNL     1     -20.827  -0.441  -1.062  1.00  0.00    -0.267 OA
HETATM   18  C   UNL     1     -21.775   1.347  -7.072  1.00  0.00     0.047 C 
HETATM   19  C   UNL     1     -20.464  -0.699  -3.359  1.00  0.00     0.058 C 
HETATM   20  C   UNL     1     -19.137  -3.042  -2.706  1.00  0.00     0.094 C 
HETATM   21  C   UNL     1     -22.040  -1.109  -9.687  1.00  0.00     0.273 C 
HETATM   22  C   UNL     1     -22.027   0.700  -8.251  1.00  0.00     0.060 C 
HETATM   23  O   UNL     1     -22.104  -2.266 -10.064  1.00  0.00    -0.266 OA
HETATM   24  N   UNL     1     -22.902  -1.467  -7.434  1.00  0.00    -0.360 N 
ATOM     25  HN  UNL     1     -23.804  -1.928  -7.555  1.00  0.00     0.165 HD
ENDROOT
BRANCH  16  26
HETATM   26  O   UNL     1     -20.899   2.080  -9.825  1.00  0.00    -0.345 OA
ATOM     27  HO  UNL     1     -21.044   2.877  -9.330  1.00  0.00     0.215 HD
ENDBRANCH  16  26
BRANCH  16  28
HETATM   28  O   UNL     1     -22.918   1.830 -10.230  1.00  0.00    -0.345 OA
ATOM     29  HO  UNL     1     -23.063   2.627  -9.735  1.00  0.00     0.215 HD
ENDBRANCH  16  28
TORSDOF 2
