MODEL 1
REMARK VINA RESULT:     -11.9      0.000      0.000
REMARK  2 active torsions:
REMARK  status: ('A' for Active; 'I' for Inactive)
REMARK    1  A    between atoms: C_1  and  C_13 
REMARK       I    between atoms: N_2  and  C_11 
REMARK       I    between atoms: N_6  and  C_11 
REMARK    2  A    between atoms: C_16  and  O_24 
ROOT
HETATM    1  C   UNL     1      11.552   1.388 -64.995  1.00  0.00    -0.042 C 
HETATM    2  N   UNL     1      11.765   0.554 -62.467  1.00  0.00    -0.260 N 
HETATM    3  C   UNL     1       9.460  -0.345 -65.181  1.00  0.00     0.101 A 
HETATM    4  C   UNL     1      12.955   0.868 -63.121  1.00  0.00     0.104 C 
HETATM    5  C   UNL     1      10.618   0.399 -64.561  1.00  0.00    -0.003 A 
HETATM    6  N   UNL     1      11.360   2.340 -60.997  1.00  0.00    -0.351 N 
ATOM      7  HN1 UNL     1      11.249   2.693 -60.047  1.00  0.00     0.160 HD
ATOM      8  HN2 UNL     1      11.217   2.950 -61.802  1.00  0.00     0.160 HD
HETATM    9  C   UNL     1      10.760  -0.055 -63.242  1.00  0.00     0.120 A 
HETATM   10  C   UNL     1       8.942  -1.273 -64.064  1.00  0.00     0.128 A 
HETATM   11  C   UNL     1      11.614   1.040 -61.160  1.00  0.00     0.325 C 
HETATM   12  C   UNL     1       6.601  -1.841 -63.433  1.00  0.00     0.122 C 
HETATM   13  N   UNL     1       9.867  -1.033 -62.948  1.00  0.00    -0.345 N 
ATOM     14  HN  UNL     1       9.841  -1.538 -62.062  1.00  0.00     0.164 HD
HETATM   15  C   UNL     1       6.778  -3.174 -63.791  1.00  0.00     0.080 C 
HETATM   16  C   UNL     1       7.902  -3.543 -64.531  1.00  0.00     0.038 C 
HETATM   17  C   UNL     1      12.863   1.262 -64.449  1.00  0.00     0.026 C 
HETATM   18  C   UNL     1       8.986  -2.696 -64.534  1.00  0.00     0.029 C 
HETATM   19  N   UNL     1       7.578  -0.937 -63.657  1.00  0.00    -0.367 N 
ATOM     20  HN  UNL     1       7.349   0.050 -63.534  1.00  0.00     0.161 HD
HETATM   21  O   UNL     1      11.787   0.297 -60.182  1.00  0.00    -0.247 OA
ENDROOT
BRANCH   1  22
HETATM   22  C   UNL     1      11.316   2.594 -65.879  1.00  0.00     0.028 C 
HETATM   23  C   UNL     1      10.241   2.465 -66.964  1.00  0.00     0.048 C 
HETATM   24  C   UNL     1      10.969   2.602 -68.275  1.00  0.00    -0.051 C 
HETATM   25  C   UNL     1      12.332   2.581 -68.056  1.00  0.00    -0.051 C 
HETATM   26  C   UNL     1      10.397   2.853 -69.518  1.00  0.00     0.007 C 
HETATM   27  C   UNL     1      13.292   2.177 -68.960  1.00  0.00     0.007 C 
HETATM   28  C   UNL     1      12.632   2.909 -66.617  1.00  0.00     0.048 C 
HETATM   29  C   UNL     1      13.370   2.505 -70.314  1.00  0.00     0.001 C 
HETATM   30  C   UNL     1      12.387   3.166 -70.995  1.00  0.00     0.000 C 
HETATM   31  C   UNL     1      11.058   3.246 -70.667  1.00  0.00     0.001 C 
ENDBRANCH   1  22
BRANCH  15  32
HETATM   32  O   UNL     1       5.846  -4.091 -63.466  1.00  0.00    -0.359 OA
ATOM     33  HO  UNL     1       6.093  -4.872 -62.984  1.00  0.00     0.217 HD
ENDBRANCH  15  32
TORSDOF 2
ENDMDL
MODEL 2
REMARK VINA RESULT:     -11.0      4.459      7.761
REMARK  2 active torsions:
REMARK  status: ('A' for Active; 'I' for Inactive)
REMARK    1  A    between atoms: C_1  and  C_13 
REMARK       I    between atoms: N_2  and  C_11 
REMARK       I    between atoms: N_6  and  C_11 
REMARK    2  A    between atoms: C_16  and  O_24 
ROOT
HETATM    1  C   UNL     1      10.786   1.018 -67.018  1.00  0.00    -0.042 C 
HETATM    2  N   UNL     1      11.998   3.349 -67.501  1.00  0.00    -0.260 N 
HETATM    3  C   UNL     1       9.882   1.183 -69.581  1.00  0.00     0.101 A 
HETATM    4  C   UNL     1      11.517   3.154 -66.208  1.00  0.00     0.104 C 
HETATM    5  C   UNL     1      10.608   1.580 -68.318  1.00  0.00    -0.003 A 
HETATM    6  N   UNL     1      14.326   3.086 -67.357  1.00  0.00    -0.351 N 
ATOM      7  HN1 UNL     1      15.265   3.474 -67.446  1.00  0.00     0.160 HD
ATOM      8  HN2 UNL     1      14.187   2.101 -67.133  1.00  0.00     0.160 HD
HETATM    9  C   UNL     1      11.221   2.820 -68.550  1.00  0.00     0.120 A 
HETATM   10  C   UNL     1      10.156   2.331 -70.572  1.00  0.00     0.128 A 
HETATM   11  C   UNL     1      13.289   3.882 -67.622  1.00  0.00     0.325 C 
HETATM   12  C   UNL     1      10.666   2.235 -73.007  1.00  0.00     0.122 C 
HETATM   13  N   UNL     1      10.943   3.294 -69.790  1.00  0.00    -0.345 N 
ATOM     14  HN  UNL     1      11.244   4.206 -70.136  1.00  0.00     0.164 HD
HETATM   15  C   UNL     1       9.481   2.889 -73.330  1.00  0.00     0.080 C 
HETATM   16  C   UNL     1       8.492   3.037 -72.357  1.00  0.00     0.038 C 
HETATM   17  C   UNL     1      10.846   1.965 -65.953  1.00  0.00     0.026 C 
HETATM   18  C   UNL     1       8.855   2.915 -71.036  1.00  0.00     0.029 C 
HETATM   19  N   UNL     1      10.930   1.886 -71.731  1.00  0.00    -0.367 N 
ATOM     20  HN  UNL     1      11.724   1.268 -71.561  1.00  0.00     0.161 HD
HETATM   21  O   UNL     1      13.459   5.081 -67.895  1.00  0.00    -0.247 OA
ENDROOT
BRANCH   1  22
HETATM   22  C   UNL     1      11.007  -0.428 -66.630  1.00  0.00     0.028 C 
HETATM   23  C   UNL     1      10.098  -1.474 -67.287  1.00  0.00     0.048 C 
HETATM   24  C   UNL     1       9.310  -2.089 -66.160  1.00  0.00    -0.051 C 
HETATM   25  C   UNL     1       9.518  -1.374 -64.999  1.00  0.00    -0.051 C 
HETATM   26  C   UNL     1       8.583  -3.275 -66.210  1.00  0.00     0.007 C 
HETATM   27  C   UNL     1       8.644  -1.281 -63.936  1.00  0.00     0.007 C 
HETATM   28  C   UNL     1      10.778  -0.556 -65.111  1.00  0.00     0.048 C 
HETATM   29  C   UNL     1       7.928  -2.318 -63.338  1.00  0.00     0.001 C 
HETATM   30  C   UNL     1       7.867  -3.588 -63.837  1.00  0.00     0.000 C 
HETATM   31  C   UNL     1       8.088  -3.984 -65.131  1.00  0.00     0.001 C 
ENDBRANCH   1  22
BRANCH  15  32
HETATM   32  O   UNL     1       9.273   3.333 -74.586  1.00  0.00    -0.359 OA
ATOM     33  HO  UNL     1       8.450   3.153 -75.025  1.00  0.00     0.217 HD
ENDBRANCH  15  32
TORSDOF 2
ENDMDL
MODEL 3
REMARK VINA RESULT:     -10.7      4.936      7.585
REMARK  2 active torsions:
REMARK  status: ('A' for Active; 'I' for Inactive)
REMARK    1  A    between atoms: C_1  and  C_13 
REMARK       I    between atoms: N_2  and  C_11 
REMARK       I    between atoms: N_6  and  C_11 
REMARK    2  A    between atoms: C_16  and  O_24 
ROOT
HETATM    1  C   UNL     1      11.031   1.312 -67.761  1.00  0.00    -0.042 C 
HETATM    2  N   UNL     1      11.916   2.787 -69.804  1.00  0.00    -0.260 N 
HETATM    3  C   UNL     1       9.190   0.342 -69.517  1.00  0.00     0.101 A 
HETATM    4  C   UNL     1      11.985   3.370 -68.540  1.00  0.00     0.104 C 
HETATM    5  C   UNL     1      10.347   1.166 -69.005  1.00  0.00    -0.003 A 
HETATM    6  N   UNL     1      14.118   2.175 -70.340  1.00  0.00    -0.351 N 
ATOM      7  HN1 UNL     1      14.940   2.269 -70.936  1.00  0.00     0.160 HD
ATOM      8  HN2 UNL     1      14.094   1.486 -69.587  1.00  0.00     0.160 HD
HETATM    9  C   UNL     1      10.799   1.970 -70.062  1.00  0.00     0.120 A 
HETATM   10  C   UNL     1       9.034   0.754 -70.994  1.00  0.00     0.128 A 
HETATM   11  C   UNL     1      13.046   2.917 -70.623  1.00  0.00     0.325 C 
HETATM   12  C   UNL     1       8.548  -0.654 -72.989  1.00  0.00     0.122 C 
HETATM   13  N   UNL     1      10.049   1.800 -71.179  1.00  0.00    -0.345 N 
ATOM     14  HN  UNL     1      10.174   2.333 -72.040  1.00  0.00     0.164 HD
HETATM   15  C   UNL     1       7.320  -0.031 -73.190  1.00  0.00     0.080 C 
HETATM   16  C   UNL     1       6.791   0.781 -72.186  1.00  0.00     0.038 C 
HETATM   17  C   UNL     1      11.488   2.632 -67.474  1.00  0.00     0.026 C 
HETATM   18  C   UNL     1       7.645   1.270 -71.226  1.00  0.00     0.029 C 
HETATM   19  N   UNL     1       9.297  -0.358 -71.907  1.00  0.00    -0.367 N 
ATOM     20  HN  UNL     1      10.104  -0.951 -71.711  1.00  0.00     0.161 HD
HETATM   21  O   UNL     1      13.075   3.754 -71.539  1.00  0.00    -0.247 OA
ENDROOT
BRANCH   1  22
HETATM   22  C   UNL     1      11.411   0.247 -66.755  1.00  0.00     0.028 C 
HETATM   23  C   UNL     1      10.266  -0.445 -66.005  1.00  0.00     0.048 C 
HETATM   24  C   UNL     1      10.459  -0.089 -64.554  1.00  0.00    -0.051 C 
HETATM   25  C   UNL     1      11.438   0.877 -64.436  1.00  0.00    -0.051 C 
HETATM   26  C   UNL     1       9.863  -0.712 -63.462  1.00  0.00     0.007 C 
HETATM   27  C   UNL     1      11.549   1.800 -63.416  1.00  0.00     0.007 C 
HETATM   28  C   UNL     1      12.294   0.903 -65.675  1.00  0.00     0.048 C 
HETATM   29  C   UNL     1      11.413   1.566 -62.048  1.00  0.00     0.001 C 
HETATM   30  C   UNL     1      10.981   0.385 -61.516  1.00  0.00     0.000 C 
HETATM   31  C   UNL     1      10.230  -0.580 -62.136  1.00  0.00     0.001 C 
ENDBRANCH   1  22
BRANCH  15  32
HETATM   32  O   UNL     1       6.628  -0.247 -74.326  1.00  0.00    -0.359 OA
ATOM     33  HO  UNL     1       6.707   0.357 -75.054  1.00  0.00     0.217 HD
ENDBRANCH  15  32
TORSDOF 2
ENDMDL
MODEL 4
REMARK VINA RESULT:     -10.3      4.263      7.845
REMARK  2 active torsions:
REMARK  status: ('A' for Active; 'I' for Inactive)
REMARK    1  A    between atoms: C_1  and  C_13 
REMARK       I    between atoms: N_2  and  C_11 
REMARK       I    between atoms: N_6  and  C_11 
REMARK    2  A    between atoms: C_16  and  O_24 
ROOT
HETATM    1  C   UNL     1      11.771   1.115 -67.546  1.00  0.00    -0.042 C 
HETATM    2  N   UNL     1      10.407  -0.738 -68.903  1.00  0.00    -0.260 N 
HETATM    3  C   UNL     1      11.025   2.829 -69.527  1.00  0.00     0.101 A 
HETATM    4  C   UNL     1      11.553  -1.171 -68.239  1.00  0.00     0.104 C 
HETATM    5  C   UNL     1      11.144   1.534 -68.758  1.00  0.00    -0.003 A 
HETATM    6  N   UNL     1       8.601  -1.506 -67.615  1.00  0.00    -0.351 N 
ATOM      7  HN1 UNL     1       7.767  -2.086 -67.521  1.00  0.00     0.160 HD
ATOM      8  HN2 UNL     1       8.885  -0.874 -66.866  1.00  0.00     0.160 HD
HETATM    9  C   UNL     1      10.458   0.546 -69.479  1.00  0.00     0.120 A 
HETATM   10  C   UNL     1      10.182   2.476 -70.768  1.00  0.00     0.128 A 
HETATM   11  C   UNL     1       9.262  -1.536 -68.774  1.00  0.00     0.325 C 
HETATM   12  C   UNL     1       8.366   3.774 -71.871  1.00  0.00     0.122 C 
HETATM   13  N   UNL     1       9.950   1.031 -70.640  1.00  0.00    -0.345 N 
ATOM     14  HN  UNL     1       9.468   0.462 -71.336  1.00  0.00     0.164 HD
HETATM   15  C   UNL     1       9.120   3.935 -73.030  1.00  0.00     0.080 C 
HETATM   16  C   UNL     1      10.481   3.632 -73.010  1.00  0.00     0.038 C 
HETATM   17  C   UNL     1      12.296  -0.211 -67.565  1.00  0.00     0.026 C 
HETATM   18  C   UNL     1      10.952   2.814 -72.009  1.00  0.00     0.029 C 
HETATM   19  N   UNL     1       8.901   3.182 -70.783  1.00  0.00    -0.367 N 
ATOM     20  HN  UNL     1       8.377   3.231 -69.910  1.00  0.00     0.161 HD
HETATM   21  O   UNL     1       8.916  -2.305 -69.684  1.00  0.00    -0.247 OA
ENDROOT
BRANCH   1  22
HETATM   22  C   UNL     1      11.874   1.849 -66.227  1.00  0.00     0.028 C 
HETATM   23  C   UNL     1      13.019   1.444 -65.290  1.00  0.00     0.048 C 
HETATM   24  C   UNL     1      12.356   0.891 -64.056  1.00  0.00    -0.051 C 
HETATM   25  C   UNL     1      11.002   0.746 -64.279  1.00  0.00    -0.051 C 
HETATM   26  C   UNL     1      12.956   0.675 -62.819  1.00  0.00     0.007 C 
HETATM   27  C   UNL     1      10.167  -0.153 -63.648  1.00  0.00     0.007 C 
HETATM   28  C   UNL     1      10.572   1.604 -65.440  1.00  0.00     0.048 C 
HETATM   29  C   UNL     1      10.120  -0.450 -62.286  1.00  0.00     0.001 C 
HETATM   30  C   UNL     1      11.031   0.005 -61.376  1.00  0.00     0.000 C 
HETATM   31  C   UNL     1      12.312   0.429 -61.622  1.00  0.00     0.001 C 
ENDBRANCH   1  22
BRANCH  15  32
HETATM   32  O   UNL     1       8.548   4.425 -74.147  1.00  0.00    -0.359 OA
ATOM     33  HO  UNL     1       7.922   3.899 -74.632  1.00  0.00     0.217 HD
ENDBRANCH  15  32
TORSDOF 2
ENDMDL
MODEL 5
REMARK VINA RESULT:     -10.1      4.796      8.756
REMARK  2 active torsions:
REMARK  status: ('A' for Active; 'I' for Inactive)
REMARK    1  A    between atoms: C_1  and  C_13 
REMARK       I    between atoms: N_2  and  C_11 
REMARK       I    between atoms: N_6  and  C_11 
REMARK    2  A    between atoms: C_16  and  O_24 
ROOT
HETATM    1  C   UNL     1      12.354   1.976 -67.499  1.00  0.00    -0.042 C 
HETATM    2  N   UNL     1      11.019   0.980 -69.588  1.00  0.00    -0.260 N 
HETATM    3  C   UNL     1      13.000   4.043 -69.149  1.00  0.00     0.101 A 
HETATM    4  C   UNL     1      11.630   0.057 -68.743  1.00  0.00     0.104 C 
HETATM    5  C   UNL     1      12.385   2.737 -68.706  1.00  0.00    -0.003 A 
HETATM    6  N   UNL     1       8.727   0.871 -69.096  1.00  0.00    -0.351 N 
ATOM      7  HN1 UNL     1       7.770   0.669 -69.387  1.00  0.00     0.160 HD
ATOM      8  HN2 UNL     1       8.922   1.254 -68.170  1.00  0.00     0.160 HD
HETATM    9  C   UNL     1      11.709   2.189 -69.806  1.00  0.00     0.120 A 
HETATM   10  C   UNL     1      12.590   4.192 -70.628  1.00  0.00     0.128 A 
HETATM   11  C   UNL     1       9.705   0.701 -69.987  1.00  0.00     0.325 C 
HETATM   12  C   UNL     1      11.850   6.218 -71.871  1.00  0.00     0.122 C 
HETATM   13  N   UNL     1      11.849   2.957 -70.916  1.00  0.00    -0.345 N 
ATOM     14  HN  UNL     1      11.484   2.707 -71.835  1.00  0.00     0.164 HD
HETATM   15  C   UNL     1      12.975   6.185 -72.690  1.00  0.00     0.080 C 
HETATM   16  C   UNL     1      14.047   5.360 -72.350  1.00  0.00     0.038 C 
HETATM   17  C   UNL     1      12.364   0.561 -67.677  1.00  0.00     0.026 C 
HETATM   18  C   UNL     1      13.819   4.321 -71.478  1.00  0.00     0.029 C 
HETATM   19  N   UNL     1      11.724   5.351 -70.846  1.00  0.00    -0.367 N 
ATOM     20  HN  UNL     1      10.973   5.513 -70.176  1.00  0.00     0.161 HD
HETATM   21  O   UNL     1       9.467   0.237 -71.113  1.00  0.00    -0.247 OA
ENDROOT
BRANCH   1  22
HETATM   22  C   UNL     1      12.223   2.462 -66.072  1.00  0.00     0.028 C 
HETATM   23  C   UNL     1      13.222   1.907 -65.050  1.00  0.00     0.048 C 
HETATM   24  C   UNL     1      12.396   1.136 -64.055  1.00  0.00    -0.051 C 
HETATM   25  C   UNL     1      11.099   1.022 -64.512  1.00  0.00    -0.051 C 
HETATM   26  C   UNL     1      12.804   0.707 -62.795  1.00  0.00     0.007 C 
HETATM   27  C   UNL     1      10.211   0.017 -64.191  1.00  0.00     0.007 C 
HETATM   28  C   UNL     1      10.824   2.069 -65.559  1.00  0.00     0.048 C 
HETATM   29  C   UNL     1       9.964  -0.520 -62.927  1.00  0.00     0.001 C 
HETATM   30  C   UNL     1      10.704  -0.227 -61.818  1.00  0.00     0.000 C 
HETATM   31  C   UNL     1      11.990   0.246 -61.777  1.00  0.00     0.001 C 
ENDBRANCH   1  22
BRANCH  15  32
HETATM   32  O   UNL     1      13.045   6.978 -73.778  1.00  0.00    -0.359 OA
ATOM     33  HO  UNL     1      13.883   7.322 -74.065  1.00  0.00     0.217 HD
ENDBRANCH  15  32
TORSDOF 2
ENDMDL
MODEL 6
REMARK VINA RESULT:      -9.7      5.471      8.225
REMARK  2 active torsions:
REMARK  status: ('A' for Active; 'I' for Inactive)
REMARK    1  A    between atoms: C_1  and  C_13 
REMARK       I    between atoms: N_2  and  C_11 
REMARK       I    between atoms: N_6  and  C_11 
REMARK    2  A    between atoms: C_16  and  O_24 
ROOT
HETATM    1  C   UNL     1      11.071   2.505 -69.919  1.00  0.00    -0.042 C 
HETATM    2  N   UNL     1      10.290   3.268 -72.357  1.00  0.00    -0.260 N 
HETATM    3  C   UNL     1       8.576   3.235 -69.107  1.00  0.00     0.101 A 
HETATM    4  C   UNL     1      11.627   3.491 -72.034  1.00  0.00     0.104 C 
HETATM    5  C   UNL     1       9.742   3.010 -70.041  1.00  0.00    -0.003 A 
HETATM    6  N   UNL     1      10.287   1.425 -73.810  1.00  0.00    -0.351 N 
ATOM      7  HN1 UNL     1      10.095   1.026 -74.729  1.00  0.00     0.160 HD
ATOM      8  HN2 UNL     1      10.610   0.837 -73.042  1.00  0.00     0.160 HD
HETATM    9  C   UNL     1       9.353   3.438 -71.319  1.00  0.00     0.120 A 
HETATM   10  C   UNL     1       7.467   3.832 -69.995  1.00  0.00     0.128 A 
HETATM   11  C   UNL     1      10.027   2.720 -73.619  1.00  0.00     0.325 C 
HETATM   12  C   UNL     1       5.020   3.370 -70.000  1.00  0.00     0.122 C 
HETATM   13  N   UNL     1       8.098   3.954 -71.317  1.00  0.00    -0.345 N 
ATOM     14  HN  UNL     1       7.650   4.374 -72.131  1.00  0.00     0.164 HD
HETATM   15  C   UNL     1       4.726   4.670 -69.598  1.00  0.00     0.080 C 
HETATM   16  C   UNL     1       5.751   5.491 -69.127  1.00  0.00     0.038 C 
HETATM   17  C   UNL     1      12.037   3.139 -70.755  1.00  0.00     0.026 C 
HETATM   18  C   UNL     1       7.048   5.163 -69.447  1.00  0.00     0.029 C 
HETATM   19  N   UNL     1       6.301   2.953 -70.085  1.00  0.00    -0.367 N 
ATOM     20  HN  UNL     1       6.468   1.956 -70.221  1.00  0.00     0.161 HD
HETATM   21  O   UNL     1       9.634   3.435 -74.554  1.00  0.00    -0.247 OA
ENDROOT
BRANCH   1  22
HETATM   22  C   UNL     1      11.572   1.339 -69.095  1.00  0.00     0.028 C 
HETATM   23  C   UNL     1      10.519   0.382 -68.525  1.00  0.00     0.048 C 
HETATM   24  C   UNL     1      10.632   0.500 -67.028  1.00  0.00    -0.051 C 
HETATM   25  C   UNL     1      11.466   1.550 -66.704  1.00  0.00    -0.051 C 
HETATM   26  C   UNL     1      10.104  -0.378 -66.086  1.00  0.00     0.007 C 
HETATM   27  C   UNL     1      11.429   2.286 -65.537  1.00  0.00     0.007 C 
HETATM   28  C   UNL     1      12.336   1.905 -67.881  1.00  0.00     0.048 C 
HETATM   29  C   UNL     1      11.299   1.800 -64.236  1.00  0.00     0.001 C 
HETATM   30  C   UNL     1      11.022   0.497 -63.934  1.00  0.00     0.000 C 
HETATM   31  C   UNL     1      10.422  -0.435 -64.742  1.00  0.00     0.001 C 
ENDBRANCH   1  22
BRANCH  15  32
HETATM   32  O   UNL     1       3.454   5.114 -69.622  1.00  0.00    -0.359 OA
ATOM     33  HO  UNL     1       2.803   4.669 -70.152  1.00  0.00     0.217 HD
ENDBRANCH  15  32
TORSDOF 2
ENDMDL
MODEL 7
REMARK VINA RESULT:      -9.6      4.536      7.514
REMARK  2 active torsions:
REMARK  status: ('A' for Active; 'I' for Inactive)
REMARK    1  A    between atoms: C_1  and  C_13 
REMARK       I    between atoms: N_2  and  C_11 
REMARK       I    between atoms: N_6  and  C_11 
REMARK    2  A    between atoms: C_16  and  O_24 
ROOT
HETATM    1  C   UNL     1      11.026   0.159 -68.264  1.00  0.00    -0.042 C 
HETATM    2  N   UNL     1      10.261  -2.288 -69.015  1.00  0.00    -0.260 N 
HETATM    3  C   UNL     1       9.525   1.053 -70.354  1.00  0.00     0.101 A 
HETATM    4  C   UNL     1      11.549  -2.170 -68.496  1.00  0.00     0.104 C 
HETATM    5  C   UNL     1      10.168   0.072 -69.403  1.00  0.00    -0.003 A 
HETATM    6  N   UNL     1       8.982  -3.283 -67.316  1.00  0.00    -0.351 N 
ATOM      7  HN1 UNL     1       8.418  -4.063 -66.978  1.00  0.00     0.160 HD
ATOM      8  HN2 UNL     1       9.104  -2.442 -66.752  1.00  0.00     0.160 HD
HETATM    9  C   UNL     1       9.800  -1.219 -69.807  1.00  0.00     0.120 A 
HETATM   10  C   UNL     1       8.734   0.180 -71.347  1.00  0.00     0.128 A 
HETATM   11  C   UNL     1       9.486  -3.360 -68.549  1.00  0.00     0.325 C 
HETATM   12  C   UNL     1       6.474   0.545 -72.326  1.00  0.00     0.122 C 
HETATM   13  N   UNL     1       9.036  -1.196 -70.928  1.00  0.00    -0.345 N 
ATOM     14  HN  UNL     1       8.713  -2.030 -71.419  1.00  0.00     0.164 HD
HETATM   15  C   UNL     1       6.998   0.674 -73.609  1.00  0.00     0.080 C 
HETATM   16  C   UNL     1       8.374   0.836 -73.774  1.00  0.00     0.038 C 
HETATM   17  C   UNL     1      11.976  -0.897 -68.142  1.00  0.00     0.026 C 
HETATM   18  C   UNL     1       9.203   0.458 -72.744  1.00  0.00     0.029 C 
HETATM   19  N   UNL     1       7.293   0.416 -71.262  1.00  0.00    -0.367 N 
ATOM     20  HN  UNL     1       6.878   0.489 -70.333  1.00  0.00     0.161 HD
HETATM   21  O   UNL     1       9.338  -4.382 -69.236  1.00  0.00    -0.247 OA
ENDROOT
BRANCH   1  22
HETATM   22  C   UNL     1      11.004   1.164 -67.133  1.00  0.00     0.028 C 
HETATM   23  C   UNL     1      12.254   1.248 -66.249  1.00  0.00     0.048 C 
HETATM   24  C   UNL     1      11.804   0.836 -64.872  1.00  0.00    -0.051 C 
HETATM   25  C   UNL     1      10.519   0.336 -64.930  1.00  0.00    -0.051 C 
HETATM   26  C   UNL     1      12.494   1.037 -63.680  1.00  0.00     0.007 C 
HETATM   27  C   UNL     1       9.961  -0.574 -64.056  1.00  0.00     0.007 C 
HETATM   28  C   UNL     1       9.839   0.799 -66.192  1.00  0.00     0.048 C 
HETATM   29  C   UNL     1      10.051  -0.573 -62.665  1.00  0.00     0.001 C 
HETATM   30  C   UNL     1      10.861   0.267 -61.954  1.00  0.00     0.000 C 
HETATM   31  C   UNL     1      11.984   0.914 -62.401  1.00  0.00     0.001 C 
ENDBRANCH   1  22
BRANCH  15  32
HETATM   32  O   UNL     1       6.177   0.691 -74.678  1.00  0.00    -0.359 OA
ATOM     33  HO  UNL     1       6.289   1.348 -75.355  1.00  0.00     0.217 HD
ENDBRANCH  15  32
TORSDOF 2
ENDMDL
MODEL 8
REMARK VINA RESULT:      -9.3      5.380      7.662
REMARK  2 active torsions:
REMARK  status: ('A' for Active; 'I' for Inactive)
REMARK    1  A    between atoms: C_1  and  C_13 
REMARK       I    between atoms: N_2  and  C_11 
REMARK       I    between atoms: N_6  and  C_11 
REMARK    2  A    between atoms: C_16  and  O_24 
ROOT
HETATM    1  C   UNL     1       9.574   1.175 -68.316  1.00  0.00    -0.042 C 
HETATM    2  N   UNL     1       9.778   2.603 -70.563  1.00  0.00    -0.260 N 
HETATM    3  C   UNL     1       7.384   0.040 -69.471  1.00  0.00     0.101 A 
HETATM    4  C   UNL     1      10.154   3.242 -69.384  1.00  0.00     0.104 C 
HETATM    5  C   UNL     1       8.586   0.941 -69.320  1.00  0.00    -0.003 A 
HETATM    6  N   UNL     1      11.783   2.078 -71.666  1.00  0.00    -0.351 N 
ATOM      7  HN1 UNL     1      12.404   2.187 -72.468  1.00  0.00     0.160 HD
ATOM      8  HN2 UNL     1      12.007   1.422 -70.917  1.00  0.00     0.160 HD
HETATM    9  C   UNL     1       8.684   1.720 -70.482  1.00  0.00     0.120 A 
HETATM   10  C   UNL     1       6.807   0.379 -70.859  1.00  0.00     0.128 A 
HETATM   11  C   UNL     1      10.632   2.753 -71.665  1.00  0.00     0.325 C 
HETATM   12  C   UNL     1       5.881  -1.136 -72.604  1.00  0.00     0.122 C 
HETATM   13  N   UNL     1       7.669   1.466 -71.345  1.00  0.00    -0.345 N 
ATOM     14  HN  UNL     1       7.522   1.966 -72.222  1.00  0.00     0.164 HD
HETATM   15  C   UNL     1       4.610  -0.583 -72.477  1.00  0.00     0.080 C 
HETATM   16  C   UNL     1       4.327   0.243 -71.390  1.00  0.00     0.038 C 
HETATM   17  C   UNL     1      10.012   2.527 -68.202  1.00  0.00     0.026 C 
HETATM   18  C   UNL     1       5.380   0.815 -70.715  1.00  0.00     0.029 C 
HETATM   19  N   UNL     1       6.878  -0.757 -71.778  1.00  0.00    -0.367 N 
ATOM     20  HN  UNL     1       7.741  -1.299 -71.795  1.00  0.00     0.161 HD
HETATM   21  O   UNL     1      10.360   3.550 -72.576  1.00  0.00    -0.247 OA
ENDROOT
BRANCH   1  22
HETATM   22  C   UNL     1      10.276   0.174 -67.423  1.00  0.00     0.028 C 
HETATM   23  C   UNL     1       9.424  -0.537 -66.365  1.00  0.00     0.048 C 
HETATM   24  C   UNL     1       9.988  -0.109 -65.036  1.00  0.00    -0.051 C 
HETATM   25  C   UNL     1      10.903   0.907 -65.223  1.00  0.00    -0.051 C 
HETATM   26  C   UNL     1       9.752  -0.710 -63.804  1.00  0.00     0.007 C 
HETATM   27  C   UNL     1      11.238   1.877 -64.301  1.00  0.00     0.007 C 
HETATM   28  C   UNL     1      11.383   0.918 -66.651  1.00  0.00     0.048 C 
HETATM   29  C   UNL     1      11.498   1.699 -62.943  1.00  0.00     0.001 C 
HETATM   30  C   UNL     1      11.297   0.523 -62.278  1.00  0.00     0.000 C 
HETATM   31  C   UNL     1      10.461  -0.503 -62.636  1.00  0.00     0.001 C 
ENDBRANCH   1  22
BRANCH  15  32
HETATM   32  O   UNL     1       3.649  -0.883 -73.373  1.00  0.00    -0.359 OA
ATOM     33  HO  UNL     1       3.771  -1.603 -73.981  1.00  0.00     0.217 HD
ENDBRANCH  15  32
TORSDOF 2
ENDMDL
MODEL 9
REMARK VINA RESULT:      -9.3      4.923      7.653
REMARK  2 active torsions:
REMARK  status: ('A' for Active; 'I' for Inactive)
REMARK    1  A    between atoms: C_1  and  C_13 
REMARK       I    between atoms: N_2  and  C_11 
REMARK       I    between atoms: N_6  and  C_11 
REMARK    2  A    between atoms: C_16  and  O_24 
ROOT
HETATM    1  C   UNL     1      10.238   2.455 -71.686  1.00  0.00    -0.042 C 
HETATM    2  N   UNL     1      12.439   3.910 -71.269  1.00  0.00    -0.260 N 
HETATM    3  C   UNL     1      10.480   1.704 -69.080  1.00  0.00     0.101 A 
HETATM    4  C   UNL     1      12.297   3.346 -72.535  1.00  0.00     0.104 C 
HETATM    5  C   UNL     1      10.810   2.399 -70.379  1.00  0.00    -0.003 A 
HETATM    6  N   UNL     1      11.953   6.191 -71.532  1.00  0.00    -0.351 N 
ATOM      7  HN1 UNL     1      12.248   7.167 -71.492  1.00  0.00     0.160 HD
ATOM      8  HN2 UNL     1      10.987   5.946 -71.748  1.00  0.00     0.160 HD
HETATM    9  C   UNL     1      11.983   3.141 -70.180  1.00  0.00     0.120 A 
HETATM   10  C   UNL     1      11.592   2.138 -68.106  1.00  0.00     0.128 A 
HETATM   11  C   UNL     1      12.845   5.251 -71.214  1.00  0.00     0.325 C 
HETATM   12  C   UNL     1      11.436   2.761 -65.700  1.00  0.00     0.122 C 
HETATM   13  N   UNL     1      12.477   2.974 -68.928  1.00  0.00    -0.345 N 
ATOM     14  HN  UNL     1      13.354   3.379 -68.599  1.00  0.00     0.164 HD
HETATM   15  C   UNL     1      12.200   1.663 -65.317  1.00  0.00     0.080 C 
HETATM   16  C   UNL     1      12.447   0.645 -66.237  1.00  0.00     0.038 C 
HETATM   17  C   UNL     1      11.179   2.552 -72.753  1.00  0.00     0.026 C 
HETATM   18  C   UNL     1      12.296   0.925 -67.575  1.00  0.00     0.029 C 
HETATM   19  N   UNL     1      11.069   2.924 -66.988  1.00  0.00    -0.367 N 
ATOM     20  HN  UNL     1      10.378   3.645 -67.197  1.00  0.00     0.161 HD
HETATM   21  O   UNL     1      14.020   5.549 -70.952  1.00  0.00    -0.247 OA
ENDROOT
BRANCH   1  22
HETATM   22  C   UNL     1       8.779   2.515 -72.084  1.00  0.00     0.028 C 
HETATM   23  C   UNL     1       7.846   3.346 -71.195  1.00  0.00     0.048 C 
HETATM   24  C   UNL     1       6.859   2.367 -70.617  1.00  0.00    -0.051 C 
HETATM   25  C   UNL     1       7.255   1.078 -70.907  1.00  0.00    -0.051 C 
HETATM   26  C   UNL     1       5.651   2.677 -69.999  1.00  0.00     0.007 C 
HETATM   27  C   UNL     1       6.951  -0.049 -70.172  1.00  0.00     0.007 C 
HETATM   28  C   UNL     1       8.220   1.079 -72.064  1.00  0.00     0.048 C 
HETATM   29  C   UNL     1       5.712  -0.398 -69.635  1.00  0.00     0.001 C 
HETATM   30  C   UNL     1       4.626   0.430 -69.625  1.00  0.00     0.000 C 
HETATM   31  C   UNL     1       4.623   1.799 -69.712  1.00  0.00     0.001 C 
ENDBRANCH   1  22
BRANCH  15  32
HETATM   32  O   UNL     1      12.657   1.564 -64.053  1.00  0.00    -0.359 OA
ATOM     33  HO  UNL     1      12.316   2.137 -63.376  1.00  0.00     0.217 HD
ENDBRANCH  15  32
TORSDOF 2
ENDMDL
