MODEL 1
REMARK VINA RESULT:      -6.2      0.000      0.000
REMARK  2 active torsions:
REMARK  status: ('A' for Active; 'I' for Inactive)
REMARK    1  A    between atoms: C_3  and  O_4 
REMARK    2  A    between atoms: C_6  and  O_7 
ROOT
HETATM    1  C   UNL     1      -5.713  15.203 -17.974  1.00  0.00     0.051 C 
HETATM    2  C   UNL     1      -2.389  14.816 -15.760  1.00  0.00     0.036 C 
HETATM    3  C   UNL     1      -2.364  15.866 -16.672  1.00  0.00     0.066 C 
HETATM    4  C   UNL     1      -3.665  13.825 -18.241  1.00  0.00     0.071 C 
HETATM    5  C   UNL     1      -2.705  13.507 -16.046  1.00  0.00     0.005 C 
HETATM    6  C   UNL     1      -4.246  15.064 -17.877  1.00  0.00    -0.026 C 
HETATM    7  C   UNL     1      -2.970  13.058 -17.330  1.00  0.00     0.037 C 
HETATM    8  C   UNL     1      -3.410  16.118 -17.542  1.00  0.00     0.046 C 
ENDROOT
BRANCH   3   9
HETATM    9  O   UNL     1      -1.229  16.614 -16.737  1.00  0.00    -0.361 OA
ATOM     10  HO  UNL     1      -1.135  17.204 -17.475  1.00  0.00     0.217 HD
ENDBRANCH   3   9
BRANCH   4  11
HETATM   11  O   UNL     1      -3.683  13.473 -19.550  1.00  0.00    -0.360 OA
ATOM     12  HO  UNL     1      -3.384  14.110 -20.189  1.00  0.00     0.217 HD
ENDBRANCH   4  11
TORSDOF 2
ENDMDL
MODEL 2
REMARK VINA RESULT:      -6.2      1.410      1.574
REMARK  2 active torsions:
REMARK  status: ('A' for Active; 'I' for Inactive)
REMARK    1  A    between atoms: C_3  and  O_4 
REMARK    2  A    between atoms: C_6  and  O_7 
ROOT
HETATM    1  C   UNL     1      -5.904  13.776 -18.323  1.00  0.00     0.051 C 
HETATM    2  C   UNL     1      -2.673  14.859 -16.205  1.00  0.00     0.036 C 
HETATM    3  C   UNL     1      -2.525  14.956 -17.584  1.00  0.00     0.066 C 
HETATM    4  C   UNL     1      -4.004  12.489 -17.376  1.00  0.00     0.071 C 
HETATM    5  C   UNL     1      -3.117  13.752 -15.516  1.00  0.00     0.005 C 
HETATM    6  C   UNL     1      -4.461  13.656 -18.034  1.00  0.00    -0.026 C 
HETATM    7  C   UNL     1      -3.406  12.546 -16.135  1.00  0.00     0.037 C 
HETATM    8  C   UNL     1      -3.525  14.585 -18.465  1.00  0.00     0.046 C 
ENDROOT
BRANCH   3   9
HETATM    9  O   UNL     1      -1.319  15.369 -18.059  1.00  0.00    -0.361 OA
ATOM     10  HO  UNL     1      -1.108  15.161 -18.961  1.00  0.00     0.217 HD
ENDBRANCH   3   9
BRANCH   4  11
HETATM   11  O   UNL     1      -4.037  11.317 -18.059  1.00  0.00    -0.360 OA
ATOM     12  HO  UNL     1      -4.265  10.528 -17.582  1.00  0.00     0.217 HD
ENDBRANCH   4  11
TORSDOF 2
ENDMDL
MODEL 3
REMARK VINA RESULT:      -6.0      0.778      3.692
REMARK  2 active torsions:
REMARK  status: ('A' for Active; 'I' for Inactive)
REMARK    1  A    between atoms: C_3  and  O_4 
REMARK    2  A    between atoms: C_6  and  O_7 
ROOT
HETATM    1  C   UNL     1      -1.984  14.512 -15.373  1.00  0.00     0.051 C 
HETATM    2  C   UNL     1      -4.953  14.810 -18.055  1.00  0.00     0.036 C 
HETATM    3  C   UNL     1      -3.869  14.043 -18.468  1.00  0.00     0.066 C 
HETATM    4  C   UNL     1      -2.514  16.200 -17.114  1.00  0.00     0.071 C 
HETATM    5  C   UNL     1      -4.890  16.087 -17.544  1.00  0.00     0.005 C 
HETATM    6  C   UNL     1      -2.454  14.837 -16.734  1.00  0.00    -0.026 C 
HETATM    7  C   UNL     1      -3.708  16.804 -17.450  1.00  0.00     0.037 C 
HETATM    8  C   UNL     1      -2.742  13.869 -17.685  1.00  0.00     0.046 C 
ENDROOT
BRANCH   3   9
HETATM    9  O   UNL     1      -3.916  13.513 -19.720  1.00  0.00    -0.361 OA
ATOM     10  HO  UNL     1      -4.041  12.575 -19.795  1.00  0.00     0.217 HD
ENDBRANCH   3   9
BRANCH   4  11
HETATM   11  O   UNL     1      -1.346  16.867 -17.282  1.00  0.00    -0.360 OA
ATOM     12  HO  UNL     1      -1.092  17.497 -16.617  1.00  0.00     0.217 HD
ENDBRANCH   4  11
TORSDOF 2
ENDMDL
MODEL 4
REMARK VINA RESULT:      -5.8      1.815      3.282
REMARK  2 active torsions:
REMARK  status: ('A' for Active; 'I' for Inactive)
REMARK    1  A    between atoms: C_3  and  O_4 
REMARK    2  A    between atoms: C_6  and  O_7 
ROOT
HETATM    1  C   UNL     1      -1.717  15.787 -17.872  1.00  0.00     0.051 C 
HETATM    2  C   UNL     1      -3.063  12.175 -16.757  1.00  0.00     0.036 C 
HETATM    3  C   UNL     1      -3.199  12.455 -18.112  1.00  0.00     0.066 C 
HETATM    4  C   UNL     1      -3.893  15.009 -16.965  1.00  0.00     0.071 C 
HETATM    5  C   UNL     1      -3.485  12.977 -15.721  1.00  0.00     0.005 C 
HETATM    6  C   UNL     1      -2.794  14.777 -17.827  1.00  0.00    -0.026 C 
HETATM    7  C   UNL     1      -4.181  14.159 -15.918  1.00  0.00     0.037 C 
HETATM    8  C   UNL     1      -2.824  13.669 -18.661  1.00  0.00     0.046 C 
ENDROOT
BRANCH   3   9
HETATM    9  O   UNL     1      -3.788  11.509 -18.893  1.00  0.00    -0.361 OA
ATOM     10  HO  UNL     1      -3.627  11.550 -19.828  1.00  0.00     0.217 HD
ENDBRANCH   3   9
BRANCH   4  11
HETATM   11  O   UNL     1      -4.749  16.012 -17.280  1.00  0.00    -0.360 OA
ATOM     12  HO  UNL     1      -4.537  16.565 -18.022  1.00  0.00     0.217 HD
ENDBRANCH   4  11
TORSDOF 2
ENDMDL
MODEL 5
REMARK VINA RESULT:      -5.8      1.768      2.844
REMARK  2 active torsions:
REMARK  status: ('A' for Active; 'I' for Inactive)
REMARK    1  A    between atoms: C_3  and  O_4 
REMARK    2  A    between atoms: C_6  and  O_7 
ROOT
HETATM    1  C   UNL     1      -3.730  13.250 -15.702  1.00  0.00     0.051 C 
HETATM    2  C   UNL     1      -3.792  17.018 -17.078  1.00  0.00     0.036 C 
HETATM    3  C   UNL     1      -4.866  16.233 -17.481  1.00  0.00     0.066 C 
HETATM    4  C   UNL     1      -2.706  14.333 -17.687  1.00  0.00     0.071 C 
HETATM    5  C   UNL     1      -2.461  16.687 -17.194  1.00  0.00     0.005 C 
HETATM    6  C   UNL     1      -3.822  14.203 -16.826  1.00  0.00    -0.026 C 
HETATM    7  C   UNL     1      -2.024  15.525 -17.812  1.00  0.00     0.037 C 
HETATM    8  C   UNL     1      -4.982  14.899 -17.132  1.00  0.00     0.046 C 
ENDROOT
BRANCH   3   9
HETATM    9  O   UNL     1      -5.787  16.803 -18.305  1.00  0.00    -0.361 OA
ATOM     10  HO  UNL     1      -6.533  16.274 -18.560  1.00  0.00     0.217 HD
ENDBRANCH   3   9
BRANCH   4  11
HETATM   11  O   UNL     1      -2.404  13.292 -18.502  1.00  0.00    -0.360 OA
ATOM     12  HO  UNL     1      -2.526  13.406 -19.437  1.00  0.00     0.217 HD
ENDBRANCH   4  11
TORSDOF 2
ENDMDL
MODEL 6
REMARK VINA RESULT:      -5.7      1.927      3.435
REMARK  2 active torsions:
REMARK  status: ('A' for Active; 'I' for Inactive)
REMARK    1  A    between atoms: C_3  and  O_4 
REMARK    2  A    between atoms: C_6  and  O_7 
ROOT
HETATM    1  C   UNL     1      -3.126  15.647 -16.370  1.00  0.00     0.051 C 
HETATM    2  C   UNL     1      -4.838  12.219 -17.558  1.00  0.00     0.036 C 
HETATM    3  C   UNL     1      -3.786  12.065 -16.662  1.00  0.00     0.066 C 
HETATM    4  C   UNL     1      -2.759  14.177 -18.336  1.00  0.00     0.071 C 
HETATM    5  C   UNL     1      -4.804  12.949 -18.725  1.00  0.00     0.005 C 
HETATM    6  C   UNL     1      -3.017  14.293 -16.949  1.00  0.00    -0.026 C 
HETATM    7  C   UNL     1      -3.658  13.573 -19.190  1.00  0.00     0.037 C 
HETATM    8  C   UNL     1      -3.058  13.139 -16.181  1.00  0.00     0.046 C 
ENDROOT
BRANCH   3   9
HETATM    9  O   UNL     1      -3.437  10.797 -16.314  1.00  0.00    -0.361 OA
ATOM     10  HO  UNL     1      -2.691  10.411 -16.756  1.00  0.00     0.217 HD
ENDBRANCH   3   9
BRANCH   4  11
HETATM   11  O   UNL     1      -1.536  14.546 -18.790  1.00  0.00    -0.360 OA
ATOM     12  HO  UNL     1      -0.830  14.624 -18.159  1.00  0.00     0.217 HD
ENDBRANCH   4  11
TORSDOF 2
ENDMDL
MODEL 7
REMARK VINA RESULT:      -5.6      2.410      3.542
REMARK  2 active torsions:
REMARK  status: ('A' for Active; 'I' for Inactive)
REMARK    1  A    between atoms: C_3  and  O_4 
REMARK    2  A    between atoms: C_6  and  O_7 
ROOT
HETATM    1  C   UNL     1      -2.333  14.513 -15.780  1.00  0.00     0.051 C 
HETATM    2  C   UNL     1      -4.778  14.076 -18.931  1.00  0.00     0.036 C 
HETATM    3  C   UNL     1      -5.417  14.385 -17.736  1.00  0.00     0.066 C 
HETATM    4  C   UNL     1      -3.414  12.529 -16.808  1.00  0.00     0.071 C 
HETATM    5  C   UNL     1      -3.870  13.058 -19.122  1.00  0.00     0.005 C 
HETATM    6  C   UNL     1      -3.511  13.885 -16.412  1.00  0.00    -0.026 C 
HETATM    7  C   UNL     1      -3.536  12.151 -18.128  1.00  0.00     0.037 C 
HETATM    8  C   UNL     1      -4.731  14.531 -16.543  1.00  0.00     0.046 C 
ENDROOT
BRANCH   3   9
HETATM    9  O   UNL     1      -6.775  14.474 -17.754  1.00  0.00    -0.361 OA
ATOM     10  HO  UNL     1      -7.236  14.321 -16.938  1.00  0.00     0.217 HD
ENDBRANCH   3   9
BRANCH   4  11
HETATM   11  O   UNL     1      -3.344  11.585 -15.837  1.00  0.00    -0.360 OA
ATOM     12  HO  UNL     1      -3.879  10.806 -15.930  1.00  0.00     0.217 HD
ENDBRANCH   4  11
TORSDOF 2
ENDMDL
MODEL 8
REMARK VINA RESULT:      -5.5      2.114      3.216
REMARK  2 active torsions:
REMARK  status: ('A' for Active; 'I' for Inactive)
REMARK    1  A    between atoms: C_3  and  O_4 
REMARK    2  A    between atoms: C_6  and  O_7 
ROOT
HETATM    1  C   UNL     1      -4.622  12.190 -20.686  1.00  0.00     0.051 C 
HETATM    2  C   UNL     1      -3.502  14.897 -17.944  1.00  0.00     0.036 C 
HETATM    3  C   UNL     1      -3.040  13.607 -17.712  1.00  0.00     0.066 C 
HETATM    4  C   UNL     1      -5.717  13.058 -18.634  1.00  0.00     0.071 C 
HETATM    5  C   UNL     1      -4.809  15.254 -18.192  1.00  0.00     0.005 C 
HETATM    6  C   UNL     1      -4.532  12.628 -19.278  1.00  0.00    -0.026 C 
HETATM    7  C   UNL     1      -5.856  14.347 -18.163  1.00  0.00     0.037 C 
HETATM    8  C   UNL     1      -3.364  12.542 -18.535  1.00  0.00     0.046 C 
ENDROOT
BRANCH   3   9
HETATM    9  O   UNL     1      -2.299  13.397 -16.590  1.00  0.00    -0.361 OA
ATOM     10  HO  UNL     1      -2.604  13.794 -15.783  1.00  0.00     0.217 HD
ENDBRANCH   3   9
BRANCH   4  11
HETATM   11  O   UNL     1      -6.666  12.130 -18.358  1.00  0.00    -0.360 OA
ATOM     12  HO  UNL     1      -7.551  12.291 -18.663  1.00  0.00     0.217 HD
ENDBRANCH   4  11
TORSDOF 2
ENDMDL
MODEL 9
REMARK VINA RESULT:      -5.5      1.767      3.079
REMARK  2 active torsions:
REMARK  status: ('A' for Active; 'I' for Inactive)
REMARK    1  A    between atoms: C_3  and  O_4 
REMARK    2  A    between atoms: C_6  and  O_7 
ROOT
HETATM    1  C   UNL     1      -5.410  16.841 -18.057  1.00  0.00     0.051 C 
HETATM    2  C   UNL     1      -3.396  13.374 -17.909  1.00  0.00     0.036 C 
HETATM    3  C   UNL     1      -4.208  13.624 -16.808  1.00  0.00     0.066 C 
HETATM    4  C   UNL     1      -3.125  16.255 -17.283  1.00  0.00     0.071 C 
HETATM    5  C   UNL     1      -2.458  14.235 -18.432  1.00  0.00     0.005 C 
HETATM    6  C   UNL     1      -4.498  15.917 -17.353  1.00  0.00    -0.026 C 
HETATM    7  C   UNL     1      -2.155  15.460 -17.857  1.00  0.00     0.037 C 
HETATM    8  C   UNL     1      -4.941  14.790 -16.676  1.00  0.00     0.046 C 
ENDROOT
BRANCH   3   9
HETATM    9  O   UNL     1      -4.210  12.702 -15.807  1.00  0.00    -0.361 OA
ATOM     10  HO  UNL     1      -5.028  12.254 -15.625  1.00  0.00     0.217 HD
ENDBRANCH   3   9
BRANCH   4  11
HETATM   11  O   UNL     1      -2.766  17.309 -16.510  1.00  0.00    -0.360 OA
ATOM     12  HO  UNL     1      -2.364  18.058 -16.934  1.00  0.00     0.217 HD
ENDBRANCH   4  11
TORSDOF 2
ENDMDL
