REMARK  2 active torsions:
REMARK  status: ('A' for Active; 'I' for Inactive)
REMARK    1  A    between atoms: C_3  and  O_4 
REMARK    2  A    between atoms: C_6  and  O_7 
ROOT
HETATM    1  C   UNL     1      -2.383  13.866 -18.843  1.00  0.00     0.051 C 
HETATM    2  C   UNL     1      -3.404  17.255 -16.953  1.00  0.00     0.036 C 
HETATM    3  C   UNL     1      -2.193  16.704 -16.549  1.00  0.00     0.066 C 
HETATM    4  C   UNL     1      -3.791  14.322 -16.850  1.00  0.00     0.071 C 
HETATM    5  C   UNL     1      -4.607  16.590 -17.032  1.00  0.00     0.005 C 
HETATM    6  C   UNL     1      -2.622  14.615 -17.593  1.00  0.00    -0.026 C 
HETATM    7  C   UNL     1      -4.767  15.272 -16.634  1.00  0.00     0.037 C 
HETATM    8  C   UNL     1      -1.708  15.516 -17.067  1.00  0.00     0.046 C 
ENDROOT
BRANCH   3   9
HETATM    9  O   UNL     1      -1.513  17.341 -15.557  1.00  0.00    -0.361 OA
ATOM     10  HO  UNL     1      -0.686  16.965 -15.281  1.00  0.00     0.217 HD
ENDBRANCH   3   9
BRANCH   4  11
HETATM   11  O   UNL     1      -3.866  13.120 -16.227  1.00  0.00    -0.360 OA
ATOM     12  HO  UNL     1      -4.650  12.923 -15.728  1.00  0.00     0.217 HD
ENDBRANCH   4  11
TORSDOF 2
