REMARK  1 active torsions:
REMARK  status: ('A' for Active; 'I' for Inactive)
REMARK    1  A    between atoms: C_1  and  O_5 
ROOT
HETATM    1  C   UNL     1      88.664  29.020  44.437  1.00  0.00     0.054 C 
HETATM    2  C   UNL     1      88.064  28.653  45.807  1.00  0.00     0.038 C 
HETATM    3  C   UNL     1      90.402  31.462  47.981  1.00  0.00    -0.032 C 
HETATM    4  C   UNL     1      91.648  30.635  48.299  1.00  0.00    -0.005 C 
HETATM    5  C   UNL     1      89.477  31.331  45.535  1.00  0.00     0.009 C 
HETATM    6  C   UNL     1      89.656  31.615  49.309  1.00  0.00     0.015 C 
HETATM    7  C   UNL     1      90.817  32.915  47.668  1.00  0.00     0.011 C 
HETATM    8  C   UNL     1      91.970  31.104  49.723  1.00  0.00     0.010 C 
HETATM    9  C   UNL     1      90.901  32.208  50.004  1.00  0.00    -0.013 C 
HETATM   10  C   UNL     1      89.381  30.395  44.335  1.00  0.00     0.038 C 
HETATM   11  C   UNL     1      90.322  29.255  46.825  1.00  0.00    -0.009 C 
HETATM   12  C   UNL     1      89.634  27.923  43.989  1.00  0.00     0.045 C 
HETATM   13  C   UNL     1      89.724  30.671  46.890  1.00  0.00    -0.002 C 
HETATM   14  C   UNL     1      91.192  29.184  48.091  1.00  0.00     0.010 C 
HETATM   15  C   UNL     1      89.104  28.307  46.877  1.00  0.00     0.008 C 
HETATM   16  C   UNL     1      91.299  33.371  49.072  1.00  0.00     0.005 C 
ENDROOT
BRANCH   1  17
HETATM   17  O   UNL     1      87.563  29.084  43.528  1.00  0.00    -0.390 OA
ATOM     18  HO  UNL     1      87.933  29.310  42.683  1.00  0.00     0.210 HD
ENDBRANCH   1  17
TORSDOF 1
