MODEL 1
REMARK VINA RESULT:      -8.9      0.000      0.000
REMARK  3 active torsions:
REMARK  status: ('A' for Active; 'I' for Inactive)
REMARK    1  A    between atoms: O_9  and  C_20 
REMARK    2  A    between atoms: C_11  and  C_12 
REMARK    3  A    between atoms: C_11  and  C_14 
ROOT
HETATM    1  C   UNL     1       1.124  45.262   3.406  1.00  0.00    -0.009 C 
HETATM    2  N   UNL     1      -1.646  44.503   1.293  1.00  0.00    -0.402 N 
ATOM      3  HN  UNL     1      -2.483  44.009   1.604  1.00  0.00     0.154 HD
HETATM    4  N   UNL     1       0.972  42.999  -0.626  1.00  0.00    -0.354 N 
ATOM      5  HN  UNL     1       0.417  42.393  -1.230  1.00  0.00     0.166 HD
HETATM    6  C   UNL     1       0.545  45.462   2.046  1.00  0.00    -0.006 C 
HETATM    7  C   UNL     1       2.314  45.782   3.711  1.00  0.00     0.066 C 
HETATM    8  C   UNL     1      -1.065  44.262  -0.033  1.00  0.00     0.173 C 
HETATM    9  N   UNL     1       3.115  43.651   0.101  1.00  0.00    -0.361 N 
ATOM     10  HN  UNL     1       4.123  43.495   0.088  1.00  0.00     0.166 HD
HETATM   11  C   UNL     1       0.048  44.750   4.314  1.00  0.00     0.224 C 
HETATM   12  C   UNL     1      -1.224  45.131   3.590  1.00  0.00     0.186 C 
HETATM   13  C   UNL     1       2.274  42.822  -0.476  1.00  0.00     0.180 C 
HETATM   14  C   UNL     1       0.416  44.009   0.051  1.00  0.00     0.040 C 
HETATM   15  C   UNL     1       2.573  44.708   0.703  1.00  0.00     0.102 C 
HETATM   16  O   UNL     1      -2.339  45.074   4.092  1.00  0.00    -0.292 OA
HETATM   17  C   UNL     1      -0.973  45.487   2.154  1.00  0.00     0.185 C 
HETATM   18  C   UNL     1       1.204  44.768   0.906  1.00  0.00     0.013 C 
ENDROOT
BRANCH   7  19
HETATM   19  C   UNL     1       2.902  46.303   4.930  1.00  0.00     0.182 C 
HETATM   20  O   UNL     1       2.365  47.234   5.516  1.00  0.00    -0.288 OA
BRANCH  19  21
HETATM   21  C   UNL     1       4.168  45.743   5.543  1.00  0.00     0.014 C 
HETATM   22  C   UNL     1       4.506  46.199   6.805  1.00  0.00     0.015 C 
HETATM   23  C   UNL     1       5.573  46.062   7.644  1.00  0.00     0.001 C 
HETATM   24  C   UNL     1       6.623  45.149   7.661  1.00  0.00     0.000 C 
HETATM   25  C   UNL     1       6.865  44.324   6.567  1.00  0.00     0.000 C 
HETATM   26  C   UNL     1       6.152  44.286   5.401  1.00  0.00     0.001 C 
HETATM   27  C   UNL     1       4.958  44.778   4.893  1.00  0.00     0.015 C 
ENDBRANCH  19  21
ENDBRANCH   7  19
BRANCH  11  28
HETATM   28  O   UNL     1       0.118  45.360   5.590  1.00  0.00    -0.383 OA
ATOM     29  HO  UNL     1       0.678  44.867   6.178  1.00  0.00     0.211 HD
ENDBRANCH  11  28
TORSDOF 3
ENDMDL
MODEL 2
REMARK VINA RESULT:      -8.8      3.780      5.455
REMARK  3 active torsions:
REMARK  status: ('A' for Active; 'I' for Inactive)
REMARK    1  A    between atoms: O_9  and  C_20 
REMARK    2  A    between atoms: C_11  and  C_12 
REMARK    3  A    between atoms: C_11  and  C_14 
ROOT
HETATM    1  C   UNL     1       1.181  47.921   7.446  1.00  0.00    -0.009 C 
HETATM    2  N   UNL     1      -1.877  49.756   7.495  1.00  0.00    -0.402 N 
ATOM      3  HN  UNL     1      -2.498  49.808   8.303  1.00  0.00     0.154 HD
HETATM    4  N   UNL     1      -2.484  47.700   4.631  1.00  0.00    -0.354 N 
ATOM      5  HN  UNL     1      -3.497  47.800   4.559  1.00  0.00     0.166 HD
HETATM    6  C   UNL     1       0.319  48.864   6.676  1.00  0.00    -0.006 C 
HETATM    7  C   UNL     1       2.319  47.470   6.918  1.00  0.00     0.066 C 
HETATM    8  C   UNL     1      -2.405  49.661   6.129  1.00  0.00     0.173 C 
HETATM    9  N   UNL     1      -0.536  46.625   3.860  1.00  0.00    -0.361 N 
ATOM     10  HN  UNL     1      -0.114  45.900   3.278  1.00  0.00     0.166 HD
HETATM   11  C   UNL     1       0.723  47.912   8.872  1.00  0.00     0.224 C 
HETATM   12  C   UNL     1      -0.060  49.199   8.992  1.00  0.00     0.186 C 
HETATM   13  C   UNL     1      -1.838  46.728   4.008  1.00  0.00     0.180 C 
HETATM   14  C   UNL     1      -1.749  48.546   5.360  1.00  0.00     0.040 C 
HETATM   15  C   UNL     1       0.200  47.521   4.515  1.00  0.00     0.102 C 
HETATM   16  O   UNL     1      -0.435  49.675  10.056  1.00  0.00    -0.292 OA
HETATM   17  C   UNL     1      -0.414  49.773   7.651  1.00  0.00     0.185 C 
HETATM   18  C   UNL     1      -0.382  48.333   5.473  1.00  0.00     0.013 C 
ENDROOT
BRANCH   7  19
HETATM   19  C   UNL     1       3.604  47.089   7.472  1.00  0.00     0.182 C 
HETATM   20  O   UNL     1       3.978  47.570   8.533  1.00  0.00    -0.288 OA
BRANCH  19  21
HETATM   21  C   UNL     1       4.531  46.095   6.804  1.00  0.00     0.014 C 
HETATM   22  C   UNL     1       4.192  45.682   5.528  1.00  0.00     0.015 C 
HETATM   23  C   UNL     1       4.651  44.752   4.643  1.00  0.00     0.001 C 
HETATM   24  C   UNL     1       5.851  44.050   4.582  1.00  0.00     0.000 C 
HETATM   25  C   UNL     1       6.724  44.037   5.665  1.00  0.00     0.000 C 
HETATM   26  C   UNL     1       6.546  44.675   6.862  1.00  0.00     0.001 C 
HETATM   27  C   UNL     1       5.706  45.627   7.421  1.00  0.00     0.015 C 
ENDBRANCH  19  21
ENDBRANCH   7  19
BRANCH  11  28
HETATM   28  O   UNL     1       1.823  47.892   9.765  1.00  0.00    -0.383 OA
ATOM     29  HO  UNL     1       2.521  47.336   9.439  1.00  0.00     0.211 HD
ENDBRANCH  11  28
TORSDOF 3
ENDMDL
MODEL 3
REMARK VINA RESULT:      -8.6      4.366      6.371
REMARK  3 active torsions:
REMARK  status: ('A' for Active; 'I' for Inactive)
REMARK    1  A    between atoms: O_9  and  C_20 
REMARK    2  A    between atoms: C_11  and  C_12 
REMARK    3  A    between atoms: C_11  and  C_14 
ROOT
HETATM    1  C   UNL     1       0.453  47.855   7.785  1.00  0.00    -0.009 C 
HETATM    2  N   UNL     1      -2.425  49.695   8.810  1.00  0.00    -0.402 N 
ATOM      3  HN  UNL     1      -2.671  49.873   9.784  1.00  0.00     0.154 HD
HETATM    4  N   UNL     1      -4.016  47.234   6.758  1.00  0.00    -0.354 N 
ATOM      5  HN  UNL     1      -4.976  47.328   7.089  1.00  0.00     0.166 HD
HETATM    6  C   UNL     1      -0.697  48.676   7.306  1.00  0.00    -0.006 C 
HETATM    7  C   UNL     1       1.307  47.322   6.910  1.00  0.00     0.066 C 
HETATM    8  C   UNL     1      -3.451  49.398   7.803  1.00  0.00     0.173 C 
HETATM    9  N   UNL     1      -2.484  46.042   5.423  1.00  0.00    -0.361 N 
ATOM     10  HN  UNL     1      -2.291  45.235   4.829  1.00  0.00     0.166 HD
HETATM   11  C   UNL     1       0.607  48.064   9.260  1.00  0.00     0.224 C 
HETATM   12  C   UNL     1      -0.133  49.360   9.504  1.00  0.00     0.186 C 
HETATM   13  C   UNL     1      -3.620  46.175   6.070  1.00  0.00     0.180 C 
HETATM   14  C   UNL     1      -3.098  48.176   6.999  1.00  0.00     0.040 C 
HETATM   15  C   UNL     1      -1.598  47.022   5.591  1.00  0.00     0.102 C 
HETATM   16  O   UNL     1      -0.075  49.994  10.550  1.00  0.00    -0.292 OA
HETATM   17  C   UNL     1      -1.026  49.727   8.355  1.00  0.00     0.185 C 
HETATM   18  C   UNL     1      -1.791  47.974   6.578  1.00  0.00     0.013 C 
ENDROOT
BRANCH   7  19
HETATM   19  C   UNL     1       2.725  47.021   6.944  1.00  0.00     0.182 C 
HETATM   20  O   UNL     1       3.418  47.450   7.857  1.00  0.00    -0.288 OA
BRANCH  19  21
HETATM   21  C   UNL     1       3.417  46.175   5.896  1.00  0.00     0.014 C 
HETATM   22  C   UNL     1       2.700  45.895   4.746  1.00  0.00     0.015 C 
HETATM   23  C   UNL     1       2.879  45.107   3.647  1.00  0.00     0.001 C 
HETATM   24  C   UNL     1       4.014  44.496   3.123  1.00  0.00     0.000 C 
HETATM   25  C   UNL     1       5.185  44.412   3.870  1.00  0.00     0.000 C 
HETATM   26  C   UNL     1       5.380  44.892   5.136  1.00  0.00     0.001 C 
HETATM   27  C   UNL     1       4.737  45.714   6.050  1.00  0.00     0.015 C 
ENDBRANCH  19  21
ENDBRANCH   7  19
BRANCH  11  28
HETATM   28  O   UNL     1       1.972  48.173   9.624  1.00  0.00    -0.383 OA
ATOM     29  HO  UNL     1       2.477  47.441   9.289  1.00  0.00     0.211 HD
ENDBRANCH  11  28
TORSDOF 3
ENDMDL
MODEL 4
REMARK VINA RESULT:      -8.4      4.530      6.528
REMARK  3 active torsions:
REMARK  status: ('A' for Active; 'I' for Inactive)
REMARK    1  A    between atoms: O_9  and  C_20 
REMARK    2  A    between atoms: C_11  and  C_12 
REMARK    3  A    between atoms: C_11  and  C_14 
ROOT
HETATM    1  C   UNL     1       0.128  47.764   7.855  1.00  0.00    -0.009 C 
HETATM    2  N   UNL     1      -2.721  49.458   9.170  1.00  0.00    -0.402 N 
ATOM      3  HN  UNL     1      -2.885  49.610  10.166  1.00  0.00     0.154 HD
HETATM    4  N   UNL     1      -4.384  46.961   7.222  1.00  0.00    -0.354 N 
ATOM      5  HN  UNL     1      -5.314  47.007   7.639  1.00  0.00     0.166 HD
HETATM    6  C   UNL     1      -1.095  48.540   7.497  1.00  0.00    -0.006 C 
HETATM    7  C   UNL     1       0.921  47.284   6.897  1.00  0.00     0.066 C 
HETATM    8  C   UNL     1      -3.820  49.131   8.254  1.00  0.00     0.173 C 
HETATM    9  N   UNL     1      -2.930  45.859   5.732  1.00  0.00    -0.361 N 
ATOM     10  HN  UNL     1      -2.758  45.072   5.107  1.00  0.00     0.166 HD
HETATM   11  C   UNL     1       0.406  47.957   9.314  1.00  0.00     0.224 C 
HETATM   12  C   UNL     1      -0.363  49.215   9.649  1.00  0.00     0.186 C 
HETATM   13  C   UNL     1      -4.008  45.932   6.481  1.00  0.00     0.180 C 
HETATM   14  C   UNL     1      -3.490  47.939   7.398  1.00  0.00     0.040 C 
HETATM   15  C   UNL     1      -2.076  46.875   5.838  1.00  0.00     0.102 C 
HETATM   16  O   UNL     1      -0.237  49.834  10.698  1.00  0.00    -0.292 OA
HETATM   17  C   UNL     1      -1.372  49.559   8.592  1.00  0.00     0.185 C 
HETATM   18  C   UNL     1      -2.219  47.802   6.857  1.00  0.00     0.013 C 
ENDROOT
BRANCH   7  19
HETATM   19  C   UNL     1       2.348  47.045   6.797  1.00  0.00     0.182 C 
HETATM   20  O   UNL     1       3.105  47.513   7.637  1.00  0.00    -0.288 OA
BRANCH  19  21
HETATM   21  C   UNL     1       2.974  46.220   5.693  1.00  0.00     0.014 C 
HETATM   22  C   UNL     1       4.282  45.807   5.884  1.00  0.00     0.015 C 
HETATM   23  C   UNL     1       5.232  45.180   5.133  1.00  0.00     0.001 C 
HETATM   24  C   UNL     1       5.141  44.442   3.957  1.00  0.00     0.000 C 
HETATM   25  C   UNL     1       3.975  44.456   3.197  1.00  0.00     0.000 C 
HETATM   26  C   UNL     1       2.827  45.143   3.479  1.00  0.00     0.001 C 
HETATM   27  C   UNL     1       2.267  45.849   4.534  1.00  0.00     0.015 C 
ENDBRANCH  19  21
ENDBRANCH   7  19
BRANCH  11  28
HETATM   28  O   UNL     1       1.793  48.120   9.556  1.00  0.00    -0.383 OA
ATOM     29  HO  UNL     1       2.020  49.038   9.652  1.00  0.00     0.211 HD
ENDBRANCH  11  28
TORSDOF 3
ENDMDL
MODEL 5
REMARK VINA RESULT:      -8.3      3.579      7.704
REMARK  3 active torsions:
REMARK  status: ('A' for Active; 'I' for Inactive)
REMARK    1  A    between atoms: O_9  and  C_20 
REMARK    2  A    between atoms: C_11  and  C_12 
REMARK    3  A    between atoms: C_11  and  C_14 
ROOT
HETATM    1  C   UNL     1       3.221  45.336   4.489  1.00  0.00    -0.009 C 
HETATM    2  N   UNL     1       5.697  45.667   7.033  1.00  0.00    -0.402 N 
ATOM      3  HN  UNL     1       6.387  44.948   7.255  1.00  0.00     0.154 HD
HETATM    4  N   UNL     1       2.772  46.310   8.989  1.00  0.00    -0.354 N 
ATOM      5  HN  UNL     1       3.154  46.164   9.924  1.00  0.00     0.166 HD
HETATM    6  C   UNL     1       3.821  46.271   5.484  1.00  0.00    -0.006 C 
HETATM    7  C   UNL     1       2.201  45.732   3.727  1.00  0.00     0.066 C 
HETATM    8  C   UNL     1       5.063  46.470   8.085  1.00  0.00     0.173 C 
HETATM    9  N   UNL     1       0.864  46.699   7.663  1.00  0.00    -0.361 N 
ATOM     10  HN  UNL     1      -0.151  46.777   7.601  1.00  0.00     0.166 HD
HETATM   11  C   UNL     1       4.142  44.168   4.315  1.00  0.00     0.224 C 
HETATM   12  C   UNL     1       5.463  44.690   4.833  1.00  0.00     0.186 C 
HETATM   13  C   UNL     1       1.467  46.319   8.768  1.00  0.00     0.180 C 
HETATM   14  C   UNL     1       3.567  46.500   7.931  1.00  0.00     0.040 C 
HETATM   15  C   UNL     1       1.658  46.975   6.630  1.00  0.00     0.102 C 
HETATM   16  O   UNL     1       6.533  44.115   4.680  1.00  0.00    -0.292 OA
HETATM   17  C   UNL     1       5.297  45.942   5.644  1.00  0.00     0.185 C 
HETATM   18  C   UNL     1       3.000  46.635   6.672  1.00  0.00     0.013 C 
ENDROOT
BRANCH   7  19
HETATM   19  C   UNL     1       1.771  45.417   2.377  1.00  0.00     0.182 C 
HETATM   20  O   UNL     1       2.528  44.829   1.618  1.00  0.00    -0.288 OA
BRANCH  19  21
HETATM   21  C   UNL     1       0.400  45.772   1.842  1.00  0.00     0.014 C 
HETATM   22  C   UNL     1       0.317  46.094   0.498  1.00  0.00     0.015 C 
HETATM   23  C   UNL     1      -0.649  46.571  -0.338  1.00  0.00     0.001 C 
HETATM   24  C   UNL     1      -2.032  46.639  -0.207  1.00  0.00     0.000 C 
HETATM   25  C   UNL     1      -2.641  46.422   1.025  1.00  0.00     0.000 C 
HETATM   26  C   UNL     1      -2.014  46.123   2.202  1.00  0.00     0.001 C 
HETATM   27  C   UNL     1      -0.754  45.749   2.647  1.00  0.00     0.015 C 
ENDBRANCH  19  21
ENDBRANCH   7  19
BRANCH  11  28
HETATM   28  O   UNL     1       4.237  43.786   2.953  1.00  0.00    -0.383 OA
ATOM     29  HO  UNL     1       3.498  44.111   2.452  1.00  0.00     0.211 HD
ENDBRANCH  11  28
TORSDOF 3
ENDMDL
MODEL 6
REMARK VINA RESULT:      -8.2      3.714      6.898
REMARK  3 active torsions:
REMARK  status: ('A' for Active; 'I' for Inactive)
REMARK    1  A    between atoms: O_9  and  C_20 
REMARK    2  A    between atoms: C_11  and  C_12 
REMARK    3  A    between atoms: C_11  and  C_14 
ROOT
HETATM    1  C   UNL     1       1.436  47.256   5.834  1.00  0.00    -0.009 C 
HETATM    2  N   UNL     1       2.066  48.449   9.134  1.00  0.00    -0.402 N 
ATOM      3  HN  UNL     1       1.893  49.408   9.437  1.00  0.00     0.154 HD
HETATM    4  N   UNL     1       5.309  47.149   8.362  1.00  0.00    -0.354 N 
ATOM      5  HN  UNL     1       5.860  47.623   9.077  1.00  0.00     0.166 HD
HETATM    6  C   UNL     1       1.848  46.856   7.210  1.00  0.00    -0.006 C 
HETATM    7  C   UNL     1       1.378  46.346   4.860  1.00  0.00     0.066 C 
HETATM    8  C   UNL     1       3.244  47.702   9.596  1.00  0.00     0.173 C 
HETATM    9  N   UNL     1       5.302  45.784   6.442  1.00  0.00    -0.361 N 
ATOM     10  HN  UNL     1       5.832  45.308   5.711  1.00  0.00     0.166 HD
HETATM   11  C   UNL     1       0.831  48.625   5.894  1.00  0.00     0.224 C 
HETATM   12  C   UNL     1       0.463  48.775   7.353  1.00  0.00     0.186 C 
HETATM   13  C   UNL     1       5.878  46.589   7.307  1.00  0.00     0.180 C 
HETATM   14  C   UNL     1       3.977  47.064   8.447  1.00  0.00     0.040 C 
HETATM   15  C   UNL     1       3.987  45.627   6.577  1.00  0.00     0.102 C 
HETATM   16  O   UNL     1      -0.244  49.674   7.791  1.00  0.00    -0.292 OA
HETATM   17  C   UNL     1       1.148  47.757   8.217  1.00  0.00     0.185 C 
HETATM   18  C   UNL     1       3.268  46.460   7.419  1.00  0.00     0.013 C 
ENDROOT
BRANCH   7  19
HETATM   19  C   UNL     1       0.543  46.180   3.686  1.00  0.00     0.182 C 
HETATM   20  O   UNL     1      -0.615  46.573   3.701  1.00  0.00    -0.288 OA
BRANCH  19  21
HETATM   21  C   UNL     1       1.036  45.542   2.404  1.00  0.00     0.014 C 
HETATM   22  C   UNL     1       2.128  44.698   2.504  1.00  0.00     0.015 C 
HETATM   23  C   UNL     1       2.941  44.038   1.630  1.00  0.00     0.001 C 
HETATM   24  C   UNL     1       2.789  43.728   0.282  1.00  0.00     0.000 C 
HETATM   25  C   UNL     1       1.787  44.325  -0.476  1.00  0.00     0.000 C 
HETATM   26  C   UNL     1       0.864  45.234  -0.036  1.00  0.00     0.001 C 
HETATM   27  C   UNL     1       0.406  45.757   1.164  1.00  0.00     0.015 C 
ENDBRANCH  19  21
ENDBRANCH   7  19
BRANCH  11  28
HETATM   28  O   UNL     1      -0.312  48.720   5.062  1.00  0.00    -0.383 OA
ATOM     29  HO  UNL     1      -0.215  48.186   4.282  1.00  0.00     0.211 HD
ENDBRANCH  11  28
TORSDOF 3
ENDMDL
MODEL 7
REMARK VINA RESULT:      -8.2      4.319      6.920
REMARK  3 active torsions:
REMARK  status: ('A' for Active; 'I' for Inactive)
REMARK    1  A    between atoms: O_9  and  C_20 
REMARK    2  A    between atoms: C_11  and  C_12 
REMARK    3  A    between atoms: C_11  and  C_14 
ROOT
HETATM    1  C   UNL     1      -0.399  46.981   5.918  1.00  0.00    -0.009 C 
HETATM    2  N   UNL     1      -0.895  49.408   8.484  1.00  0.00    -0.402 N 
ATOM      3  HN  UNL     1      -1.093  50.393   8.307  1.00  0.00     0.154 HD
HETATM    4  N   UNL     1       2.303  48.156   9.486  1.00  0.00    -0.354 N 
ATOM      5  HN  UNL     1       2.597  48.910  10.106  1.00  0.00     0.166 HD
HETATM    6  C   UNL     1      -0.534  47.181   7.390  1.00  0.00    -0.006 C 
HETATM    7  C   UNL     1      -0.174  45.763   5.424  1.00  0.00     0.066 C 
HETATM    8  C   UNL     1      -0.019  48.989   9.585  1.00  0.00     0.173 C 
HETATM    9  N   UNL     1       2.877  46.155   8.383  1.00  0.00    -0.361 N 
ATOM     10  HN  UNL     1       3.594  45.473   8.135  1.00  0.00     0.166 HD
HETATM   11  C   UNL     1      -0.881  48.217   5.222  1.00  0.00     0.224 C 
HETATM   12  C   UNL     1      -1.731  48.895   6.273  1.00  0.00     0.186 C 
HETATM   13  C   UNL     1       3.167  47.274   9.010  1.00  0.00     0.180 C 
HETATM   14  C   UNL     1       1.026  48.012   9.118  1.00  0.00     0.040 C 
HETATM   15  C   UNL     1       1.592  45.965   8.090  1.00  0.00     0.102 C 
HETATM   16  O   UNL     1      -2.478  49.838   6.044  1.00  0.00    -0.292 OA
HETATM   17  C   UNL     1      -1.477  48.347   7.647  1.00  0.00     0.185 C 
HETATM   18  C   UNL     1       0.685  47.004   8.226  1.00  0.00     0.013 C 
ENDROOT
BRANCH   7  19
HETATM   19  C   UNL     1      -0.547  45.092   4.194  1.00  0.00     0.182 C 
HETATM   20  O   UNL     1      -1.703  44.728   4.023  1.00  0.00    -0.288 OA
BRANCH  19  21
HETATM   21  C   UNL     1       0.433  44.816   3.072  1.00  0.00     0.014 C 
HETATM   22  C   UNL     1       1.757  44.629   3.430  1.00  0.00     0.015 C 
HETATM   23  C   UNL     1       2.940  44.483   2.767  1.00  0.00     0.001 C 
HETATM   24  C   UNL     1       3.224  44.170   1.441  1.00  0.00     0.000 C 
HETATM   25  C   UNL     1       2.225  44.205   0.473  1.00  0.00     0.000 C 
HETATM   26  C   UNL     1       0.909  44.521   0.671  1.00  0.00     0.001 C 
HETATM   27  C   UNL     1       0.031  44.716   1.728  1.00  0.00     0.015 C 
ENDBRANCH  19  21
ENDBRANCH   7  19
BRANCH  11  28
HETATM   28  O   UNL     1      -1.642  47.895   4.072  1.00  0.00    -0.383 OA
ATOM     29  HO  UNL     1      -1.726  46.954   3.966  1.00  0.00     0.211 HD
ENDBRANCH  11  28
TORSDOF 3
ENDMDL
MODEL 8
REMARK VINA RESULT:      -8.2      4.286      6.078
REMARK  3 active torsions:
REMARK  status: ('A' for Active; 'I' for Inactive)
REMARK    1  A    between atoms: O_9  and  C_20 
REMARK    2  A    between atoms: C_11  and  C_12 
REMARK    3  A    between atoms: C_11  and  C_14 
ROOT
HETATM    1  C   UNL     1       0.053  46.913   6.010  1.00  0.00    -0.009 C 
HETATM    2  N   UNL     1      -3.192  46.996   7.486  1.00  0.00    -0.402 N 
ATOM      3  HN  UNL     1      -4.037  47.280   6.989  1.00  0.00     0.154 HD
HETATM    4  N   UNL     1      -1.446  49.076   9.815  1.00  0.00    -0.354 N 
ATOM      5  HN  UNL     1      -2.238  49.533  10.266  1.00  0.00     0.166 HD
HETATM    6  C   UNL     1      -0.732  46.582   7.234  1.00  0.00    -0.006 C 
HETATM    7  C   UNL     1       1.367  46.689   5.976  1.00  0.00     0.066 C 
HETATM    8  C   UNL     1      -2.968  47.368   8.888  1.00  0.00     0.173 C 
HETATM    9  N   UNL     1       0.893  48.948   9.565  1.00  0.00    -0.361 N 
ATOM     10  HN  UNL     1       1.812  49.338   9.772  1.00  0.00     0.166 HD
HETATM   11  C   UNL     1      -0.901  47.157   4.881  1.00  0.00     0.224 C 
HETATM   12  C   UNL     1      -2.172  46.487   5.353  1.00  0.00     0.186 C 
HETATM   13  C   UNL     1      -0.218  49.555   9.921  1.00  0.00     0.180 C 
HETATM   14  C   UNL     1      -1.601  47.963   9.090  1.00  0.00     0.040 C 
HETATM   15  C   UNL     1       0.745  47.793   8.918  1.00  0.00     0.102 C 
HETATM   16  O   UNL     1      -3.142  46.279   4.635  1.00  0.00    -0.292 OA
HETATM   17  C   UNL     1      -2.147  46.199   6.826  1.00  0.00     0.185 C 
HETATM   18  C   UNL     1      -0.501  47.412   8.449  1.00  0.00     0.013 C 
ENDROOT
BRANCH   7  19
HETATM   19  C   UNL     1       2.298  46.321   4.926  1.00  0.00     0.182 C 
HETATM   20  O   UNL     1       2.001  46.508   3.754  1.00  0.00    -0.288 OA
BRANCH  19  21
HETATM   21  C   UNL     1       3.658  45.713   5.201  1.00  0.00     0.014 C 
HETATM   22  C   UNL     1       4.256  46.039   6.405  1.00  0.00     0.015 C 
HETATM   23  C   UNL     1       5.473  45.826   6.985  1.00  0.00     0.001 C 
HETATM   24  C   UNL     1       6.493  44.928   6.688  1.00  0.00     0.000 C 
HETATM   25  C   UNL     1       6.493  44.224   5.487  1.00  0.00     0.000 C 
HETATM   26  C   UNL     1       5.552  44.301   4.498  1.00  0.00     0.001 C 
HETATM   27  C   UNL     1       4.285  44.830   4.303  1.00  0.00     0.015 C 
ENDBRANCH  19  21
ENDBRANCH   7  19
BRANCH  11  28
HETATM   28  O   UNL     1      -0.430  46.581   3.676  1.00  0.00    -0.383 OA
ATOM     29  HO  UNL     1      -1.137  46.463   3.051  1.00  0.00     0.211 HD
ENDBRANCH  11  28
TORSDOF 3
ENDMDL
MODEL 9
REMARK VINA RESULT:      -8.1      4.821      6.929
REMARK  3 active torsions:
REMARK  status: ('A' for Active; 'I' for Inactive)
REMARK    1  A    between atoms: O_9  and  C_20 
REMARK    2  A    between atoms: C_11  and  C_12 
REMARK    3  A    between atoms: C_11  and  C_14 
ROOT
HETATM    1  C   UNL     1      -0.347  46.950   6.815  1.00  0.00    -0.009 C 
HETATM    2  N   UNL     1      -1.025  47.888  10.188  1.00  0.00    -0.402 N 
ATOM      3  HN  UNL     1      -1.263  47.226  10.927  1.00  0.00     0.154 HD
HETATM    4  N   UNL     1      -3.409  49.971   8.521  1.00  0.00    -0.354 N 
ATOM      5  HN  UNL     1      -4.019  50.197   9.305  1.00  0.00     0.166 HD
HETATM    6  C   UNL     1      -0.359  48.089   7.779  1.00  0.00    -0.006 C 
HETATM    7  C   UNL     1      -0.010  47.155   5.541  1.00  0.00     0.066 C 
HETATM    8  C   UNL     1      -1.674  49.202  10.099  1.00  0.00     0.173 C 
HETATM    9  N   UNL     1      -3.033  50.096   6.199  1.00  0.00    -0.361 N 
ATOM     10  HN  UNL     1      -3.379  50.350   5.273  1.00  0.00     0.166 HD
HETATM   11  C   UNL     1      -0.418  45.669   7.588  1.00  0.00     0.224 C 
HETATM   12  C   UNL     1       0.023  46.078   8.975  1.00  0.00     0.186 C 
HETATM   13  C   UNL     1      -3.795  50.154   7.268  1.00  0.00     0.180 C 
HETATM   14  C   UNL     1      -2.182  49.474   8.710  1.00  0.00     0.040 C 
HETATM   15  C   UNL     1      -1.781  49.685   6.395  1.00  0.00     0.102 C 
HETATM   16  O   UNL     1       0.301  45.284   9.865  1.00  0.00    -0.292 OA
HETATM   17  C   UNL     1      -0.018  47.566   9.166  1.00  0.00     0.185 C 
HETATM   18  C   UNL     1      -1.413  49.127   7.607  1.00  0.00     0.013 C 
ENDROOT
BRANCH   7  19
HETATM   19  C   UNL     1       0.655  46.350   4.534  1.00  0.00     0.182 C 
HETATM   20  O   UNL     1       0.035  45.968   3.551  1.00  0.00    -0.288 OA
BRANCH  19  21
HETATM   21  C   UNL     1       2.114  45.953   4.624  1.00  0.00     0.014 C 
HETATM   22  C   UNL     1       2.593  45.104   3.642  1.00  0.00     0.015 C 
HETATM   23  C   UNL     1       3.753  44.426   3.412  1.00  0.00     0.001 C 
HETATM   24  C   UNL     1       5.029  44.570   3.949  1.00  0.00     0.000 C 
HETATM   25  C   UNL     1       5.240  45.353   5.079  1.00  0.00     0.000 C 
HETATM   26  C   UNL     1       4.292  46.053   5.774  1.00  0.00     0.001 C 
HETATM   27  C   UNL     1       2.968  46.440   5.630  1.00  0.00     0.015 C 
ENDBRANCH  19  21
ENDBRANCH   7  19
BRANCH  11  28
HETATM   28  O   UNL     1       0.446  44.689   7.039  1.00  0.00    -0.383 OA
ATOM     29  HO  UNL     1      -0.038  43.924   6.753  1.00  0.00     0.211 HD
ENDBRANCH  11  28
TORSDOF 3
ENDMDL
