MODEL 1
REMARK VINA RESULT:      -9.4      0.000      0.000
REMARK  4 active torsions:
REMARK  status: ('A' for Active; 'I' for Inactive)
REMARK    1  A    between atoms: C_2  and  C_9 
REMARK    2  A    between atoms: C_4  and  C_10 
REMARK    3  A    between atoms: N_8  and  C_13 
REMARK    4  A    between atoms: C_19  and  O_22 
ROOT
HETATM    1  C   UNL     1     -70.958 -27.029   4.516  1.00  0.00     0.097 C 
HETATM    2  C   UNL     1     -68.701 -26.246   4.186  1.00  0.00    -0.012 C 
HETATM    3  C   UNL     1     -70.106 -26.931   2.315  1.00  0.00     0.120 C 
HETATM    4  N   UNL     1     -71.166 -27.120   3.157  1.00  0.00    -0.331 N 
HETATM    5  S   UNL     1     -67.415 -27.167   1.957  1.00  0.00    -0.078 SA
HETATM    6  C   UNL     1     -69.781 -26.509   5.039  1.00  0.00     0.030 C 
HETATM    7  C   UNL     1     -68.844 -26.706   2.852  1.00  0.00     0.057 C 
ENDROOT
BRANCH   2   8
HETATM    8  C   UNL     1     -67.557 -25.475   4.671  1.00  0.00     0.013 C 
HETATM    9  C   UNL     1     -67.017 -24.347   4.257  1.00  0.00     0.001 C 
BRANCH   9  10
HETATM   10  C   UNL     1     -65.652 -24.115   3.841  1.00  0.00     0.003 C 
HETATM   11  C   UNL     1     -65.110 -24.231   2.625  1.00  0.00    -0.075 C 
HETATM   12  C   UNL     1     -65.025 -23.197   1.520  1.00  0.00     0.015 C 
HETATM   13  C   UNL     1     -64.311 -25.419   2.087  1.00  0.00     0.039 C 
HETATM   14  C   UNL     1     -66.008 -23.641   0.443  1.00  0.00     0.009 C 
HETATM   15  C   UNL     1     -63.672 -23.476   0.866  1.00  0.00     0.014 C 
HETATM   16  C   UNL     1     -65.293 -24.865  -0.139  1.00  0.00     0.005 C 
HETATM   17  C   UNL     1     -63.987 -24.950   0.650  1.00  0.00    -0.010 C 
ENDBRANCH   9  10
ENDBRANCH   2   8
BRANCH   4  18
HETATM   18  C   UNL     1     -72.481 -27.433   2.688  1.00  0.00     0.038 C 
HETATM   19  C   UNL     1     -73.163 -26.502   1.887  1.00  0.00     0.033 C 
HETATM   20  C   UNL     1     -74.524 -26.661   1.617  1.00  0.00     0.039 C 
HETATM   21  C   UNL     1     -75.204 -27.727   2.196  1.00  0.00     0.065 C 
HETATM   22  C   UNL     1     -74.496 -28.786   2.761  1.00  0.00     0.039 C 
HETATM   23  C   UNL     1     -73.142 -28.603   3.066  1.00  0.00     0.033 C 
BRANCH  21  24
HETATM   24  O   UNL     1     -76.544 -27.612   2.413  1.00  0.00    -0.361 OA
ATOM     25  HO  UNL     1     -77.076 -28.399   2.422  1.00  0.00     0.217 HD
ENDBRANCH  21  24
ENDBRANCH   4  18
TORSDOF 4
ENDMDL
MODEL 2
REMARK VINA RESULT:      -9.4      3.757      5.367
REMARK  4 active torsions:
REMARK  status: ('A' for Active; 'I' for Inactive)
REMARK    1  A    between atoms: C_2  and  C_9 
REMARK    2  A    between atoms: C_4  and  C_10 
REMARK    3  A    between atoms: N_8  and  C_13 
REMARK    4  A    between atoms: C_19  and  O_22 
ROOT
HETATM    1  C   UNL     1     -67.638 -25.429   5.068  1.00  0.00     0.097 C 
HETATM    2  C   UNL     1     -65.757 -24.097   4.357  1.00  0.00    -0.012 C 
HETATM    3  C   UNL     1     -66.963 -25.542   2.808  1.00  0.00     0.120 C 
HETATM    4  N   UNL     1     -67.870 -25.858   3.779  1.00  0.00    -0.331 N 
HETATM    5  S   UNL     1     -64.352 -25.037   2.209  1.00  0.00    -0.078 SA
HETATM    6  C   UNL     1     -66.660 -24.485   5.356  1.00  0.00     0.030 C 
HETATM    7  C   UNL     1     -65.811 -24.845   3.154  1.00  0.00     0.057 C 
ENDROOT
BRANCH   2   8
HETATM    8  C   UNL     1     -64.890 -22.938   4.566  1.00  0.00     0.013 C 
HETATM    9  C   UNL     1     -63.624 -22.838   4.916  1.00  0.00     0.001 C 
BRANCH   9  10
HETATM   10  C   UNL     1     -63.068 -22.130   6.047  1.00  0.00     0.003 C 
HETATM   11  C   UNL     1     -62.429 -22.617   7.116  1.00  0.00    -0.075 C 
HETATM   12  C   UNL     1     -60.952 -22.904   7.291  1.00  0.00     0.015 C 
HETATM   13  C   UNL     1     -63.028 -22.887   8.497  1.00  0.00     0.039 C 
HETATM   14  C   UNL     1     -60.809 -24.422   7.290  1.00  0.00     0.009 C 
HETATM   15  C   UNL     1     -60.684 -22.550   8.753  1.00  0.00     0.014 C 
HETATM   16  C   UNL     1     -61.421 -24.789   8.645  1.00  0.00     0.005 C 
HETATM   17  C   UNL     1     -61.806 -23.445   9.262  1.00  0.00    -0.010 C 
ENDBRANCH   9  10
ENDBRANCH   2   8
BRANCH   4  18
HETATM   18  C   UNL     1     -69.041 -26.638   3.521  1.00  0.00     0.038 C 
HETATM   19  C   UNL     1     -69.154 -27.322   2.299  1.00  0.00     0.033 C 
HETATM   20  C   UNL     1     -70.371 -27.887   1.912  1.00  0.00     0.039 C 
HETATM   21  C   UNL     1     -71.481 -27.716   2.731  1.00  0.00     0.065 C 
HETATM   22  C   UNL     1     -71.323 -27.281   4.045  1.00  0.00     0.039 C 
HETATM   23  C   UNL     1     -70.114 -26.679   4.413  1.00  0.00     0.033 C 
BRANCH  21  24
HETATM   24  O   UNL     1     -72.723 -27.749   2.171  1.00  0.00    -0.361 OA
ATOM     25  HO  UNL     1     -73.173 -26.929   2.005  1.00  0.00     0.217 HD
ENDBRANCH  21  24
ENDBRANCH   4  18
TORSDOF 4
ENDMDL
MODEL 3
REMARK VINA RESULT:      -9.4      3.876      5.768
REMARK  4 active torsions:
REMARK  status: ('A' for Active; 'I' for Inactive)
REMARK    1  A    between atoms: C_2  and  C_9 
REMARK    2  A    between atoms: C_4  and  C_10 
REMARK    3  A    between atoms: N_8  and  C_13 
REMARK    4  A    between atoms: C_19  and  O_22 
ROOT
HETATM    1  C   UNL     1     -66.321 -26.069   2.102  1.00  0.00     0.097 C 
HETATM    2  C   UNL     1     -64.693 -24.647   3.170  1.00  0.00    -0.012 C 
HETATM    3  C   UNL     1     -66.941 -24.921   4.071  1.00  0.00     0.120 C 
HETATM    4  N   UNL     1     -67.229 -25.855   3.117  1.00  0.00    -0.331 N 
HETATM    5  S   UNL     1     -65.683 -22.574   4.652  1.00  0.00    -0.078 SA
HETATM    6  C   UNL     1     -65.031 -25.558   2.161  1.00  0.00     0.030 C 
HETATM    7  C   UNL     1     -65.770 -24.180   3.965  1.00  0.00     0.057 C 
ENDROOT
BRANCH   2   8
HETATM    8  C   UNL     1     -63.292 -24.293   3.397  1.00  0.00     0.013 C 
HETATM    9  C   UNL     1     -62.539 -24.327   4.478  1.00  0.00     0.001 C 
BRANCH   9  10
HETATM   10  C   UNL     1     -61.815 -23.236   5.091  1.00  0.00     0.003 C 
HETATM   11  C   UNL     1     -61.744 -22.891   6.380  1.00  0.00    -0.075 C 
HETATM   12  C   UNL     1     -60.780 -23.380   7.443  1.00  0.00     0.015 C 
HETATM   13  C   UNL     1     -62.551 -21.798   7.082  1.00  0.00     0.039 C 
HETATM   14  C   UNL     1     -61.589 -24.278   8.372  1.00  0.00     0.009 C 
HETATM   15  C   UNL     1     -60.539 -22.144   8.309  1.00  0.00     0.014 C 
HETATM   16  C   UNL     1     -62.462 -23.255   9.105  1.00  0.00     0.005 C 
HETATM   17  C   UNL     1     -62.026 -21.907   8.532  1.00  0.00    -0.010 C 
ENDBRANCH   9  10
ENDBRANCH   2   8
BRANCH   4  18
HETATM   18  C   UNL     1     -68.448 -26.605   3.110  1.00  0.00     0.038 C 
HETATM   19  C   UNL     1     -68.716 -27.468   2.034  1.00  0.00     0.033 C 
HETATM   20  C   UNL     1     -69.986 -28.024   1.869  1.00  0.00     0.039 C 
HETATM   21  C   UNL     1     -70.995 -27.668   2.758  1.00  0.00     0.065 C 
HETATM   22  C   UNL     1     -70.681 -27.038   3.960  1.00  0.00     0.039 C 
HETATM   23  C   UNL     1     -69.419 -26.448   4.100  1.00  0.00     0.033 C 
BRANCH  21  24
HETATM   24  O   UNL     1     -72.290 -27.726   2.339  1.00  0.00    -0.361 OA
ATOM     25  HO  UNL     1     -72.507 -27.397   1.475  1.00  0.00     0.217 HD
ENDBRANCH  21  24
ENDBRANCH   4  18
TORSDOF 4
ENDMDL
MODEL 4
REMARK VINA RESULT:      -9.1      3.655      9.077
REMARK  4 active torsions:
REMARK  status: ('A' for Active; 'I' for Inactive)
REMARK    1  A    between atoms: C_2  and  C_9 
REMARK    2  A    between atoms: C_4  and  C_10 
REMARK    3  A    between atoms: N_8  and  C_13 
REMARK    4  A    between atoms: C_19  and  O_22 
ROOT
HETATM    1  C   UNL     1     -66.592 -26.359   1.849  1.00  0.00     0.097 C 
HETATM    2  C   UNL     1     -68.661 -26.826   2.996  1.00  0.00    -0.012 C 
HETATM    3  C   UNL     1     -67.122 -25.106   3.780  1.00  0.00     0.120 C 
HETATM    4  N   UNL     1     -66.318 -25.305   2.693  1.00  0.00    -0.331 N 
HETATM    5  S   UNL     1     -68.719 -26.252   5.668  1.00  0.00    -0.078 SA
HETATM    6  C   UNL     1     -67.790 -27.059   1.924  1.00  0.00     0.030 C 
HETATM    7  C   UNL     1     -68.157 -26.000   4.032  1.00  0.00     0.057 C 
ENDROOT
BRANCH   2   8
HETATM    8  C   UNL     1     -70.021 -27.363   2.963  1.00  0.00     0.013 C 
HETATM    9  C   UNL     1     -71.101 -26.984   2.309  1.00  0.00     0.001 C 
BRANCH   9  10
HETATM   10  C   UNL     1     -72.389 -26.620   2.856  1.00  0.00     0.003 C 
HETATM   11  C   UNL     1     -73.608 -27.021   2.479  1.00  0.00    -0.075 C 
HETATM   12  C   UNL     1     -74.391 -28.235   2.933  1.00  0.00     0.015 C 
HETATM   13  C   UNL     1     -74.583 -26.263   1.577  1.00  0.00     0.039 C 
HETATM   14  C   UNL     1     -74.391 -29.207   1.758  1.00  0.00     0.009 C 
HETATM   15  C   UNL     1     -75.839 -27.746   2.953  1.00  0.00     0.014 C 
HETATM   16  C   UNL     1     -75.333 -28.503   0.777  1.00  0.00     0.005 C 
HETATM   17  C   UNL     1     -75.777 -27.243   1.518  1.00  0.00    -0.010 C 
ENDBRANCH   9  10
ENDBRANCH   2   8
BRANCH   4  18
HETATM   18  C   UNL     1     -65.186 -24.479   2.406  1.00  0.00     0.038 C 
HETATM   19  C   UNL     1     -64.832 -24.241   1.067  1.00  0.00     0.033 C 
HETATM   20  C   UNL     1     -63.607 -23.651   0.750  1.00  0.00     0.039 C 
HETATM   21  C   UNL     1     -62.721 -23.350   1.779  1.00  0.00     0.065 C 
HETATM   22  C   UNL     1     -63.160 -23.334   3.101  1.00  0.00     0.039 C 
HETATM   23  C   UNL     1     -64.370 -23.963   3.415  1.00  0.00     0.033 C 
BRANCH  21  24
HETATM   24  O   UNL     1     -61.387 -23.307   1.505  1.00  0.00    -0.361 OA
ATOM     25  HO  UNL     1     -61.056 -23.798   0.762  1.00  0.00     0.217 HD
ENDBRANCH  21  24
ENDBRANCH   4  18
TORSDOF 4
ENDMDL
MODEL 5
REMARK VINA RESULT:      -9.0      1.080      1.796
REMARK  4 active torsions:
REMARK  status: ('A' for Active; 'I' for Inactive)
REMARK    1  A    between atoms: C_2  and  C_9 
REMARK    2  A    between atoms: C_4  and  C_10 
REMARK    3  A    between atoms: N_8  and  C_13 
REMARK    4  A    between atoms: C_19  and  O_22 
ROOT
HETATM    1  C   UNL     1     -70.548 -26.759   4.642  1.00  0.00     0.097 C 
HETATM    2  C   UNL     1     -68.295 -26.036   4.175  1.00  0.00    -0.012 C 
HETATM    3  C   UNL     1     -69.850 -26.618   2.390  1.00  0.00     0.120 C 
HETATM    4  N   UNL     1     -70.853 -26.800   3.298  1.00  0.00    -0.331 N 
HETATM    5  S   UNL     1     -67.199 -26.926   1.835  1.00  0.00    -0.078 SA
HETATM    6  C   UNL     1     -69.321 -26.292   5.095  1.00  0.00     0.030 C 
HETATM    7  C   UNL     1     -68.546 -26.449   2.842  1.00  0.00     0.057 C 
ENDROOT
BRANCH   2   8
HETATM    8  C   UNL     1     -67.095 -25.316   4.600  1.00  0.00     0.013 C 
HETATM    9  C   UNL     1     -66.914 -24.085   5.033  1.00  0.00     0.001 C 
BRANCH   9  10
HETATM   10  C   UNL     1     -66.047 -23.067   4.482  1.00  0.00     0.003 C 
HETATM   11  C   UNL     1     -64.929 -23.211   3.764  1.00  0.00    -0.075 C 
HETATM   12  C   UNL     1     -64.776 -23.352   2.263  1.00  0.00     0.015 C 
HETATM   13  C   UNL     1     -63.492 -23.135   4.281  1.00  0.00     0.039 C 
HETATM   14  C   UNL     1     -64.383 -24.803   2.008  1.00  0.00     0.009 C 
HETATM   15  C   UNL     1     -63.479 -22.602   1.959  1.00  0.00     0.014 C 
HETATM   16  C   UNL     1     -62.944 -24.828   2.532  1.00  0.00     0.005 C 
HETATM   17  C   UNL     1     -62.683 -23.393   2.989  1.00  0.00    -0.010 C 
ENDBRANCH   9  10
ENDBRANCH   2   8
BRANCH   4  18
HETATM   18  C   UNL     1     -72.208 -27.058   2.915  1.00  0.00     0.038 C 
HETATM   19  C   UNL     1     -72.850 -28.211   3.399  1.00  0.00     0.033 C 
HETATM   20  C   UNL     1     -74.071 -28.621   2.861  1.00  0.00     0.039 C 
HETATM   21  C   UNL     1     -74.615 -27.900   1.803  1.00  0.00     0.065 C 
HETATM   22  C   UNL     1     -74.134 -26.628   1.500  1.00  0.00     0.039 C 
HETATM   23  C   UNL     1     -72.890 -26.241   2.011  1.00  0.00     0.033 C 
BRANCH  21  24
HETATM   24  O   UNL     1     -75.448 -28.537   0.933  1.00  0.00    -0.361 OA
ATOM     25  HO  UNL     1     -76.159 -28.048   0.537  1.00  0.00     0.217 HD
ENDBRANCH  21  24
ENDBRANCH   4  18
TORSDOF 4
ENDMDL
MODEL 6
REMARK VINA RESULT:      -8.9      1.063      1.456
REMARK  4 active torsions:
REMARK  status: ('A' for Active; 'I' for Inactive)
REMARK    1  A    between atoms: C_2  and  C_9 
REMARK    2  A    between atoms: C_4  and  C_10 
REMARK    3  A    between atoms: N_8  and  C_13 
REMARK    4  A    between atoms: C_19  and  O_22 
ROOT
HETATM    1  C   UNL     1     -70.292 -26.820   4.641  1.00  0.00     0.097 C 
HETATM    2  C   UNL     1     -68.089 -25.942   4.208  1.00  0.00    -0.012 C 
HETATM    3  C   UNL     1     -69.545 -26.695   2.404  1.00  0.00     0.120 C 
HETATM    4  N   UNL     1     -70.556 -26.926   3.293  1.00  0.00    -0.331 N 
HETATM    5  S   UNL     1     -66.864 -26.816   1.926  1.00  0.00    -0.078 SA
HETATM    6  C   UNL     1     -69.116 -26.247   5.109  1.00  0.00     0.030 C 
HETATM    7  C   UNL     1     -68.271 -26.413   2.883  1.00  0.00     0.057 C 
ENDROOT
BRANCH   2   8
HETATM    8  C   UNL     1     -66.958 -25.120   4.639  1.00  0.00     0.013 C 
HETATM    9  C   UNL     1     -66.862 -23.838   4.928  1.00  0.00     0.001 C 
BRANCH   9  10
HETATM   10  C   UNL     1     -65.986 -22.855   4.330  1.00  0.00     0.003 C 
HETATM   11  C   UNL     1     -64.889 -23.043   3.590  1.00  0.00    -0.075 C 
HETATM   12  C   UNL     1     -64.773 -23.228   2.091  1.00  0.00     0.015 C 
HETATM   13  C   UNL     1     -63.438 -22.984   4.072  1.00  0.00     0.039 C 
HETATM   14  C   UNL     1     -64.418 -24.694   1.868  1.00  0.00     0.009 C 
HETATM   15  C   UNL     1     -63.468 -22.516   1.737  1.00  0.00     0.014 C 
HETATM   16  C   UNL     1     -62.967 -24.736   2.360  1.00  0.00     0.005 C 
HETATM   17  C   UNL     1     -62.666 -23.295   2.770  1.00  0.00    -0.010 C 
ENDBRANCH   9  10
ENDBRANCH   2   8
BRANCH   4  18
HETATM   18  C   UNL     1     -71.877 -27.298   2.884  1.00  0.00     0.038 C 
HETATM   19  C   UNL     1     -72.634 -26.401   2.112  1.00  0.00     0.033 C 
HETATM   20  C   UNL     1     -73.997 -26.620   1.903  1.00  0.00     0.039 C 
HETATM   21  C   UNL     1     -74.603 -27.712   2.516  1.00  0.00     0.065 C 
HETATM   22  C   UNL     1     -73.826 -28.736   3.052  1.00  0.00     0.039 C 
HETATM   23  C   UNL     1     -72.469 -28.493   3.295  1.00  0.00     0.033 C 
BRANCH  21  24
HETATM   24  O   UNL     1     -75.936 -27.653   2.792  1.00  0.00    -0.361 OA
ATOM     25  HO  UNL     1     -76.266 -28.110   3.557  1.00  0.00     0.217 HD
ENDBRANCH  21  24
ENDBRANCH   4  18
TORSDOF 4
ENDMDL
MODEL 7
REMARK VINA RESULT:      -8.8      5.604      9.577
REMARK  4 active torsions:
REMARK  status: ('A' for Active; 'I' for Inactive)
REMARK    1  A    between atoms: C_2  and  C_9 
REMARK    2  A    between atoms: C_4  and  C_10 
REMARK    3  A    between atoms: N_8  and  C_13 
REMARK    4  A    between atoms: C_19  and  O_22 
ROOT
HETATM    1  C   UNL     1     -64.066 -23.100   5.471  1.00  0.00     0.097 C 
HETATM    2  C   UNL     1     -63.591 -23.973   3.274  1.00  0.00    -0.012 C 
HETATM    3  C   UNL     1     -61.892 -22.824   4.590  1.00  0.00     0.120 C 
HETATM    4  N   UNL     1     -62.752 -22.725   5.647  1.00  0.00    -0.331 N 
HETATM    5  S   UNL     1     -61.595 -22.729   1.883  1.00  0.00    -0.078 SA
HETATM    6  C   UNL     1     -64.477 -23.803   4.346  1.00  0.00     0.030 C 
HETATM    7  C   UNL     1     -62.376 -23.248   3.358  1.00  0.00     0.057 C 
ENDROOT
BRANCH   2   8
HETATM    8  C   UNL     1     -63.915 -24.911   2.199  1.00  0.00     0.013 C 
HETATM    9  C   UNL     1     -64.691 -24.802   1.140  1.00  0.00     0.001 C 
BRANCH   9  10
HETATM   10  C   UNL     1     -65.816 -25.633   0.772  1.00  0.00     0.003 C 
HETATM   11  C   UNL     1     -66.786 -26.129   1.547  1.00  0.00    -0.075 C 
HETATM   12  C   UNL     1     -68.107 -25.497   1.936  1.00  0.00     0.015 C 
HETATM   13  C   UNL     1     -66.859 -27.539   2.134  1.00  0.00     0.039 C 
HETATM   14  C   UNL     1     -67.981 -25.119   3.409  1.00  0.00     0.009 C 
HETATM   15  C   UNL     1     -69.075 -26.679   1.982  1.00  0.00     0.014 C 
HETATM   16  C   UNL     1     -68.015 -26.495   4.082  1.00  0.00     0.005 C 
HETATM   17  C   UNL     1     -68.186 -27.478   2.925  1.00  0.00    -0.010 C 
ENDBRANCH   9  10
ENDBRANCH   2   8
BRANCH   4  18
HETATM   18  C   UNL     1     -62.352 -22.224   6.927  1.00  0.00     0.038 C 
HETATM   19  C   UNL     1     -61.674 -23.076   7.815  1.00  0.00     0.033 C 
HETATM   20  C   UNL     1     -61.486 -22.706   9.148  1.00  0.00     0.039 C 
HETATM   21  C   UNL     1     -62.027 -21.505   9.595  1.00  0.00     0.065 C 
HETATM   22  C   UNL     1     -62.459 -20.548   8.680  1.00  0.00     0.039 C 
HETATM   23  C   UNL     1     -62.684 -20.937   7.355  1.00  0.00     0.033 C 
BRANCH  21  24
HETATM   24  O   UNL     1     -62.344 -21.378  10.914  1.00  0.00    -0.361 OA
ATOM     25  HO  UNL     1     -62.759 -20.576  11.210  1.00  0.00     0.217 HD
ENDBRANCH  21  24
ENDBRANCH   4  18
TORSDOF 4
ENDMDL
MODEL 8
REMARK VINA RESULT:      -8.2      1.397      2.120
REMARK  4 active torsions:
REMARK  status: ('A' for Active; 'I' for Inactive)
REMARK    1  A    between atoms: C_2  and  C_9 
REMARK    2  A    between atoms: C_4  and  C_10 
REMARK    3  A    between atoms: N_8  and  C_13 
REMARK    4  A    between atoms: C_19  and  O_22 
ROOT
HETATM    1  C   UNL     1     -69.020 -26.069   4.637  1.00  0.00     0.097 C 
HETATM    2  C   UNL     1     -66.881 -25.130   4.039  1.00  0.00    -0.012 C 
HETATM    3  C   UNL     1     -68.325 -26.185   2.383  1.00  0.00     0.120 C 
HETATM    4  N   UNL     1     -69.304 -26.359   3.320  1.00  0.00    -0.331 N 
HETATM    5  S   UNL     1     -65.652 -26.215   1.852  1.00  0.00    -0.078 SA
HETATM    6  C   UNL     1     -67.871 -25.377   4.999  1.00  0.00     0.030 C 
HETATM    7  C   UNL     1     -67.061 -25.774   2.789  1.00  0.00     0.057 C 
ENDROOT
BRANCH   2   8
HETATM    8  C   UNL     1     -65.793 -24.198   4.334  1.00  0.00     0.013 C 
HETATM    9  C   UNL     1     -65.759 -22.884   4.421  1.00  0.00     0.001 C 
BRANCH   9  10
HETATM   10  C   UNL     1     -64.930 -21.964   3.675  1.00  0.00     0.003 C 
HETATM   11  C   UNL     1     -64.248 -22.172   2.544  1.00  0.00    -0.075 C 
HETATM   12  C   UNL     1     -64.718 -22.024   1.111  1.00  0.00     0.015 C 
HETATM   13  C   UNL     1     -62.757 -22.488   2.418  1.00  0.00     0.039 C 
HETATM   14  C   UNL     1     -64.849 -23.439   0.557  1.00  0.00     0.009 C 
HETATM   15  C   UNL     1     -63.484 -21.497   0.378  1.00  0.00     0.014 C 
HETATM   16  C   UNL     1     -63.380 -23.854   0.425  1.00  0.00     0.005 C 
HETATM   17  C   UNL     1     -62.597 -22.626   0.887  1.00  0.00    -0.010 C 
ENDBRANCH   9  10
ENDBRANCH   2   8
BRANCH   4  18
HETATM   18  C   UNL     1     -70.607 -26.853   2.997  1.00  0.00     0.038 C 
HETATM   19  C   UNL     1     -71.274 -26.342   1.871  1.00  0.00     0.033 C 
HETATM   20  C   UNL     1     -72.628 -26.614   1.664  1.00  0.00     0.039 C 
HETATM   21  C   UNL     1     -73.317 -27.356   2.618  1.00  0.00     0.065 C 
HETATM   22  C   UNL     1     -72.619 -28.080   3.582  1.00  0.00     0.039 C 
HETATM   23  C   UNL     1     -71.273 -27.771   3.811  1.00  0.00     0.033 C 
BRANCH  21  24
HETATM   24  O   UNL     1     -74.662 -27.178   2.742  1.00  0.00    -0.361 OA
ATOM     25  HO  UNL     1     -75.097 -26.559   2.168  1.00  0.00     0.217 HD
ENDBRANCH  21  24
ENDBRANCH   4  18
TORSDOF 4
ENDMDL
MODEL 9
REMARK VINA RESULT:      -8.0      5.010      7.253
REMARK  4 active torsions:
REMARK  status: ('A' for Active; 'I' for Inactive)
REMARK    1  A    between atoms: C_2  and  C_9 
REMARK    2  A    between atoms: C_4  and  C_10 
REMARK    3  A    between atoms: N_8  and  C_13 
REMARK    4  A    between atoms: C_19  and  O_22 
ROOT
HETATM    1  C   UNL     1     -64.434 -25.095   2.848  1.00  0.00     0.097 C 
HETATM    2  C   UNL     1     -63.198 -23.899   4.539  1.00  0.00    -0.012 C 
HETATM    3  C   UNL     1     -65.635 -23.866   4.468  1.00  0.00     0.120 C 
HETATM    4  N   UNL     1     -65.635 -24.757   3.433  1.00  0.00    -0.331 N 
HETATM    5  S   UNL     1     -64.427 -21.706   5.611  1.00  0.00    -0.078 SA
HETATM    6  C   UNL     1     -63.219 -24.761   3.434  1.00  0.00     0.030 C 
HETATM    7  C   UNL     1     -64.435 -23.289   4.867  1.00  0.00     0.057 C 
ENDROOT
BRANCH   2   8
HETATM    8  C   UNL     1     -61.969 -23.736   5.315  1.00  0.00     0.013 C 
HETATM    9  C   UNL     1     -61.215 -24.602   5.960  1.00  0.00     0.001 C 
BRANCH   9  10
HETATM   10  C   UNL     1     -60.847 -24.591   7.359  1.00  0.00     0.003 C 
HETATM   11  C   UNL     1     -60.912 -23.588   8.240  1.00  0.00    -0.075 C 
HETATM   12  C   UNL     1     -62.070 -23.176   9.125  1.00  0.00     0.015 C 
HETATM   13  C   UNL     1     -59.765 -22.674   8.674  1.00  0.00     0.039 C 
HETATM   14  C   UNL     1     -62.608 -21.872   8.545  1.00  0.00     0.009 C 
HETATM   15  C   UNL     1     -61.393 -22.707  10.413  1.00  0.00     0.014 C 
HETATM   16  C   UNL     1     -61.492 -20.889   8.911  1.00  0.00     0.005 C 
HETATM   17  C   UNL     1     -60.478 -21.738   9.677  1.00  0.00    -0.010 C 
ENDBRANCH   9  10
ENDBRANCH   2   8
BRANCH   4  18
HETATM   18  C   UNL     1     -66.834 -25.337   2.910  1.00  0.00     0.038 C 
HETATM   19  C   UNL     1     -67.983 -25.381   3.718  1.00  0.00     0.033 C 
HETATM   20  C   UNL     1     -69.087 -26.148   3.341  1.00  0.00     0.039 C 
HETATM   21  C   UNL     1     -69.010 -26.909   2.179  1.00  0.00     0.065 C 
HETATM   22  C   UNL     1     -68.001 -26.670   1.249  1.00  0.00     0.039 C 
HETATM   23  C   UNL     1     -66.879 -25.934   1.649  1.00  0.00     0.033 C 
BRANCH  21  24
HETATM   24  O   UNL     1     -69.778 -28.030   2.076  1.00  0.00    -0.361 OA
ATOM     25  HO  UNL     1     -69.961 -28.533   2.861  1.00  0.00     0.217 HD
ENDBRANCH  21  24
ENDBRANCH   4  18
TORSDOF 4
ENDMDL
