MODEL 1
REMARK VINA RESULT:      -9.3      0.000      0.000
REMARK  7 active torsions:
REMARK  status: ('A' for Active; 'I' for Inactive)
REMARK    1  A    between atoms: C_1  and  O_14 
REMARK    2  A    between atoms: C_1  and  O_26 
REMARK    3  A    between atoms: C_3  and  N_33 
REMARK    4  A    between atoms: C_8  and  C_32 
REMARK       I    between atoms: C_8  and  N_33 
REMARK    5  A    between atoms: C_16  and  C_30 
REMARK    6  A    between atoms: C_16  and  C_35 
REMARK    7  A    between atoms: C_17  and  N_36 
ROOT
HETATM    1  C   UNL     1      -9.726  19.714  -2.314  1.00  0.00     0.201 C 
HETATM    2  C   UNL     1      -8.312  19.194  -2.460  1.00  0.00     0.060 C 
HETATM    3  C   UNL     1      -8.200  18.663   0.401  1.00  0.00    -0.047 C 
HETATM    4  C   UNL     1      -8.155  18.157   1.664  1.00  0.00     0.010 C 
HETATM    5  C   UNL     1      -7.260  17.261   2.139  1.00  0.00     0.029 C 
HETATM    6  C   UNL     1      -6.581  16.296   1.428  1.00  0.00     0.025 C 
HETATM    7  C   UNL     1      -8.007  20.738  -0.641  1.00  0.00     0.025 C 
HETATM    8  C   UNL     1      -9.027  19.881   0.085  1.00  0.00     0.025 C 
HETATM    9  C   UNL     1      -7.242  18.496  -0.557  1.00  0.00    -0.042 C 
HETATM   10  C   UNL     1      -7.304  19.669  -1.487  1.00  0.00     0.071 C 
HETATM   11  C   UNL     1      -6.374  17.471  -0.726  1.00  0.00     0.011 C 
HETATM   12  C   UNL     1      -6.118  16.452   0.138  1.00  0.00     0.029 C 
HETATM   13  C   UNL     1     -10.138  19.481  -0.872  1.00  0.00     0.084 C 
ENDROOT
BRANCH   2  14
HETATM   14  N   UNL     1      -7.975  19.017  -3.816  1.00  0.00    -0.324 N 
HETATM   15  C   UNL     1      -7.944  17.843  -4.438  1.00  0.00     0.257 C 
HETATM   16  O   UNL     1      -8.756  16.942  -4.300  1.00  0.00    -0.267 OA
ATOM     17  HN  UNL     1      -7.739  19.848  -4.359  1.00  0.00     0.169 HD
BRANCH  15  18
HETATM   18  C   UNL     1      -6.770  17.711  -5.291  1.00  0.00     0.047 C 
HETATM   19  C   UNL     1      -5.680  17.118  -4.682  1.00  0.00     0.018 C 
HETATM   20  C   UNL     1      -4.569  16.647  -5.338  1.00  0.00     0.003 C 
HETATM   21  C   UNL     1      -4.291  17.023  -6.635  1.00  0.00     0.025 C 
HETATM   22  C   UNL     1      -4.582  18.295  -7.096  1.00  0.00     0.013 C 
HETATM   23  N   UNL     1      -5.854  18.639  -7.340  1.00  0.00    -0.368 N 
HETATM   24  C   UNL     1      -6.844  18.233  -6.555  1.00  0.00     0.105 C 
ATOM     25  HN  UNL     1      -6.065  19.226  -8.147  1.00  0.00     0.165 HD
BRANCH  22  26
HETATM   26  C   UNL     1      -3.489  19.294  -7.393  1.00  0.00     0.095 C 
BRANCH  26  27
HETATM   27  C   UNL     1      -2.586  18.890  -8.546  1.00  0.00    -0.053 C 
HETATM   28  C   UNL     1      -1.353  18.282  -8.358  1.00  0.00     0.007 C 
HETATM   29  C   UNL     1      -0.705  17.687  -9.439  1.00  0.00     0.001 C 
HETATM   30  C   UNL     1      -1.246  17.768 -10.711  1.00  0.00     0.000 C 
HETATM   31  C   UNL     1      -2.417  18.487 -10.913  1.00  0.00     0.001 C 
HETATM   32  C   UNL     1      -3.054  19.105  -9.840  1.00  0.00     0.007 C 
ENDBRANCH  26  27
ENDBRANCH  22  26
ENDBRANCH  15  18
ENDBRANCH   2  14
BRANCH   1  33
HETATM   33  O   UNL     1     -10.542  19.038  -3.207  1.00  0.00    -0.361 OA
ATOM     34  HO  UNL     1     -10.859  18.246  -2.790  1.00  0.00     0.213 HD
ENDBRANCH   1  33
BRANCH   1  35
HETATM   35  O   UNL     1      -9.851  21.049  -2.688  1.00  0.00    -0.361 OA
ATOM     36  HO  UNL     1      -9.974  21.629  -1.945  1.00  0.00     0.213 HD
ENDBRANCH   1  35
BRANCH   6  37
HETATM   37  N   UNL     1      -6.432  15.107   2.050  1.00  0.00    -0.399 N 
ATOM     38  HN2 UNL     1      -6.563  15.048   3.059  1.00  0.00     0.156 HD
ATOM     39  HN1 UNL     1      -6.145  14.331   1.454  1.00  0.00     0.156 HD
ENDBRANCH   6  37
TORSDOF 7
ENDMDL
MODEL 2
REMARK VINA RESULT:      -9.2      4.280      8.137
REMARK  7 active torsions:
REMARK  status: ('A' for Active; 'I' for Inactive)
REMARK    1  A    between atoms: C_1  and  O_14 
REMARK    2  A    between atoms: C_1  and  O_26 
REMARK    3  A    between atoms: C_3  and  N_33 
REMARK    4  A    between atoms: C_8  and  C_32 
REMARK       I    between atoms: C_8  and  N_33 
REMARK    5  A    between atoms: C_16  and  C_30 
REMARK    6  A    between atoms: C_16  and  C_35 
REMARK    7  A    between atoms: C_17  and  N_36 
ROOT
HETATM    1  C   UNL     1      -8.628  19.393  -4.928  1.00  0.00     0.201 C 
HETATM    2  C   UNL     1      -8.904  18.400  -3.819  1.00  0.00     0.060 C 
HETATM    3  C   UNL     1     -11.469  17.741  -5.030  1.00  0.00    -0.047 C 
HETATM    4  C   UNL     1     -12.549  17.198  -5.656  1.00  0.00     0.010 C 
HETATM    5  C   UNL     1     -13.140  16.018  -5.360  1.00  0.00     0.029 C 
HETATM    6  C   UNL     1     -12.554  14.905  -4.799  1.00  0.00     0.025 C 
HETATM    7  C   UNL     1     -10.961  19.647  -3.789  1.00  0.00     0.025 C 
HETATM    8  C   UNL     1     -11.106  19.189  -5.229  1.00  0.00     0.025 C 
HETATM    9  C   UNL     1     -10.902  17.279  -3.878  1.00  0.00    -0.042 C 
HETATM   10  C   UNL     1     -10.242  18.433  -3.188  1.00  0.00     0.071 C 
HETATM   11  C   UNL     1     -10.869  16.016  -3.389  1.00  0.00     0.011 C 
HETATM   12  C   UNL     1     -11.566  14.937  -3.837  1.00  0.00     0.029 C 
HETATM   13  C   UNL     1      -9.760  19.262  -5.931  1.00  0.00     0.084 C 
ENDROOT
BRANCH   2  14
HETATM   14  N   UNL     1      -7.749  18.172  -3.045  1.00  0.00    -0.324 N 
HETATM   15  C   UNL     1      -6.864  17.209  -3.278  1.00  0.00     0.257 C 
HETATM   16  O   UNL     1      -6.456  16.867  -4.377  1.00  0.00    -0.267 OA
ATOM     17  HN  UNL     1      -7.580  18.790  -2.251  1.00  0.00     0.169 HD
BRANCH  15  18
HETATM   18  C   UNL     1      -6.454  16.539  -2.051  1.00  0.00     0.047 C 
HETATM   19  C   UNL     1      -7.418  15.722  -1.492  1.00  0.00     0.018 C 
HETATM   20  C   UNL     1      -7.191  14.795  -0.505  1.00  0.00     0.003 C 
HETATM   21  C   UNL     1      -6.041  14.826   0.255  1.00  0.00     0.025 C 
HETATM   22  C   UNL     1      -5.444  16.022   0.613  1.00  0.00     0.013 C 
HETATM   23  N   UNL     1      -4.776  16.733  -0.305  1.00  0.00    -0.368 N 
HETATM   24  C   UNL     1      -5.211  16.831  -1.556  1.00  0.00     0.105 C 
ATOM     25  HN  UNL     1      -3.915  17.210  -0.037  1.00  0.00     0.165 HD
BRANCH  22  26
HETATM   26  C   UNL     1      -5.473  16.520   2.039  1.00  0.00     0.095 C 
BRANCH  26  27
HETATM   27  C   UNL     1      -6.793  17.159   2.438  1.00  0.00    -0.053 C 
HETATM   28  C   UNL     1      -7.550  17.929   1.567  1.00  0.00     0.007 C 
HETATM   29  C   UNL     1      -8.866  18.249   1.895  1.00  0.00     0.001 C 
HETATM   30  C   UNL     1      -9.395  17.872   3.117  1.00  0.00     0.000 C 
HETATM   31  C   UNL     1      -8.591  17.212   4.037  1.00  0.00     0.001 C 
HETATM   32  C   UNL     1      -7.268  16.912   3.724  1.00  0.00     0.007 C 
ENDBRANCH  26  27
ENDBRANCH  22  26
ENDBRANCH  15  18
ENDBRANCH   2  14
BRANCH   1  33
HETATM   33  O   UNL     1      -7.395  19.100  -5.490  1.00  0.00    -0.361 OA
ATOM     34  HO  UNL     1      -6.724  19.218  -4.828  1.00  0.00     0.213 HD
ENDBRANCH   1  33
BRANCH   1  35
HETATM   35  O   UNL     1      -8.485  20.697  -4.462  1.00  0.00    -0.361 OA
ATOM     36  HO  UNL     1      -8.886  21.339  -5.036  1.00  0.00     0.213 HD
ENDBRANCH   1  35
BRANCH   6  37
HETATM   37  N   UNL     1     -12.960  13.717  -5.297  1.00  0.00    -0.399 N 
ATOM     38  HN2 UNL     1     -13.842  13.660  -5.806  1.00  0.00     0.156 HD
ATOM     39  HN1 UNL     1     -12.359  12.921  -5.084  1.00  0.00     0.156 HD
ENDBRANCH   6  37
TORSDOF 7
ENDMDL
MODEL 3
REMARK VINA RESULT:      -9.1      1.903      2.792
REMARK  7 active torsions:
REMARK  status: ('A' for Active; 'I' for Inactive)
REMARK    1  A    between atoms: C_1  and  O_14 
REMARK    2  A    between atoms: C_1  and  O_26 
REMARK    3  A    between atoms: C_3  and  N_33 
REMARK    4  A    between atoms: C_8  and  C_32 
REMARK       I    between atoms: C_8  and  N_33 
REMARK    5  A    between atoms: C_16  and  C_30 
REMARK    6  A    between atoms: C_16  and  C_35 
REMARK    7  A    between atoms: C_17  and  N_36 
ROOT
HETATM    1  C   UNL     1     -10.012  18.582  -5.536  1.00  0.00     0.201 C 
HETATM    2  C   UNL     1      -8.646  18.561  -4.885  1.00  0.00     0.060 C 
HETATM    3  C   UNL     1      -9.726  19.921  -2.547  1.00  0.00    -0.047 C 
HETATM    4  C   UNL     1     -10.195  20.319  -1.333  1.00  0.00     0.010 C 
HETATM    5  C   UNL     1      -9.543  20.230  -0.151  1.00  0.00     0.029 C 
HETATM    6  C   UNL     1      -8.582  19.309   0.208  1.00  0.00     0.025 C 
HETATM    7  C   UNL     1      -9.210  20.883  -4.606  1.00  0.00     0.025 C 
HETATM    8  C   UNL     1     -10.399  20.364  -3.819  1.00  0.00     0.025 C 
HETATM    9  C   UNL     1      -8.447  19.528  -2.817  1.00  0.00    -0.042 C 
HETATM   10  C   UNL     1      -8.166  19.814  -4.260  1.00  0.00     0.071 C 
HETATM   11  C   UNL     1      -7.541  18.949  -1.994  1.00  0.00     0.011 C 
HETATM   12  C   UNL     1      -7.626  18.799  -0.644  1.00  0.00     0.029 C 
HETATM   13  C   UNL     1     -10.982  19.144  -4.513  1.00  0.00     0.084 C 
ENDROOT
BRANCH   2  14
HETATM   14  N   UNL     1      -7.760  17.725  -5.594  1.00  0.00    -0.324 N 
HETATM   15  C   UNL     1      -6.536  17.408  -5.187  1.00  0.00     0.257 C 
HETATM   16  O   UNL     1      -6.214  17.137  -4.041  1.00  0.00    -0.267 OA
ATOM     17  HN  UNL     1      -8.082  17.337  -6.481  1.00  0.00     0.169 HD
BRANCH  15  18
HETATM   18  C   UNL     1      -5.569  17.469  -6.275  1.00  0.00     0.047 C 
HETATM   19  C   UNL     1      -4.414  16.740  -6.059  1.00  0.00     0.018 C 
HETATM   20  C   UNL     1      -3.487  16.426  -7.022  1.00  0.00     0.003 C 
HETATM   21  C   UNL     1      -3.455  17.094  -8.228  1.00  0.00     0.025 C 
HETATM   22  C   UNL     1      -3.759  18.441  -8.316  1.00  0.00     0.013 C 
HETATM   23  N   UNL     1      -5.032  18.844  -8.204  1.00  0.00    -0.368 N 
HETATM   24  C   UNL     1      -5.866  18.274  -7.342  1.00  0.00     0.105 C 
ATOM     25  HN  UNL     1      -5.368  19.605  -8.794  1.00  0.00     0.165 HD
BRANCH  22  26
HETATM   26  C   UNL     1      -2.693  19.472  -8.599  1.00  0.00     0.095 C 
BRANCH  26  27
HETATM   27  C   UNL     1      -1.697  19.046  -9.665  1.00  0.00    -0.053 C 
HETATM   28  C   UNL     1      -0.415  18.608  -9.365  1.00  0.00     0.007 C 
HETATM   29  C   UNL     1       0.345  17.974 -10.345  1.00  0.00     0.001 C 
HETATM   30  C   UNL     1      -0.140  17.848 -11.636  1.00  0.00     0.000 C 
HETATM   31  C   UNL     1      -1.372  18.401 -11.961  1.00  0.00     0.001 C 
HETATM   32  C   UNL     1      -2.124  19.059 -10.991  1.00  0.00     0.007 C 
ENDBRANCH  26  27
ENDBRANCH  22  26
ENDBRANCH  15  18
ENDBRANCH   2  14
BRANCH   1  33
HETATM   33  O   UNL     1     -10.343  17.291  -5.917  1.00  0.00    -0.361 OA
ATOM     34  HO  UNL     1      -9.708  16.991  -6.556  1.00  0.00     0.213 HD
ENDBRANCH   1  33
BRANCH   1  35
HETATM   35  O   UNL     1     -10.031  19.300  -6.729  1.00  0.00    -0.361 OA
ATOM     36  HO  UNL     1     -10.269  20.212  -6.606  1.00  0.00     0.213 HD
ENDBRANCH   1  35
BRANCH   6  37
HETATM   37  N   UNL     1      -8.653  18.856   1.477  1.00  0.00    -0.399 N 
ATOM     38  HN2 UNL     1      -8.048  19.260   2.191  1.00  0.00     0.156 HD
ATOM     39  HN1 UNL     1      -9.298  18.081   1.634  1.00  0.00     0.156 HD
ENDBRANCH   6  37
TORSDOF 7
ENDMDL
MODEL 4
REMARK VINA RESULT:      -8.8      4.365      8.190
REMARK  7 active torsions:
REMARK  status: ('A' for Active; 'I' for Inactive)
REMARK    1  A    between atoms: C_1  and  O_14 
REMARK    2  A    between atoms: C_1  and  O_26 
REMARK    3  A    between atoms: C_3  and  N_33 
REMARK    4  A    between atoms: C_8  and  C_32 
REMARK       I    between atoms: C_8  and  N_33 
REMARK    5  A    between atoms: C_16  and  C_30 
REMARK    6  A    between atoms: C_16  and  C_35 
REMARK    7  A    between atoms: C_17  and  N_36 
ROOT
HETATM    1  C   UNL     1      -8.859  19.536  -4.901  1.00  0.00     0.201 C 
HETATM    2  C   UNL     1      -8.945  18.572  -3.737  1.00  0.00     0.060 C 
HETATM    3  C   UNL     1     -11.429  17.488  -4.804  1.00  0.00    -0.047 C 
HETATM    4  C   UNL     1     -12.440  16.764  -5.356  1.00  0.00     0.010 C 
HETATM    5  C   UNL     1     -12.841  15.528  -4.981  1.00  0.00     0.029 C 
HETATM    6  C   UNL     1     -12.078  14.541  -4.397  1.00  0.00     0.025 C 
HETATM    7  C   UNL     1     -11.160  19.509  -3.674  1.00  0.00     0.025 C 
HETATM    8  C   UNL     1     -11.289  18.961  -5.083  1.00  0.00     0.025 C 
HETATM    9  C   UNL     1     -10.758  17.173  -3.658  1.00  0.00    -0.042 C 
HETATM   10  C   UNL     1     -10.249  18.445  -3.050  1.00  0.00     0.071 C 
HETATM   11  C   UNL     1     -10.523  15.955  -3.114  1.00  0.00     0.011 C 
HETATM   12  C   UNL     1     -11.071  14.765  -3.481  1.00  0.00     0.029 C 
HETATM   13  C   UNL     1      -9.995  19.193  -5.846  1.00  0.00     0.084 C 
ENDROOT
BRANCH   2  14
HETATM   14  N   UNL     1      -7.741  18.554  -3.005  1.00  0.00    -0.324 N 
HETATM   15  C   UNL     1      -6.892  17.532  -2.978  1.00  0.00     0.257 C 
HETATM   16  O   UNL     1      -6.570  16.848  -3.936  1.00  0.00    -0.267 OA
ATOM     17  HN  UNL     1      -7.505  19.382  -2.458  1.00  0.00     0.169 HD
BRANCH  15  18
HETATM   18  C   UNL     1      -6.406  17.265  -1.631  1.00  0.00     0.047 C 
HETATM   19  C   UNL     1      -6.137  15.934  -1.370  1.00  0.00     0.018 C 
HETATM   20  C   UNL     1      -5.432  15.469  -0.288  1.00  0.00     0.003 C 
HETATM   21  C   UNL     1      -5.210  16.263   0.816  1.00  0.00     0.025 C 
HETATM   22  C   UNL     1      -6.156  17.174   1.253  1.00  0.00     0.013 C 
HETATM   23  N   UNL     1      -6.358  18.305   0.564  1.00  0.00    -0.368 N 
HETATM   24  C   UNL     1      -6.329  18.322  -0.763  1.00  0.00     0.105 C 
ATOM     25  HN  UNL     1      -6.537  19.172   1.070  1.00  0.00     0.165 HD
BRANCH  22  26
HETATM   26  C   UNL     1      -6.931  16.953   2.530  1.00  0.00     0.095 C 
BRANCH  26  27
HETATM   27  C   UNL     1      -7.797  15.705   2.514  1.00  0.00    -0.053 C 
HETATM   28  C   UNL     1      -8.751  15.464   1.535  1.00  0.00     0.007 C 
HETATM   29  C   UNL     1      -9.309  14.193   1.414  1.00  0.00     0.001 C 
HETATM   30  C   UNL     1      -8.978  13.194   2.313  1.00  0.00     0.000 C 
HETATM   31  C   UNL     1      -8.119  13.477   3.367  1.00  0.00     0.001 C 
HETATM   32  C   UNL     1      -7.578  14.752   3.507  1.00  0.00     0.007 C 
ENDBRANCH  26  27
ENDBRANCH  22  26
ENDBRANCH  15  18
ENDBRANCH   2  14
BRANCH   1  33
HETATM   33  O   UNL     1      -7.618  19.396  -5.502  1.00  0.00    -0.361 OA
ATOM     34  HO  UNL     1      -7.582  18.549  -5.932  1.00  0.00     0.213 HD
ENDBRANCH   1  33
BRANCH   1  35
HETATM   35  O   UNL     1      -8.891  20.869  -4.502  1.00  0.00    -0.361 OA
ATOM     36  HO  UNL     1      -9.768  21.171  -4.296  1.00  0.00     0.213 HD
ENDBRANCH   1  35
BRANCH   6  37
HETATM   37  N   UNL     1     -12.324  13.284  -4.821  1.00  0.00    -0.399 N 
ATOM     38  HN2 UNL     1     -11.827  12.502  -4.395  1.00  0.00     0.156 HD
ATOM     39  HN1 UNL     1     -12.980  13.200  -5.597  1.00  0.00     0.156 HD
ENDBRANCH   6  37
TORSDOF 7
ENDMDL
MODEL 5
REMARK VINA RESULT:      -8.6      4.354      6.957
REMARK  7 active torsions:
REMARK  status: ('A' for Active; 'I' for Inactive)
REMARK    1  A    between atoms: C_1  and  O_14 
REMARK    2  A    between atoms: C_1  and  O_26 
REMARK    3  A    between atoms: C_3  and  N_33 
REMARK    4  A    between atoms: C_8  and  C_32 
REMARK       I    between atoms: C_8  and  N_33 
REMARK    5  A    between atoms: C_16  and  C_30 
REMARK    6  A    between atoms: C_16  and  C_35 
REMARK    7  A    between atoms: C_17  and  N_36 
ROOT
HETATM    1  C   UNL     1      -7.093  17.914  -0.111  1.00  0.00     0.201 C 
HETATM    2  C   UNL     1      -7.448  16.503  -0.529  1.00  0.00     0.060 C 
HETATM    3  C   UNL     1      -7.066  15.584   2.208  1.00  0.00    -0.047 C 
HETATM    4  C   UNL     1      -7.155  15.126   3.487  1.00  0.00     0.010 C 
HETATM    5  C   UNL     1      -7.743  13.977   3.890  1.00  0.00     0.029 C 
HETATM    6  C   UNL     1      -8.784  13.309   3.282  1.00  0.00     0.025 C 
HETATM    7  C   UNL     1      -5.399  16.087   0.659  1.00  0.00     0.025 C 
HETATM    8  C   UNL     1      -6.118  16.697   1.849  1.00  0.00     0.025 C 
HETATM    9  C   UNL     1      -7.393  14.878   1.086  1.00  0.00    -0.042 C 
HETATM   10  C   UNL     1      -6.575  15.408  -0.052  1.00  0.00     0.071 C 
HETATM   11  C   UNL     1      -8.301  13.885   0.937  1.00  0.00     0.011 C 
HETATM   12  C   UNL     1      -8.969  13.220   1.918  1.00  0.00     0.029 C 
HETATM   13  C   UNL     1      -6.928  17.902   1.397  1.00  0.00     0.084 C 
ENDROOT
BRANCH   2  14
HETATM   14  N   UNL     1      -7.984  16.481  -1.832  1.00  0.00    -0.324 N 
HETATM   15  C   UNL     1      -7.319  16.835  -2.926  1.00  0.00     0.257 C 
HETATM   16  O   UNL     1      -6.154  16.564  -3.170  1.00  0.00    -0.267 OA
ATOM     17  HN  UNL     1      -8.951  16.172  -1.942  1.00  0.00     0.169 HD
BRANCH  15  18
HETATM   18  C   UNL     1      -8.131  17.654  -3.815  1.00  0.00     0.047 C 
HETATM   19  C   UNL     1      -7.729  18.974  -3.908  1.00  0.00     0.018 C 
HETATM   20  C   UNL     1      -8.156  19.864  -4.863  1.00  0.00     0.003 C 
HETATM   21  C   UNL     1      -9.281  19.615  -5.620  1.00  0.00     0.025 C 
HETATM   22  C   UNL     1     -10.379  18.962  -5.088  1.00  0.00     0.013 C 
HETATM   23  N   UNL     1     -10.323  17.643  -4.861  1.00  0.00    -0.368 N 
HETATM   24  C   UNL     1      -9.220  17.066  -4.401  1.00  0.00     0.105 C 
ATOM     25  HN  UNL     1     -11.146  17.070  -5.046  1.00  0.00     0.165 HD
BRANCH  22  26
HETATM   26  C   UNL     1     -11.672  19.693  -4.812  1.00  0.00     0.095 C 
BRANCH  26  27
HETATM   27  C   UNL     1     -12.175  19.533  -3.387  1.00  0.00    -0.053 C 
HETATM   28  C   UNL     1     -13.444  19.061  -3.085  1.00  0.00     0.007 C 
HETATM   29  C   UNL     1     -13.744  18.675  -1.781  1.00  0.00     0.001 C 
HETATM   30  C   UNL     1     -12.811  18.834  -0.770  1.00  0.00     0.000 C 
HETATM   31  C   UNL     1     -11.587  19.425  -1.056  1.00  0.00     0.001 C 
HETATM   32  C   UNL     1     -11.292  19.835  -2.353  1.00  0.00     0.007 C 
ENDBRANCH  26  27
ENDBRANCH  22  26
ENDBRANCH  15  18
ENDBRANCH   2  14
BRANCH   1  33
HETATM   33  O   UNL     1      -8.106  18.767  -0.519  1.00  0.00    -0.361 OA
ATOM     34  HO  UNL     1      -8.649  18.976   0.232  1.00  0.00     0.213 HD
ENDBRANCH   1  33
BRANCH   1  35
HETATM   35  O   UNL     1      -5.961  18.400  -0.760  1.00  0.00    -0.361 OA
ATOM     36  HO  UNL     1      -5.260  17.761  -0.807  1.00  0.00     0.213 HD
ENDBRANCH   1  35
BRANCH   6  37
HETATM   37  N   UNL     1      -9.698  12.769   4.115  1.00  0.00    -0.399 N 
ATOM     38  HN2 UNL     1     -10.690  12.851   3.894  1.00  0.00     0.156 HD
ATOM     39  HN1 UNL     1      -9.325  12.340   4.961  1.00  0.00     0.156 HD
ENDBRANCH   6  37
TORSDOF 7
ENDMDL
MODEL 6
REMARK VINA RESULT:      -8.5      2.442      3.554
REMARK  7 active torsions:
REMARK  status: ('A' for Active; 'I' for Inactive)
REMARK    1  A    between atoms: C_1  and  O_14 
REMARK    2  A    between atoms: C_1  and  O_26 
REMARK    3  A    between atoms: C_3  and  N_33 
REMARK    4  A    between atoms: C_8  and  C_32 
REMARK       I    between atoms: C_8  and  N_33 
REMARK    5  A    between atoms: C_16  and  C_30 
REMARK    6  A    between atoms: C_16  and  C_35 
REMARK    7  A    between atoms: C_17  and  N_36 
ROOT
HETATM    1  C   UNL     1     -11.503  17.200  -3.983  1.00  0.00     0.201 C 
HETATM    2  C   UNL     1     -10.231  17.905  -3.560  1.00  0.00     0.060 C 
HETATM    3  C   UNL     1     -11.729  19.463  -1.609  1.00  0.00    -0.047 C 
HETATM    4  C   UNL     1     -12.300  20.041  -0.516  1.00  0.00     0.010 C 
HETATM    5  C   UNL     1     -11.649  20.598   0.530  1.00  0.00     0.029 C 
HETATM    6  C   UNL     1     -10.397  20.276   1.006  1.00  0.00     0.025 C 
HETATM    7  C   UNL     1     -11.667  19.802  -3.914  1.00  0.00     0.025 C 
HETATM    8  C   UNL     1     -12.541  19.174  -2.844  1.00  0.00     0.025 C 
HETATM    9  C   UNL     1     -10.403  19.506  -1.930  1.00  0.00    -0.042 C 
HETATM   10  C   UNL     1     -10.280  19.376  -3.418  1.00  0.00     0.071 C 
HETATM   11  C   UNL     1      -9.330  19.614  -1.112  1.00  0.00     0.011 C 
HETATM   12  C   UNL     1      -9.328  19.902   0.217  1.00  0.00     0.029 C 
HETATM   13  C   UNL     1     -12.602  17.669  -3.046  1.00  0.00     0.084 C 
ENDROOT
BRANCH   2  14
HETATM   14  N   UNL     1      -9.097  17.271  -4.105  1.00  0.00    -0.324 N 
HETATM   15  C   UNL     1      -7.874  17.346  -3.594  1.00  0.00     0.257 C 
HETATM   16  O   UNL     1      -7.594  17.300  -2.406  1.00  0.00    -0.267 OA
ATOM     17  HN  UNL     1      -9.225  16.716  -4.952  1.00  0.00     0.169 HD
BRANCH  15  18
HETATM   18  C   UNL     1      -6.865  17.551  -4.624  1.00  0.00     0.047 C 
HETATM   19  C   UNL     1      -7.311  18.238  -5.738  1.00  0.00     0.018 C 
HETATM   20  C   UNL     1      -6.504  18.780  -6.707  1.00  0.00     0.003 C 
HETATM   21  C   UNL     1      -5.184  18.400  -6.833  1.00  0.00     0.025 C 
HETATM   22  C   UNL     1      -4.780  17.100  -6.583  1.00  0.00     0.013 C 
HETATM   23  N   UNL     1      -4.717  16.655  -5.320  1.00  0.00    -0.368 N 
HETATM   24  C   UNL     1      -5.628  17.000  -4.419  1.00  0.00     0.105 C 
ATOM     25  HN  UNL     1      -3.952  16.038  -5.047  1.00  0.00     0.165 HD
BRANCH  22  26
HETATM   26  C   UNL     1      -4.343  16.183  -7.700  1.00  0.00     0.095 C 
BRANCH  26  27
HETATM   27  C   UNL     1      -3.348  16.815  -8.659  1.00  0.00    -0.053 C 
HETATM   28  C   UNL     1      -3.736  17.595  -9.739  1.00  0.00     0.007 C 
HETATM   29  C   UNL     1      -2.788  18.368 -10.406  1.00  0.00     0.001 C 
HETATM   30  C   UNL     1      -1.452  18.301 -10.051  1.00  0.00     0.000 C 
HETATM   31  C   UNL     1      -1.053  17.422  -9.053  1.00  0.00     0.001 C 
HETATM   32  C   UNL     1      -1.992  16.629  -8.399  1.00  0.00     0.007 C 
ENDBRANCH  26  27
ENDBRANCH  22  26
ENDBRANCH  15  18
ENDBRANCH   2  14
BRANCH   1  33
HETATM   33  O   UNL     1     -11.299  15.831  -3.905  1.00  0.00    -0.361 OA
ATOM     34  HO  UNL     1     -11.561  15.437  -4.729  1.00  0.00     0.213 HD
ENDBRANCH   1  33
BRANCH   1  35
HETATM   35  O   UNL     1     -11.822  17.418  -5.320  1.00  0.00    -0.361 OA
ATOM     36  HO  UNL     1     -11.073  17.330  -5.897  1.00  0.00     0.213 HD
ENDBRANCH   1  35
BRANCH   6  37
HETATM   37  N   UNL     1     -10.264  20.279   2.349  1.00  0.00    -0.399 N 
ATOM     38  HN2 UNL     1      -9.483  20.778   2.776  1.00  0.00     0.156 HD
ATOM     39  HN1 UNL     1     -10.950  19.727   2.862  1.00  0.00     0.156 HD
ENDBRANCH   6  37
TORSDOF 7
ENDMDL
MODEL 7
REMARK VINA RESULT:      -8.4      4.571      7.325
REMARK  7 active torsions:
REMARK  status: ('A' for Active; 'I' for Inactive)
REMARK    1  A    between atoms: C_1  and  O_14 
REMARK    2  A    between atoms: C_1  and  O_26 
REMARK    3  A    between atoms: C_3  and  N_33 
REMARK    4  A    between atoms: C_8  and  C_32 
REMARK       I    between atoms: C_8  and  N_33 
REMARK    5  A    between atoms: C_16  and  C_30 
REMARK    6  A    between atoms: C_16  and  C_35 
REMARK    7  A    between atoms: C_17  and  N_36 
ROOT
HETATM    1  C   UNL     1      -4.910  16.099  -1.397  1.00  0.00     0.201 C 
HETATM    2  C   UNL     1      -6.372  16.487  -1.470  1.00  0.00     0.060 C 
HETATM    3  C   UNL     1      -6.749  15.634   1.289  1.00  0.00    -0.047 C 
HETATM    4  C   UNL     1      -6.949  15.499   2.628  1.00  0.00     0.010 C 
HETATM    5  C   UNL     1      -7.993  15.986   3.337  1.00  0.00     0.029 C 
HETATM    6  C   UNL     1      -8.754  17.098   3.052  1.00  0.00     0.025 C 
HETATM    7  C   UNL     1      -6.572  14.260  -0.585  1.00  0.00     0.025 C 
HETATM    8  C   UNL     1      -5.736  14.784   0.568  1.00  0.00     0.025 C 
HETATM    9  C   UNL     1      -7.654  16.128   0.394  1.00  0.00    -0.042 C 
HETATM   10  C   UNL     1      -7.363  15.523  -0.945  1.00  0.00     0.071 C 
HETATM   11  C   UNL     1      -8.648  17.026   0.593  1.00  0.00     0.011 C 
HETATM   12  C   UNL     1      -9.104  17.506   1.782  1.00  0.00     0.029 C 
HETATM   13  C   UNL     1      -4.633  15.685   0.036  1.00  0.00     0.084 C 
ENDROOT
BRANCH   2  14
HETATM   14  N   UNL     1      -6.639  17.232  -2.636  1.00  0.00    -0.324 N 
HETATM   15  C   UNL     1      -7.145  18.460  -2.645  1.00  0.00     0.257 C 
HETATM   16  O   UNL     1      -6.840  19.362  -1.881  1.00  0.00    -0.267 OA
ATOM     17  HN  UNL     1      -6.430  16.798  -3.535  1.00  0.00     0.169 HD
BRANCH  15  18
HETATM   18  C   UNL     1      -8.178  18.616  -3.661  1.00  0.00     0.047 C 
HETATM   19  C   UNL     1      -8.232  19.871  -4.238  1.00  0.00     0.018 C 
HETATM   20  C   UNL     1      -8.924  20.185  -5.381  1.00  0.00     0.003 C 
HETATM   21  C   UNL     1      -9.901  19.349  -5.878  1.00  0.00     0.025 C 
HETATM   22  C   UNL     1     -10.725  18.621  -5.037  1.00  0.00     0.013 C 
HETATM   23  N   UNL     1     -10.238  17.555  -4.388  1.00  0.00    -0.368 N 
HETATM   24  C   UNL     1      -9.009  17.552  -3.888  1.00  0.00     0.105 C 
ATOM     25  HN  UNL     1     -10.826  16.729  -4.275  1.00  0.00     0.165 HD
BRANCH  22  26
HETATM   26  C   UNL     1     -12.188  18.963  -4.880  1.00  0.00     0.095 C 
BRANCH  26  27
HETATM   27  C   UNL     1     -12.593  19.276  -3.449  1.00  0.00    -0.053 C 
HETATM   28  C   UNL     1     -13.861  19.009  -2.951  1.00  0.00     0.007 C 
HETATM   29  C   UNL     1     -14.085  19.056  -1.577  1.00  0.00     0.001 C 
HETATM   30  C   UNL     1     -13.075  19.445  -0.714  1.00  0.00     0.000 C 
HETATM   31  C   UNL     1     -11.845  19.833  -1.230  1.00  0.00     0.001 C 
HETATM   32  C   UNL     1     -11.624  19.812  -2.605  1.00  0.00     0.007 C 
ENDBRANCH  26  27
ENDBRANCH  22  26
ENDBRANCH  15  18
ENDBRANCH   2  14
BRANCH   1  33
HETATM   33  O   UNL     1      -4.142  17.185  -1.786  1.00  0.00    -0.361 OA
ATOM     34  HO  UNL     1      -4.048  17.772  -1.045  1.00  0.00     0.213 HD
ENDBRANCH   1  33
BRANCH   1  35
HETATM   35  O   UNL     1      -4.571  15.102  -2.308  1.00  0.00    -0.361 OA
ATOM     36  HO  UNL     1      -3.640  15.077  -2.496  1.00  0.00     0.213 HD
ENDBRANCH   1  35
BRANCH   6  37
HETATM   37  N   UNL     1      -9.113  17.849   4.115  1.00  0.00    -0.399 N 
ATOM     38  HN2 UNL     1      -8.923  17.510   5.057  1.00  0.00     0.156 HD
ATOM     39  HN1 UNL     1      -9.609  18.713   3.897  1.00  0.00     0.156 HD
ENDBRANCH   6  37
TORSDOF 7
ENDMDL
MODEL 8
REMARK VINA RESULT:      -8.4      4.458      6.891
REMARK  7 active torsions:
REMARK  status: ('A' for Active; 'I' for Inactive)
REMARK    1  A    between atoms: C_1  and  O_14 
REMARK    2  A    between atoms: C_1  and  O_26 
REMARK    3  A    between atoms: C_3  and  N_33 
REMARK    4  A    between atoms: C_8  and  C_32 
REMARK       I    between atoms: C_8  and  N_33 
REMARK    5  A    between atoms: C_16  and  C_30 
REMARK    6  A    between atoms: C_16  and  C_35 
REMARK    7  A    between atoms: C_17  and  N_36 
ROOT
HETATM    1  C   UNL     1      -5.383  16.558  -1.249  1.00  0.00     0.201 C 
HETATM    2  C   UNL     1      -6.878  16.753  -1.381  1.00  0.00     0.060 C 
HETATM    3  C   UNL     1      -7.269  15.651   1.286  1.00  0.00    -0.047 C 
HETATM    4  C   UNL     1      -7.514  15.388   2.599  1.00  0.00     0.010 C 
HETATM    5  C   UNL     1      -8.648  15.676   3.278  1.00  0.00     0.029 C 
HETATM    6  C   UNL     1      -9.540  16.695   3.025  1.00  0.00     0.025 C 
HETATM    7  C   UNL     1      -6.813  14.458  -0.664  1.00  0.00     0.025 C 
HETATM    8  C   UNL     1      -6.115  15.000   0.570  1.00  0.00     0.025 C 
HETATM    9  C   UNL     1      -8.189  16.085   0.376  1.00  0.00    -0.042 C 
HETATM   10  C   UNL     1      -7.752  15.627  -0.982  1.00  0.00     0.071 C 
HETATM   11  C   UNL     1      -9.305  16.824   0.578  1.00  0.00     0.011 C 
HETATM   12  C   UNL     1      -9.880  17.148   1.767  1.00  0.00     0.029 C 
HETATM   13  C   UNL     1      -5.121  16.078   0.166  1.00  0.00     0.084 C 
ENDROOT
BRANCH   2  14
HETATM   14  N   UNL     1      -7.189  17.541  -2.506  1.00  0.00    -0.324 N 
HETATM   15  C   UNL     1      -7.679  18.774  -2.450  1.00  0.00     0.257 C 
HETATM   16  O   UNL     1      -7.328  19.645  -1.669  1.00  0.00    -0.267 OA
ATOM     17  HN  UNL     1      -7.025  17.137  -3.429  1.00  0.00     0.169 HD
BRANCH  15  18
HETATM   18  C   UNL     1      -8.754  18.977  -3.412  1.00  0.00     0.047 C 
HETATM   19  C   UNL     1      -9.970  19.319  -2.851  1.00  0.00     0.018 C 
HETATM   20  C   UNL     1     -11.048  19.813  -3.544  1.00  0.00     0.003 C 
HETATM   21  C   UNL     1     -11.128  19.702  -4.916  1.00  0.00     0.025 C 
HETATM   22  C   UNL     1     -10.634  18.594  -5.581  1.00  0.00     0.013 C 
HETATM   23  N   UNL     1      -9.310  18.433  -5.713  1.00  0.00    -0.368 N 
HETATM   24  C   UNL     1      -8.473  18.751  -4.733  1.00  0.00     0.105 C 
ATOM     25  HN  UNL     1      -8.938  18.058  -6.585  1.00  0.00     0.165 HD
BRANCH  22  26
HETATM   26  C   UNL     1     -11.556  17.584  -6.221  1.00  0.00     0.095 C 
BRANCH  26  27
HETATM   27  C   UNL     1     -12.060  16.519  -5.262  1.00  0.00    -0.053 C 
HETATM   28  C   UNL     1     -13.372  16.066  -5.262  1.00  0.00     0.007 C 
HETATM   29  C   UNL     1     -13.701  14.907  -4.563  1.00  0.00     0.001 C 
HETATM   30  C   UNL     1     -12.747  14.250  -3.805  1.00  0.00     0.000 C 
HETATM   31  C   UNL     1     -11.467  14.779  -3.708  1.00  0.00     0.001 C 
HETATM   32  C   UNL     1     -11.139  15.951  -4.384  1.00  0.00     0.007 C 
ENDBRANCH  26  27
ENDBRANCH  22  26
ENDBRANCH  15  18
ENDBRANCH   2  14
BRANCH   1  33
HETATM   33  O   UNL     1      -4.753  17.763  -1.517  1.00  0.00    -0.361 OA
ATOM     34  HO  UNL     1      -3.850  17.588  -1.755  1.00  0.00     0.213 HD
ENDBRANCH   1  33
BRANCH   1  35
HETATM   35  O   UNL     1      -4.865  15.688  -2.205  1.00  0.00    -0.361 OA
ATOM     36  HO  UNL     1      -3.962  15.881  -2.428  1.00  0.00     0.213 HD
ENDBRANCH   1  35
BRANCH   6  37
HETATM   37  N   UNL     1     -10.050  17.308   4.114  1.00  0.00    -0.399 N 
ATOM     38  HN2 UNL     1     -10.187  18.319   4.104  1.00  0.00     0.156 HD
ATOM     39  HN1 UNL     1     -10.230  16.706   4.917  1.00  0.00     0.156 HD
ENDBRANCH   6  37
TORSDOF 7
ENDMDL
MODEL 9
REMARK VINA RESULT:      -8.2      2.880      3.756
REMARK  7 active torsions:
REMARK  status: ('A' for Active; 'I' for Inactive)
REMARK    1  A    between atoms: C_1  and  O_14 
REMARK    2  A    between atoms: C_1  and  O_26 
REMARK    3  A    between atoms: C_3  and  N_33 
REMARK    4  A    between atoms: C_8  and  C_32 
REMARK       I    between atoms: C_8  and  N_33 
REMARK    5  A    between atoms: C_16  and  C_30 
REMARK    6  A    between atoms: C_16  and  C_35 
REMARK    7  A    between atoms: C_17  and  N_36 
ROOT
HETATM    1  C   UNL     1     -10.354  17.430  -4.511  1.00  0.00     0.201 C 
HETATM    2  C   UNL     1      -9.794  18.715  -3.939  1.00  0.00     0.060 C 
HETATM    3  C   UNL     1     -12.129  18.980  -2.219  1.00  0.00    -0.047 C 
HETATM    4  C   UNL     1     -13.048  19.045  -1.216  1.00  0.00     0.010 C 
HETATM    5  C   UNL     1     -12.970  19.810  -0.103  1.00  0.00     0.029 C 
HETATM    6  C   UNL     1     -11.830  20.248   0.534  1.00  0.00     0.025 C 
HETATM    7  C   UNL     1     -12.019  19.437  -4.501  1.00  0.00     0.025 C 
HETATM    8  C   UNL     1     -12.472  18.351  -3.543  1.00  0.00     0.025 C 
HETATM    9  C   UNL     1     -11.054  19.808  -2.368  1.00  0.00    -0.042 C 
HETATM   10  C   UNL     1     -10.712  19.870  -3.825  1.00  0.00     0.071 C 
HETATM   11  C   UNL     1     -10.348  20.469  -1.420  1.00  0.00     0.011 C 
HETATM   12  C   UNL     1     -10.665  20.619  -0.106  1.00  0.00     0.029 C 
HETATM   13  C   UNL     1     -11.615  17.109  -3.730  1.00  0.00     0.084 C 
ENDROOT
BRANCH   2  14
HETATM   14  N   UNL     1      -8.452  18.897  -4.325  1.00  0.00    -0.324 N 
HETATM   15  C   UNL     1      -8.048  19.103  -5.574  1.00  0.00     0.257 C 
HETATM   16  O   UNL     1      -8.605  19.815  -6.394  1.00  0.00    -0.267 OA
ATOM     17  HN  UNL     1      -7.740  18.870  -3.594  1.00  0.00     0.169 HD
BRANCH  15  18
HETATM   18  C   UNL     1      -6.861  18.323  -5.897  1.00  0.00     0.047 C 
HETATM   19  C   UNL     1      -6.248  17.730  -4.809  1.00  0.00     0.018 C 
HETATM   20  C   UNL     1      -5.291  16.748  -4.880  1.00  0.00     0.003 C 
HETATM   21  C   UNL     1      -4.611  16.496  -6.053  1.00  0.00     0.025 C 
HETATM   22  C   UNL     1      -4.278  17.515  -6.928  1.00  0.00     0.013 C 
HETATM   23  N   UNL     1      -5.230  18.083  -7.681  1.00  0.00    -0.368 N 
HETATM   24  C   UNL     1      -6.447  18.312  -7.202  1.00  0.00     0.105 C 
ATOM     25  HN  UNL     1      -5.015  18.344  -8.643  1.00  0.00     0.165 HD
BRANCH  22  26
HETATM   26  C   UNL     1      -2.848  17.966  -7.103  1.00  0.00     0.095 C 
BRANCH  26  27
HETATM   27  C   UNL     1      -2.450  18.196  -8.552  1.00  0.00    -0.053 C 
HETATM   28  C   UNL     1      -2.475  19.448  -9.149  1.00  0.00     0.007 C 
HETATM   29  C   UNL     1      -1.842  19.641 -10.375  1.00  0.00     0.001 C 
HETATM   30  C   UNL     1      -1.258  18.574 -11.037  1.00  0.00     0.000 C 
HETATM   31  C   UNL     1      -1.348  17.299 -10.494  1.00  0.00     0.001 C 
HETATM   32  C   UNL     1      -2.001  17.098  -9.281  1.00  0.00     0.007 C 
ENDBRANCH  26  27
ENDBRANCH  22  26
ENDBRANCH  15  18
ENDBRANCH   2  14
BRANCH   1  33
HETATM   33  O   UNL     1      -9.397  16.435  -4.388  1.00  0.00    -0.361 OA
ATOM     34  HO  UNL     1      -9.676  15.826  -3.714  1.00  0.00     0.213 HD
ENDBRANCH   1  33
BRANCH   1  35
HETATM   35  O   UNL     1     -10.588  17.505  -5.881  1.00  0.00    -0.361 OA
ATOM     36  HO  UNL     1     -11.370  18.000  -6.094  1.00  0.00     0.213 HD
ENDBRANCH   1  35
BRANCH   6  37
HETATM   37  N   UNL     1     -11.876  20.243   1.883  1.00  0.00    -0.399 N 
ATOM     38  HN2 UNL     1     -11.223  19.660   2.406  1.00  0.00     0.156 HD
ATOM     39  HN1 UNL     1     -12.614  20.808   2.302  1.00  0.00     0.156 HD
ENDBRANCH   6  37
TORSDOF 7
ENDMDL
