REMARK  4 active torsions:
REMARK  status: ('A' for Active; 'I' for Inactive)
REMARK    1  A    between atoms: C_7  and  O_31 
REMARK    2  A    between atoms: O_14  and  C_33 
REMARK    3  A    between atoms: C_18  and  C_32 
REMARK    4  A    between atoms: N_21  and  O_31 
ROOT
HETATM    1  C   UNL     1     -25.938 -10.790  -8.208  1.00  0.00     0.015 C 
HETATM    2  C   UNL     1     -26.418 -10.970  -5.784  1.00  0.00    -0.011 C 
HETATM    3  C   UNL     1     -25.664 -10.552  -4.574  1.00  0.00    -0.059 C 
HETATM    4  C   UNL     1     -29.954 -11.875  -5.357  1.00  0.00     0.013 C 
HETATM    5  C   UNL     1     -25.376  -9.948  -9.166  1.00  0.00     0.037 C 
HETATM    6  C   UNL     1     -26.012 -11.622  -3.556  1.00  0.00     0.075 C 
HETATM    7  C   UNL     1     -25.149  -9.304  -6.495  1.00  0.00    -0.040 C 
HETATM    8  C   UNL     1     -27.265 -12.230  -4.142  1.00  0.00    -0.037 C 
HETATM    9  C   UNL     1     -24.629  -8.443  -7.434  1.00  0.00     0.044 C 
HETATM   10  C   UNL     1     -27.426 -13.862  -2.331  1.00  0.00     0.049 C 
HETATM   11  C   UNL     1     -28.057 -13.176  -3.517  1.00  0.00    -0.054 C 
HETATM   12  C   UNL     1     -25.012  -9.258  -5.007  1.00  0.00     0.075 C 
HETATM   13  C   UNL     1     -29.362 -13.562  -3.797  1.00  0.00     0.019 C 
HETATM   14  C   UNL     1     -28.747 -11.593  -5.969  1.00  0.00     0.014 C 
HETATM   15  C   UNL     1     -30.315 -12.992  -4.611  1.00  0.00    -0.025 C 
HETATM   16  C   UNL     1     -24.879  -8.710  -8.782  1.00  0.00     0.066 C 
HETATM   17  C   UNL     1     -27.494 -11.705  -5.412  1.00  0.00    -0.018 C 
HETATM   18  C   UNL     1     -25.984 -10.335  -6.897  1.00  0.00    -0.018 C 
ENDROOT
BRANCH  15  19
HETATM   19  C   UNL     1     -31.666 -13.537  -4.771  1.00  0.00    -0.015 C 
HETATM   20  C   UNL     1     -32.258 -13.506  -6.036  1.00  0.00     0.016 C 
HETATM   21  C   UNL     1     -33.632 -13.236  -6.096  1.00  0.00     0.040 C 
HETATM   22  C   UNL     1     -34.381 -13.276  -4.922  1.00  0.00     0.099 C 
HETATM   23  C   UNL     1     -33.795 -13.545  -3.688  1.00  0.00     0.052 C 
HETATM   24  C   UNL     1     -32.486 -14.053  -3.730  1.00  0.00    -0.012 C 
HETATM   25  C   UNL     1     -32.118 -15.198  -2.949  1.00  0.00    -0.025 A 
HETATM   26  C   UNL     1     -31.570 -16.319  -3.560  1.00  0.00     0.012 A 
HETATM   27  C   UNL     1     -32.327 -15.219  -1.568  1.00  0.00     0.012 A 
HETATM   28  C   UNL     1     -31.368 -17.487  -2.836  1.00  0.00     0.001 A 
HETATM   29  C   UNL     1     -31.685 -17.546  -1.495  1.00  0.00     0.000 A 
HETATM   30  C   UNL     1     -32.150 -16.408  -0.857  1.00  0.00     0.001 A 
BRANCH  22  31
HETATM   31  O   UNL     1     -35.750 -13.214  -5.052  1.00  0.00    -0.245 OA
BRANCH  31  32
HETATM   32  N   UNL     1     -36.194 -13.400  -6.335  1.00  0.00    -0.305 N 
ATOM     33  HN2 UNL     1     -35.555 -13.568  -7.112  1.00  0.00     0.184 HD
ATOM     34  HN1 UNL     1     -37.208 -13.354  -6.431  1.00  0.00     0.184 HD
ENDBRANCH  31  32
ENDBRANCH  22  31
ENDBRANCH  15  19
BRANCH  16  35
HETATM   35  O   UNL     1     -24.902  -7.644  -9.609  1.00  0.00    -0.361 OA
ATOM     36  HO  UNL     1     -24.562  -6.797  -9.346  1.00  0.00     0.217 HD
ENDBRANCH  16  35
TORSDOF 4
