MODEL 1
REMARK VINA RESULT:      -4.9      0.000      0.000
REMARK  2 active torsions:
REMARK  status: ('A' for Active; 'I' for Inactive)
REMARK    1  A    between atoms: C_1  and  O_3 
REMARK    2  A    between atoms: C_1  and  CA_10 
ROOT
HETATM    1  C   UNL     1      37.456  21.472  -9.032  1.00  0.00     0.001 C 
HETATM    2  C   UNL     1      38.994  23.186  -8.141  1.00  0.00     0.088 C 
HETATM    3  C   UNL     1      39.304  21.742 -10.660  1.00  0.00     0.027 C 
HETATM    4  C   UNL     1      37.860  22.445  -8.127  1.00  0.00     0.017 C 
HETATM    5  N   UNL     1      40.112  23.143  -8.856  1.00  0.00    -0.367 N 
ATOM      6  HN  UNL     1      40.985  23.432  -8.416  1.00  0.00     0.165 HD
HETATM    7  CA  UNL     1      40.139  22.731 -10.141  1.00  0.00     0.032 C 
HETATM    8  C   UNL     1      38.223  21.088 -10.144  1.00  0.00     0.002 C 
ENDROOT
BRANCH   7   9
HETATM    9  C   UNL     1      41.361  23.152 -10.937  1.00  0.00     0.220 C 
BRANCH   9  10
HETATM   10  O   UNL     1      42.537  23.155 -10.144  1.00  0.00    -0.395 OA
ATOM     11  HO  UNL     1      42.432  23.672  -9.353  1.00  0.00     0.209 HD
ENDBRANCH   9  10
ENDBRANCH   7   9
TORSDOF 2
ENDMDL
MODEL 2
REMARK VINA RESULT:      -4.9      3.153      3.512
REMARK  2 active torsions:
REMARK  status: ('A' for Active; 'I' for Inactive)
REMARK    1  A    between atoms: C_1  and  O_3 
REMARK    2  A    between atoms: C_1  and  CA_10 
ROOT
HETATM    1  C   UNL     1      37.647  21.642  -9.716  1.00  0.00     0.001 C 
HETATM    2  C   UNL     1      38.454  23.574  -8.406  1.00  0.00     0.088 C 
HETATM    3  C   UNL     1      36.585  23.678 -10.648  1.00  0.00     0.027 C 
HETATM    4  C   UNL     1      38.344  22.251  -8.680  1.00  0.00     0.017 C 
HETATM    5  N   UNL     1      38.115  24.679  -9.058  1.00  0.00    -0.367 N 
ATOM      6  HN  UNL     1      38.690  25.513  -8.939  1.00  0.00     0.165 HD
HETATM    7  CA  UNL     1      37.041  24.744  -9.873  1.00  0.00     0.032 C 
HETATM    8  C   UNL     1      36.932  22.359 -10.690  1.00  0.00     0.002 C 
ENDROOT
BRANCH   7   9
HETATM    9  C   UNL     1      36.535  26.143 -10.179  1.00  0.00     0.220 C 
BRANCH   9  10
HETATM   10  O   UNL     1      37.467  27.141  -9.794  1.00  0.00    -0.395 OA
ATOM     11  HO  UNL     1      37.708  27.703 -10.521  1.00  0.00     0.209 HD
ENDBRANCH   9  10
ENDBRANCH   7   9
TORSDOF 2
ENDMDL
MODEL 3
REMARK VINA RESULT:      -4.8      0.986      1.952
REMARK  2 active torsions:
REMARK  status: ('A' for Active; 'I' for Inactive)
REMARK    1  A    between atoms: C_1  and  O_3 
REMARK    2  A    between atoms: C_1  and  CA_10 
ROOT
HETATM    1  C   UNL     1      37.656  22.029  -8.006  1.00  0.00     0.001 C 
HETATM    2  C   UNL     1      38.120  21.095 -10.244  1.00  0.00     0.088 C 
HETATM    3  C   UNL     1      39.697  23.135  -8.874  1.00  0.00     0.027 C 
HETATM    4  C   UNL     1      37.443  21.164  -9.072  1.00  0.00     0.017 C 
HETATM    5  N   UNL     1      39.034  21.862 -10.825  1.00  0.00    -0.367 N 
ATOM      6  HN  UNL     1      39.048  21.921 -11.844  1.00  0.00     0.165 HD
HETATM    7  CA  UNL     1      39.944  22.569 -10.124  1.00  0.00     0.032 C 
HETATM    8  C   UNL     1      38.650  23.021  -8.005  1.00  0.00     0.002 C 
ENDROOT
BRANCH   7   9
HETATM    9  C   UNL     1      41.165  23.022 -10.906  1.00  0.00     0.220 C 
BRANCH   9  10
HETATM   10  O   UNL     1      42.323  23.094 -10.089  1.00  0.00    -0.395 OA
ATOM     11  HO  UNL     1      42.242  22.557  -9.309  1.00  0.00     0.209 HD
ENDBRANCH   9  10
ENDBRANCH   7   9
TORSDOF 2
ENDMDL
MODEL 4
REMARK VINA RESULT:      -4.6      2.499      2.990
REMARK  2 active torsions:
REMARK  status: ('A' for Active; 'I' for Inactive)
REMARK    1  A    between atoms: C_1  and  O_3 
REMARK    2  A    between atoms: C_1  and  CA_10 
ROOT
HETATM    1  C   UNL     1      36.325  22.897 -11.333  1.00  0.00     0.001 C 
HETATM    2  C   UNL     1      37.084  25.019 -10.321  1.00  0.00     0.088 C 
HETATM    3  C   UNL     1      37.811  22.334  -9.431  1.00  0.00     0.027 C 
HETATM    4  C   UNL     1      36.437  24.280 -11.255  1.00  0.00     0.017 C 
HETATM    5  N   UNL     1      37.648  24.735  -9.153  1.00  0.00    -0.367 N 
ATOM      6  HN  UNL     1      37.632  25.442  -8.418  1.00  0.00     0.165 HD
HETATM    7  CA  UNL     1      38.240  23.549  -8.899  1.00  0.00     0.032 C 
HETATM    8  C   UNL     1      36.886  22.025 -10.386  1.00  0.00     0.002 C 
ENDROOT
BRANCH   7   9
HETATM    9  C   UNL     1      39.204  23.538  -7.726  1.00  0.00     0.220 C 
BRANCH   9  10
HETATM   10  O   UNL     1      40.477  23.027  -8.088  1.00  0.00    -0.395 OA
ATOM     11  HO  UNL     1      40.759  22.329  -7.508  1.00  0.00     0.209 HD
ENDBRANCH   9  10
ENDBRANCH   7   9
TORSDOF 2
ENDMDL
MODEL 5
REMARK VINA RESULT:      -4.6      3.721      4.372
REMARK  2 active torsions:
REMARK  status: ('A' for Active; 'I' for Inactive)
REMARK    1  A    between atoms: C_1  and  O_3 
REMARK    2  A    between atoms: C_1  and  CA_10 
ROOT
HETATM    1  C   UNL     1      38.348  22.288 -10.370  1.00  0.00     0.001 C 
HETATM    2  C   UNL     1      36.812  23.385 -11.963  1.00  0.00     0.088 C 
HETATM    3  C   UNL     1      37.724  24.489  -9.418  1.00  0.00     0.027 C 
HETATM    4  C   UNL     1      37.651  22.397 -11.567  1.00  0.00     0.017 C 
HETATM    5  N   UNL     1      36.262  24.425 -11.349  1.00  0.00    -0.367 N 
ATOM      6  HN  UNL     1      35.336  24.734 -11.645  1.00  0.00     0.165 HD
HETATM    7  CA  UNL     1      36.879  25.091 -10.350  1.00  0.00     0.032 C 
HETATM    8  C   UNL     1      38.259  23.236  -9.338  1.00  0.00     0.002 C 
ENDROOT
BRANCH   7   9
HETATM    9  C   UNL     1      36.347  26.484 -10.066  1.00  0.00     0.220 C 
BRANCH   9  10
HETATM   10  O   UNL     1      37.387  27.396  -9.751  1.00  0.00    -0.395 OA
ATOM     11  HO  UNL     1      37.768  27.221  -8.898  1.00  0.00     0.209 HD
ENDBRANCH   9  10
ENDBRANCH   7   9
TORSDOF 2
ENDMDL
MODEL 6
REMARK VINA RESULT:      -4.5      2.343      3.283
REMARK  2 active torsions:
REMARK  status: ('A' for Active; 'I' for Inactive)
REMARK    1  A    between atoms: C_1  and  O_3 
REMARK    2  A    between atoms: C_1  and  CA_10 
ROOT
HETATM    1  C   UNL     1      37.166  23.138 -12.509  1.00  0.00     0.001 C 
HETATM    2  C   UNL     1      39.504  22.810 -11.784  1.00  0.00     0.088 C 
HETATM    3  C   UNL     1      37.269  23.591 -10.074  1.00  0.00     0.027 C 
HETATM    4  C   UNL     1      38.496  22.779 -12.689  1.00  0.00     0.017 C 
HETATM    5  N   UNL     1      39.626  23.309 -10.560  1.00  0.00    -0.367 N 
ATOM      6  HN  UNL     1      40.537  23.658 -10.262  1.00  0.00     0.165 HD
HETATM    7  CA  UNL     1      38.593  23.373  -9.694  1.00  0.00     0.032 C 
HETATM    8  C   UNL     1      36.659  23.629 -11.295  1.00  0.00     0.002 C 
ENDROOT
BRANCH   7   9
HETATM    9  C   UNL     1      38.974  23.539  -8.233  1.00  0.00     0.220 C 
BRANCH   9  10
HETATM   10  O   UNL     1      40.315  23.149  -7.986  1.00  0.00    -0.395 OA
ATOM     11  HO  UNL     1      40.614  23.426  -7.127  1.00  0.00     0.209 HD
ENDBRANCH   9  10
ENDBRANCH   7   9
TORSDOF 2
ENDMDL
MODEL 7
REMARK VINA RESULT:      -4.5      2.325      2.939
REMARK  2 active torsions:
REMARK  status: ('A' for Active; 'I' for Inactive)
REMARK    1  A    between atoms: C_1  and  O_3 
REMARK    2  A    between atoms: C_1  and  CA_10 
ROOT
HETATM    1  C   UNL     1      35.934  21.649 -10.967  1.00  0.00     0.001 C 
HETATM    2  C   UNL     1      37.024  20.661  -8.983  1.00  0.00     0.088 C 
HETATM    3  C   UNL     1      37.414  23.377  -9.984  1.00  0.00     0.027 C 
HETATM    4  C   UNL     1      36.157  20.653 -10.024  1.00  0.00     0.017 C 
HETATM    5  N   UNL     1      38.011  21.469  -8.615  1.00  0.00    -0.367 N 
ATOM      6  HN  UNL     1      38.815  21.070  -8.130  1.00  0.00     0.165 HD
HETATM    7  CA  UNL     1      37.993  22.797  -8.855  1.00  0.00     0.032 C 
HETATM    8  C   UNL     1      36.635  22.866 -10.981  1.00  0.00     0.002 C 
ENDROOT
BRANCH   7   9
HETATM    9  C   UNL     1      38.938  23.628  -8.005  1.00  0.00     0.220 C 
BRANCH   9  10
HETATM   10  O   UNL     1      40.263  23.123  -8.034  1.00  0.00    -0.395 OA
ATOM     11  HO  UNL     1      40.296  22.198  -7.818  1.00  0.00     0.209 HD
ENDBRANCH   9  10
ENDBRANCH   7   9
TORSDOF 2
ENDMDL
MODEL 8
REMARK VINA RESULT:      -4.4      1.964      2.281
REMARK  2 active torsions:
REMARK  status: ('A' for Active; 'I' for Inactive)
REMARK    1  A    between atoms: C_1  and  O_3 
REMARK    2  A    between atoms: C_1  and  CA_10 
ROOT
HETATM    1  C   UNL     1      37.528  24.150  -9.860  1.00  0.00     0.001 C 
HETATM    2  C   UNL     1      38.946  22.597  -8.565  1.00  0.00     0.088 C 
HETATM    3  C   UNL     1      38.456  22.483 -11.442  1.00  0.00     0.027 C 
HETATM    4  C   UNL     1      38.166  23.695  -8.713  1.00  0.00     0.017 C 
HETATM    5  N   UNL     1      39.222  21.555  -9.339  1.00  0.00    -0.367 N 
ATOM      6  HN  UNL     1      39.407  20.653  -8.898  1.00  0.00     0.165 HD
HETATM    7  CA  UNL     1      39.269  21.639 -10.685  1.00  0.00     0.032 C 
HETATM    8  C   UNL     1      37.594  23.482 -11.094  1.00  0.00     0.002 C 
ENDROOT
BRANCH   7   9
HETATM    9  C   UNL     1      40.017  20.518 -11.385  1.00  0.00     0.220 C 
BRANCH   9  10
HETATM   10  O   UNL     1      41.014  19.944 -10.555  1.00  0.00    -0.395 OA
ATOM     11  HO  UNL     1      41.500  19.261 -11.003  1.00  0.00     0.209 HD
ENDBRANCH   9  10
ENDBRANCH   7   9
TORSDOF 2
ENDMDL
MODEL 9
REMARK VINA RESULT:      -4.3      1.933      3.145
REMARK  2 active torsions:
REMARK  status: ('A' for Active; 'I' for Inactive)
REMARK    1  A    between atoms: C_1  and  O_3 
REMARK    2  A    between atoms: C_1  and  CA_10 
ROOT
HETATM    1  C   UNL     1      38.563  21.664 -12.909  1.00  0.00     0.001 C 
HETATM    2  C   UNL     1      38.340  20.451 -10.770  1.00  0.00     0.088 C 
HETATM    3  C   UNL     1      39.091  23.256 -11.084  1.00  0.00     0.027 C 
HETATM    4  C   UNL     1      38.247  20.568 -12.117  1.00  0.00     0.017 C 
HETATM    5  N   UNL     1      38.879  21.202  -9.817  1.00  0.00    -0.367 N 
ATOM      6  HN  UNL     1      39.269  20.742  -8.994  1.00  0.00     0.165 HD
HETATM    7  CA  UNL     1      38.932  22.548  -9.893  1.00  0.00     0.032 C 
HETATM    8  C   UNL     1      39.071  22.868 -12.393  1.00  0.00     0.002 C 
ENDROOT
BRANCH   7   9
HETATM    9  C   UNL     1      39.154  23.270  -8.576  1.00  0.00     0.220 C 
BRANCH   9  10
HETATM   10  O   UNL     1      40.461  23.057  -8.066  1.00  0.00    -0.395 OA
ATOM     11  HO  UNL     1      40.767  23.794  -7.550  1.00  0.00     0.209 HD
ENDBRANCH   9  10
ENDBRANCH   7   9
TORSDOF 2
ENDMDL
