REMARK  0 active torsions:
REMARK  status: ('A' for Active; 'I' for Inactive)
ROOT
HETATM    1  C   UNL     1      52.628 106.982  33.933  1.00  0.00    -0.012 C 
HETATM    2  C   UNL     1      53.118 109.112  32.464  1.00  0.00     0.156 C 
HETATM    3  C   UNL     1      52.644 107.910  35.153  1.00  0.00     0.043 C 
HETATM    4  C   UNL     1      53.831 106.042  34.069  1.00  0.00     0.010 C 
HETATM    5  O   UNL     1      54.118 109.293  31.447  1.00  0.00    -0.377 OA
HETATM    6  C   UNL     1      55.729 110.745  34.442  1.00  0.00     0.010 C 
HETATM    7  C   UNL     1      54.293 109.619  36.025  1.00  0.00     0.008 C 
HETATM    8  C   UNL     1      53.567 109.077  34.971  1.00  0.00    -0.048 C 
HETATM    9  C   UNL     1      55.180 110.125  31.951  1.00  0.00     0.207 C 
HETATM   10  C   UNL     1      53.858 109.480  33.696  1.00  0.00    -0.015 C 
HETATM   11  C   UNL     1      54.943 110.260  33.411  1.00  0.00    -0.025 C 
HETATM   12  C   UNL     1      52.645 107.664  32.564  1.00  0.00     0.041 C 
HETATM   13  C   UNL     1      55.328 110.505  35.759  1.00  0.00     0.001 C 
ENDROOT
TORSDOF 0
