MODEL 1
REMARK VINA RESULT:      -8.5      0.000      0.000
REMARK  8 active torsions:
REMARK  status: ('A' for Active; 'I' for Inactive)
REMARK    1  A    between atoms: C_5  and  C_19 
REMARK    2  A    between atoms: C_14  and  S_16 
REMARK    3  A    between atoms: C_14  and  C_23 
REMARK    4  A    between atoms: S_16  and  N_29 
REMARK    5  A    between atoms: O_17  and  C_32 
REMARK    6  A    between atoms: C_22  and  C_28 
REMARK    7  A    between atoms: C_23  and  C_28 
REMARK    8  A    between atoms: O_33  and  C_38 
ROOT
HETATM    1  O   UNL     1      15.203   8.071   7.065  1.00  0.00    -0.350 OA
HETATM    2  N   UNL     1      15.851  10.220   7.138  1.00  0.00    -0.020 N 
ATOM      3  HN1 UNL     1      16.473  10.937   7.510  1.00  0.00     0.283 HD
ATOM      4  HN2 UNL     1      15.074  10.370   7.781  1.00  0.00     0.283 HD
HETATM    5  C   UNL     1      15.098   7.937   5.611  1.00  0.00     0.165 C 
HETATM    6  C   UNL     1      16.423   8.851   7.229  1.00  0.00     0.324 C 
HETATM    7  C   UNL     1      15.489  10.451   5.751  1.00  0.00     0.353 C 
HETATM    8  C   UNL     1      14.657   9.335   5.118  1.00  0.00     0.204 C 
ENDROOT
BRANCH   5   9
HETATM    9  C   UNL     1      13.786   7.095   5.599  1.00  0.00     0.044 C 
HETATM   10  C   UNL     1      13.750   6.313   4.269  1.00  0.00     0.039 C 
HETATM   11  C   UNL     1      12.683   5.282   4.043  1.00  0.00    -0.011 C 
HETATM   12  C   UNL     1      12.202   4.367   4.920  1.00  0.00     0.041 C 
HETATM   13  C   UNL     1      10.827   3.848   4.846  1.00  0.00     0.251 C 
HETATM   14  C   UNL     1      13.037   3.806   6.068  1.00  0.00     0.255 C 
HETATM   15  O   UNL     1      10.260   3.842   3.768  1.00  0.00    -0.268 OA
HETATM   16  N   UNL     1      10.191   3.474   6.020  1.00  0.00    -0.329 N 
HETATM   17  C   UNL     1      11.004   2.977   7.175  1.00  0.00     0.288 C 
ATOM     18  HN  UNL     1       9.175   3.536   6.096  1.00  0.00     0.164 HD
HETATM   19  C   UNL     1      11.036   4.090   8.222  1.00  0.00     0.059 C 
HETATM   20  N   UNL     1      12.377   2.640   6.708  1.00  0.00    -0.042 N 
HETATM   21  C   UNL     1      12.293   4.942   8.285  1.00  0.00     0.040 C 
HETATM   22  C   UNL     1      13.194   4.953   7.066  1.00  0.00    -0.048 C 
HETATM   23  C   UNL     1      14.048   6.155   6.783  1.00  0.00    -0.014 C 
ATOM     24  HN2 UNL     1      12.372   1.829   6.089  1.00  0.00     0.280 HD
ATOM     25  HN1 UNL     1      12.945   2.259   7.464  1.00  0.00     0.280 HD
ENDBRANCH   5   9
BRANCH   8  26
HETATM   26  O   UNL     1      14.905   9.423   3.702  1.00  0.00    -0.389 OA
ATOM     27  HO  UNL     1      14.290   8.858   3.250  1.00  0.00     0.210 HD
ENDBRANCH   8  26
BRANCH   6  28
HETATM   28  C   UNL     1      16.833   8.558   8.704  1.00  0.00     0.062 C 
BRANCH  28  29
HETATM   29  C   UNL     1      16.750   9.883   9.488  1.00  0.00     0.021 C 
BRANCH  29  30
HETATM   30  C   UNL     1      15.805   9.766  10.706  1.00  0.00     0.163 C 
BRANCH  30  31
HETATM   31  S   UNL     1      16.723   9.802  12.210  1.00  0.00     0.226 S 
HETATM   32  O   UNL     1      15.966  10.433  13.234  1.00  0.00    -0.206 OA
HETATM   33  O   UNL     1      17.160   8.423  12.432  1.00  0.00    -0.206 OA
BRANCH  31  34
HETATM   34  N   UNL     1      18.065  10.652  11.852  1.00  0.00    -0.324 N 
HETATM   35  C   UNL     1      19.066  10.604  12.923  1.00  0.00     0.159 C 
ATOM     36  HN  UNL     1      18.195  11.164  10.979  1.00  0.00     0.171 HD
ENDBRANCH  31  34
ENDBRANCH  30  31
ENDBRANCH  29  30
ENDBRANCH  28  29
ENDBRANCH   6  28
BRANCH   7  37
HETATM   37  O   UNL     1      14.851  11.689   5.526  1.00  0.00    -0.368 OA
ATOM     38  HO  UNL     1      14.977  12.320   6.225  1.00  0.00     0.212 HD
ENDBRANCH   7  37
TORSDOF 8
ENDMDL
MODEL 2
REMARK VINA RESULT:      -8.1      2.553      8.009
REMARK  8 active torsions:
REMARK  status: ('A' for Active; 'I' for Inactive)
REMARK    1  A    between atoms: C_5  and  C_19 
REMARK    2  A    between atoms: C_14  and  S_16 
REMARK    3  A    between atoms: C_14  and  C_23 
REMARK    4  A    between atoms: S_16  and  N_29 
REMARK    5  A    between atoms: O_17  and  C_32 
REMARK    6  A    between atoms: C_22  and  C_28 
REMARK    7  A    between atoms: C_23  and  C_28 
REMARK    8  A    between atoms: O_33  and  C_38 
ROOT
HETATM    1  O   UNL     1      15.137   8.140   7.500  1.00  0.00    -0.350 OA
HETATM    2  N   UNL     1      15.600   7.898   5.316  1.00  0.00    -0.020 N 
ATOM      3  HN1 UNL     1      15.528   7.349   4.460  1.00  0.00     0.283 HD
ATOM      4  HN2 UNL     1      16.519   7.570   5.609  1.00  0.00     0.283 HD
HETATM    5  C   UNL     1      14.696   9.536   7.463  1.00  0.00     0.165 C 
HETATM    6  C   UNL     1      14.531   7.579   6.299  1.00  0.00     0.324 C 
HETATM    7  C   UNL     1      15.560   9.329   5.075  1.00  0.00     0.353 C 
HETATM    8  C   UNL     1      15.540  10.185   6.342  1.00  0.00     0.204 C 
ENDROOT
BRANCH   5   9
HETATM    9  C   UNL     1      15.400   9.985   8.781  1.00  0.00     0.044 C 
HETATM   10  C   UNL     1      14.452   9.647   9.950  1.00  0.00     0.039 C 
HETATM   11  C   UNL     1      14.929   9.810  11.363  1.00  0.00    -0.011 C 
HETATM   12  C   UNL     1      16.140   9.491  11.882  1.00  0.00     0.041 C 
HETATM   13  C   UNL     1      16.720  10.203  13.032  1.00  0.00     0.251 C 
HETATM   14  C   UNL     1      17.014   8.377  11.311  1.00  0.00     0.255 C 
HETATM   15  O   UNL     1      15.970  10.740  13.828  1.00  0.00    -0.268 OA
HETATM   16  N   UNL     1      18.100  10.319  13.118  1.00  0.00    -0.329 N 
HETATM   17  C   UNL     1      18.969   9.262  12.512  1.00  0.00     0.288 C 
ATOM     18  HN  UNL     1      18.518  11.119  13.593  1.00  0.00     0.164 HD
HETATM   19  C   UNL     1      19.574   9.848  11.235  1.00  0.00     0.059 C 
HETATM   20  N   UNL     1      18.150   8.056  12.212  1.00  0.00    -0.042 N 
HETATM   21  C   UNL     1      18.934   9.442   9.918  1.00  0.00     0.040 C 
HETATM   22  C   UNL     1      17.521   8.895   9.966  1.00  0.00    -0.048 C 
HETATM   23  C   UNL     1      16.621   9.056   8.775  1.00  0.00    -0.014 C 
ATOM     24  HN2 UNL     1      17.830   7.600  13.067  1.00  0.00     0.280 HD
ATOM     25  HN1 UNL     1      18.723   7.301  11.835  1.00  0.00     0.280 HD
ENDBRANCH   5   9
BRANCH   8  26
HETATM   26  O   UNL     1      14.919  11.428   5.959  1.00  0.00    -0.389 OA
ATOM     27  HO  UNL     1      14.144  11.234   5.445  1.00  0.00     0.210 HD
ENDBRANCH   8  26
BRANCH   6  28
HETATM   28  C   UNL     1      14.531   6.048   6.588  1.00  0.00     0.062 C 
BRANCH  28  29
HETATM   29  C   UNL     1      13.151   5.678   7.169  1.00  0.00     0.021 C 
BRANCH  29  30
HETATM   30  C   UNL     1      12.743   4.235   6.793  1.00  0.00     0.163 C 
BRANCH  30  31
HETATM   31  S   UNL     1      11.620   3.579   7.982  1.00  0.00     0.226 S 
HETATM   32  O   UNL     1      11.698   4.320   9.194  1.00  0.00    -0.206 OA
HETATM   33  O   UNL     1      10.326   3.512   7.302  1.00  0.00    -0.206 OA
BRANCH  31  34
HETATM   34  N   UNL     1      12.103   2.038   8.196  1.00  0.00    -0.324 N 
HETATM   35  C   UNL     1      11.704   1.498   9.501  1.00  0.00     0.159 C 
ATOM     36  HN  UNL     1      12.625   1.507   7.500  1.00  0.00     0.171 HD
ENDBRANCH  31  34
ENDBRANCH  30  31
ENDBRANCH  29  30
ENDBRANCH  28  29
ENDBRANCH   6  28
BRANCH   7  37
HETATM   37  O   UNL     1      16.580   9.792   4.218  1.00  0.00    -0.368 OA
ATOM     38  HO  UNL     1      16.982   9.110   3.694  1.00  0.00     0.212 HD
ENDBRANCH   7  37
TORSDOF 8
ENDMDL
MODEL 3
REMARK VINA RESULT:      -8.1      2.843      8.336
REMARK  8 active torsions:
REMARK  status: ('A' for Active; 'I' for Inactive)
REMARK    1  A    between atoms: C_5  and  C_19 
REMARK    2  A    between atoms: C_14  and  S_16 
REMARK    3  A    between atoms: C_14  and  C_23 
REMARK    4  A    between atoms: S_16  and  N_29 
REMARK    5  A    between atoms: O_17  and  C_32 
REMARK    6  A    between atoms: C_22  and  C_28 
REMARK    7  A    between atoms: C_23  and  C_28 
REMARK    8  A    between atoms: O_33  and  C_38 
ROOT
HETATM    1  O   UNL     1      15.552   8.013   7.383  1.00  0.00    -0.350 OA
HETATM    2  N   UNL     1      15.583   8.169   5.143  1.00  0.00    -0.020 N 
ATOM      3  HN1 UNL     1      15.541   7.714   4.231  1.00  0.00     0.283 HD
ATOM      4  HN2 UNL     1      16.599   8.219   5.221  1.00  0.00     0.283 HD
HETATM    5  C   UNL     1      14.616   9.107   7.652  1.00  0.00     0.165 C 
HETATM    6  C   UNL     1      14.959   7.360   6.223  1.00  0.00     0.324 C 
HETATM    7  C   UNL     1      14.950   9.475   5.153  1.00  0.00     0.353 C 
HETATM    8  C   UNL     1      14.883  10.137   6.530  1.00  0.00     0.204 C 
ENDROOT
BRANCH   5   9
HETATM    9  C   UNL     1      15.365   9.688   8.891  1.00  0.00     0.044 C 
HETATM   10  C   UNL     1      14.482   9.427  10.129  1.00  0.00     0.039 C 
HETATM   11  C   UNL     1      15.018   9.725  11.499  1.00  0.00    -0.011 C 
HETATM   12  C   UNL     1      16.261   9.485  11.984  1.00  0.00     0.041 C 
HETATM   13  C   UNL     1      16.870  10.310  13.039  1.00  0.00     0.251 C 
HETATM   14  C   UNL     1      17.142   8.350  11.469  1.00  0.00     0.255 C 
HETATM   15  O   UNL     1      16.141  10.894  13.822  1.00  0.00    -0.268 OA
HETATM   16  N   UNL     1      18.248  10.470  13.049  1.00  0.00    -0.329 N 
HETATM   17  C   UNL     1      19.121   9.389  12.494  1.00  0.00     0.288 C 
ATOM     18  HN  UNL     1      18.663  11.320  13.432  1.00  0.00     0.164 HD
HETATM   19  C   UNL     1      19.649   9.877  11.145  1.00  0.00     0.059 C 
HETATM   20  N   UNL     1      18.327   8.139  12.338  1.00  0.00    -0.042 N 
HETATM   21  C   UNL     1      18.962   9.341   9.900  1.00  0.00     0.040 C 
HETATM   22  C   UNL     1      17.570   8.763  10.062  1.00  0.00    -0.048 C 
HETATM   23  C   UNL     1      16.612   8.795   8.906  1.00  0.00    -0.014 C 
ATOM     24  HN2 UNL     1      18.061   7.751  13.243  1.00  0.00     0.280 HD
ATOM     25  HN1 UNL     1      18.906   7.370  12.000  1.00  0.00     0.280 HD
ENDBRANCH   5   9
BRANCH   8  26
HETATM   26  O   UNL     1      13.768  11.048   6.467  1.00  0.00    -0.389 OA
ATOM     27  HO  UNL     1      13.693  11.375   5.578  1.00  0.00     0.210 HD
ENDBRANCH   8  26
BRANCH   6  28
HETATM   28  C   UNL     1      15.605   5.942   6.249  1.00  0.00     0.062 C 
BRANCH  28  29
HETATM   29  C   UNL     1      14.496   4.914   5.948  1.00  0.00     0.021 C 
BRANCH  29  30
HETATM   30  C   UNL     1      13.266   5.579   5.287  1.00  0.00     0.163 C 
BRANCH  30  31
HETATM   31  S   UNL     1      13.408   5.540   3.532  1.00  0.00     0.226 S 
HETATM   32  O   UNL     1      13.465   6.864   3.013  1.00  0.00    -0.206 OA
HETATM   33  O   UNL     1      14.532   4.646   3.251  1.00  0.00    -0.206 OA
BRANCH  31  34
HETATM   34  N   UNL     1      12.070   4.761   3.028  1.00  0.00    -0.324 N 
HETATM   35  C   UNL     1      11.297   4.191   4.137  1.00  0.00     0.159 C 
ATOM     36  HN  UNL     1      11.798   4.679   2.048  1.00  0.00     0.171 HD
ENDBRANCH  31  34
ENDBRANCH  30  31
ENDBRANCH  29  30
ENDBRANCH  28  29
ENDBRANCH   6  28
BRANCH   7  37
HETATM   37  O   UNL     1      15.504  10.386   4.228  1.00  0.00    -0.368 OA
ATOM     38  HO  UNL     1      15.161  10.295   3.347  1.00  0.00     0.212 HD
ENDBRANCH   7  37
TORSDOF 8
ENDMDL
MODEL 4
REMARK VINA RESULT:      -8.0      1.539      2.351
REMARK  8 active torsions:
REMARK  status: ('A' for Active; 'I' for Inactive)
REMARK    1  A    between atoms: C_5  and  C_19 
REMARK    2  A    between atoms: C_14  and  S_16 
REMARK    3  A    between atoms: C_14  and  C_23 
REMARK    4  A    between atoms: S_16  and  N_29 
REMARK    5  A    between atoms: O_17  and  C_32 
REMARK    6  A    between atoms: C_22  and  C_28 
REMARK    7  A    between atoms: C_23  and  C_28 
REMARK    8  A    between atoms: O_33  and  C_38 
ROOT
HETATM    1  O   UNL     1      15.846   7.977   6.839  1.00  0.00    -0.350 OA
HETATM    2  N   UNL     1      15.259  10.137   7.011  1.00  0.00    -0.020 N 
ATOM      3  HN1 UNL     1      15.518  11.104   7.207  1.00  0.00     0.283 HD
ATOM      4  HN2 UNL     1      14.902   9.904   7.937  1.00  0.00     0.283 HD
HETATM    5  C   UNL     1      15.184   7.685   5.566  1.00  0.00     0.165 C 
HETATM    6  C   UNL     1      16.418   9.297   6.609  1.00  0.00     0.324 C 
HETATM    7  C   UNL     1      14.253  10.022   5.971  1.00  0.00     0.353 C 
HETATM    8  C   UNL     1      13.927   8.585   5.561  1.00  0.00     0.204 C 
ENDROOT
BRANCH   5   9
HETATM    9  C   UNL     1      14.644   6.276   5.959  1.00  0.00     0.044 C 
HETATM   10  C   UNL     1      13.552   6.480   7.029  1.00  0.00     0.039 C 
HETATM   11  C   UNL     1      12.728   5.310   7.481  1.00  0.00    -0.011 C 
HETATM   12  C   UNL     1      12.201   4.314   6.728  1.00  0.00     0.041 C 
HETATM   13  C   UNL     1      11.961   2.963   7.259  1.00  0.00     0.251 C 
HETATM   14  C   UNL     1      11.823   4.502   5.261  1.00  0.00     0.255 C 
HETATM   15  O   UNL     1      11.771   2.828   8.455  1.00  0.00    -0.268 OA
HETATM   16  N   UNL     1      12.055   1.881   6.397  1.00  0.00    -0.329 N 
HETATM   17  C   UNL     1      11.743   2.064   4.944  1.00  0.00     0.288 C 
ATOM     18  HN  UNL     1      12.333   0.965   6.750  1.00  0.00     0.164 HD
HETATM   19  C   UNL     1      13.072   2.049   4.188  1.00  0.00     0.059 C 
HETATM   20  N   UNL     1      11.029   3.356   4.748  1.00  0.00    -0.042 N 
HETATM   21  C   UNL     1      13.645   3.394   3.773  1.00  0.00     0.040 C 
HETATM   22  C   UNL     1      13.145   4.624   4.504  1.00  0.00    -0.048 C 
HETATM   23  C   UNL     1      14.033   5.830   4.625  1.00  0.00    -0.014 C 
ATOM     24  HN2 UNL     1      10.097   3.334   5.162  1.00  0.00     0.280 HD
ATOM     25  HN1 UNL     1      10.766   3.492   3.772  1.00  0.00     0.280 HD
ENDBRANCH   5   9
BRANCH   8  26
HETATM   26  O   UNL     1      13.428   8.672   4.212  1.00  0.00    -0.389 OA
ATOM     27  HO  UNL     1      13.664   9.520   3.855  1.00  0.00     0.210 HD
ENDBRANCH   8  26
BRANCH   6  28
HETATM   28  C   UNL     1      17.530   9.393   7.696  1.00  0.00     0.062 C 
BRANCH  28  29
HETATM   29  C   UNL     1      16.908   8.977   9.044  1.00  0.00     0.021 C 
BRANCH  29  30
HETATM   30  C   UNL     1      17.033  10.100  10.101  1.00  0.00     0.163 C 
BRANCH  30  31
HETATM   31  S   UNL     1      17.524   9.435  11.657  1.00  0.00     0.226 S 
HETATM   32  O   UNL     1      16.379   9.085  12.425  1.00  0.00    -0.206 OA
HETATM   33  O   UNL     1      18.487   8.378  11.344  1.00  0.00    -0.206 OA
BRANCH  31  34
HETATM   34  N   UNL     1      18.373  10.630  12.366  1.00  0.00    -0.324 N 
HETATM   35  C   UNL     1      17.996  10.835  13.768  1.00  0.00     0.159 C 
ATOM     36  HN  UNL     1      19.089  11.176  11.887  1.00  0.00     0.171 HD
ENDBRANCH  31  34
ENDBRANCH  30  31
ENDBRANCH  29  30
ENDBRANCH  28  29
ENDBRANCH   6  28
BRANCH   7  37
HETATM   37  O   UNL     1      13.053  10.706   6.258  1.00  0.00    -0.368 OA
ATOM     38  HO  UNL     1      12.470  10.232   6.839  1.00  0.00     0.212 HD
ENDBRANCH   7  37
TORSDOF 8
ENDMDL
MODEL 5
REMARK VINA RESULT:      -7.9      1.925      2.517
REMARK  8 active torsions:
REMARK  status: ('A' for Active; 'I' for Inactive)
REMARK    1  A    between atoms: C_5  and  C_19 
REMARK    2  A    between atoms: C_14  and  S_16 
REMARK    3  A    between atoms: C_14  and  C_23 
REMARK    4  A    between atoms: S_16  and  N_29 
REMARK    5  A    between atoms: O_17  and  C_32 
REMARK    6  A    between atoms: C_22  and  C_28 
REMARK    7  A    between atoms: C_23  and  C_28 
REMARK    8  A    between atoms: O_33  and  C_38 
ROOT
HETATM    1  O   UNL     1      15.435   8.465   7.392  1.00  0.00    -0.350 OA
HETATM    2  N   UNL     1      15.558   9.256   9.490  1.00  0.00    -0.020 N 
ATOM      3  HN1 UNL     1      16.123   9.587  10.272  1.00  0.00     0.283 HD
ATOM      4  HN2 UNL     1      15.459   8.289   9.797  1.00  0.00     0.283 HD
HETATM    5  C   UNL     1      14.353   9.326   6.911  1.00  0.00     0.165 C 
HETATM    6  C   UNL     1      16.249   9.381   8.180  1.00  0.00     0.324 C 
HETATM    7  C   UNL     1      14.286   9.947   9.381  1.00  0.00     0.353 C 
HETATM    8  C   UNL     1      13.461   9.567   8.151  1.00  0.00     0.204 C 
ENDROOT
BRANCH   5   9
HETATM    9  C   UNL     1      13.595   8.232   6.100  1.00  0.00     0.044 C 
HETATM   10  C   UNL     1      14.191   8.214   4.677  1.00  0.00     0.039 C 
HETATM   11  C   UNL     1      13.775   7.142   3.712  1.00  0.00    -0.011 C 
HETATM   12  C   UNL     1      13.587   5.822   3.954  1.00  0.00     0.041 C 
HETATM   13  C   UNL     1      12.641   5.003   3.179  1.00  0.00     0.251 C 
HETATM   14  C   UNL     1      14.326   5.073   5.060  1.00  0.00     0.255 C 
HETATM   15  O   UNL     1      12.375   5.336   2.038  1.00  0.00    -0.268 OA
HETATM   16  N   UNL     1      12.013   3.936   3.805  1.00  0.00    -0.329 N 
HETATM   17  C   UNL     1      12.703   3.230   4.930  1.00  0.00     0.288 C 
ATOM     18  HN  UNL     1      11.087   3.636   3.501  1.00  0.00     0.164 HD
HETATM   19  C   UNL     1      12.013   3.654   6.226  1.00  0.00     0.059 C 
HETATM   20  N   UNL     1      14.144   3.604   4.943  1.00  0.00    -0.042 N 
HETATM   21  C   UNL     1      12.708   4.715   7.063  1.00  0.00     0.040 C 
HETATM   22  C   UNL     1      13.739   5.587   6.374  1.00  0.00    -0.048 C 
HETATM   23  C   UNL     1      13.999   6.976   6.882  1.00  0.00    -0.014 C 
ATOM     24  HN2 UNL     1      14.633   3.232   4.128  1.00  0.00     0.280 HD
ATOM     25  HN1 UNL     1      14.652   3.106   5.674  1.00  0.00     0.280 HD
ENDBRANCH   5   9
BRANCH   8  26
HETATM   26  O   UNL     1      12.609  10.700   7.891  1.00  0.00    -0.389 OA
ATOM     27  HO  UNL     1      13.152  11.473   7.800  1.00  0.00     0.210 HD
ENDBRANCH   8  26
BRANCH   6  28
HETATM   28  C   UNL     1      17.627   8.656   8.250  1.00  0.00     0.062 C 
BRANCH  28  29
HETATM   29  C   UNL     1      17.896   8.297   9.725  1.00  0.00     0.021 C 
BRANCH  29  30
HETATM   30  C   UNL     1      18.910   9.267  10.373  1.00  0.00     0.163 C 
BRANCH  30  31
HETATM   31  S   UNL     1      18.255   9.947  11.861  1.00  0.00     0.226 S 
HETATM   32  O   UNL     1      17.133  10.772  11.573  1.00  0.00    -0.206 OA
HETATM   33  O   UNL     1      18.055   8.806  12.756  1.00  0.00    -0.206 OA
BRANCH  31  34
HETATM   34  N   UNL     1      19.482  10.812  12.493  1.00  0.00    -0.324 N 
HETATM   35  C   UNL     1      20.777  10.135  12.360  1.00  0.00     0.159 C 
ATOM     36  HN  UNL     1      19.363  11.724  12.933  1.00  0.00     0.171 HD
ENDBRANCH  31  34
ENDBRANCH  30  31
ENDBRANCH  29  30
ENDBRANCH  28  29
ENDBRANCH   6  28
BRANCH   7  37
HETATM   37  O   UNL     1      13.477   9.841  10.532  1.00  0.00    -0.368 OA
ATOM     38  HO  UNL     1      12.771   9.210  10.449  1.00  0.00     0.212 HD
ENDBRANCH   7  37
TORSDOF 8
ENDMDL
MODEL 6
REMARK VINA RESULT:      -7.7      4.254      6.852
REMARK  8 active torsions:
REMARK  status: ('A' for Active; 'I' for Inactive)
REMARK    1  A    between atoms: C_5  and  C_19 
REMARK    2  A    between atoms: C_14  and  S_16 
REMARK    3  A    between atoms: C_14  and  C_23 
REMARK    4  A    between atoms: S_16  and  N_29 
REMARK    5  A    between atoms: O_17  and  C_32 
REMARK    6  A    between atoms: C_22  and  C_28 
REMARK    7  A    between atoms: C_23  and  C_28 
REMARK    8  A    between atoms: O_33  and  C_38 
ROOT
HETATM    1  O   UNL     1      15.616  10.299  11.759  1.00  0.00    -0.350 OA
HETATM    2  N   UNL     1      16.739  10.883  13.614  1.00  0.00    -0.020 N 
ATOM      3  HN1 UNL     1      16.748  11.038  14.623  1.00  0.00     0.283 HD
ATOM      4  HN2 UNL     1      16.583  11.850  13.332  1.00  0.00     0.283 HD
HETATM    5  C   UNL     1      16.615   9.390  11.193  1.00  0.00     0.165 C 
HETATM    6  C   UNL     1      15.650   9.970  13.178  1.00  0.00     0.324 C 
HETATM    7  C   UNL     1      17.989  10.342  13.115  1.00  0.00     0.353 C 
HETATM    8  C   UNL     1      17.976   9.979  11.629  1.00  0.00     0.204 C 
ENDROOT
BRANCH   5   9
HETATM    9  C   UNL     1      16.457   9.846   9.710  1.00  0.00     0.044 C 
HETATM   10  C   UNL     1      17.629   9.238   8.911  1.00  0.00     0.039 C 
HETATM   11  C   UNL     1      17.653   9.365   7.416  1.00  0.00    -0.011 C 
HETATM   12  C   UNL     1      16.622   9.233   6.547  1.00  0.00     0.041 C 
HETATM   13  C   UNL     1      16.581   9.939   5.256  1.00  0.00     0.251 C 
HETATM   14  C   UNL     1      15.408   8.355   6.835  1.00  0.00     0.255 C 
HETATM   15  O   UNL     1      17.633  10.256   4.728  1.00  0.00    -0.268 OA
HETATM   16  N   UNL     1      15.350  10.301   4.732  1.00  0.00    -0.329 N 
HETATM   17  C   UNL     1      14.140   9.481   5.054  1.00  0.00     0.288 C 
ATOM     18  HN  UNL     1      15.269  11.121   4.131  1.00  0.00     0.164 HD
HETATM   19  C   UNL     1      13.304  10.277   6.057  1.00  0.00     0.059 C 
HETATM   20  N   UNL     1      14.563   8.174   5.627  1.00  0.00    -0.042 N 
HETATM   21  C   UNL     1      13.411   9.874   7.519  1.00  0.00     0.040 C 
HETATM   22  C   UNL     1      14.628   9.072   7.936  1.00  0.00    -0.048 C 
HETATM   23  C   UNL     1      15.131   9.165   9.348  1.00  0.00    -0.014 C 
ATOM     24  HN2 UNL     1      15.030   7.594   4.929  1.00  0.00     0.280 HD
ATOM     25  HN1 UNL     1      13.760   7.574   5.819  1.00  0.00     0.280 HD
ENDBRANCH   5   9
BRANCH   8  26
HETATM   26  O   UNL     1      18.989   8.967  11.469  1.00  0.00    -0.389 OA
ATOM     27  HO  UNL     1      18.562   8.138  11.285  1.00  0.00     0.210 HD
ENDBRANCH   8  26
BRANCH   6  28
HETATM   28  C   UNL     1      14.282  10.508  13.697  1.00  0.00     0.062 C 
BRANCH  28  29
HETATM   29  C   UNL     1      14.547  11.287  15.001  1.00  0.00     0.021 C 
BRANCH  29  30
HETATM   30  C   UNL     1      13.804  10.657  16.202  1.00  0.00     0.163 C 
BRANCH  30  31
HETATM   31  S   UNL     1      14.417  11.306  17.721  1.00  0.00     0.226 S 
HETATM   32  O   UNL     1      13.751  10.696  18.820  1.00  0.00    -0.206 OA
HETATM   33  O   UNL     1      15.872  11.173  17.642  1.00  0.00    -0.206 OA
BRANCH  31  34
HETATM   34  N   UNL     1      14.100  12.901  17.644  1.00  0.00    -0.324 N 
HETATM   35  C   UNL     1      13.664  13.452  18.932  1.00  0.00     0.159 C 
ATOM     36  HN  UNL     1      14.195  13.457  16.794  1.00  0.00     0.171 HD
ENDBRANCH  31  34
ENDBRANCH  30  31
ENDBRANCH  29  30
ENDBRANCH  28  29
ENDBRANCH   6  28
BRANCH   7  37
HETATM   37  O   UNL     1      19.112  11.154  13.383  1.00  0.00    -0.368 OA
ATOM     38  HO  UNL     1      18.986  11.756  14.108  1.00  0.00     0.212 HD
ENDBRANCH   7  37
TORSDOF 8
ENDMDL
MODEL 7
REMARK VINA RESULT:      -7.6      1.768      2.242
REMARK  8 active torsions:
REMARK  status: ('A' for Active; 'I' for Inactive)
REMARK    1  A    between atoms: C_5  and  C_19 
REMARK    2  A    between atoms: C_14  and  S_16 
REMARK    3  A    between atoms: C_14  and  C_23 
REMARK    4  A    between atoms: S_16  and  N_29 
REMARK    5  A    between atoms: O_17  and  C_32 
REMARK    6  A    between atoms: C_22  and  C_28 
REMARK    7  A    between atoms: C_23  and  C_28 
REMARK    8  A    between atoms: O_33  and  C_38 
ROOT
HETATM    1  O   UNL     1      13.916   8.305   8.010  1.00  0.00    -0.350 OA
HETATM    2  N   UNL     1      15.513   9.874   8.193  1.00  0.00    -0.020 N 
ATOM      3  HN1 UNL     1      15.979  10.590   8.749  1.00  0.00     0.283 HD
ATOM      4  HN2 UNL     1      14.880  10.490   7.683  1.00  0.00     0.283 HD
HETATM    5  C   UNL     1      14.738   7.243   7.424  1.00  0.00     0.165 C 
HETATM    6  C   UNL     1      14.797   8.870   9.025  1.00  0.00     0.324 C 
HETATM    7  C   UNL     1      16.423   9.152   7.323  1.00  0.00     0.353 C 
HETATM    8  C   UNL     1      15.785   7.987   6.564  1.00  0.00     0.204 C 
ENDROOT
BRANCH   5   9
HETATM    9  C   UNL     1      13.681   6.743   6.393  1.00  0.00     0.044 C 
HETATM   10  C   UNL     1      14.365   6.703   5.010  1.00  0.00     0.039 C 
HETATM   11  C   UNL     1      13.643   6.099   3.842  1.00  0.00    -0.011 C 
HETATM   12  C   UNL     1      12.887   4.974   3.814  1.00  0.00     0.041 C 
HETATM   13  C   UNL     1      11.774   4.793   2.868  1.00  0.00     0.251 C 
HETATM   14  C   UNL     1      13.112   3.805   4.769  1.00  0.00     0.255 C 
HETATM   15  O   UNL     1      11.802   5.394   1.808  1.00  0.00    -0.268 OA
HETATM   16  N   UNL     1      10.689   4.021   3.254  1.00  0.00    -0.329 N 
HETATM   17  C   UNL     1      10.886   2.907   4.234  1.00  0.00     0.288 C 
ATOM     18  HN  UNL     1       9.762   4.211   2.871  1.00  0.00     0.164 HD
HETATM   19  C   UNL     1      10.303   3.368   5.570  1.00  0.00     0.059 C 
HETATM   20  N   UNL     1      12.338   2.605   4.358  1.00  0.00    -0.042 N 
HETATM   21  C   UNL     1      11.286   3.862   6.619  1.00  0.00     0.040 C 
HETATM   22  C   UNL     1      12.658   4.297   6.142  1.00  0.00    -0.048 C 
HETATM   23  C   UNL     1      13.425   5.326   6.922  1.00  0.00    -0.014 C 
ATOM     24  HN2 UNL     1      12.710   2.198   3.500  1.00  0.00     0.280 HD
ATOM     25  HN1 UNL     1      12.503   1.821   4.990  1.00  0.00     0.280 HD
ENDBRANCH   5   9
BRANCH   8  26
HETATM   26  O   UNL     1      16.866   7.081   6.268  1.00  0.00    -0.389 OA
ATOM     27  HO  UNL     1      17.244   6.783   7.087  1.00  0.00     0.210 HD
ENDBRANCH   8  26
BRANCH   6  28
HETATM   28  C   UNL     1      13.808   9.600   9.982  1.00  0.00     0.062 C 
BRANCH  28  29
HETATM   29  C   UNL     1      14.610  10.085  11.207  1.00  0.00     0.021 C 
BRANCH  29  30
HETATM   30  C   UNL     1      15.560   8.986  11.738  1.00  0.00     0.163 C 
BRANCH  30  31
HETATM   31  S   UNL     1      17.194   9.617  11.926  1.00  0.00     0.226 S 
HETATM   32  O   UNL     1      18.122   8.547  12.063  1.00  0.00    -0.206 OA
HETATM   33  O   UNL     1      17.383  10.549  10.814  1.00  0.00    -0.206 OA
BRANCH  31  34
HETATM   34  N   UNL     1      17.131  10.525  13.277  1.00  0.00    -0.324 N 
HETATM   35  C   UNL     1      18.456  10.762  13.860  1.00  0.00     0.159 C 
ATOM     36  HN  UNL     1      16.265  10.889  13.674  1.00  0.00     0.171 HD
ENDBRANCH  31  34
ENDBRANCH  30  31
ENDBRANCH  29  30
ENDBRANCH  28  29
ENDBRANCH   6  28
BRANCH   7  37
HETATM   37  O   UNL     1      17.115   9.976   6.410  1.00  0.00    -0.368 OA
ATOM     38  HO  UNL     1      18.054   9.835   6.400  1.00  0.00     0.212 HD
ENDBRANCH   7  37
TORSDOF 8
ENDMDL
MODEL 8
REMARK VINA RESULT:      -7.4      2.035      3.166
REMARK  8 active torsions:
REMARK  status: ('A' for Active; 'I' for Inactive)
REMARK    1  A    between atoms: C_5  and  C_19 
REMARK    2  A    between atoms: C_14  and  S_16 
REMARK    3  A    between atoms: C_14  and  C_23 
REMARK    4  A    between atoms: S_16  and  N_29 
REMARK    5  A    between atoms: O_17  and  C_32 
REMARK    6  A    between atoms: C_22  and  C_28 
REMARK    7  A    between atoms: C_23  and  C_28 
REMARK    8  A    between atoms: O_33  and  C_38 
ROOT
HETATM    1  O   UNL     1      15.728   8.149   6.776  1.00  0.00    -0.350 OA
HETATM    2  N   UNL     1      15.004   9.399   8.496  1.00  0.00    -0.020 N 
ATOM      3  HN1 UNL     1      15.197  10.091   9.220  1.00  0.00     0.283 HD
ATOM      4  HN2 UNL     1      15.120   8.566   9.072  1.00  0.00     0.283 HD
HETATM    5  C   UNL     1      14.619   8.406   5.854  1.00  0.00     0.165 C 
HETATM    6  C   UNL     1      15.967   9.460   7.365  1.00  0.00     0.324 C 
HETATM    7  C   UNL     1      13.669   9.520   7.939  1.00  0.00     0.353 C 
HETATM    8  C   UNL     1      13.382   8.582   6.766  1.00  0.00     0.204 C 
ENDROOT
BRANCH   5   9
HETATM    9  C   UNL     1      14.491   6.950   5.311  1.00  0.00     0.044 C 
HETATM   10  C   UNL     1      13.455   6.218   6.190  1.00  0.00     0.039 C 
HETATM   11  C   UNL     1      12.994   4.843   5.804  1.00  0.00    -0.011 C 
HETATM   12  C   UNL     1      12.696   4.375   4.568  1.00  0.00     0.041 C 
HETATM   13  C   UNL     1      12.850   2.958   4.200  1.00  0.00     0.251 C 
HETATM   14  C   UNL     1      12.187   5.276   3.446  1.00  0.00     0.255 C 
HETATM   15  O   UNL     1      12.780   2.114   5.076  1.00  0.00    -0.268 OA
HETATM   16  N   UNL     1      13.164   2.640   2.887  1.00  0.00    -0.329 N 
HETATM   17  C   UNL     1      12.722   3.546   1.781  1.00  0.00     0.288 C 
ATOM     18  HN  UNL     1      13.694   1.793   2.677  1.00  0.00     0.164 HD
HETATM   19  C   UNL     1      13.956   4.302   1.290  1.00  0.00     0.059 C 
HETATM   20  N   UNL     1      11.685   4.485   2.292  1.00  0.00    -0.042 N 
HETATM   21  C   UNL     1      14.132   5.729   1.781  1.00  0.00     0.040 C 
HETATM   22  C   UNL     1      13.379   6.137   3.032  1.00  0.00    -0.048 C 
HETATM   23  C   UNL     1      13.930   7.224   3.910  1.00  0.00    -0.014 C 
ATOM     24  HN2 UNL     1      10.820   3.997   2.524  1.00  0.00     0.280 HD
ATOM     25  HN1 UNL     1      11.333   5.090   1.551  1.00  0.00     0.280 HD
ENDBRANCH   5   9
BRANCH   8  26
HETATM   26  O   UNL     1      12.338   9.221   6.006  1.00  0.00    -0.389 OA
ATOM     27  HO  UNL     1      11.722   8.557   5.720  1.00  0.00     0.210 HD
ENDBRANCH   8  26
BRANCH   6  28
HETATM   28  C   UNL     1      17.421   9.339   7.914  1.00  0.00     0.062 C 
BRANCH  28  29
HETATM   29  C   UNL     1      17.330   8.920   9.396  1.00  0.00     0.021 C 
BRANCH  29  30
HETATM   30  C   UNL     1      17.196  10.147  10.327  1.00  0.00     0.163 C 
BRANCH  30  31
HETATM   31  S   UNL     1      17.468   9.685  12.006  1.00  0.00     0.226 S 
HETATM   32  O   UNL     1      16.258   9.784  12.746  1.00  0.00    -0.206 OA
HETATM   33  O   UNL     1      18.131   8.382  11.948  1.00  0.00    -0.206 OA
BRANCH  31  34
HETATM   34  N   UNL     1      18.584  10.740  12.547  1.00  0.00    -0.324 N 
HETATM   35  C   UNL     1      19.358  10.213  13.677  1.00  0.00     0.159 C 
ATOM     36  HN  UNL     1      18.729  11.666  12.145  1.00  0.00     0.171 HD
ENDBRANCH  31  34
ENDBRANCH  30  31
ENDBRANCH  29  30
ENDBRANCH  28  29
ENDBRANCH   6  28
BRANCH   7  37
HETATM   37  O   UNL     1      12.638   9.394   8.895  1.00  0.00    -0.368 OA
ATOM     38  HO  UNL     1      12.937   9.463   9.794  1.00  0.00     0.212 HD
ENDBRANCH   7  37
TORSDOF 8
ENDMDL
MODEL 9
REMARK VINA RESULT:      -7.3      3.573      5.107
REMARK  8 active torsions:
REMARK  status: ('A' for Active; 'I' for Inactive)
REMARK    1  A    between atoms: C_5  and  C_19 
REMARK    2  A    between atoms: C_14  and  S_16 
REMARK    3  A    between atoms: C_14  and  C_23 
REMARK    4  A    between atoms: S_16  and  N_29 
REMARK    5  A    between atoms: O_17  and  C_32 
REMARK    6  A    between atoms: C_22  and  C_28 
REMARK    7  A    between atoms: C_23  and  C_28 
REMARK    8  A    between atoms: O_33  and  C_38 
ROOT
HETATM    1  O   UNL     1      12.918   5.757   6.590  1.00  0.00    -0.350 OA
HETATM    2  N   UNL     1      13.458   7.328   5.078  1.00  0.00    -0.020 N 
ATOM      3  HN1 UNL     1      13.801   8.266   4.872  1.00  0.00     0.283 HD
ATOM      4  HN2 UNL     1      12.461   7.536   5.028  1.00  0.00     0.283 HD
HETATM    5  C   UNL     1      13.591   4.622   5.954  1.00  0.00     0.165 C 
HETATM    6  C   UNL     1      13.880   6.838   6.417  1.00  0.00     0.324 C 
HETATM    7  C   UNL     1      13.881   6.344   4.099  1.00  0.00     0.353 C 
HETATM    8  C   UNL     1      13.491   4.904   4.437  1.00  0.00     0.204 C 
ENDROOT
BRANCH   5   9
HETATM    9  C   UNL     1      12.470   3.572   6.224  1.00  0.00     0.044 C 
HETATM   10  C   UNL     1      12.020   3.740   7.690  1.00  0.00     0.039 C 
HETATM   11  C   UNL     1      10.831   2.976   8.193  1.00  0.00    -0.011 C 
HETATM   12  C   UNL     1       9.653   2.746   7.562  1.00  0.00     0.041 C 
HETATM   13  C   UNL     1       8.835   1.551   7.826  1.00  0.00     0.251 C 
HETATM   14  C   UNL     1       9.080   3.696   6.514  1.00  0.00     0.255 C 
HETATM   15  O   UNL     1       8.926   1.007   8.913  1.00  0.00    -0.268 OA
HETATM   16  N   UNL     1       8.062   1.032   6.799  1.00  0.00    -0.329 N 
HETATM   17  C   UNL     1       7.542   1.943   5.732  1.00  0.00     0.288 C 
ATOM     18  HN  UNL     1       7.849   0.034   6.771  1.00  0.00     0.164 HD
HETATM   19  C   UNL     1       8.367   1.685   4.471  1.00  0.00     0.059 C 
HETATM   20  N   UNL     1       7.673   3.358   6.179  1.00  0.00    -0.042 N 
HETATM   21  C   UNL     1       9.471   2.680   4.153  1.00  0.00     0.040 C 
HETATM   22  C   UNL     1       9.978   3.549   5.286  1.00  0.00    -0.048 C 
HETATM   23  C   UNL     1      11.388   4.065   5.255  1.00  0.00    -0.014 C 
ATOM     24  HN2 UNL     1       7.046   3.563   6.956  1.00  0.00     0.280 HD
ATOM     25  HN1 UNL     1       7.289   4.003   5.489  1.00  0.00     0.280 HD
ENDBRANCH   5   9
BRANCH   8  26
HETATM   26  O   UNL     1      14.447   4.073   3.751  1.00  0.00    -0.389 OA
ATOM     27  HO  UNL     1      14.105   3.865   2.889  1.00  0.00     0.210 HD
ENDBRANCH   8  26
BRANCH   6  28
HETATM   28  C   UNL     1      13.451   7.868   7.505  1.00  0.00     0.062 C 
BRANCH  28  29
HETATM   29  C   UNL     1      13.512   9.273   6.873  1.00  0.00     0.021 C 
BRANCH  29  30
HETATM   30  C   UNL     1      14.947   9.848   6.899  1.00  0.00     0.163 C 
BRANCH  30  31
HETATM   31  S   UNL     1      15.359  10.557   5.339  1.00  0.00     0.226 S 
HETATM   32  O   UNL     1      14.547   9.998   4.314  1.00  0.00    -0.206 OA
HETATM   33  O   UNL     1      15.304  12.005   5.543  1.00  0.00    -0.206 OA
BRANCH  31  34
HETATM   34  N   UNL     1      16.930  10.188   5.121  1.00  0.00    -0.324 N 
HETATM   35  C   UNL     1      17.468   9.350   6.199  1.00  0.00     0.159 C 
ATOM     36  HN  UNL     1      17.480  10.503   4.322  1.00  0.00     0.171 HD
ENDBRANCH  31  34
ENDBRANCH  30  31
ENDBRANCH  29  30
ENDBRANCH  28  29
ENDBRANCH   6  28
BRANCH   7  37
HETATM   37  O   UNL     1      13.471   6.636   2.781  1.00  0.00    -0.368 OA
ATOM     38  HO  UNL     1      13.950   6.159   2.114  1.00  0.00     0.212 HD
ENDBRANCH   7  37
TORSDOF 8
ENDMDL
