MODEL 1
REMARK VINA RESULT:      -8.0      0.000      0.000
REMARK  11 active torsions:
REMARK  status: ('A' for Active; 'I' for Inactive)
REMARK    1  A    between atoms: C_3  and  C_23 
REMARK    2  A    between atoms: C_3  and  C_31 
REMARK    3  A    between atoms: C_4  and  C_23 
REMARK    4  A    between atoms: C_4  and  C_29 
REMARK    5  A    between atoms: C_5  and  C_27 
REMARK    6  A    between atoms: C_7  and  O_19 
REMARK    7  A    between atoms: C_9  and  C_27 
REMARK    8  A    between atoms: O_11  and  C_21 
REMARK    9  A    between atoms: O_11  and  P_26 
REMARK   10  A    between atoms: O_15  and  C_28 
REMARK   11  A    between atoms: C_27  and  C_31 
ROOT
HETATM    1  C   UNL     1      -4.966  48.672 -21.986  1.00  0.00     0.034 C 
ENDROOT
BRANCH   1   2
HETATM    2  C   UNL     1      -4.348  47.269 -22.252  1.00  0.00     0.222 C 
HETATM    3  N   UNL     1      -4.330  46.542 -20.982  1.00  0.00    -0.368 N 
HETATM    4  C   UNL     1      -4.123  45.110 -21.073  1.00  0.00     0.263 C 
ATOM      5  HN  UNL     1      -4.456  47.014 -20.086  1.00  0.00     0.158 HD
HETATM    6  C   UNL     1      -5.113  44.484 -22.071  1.00  0.00     0.191 C 
HETATM    7  C   UNL     1      -5.000  45.226 -23.400  1.00  0.00     0.206 C 
HETATM    8  O   UNL     1      -5.262  46.621 -23.173  1.00  0.00    -0.364 OA
BRANCH   4   9
HETATM    9  O   UNL     1      -4.290  44.486 -19.809  1.00  0.00    -0.255 OA
BRANCH   9  10
HETATM   10  P   UNL     1      -3.007  44.044 -18.976  1.00  0.00     0.424 P 
HETATM   11  O   UNL     1      -3.521  43.163 -17.884  1.00  0.00    -0.617 OA
HETATM   12  O   UNL     1      -2.266  45.288 -18.654  1.00  0.00    -0.617 OA
HETATM   13  O   UNL     1      -2.132  43.199 -19.893  1.00  0.00    -0.617 OA
ENDBRANCH   9  10
ENDBRANCH   4   9
BRANCH   6  14
HETATM   14  O   UNL     1      -4.852  43.100 -22.251  1.00  0.00    -0.389 OA
ATOM     15  HO  UNL     1      -5.233  42.793 -23.064  1.00  0.00     0.210 HD
ENDBRANCH   6  14
ENDBRANCH   1   2
BRANCH   1  16
HETATM   16  C   UNL     1      -3.963  49.852 -22.026  1.00  0.00     0.004 C 
HETATM   17  C   UNL     1      -3.535  50.353 -20.629  1.00  0.00     0.005 C 
ENDBRANCH   1  16
BRANCH   1  18
HETATM   18  C   UNL     1      -5.697  48.485 -20.655  1.00  0.00     0.009 C 
BRANCH  18  19
HETATM   19  C   UNL     1      -7.108  48.891 -20.279  1.00  0.00     0.008 C 
BRANCH  19  20
HETATM   20  C   UNL     1      -7.707  48.353 -18.977  1.00  0.00     0.084 C 
BRANCH  20  21
HETATM   21  C   UNL     1      -6.801  48.589 -17.776  1.00  0.00     0.162 C 
HETATM   22  O   UNL     1      -6.535  47.552 -17.124  1.00  0.00    -0.292 OA
BRANCH  21  23
HETATM   23  C   UNL     1      -6.283  49.929 -17.325  1.00  0.00     0.049 C 
HETATM   24  C   UNL     1      -7.097  51.071 -16.793  1.00  0.00    -0.045 C 
HETATM   25  C   UNL     1      -8.239  51.681 -17.564  1.00  0.00     0.049 C 
HETATM   26  C   UNL     1      -6.547  51.773 -15.687  1.00  0.00     0.008 C 
HETATM   27  C   UNL     1      -5.141  51.998 -15.674  1.00  0.00     0.003 C 
HETATM   28  C   UNL     1      -4.295  51.198 -16.497  1.00  0.00     0.037 C 
HETATM   29  C   UNL     1      -4.797  50.041 -17.147  1.00  0.00     0.080 C 
BRANCH  29  30
HETATM   30  O   UNL     1      -3.970  48.997 -17.442  1.00  0.00    -0.360 OA
ATOM     31  HO  UNL     1      -4.255  48.101 -17.304  1.00  0.00     0.217 HD
ENDBRANCH  29  30
ENDBRANCH  21  23
ENDBRANCH  20  21
ENDBRANCH  19  20
ENDBRANCH  18  19
ENDBRANCH   1  18
TORSDOF 11
ENDMDL
MODEL 2
REMARK VINA RESULT:      -8.0      1.224      2.698
REMARK  11 active torsions:
REMARK  status: ('A' for Active; 'I' for Inactive)
REMARK    1  A    between atoms: C_3  and  C_23 
REMARK    2  A    between atoms: C_3  and  C_31 
REMARK    3  A    between atoms: C_4  and  C_23 
REMARK    4  A    between atoms: C_4  and  C_29 
REMARK    5  A    between atoms: C_5  and  C_27 
REMARK    6  A    between atoms: C_7  and  O_19 
REMARK    7  A    between atoms: C_9  and  C_27 
REMARK    8  A    between atoms: O_11  and  C_21 
REMARK    9  A    between atoms: O_11  and  P_26 
REMARK   10  A    between atoms: O_15  and  C_28 
REMARK   11  A    between atoms: C_27  and  C_31 
ROOT
HETATM    1  C   UNL     1      -4.531  48.783 -22.700  1.00  0.00     0.034 C 
ENDROOT
BRANCH   1   2
HETATM    2  C   UNL     1      -4.136  47.283 -22.821  1.00  0.00     0.222 C 
HETATM    3  N   UNL     1      -4.082  46.727 -21.468  1.00  0.00    -0.368 N 
HETATM    4  C   UNL     1      -4.077  45.279 -21.377  1.00  0.00     0.263 C 
ATOM      5  HN  UNL     1      -4.049  47.321 -20.640  1.00  0.00     0.158 HD
HETATM    6  C   UNL     1      -5.242  44.684 -22.188  1.00  0.00     0.191 C 
HETATM    7  C   UNL     1      -5.172  45.229 -23.613  1.00  0.00     0.206 C 
HETATM    8  O   UNL     1      -5.221  46.664 -23.560  1.00  0.00    -0.364 OA
BRANCH   4   9
HETATM    9  O   UNL     1      -4.192  44.851 -20.028  1.00  0.00    -0.255 OA
BRANCH   9  10
HETATM   10  P   UNL     1      -3.043  43.952 -19.390  1.00  0.00     0.424 P 
HETATM   11  O   UNL     1      -2.507  43.128 -20.516  1.00  0.00    -0.617 OA
HETATM   12  O   UNL     1      -3.633  43.301 -18.195  1.00  0.00    -0.617 OA
HETATM   13  O   UNL     1      -1.936  44.886 -18.920  1.00  0.00    -0.617 OA
ENDBRANCH   9  10
ENDBRANCH   4   9
BRANCH   6  14
HETATM   14  O   UNL     1      -5.187  43.265 -22.195  1.00  0.00    -0.389 OA
ATOM     15  HO  UNL     1      -4.442  42.959 -21.693  1.00  0.00     0.210 HD
ENDBRANCH   6  14
ENDBRANCH   1   2
BRANCH   1  16
HETATM   16  C   UNL     1      -4.284  49.633 -23.972  1.00  0.00     0.004 C 
HETATM   17  C   UNL     1      -5.518  50.441 -24.431  1.00  0.00     0.005 C 
ENDBRANCH   1  16
BRANCH   1  18
HETATM   18  C   UNL     1      -3.775  49.244 -21.453  1.00  0.00     0.009 C 
BRANCH  18  19
HETATM   19  C   UNL     1      -4.012  50.472 -20.596  1.00  0.00     0.008 C 
BRANCH  19  20
HETATM   20  C   UNL     1      -3.099  50.717 -19.392  1.00  0.00     0.084 C 
BRANCH  20  21
HETATM   21  C   UNL     1      -3.698  50.202 -18.090  1.00  0.00     0.162 C 
HETATM   22  O   UNL     1      -2.978  50.399 -17.083  1.00  0.00    -0.292 OA
BRANCH  21  23
HETATM   23  C   UNL     1      -5.005  49.465 -17.963  1.00  0.00     0.049 C 
HETATM   24  C   UNL     1      -6.367  50.076 -17.816  1.00  0.00    -0.045 C 
HETATM   25  C   UNL     1      -6.708  51.037 -16.707  1.00  0.00     0.049 C 
HETATM   26  C   UNL     1      -7.413  49.464 -18.557  1.00  0.00     0.008 C 
HETATM   27  C   UNL     1      -7.414  48.044 -18.660  1.00  0.00     0.003 C 
HETATM   28  C   UNL     1      -6.213  47.321 -18.400  1.00  0.00     0.037 C 
HETATM   29  C   UNL     1      -4.972  47.997 -18.272  1.00  0.00     0.080 C 
BRANCH  29  30
HETATM   30  O   UNL     1      -3.803  47.368 -18.587  1.00  0.00    -0.360 OA
ATOM     31  HO  UNL     1      -2.999  47.865 -18.690  1.00  0.00     0.217 HD
ENDBRANCH  29  30
ENDBRANCH  21  23
ENDBRANCH  20  21
ENDBRANCH  19  20
ENDBRANCH  18  19
ENDBRANCH   1  18
TORSDOF 11
ENDMDL
MODEL 3
REMARK VINA RESULT:      -7.9      5.212      8.229
REMARK  11 active torsions:
REMARK  status: ('A' for Active; 'I' for Inactive)
REMARK    1  A    between atoms: C_3  and  C_23 
REMARK    2  A    between atoms: C_3  and  C_31 
REMARK    3  A    between atoms: C_4  and  C_23 
REMARK    4  A    between atoms: C_4  and  C_29 
REMARK    5  A    between atoms: C_5  and  C_27 
REMARK    6  A    between atoms: C_7  and  O_19 
REMARK    7  A    between atoms: C_9  and  C_27 
REMARK    8  A    between atoms: O_11  and  C_21 
REMARK    9  A    between atoms: O_11  and  P_26 
REMARK   10  A    between atoms: O_15  and  C_28 
REMARK   11  A    between atoms: C_27  and  C_31 
ROOT
HETATM    1  C   UNL     1      -4.604  49.789 -24.718  1.00  0.00     0.034 C 
ENDROOT
BRANCH   1   2
HETATM    2  C   UNL     1      -4.361  51.036 -25.617  1.00  0.00     0.222 C 
HETATM    3  N   UNL     1      -3.612  50.598 -26.795  1.00  0.00    -0.368 N 
HETATM    4  C   UNL     1      -3.589  51.523 -27.912  1.00  0.00     0.263 C 
ATOM      5  HN  UNL     1      -3.137  49.696 -26.829  1.00  0.00     0.158 HD
HETATM    6  C   UNL     1      -5.017  51.962 -28.279  1.00  0.00     0.191 C 
HETATM    7  C   UNL     1      -5.698  52.503 -27.024  1.00  0.00     0.206 C 
HETATM    8  O   UNL     1      -5.684  51.479 -26.015  1.00  0.00    -0.364 OA
BRANCH   4   9
HETATM    9  O   UNL     1      -2.984  50.932 -29.053  1.00  0.00    -0.255 OA
BRANCH   9  10
HETATM   10  P   UNL     1      -1.491  50.388 -28.956  1.00  0.00     0.424 P 
HETATM   11  O   UNL     1      -1.608  48.976 -28.480  1.00  0.00    -0.617 OA
HETATM   12  O   UNL     1      -0.729  51.388 -28.168  1.00  0.00    -0.617 OA
HETATM   13  O   UNL     1      -0.917  50.364 -30.367  1.00  0.00    -0.617 OA
ENDBRANCH   9  10
ENDBRANCH   4   9
BRANCH   6  14
HETATM   14  O   UNL     1      -5.002  52.949 -29.300  1.00  0.00    -0.389 OA
ATOM     15  HO  UNL     1      -4.144  52.994 -29.705  1.00  0.00     0.210 HD
ENDBRANCH   6  14
ENDBRANCH   1   2
BRANCH   1  16
HETATM   16  C   UNL     1      -5.862  48.958 -25.073  1.00  0.00     0.004 C 
HETATM   17  C   UNL     1      -5.559  47.694 -25.908  1.00  0.00     0.005 C 
ENDBRANCH   1  16
BRANCH   1  18
HETATM   18  C   UNL     1      -4.586  50.370 -23.303  1.00  0.00     0.009 C 
BRANCH  18  19
HETATM   19  C   UNL     1      -3.668  50.027 -22.146  1.00  0.00     0.008 C 
BRANCH  19  20
HETATM   20  C   UNL     1      -4.287  49.516 -20.842  1.00  0.00     0.084 C 
BRANCH  20  21
HETATM   21  C   UNL     1      -4.380  47.996 -20.797  1.00  0.00     0.162 C 
HETATM   22  O   UNL     1      -3.975  47.491 -19.723  1.00  0.00    -0.292 OA
BRANCH  21  23
HETATM   23  C   UNL     1      -4.854  47.118 -21.924  1.00  0.00     0.049 C 
HETATM   24  C   UNL     1      -4.002  46.243 -22.797  1.00  0.00    -0.045 C 
HETATM   25  C   UNL     1      -2.841  46.780 -23.594  1.00  0.00     0.049 C 
HETATM   26  C   UNL     1      -4.528  44.960 -23.105  1.00  0.00     0.008 C 
HETATM   27  C   UNL     1      -5.925  44.856 -23.356  1.00  0.00     0.003 C 
HETATM   28  C   UNL     1      -6.798  45.890 -22.904  1.00  0.00     0.037 C 
HETATM   29  C   UNL     1      -6.334  46.894 -22.016  1.00  0.00     0.080 C 
BRANCH  29  30
HETATM   30  O   UNL     1      -7.195  47.512 -21.156  1.00  0.00    -0.360 OA
ATOM     31  HO  UNL     1      -7.577  48.354 -21.376  1.00  0.00     0.217 HD
ENDBRANCH  29  30
ENDBRANCH  21  23
ENDBRANCH  20  21
ENDBRANCH  19  20
ENDBRANCH  18  19
ENDBRANCH   1  18
TORSDOF 11
ENDMDL
MODEL 4
REMARK VINA RESULT:      -7.9      1.311      1.782
REMARK  11 active torsions:
REMARK  status: ('A' for Active; 'I' for Inactive)
REMARK    1  A    between atoms: C_3  and  C_23 
REMARK    2  A    between atoms: C_3  and  C_31 
REMARK    3  A    between atoms: C_4  and  C_23 
REMARK    4  A    between atoms: C_4  and  C_29 
REMARK    5  A    between atoms: C_5  and  C_27 
REMARK    6  A    between atoms: C_7  and  O_19 
REMARK    7  A    between atoms: C_9  and  C_27 
REMARK    8  A    between atoms: O_11  and  C_21 
REMARK    9  A    between atoms: O_11  and  P_26 
REMARK   10  A    between atoms: O_15  and  C_28 
REMARK   11  A    between atoms: C_27  and  C_31 
ROOT
HETATM    1  C   UNL     1      -4.859  47.693 -23.456  1.00  0.00     0.034 C 
ENDROOT
BRANCH   1   2
HETATM    2  C   UNL     1      -4.399  46.285 -22.979  1.00  0.00     0.222 C 
HETATM    3  N   UNL     1      -3.974  46.405 -21.584  1.00  0.00    -0.368 N 
HETATM    4  C   UNL     1      -3.843  45.160 -20.851  1.00  0.00     0.263 C 
ATOM      5  HN  UNL     1      -3.781  47.309 -21.152  1.00  0.00     0.158 HD
HETATM    6  C   UNL     1      -5.125  44.320 -20.982  1.00  0.00     0.191 C 
HETATM    7  C   UNL     1      -5.447  44.150 -22.465  1.00  0.00     0.206 C 
HETATM    8  O   UNL     1      -5.585  45.452 -23.058  1.00  0.00    -0.364 OA
BRANCH   4   9
HETATM    9  O   UNL     1      -3.591  45.400 -19.474  1.00  0.00    -0.255 OA
BRANCH   9  10
HETATM   10  P   UNL     1      -2.472  44.554 -18.722  1.00  0.00     0.424 P 
HETATM   11  O   UNL     1      -1.593  44.005 -19.799  1.00  0.00    -0.617 OA
HETATM   12  O   UNL     1      -3.185  43.643 -17.795  1.00  0.00    -0.617 OA
HETATM   13  O   UNL     1      -1.646  45.524 -17.887  1.00  0.00    -0.617 OA
ENDBRANCH   9  10
ENDBRANCH   4   9
BRANCH   6  14
HETATM   14  O   UNL     1      -4.972  43.053 -20.359  1.00  0.00    -0.389 OA
ATOM     15  HO  UNL     1      -4.166  43.025 -19.858  1.00  0.00     0.210 HD
ENDBRANCH   6  14
ENDBRANCH   1   2
BRANCH   1  16
HETATM   16  C   UNL     1      -3.868  48.845 -23.158  1.00  0.00     0.004 C 
HETATM   17  C   UNL     1      -4.243  50.181 -23.838  1.00  0.00     0.005 C 
ENDBRANCH   1  16
BRANCH   1  18
HETATM   18  C   UNL     1      -6.241  47.842 -22.819  1.00  0.00     0.009 C 
BRANCH  18  19
HETATM   19  C   UNL     1      -6.639  48.626 -21.583  1.00  0.00     0.008 C 
BRANCH  19  20
HETATM   20  C   UNL     1      -7.280  47.878 -20.411  1.00  0.00     0.084 C 
BRANCH  20  21
HETATM   21  C   UNL     1      -6.415  47.910 -19.156  1.00  0.00     0.162 C 
HETATM   22  O   UNL     1      -6.268  46.792 -18.609  1.00  0.00    -0.292 OA
BRANCH  21  23
HETATM   23  C   UNL     1      -5.810  49.146 -18.545  1.00  0.00     0.049 C 
HETATM   24  C   UNL     1      -6.470  50.079 -17.573  1.00  0.00    -0.045 C 
HETATM   25  C   UNL     1      -7.777  50.767 -17.871  1.00  0.00     0.049 C 
HETATM   26  C   UNL     1      -5.660  50.549 -16.505  1.00  0.00     0.008 C 
HETATM   27  C   UNL     1      -4.300  50.861 -16.789  1.00  0.00     0.003 C 
HETATM   28  C   UNL     1      -3.688  50.329 -17.961  1.00  0.00     0.037 C 
HETATM   29  C   UNL     1      -4.330  49.317 -18.720  1.00  0.00     0.080 C 
BRANCH  29  30
HETATM   30  O   UNL     1      -3.598  48.426 -19.449  1.00  0.00    -0.360 OA
ATOM     31  HO  UNL     1      -4.029  47.784 -20.002  1.00  0.00     0.217 HD
ENDBRANCH  29  30
ENDBRANCH  21  23
ENDBRANCH  20  21
ENDBRANCH  19  20
ENDBRANCH  18  19
ENDBRANCH   1  18
TORSDOF 11
ENDMDL
MODEL 5
REMARK VINA RESULT:      -7.5      3.361      6.801
REMARK  11 active torsions:
REMARK  status: ('A' for Active; 'I' for Inactive)
REMARK    1  A    between atoms: C_3  and  C_23 
REMARK    2  A    between atoms: C_3  and  C_31 
REMARK    3  A    between atoms: C_4  and  C_23 
REMARK    4  A    between atoms: C_4  and  C_29 
REMARK    5  A    between atoms: C_5  and  C_27 
REMARK    6  A    between atoms: C_7  and  O_19 
REMARK    7  A    between atoms: C_9  and  C_27 
REMARK    8  A    between atoms: O_11  and  C_21 
REMARK    9  A    between atoms: O_11  and  P_26 
REMARK   10  A    between atoms: O_15  and  C_28 
REMARK   11  A    between atoms: C_27  and  C_31 
ROOT
HETATM    1  C   UNL     1      -5.646  47.434 -22.710  1.00  0.00     0.034 C 
ENDROOT
BRANCH   1   2
HETATM    2  C   UNL     1      -5.667  47.533 -21.157  1.00  0.00     0.222 C 
HETATM    3  N   UNL     1      -4.651  46.617 -20.638  1.00  0.00    -0.368 N 
HETATM    4  C   UNL     1      -4.268  46.811 -19.253  1.00  0.00     0.263 C 
ATOM      5  HN  UNL     1      -4.236  45.886 -21.216  1.00  0.00     0.158 HD
HETATM    6  C   UNL     1      -3.889  48.281 -19.000  1.00  0.00     0.191 C 
HETATM    7  C   UNL     1      -5.039  49.169 -19.470  1.00  0.00     0.206 C 
HETATM    8  O   UNL     1      -5.288  48.902 -20.860  1.00  0.00    -0.364 OA
BRANCH   4   9
HETATM    9  O   UNL     1      -3.166  45.987 -18.905  1.00  0.00    -0.255 OA
BRANCH   9  10
HETATM   10  P   UNL     1      -3.263  44.413 -19.126  1.00  0.00     0.424 P 
HETATM   11  O   UNL     1      -4.553  44.188 -19.847  1.00  0.00    -0.617 OA
HETATM   12  O   UNL     1      -3.020  43.787 -17.804  1.00  0.00    -0.617 OA
HETATM   13  O   UNL     1      -2.126  44.008 -20.055  1.00  0.00    -0.617 OA
ENDBRANCH   9  10
ENDBRANCH   4   9
BRANCH   6  14
HETATM   14  O   UNL     1      -3.616  48.509 -17.625  1.00  0.00    -0.389 OA
ATOM     15  HO  UNL     1      -3.783  47.723 -17.119  1.00  0.00     0.210 HD
ENDBRANCH   6  14
ENDBRANCH   1   2
BRANCH   1  16
HETATM   16  C   UNL     1      -6.315  46.167 -23.298  1.00  0.00     0.004 C 
HETATM   17  C   UNL     1      -5.320  45.034 -23.630  1.00  0.00     0.005 C 
ENDBRANCH   1  16
BRANCH   1  18
HETATM   18  C   UNL     1      -4.164  47.604 -23.050  1.00  0.00     0.009 C 
BRANCH  18  19
HETATM   19  C   UNL     1      -3.532  48.390 -24.182  1.00  0.00     0.008 C 
BRANCH  19  20
HETATM   20  C   UNL     1      -4.018  48.141 -25.612  1.00  0.00     0.084 C 
BRANCH  20  21
HETATM   21  C   UNL     1      -5.229  48.992 -25.973  1.00  0.00     0.162 C 
HETATM   22  O   UNL     1      -6.292  48.340 -26.105  1.00  0.00    -0.292 OA
BRANCH  21  23
HETATM   23  C   UNL     1      -5.209  50.477 -26.220  1.00  0.00     0.049 C 
HETATM   24  C   UNL     1      -4.451  51.196 -27.297  1.00  0.00    -0.045 C 
HETATM   25  C   UNL     1      -2.958  51.066 -27.461  1.00  0.00     0.049 C 
HETATM   26  C   UNL     1      -5.135  52.259 -27.945  1.00  0.00     0.008 C 
HETATM   27  C   UNL     1      -5.965  53.099 -27.149  1.00  0.00     0.003 C 
HETATM   28  C   UNL     1      -6.412  52.641 -25.875  1.00  0.00     0.037 C 
HETATM   29  C   UNL     1      -6.240  51.286 -25.490  1.00  0.00     0.080 C 
BRANCH  29  30
HETATM   30  O   UNL     1      -7.101  50.701 -24.608  1.00  0.00    -0.360 OA
ATOM     31  HO  UNL     1      -7.983  51.036 -24.499  1.00  0.00     0.217 HD
ENDBRANCH  29  30
ENDBRANCH  21  23
ENDBRANCH  20  21
ENDBRANCH  19  20
ENDBRANCH  18  19
ENDBRANCH   1  18
TORSDOF 11
ENDMDL
MODEL 6
REMARK VINA RESULT:      -7.5      4.951      7.921
REMARK  11 active torsions:
REMARK  status: ('A' for Active; 'I' for Inactive)
REMARK    1  A    between atoms: C_3  and  C_23 
REMARK    2  A    between atoms: C_3  and  C_31 
REMARK    3  A    between atoms: C_4  and  C_23 
REMARK    4  A    between atoms: C_4  and  C_29 
REMARK    5  A    between atoms: C_5  and  C_27 
REMARK    6  A    between atoms: C_7  and  O_19 
REMARK    7  A    between atoms: C_9  and  C_27 
REMARK    8  A    between atoms: O_11  and  C_21 
REMARK    9  A    between atoms: O_11  and  P_26 
REMARK   10  A    between atoms: O_15  and  C_28 
REMARK   11  A    between atoms: C_27  and  C_31 
ROOT
HETATM    1  C   UNL     1      -4.449  49.414 -24.445  1.00  0.00     0.034 C 
ENDROOT
BRANCH   1   2
HETATM    2  C   UNL     1      -4.361  50.765 -25.212  1.00  0.00     0.222 C 
HETATM    3  N   UNL     1      -3.677  50.513 -26.481  1.00  0.00    -0.368 N 
HETATM    4  C   UNL     1      -3.801  51.552 -27.485  1.00  0.00     0.263 C 
ATOM      5  HN  UNL     1      -3.145  49.659 -26.649  1.00  0.00     0.158 HD
HETATM    6  C   UNL     1      -5.280  51.918 -27.702  1.00  0.00     0.191 C 
HETATM    7  C   UNL     1      -5.898  52.269 -26.349  1.00  0.00     0.206 C 
HETATM    8  O   UNL     1      -5.737  51.146 -25.466  1.00  0.00    -0.364 OA
BRANCH   4   9
HETATM    9  O   UNL     1      -3.247  51.135 -28.724  1.00  0.00    -0.255 OA
BRANCH   9  10
HETATM   10  P   UNL     1      -1.739  50.625 -28.777  1.00  0.00     0.424 P 
HETATM   11  O   UNL     1      -0.952  51.618 -27.985  1.00  0.00    -0.617 OA
HETATM   12  O   UNL     1      -1.427  50.384 -30.207  1.00  0.00    -0.617 OA
HETATM   13  O   UNL     1      -1.680  49.288 -28.050  1.00  0.00    -0.617 OA
ENDBRANCH   9  10
ENDBRANCH   4   9
BRANCH   6  14
HETATM   14  O   UNL     1      -5.410  53.007 -28.604  1.00  0.00    -0.389 OA
ATOM     15  HO  UNL     1      -5.515  52.691 -29.493  1.00  0.00     0.210 HD
ENDBRANCH   6  14
ENDBRANCH   1   2
BRANCH   1  16
HETATM   16  C   UNL     1      -5.666  48.528 -24.811  1.00  0.00     0.004 C 
HETATM   17  C   UNL     1      -5.339  47.409 -25.825  1.00  0.00     0.005 C 
ENDBRANCH   1  16
BRANCH   1  18
HETATM   18  C   UNL     1      -4.374  49.840 -22.978  1.00  0.00     0.009 C 
BRANCH  18  19
HETATM   19  C   UNL     1      -4.419  48.976 -21.732  1.00  0.00     0.008 C 
BRANCH  19  20
HETATM   20  C   UNL     1      -5.779  48.640 -21.118  1.00  0.00     0.084 C 
BRANCH  20  21
HETATM   21  C   UNL     1      -5.763  47.326 -20.346  1.00  0.00     0.162 C 
HETATM   22  O   UNL     1      -6.147  47.427 -19.157  1.00  0.00    -0.292 OA
BRANCH  21  23
HETATM   23  C   UNL     1      -5.288  46.004 -20.886  1.00  0.00     0.049 C 
HETATM   24  C   UNL     1      -5.383  45.530 -22.306  1.00  0.00    -0.045 C 
HETATM   25  C   UNL     1      -6.693  45.454 -23.048  1.00  0.00     0.049 C 
HETATM   26  C   UNL     1      -4.250  44.842 -22.817  1.00  0.00     0.008 C 
HETATM   27  C   UNL     1      -3.564  43.950 -21.945  1.00  0.00     0.003 C 
HETATM   28  C   UNL     1      -3.745  44.068 -20.536  1.00  0.00     0.037 C 
HETATM   29  C   UNL     1      -4.406  45.195 -19.981  1.00  0.00     0.080 C 
BRANCH  29  30
HETATM   30  O   UNL     1      -4.113  45.619 -18.718  1.00  0.00    -0.360 OA
ATOM     31  HO  UNL     1      -3.256  45.457 -18.340  1.00  0.00     0.217 HD
ENDBRANCH  29  30
ENDBRANCH  21  23
ENDBRANCH  20  21
ENDBRANCH  19  20
ENDBRANCH  18  19
ENDBRANCH   1  18
TORSDOF 11
ENDMDL
MODEL 7
REMARK VINA RESULT:      -7.3      1.362      2.080
REMARK  11 active torsions:
REMARK  status: ('A' for Active; 'I' for Inactive)
REMARK    1  A    between atoms: C_3  and  C_23 
REMARK    2  A    between atoms: C_3  and  C_31 
REMARK    3  A    between atoms: C_4  and  C_23 
REMARK    4  A    between atoms: C_4  and  C_29 
REMARK    5  A    between atoms: C_5  and  C_27 
REMARK    6  A    between atoms: C_7  and  O_19 
REMARK    7  A    between atoms: C_9  and  C_27 
REMARK    8  A    between atoms: O_11  and  C_21 
REMARK    9  A    between atoms: O_11  and  P_26 
REMARK   10  A    between atoms: O_15  and  C_28 
REMARK   11  A    between atoms: C_27  and  C_31 
ROOT
HETATM    1  C   UNL     1      -5.313  48.472 -22.403  1.00  0.00     0.034 C 
ENDROOT
BRANCH   1   2
HETATM    2  C   UNL     1      -4.765  47.015 -22.399  1.00  0.00     0.222 C 
HETATM    3  N   UNL     1      -4.402  46.679 -21.021  1.00  0.00    -0.368 N 
HETATM    4  C   UNL     1      -4.204  45.270 -20.743  1.00  0.00     0.263 C 
ATOM      5  HN  UNL     1      -4.295  47.393 -20.301  1.00  0.00     0.158 HD
HETATM    6  C   UNL     1      -5.413  44.450 -21.226  1.00  0.00     0.191 C 
HETATM    7  C   UNL     1      -5.665  44.775 -22.697  1.00  0.00     0.206 C 
HETATM    8  O   UNL     1      -5.880  46.191 -22.825  1.00  0.00    -0.364 OA
BRANCH   4   9
HETATM    9  O   UNL     1      -4.023  45.043 -19.353  1.00  0.00    -0.255 OA
BRANCH   9  10
HETATM   10  P   UNL     1      -2.786  44.174 -18.855  1.00  0.00     0.424 P 
HETATM   11  O   UNL     1      -1.782  45.158 -18.347  1.00  0.00    -0.617 OA
HETATM   12  O   UNL     1      -2.442  43.254 -19.967  1.00  0.00    -0.617 OA
HETATM   13  O   UNL     1      -3.259  43.332 -17.677  1.00  0.00    -0.617 OA
ENDBRANCH   9  10
ENDBRANCH   4   9
BRANCH   6  14
HETATM   14  O   UNL     1      -5.187  43.058 -21.058  1.00  0.00    -0.389 OA
ATOM     15  HO  UNL     1      -5.826  42.688 -20.461  1.00  0.00     0.210 HD
ENDBRANCH   6  14
ENDBRANCH   1   2
BRANCH   1  16
HETATM   16  C   UNL     1      -4.328  49.544 -22.933  1.00  0.00     0.004 C 
HETATM   17  C   UNL     1      -3.665  50.386 -21.820  1.00  0.00     0.005 C 
ENDBRANCH   1  16
BRANCH   1  18
HETATM   18  C   UNL     1      -5.777  48.673 -20.959  1.00  0.00     0.009 C 
BRANCH  18  19
HETATM   19  C   UNL     1      -7.035  48.160 -20.284  1.00  0.00     0.008 C 
BRANCH  19  20
HETATM   20  C   UNL     1      -7.129  48.223 -18.758  1.00  0.00     0.084 C 
BRANCH  20  21
HETATM   21  C   UNL     1      -6.998  49.644 -18.223  1.00  0.00     0.162 C 
HETATM   22  O   UNL     1      -7.985  50.376 -18.469  1.00  0.00    -0.292 OA
BRANCH  21  23
HETATM   23  C   UNL     1      -5.796  50.197 -17.505  1.00  0.00     0.049 C 
HETATM   24  C   UNL     1      -4.370  50.139 -17.969  1.00  0.00    -0.045 C 
HETATM   25  C   UNL     1      -3.678  48.840 -18.296  1.00  0.00     0.049 C 
HETATM   26  C   UNL     1      -3.595  51.313 -17.771  1.00  0.00     0.008 C 
HETATM   27  C   UNL     1      -3.791  52.043 -16.564  1.00  0.00     0.003 C 
HETATM   28  C   UNL     1      -4.985  51.846 -15.811  1.00  0.00     0.037 C 
HETATM   29  C   UNL     1      -6.075  51.118 -16.355  1.00  0.00     0.080 C 
BRANCH  29  30
HETATM   30  O   UNL     1      -7.352  51.378 -15.953  1.00  0.00    -0.360 OA
ATOM     31  HO  UNL     1      -8.069  50.817 -16.226  1.00  0.00     0.217 HD
ENDBRANCH  29  30
ENDBRANCH  21  23
ENDBRANCH  20  21
ENDBRANCH  19  20
ENDBRANCH  18  19
ENDBRANCH   1  18
TORSDOF 11
ENDMDL
MODEL 8
REMARK VINA RESULT:      -7.3      3.308      6.295
REMARK  11 active torsions:
REMARK  status: ('A' for Active; 'I' for Inactive)
REMARK    1  A    between atoms: C_3  and  C_23 
REMARK    2  A    between atoms: C_3  and  C_31 
REMARK    3  A    between atoms: C_4  and  C_23 
REMARK    4  A    between atoms: C_4  and  C_29 
REMARK    5  A    between atoms: C_5  and  C_27 
REMARK    6  A    between atoms: C_7  and  O_19 
REMARK    7  A    between atoms: C_9  and  C_27 
REMARK    8  A    between atoms: O_11  and  C_21 
REMARK    9  A    between atoms: O_11  and  P_26 
REMARK   10  A    between atoms: O_15  and  C_28 
REMARK   11  A    between atoms: C_27  and  C_31 
ROOT
HETATM    1  C   UNL     1      -4.857  48.397 -21.104  1.00  0.00     0.034 C 
ENDROOT
BRANCH   1   2
HETATM    2  C   UNL     1      -4.285  47.039 -21.604  1.00  0.00     0.222 C 
HETATM    3  N   UNL     1      -4.080  46.184 -20.435  1.00  0.00    -0.368 N 
HETATM    4  C   UNL     1      -3.889  44.772 -20.707  1.00  0.00     0.263 C 
ATOM      5  HN  UNL     1      -4.072  46.558 -19.486  1.00  0.00     0.158 HD
HETATM    6  C   UNL     1      -5.016  44.239 -21.608  1.00  0.00     0.191 C 
HETATM    7  C   UNL     1      -5.100  45.118 -22.854  1.00  0.00     0.206 C 
HETATM    8  O   UNL     1      -5.326  46.477 -22.444  1.00  0.00    -0.364 OA
BRANCH   4   9
HETATM    9  O   UNL     1      -3.868  44.017 -19.505  1.00  0.00    -0.255 OA
BRANCH   9  10
HETATM   10  P   UNL     1      -2.573  44.054 -18.578  1.00  0.00     0.424 P 
HETATM   11  O   UNL     1      -2.928  43.260 -17.362  1.00  0.00    -0.617 OA
HETATM   12  O   UNL     1      -2.181  45.479 -18.459  1.00  0.00    -0.617 OA
HETATM   13  O   UNL     1      -1.460  43.319 -19.313  1.00  0.00    -0.617 OA
ENDBRANCH   9  10
ENDBRANCH   4   9
BRANCH   6  14
HETATM   14  O   UNL     1      -4.784  42.886 -21.970  1.00  0.00    -0.389 OA
ATOM     15  HO  UNL     1      -4.007  42.555 -21.537  1.00  0.00     0.210 HD
ENDBRANCH   6  14
ENDBRANCH   1   2
BRANCH   1  16
HETATM   16  C   UNL     1      -6.028  48.287 -20.097  1.00  0.00     0.004 C 
HETATM   17  C   UNL     1      -7.418  48.522 -20.730  1.00  0.00     0.005 C 
ENDBRANCH   1  16
BRANCH   1  18
HETATM   18  C   UNL     1      -5.182  49.138 -22.402  1.00  0.00     0.009 C 
BRANCH  18  19
HETATM   19  C   UNL     1      -4.258  49.502 -23.547  1.00  0.00     0.008 C 
BRANCH  19  20
HETATM   20  C   UNL     1      -4.418  48.773 -24.884  1.00  0.00     0.084 C 
BRANCH  20  21
HETATM   21  C   UNL     1      -5.451  49.434 -25.788  1.00  0.00     0.162 C 
HETATM   22  O   UNL     1      -6.288  48.637 -26.275  1.00  0.00    -0.292 OA
BRANCH  21  23
HETATM   23  C   UNL     1      -5.486  50.895 -26.151  1.00  0.00     0.049 C 
HETATM   24  C   UNL     1      -4.698  51.567 -27.236  1.00  0.00    -0.045 C 
HETATM   25  C   UNL     1      -3.193  51.502 -27.303  1.00  0.00     0.049 C 
HETATM   26  C   UNL     1      -5.390  52.540 -28.005  1.00  0.00     0.008 C 
HETATM   27  C   UNL     1      -6.306  53.395 -27.329  1.00  0.00     0.003 C 
HETATM   28  C   UNL     1      -6.809  53.012 -26.050  1.00  0.00     0.037 C 
HETATM   29  C   UNL     1      -6.598  51.702 -25.549  1.00  0.00     0.080 C 
BRANCH  29  30
HETATM   30  O   UNL     1      -7.482  51.143 -24.674  1.00  0.00    -0.360 OA
ATOM     31  HO  UNL     1      -8.134  51.678 -24.236  1.00  0.00     0.217 HD
ENDBRANCH  29  30
ENDBRANCH  21  23
ENDBRANCH  20  21
ENDBRANCH  19  20
ENDBRANCH  18  19
ENDBRANCH   1  18
TORSDOF 11
ENDMDL
MODEL 9
REMARK VINA RESULT:      -7.2      2.029      3.817
REMARK  11 active torsions:
REMARK  status: ('A' for Active; 'I' for Inactive)
REMARK    1  A    between atoms: C_3  and  C_23 
REMARK    2  A    between atoms: C_3  and  C_31 
REMARK    3  A    between atoms: C_4  and  C_23 
REMARK    4  A    between atoms: C_4  and  C_29 
REMARK    5  A    between atoms: C_5  and  C_27 
REMARK    6  A    between atoms: C_7  and  O_19 
REMARK    7  A    between atoms: C_9  and  C_27 
REMARK    8  A    between atoms: O_11  and  C_21 
REMARK    9  A    between atoms: O_11  and  P_26 
REMARK   10  A    between atoms: O_15  and  C_28 
REMARK   11  A    between atoms: C_27  and  C_31 
ROOT
HETATM    1  C   UNL     1      -5.120  47.121 -19.220  1.00  0.00     0.034 C 
ENDROOT
BRANCH   1   2
HETATM    2  C   UNL     1      -5.048  45.758 -19.966  1.00  0.00     0.222 C 
HETATM    3  N   UNL     1      -5.492  45.979 -21.342  1.00  0.00    -0.368 N 
HETATM    4  C   UNL     1      -5.172  44.929 -22.290  1.00  0.00     0.263 C 
ATOM      5  HN  UNL     1      -5.996  46.821 -21.619  1.00  0.00     0.158 HD
HETATM    6  C   UNL     1      -3.673  44.584 -22.226  1.00  0.00     0.191 C 
HETATM    7  C   UNL     1      -3.308  44.264 -20.778  1.00  0.00     0.206 C 
HETATM    8  O   UNL     1      -3.643  45.396 -19.958  1.00  0.00    -0.364 OA
BRANCH   4   9
HETATM    9  O   UNL     1      -5.497  45.318 -23.616  1.00  0.00    -0.255 OA
BRANCH   9  10
HETATM   10  P   UNL     1      -5.265  46.826 -24.069  1.00  0.00     0.424 P 
HETATM   11  O   UNL     1      -5.568  46.856 -25.533  1.00  0.00    -0.617 OA
HETATM   12  O   UNL     1      -3.923  47.215 -23.570  1.00  0.00    -0.617 OA
HETATM   13  O   UNL     1      -6.300  47.686 -23.355  1.00  0.00    -0.617 OA
ENDBRANCH   9  10
ENDBRANCH   4   9
BRANCH   6  14
HETATM   14  O   UNL     1      -3.366  43.484 -23.070  1.00  0.00    -0.389 OA
ATOM     15  HO  UNL     1      -2.478  43.557 -23.399  1.00  0.00     0.210 HD
ENDBRANCH   6  14
ENDBRANCH   1   2
BRANCH   1  16
HETATM   16  C   UNL     1      -6.533  47.536 -18.741  1.00  0.00     0.004 C 
HETATM   17  C   UNL     1      -6.702  47.515 -17.205  1.00  0.00     0.005 C 
ENDBRANCH   1  16
BRANCH   1  18
HETATM   18  C   UNL     1      -4.455  48.090 -20.199  1.00  0.00     0.009 C 
BRANCH  18  19
HETATM   19  C   UNL     1      -4.496  49.606 -20.214  1.00  0.00     0.008 C 
BRANCH  19  20
HETATM   20  C   UNL     1      -3.505  50.377 -19.339  1.00  0.00     0.084 C 
BRANCH  20  21
HETATM   21  C   UNL     1      -3.820  50.256 -17.853  1.00  0.00     0.162 C 
HETATM   22  O   UNL     1      -3.348  49.227 -17.314  1.00  0.00    -0.292 OA
BRANCH  21  23
HETATM   23  C   UNL     1      -4.661  51.219 -17.059  1.00  0.00     0.049 C 
HETATM   24  C   UNL     1      -6.119  51.079 -16.737  1.00  0.00    -0.045 C 
HETATM   25  C   UNL     1      -7.172  50.912 -17.803  1.00  0.00     0.049 C 
HETATM   26  C   UNL     1      -6.510  51.441 -15.420  1.00  0.00     0.008 C 
HETATM   27  C   UNL     1      -5.884  52.575 -14.828  1.00  0.00     0.003 C 
HETATM   28  C   UNL     1      -4.647  53.049 -15.356  1.00  0.00     0.037 C 
HETATM   29  C   UNL     1      -3.919  52.280 -16.301  1.00  0.00     0.080 C 
BRANCH  29  30
HETATM   30  O   UNL     1      -2.562  52.392 -16.388  1.00  0.00    -0.360 OA
ATOM     31  HO  UNL     1      -2.101  52.093 -17.164  1.00  0.00     0.217 HD
ENDBRANCH  29  30
ENDBRANCH  21  23
ENDBRANCH  20  21
ENDBRANCH  19  20
ENDBRANCH  18  19
ENDBRANCH   1  18
TORSDOF 11
ENDMDL
