REMARK  10 active torsions:
REMARK  status: ('A' for Active; 'I' for Inactive)
REMARK    1  A    between atoms: C_1  and  O_16 
REMARK    2  A    between atoms: C_2  and  C_10 
REMARK    3  A    between atoms: C_2  and  O_13 
REMARK    4  A    between atoms: C_2  and  O_24 
REMARK    5  A    between atoms: C_2  and  O_31 
REMARK    6  A    between atoms: C_3  and  N_21 
REMARK    7  A    between atoms: C_3  and  C_30 
REMARK    8  A    between atoms: C_5  and  C_9 
REMARK    9  A    between atoms: C_12  and  O_19 
REMARK   10  A    between atoms: N_21  and  C_27 
ROOT
HETATM    1  N   UNL     1      -2.020  21.223  15.171  1.00  0.00    -0.352 N 
ATOM      2  HN  UNL     1      -1.581  21.705  15.955  1.00  0.00     0.166 HD
HETATM    3  C   UNL     1      -3.872  20.853  13.677  1.00  0.00    -0.018 C 
HETATM    4  C   UNL     1      -3.285  21.523  14.780  1.00  0.00     0.101 C 
HETATM    5  C   UNL     1      -2.130  19.202  13.896  1.00  0.00     0.049 C 
HETATM    6  C   UNL     1      -3.380  19.566  13.386  1.00  0.00     0.017 C 
HETATM    7  C   UNL     1      -1.348  20.240  14.467  1.00  0.00     0.100 C 
ENDROOT
BRANCH   7   8
HETATM    8  N   UNL     1       0.055  20.356  14.219  1.00  0.00    -0.374 N 
ATOM      9  HN  UNL     1       0.250  20.802  13.323  1.00  0.00     0.161 HD
BRANCH   8  10
HETATM   10  C   UNL     1       1.293  19.990  14.939  1.00  0.00     0.156 C 
BRANCH  10  11
HETATM   11  C   UNL     1       2.637  20.466  14.330  1.00  0.00     0.180 C 
HETATM   12  C   UNL     1       3.929  19.744  14.819  1.00  0.00     0.178 C 
HETATM   13  C   UNL     1       4.982  20.604  15.545  1.00  0.00     0.158 C 
HETATM   14  C   UNL     1       4.479  21.996  15.908  1.00  0.00     0.145 C 
HETATM   15  C   UNL     1       3.840  22.637  14.697  1.00  0.00     0.261 C 
HETATM   16  O   UNL     1       2.902  21.844  13.992  1.00  0.00    -0.312 OA
HETATM   17  O   UNL     1       4.076  23.807  14.430  1.00  0.00    -0.265 OA
BRANCH  12  18
HETATM   18  O   UNL     1       4.487  19.052  13.710  1.00  0.00    -0.390 OA
ATOM     19  HO  UNL     1       3.838  18.522  13.263  1.00  0.00     0.210 HD
ENDBRANCH  12  18
BRANCH  13  20
HETATM   20  O   UNL     1       6.159  20.712  14.754  1.00  0.00    -0.392 OA
ATOM     21  HO  UNL     1       6.808  21.242  15.201  1.00  0.00     0.210 HD
ENDBRANCH  13  20
ENDBRANCH  10  11
ENDBRANCH   8  10
ENDBRANCH   7   8
BRANCH   3  22
HETATM   22  C   UNL     1      -4.883  21.519  12.776  1.00  0.00    -0.068 C 
HETATM   23  C   UNL     1      -6.295  20.999  12.610  1.00  0.00     0.036 C 
HETATM   24  C   UNL     1      -6.874  21.723  11.404  1.00  0.00     0.017 C 
HETATM   25  C   UNL     1      -6.104  23.012  11.300  1.00  0.00     0.083 C 
HETATM   26  C   UNL     1      -4.747  22.762  11.941  1.00  0.00     0.047 C 
BRANCH  25  27
HETATM   27  C   UNL     1      -6.104  23.919  10.069  1.00  0.00     0.280 C 
BRANCH  27  28
HETATM   28  O   UNL     1      -4.929  23.888   9.388  1.00  0.00    -0.343 OA
ATOM     29  HO  UNL     1      -4.929  24.452   8.623  1.00  0.00     0.215 HD
ENDBRANCH  27  28
BRANCH  27  30
HETATM   30  O   UNL     1      -6.464  25.151  10.470  1.00  0.00    -0.343 OA
ATOM     31  HO  UNL     1      -6.464  25.715   9.705  1.00  0.00     0.215 HD
ENDBRANCH  27  30
BRANCH  27  32
HETATM   32  O   UNL     1      -7.060  23.320   9.230  1.00  0.00    -0.343 OA
ATOM     33  HO  UNL     1      -7.060  23.884   8.465  1.00  0.00     0.215 HD
ENDBRANCH  27  32
ENDBRANCH  25  27
ENDBRANCH   3  22
TORSDOF 10
