REMARK  0 active torsions:
REMARK  status: ('A' for Active; 'I' for Inactive)
ROOT
HETATM    1  O   UNL     1      -8.732   0.706  -0.641  1.00  0.00    -0.297 OA
HETATM    2  C   UNL     1     -11.368   1.896  -0.104  1.00  0.00     0.137 C 
HETATM    3  O   UNL     1     -13.219   4.899  -0.104  1.00  0.00    -0.254 OA
HETATM    4  C   UNL     1     -11.540   5.359   1.916  1.00  0.00     0.121 C 
HETATM    5  C   UNL     1      -8.776   4.155   1.548  1.00  0.00     0.021 C 
HETATM    6  N   UNL     1     -12.187   2.989  -0.676  1.00  0.00    -0.347 N 
ATOM      7  HN  UNL     1     -12.633   2.912  -1.590  1.00  0.00     0.163 HD
HETATM    8  C   UNL     1     -12.306   4.111   0.103  1.00  0.00     0.296 C 
HETATM    9  C   UNL     1     -10.006   2.581   0.077  1.00  0.00     0.091 C 
HETATM   10  N   UNL     1     -11.056   4.631   0.698  1.00  0.00    -0.234 NA
HETATM   11  C   UNL     1      -8.781   1.686   0.094  1.00  0.00     0.134 C 
HETATM   12  C   UNL     1     -10.178   3.508   1.310  1.00  0.00     0.080 C 
HETATM   13  C   UNL     1      -7.568   2.070   0.907  1.00  0.00     0.079 C 
HETATM   14  C   UNL     1      -7.884   3.009   2.066  1.00  0.00     0.009 C 
ENDROOT
TORSDOF 0
