REMARK  2 active torsions:
REMARK  status: ('A' for Active; 'I' for Inactive)
REMARK    1  A    between atoms: C_3  and  O_13 
REMARK    2  A    between atoms: C_10  and  O_22 
ROOT
HETATM    1  C   UNL     1      32.583  -7.529  12.047  1.00  0.00     0.003 C 
HETATM    2  C   UNL     1      31.829  -7.674   8.725  1.00  0.00     0.013 C 
HETATM    3  C   UNL     1      34.498  -7.042  14.797  1.00  0.00     0.148 C 
HETATM    4  C   UNL     1      34.564  -8.916  11.630  1.00  0.00     0.001 C 
HETATM    5  C   UNL     1      35.254  -7.513  13.596  1.00  0.00     0.034 C 
HETATM    6  C   UNL     1      30.586  -5.524  14.429  1.00  0.00     0.015 C 
HETATM    7  C   UNL     1      31.054  -4.976   8.530  1.00  0.00     0.072 C 
HETATM    8  C   UNL     1      31.290  -7.386  11.269  1.00  0.00     0.049 C 
HETATM    9  C   UNL     1      30.902  -4.528  16.607  1.00  0.00     0.037 C 
HETATM   10  C   UNL     1      29.214  -5.564  14.686  1.00  0.00     0.075 C 
HETATM   11  C   UNL     1      31.670  -5.629   7.465  1.00  0.00     0.118 C 
HETATM   12  C   UNL     1      31.355  -6.993   9.833  1.00  0.00    -0.025 C 
HETATM   13  C   UNL     1      33.263  -6.230  14.441  1.00  0.00     0.163 C 
HETATM   14  C   UNL     1      31.299  -5.772  13.132  1.00  0.00     0.054 C 
HETATM   15  C   UNL     1      31.403  -5.264  15.536  1.00  0.00     0.079 C 
HETATM   16  F   UNL     1      32.058  -4.887   6.410  1.00  0.00    -0.206 F 
HETATM   17  C   UNL     1      33.901  -7.573  11.270  1.00  0.00     0.006 C 
HETATM   18  O   UNL     1      32.487  -6.120  15.659  1.00  0.00    -0.342 OA
HETATM   19  C   UNL     1      32.346  -6.862  13.398  1.00  0.00     0.033 C 
HETATM   20  C   UNL     1      29.566  -4.093  16.539  1.00  0.00     0.005 C 
HETATM   21  C   UNL     1      28.679  -4.789  15.715  1.00  0.00     0.037 C 
HETATM   22  C   UNL     1      35.065  -8.835  13.070  1.00  0.00     0.002 C 
HETATM   23  C   UNL     1      30.503  -6.235  11.923  1.00  0.00     0.100 C 
HETATM   24  C   UNL     1      30.868  -5.693   9.698  1.00  0.00     0.038 C 
HETATM   25  N   UNL     1      30.409  -5.197  10.913  1.00  0.00    -0.383 N 
ATOM     26  HN  UNL     1      30.061  -4.251  11.070  1.00  0.00     0.160 HD
HETATM   27  C   UNL     1      32.046  -6.960   7.549  1.00  0.00     0.043 C 
ENDROOT
BRANCH   3  28
HETATM   28  O   UNL     1      35.416  -6.205  15.487  1.00  0.00    -0.393 OA
ATOM     29  HO  UNL     1      34.936  -5.906  16.250  1.00  0.00     0.210 HD
ENDBRANCH   3  28
BRANCH  10  30
HETATM   30  O   UNL     1      28.435  -6.443  14.035  1.00  0.00    -0.360 OA
ATOM     31  HO  UNL     1      27.502  -6.470  14.210  1.00  0.00     0.217 HD
ENDBRANCH  10  30
TORSDOF 2
