REMARK  8 active torsions:
REMARK  status: ('A' for Active; 'I' for Inactive)
REMARK    1  A    between atoms: C_3  and  C_11 
REMARK    2  A    between atoms: C_4  and  O_26 
REMARK    3  A    between atoms: O_8  and  C_13 
REMARK    4  A    between atoms: C_11  and  C_32 
REMARK    5  A    between atoms: C_16  and  O_33 
REMARK    6  A    between atoms: O_18  and  C_34 
REMARK    7  A    between atoms: C_20  and  O_28 
REMARK    8  A    between atoms: C_22  and  O_33 
ROOT
HETATM    1  C   UNL     1      42.438   0.485 139.155  1.00  0.00     0.003 C 
HETATM    2  C   UNL     1      43.693   1.856 140.784  1.00  0.00     0.153 C 
HETATM    3  C   UNL     1      41.863   0.770 137.781  1.00  0.00     0.025 C 
HETATM    4  C   UNL     1      42.376  -0.048 135.555  1.00  0.00     0.016 C 
HETATM    5  C   UNL     1      43.097   0.830 141.705  1.00  0.00    -0.027 C 
HETATM    6  C   UNL     1      43.076   1.869 139.399  1.00  0.00     0.026 C 
HETATM    7  C   UNL     1      41.727  -0.424 136.862  1.00  0.00     0.009 C 
HETATM    8  C   UNL     1      42.717   1.854 137.124  1.00  0.00     0.073 C 
HETATM    9  C   UNL     1      41.025  -0.361 142.517  1.00  0.00     0.051 C 
HETATM   10  C   UNL     1      41.249   0.347 140.106  1.00  0.00     0.048 C 
HETATM   11  C   UNL     1      43.850  -0.051 142.347  1.00  0.00     0.020 C 
HETATM   12  C   UNL     1      43.127   1.261 135.771  1.00  0.00     0.095 C 
HETATM   13  C   UNL     1      41.602   0.673 141.555  1.00  0.00     0.080 C 
HETATM   14  C   UNL     1      43.850   2.137 138.118  1.00  0.00     0.047 C 
ENDROOT
BRANCH  12  15
HETATM   15  C   UNL     1      42.922   2.183 134.590  1.00  0.00     0.169 C 
HETATM   16  O   UNL     1      41.826   2.320 134.063  1.00  0.00    -0.292 OA
BRANCH  15  17
HETATM   17  C   UNL     1      44.069   2.996 134.076  1.00  0.00     0.046 C 
HETATM   18  C   UNL     1      44.543   2.849 132.766  1.00  0.00     0.113 C 
HETATM   19  C   UNL     1      45.636   3.613 132.362  1.00  0.00     0.110 C 
HETATM   20  C   UNL     1      45.948   4.776 133.051  1.00  0.00     0.040 C 
HETATM   21  C   UNL     1      45.428   4.965 134.326  1.00  0.00     0.004 C 
HETATM   22  C   UNL     1      44.639   3.967 134.895  1.00  0.00     0.018 C 
BRANCH  18  23
HETATM   23  O   UNL     1      43.959   1.987 131.886  1.00  0.00    -0.357 OA
ATOM     24  HO  UNL     1      44.280   1.887 130.998  1.00  0.00     0.217 HD
ENDBRANCH  18  23
BRANCH  19  25
HETATM   25  O   UNL     1      46.437   3.186 131.314  1.00  0.00    -0.308 OA
BRANCH  25  26
HETATM   26  C   UNL     1      47.243   2.101 131.589  1.00  0.00     0.078 C 
HETATM   27  C   UNL     1      48.004   2.079 132.754  1.00  0.00     0.040 C 
HETATM   28  C   UNL     1      48.396   0.850 133.291  1.00  0.00     0.047 C 
HETATM   29  C   UNL     1      48.078  -0.305 132.591  1.00  0.00     0.138 C 
HETATM   30  C   UNL     1      47.710  -0.212 131.254  1.00  0.00     0.075 C 
HETATM   31  F   UNL     1      48.093  -1.518 133.149  1.00  0.00    -0.204 F 
HETATM   32 CL   UNL     1      48.033  -1.530 130.183  1.00  0.00    -0.081 Cl
HETATM   33  C   UNL     1      47.214   0.989 130.757  1.00  0.00     0.064 C 
ENDBRANCH  25  26
ENDBRANCH  19  25
ENDBRANCH  15  17
ENDBRANCH  12  15
BRANCH   8  34
HETATM   34  O   UNL     1      41.939   3.038 137.012  1.00  0.00    -0.389 OA
ATOM     35  HO  UNL     1      42.470   3.712 136.604  1.00  0.00     0.210 HD
ENDBRANCH   8  34
BRANCH   2  36
HETATM   36  O   UNL     1      43.661   3.150 141.374  1.00  0.00    -0.391 OA
ATOM     37  HO  UNL     1      44.038   3.799 140.791  1.00  0.00     0.210 HD
ENDBRANCH   2  36
BRANCH  13  38
HETATM   38  O   UNL     1      40.984   1.937 141.883  1.00  0.00    -0.386 OA
ATOM     39  HO  UNL     1      40.044   1.838 141.789  1.00  0.00     0.211 HD
ENDBRANCH  13  38
TORSDOF 8
