MODEL 1
REMARK VINA RESULT:     -12.7      0.000      0.000
REMARK  5 active torsions:
REMARK  status: ('A' for Active; 'I' for Inactive)
REMARK    1  A    between atoms: C_8  and  C_20 
REMARK    2  A    between atoms: C_10  and  C_31 
REMARK    3  A    between atoms: C_11  and  C_20 
REMARK    4  A    between atoms: O_13  and  C_19 
REMARK    5  A    between atoms: C_17  and  C_33 
ROOT
HETATM    1  C   UNL     1      41.247   1.142 132.912  1.00  0.00     0.052 C 
HETATM    2  C   UNL     1      40.856   1.213 134.177  1.00  0.00     0.019 C 
HETATM    3  C   UNL     1      43.905  -0.520 133.260  1.00  0.00     0.033 C 
HETATM    4  O   UNL     1      42.632   1.971 131.227  1.00  0.00    -0.292 OA
HETATM    5  C   UNL     1      43.939   1.009 133.044  1.00  0.00     0.063 C 
HETATM    6  C   UNL     1      41.717   1.183 135.404  1.00  0.00     0.016 C 
HETATM    7  C   UNL     1      42.587   1.397 132.297  1.00  0.00     0.165 C 
HETATM    8  C   UNL     1      44.084   1.748 134.404  1.00  0.00    -0.004 C 
HETATM    9  C   UNL     1      43.042   1.762 135.453  1.00  0.00     0.013 C 
ENDROOT
BRANCH   5  10
HETATM   10  C   UNL     1      45.144   1.442 132.170  1.00  0.00    -0.049 C 
HETATM   11  C   UNL     1      46.452   0.730 132.028  1.00  0.00    -0.039 C 
HETATM   12  C   UNL     1      47.684   1.582 132.209  1.00  0.00    -0.030 C 
HETATM   13  C   UNL     1      46.693  -0.716 131.821  1.00  0.00     0.080 C 
HETATM   14  C   UNL     1      48.881   0.975 132.701  1.00  0.00     0.012 C 
HETATM   15  C   UNL     1      47.586   3.003 131.976  1.00  0.00     0.008 C 
HETATM   16  C   UNL     1      48.969  -0.412 132.881  1.00  0.00     0.011 C 
HETATM   17  C   UNL     1      47.957  -1.317 132.279  1.00  0.00    -0.024 C 
HETATM   18  C   UNL     1      46.382   3.651 131.787  1.00  0.00    -0.021 C 
HETATM   19  C   UNL     1      45.135   2.863 131.633  1.00  0.00     0.063 C 
BRANCH  17  20
HETATM   20  C   UNL     1      48.329  -2.743 132.321  1.00  0.00     0.065 C 
HETATM   21  O   UNL     1      48.725  -3.473 131.132  1.00  0.00    -0.300 OA
HETATM   22  C   UNL     1      49.110  -4.892 131.338  1.00  0.00     0.157 C 
HETATM   23  N   UNL     1      48.894  -5.846 130.330  1.00  0.00    -0.075 NA
HETATM   24  C   UNL     1      49.720  -5.175 132.629  1.00  0.00     0.049 C 
HETATM   25  C   UNL     1      49.426  -4.392 133.757  1.00  0.00    -0.016 C 
HETATM   26  C   UNL     1      48.326  -3.444 133.608  1.00  0.00     0.092 C 
ENDBRANCH  17  20
ENDBRANCH   5  10
BRANCH   6  27
HETATM   27  C   UNL     1      41.080   0.646 136.647  1.00  0.00     0.208 C 
HETATM   28  O   UNL     1      40.301  -0.294 136.524  1.00  0.00    -0.285 OA
BRANCH  27  29
HETATM   29  C   UNL     1      41.430   1.152 138.032  1.00  0.00     0.083 C 
HETATM   30  C   UNL     1      40.865   0.620 139.251  1.00  0.00     0.036 C 
HETATM   31  C   UNL     1      41.338   1.116 140.496  1.00  0.00     0.040 C 
HETATM   32  C   UNL     1      42.326   2.140 140.506  1.00  0.00     0.081 C 
HETATM   33  C   UNL     1      42.973   2.495 139.291  1.00  0.00     0.124 C 
HETATM   34  N   UNL     1      42.359   2.199 138.100  1.00  0.00    -0.360 N 
ATOM     35  HN  UNL     1      42.578   2.741 137.265  1.00  0.00     0.165 HD
BRANCH  32  36
HETATM   36  O   UNL     1      42.613   2.840 141.640  1.00  0.00    -0.359 OA
ATOM     37  HO  UNL     1      42.778   3.774 141.578  1.00  0.00     0.217 HD
ENDBRANCH  32  36
ENDBRANCH  27  29
ENDBRANCH   6  27
TORSDOF 5
ENDMDL
MODEL 2
REMARK VINA RESULT:     -12.6      1.475      2.335
REMARK  5 active torsions:
REMARK  status: ('A' for Active; 'I' for Inactive)
REMARK    1  A    between atoms: C_8  and  C_20 
REMARK    2  A    between atoms: C_10  and  C_31 
REMARK    3  A    between atoms: C_11  and  C_20 
REMARK    4  A    between atoms: O_13  and  C_19 
REMARK    5  A    between atoms: C_17  and  C_33 
ROOT
HETATM    1  C   UNL     1      43.442   2.929 135.257  1.00  0.00     0.052 C 
HETATM    2  C   UNL     1      43.110   2.220 136.327  1.00  0.00     0.019 C 
HETATM    3  C   UNL     1      41.315   1.838 133.200  1.00  0.00     0.033 C 
HETATM    4  O   UNL     1      44.570   3.008 133.215  1.00  0.00    -0.292 OA
HETATM    5  C   UNL     1      42.782   1.354 133.169  1.00  0.00     0.063 C 
HETATM    6  C   UNL     1      42.470   0.864 136.363  1.00  0.00     0.016 C 
HETATM    7  C   UNL     1      43.658   2.502 133.840  1.00  0.00     0.165 C 
HETATM    8  C   UNL     1      42.924  -0.000 133.919  1.00  0.00    -0.004 C 
HETATM    9  C   UNL     1      42.739  -0.161 135.377  1.00  0.00     0.013 C 
ENDROOT
BRANCH   5  10
HETATM   10  C   UNL     1      43.280   1.117 131.719  1.00  0.00    -0.049 C 
HETATM   11  C   UNL     1      44.637   0.644 131.302  1.00  0.00    -0.039 C 
HETATM   12  C   UNL     1      45.314   1.464 130.231  1.00  0.00    -0.030 C 
HETATM   13  C   UNL     1      45.436  -0.467 131.865  1.00  0.00     0.080 C 
HETATM   14  C   UNL     1      46.742   1.515 130.196  1.00  0.00     0.012 C 
HETATM   15  C   UNL     1      44.497   2.250 129.339  1.00  0.00     0.008 C 
HETATM   16  C   UNL     1      47.517   0.712 131.044  1.00  0.00     0.011 C 
HETATM   17  C   UNL     1      46.905  -0.430 131.769  1.00  0.00    -0.024 C 
HETATM   18  C   UNL     1      43.145   2.447 129.535  1.00  0.00    -0.021 C 
HETATM   19  C   UNL     1      42.435   1.689 130.595  1.00  0.00     0.063 C 
BRANCH  17  20
HETATM   20  C   UNL     1      47.885  -1.336 132.396  1.00  0.00     0.065 C 
HETATM   21  O   UNL     1      48.094  -2.692 131.927  1.00  0.00    -0.300 OA
HETATM   22  C   UNL     1      49.143  -3.470 132.632  1.00  0.00     0.157 C 
HETATM   23  N   UNL     1      49.037  -4.865 132.759  1.00  0.00    -0.075 NA
HETATM   24  C   UNL     1      50.251  -2.674 133.143  1.00  0.00     0.049 C 
HETATM   25  C   UNL     1      50.075  -1.324 133.486  1.00  0.00    -0.016 C 
HETATM   26  C   UNL     1      48.696  -0.845 133.514  1.00  0.00     0.092 C 
ENDBRANCH  17  20
ENDBRANCH   5  10
BRANCH   6  27
HETATM   27  C   UNL     1      41.637   0.556 137.566  1.00  0.00     0.208 C 
HETATM   28  O   UNL     1      40.865  -0.396 137.491  1.00  0.00    -0.285 OA
BRANCH  27  29
HETATM   29  C   UNL     1      41.778   1.303 138.876  1.00  0.00     0.083 C 
HETATM   30  C   UNL     1      41.004   1.008 140.060  1.00  0.00     0.036 C 
HETATM   31  C   UNL     1      41.289   1.720 141.257  1.00  0.00     0.040 C 
HETATM   32  C   UNL     1      42.303   2.719 141.247  1.00  0.00     0.081 C 
HETATM   33  C   UNL     1      43.150   2.840 140.112  1.00  0.00     0.124 C 
HETATM   34  N   UNL     1      42.725   2.336 138.908  1.00  0.00    -0.360 N 
ATOM     35  HN  UNL     1      43.096   2.714 138.037  1.00  0.00     0.165 HD
BRANCH  32  36
HETATM   36  O   UNL     1      42.430   3.613 142.268  1.00  0.00    -0.359 OA
ATOM     37  HO  UNL     1      43.188   4.185 142.291  1.00  0.00     0.217 HD
ENDBRANCH  32  36
ENDBRANCH  27  29
ENDBRANCH   6  27
TORSDOF 5
ENDMDL
MODEL 3
REMARK VINA RESULT:     -12.2      2.263      3.424
REMARK  5 active torsions:
REMARK  status: ('A' for Active; 'I' for Inactive)
REMARK    1  A    between atoms: C_8  and  C_20 
REMARK    2  A    between atoms: C_10  and  C_31 
REMARK    3  A    between atoms: C_11  and  C_20 
REMARK    4  A    between atoms: O_13  and  C_19 
REMARK    5  A    between atoms: C_17  and  C_33 
ROOT
HETATM    1  C   UNL     1      41.466   1.235 131.752  1.00  0.00     0.052 C 
HETATM    2  C   UNL     1      40.817   1.265 132.907  1.00  0.00     0.019 C 
HETATM    3  C   UNL     1      43.953  -0.523 132.571  1.00  0.00     0.033 C 
HETATM    4  O   UNL     1      43.194   2.091 130.437  1.00  0.00    -0.292 OA
HETATM    5  C   UNL     1      44.065   1.012 132.441  1.00  0.00     0.063 C 
HETATM    6  C   UNL     1      41.398   1.156 134.285  1.00  0.00     0.016 C 
HETATM    7  C   UNL     1      42.911   1.473 131.445  1.00  0.00     0.165 C 
HETATM    8  C   UNL     1      43.935   1.688 133.835  1.00  0.00    -0.004 C 
HETATM    9  C   UNL     1      42.695   1.691 134.639  1.00  0.00     0.013 C 
ENDROOT
BRANCH   5  10
HETATM   10  C   UNL     1      45.438   1.443 131.861  1.00  0.00    -0.049 C 
HETATM   11  C   UNL     1      46.727   0.689 131.950  1.00  0.00    -0.039 C 
HETATM   12  C   UNL     1      47.916   1.482 132.432  1.00  0.00    -0.030 C 
HETATM   13  C   UNL     1      46.966  -0.752 131.711  1.00  0.00     0.080 C 
HETATM   14  C   UNL     1      48.968   0.804 133.123  1.00  0.00     0.012 C 
HETATM   15  C   UNL     1      47.907   2.916 132.269  1.00  0.00     0.008 C 
HETATM   16  C   UNL     1      48.978  -0.593 133.234  1.00  0.00     0.011 C 
HETATM   17  C   UNL     1      48.090  -1.425 132.384  1.00  0.00    -0.024 C 
HETATM   18  C   UNL     1      46.787   3.620 131.874  1.00  0.00    -0.021 C 
HETATM   19  C   UNL     1      45.579   2.890 131.420  1.00  0.00     0.063 C 
BRANCH  17  20
HETATM   20  C   UNL     1      48.406  -2.864 132.416  1.00  0.00     0.065 C 
HETATM   21  O   UNL     1      48.880  -3.578 131.246  1.00  0.00    -0.300 OA
HETATM   22  C   UNL     1      49.195  -5.015 131.443  1.00  0.00     0.157 C 
HETATM   23  N   UNL     1      49.037  -5.933 130.392  1.00  0.00    -0.075 NA
HETATM   24  C   UNL     1      49.678  -5.354 132.774  1.00  0.00     0.049 C 
HETATM   25  C   UNL     1      49.313  -4.590 133.894  1.00  0.00    -0.016 C 
HETATM   26  C   UNL     1      48.264  -3.598 133.677  1.00  0.00     0.092 C 
ENDBRANCH  17  20
ENDBRANCH   5  10
BRANCH   6  27
HETATM   27  C   UNL     1      40.502   0.588 135.340  1.00  0.00     0.208 C 
HETATM   28  O   UNL     1      40.956   0.490 136.476  1.00  0.00    -0.285 OA
BRANCH  27  29
HETATM   29  C   UNL     1      39.054   0.225 135.079  1.00  0.00     0.083 C 
HETATM   30  C   UNL     1      38.305   0.674 133.927  1.00  0.00     0.036 C 
HETATM   31  C   UNL     1      36.980   0.194 133.745  1.00  0.00     0.040 C 
HETATM   32  C   UNL     1      36.419  -0.684 134.715  1.00  0.00     0.081 C 
HETATM   33  C   UNL     1      37.257  -1.232 135.725  1.00  0.00     0.124 C 
HETATM   34  N   UNL     1      38.432  -0.595 136.031  1.00  0.00    -0.360 N 
ATOM     35  HN  UNL     1      38.854  -0.717 136.951  1.00  0.00     0.165 HD
BRANCH  32  36
HETATM   36  O   UNL     1      35.083  -0.952 134.743  1.00  0.00    -0.359 OA
ATOM     37  HO  UNL     1      34.716  -1.396 135.498  1.00  0.00     0.217 HD
ENDBRANCH  32  36
ENDBRANCH  27  29
ENDBRANCH   6  27
TORSDOF 5
ENDMDL
MODEL 4
REMARK VINA RESULT:     -11.9      1.670      8.999
REMARK  5 active torsions:
REMARK  status: ('A' for Active; 'I' for Inactive)
REMARK    1  A    between atoms: C_8  and  C_20 
REMARK    2  A    between atoms: C_10  and  C_31 
REMARK    3  A    between atoms: C_11  and  C_20 
REMARK    4  A    between atoms: O_13  and  C_19 
REMARK    5  A    between atoms: C_17  and  C_33 
ROOT
HETATM    1  C   UNL     1      47.601   1.948 131.226  1.00  0.00     0.052 C 
HETATM    2  C   UNL     1      48.182   0.773 131.423  1.00  0.00     0.019 C 
HETATM    3  C   UNL     1      46.086   2.271 133.974  1.00  0.00     0.033 C 
HETATM    4  O   UNL     1      45.667   3.120 130.647  1.00  0.00    -0.292 OA
HETATM    5  C   UNL     1      45.339   1.838 132.692  1.00  0.00     0.063 C 
HETATM    6  C   UNL     1      47.707  -0.347 132.299  1.00  0.00     0.016 C 
HETATM    7  C   UNL     1      46.189   2.382 131.460  1.00  0.00     0.165 C 
HETATM    8  C   UNL     1      45.179   0.292 132.652  1.00  0.00    -0.004 C 
HETATM    9  C   UNL     1      46.307  -0.651 132.500  1.00  0.00     0.013 C 
ENDROOT
BRANCH   5  10
HETATM   10  C   UNL     1      43.910   2.437 132.628  1.00  0.00    -0.049 C 
HETATM   11  C   UNL     1      42.818   2.267 133.636  1.00  0.00    -0.039 C 
HETATM   12  C   UNL     1      41.479   1.842 133.085  1.00  0.00    -0.030 C 
HETATM   13  C   UNL     1      42.903   2.374 135.110  1.00  0.00     0.080 C 
HETATM   14  C   UNL     1      40.597   1.081 133.914  1.00  0.00     0.012 C 
HETATM   15  C   UNL     1      41.173   2.132 131.704  1.00  0.00     0.008 C 
HETATM   16  C   UNL     1      40.894   0.846 135.263  1.00  0.00     0.011 C 
HETATM   17  C   UNL     1      41.950   1.631 135.951  1.00  0.00    -0.024 C 
HETATM   18  C   UNL     1      42.113   2.601 130.809  1.00  0.00    -0.021 C 
HETATM   19  C   UNL     1      43.457   3.004 131.293  1.00  0.00     0.063 C 
BRANCH  17  20
HETATM   20  C   UNL     1      41.959   1.467 137.416  1.00  0.00     0.065 C 
HETATM   21  O   UNL     1      42.372   2.531 138.310  1.00  0.00    -0.300 OA
HETATM   22  C   UNL     1      42.289   2.231 139.761  1.00  0.00     0.157 C 
HETATM   23  N   UNL     1      43.185   2.823 140.667  1.00  0.00    -0.075 NA
HETATM   24  C   UNL     1      41.221   1.314 140.132  1.00  0.00     0.049 C 
HETATM   25  C   UNL     1      40.738   0.359 139.223  1.00  0.00    -0.016 C 
HETATM   26  C   UNL     1      41.510   0.197 137.995  1.00  0.00     0.092 C 
ENDBRANCH  17  20
ENDBRANCH   5  10
BRANCH   6  27
HETATM   27  C   UNL     1      48.764  -1.249 132.854  1.00  0.00     0.208 C 
HETATM   28  O   UNL     1      49.428  -0.828 133.797  1.00  0.00    -0.285 OA
BRANCH  27  29
HETATM   29  C   UNL     1      48.973  -2.666 132.365  1.00  0.00     0.083 C 
HETATM   30  C   UNL     1      49.557  -3.718 133.165  1.00  0.00     0.036 C 
HETATM   31  C   UNL     1      49.621  -5.032 132.626  1.00  0.00     0.040 C 
HETATM   32  C   UNL     1      49.139  -5.266 131.307  1.00  0.00     0.081 C 
HETATM   33  C   UNL     1      48.414  -4.241 130.638  1.00  0.00     0.124 C 
HETATM   34  N   UNL     1      48.567  -2.942 131.051  1.00  0.00    -0.360 N 
ATOM     35  HN  UNL     1      48.386  -2.176 130.403  1.00  0.00     0.165 HD
BRANCH  32  36
HETATM   36  O   UNL     1      49.422  -6.422 130.642  1.00  0.00    -0.359 OA
ATOM     37  HO  UNL     1      48.982  -6.602 129.819  1.00  0.00     0.217 HD
ENDBRANCH  32  36
ENDBRANCH  27  29
ENDBRANCH   6  27
TORSDOF 5
ENDMDL
MODEL 5
REMARK VINA RESULT:     -11.9      2.148      3.059
REMARK  5 active torsions:
REMARK  status: ('A' for Active; 'I' for Inactive)
REMARK    1  A    between atoms: C_8  and  C_20 
REMARK    2  A    between atoms: C_10  and  C_31 
REMARK    3  A    between atoms: C_11  and  C_20 
REMARK    4  A    between atoms: O_13  and  C_19 
REMARK    5  A    between atoms: C_17  and  C_33 
ROOT
HETATM    1  C   UNL     1      40.439   0.784 133.629  1.00  0.00     0.052 C 
HETATM    2  C   UNL     1      40.167   0.739 134.926  1.00  0.00     0.019 C 
HETATM    3  C   UNL     1      43.296  -0.554 133.629  1.00  0.00     0.033 C 
HETATM    4  O   UNL     1      41.547   1.866 131.883  1.00  0.00    -0.292 OA
HETATM    5  C   UNL     1      43.128   0.978 133.510  1.00  0.00     0.063 C 
HETATM    6  C   UNL     1      41.140   0.750 136.066  1.00  0.00     0.016 C 
HETATM    7  C   UNL     1      41.674   1.234 132.914  1.00  0.00     0.165 C 
HETATM    8  C   UNL     1      43.316   1.655 134.896  1.00  0.00    -0.004 C 
HETATM    9  C   UNL     1      42.386   1.485 136.032  1.00  0.00     0.013 C 
ENDROOT
BRANCH   5  10
HETATM   10  C   UNL     1      44.183   1.602 132.560  1.00  0.00    -0.049 C 
HETATM   11  C   UNL     1      45.574   1.108 132.315  1.00  0.00    -0.039 C 
HETATM   12  C   UNL     1      46.665   2.144 132.423  1.00  0.00    -0.030 C 
HETATM   13  C   UNL     1      46.025  -0.280 132.066  1.00  0.00     0.080 C 
HETATM   14  C   UNL     1      47.975   1.732 132.820  1.00  0.00     0.012 C 
HETATM   15  C   UNL     1      46.326   3.533 132.222  1.00  0.00     0.008 C 
HETATM   16  C   UNL     1      48.294   0.376 132.970  1.00  0.00     0.011 C 
HETATM   17  C   UNL     1      47.398  -0.674 132.425  1.00  0.00    -0.024 C 
HETATM   18  C   UNL     1      45.024   3.982 132.129  1.00  0.00    -0.021 C 
HETATM   19  C   UNL     1      43.910   3.006 132.050  1.00  0.00     0.063 C 
BRANCH  17  20
HETATM   20  C   UNL     1      47.993  -2.023 132.416  1.00  0.00     0.065 C 
HETATM   21  O   UNL     1      47.996  -2.859 131.231  1.00  0.00    -0.300 OA
HETATM   22  C   UNL     1      48.668  -4.176 131.364  1.00  0.00     0.157 C 
HETATM   23  N   UNL     1      48.232  -5.281 130.615  1.00  0.00    -0.075 NA
HETATM   24  C   UNL     1      49.784  -4.197 132.299  1.00  0.00     0.049 C 
HETATM   25  C   UNL     1      49.839  -3.305 133.382  1.00  0.00    -0.016 C 
HETATM   26  C   UNL     1      48.628  -2.532 133.636  1.00  0.00     0.092 C 
ENDBRANCH  17  20
ENDBRANCH   5  10
BRANCH   6  27
HETATM   27  C   UNL     1      40.695   0.074 137.324  1.00  0.00     0.208 C 
HETATM   28  O   UNL     1      41.178   0.471 138.381  1.00  0.00    -0.285 OA
BRANCH  27  29
HETATM   29  C   UNL     1      39.623  -0.996 137.347  1.00  0.00     0.083 C 
HETATM   30  C   UNL     1      38.297  -0.821 136.799  1.00  0.00     0.036 C 
HETATM   31  C   UNL     1      37.407  -1.928 136.799  1.00  0.00     0.040 C 
HETATM   32  C   UNL     1      37.833  -3.163 137.365  1.00  0.00     0.081 C 
HETATM   33  C   UNL     1      39.199  -3.331 137.722  1.00  0.00     0.124 C 
HETATM   34  N   UNL     1      39.969  -2.217 137.942  1.00  0.00    -0.360 N 
ATOM     35  HN  UNL     1      40.793  -2.277 138.540  1.00  0.00     0.165 HD
BRANCH  32  36
HETATM   36  O   UNL     1      36.946  -4.161 137.642  1.00  0.00    -0.359 OA
ATOM     37  HO  UNL     1      36.985  -4.967 137.140  1.00  0.00     0.217 HD
ENDBRANCH  32  36
ENDBRANCH  27  29
ENDBRANCH   6  27
TORSDOF 5
ENDMDL
MODEL 6
REMARK VINA RESULT:     -11.8      2.354      8.666
REMARK  5 active torsions:
REMARK  status: ('A' for Active; 'I' for Inactive)
REMARK    1  A    between atoms: C_8  and  C_20 
REMARK    2  A    between atoms: C_10  and  C_31 
REMARK    3  A    between atoms: C_11  and  C_20 
REMARK    4  A    between atoms: O_13  and  C_19 
REMARK    5  A    between atoms: C_17  and  C_33 
ROOT
HETATM    1  C   UNL     1      48.391   2.513 132.230  1.00  0.00     0.052 C 
HETATM    2  C   UNL     1      48.844   1.269 132.300  1.00  0.00     0.019 C 
HETATM    3  C   UNL     1      46.032   2.349 134.317  1.00  0.00     0.033 C 
HETATM    4  O   UNL     1      46.798   3.986 131.368  1.00  0.00    -0.292 OA
HETATM    5  C   UNL     1      45.761   2.307 132.797  1.00  0.00     0.063 C 
HETATM    6  C   UNL     1      48.073   0.033 132.657  1.00  0.00     0.016 C 
HETATM    7  C   UNL     1      46.993   3.028 132.091  1.00  0.00     0.165 C 
HETATM    8  C   UNL     1      45.592   0.839 132.315  1.00  0.00    -0.004 C 
HETATM    9  C   UNL     1      46.683  -0.158 132.305  1.00  0.00     0.013 C 
ENDROOT
BRANCH   5  10
HETATM   10  C   UNL     1      44.454   3.054 132.423  1.00  0.00    -0.049 C 
HETATM   11  C   UNL     1      43.063   2.694 132.841  1.00  0.00    -0.039 C 
HETATM   12  C   UNL     1      42.044   2.624 131.731  1.00  0.00    -0.030 C 
HETATM   13  C   UNL     1      42.578   2.312 134.186  1.00  0.00     0.080 C 
HETATM   14  C   UNL     1      40.927   1.743 131.869  1.00  0.00     0.012 C 
HETATM   15  C   UNL     1      42.283   3.375 130.521  1.00  0.00     0.008 C 
HETATM   16  C   UNL     1      40.691   1.055 133.067  1.00  0.00     0.011 C 
HETATM   17  C   UNL     1      41.390   1.451 134.315  1.00  0.00    -0.024 C 
HETATM   18  C   UNL     1      43.485   3.996 130.248  1.00  0.00    -0.021 C 
HETATM   19  C   UNL     1      44.534   4.066 131.294  1.00  0.00     0.063 C 
BRANCH  17  20
HETATM   20  C   UNL     1      40.842   0.826 135.532  1.00  0.00     0.065 C 
HETATM   21  O   UNL     1      39.703  -0.070 135.495  1.00  0.00    -0.300 OA
HETATM   22  C   UNL     1      39.291  -0.654 136.796  1.00  0.00     0.157 C 
HETATM   23  N   UNL     1      37.945  -0.973 137.044  1.00  0.00    -0.075 NA
HETATM   24  C   UNL     1      40.379  -0.864 137.740  1.00  0.00     0.049 C 
HETATM   25  C   UNL     1      41.537  -0.071 137.700  1.00  0.00    -0.016 C 
HETATM   26  C   UNL     1      41.483   1.095 136.823  1.00  0.00     0.092 C 
ENDBRANCH  17  20
ENDBRANCH   5  10
BRANCH   6  27
HETATM   27  C   UNL     1      48.856  -1.080 133.278  1.00  0.00     0.208 C 
HETATM   28  O   UNL     1      49.377  -0.865 134.369  1.00  0.00    -0.285 OA
BRANCH  27  29
HETATM   29  C   UNL     1      48.947  -2.462 132.665  1.00  0.00     0.083 C 
HETATM   30  C   UNL     1      49.416  -3.630 133.374  1.00  0.00     0.036 C 
HETATM   31  C   UNL     1      49.372  -4.890 132.719  1.00  0.00     0.040 C 
HETATM   32  C   UNL     1      48.898  -4.961 131.379  1.00  0.00     0.081 C 
HETATM   33  C   UNL     1      48.283  -3.819 130.796  1.00  0.00     0.124 C 
HETATM   34  N   UNL     1      48.545  -2.581 131.327  1.00  0.00    -0.360 N 
ATOM     35  HN  UNL     1      48.447  -1.747 130.749  1.00  0.00     0.165 HD
BRANCH  32  36
HETATM   36  O   UNL     1      49.088  -6.074 130.615  1.00  0.00    -0.359 OA
ATOM     37  HO  UNL     1      49.334  -5.973 129.703  1.00  0.00     0.217 HD
ENDBRANCH  32  36
ENDBRANCH  27  29
ENDBRANCH   6  27
TORSDOF 5
ENDMDL
MODEL 7
REMARK VINA RESULT:     -11.7      1.218      1.638
REMARK  5 active torsions:
REMARK  status: ('A' for Active; 'I' for Inactive)
REMARK    1  A    between atoms: C_8  and  C_20 
REMARK    2  A    between atoms: C_10  and  C_31 
REMARK    3  A    between atoms: C_11  and  C_20 
REMARK    4  A    between atoms: O_13  and  C_19 
REMARK    5  A    between atoms: C_17  and  C_33 
ROOT
HETATM    1  C   UNL     1      40.693   1.054 133.776  1.00  0.00     0.052 C 
HETATM    2  C   UNL     1      40.523   1.057 135.091  1.00  0.00     0.019 C 
HETATM    3  C   UNL     1      43.663   0.005 133.616  1.00  0.00     0.033 C 
HETATM    4  O   UNL     1      41.552   2.138 131.896  1.00  0.00    -0.292 OA
HETATM    5  C   UNL     1      43.332   1.503 133.434  1.00  0.00     0.063 C 
HETATM    6  C   UNL     1      41.572   1.229 136.148  1.00  0.00     0.016 C 
HETATM    7  C   UNL     1      41.819   1.581 132.944  1.00  0.00     0.165 C 
HETATM    8  C   UNL     1      43.552   2.274 134.766  1.00  0.00    -0.004 C 
HETATM    9  C   UNL     1      42.730   2.080 135.979  1.00  0.00     0.013 C 
ENDROOT
BRANCH   5  10
HETATM   10  C   UNL     1      44.245   2.172 132.374  1.00  0.00    -0.049 C 
HETATM   11  C   UNL     1      45.586   1.694 131.915  1.00  0.00    -0.039 C 
HETATM   12  C   UNL     1      46.684   2.730 131.915  1.00  0.00    -0.030 C 
HETATM   13  C   UNL     1      45.996   0.321 131.546  1.00  0.00     0.080 C 
HETATM   14  C   UNL     1      48.036   2.307 132.105  1.00  0.00     0.012 C 
HETATM   15  C   UNL     1      46.322   4.124 131.823  1.00  0.00     0.008 C 
HETATM   16  C   UNL     1      48.370   0.947 132.151  1.00  0.00     0.011 C 
HETATM   17  C   UNL     1      47.405  -0.083 131.692  1.00  0.00    -0.024 C 
HETATM   18  C   UNL     1      45.022   4.572 131.932  1.00  0.00    -0.021 C 
HETATM   19  C   UNL     1      43.905   3.595 131.968  1.00  0.00     0.063 C 
BRANCH  17  20
HETATM   20  C   UNL     1      47.990  -1.428 131.541  1.00  0.00     0.065 C 
HETATM   21  O   UNL     1      48.323  -2.257 132.683  1.00  0.00    -0.300 OA
HETATM   22  C   UNL     1      48.868  -3.603 132.373  1.00  0.00     0.157 C 
HETATM   23  N   UNL     1      49.782  -4.223 133.241  1.00  0.00    -0.075 NA
HETATM   24  C   UNL     1      48.367  -4.192 131.139  1.00  0.00     0.049 C 
HETATM   25  C   UNL     1      47.931  -3.386 130.075  1.00  0.00    -0.016 C 
HETATM   26  C   UNL     1      48.220  -1.960 130.195  1.00  0.00     0.092 C 
ENDBRANCH  17  20
ENDBRANCH   5  10
BRANCH   6  27
HETATM   27  C   UNL     1      41.293   0.586 137.470  1.00  0.00     0.208 C 
HETATM   28  O   UNL     1      40.905  -0.579 137.462  1.00  0.00    -0.285 OA
BRANCH  27  29
HETATM   29  C   UNL     1      41.556   1.278 138.791  1.00  0.00     0.083 C 
HETATM   30  C   UNL     1      40.782   1.048 139.990  1.00  0.00     0.036 C 
HETATM   31  C   UNL     1      41.181   1.690 141.194  1.00  0.00     0.040 C 
HETATM   32  C   UNL     1      42.306   2.563 141.176  1.00  0.00     0.081 C 
HETATM   33  C   UNL     1      43.132   2.611 140.021  1.00  0.00     0.124 C 
HETATM   34  N   UNL     1      42.619   2.191 138.819  1.00  0.00    -0.360 N 
ATOM     35  HN  UNL     1      43.010   2.544 137.946  1.00  0.00     0.165 HD
BRANCH  32  36
HETATM   36  O   UNL     1      42.565   3.409 142.214  1.00  0.00    -0.359 OA
ATOM     37  HO  UNL     1      41.862   3.949 142.557  1.00  0.00     0.217 HD
ENDBRANCH  32  36
ENDBRANCH  27  29
ENDBRANCH   6  27
TORSDOF 5
ENDMDL
MODEL 8
REMARK VINA RESULT:     -11.6      1.298      1.754
REMARK  5 active torsions:
REMARK  status: ('A' for Active; 'I' for Inactive)
REMARK    1  A    between atoms: C_8  and  C_20 
REMARK    2  A    between atoms: C_10  and  C_31 
REMARK    3  A    between atoms: C_11  and  C_20 
REMARK    4  A    between atoms: O_13  and  C_19 
REMARK    5  A    between atoms: C_17  and  C_33 
ROOT
HETATM    1  C   UNL     1      40.603   1.037 133.150  1.00  0.00     0.052 C 
HETATM    2  C   UNL     1      40.292   0.984 134.437  1.00  0.00     0.019 C 
HETATM    3  C   UNL     1      43.557  -0.064 133.261  1.00  0.00     0.033 C 
HETATM    4  O   UNL     1      41.678   2.188 131.427  1.00  0.00    -0.292 OA
HETATM    5  C   UNL     1      43.270   1.448 133.116  1.00  0.00     0.063 C 
HETATM    6  C   UNL     1      41.222   1.086 135.609  1.00  0.00     0.016 C 
HETATM    7  C   UNL     1      41.820   1.579 132.470  1.00  0.00     0.165 C 
HETATM    8  C   UNL     1      43.356   2.153 134.499  1.00  0.00    -0.004 C 
HETATM    9  C   UNL     1      42.405   1.919 135.606  1.00  0.00     0.013 C 
ENDROOT
BRANCH   5  10
HETATM   10  C   UNL     1      44.303   2.146 132.193  1.00  0.00    -0.049 C 
HETATM   11  C   UNL     1      45.674   1.657 131.850  1.00  0.00    -0.039 C 
HETATM   12  C   UNL     1      46.787   2.662 132.019  1.00  0.00    -0.030 C 
HETATM   13  C   UNL     1      46.092   0.294 131.453  1.00  0.00     0.080 C 
HETATM   14  C   UNL     1      48.103   2.194 132.325  1.00  0.00     0.012 C 
HETATM   15  C   UNL     1      46.467   4.068 131.965  1.00  0.00     0.008 C 
HETATM   16  C   UNL     1      48.402   0.825 132.331  1.00  0.00     0.011 C 
HETATM   17  C   UNL     1      47.468  -0.154 131.720  1.00  0.00    -0.024 C 
HETATM   18  C   UNL     1      45.172   4.544 131.964  1.00  0.00    -0.021 C 
HETATM   19  C   UNL     1      44.038   3.597 131.831  1.00  0.00     0.063 C 
BRANCH  17  20
HETATM   20  C   UNL     1      48.038  -1.504 131.559  1.00  0.00     0.065 C 
HETATM   21  O   UNL     1      48.352  -2.351 132.694  1.00  0.00    -0.300 OA
HETATM   22  C   UNL     1      48.882  -3.699 132.372  1.00  0.00     0.157 C 
HETATM   23  N   UNL     1      49.782  -4.341 133.240  1.00  0.00    -0.075 NA
HETATM   24  C   UNL     1      48.383  -4.269 131.129  1.00  0.00     0.049 C 
HETATM   25  C   UNL     1      47.966  -3.444 130.071  1.00  0.00    -0.016 C 
HETATM   26  C   UNL     1      48.271  -2.024 130.208  1.00  0.00     0.092 C 
ENDBRANCH  17  20
ENDBRANCH   5  10
BRANCH   6  27
HETATM   27  C   UNL     1      40.791   0.389 136.860  1.00  0.00     0.208 C 
HETATM   28  O   UNL     1      39.897  -0.446 136.764  1.00  0.00    -0.285 OA
BRANCH  27  29
HETATM   29  C   UNL     1      41.471   0.606 138.196  1.00  0.00     0.083 C 
HETATM   30  C   UNL     1      42.898   0.766 138.359  1.00  0.00     0.036 C 
HETATM   31  C   UNL     1      43.410   1.054 139.653  1.00  0.00     0.040 C 
HETATM   32  C   UNL     1      42.510   1.144 140.752  1.00  0.00     0.081 C 
HETATM   33  C   UNL     1      41.110   1.158 140.507  1.00  0.00     0.124 C 
HETATM   34  N   UNL     1      40.638   0.649 139.323  1.00  0.00    -0.360 N 
ATOM     35  HN  UNL     1      39.681   0.301 139.263  1.00  0.00     0.165 HD
BRANCH  32  36
HETATM   36  O   UNL     1      42.959   1.140 142.040  1.00  0.00    -0.359 OA
ATOM     37  HO  UNL     1      43.796   0.737 142.237  1.00  0.00     0.217 HD
ENDBRANCH  32  36
ENDBRANCH  27  29
ENDBRANCH   6  27
TORSDOF 5
ENDMDL
MODEL 9
REMARK VINA RESULT:     -11.0      1.750      8.863
REMARK  5 active torsions:
REMARK  status: ('A' for Active; 'I' for Inactive)
REMARK    1  A    between atoms: C_8  and  C_20 
REMARK    2  A    between atoms: C_10  and  C_31 
REMARK    3  A    between atoms: C_11  and  C_20 
REMARK    4  A    between atoms: O_13  and  C_19 
REMARK    5  A    between atoms: C_17  and  C_33 
ROOT
HETATM    1  C   UNL     1      47.182   3.336 132.099  1.00  0.00     0.052 C 
HETATM    2  C   UNL     1      48.008   2.334 131.832  1.00  0.00     0.019 C 
HETATM    3  C   UNL     1      45.567   2.081 134.501  1.00  0.00     0.033 C 
HETATM    4  O   UNL     1      45.049   4.251 131.858  1.00  0.00    -0.292 OA
HETATM    5  C   UNL     1      44.968   2.144 133.078  1.00  0.00     0.063 C 
HETATM    6  C   UNL     1      47.776   0.871 132.063  1.00  0.00     0.016 C 
HETATM    7  C   UNL     1      45.703   3.338 132.323  1.00  0.00     0.165 C 
HETATM    8  C   UNL     1      45.161   0.787 132.346  1.00  0.00    -0.004 C 
HETATM    9  C   UNL     1      46.476   0.248 131.936  1.00  0.00     0.013 C 
ENDROOT
BRANCH   5  10
HETATM   10  C   UNL     1      43.443   2.423 133.106  1.00  0.00    -0.049 C 
HETATM   11  C   UNL     1      42.508   2.191 134.251  1.00  0.00    -0.039 C 
HETATM   12  C   UNL     1      41.251   1.424 133.923  1.00  0.00    -0.030 C 
HETATM   13  C   UNL     1      42.699   2.537 135.677  1.00  0.00     0.080 C 
HETATM   14  C   UNL     1      40.633   0.636 134.943  1.00  0.00     0.012 C 
HETATM   15  C   UNL     1      40.768   1.432 132.563  1.00  0.00     0.008 C 
HETATM   16  C   UNL     1      41.092   0.675 136.266  1.00  0.00     0.011 C 
HETATM   17  C   UNL     1      42.009   1.753 136.715  1.00  0.00    -0.024 C 
HETATM   18  C   UNL     1      41.500   1.940 131.509  1.00  0.00    -0.021 C 
HETATM   19  C   UNL     1      42.761   2.676 131.772  1.00  0.00     0.063 C 
BRANCH  17  20
HETATM   20  C   UNL     1      42.183   1.820 138.178  1.00  0.00     0.065 C 
HETATM   21  O   UNL     1      42.716   2.995 138.839  1.00  0.00    -0.300 OA
HETATM   22  C   UNL     1      42.794   2.930 140.320  1.00  0.00     0.157 C 
HETATM   23  N   UNL     1      43.799   3.622 141.016  1.00  0.00    -0.075 NA
HETATM   24  C   UNL     1      41.760   2.121 140.949  1.00  0.00     0.049 C 
HETATM   25  C   UNL     1      41.158   1.053 140.263  1.00  0.00    -0.016 C 
HETATM   26  C   UNL     1      41.780   0.674 138.998  1.00  0.00     0.092 C 
ENDBRANCH  17  20
ENDBRANCH   5  10
BRANCH   6  27
HETATM   27  C   UNL     1      48.995   0.035 132.293  1.00  0.00     0.208 C 
HETATM   28  O   UNL     1      50.077   0.613 132.344  1.00  0.00    -0.285 OA
BRANCH  27  29
HETATM   29  C   UNL     1      48.931  -1.456 132.553  1.00  0.00     0.083 C 
HETATM   30  C   UNL     1      49.113  -2.056 133.855  1.00  0.00     0.036 C 
HETATM   31  C   UNL     1      48.941  -3.461 133.990  1.00  0.00     0.040 C 
HETATM   32  C   UNL     1      48.627  -4.236 132.838  1.00  0.00     0.081 C 
HETATM   33  C   UNL     1      48.283  -3.576 131.627  1.00  0.00     0.124 C 
HETATM   34  N   UNL     1      48.679  -2.275 131.444  1.00  0.00    -0.360 N 
ATOM     35  HN  UNL     1      48.790  -1.904 130.501  1.00  0.00     0.165 HD
BRANCH  32  36
HETATM   36  O   UNL     1      48.723  -5.596 132.850  1.00  0.00    -0.359 OA
ATOM     37  HO  UNL     1      49.521  -6.001 133.169  1.00  0.00     0.217 HD
ENDBRANCH  32  36
ENDBRANCH  27  29
ENDBRANCH   6  27
TORSDOF 5
ENDMDL
