REMARK  4 active torsions:
REMARK  status: ('A' for Active; 'I' for Inactive)
REMARK    1  A    between atoms: C_2  and  C_39 
REMARK    2  A    between atoms: C_12  and  N_22 
REMARK    3  A    between atoms: C_14  and  O_26 
REMARK    4  A    between atoms: N_22  and  C_38 
ROOT
HETATM    1  N   UNL     1     143.603 -25.631  75.037  1.00  0.00    -0.246 N 
HETATM    2  C   UNL     1     142.941 -25.838  73.928  1.00  0.00     0.128 C 
HETATM    3  C   UNL     1     144.387 -25.207  72.034  1.00  0.00     0.016 C 
HETATM    4  C   UNL     1     143.185 -26.521  69.728  1.00  0.00    -0.045 C 
HETATM    5  C   UNL     1     143.307 -25.742  72.619  1.00  0.00     0.021 C 
HETATM    6  C   UNL     1     144.444 -25.814  77.033  1.00  0.00     0.138 A 
HETATM    7  O   UNL     1     144.113 -27.729  75.764  1.00  0.00    -0.264 OA
HETATM    8  C   UNL     1     144.154 -25.550  69.597  1.00  0.00     0.010 C 
HETATM    9  C   UNL     1     144.741 -25.022  70.727  1.00  0.00     0.002 C 
HETATM   10  N   UNL     1     141.651 -26.166  74.004  1.00  0.00    -0.340 N 
ATOM     11  HN  UNL     1     141.001 -26.005  74.774  1.00  0.00     0.167 HD
HETATM   12  C   UNL     1     144.309 -24.496  76.781  1.00  0.00     0.091 A 
HETATM   13  C   UNL     1     143.434 -27.755  69.182  1.00  0.00     0.023 C 
HETATM   14  C   UNL     1     142.125 -26.378  70.600  1.00  0.00     0.025 C 
HETATM   15  C   UNL     1     142.281 -26.277  71.934  1.00  0.00     0.006 C 
HETATM   16  C   UNL     1     144.064 -26.496  75.920  1.00  0.00     0.288 A 
HETATM   17  C   UNL     1     143.802 -24.423  75.519  1.00  0.00     0.119 A 
HETATM   18  C   UNL     1     141.418 -26.748  72.845  1.00  0.00     0.055 C 
ENDROOT
BRANCH  17  19
HETATM   19  N   UNL     1     143.567 -23.376  74.790  1.00  0.00    -0.341 N 
ATOM     20  HN  UNL     1     143.450 -23.640  73.812  1.00  0.00     0.167 HD
BRANCH  19  21
HETATM   21  C   UNL     1     143.435 -22.083  74.935  1.00  0.00     0.041 C 
HETATM   22  C   UNL     1     144.517 -21.267  75.184  1.00  0.00     0.035 C 
HETATM   23  C   UNL     1     144.531 -19.912  75.009  1.00  0.00     0.076 C 
HETATM   24  C   UNL     1     143.776 -19.107  74.179  1.00  0.00     0.245 C 
HETATM   25  N   UNL     1     142.719 -19.570  73.534  1.00  0.00    -0.333 N 
HETATM   26  O   UNL     1     144.093 -17.868  74.095  1.00  0.00    -0.268 OA
HETATM   27  C   UNL     1     141.939 -20.603  73.816  1.00  0.00     0.100 C 
ATOM     28  HN  UNL     1     142.466 -19.054  72.692  1.00  0.00     0.168 HD
HETATM   29  C   UNL     1     142.162 -21.511  74.798  1.00  0.00    -0.020 C 
HETATM   30  C   UNL     1     141.061 -21.833  75.764  1.00  0.00     0.052 C 
ENDBRANCH  19  21
ENDBRANCH  17  19
BRANCH   6  31
HETATM   31  O   UNL     1     144.733 -26.397  78.224  1.00  0.00    -0.356 OA
ATOM     32  HO  UNL     1     144.828 -27.325  78.402  1.00  0.00     0.218 HD
ENDBRANCH   6  31
BRANCH  18  33
HETATM   33  C   UNL     1     140.723 -27.885  72.709  1.00  0.00    -0.008 C 
HETATM   34  C   UNL     1     140.909 -28.919  73.597  1.00  0.00     0.020 C 
HETATM   35  C   UNL     1     141.024 -30.259  73.374  1.00  0.00    -0.061 C 
HETATM   36  C   UNL     1     141.659 -31.110  74.437  1.00  0.00     0.048 C 
HETATM   37  C   UNL     1     140.623 -30.926  72.227  1.00  0.00     0.007 C 
HETATM   38  C   UNL     1     140.034 -30.415  71.136  1.00  0.00     0.001 C 
HETATM   39  C   UNL     1     139.647 -29.123  70.897  1.00  0.00     0.001 C 
HETATM   40  C   UNL     1     139.824 -27.999  71.658  1.00  0.00     0.014 C 
ENDBRANCH  18  33
TORSDOF 4
