REMARK  6 active torsions:
REMARK  status: ('A' for Active; 'I' for Inactive)
REMARK    1  A    between atoms: C_1  and  C_13 
REMARK    2  A    between atoms: O_4  and  C_16 
REMARK    3  A    between atoms: C_6  and  C_8 
REMARK    4  A    between atoms: C_9  and  C_20 
REMARK    5  A    between atoms: O_14  and  C_16 
REMARK    6  A    between atoms: C_20  and  C_21 
ROOT
HETATM    1  C   UNL     1       0.291  13.069  15.102  1.00  0.00     0.026 C 
HETATM    2  C   UNL     1       2.382  11.549  15.275  1.00  0.00     0.002 C 
HETATM    3  C   UNL     1       1.987  10.398  15.997  1.00  0.00     0.017 C 
HETATM    4  C   UNL     1       1.632  12.699  15.166  1.00  0.00     0.014 C 
HETATM    5  C   UNL     1      -0.817  12.278  15.877  1.00  0.00     0.274 C 
HETATM    6  N   UNL     1      -0.380  11.008  16.327  1.00  0.00    -0.342 N 
ATOM      7  HN  UNL     1      -1.178  10.493  16.698  1.00  0.00     0.164 HD
HETATM    8  C   UNL     1       0.683  10.274  16.431  1.00  0.00     0.088 C 
ENDROOT
BRANCH   1   9
HETATM    9  C   UNL     1      -0.087  14.287  14.475  1.00  0.00     0.015 C 
HETATM   10  C   UNL     1       0.700  15.350  14.217  1.00  0.00     0.012 C 
BRANCH  10  11
HETATM   11  C   UNL     1       0.400  16.698  14.516  1.00  0.00    -0.036 C 
HETATM   12  C   UNL     1       1.321  17.764  14.669  1.00  0.00     0.018 C 
HETATM   13  C   UNL     1       0.590  18.915  14.984  1.00  0.00    -0.057 C 
HETATM   14  C   UNL     1      -0.800  18.626  14.854  1.00  0.00     0.008 C 
HETATM   15  C   UNL     1      -0.889  17.220  14.867  1.00  0.00     0.012 C 
BRANCH  13  16
HETATM   16  C   UNL     1       1.160  20.277  15.228  1.00  0.00     0.038 C 
BRANCH  16  17
HETATM   17  C   UNL     1       2.316  20.693  14.353  1.00  0.00     0.000 C 
HETATM   18  C   UNL     1       3.538  21.021  15.186  1.00  0.00     0.005 C 
ENDBRANCH  16  17
ENDBRANCH  13  16
ENDBRANCH  10  11
ENDBRANCH   1   9
BRANCH   5  19
HETATM   19  O   UNL     1      -1.203  13.019  16.925  1.00  0.00    -0.345 OA
ATOM     20  HO  UNL     1      -1.875  12.539  17.395  1.00  0.00     0.215 HD
ENDBRANCH   5  19
BRANCH   5  21
HETATM   21  O   UNL     1      -1.852  12.107  14.979  1.00  0.00    -0.345 OA
ATOM     22  HO  UNL     1      -2.524  11.627  15.449  1.00  0.00     0.215 HD
ENDBRANCH   5  21
TORSDOF 6
