MODEL 1
REMARK VINA RESULT:      -6.5      0.000      0.000
REMARK  1 active torsions:
REMARK  status: ('A' for Active; 'I' for Inactive)
REMARK    1  A    between atoms: O_1  and  C_19 
ROOT
HETATM    1  C   UNL     1      13.680   6.029  13.221  1.00  0.00     0.137 C 
HETATM    2  N   UNL     1      17.555   4.724  12.780  1.00  0.00    -0.017 N 
ATOM      3  HN1 UNL     1      18.525   5.028  12.692  1.00  0.00     0.282 HD
ATOM      4  HN2 UNL     1      17.606   4.375  13.736  1.00  0.00     0.282 HD
HETATM    5  C   UNL     1      17.847   3.999  10.455  1.00  0.00     0.129 C 
HETATM    6  C   UNL     1      15.585   5.356  11.572  1.00  0.00     0.200 C 
HETATM    7  C   UNL     1      16.067   5.800  10.192  1.00  0.00     0.052 C 
HETATM    8  C   UNL     1      17.201   3.677  11.815  1.00  0.00     0.443 C 
HETATM    9  O   UNL     1      14.413   7.184  15.163  1.00  0.00    -0.273 OA
HETATM   10  C   UNL     1      14.736   6.543  14.166  1.00  0.00     0.221 C 
HETATM   11  C   UNL     1      17.160   4.955   9.559  1.00  0.00     0.072 C 
HETATM   12  C   UNL     1      16.604   5.825  12.631  1.00  0.00     0.328 C 
HETATM   13  N   UNL     1      15.746   3.881  11.646  1.00  0.00    -0.025 N 
ATOM     14  HN1 UNL     1      15.345   3.378  10.854  1.00  0.00     0.281 HD
ATOM     15  HN2 UNL     1      15.177   3.435  12.365  1.00  0.00     0.281 HD
HETATM   16  F   UNL     1      18.794   3.152  10.021  1.00  0.00    -0.211 F 
HETATM   17  C   UNL     1      14.154   5.883  11.771  1.00  0.00     0.167 C 
HETATM   18  N   UNL     1      16.043   6.281  13.908  1.00  0.00    -0.331 N 
ATOM     19  HN  UNL     1      16.700   6.414  14.676  1.00  0.00     0.164 HD
ENDROOT
BRANCH  17  20
HETATM   20  O   UNL     1      14.129   7.215  11.242  1.00  0.00    -0.392 OA
ATOM     21  HO  UNL     1      14.300   7.110  10.314  1.00  0.00     0.210 HD
ENDBRANCH  17  20
TORSDOF 1
ENDMDL
MODEL 2
REMARK VINA RESULT:      -6.4      1.381      1.740
REMARK  1 active torsions:
REMARK  status: ('A' for Active; 'I' for Inactive)
REMARK    1  A    between atoms: O_1  and  C_19 
ROOT
HETATM    1  C   UNL     1      14.116   6.019  11.462  1.00  0.00     0.137 C 
HETATM    2  N   UNL     1      17.300   4.551  13.613  1.00  0.00    -0.017 N 
ATOM      3  HN1 UNL     1      18.224   4.778  13.981  1.00  0.00     0.282 HD
ATOM      4  HN2 UNL     1      16.789   4.581  14.495  1.00  0.00     0.282 HD
HETATM    5  C   UNL     1      18.542   3.008  12.166  1.00  0.00     0.129 C 
HETATM    6  C   UNL     1      16.387   4.737  11.407  1.00  0.00     0.200 C 
HETATM    7  C   UNL     1      17.575   4.625  10.453  1.00  0.00     0.052 C 
HETATM    8  C   UNL     1      17.252   3.230  12.978  1.00  0.00     0.443 C 
HETATM    9  O   UNL     1      14.020   7.793  13.037  1.00  0.00    -0.273 OA
HETATM   10  C   UNL     1      14.646   6.821  12.623  1.00  0.00     0.221 C 
HETATM   11  C   UNL     1      18.622   3.580  10.805  1.00  0.00     0.072 C 
HETATM   12  C   UNL     1      16.818   5.540  12.650  1.00  0.00     0.328 C 
HETATM   13  N   UNL     1      16.161   3.391  11.994  1.00  0.00    -0.025 N 
ATOM     14  HN1 UNL     1      16.106   2.640  11.306  1.00  0.00     0.281 HD
ATOM     15  HN2 UNL     1      15.227   3.257  12.382  1.00  0.00     0.281 HD
HETATM   16  F   UNL     1      19.366   2.039  12.595  1.00  0.00    -0.211 F 
HETATM   17  C   UNL     1      15.203   5.334  10.627  1.00  0.00     0.167 C 
HETATM   18  N   UNL     1      15.813   6.451  13.210  1.00  0.00    -0.331 N 
ATOM     19  HN  UNL     1      16.011   6.844  14.129  1.00  0.00     0.164 HD
ENDROOT
BRANCH  17  20
HETATM   20  O   UNL     1      15.739   6.374   9.799  1.00  0.00    -0.392 OA
ATOM     21  HO  UNL     1      15.943   5.948   8.975  1.00  0.00     0.210 HD
ENDBRANCH  17  20
TORSDOF 1
ENDMDL
MODEL 3
REMARK VINA RESULT:      -6.3      1.753      2.954
REMARK  1 active torsions:
REMARK  status: ('A' for Active; 'I' for Inactive)
REMARK    1  A    between atoms: O_1  and  C_19 
ROOT
HETATM    1  C   UNL     1      15.955   6.348  12.858  1.00  0.00     0.137 C 
HETATM    2  N   UNL     1      16.479   3.912   9.586  1.00  0.00    -0.017 N 
ATOM      3  HN1 UNL     1      16.198   3.029   9.160  1.00  0.00     0.282 HD
ATOM      4  HN2 UNL     1      15.958   4.535   8.969  1.00  0.00     0.282 HD
HETATM    5  C   UNL     1      18.660   2.811   9.806  1.00  0.00     0.129 C 
HETATM    6  C   UNL     1      17.325   4.414  11.770  1.00  0.00     0.200 C 
HETATM    7  C   UNL     1      18.024   3.143  12.249  1.00  0.00     0.052 C 
HETATM    8  C   UNL     1      17.927   4.135   9.523  1.00  0.00     0.443 C 
HETATM    9  O   UNL     1      13.632   6.314  12.366  1.00  0.00    -0.273 OA
HETATM   10  C   UNL     1      14.741   5.848  12.118  1.00  0.00     0.221 C 
HETATM   11  C   UNL     1      18.857   2.404  11.215  1.00  0.00     0.072 C 
HETATM   12  C   UNL     1      16.059   4.022  10.983  1.00  0.00     0.328 C 
HETATM   13  N   UNL     1      18.165   5.004  10.696  1.00  0.00    -0.025 N 
ATOM     14  HN1 UNL     1      19.149   5.107  10.945  1.00  0.00     0.281 HD
ATOM     15  HN2 UNL     1      17.988   5.994  10.524  1.00  0.00     0.281 HD
HETATM   16  F   UNL     1      19.366   2.284   8.794  1.00  0.00    -0.211 F 
HETATM   17  C   UNL     1      17.076   5.312  12.993  1.00  0.00     0.167 C 
HETATM   18  N   UNL     1      14.890   4.889  11.168  1.00  0.00    -0.331 N 
ATOM     19  HN  UNL     1      14.113   4.758  10.521  1.00  0.00     0.164 HD
ENDROOT
BRANCH  17  20
HETATM   20  O   UNL     1      16.652   4.451  14.057  1.00  0.00    -0.392 OA
ATOM     21  HO  UNL     1      17.429   4.317  14.586  1.00  0.00     0.210 HD
ENDBRANCH  17  20
TORSDOF 1
ENDMDL
MODEL 4
REMARK VINA RESULT:      -5.6      4.061      5.476
REMARK  1 active torsions:
REMARK  status: ('A' for Active; 'I' for Inactive)
REMARK    1  A    between atoms: O_1  and  C_19 
ROOT
HETATM    1  C   UNL     1      20.604   1.510  10.786  1.00  0.00     0.137 C 
HETATM    2  N   UNL     1      17.551   3.789  12.335  1.00  0.00    -0.017 N 
ATOM      3  HN1 UNL     1      16.578   3.769  12.642  1.00  0.00     0.282 HD
ATOM      4  HN2 UNL     1      17.985   3.846  13.255  1.00  0.00     0.282 HD
HETATM    5  C   UNL     1      16.678   5.207  10.533  1.00  0.00     0.129 C 
HETATM    6  C   UNL     1      18.578   3.075  10.292  1.00  0.00     0.200 C 
HETATM    7  C   UNL     1      17.494   3.184   9.221  1.00  0.00     0.052 C 
HETATM    8  C   UNL     1      17.854   4.952  11.494  1.00  0.00     0.443 C 
HETATM    9  O   UNL     1      20.301   0.056  12.640  1.00  0.00    -0.273 OA
HETATM   10  C   UNL     1      19.870   1.016  12.008  1.00  0.00     0.221 C 
HETATM   11  C   UNL     1      16.606   4.415   9.286  1.00  0.00     0.072 C 
HETATM   12  C   UNL     1      17.935   2.582  11.604  1.00  0.00     0.328 C 
HETATM   13  N   UNL     1      18.974   4.459  10.663  1.00  0.00    -0.025 N 
ATOM     14  HN1 UNL     1      19.197   5.056   9.867  1.00  0.00     0.281 HD
ATOM     15  HN2 UNL     1      19.887   4.524  11.113  1.00  0.00     0.281 HD
HETATM   16  F   UNL     1      15.992   6.347  10.709  1.00  0.00    -0.211 F 
HETATM   17  C   UNL     1      19.703   2.181   9.745  1.00  0.00     0.167 C 
HETATM   18  N   UNL     1      18.739   1.653  12.406  1.00  0.00    -0.331 N 
ATOM     19  HN  UNL     1      18.415   1.466  13.354  1.00  0.00     0.164 HD
ENDROOT
BRANCH  17  20
HETATM   20  O   UNL     1      19.068   1.097   9.056  1.00  0.00    -0.392 OA
ATOM     21  HO  UNL     1      18.294   1.480   8.662  1.00  0.00     0.210 HD
ENDBRANCH  17  20
TORSDOF 1
ENDMDL
MODEL 5
REMARK VINA RESULT:      -5.5      3.163      4.647
REMARK  1 active torsions:
REMARK  status: ('A' for Active; 'I' for Inactive)
REMARK    1  A    between atoms: O_1  and  C_19 
ROOT
HETATM    1  C   UNL     1      18.911   3.908  10.042  1.00  0.00     0.137 C 
HETATM    2  N   UNL     1      16.887   4.286  13.602  1.00  0.00    -0.017 N 
ATOM      3  HN1 UNL     1      16.216   3.834  14.224  1.00  0.00     0.282 HD
ATOM      4  HN2 UNL     1      17.725   4.121  14.160  1.00  0.00     0.282 HD
HETATM    5  C   UNL     1      15.089   5.923  13.279  1.00  0.00     0.129 C 
HETATM    6  C   UNL     1      16.784   4.793  11.264  1.00  0.00     0.200 C 
HETATM    7  C   UNL     1      15.299   4.948  10.937  1.00  0.00     0.052 C 
HETATM    8  C   UNL     1      16.609   5.714  13.411  1.00  0.00     0.443 C 
HETATM    9  O   UNL     1      19.736   1.839  10.865  1.00  0.00    -0.273 OA
HETATM   10  C   UNL     1      18.956   2.773  11.032  1.00  0.00     0.221 C 
HETATM   11  C   UNL     1      14.461   5.698  11.959  1.00  0.00     0.072 C 
HETATM   12  C   UNL     1      16.952   3.651  12.287  1.00  0.00     0.328 C 
HETATM   13  N   UNL     1      17.185   5.972  12.074  1.00  0.00    -0.025 N 
ATOM     14  HN1 UNL     1      16.912   6.868  11.669  1.00  0.00     0.281 HD
ATOM     15  HN2 UNL     1      18.189   6.151  12.080  1.00  0.00     0.281 HD
HETATM   16  F   UNL     1      14.488   6.616  14.259  1.00  0.00    -0.211 F 
HETATM   17  C   UNL     1      17.546   4.598   9.942  1.00  0.00     0.167 C 
HETATM   18  N   UNL     1      18.135   2.800  12.113  1.00  0.00    -0.331 N 
ATOM     19  HN  UNL     1      18.362   2.167  12.880  1.00  0.00     0.164 HD
ENDROOT
BRANCH  17  20
HETATM   20  O   UNL     1      16.751   3.722   9.134  1.00  0.00    -0.392 OA
ATOM     21  HO  UNL     1      17.333   3.439   8.438  1.00  0.00     0.210 HD
ENDBRANCH  17  20
TORSDOF 1
ENDMDL
MODEL 6
REMARK VINA RESULT:      -5.1      3.273      4.870
REMARK  1 active torsions:
REMARK  status: ('A' for Active; 'I' for Inactive)
REMARK    1  A    between atoms: O_1  and  C_19 
ROOT
HETATM    1  C   UNL     1      18.428   2.400  11.430  1.00  0.00     0.137 C 
HETATM    2  N   UNL     1      16.397   5.694  10.036  1.00  0.00    -0.017 N 
ATOM      3  HN1 UNL     1      16.465   6.698   9.872  1.00  0.00     0.282 HD
ATOM      4  HN2 UNL     1      16.459   5.391   9.065  1.00  0.00     0.282 HD
HETATM    5  C   UNL     1      14.760   6.348  11.741  1.00  0.00     0.129 C 
HETATM    6  C   UNL     1      16.826   4.379  11.992  1.00  0.00     0.200 C 
HETATM    7  C   UNL     1      16.585   5.309  13.180  1.00  0.00     0.052 C 
HETATM    8  C   UNL     1      15.131   5.308  10.668  1.00  0.00     0.443 C 
HETATM    9  O   UNL     1      20.117   2.915   9.841  1.00  0.00    -0.273 OA
HETATM   10  C   UNL     1      19.085   3.280  10.397  1.00  0.00     0.221 C 
HETATM   11  C   UNL     1      15.380   6.229  13.079  1.00  0.00     0.072 C 
HETATM   12  C   UNL     1      17.494   5.182  10.857  1.00  0.00     0.328 C 
HETATM   13  N   UNL     1      15.501   4.074  11.393  1.00  0.00    -0.025 N 
ATOM     14  HN1 UNL     1      14.802   3.760  12.065  1.00  0.00     0.281 HD
ATOM     15  HN2 UNL     1      15.490   3.232  10.815  1.00  0.00     0.281 HD
HETATM   16  F   UNL     1      13.658   7.081  11.515  1.00  0.00    -0.211 F 
HETATM   17  C   UNL     1      17.631   3.168  12.490  1.00  0.00     0.167 C 
HETATM   18  N   UNL     1      18.515   4.472  10.080  1.00  0.00    -0.331 N 
ATOM     19  HN  UNL     1      18.829   4.917   9.218  1.00  0.00     0.164 HD
ENDROOT
BRANCH  17  20
HETATM   20  O   UNL     1      18.619   3.674  13.396  1.00  0.00    -0.392 OA
ATOM     21  HO  UNL     1      18.241   4.472  13.746  1.00  0.00     0.210 HD
ENDBRANCH  17  20
TORSDOF 1
ENDMDL
MODEL 7
REMARK VINA RESULT:      -5.0      5.941      7.431
REMARK  1 active torsions:
REMARK  status: ('A' for Active; 'I' for Inactive)
REMARK    1  A    between atoms: O_1  and  C_19 
ROOT
HETATM    1  C   UNL     1      19.736  -1.940  13.963  1.00  0.00     0.137 C 
HETATM    2  N   UNL     1      21.404   0.601  11.192  1.00  0.00    -0.017 N 
ATOM      3  HN1 UNL     1      22.031   1.398  11.072  1.00  0.00     0.282 HD
ATOM      4  HN2 UNL     1      22.023  -0.119  10.822  1.00  0.00     0.282 HD
HETATM    5  C   UNL     1      19.674   2.193  10.490  1.00  0.00     0.129 C 
HETATM    6  C   UNL     1      19.507   0.284  12.620  1.00  0.00     0.200 C 
HETATM    7  C   UNL     1      18.937   1.679  12.872  1.00  0.00     0.052 C 
HETATM    8  C   UNL     1      20.166   0.735  10.417  1.00  0.00     0.443 C 
HETATM    9  O   UNL     1      21.951  -2.459  14.646  1.00  0.00    -0.273 OA
HETATM   10  C   UNL     1      21.230  -1.736  13.964  1.00  0.00     0.221 C 
HETATM   11  C   UNL     1      18.893   2.612  11.673  1.00  0.00     0.072 C 
HETATM   12  C   UNL     1      21.047   0.372  12.591  1.00  0.00     0.328 C 
HETATM   13  N   UNL     1      19.209  -0.069  11.208  1.00  0.00    -0.025 N 
ATOM     14  HN1 UNL     1      18.233   0.065  10.942  1.00  0.00     0.281 HD
ATOM     15  HN2 UNL     1      19.244  -1.069  11.012  1.00  0.00     0.281 HD
HETATM   16  F   UNL     1      19.685   2.890   9.343  1.00  0.00    -0.211 F 
HETATM   17  C   UNL     1      18.932  -0.666  13.683  1.00  0.00     0.167 C 
HETATM   18  N   UNL     1      21.768  -0.754  13.195  1.00  0.00    -0.331 N 
ATOM     19  HN  UNL     1      22.771  -0.804  13.020  1.00  0.00     0.164 HD
ENDROOT
BRANCH  17  20
HETATM   20  O   UNL     1      18.939   0.051  14.923  1.00  0.00    -0.392 OA
ATOM     21  HO  UNL     1      18.310   0.753  14.801  1.00  0.00     0.210 HD
ENDBRANCH  17  20
TORSDOF 1
ENDMDL
MODEL 8
REMARK VINA RESULT:      -4.9      5.924      7.490
REMARK  1 active torsions:
REMARK  status: ('A' for Active; 'I' for Inactive)
REMARK    1  A    between atoms: O_1  and  C_19 
ROOT
HETATM    1  C   UNL     1      19.556   1.102  10.335  1.00  0.00     0.137 C 
HETATM    2  N   UNL     1      18.608   0.188  14.231  1.00  0.00    -0.017 N 
ATOM      3  HN1 UNL     1      18.757   0.458  15.204  1.00  0.00     0.282 HD
ATOM      4  HN2 UNL     1      17.652   0.530  14.138  1.00  0.00     0.282 HD
HETATM    5  C   UNL     1      19.877  -1.813  14.868  1.00  0.00     0.129 C 
HETATM    6  C   UNL     1      20.158  -0.278  12.465  1.00  0.00     0.200 C 
HETATM    7  C   UNL     1      21.435  -0.765  13.148  1.00  0.00     0.052 C 
HETATM    8  C   UNL     1      18.712  -1.261  14.025  1.00  0.00     0.443 C 
HETATM    9  O   UNL     1      18.735   3.287  10.771  1.00  0.00    -0.273 OA
HETATM   10  C   UNL     1      19.046   2.195  11.239  1.00  0.00     0.221 C 
HETATM   11  C   UNL     1      21.248  -1.710  14.323  1.00  0.00     0.072 C 
HETATM   12  C   UNL     1      19.536   0.849  13.315  1.00  0.00     0.328 C 
HETATM   13  N   UNL     1      19.139  -1.350  12.612  1.00  0.00    -0.025 N 
ATOM     14  HN1 UNL     1      19.465  -2.275  12.333  1.00  0.00     0.281 HD
ATOM     15  HN2 UNL     1      18.373  -1.292  11.941  1.00  0.00     0.281 HD
HETATM   16  F   UNL     1      19.555  -2.648  15.868  1.00  0.00    -0.211 F 
HETATM   17  C   UNL     1      20.510   0.117  11.021  1.00  0.00     0.167 C 
HETATM   18  N   UNL     1      18.922   1.954  12.570  1.00  0.00    -0.331 N 
ATOM     19  HN  UNL     1      18.348   2.605  13.104  1.00  0.00     0.164 HD
ENDROOT
BRANCH  17  20
HETATM   20  O   UNL     1      21.766   0.803  11.077  1.00  0.00    -0.392 OA
ATOM     21  HO  UNL     1      22.053   0.858  10.173  1.00  0.00     0.210 HD
ENDBRANCH  17  20
TORSDOF 1
ENDMDL
MODEL 9
REMARK VINA RESULT:      -4.9      6.334      7.884
REMARK  1 active torsions:
REMARK  status: ('A' for Active; 'I' for Inactive)
REMARK    1  A    between atoms: O_1  and  C_19 
ROOT
HETATM    1  C   UNL     1      21.666  -1.509  13.046  1.00  0.00     0.137 C 
HETATM    2  N   UNL     1      18.059  -0.158  14.487  1.00  0.00    -0.017 N 
ATOM      3  HN1 UNL     1      17.054  -0.137  14.312  1.00  0.00     0.282 HD
ATOM      4  HN2 UNL     1      18.051  -0.828  15.255  1.00  0.00     0.282 HD
HETATM    5  C   UNL     1      17.921   2.250  14.040  1.00  0.00     0.129 C 
HETATM    6  C   UNL     1      19.918   0.426  13.095  1.00  0.00     0.200 C 
HETATM    7  C   UNL     1      19.392   1.471  12.113  1.00  0.00     0.052 C 
HETATM    8  C   UNL     1      18.591   1.150  14.885  1.00  0.00     0.443 C 
HETATM    9  O   UNL     1      20.727  -3.691  13.075  1.00  0.00    -0.273 OA
HETATM   10  C   UNL     1      20.527  -2.485  13.196  1.00  0.00     0.221 C 
HETATM   11  C   UNL     1      18.458   2.523  12.689  1.00  0.00     0.072 C 
HETATM   12  C   UNL     1      18.822  -0.632  13.334  1.00  0.00     0.328 C 
HETATM   13  N   UNL     1      19.996   1.072  14.431  1.00  0.00    -0.025 N 
ATOM     14  HN1 UNL     1      20.485   1.967  14.433  1.00  0.00     0.281 HD
ATOM     15  HN2 UNL     1      20.619   0.600  15.086  1.00  0.00     0.281 HD
HETATM   16  F   UNL     1      17.129   3.115  14.693  1.00  0.00    -0.211 F 
HETATM   17  C   UNL     1      21.242  -0.126  12.541  1.00  0.00     0.167 C 
HETATM   18  N   UNL     1      19.283  -2.017  13.475  1.00  0.00    -0.331 N 
ATOM     19  HN  UNL     1      18.602  -2.695  13.817  1.00  0.00     0.164 HD
ENDROOT
BRANCH  17  20
HETATM   20  O   UNL     1      21.061  -0.292  11.129  1.00  0.00    -0.392 OA
ATOM     21  HO  UNL     1      20.220  -0.726  11.042  1.00  0.00     0.210 HD
ENDBRANCH  17  20
TORSDOF 1
ENDMDL
