REMARK  4 active torsions:
REMARK  status: ('A' for Active; 'I' for Inactive)
REMARK    1  A    between atoms: N_4  and  C_22 
REMARK    2  A    between atoms: N_9  and  C_27 
REMARK       I    between atoms: N_9  and  C_35 
REMARK    3  A    between atoms: C_20  and  C_30 
REMARK    4  A    between atoms: C_26  and  C_35 
ROOT
HETATM    1  C   UNL     1      11.905  18.095 -11.172  1.00  0.00     0.038 C 
HETATM    2  C   UNL     1      10.872  17.201 -10.465  1.00  0.00     0.052 C 
HETATM    3  N   UNL     1      13.605  17.257  -9.524  1.00  0.00    -0.413 N 
ATOM      4  HN  UNL     1      14.486  16.837  -9.229  1.00  0.00     0.153 HD
HETATM    5  C   UNL     1       9.908  14.910 -11.051  1.00  0.00     0.015 C 
HETATM    6  C   UNL     1      13.311  17.528 -10.968  1.00  0.00     0.078 C 
HETATM    7  C   UNL     1      10.978  15.760 -10.983  1.00  0.00    -0.070 C 
HETATM    8  C   UNL     1      11.172  17.194  -8.961  1.00  0.00     0.013 C 
HETATM    9  C   UNL     1      12.361  15.185 -11.237  1.00  0.00     0.037 C 
HETATM   10  C   UNL     1      13.412  16.187 -11.697  1.00  0.00     0.029 C 
HETATM   11  C   UNL     1      12.572  17.622  -8.560  1.00  0.00     0.155 C 
ENDROOT
BRANCH   8  12
HETATM   12  C   UNL     1      10.075  17.436  -7.977  1.00  0.00     0.250 C 
HETATM   13  N   UNL     1       8.814  17.587  -8.477  1.00  0.00    -0.323 N 
ATOM     14  HN  UNL     1       8.552  16.984  -9.257  1.00  0.00     0.169 HD
HETATM   15  O   UNL     1      10.329  17.424  -6.771  1.00  0.00    -0.268 OA
BRANCH  13  16
HETATM   16  C   UNL     1       7.840  18.495  -8.019  1.00  0.00     0.046 C 
HETATM   17  C   UNL     1       6.941  19.045  -8.930  1.00  0.00     0.077 C 
HETATM   18  C   UNL     1       5.841  19.745  -8.435  1.00  0.00     0.098 C 
HETATM   19  N   UNL     1       5.759  20.084  -7.122  1.00  0.00    -0.352 N 
HETATM   20  C   UNL     1       6.542  19.368  -6.223  1.00  0.00     0.212 C 
ATOM     21  HN  UNL     1       5.146  20.836  -6.807  1.00  0.00     0.163 HD
HETATM   22  C   UNL     1       7.767  18.929  -6.656  1.00  0.00     0.006 C 
HETATM   23  N   UNL     1       7.145  19.880  -5.106  1.00  0.00    -0.394 N 
HETATM   24  C   UNL     1       8.394  19.131  -5.334  1.00  0.00     0.157 C 
ATOM     25  HN  UNL     1       6.843  20.535  -4.385  1.00  0.00     0.155 HD
BRANCH  18  26
HETATM   26  N   UNL     1       5.134  20.564  -9.256  1.00  0.00    -0.386 N 
ATOM     27  HN2 UNL     1       5.196  20.309 -10.242  1.00  0.00     0.157 HD
ATOM     28  HN1 UNL     1       4.329  21.076  -8.894  1.00  0.00     0.157 HD
ENDBRANCH  18  26
ENDBRANCH  13  16
ENDBRANCH   8  12
BRANCH   5  29
HETATM   29  C   UNL     1       9.310  14.449 -12.373  1.00  0.00    -0.036 C 
HETATM   30  C   UNL     1      10.076  14.240 -13.518  1.00  0.00     0.013 C 
HETATM   31  C   UNL     1       9.454  14.085 -14.754  1.00  0.00     0.024 C 
HETATM   32  C   UNL     1       8.068  14.068 -14.816  1.00  0.00     0.034 C 
HETATM   33  C   UNL     1       7.299  14.137 -13.666  1.00  0.00     0.024 C 
HETATM   34 CL   UNL     1       7.267  13.628 -16.309  1.00  0.00    -0.084 Cl
HETATM   35  C   UNL     1       7.933  14.223 -12.427  1.00  0.00     0.013 C 
ENDBRANCH   5  29
TORSDOF 4
