MODEL 1
REMARK VINA RESULT:      -9.0      0.000      0.000
REMARK  6 active torsions:
REMARK  status: ('A' for Active; 'I' for Inactive)
REMARK    1  A    between atoms: C_2  and  C_29 
REMARK       I    between atoms: C_4  and  N_22 
REMARK    2  A    between atoms: C_4  and  C_26 
REMARK    3  A    between atoms: C_7  and  C_27 
REMARK    4  A    between atoms: O_15  and  C_23 
REMARK    5  A    between atoms: O_15  and  C_29 
REMARK    6  A    between atoms: C_17  and  C_23 
ROOT
HETATM    1  C   UNL     1      10.074  14.767  -9.522  1.00  0.00     0.026 C 
HETATM    2  C   UNL     1      12.148  14.439 -11.998  1.00  0.00     0.015 C 
HETATM    3  C   UNL     1      10.948  15.751 -10.301  1.00  0.00     0.045 C 
HETATM    4  C   UNL     1      12.280  15.076 -10.624  1.00  0.00     0.020 C 
HETATM    5  C   UNL     1      10.298  15.998 -11.666  1.00  0.00     0.033 C 
HETATM    6  C   UNL     1      10.979  15.110 -12.705  1.00  0.00     0.080 C 
ENDROOT
BRANCH   3   7
HETATM    7  C   UNL     1      11.139  16.945  -9.403  1.00  0.00     0.267 C 
HETATM    8  O   UNL     1      12.056  17.003  -8.584  1.00  0.00    -0.264 OA
BRANCH   7   9
HETATM    9  O   UNL     1      10.022  17.711  -9.187  1.00  0.00    -0.316 OA
BRANCH   9  10
HETATM   10  C   UNL     1       9.787  17.979  -7.797  1.00  0.00     0.219 C 
BRANCH  10  11
HETATM   11  C   UNL     1       8.388  18.523  -7.590  1.00  0.00    -0.012 C 
HETATM   12  C   UNL     1       7.969  18.937  -6.306  1.00  0.00     0.014 C 
HETATM   13  C   UNL     1       6.790  19.681  -6.205  1.00  0.00     0.045 C 
HETATM   14  C   UNL     1       5.978  19.802  -7.332  1.00  0.00     0.151 C 
HETATM   15  O   UNL     1       6.336  19.273  -8.540  1.00  0.00    -0.315 OA
HETATM   16  C   UNL     1       7.553  18.620  -8.664  1.00  0.00     0.152 C 
BRANCH  14  17
HETATM   17  C   UNL     1       4.785  20.738  -7.243  1.00  0.00     0.234 C 
HETATM   18  O   UNL     1       4.962  21.893  -7.777  1.00  0.00    -0.642 OA
HETATM   19  O   UNL     1       3.660  20.307  -6.947  1.00  0.00    -0.642 OA
ENDBRANCH  14  17
ENDBRANCH  10  11
ENDBRANCH   9  10
ENDBRANCH   7   9
ENDBRANCH   3   7
BRANCH   6  20
HETATM   20  C   UNL     1      10.151  14.064 -13.417  1.00  0.00     0.236 C 
HETATM   21  N   UNL     1       9.124  14.496 -14.277  1.00  0.00    -0.240 N 
HETATM   22  C   UNL     1       7.969  15.130 -13.821  1.00  0.00     0.092 C 
HETATM   23  C   UNL     1       9.287  14.405 -15.661  1.00  0.00     0.240 C 
HETATM   24  C   UNL     1       7.235  14.592 -12.622  1.00  0.00     0.090 C 
HETATM   25  N   UNL     1       7.484  16.167 -14.528  1.00  0.00    -0.316 N 
HETATM   26  C   UNL     1       7.735  16.203 -15.877  1.00  0.00     0.231 C 
ATOM     27  HN  UNL     1       6.946  16.905 -14.073  1.00  0.00     0.170 HD
HETATM   28  O   UNL     1       7.589  17.250 -16.521  1.00  0.00    -0.273 OA
HETATM   29  C   UNL     1       8.314  15.043 -16.485  1.00  0.00     0.206 C 
HETATM   30  O   UNL     1      10.329  13.941 -16.132  1.00  0.00    -0.272 OA
HETATM   31  O   UNL     1      10.362  12.861 -13.295  1.00  0.00    -0.272 OA
ENDBRANCH   6  20
TORSDOF 6
ENDMDL
MODEL 2
REMARK VINA RESULT:      -9.0      4.563      9.567
REMARK  6 active torsions:
REMARK  status: ('A' for Active; 'I' for Inactive)
REMARK    1  A    between atoms: C_2  and  C_29 
REMARK       I    between atoms: C_4  and  N_22 
REMARK    2  A    between atoms: C_4  and  C_26 
REMARK    3  A    between atoms: C_7  and  C_27 
REMARK    4  A    between atoms: O_15  and  C_23 
REMARK    5  A    between atoms: O_15  and  C_29 
REMARK    6  A    between atoms: C_17  and  C_23 
ROOT
HETATM    1  C   UNL     1      11.259  19.070  -9.574  1.00  0.00     0.026 C 
HETATM    2  C   UNL     1      14.217  17.785  -9.194  1.00  0.00     0.015 C 
HETATM    3  C   UNL     1      11.782  17.635  -9.496  1.00  0.00     0.045 C 
HETATM    4  C   UNL     1      13.122  17.560 -10.225  1.00  0.00     0.020 C 
HETATM    5  C   UNL     1      12.118  17.322  -8.034  1.00  0.00     0.033 C 
HETATM    6  C   UNL     1      13.618  17.511  -7.822  1.00  0.00     0.080 C 
ENDROOT
BRANCH   3   7
HETATM    7  C   UNL     1      10.742  16.773 -10.163  1.00  0.00     0.267 C 
HETATM    8  O   UNL     1       9.538  17.002 -10.050  1.00  0.00    -0.264 OA
BRANCH   7   9
HETATM    9  O   UNL     1      11.138  15.497 -10.473  1.00  0.00    -0.316 OA
BRANCH   9  10
HETATM   10  C   UNL     1      10.038  14.585 -10.602  1.00  0.00     0.219 C 
BRANCH  10  11
HETATM   11  C   UNL     1       9.772  14.277 -12.062  1.00  0.00    -0.012 C 
HETATM   12  C   UNL     1       8.456  14.335 -12.572  1.00  0.00     0.014 C 
HETATM   13  C   UNL     1       8.284  14.319 -13.959  1.00  0.00     0.045 C 
HETATM   14  C   UNL     1       9.386  14.038 -14.764  1.00  0.00     0.151 C 
HETATM   15  O   UNL     1      10.634  13.846 -14.241  1.00  0.00    -0.315 OA
HETATM   16  C   UNL     1      10.823  13.960 -12.871  1.00  0.00     0.152 C 
BRANCH  14  17
HETATM   17  C   UNL     1       9.214  14.175 -16.268  1.00  0.00     0.234 C 
HETATM   18  O   UNL     1      10.029  14.992 -16.833  1.00  0.00    -0.642 OA
HETATM   19  O   UNL     1       8.547  13.350 -16.909  1.00  0.00    -0.642 OA
ENDBRANCH  14  17
ENDBRANCH  10  11
ENDBRANCH   9  10
ENDBRANCH   7   9
ENDBRANCH   3   7
BRANCH   6  20
HETATM   20  C   UNL     1      14.085  18.567  -6.846  1.00  0.00     0.236 C 
HETATM   21  N   UNL     1      14.684  18.149  -5.643  1.00  0.00    -0.240 N 
HETATM   22  C   UNL     1      13.983  17.495  -4.632  1.00  0.00     0.092 C 
HETATM   23  C   UNL     1      16.065  18.277  -5.471  1.00  0.00     0.240 C 
HETATM   24  C   UNL     1      12.629  17.996  -4.205  1.00  0.00     0.090 C 
HETATM   25  N   UNL     1      14.580  16.472  -3.994  1.00  0.00    -0.316 N 
HETATM   26  C   UNL     1      15.951  16.472  -3.915  1.00  0.00     0.231 C 
ATOM     27  HN  UNL     1      14.030  15.719  -3.581  1.00  0.00     0.170 HD
HETATM   28  O   UNL     1      16.568  15.441  -3.621  1.00  0.00    -0.273 OA
HETATM   29  C   UNL     1      16.649  17.652  -4.330  1.00  0.00     0.206 C 
HETATM   30  O   UNL     1      16.758  18.761  -6.369  1.00  0.00    -0.272 OA
HETATM   31  O   UNL     1      13.984  19.769  -7.078  1.00  0.00    -0.272 OA
ENDBRANCH   6  20
TORSDOF 6
ENDMDL
MODEL 3
REMARK VINA RESULT:      -8.7      3.258      5.374
REMARK  6 active torsions:
REMARK  status: ('A' for Active; 'I' for Inactive)
REMARK    1  A    between atoms: C_2  and  C_29 
REMARK       I    between atoms: C_4  and  N_22 
REMARK    2  A    between atoms: C_4  and  C_26 
REMARK    3  A    between atoms: C_7  and  C_27 
REMARK    4  A    between atoms: O_15  and  C_23 
REMARK    5  A    between atoms: O_15  and  C_29 
REMARK    6  A    between atoms: C_17  and  C_23 
ROOT
HETATM    1  C   UNL     1       9.987  14.720  -9.560  1.00  0.00     0.026 C 
HETATM    2  C   UNL     1      12.121  14.378 -11.984  1.00  0.00     0.015 C 
HETATM    3  C   UNL     1      10.897  15.696 -10.309  1.00  0.00     0.045 C 
HETATM    4  C   UNL     1      12.226  15.002 -10.602  1.00  0.00     0.020 C 
HETATM    5  C   UNL     1      10.287  15.963 -11.688  1.00  0.00     0.033 C 
HETATM    6  C   UNL     1      10.981  15.072 -12.715  1.00  0.00     0.080 C 
ENDROOT
BRANCH   3   7
HETATM    7  C   UNL     1      11.082  16.880  -9.396  1.00  0.00     0.267 C 
HETATM    8  O   UNL     1      10.392  17.894  -9.498  1.00  0.00    -0.264 OA
BRANCH   7   9
HETATM    9  O   UNL     1      12.314  16.986  -8.803  1.00  0.00    -0.316 OA
BRANCH   9  10
HETATM   10  C   UNL     1      12.456  18.177  -8.016  1.00  0.00     0.219 C 
BRANCH  10  11
HETATM   11  C   UNL     1      13.249  17.890  -6.756  1.00  0.00    -0.012 C 
HETATM   12  C   UNL     1      12.581  17.555  -5.557  1.00  0.00     0.014 C 
HETATM   13  C   UNL     1      13.337  17.032  -4.505  1.00  0.00     0.045 C 
HETATM   14  C   UNL     1      14.727  17.058  -4.604  1.00  0.00     0.151 C 
HETATM   15  O   UNL     1      15.363  17.517  -5.724  1.00  0.00    -0.315 OA
HETATM   16  C   UNL     1      14.610  17.944  -6.808  1.00  0.00     0.152 C 
BRANCH  14  17
HETATM   17  C   UNL     1      15.525  16.349  -3.523  1.00  0.00     0.234 C 
HETATM   18  O   UNL     1      16.276  15.395  -3.943  1.00  0.00    -0.642 OA
HETATM   19  O   UNL     1      15.652  16.850  -2.395  1.00  0.00    -0.642 OA
ENDBRANCH  14  17
ENDBRANCH  10  11
ENDBRANCH   9  10
ENDBRANCH   7   9
ENDBRANCH   3   7
BRANCH   6  20
HETATM   20  C   UNL     1      10.156  14.045 -13.458  1.00  0.00     0.236 C 
HETATM   21  N   UNL     1       9.131  14.498 -14.309  1.00  0.00    -0.240 N 
HETATM   22  C   UNL     1       7.974  15.119 -13.841  1.00  0.00     0.092 C 
HETATM   23  C   UNL     1       9.299  14.443 -15.694  1.00  0.00     0.240 C 
HETATM   24  C   UNL     1       7.237  14.550 -12.658  1.00  0.00     0.090 C 
HETATM   25  N   UNL     1       7.491  16.174 -14.521  1.00  0.00    -0.316 N 
HETATM   26  C   UNL     1       7.746  16.245 -15.869  1.00  0.00     0.231 C 
ATOM     27  HN  UNL     1       6.951  16.899 -14.050  1.00  0.00     0.170 HD
HETATM   28  O   UNL     1       7.601  17.308 -16.485  1.00  0.00    -0.273 OA
HETATM   29  C   UNL     1       8.328  15.101 -16.505  1.00  0.00     0.206 C 
HETATM   30  O   UNL     1      10.342  13.992 -16.173  1.00  0.00    -0.272 OA
HETATM   31  O   UNL     1      10.368  12.839 -13.366  1.00  0.00    -0.272 OA
ENDBRANCH   6  20
TORSDOF 6
ENDMDL
MODEL 4
REMARK VINA RESULT:      -8.7      4.265      9.443
REMARK  6 active torsions:
REMARK  status: ('A' for Active; 'I' for Inactive)
REMARK    1  A    between atoms: C_2  and  C_29 
REMARK       I    between atoms: C_4  and  N_22 
REMARK    2  A    between atoms: C_4  and  C_26 
REMARK    3  A    between atoms: C_7  and  C_27 
REMARK    4  A    between atoms: O_15  and  C_23 
REMARK    5  A    between atoms: O_15  and  C_29 
REMARK    6  A    between atoms: C_17  and  C_23 
ROOT
HETATM    1  C   UNL     1      12.162  18.351 -10.414  1.00  0.00     0.026 C 
HETATM    2  C   UNL     1      14.283  18.051  -7.974  1.00  0.00     0.015 C 
HETATM    3  C   UNL     1      12.630  17.168  -9.565  1.00  0.00     0.045 C 
HETATM    4  C   UNL     1      14.127  17.318  -9.296  1.00  0.00     0.020 C 
HETATM    5  C   UNL     1      11.977  17.276  -8.184  1.00  0.00     0.033 C 
HETATM    6  C   UNL     1      12.970  17.916  -7.216  1.00  0.00     0.080 C 
ENDROOT
BRANCH   3   7
HETATM    7  C   UNL     1      12.336  15.930 -10.371  1.00  0.00     0.267 C 
HETATM    8  O   UNL     1      13.233  15.254 -10.874  1.00  0.00    -0.264 OA
BRANCH   7   9
HETATM    9  O   UNL     1      11.081  15.862 -10.919  1.00  0.00    -0.316 OA
BRANCH   9  10
HETATM   10  C   UNL     1      10.582  14.520 -11.012  1.00  0.00     0.219 C 
BRANCH  10  11
HETATM   11  C   UNL     1      10.131  14.218 -12.427  1.00  0.00    -0.012 C 
HETATM   12  C   UNL     1       8.791  14.446 -12.809  1.00  0.00     0.014 C 
HETATM   13  C   UNL     1       8.480  14.421 -14.172  1.00  0.00     0.045 C 
HETATM   14  C   UNL     1       9.448  13.971 -15.069  1.00  0.00     0.151 C 
HETATM   15  O   UNL     1      10.704  13.620 -14.661  1.00  0.00    -0.315 OA
HETATM   16  C   UNL     1      11.043  13.739 -13.321  1.00  0.00     0.152 C 
BRANCH  14  17
HETATM   17  C   UNL     1       9.146  14.095 -16.553  1.00  0.00     0.234 C 
HETATM   18  O   UNL     1       9.660  15.125 -17.125  1.00  0.00    -0.642 OA
HETATM   19  O   UNL     1       8.697  13.132 -17.193  1.00  0.00    -0.642 OA
ENDBRANCH  14  17
ENDBRANCH  10  11
ENDBRANCH   9  10
ENDBRANCH   7   9
ENDBRANCH   3   7
BRANCH   6  20
HETATM   20  C   UNL     1      12.613  19.241  -6.583  1.00  0.00     0.236 C 
HETATM   21  N   UNL     1      11.986  19.233  -5.322  1.00  0.00    -0.240 N 
HETATM   22  C   UNL     1      10.689  18.764  -5.122  1.00  0.00     0.092 C 
HETATM   23  C   UNL     1      12.707  19.597  -4.182  1.00  0.00     0.240 C 
HETATM   24  C   UNL     1       9.588  19.158  -6.071  1.00  0.00     0.090 C 
HETATM   25  N   UNL     1      10.432  18.033  -4.022  1.00  0.00    -0.316 N 
HETATM   26  C   UNL     1      11.205  18.249  -2.908  1.00  0.00     0.231 C 
ATOM     27  HN  UNL     1       9.685  17.339  -4.016  1.00  0.00     0.170 HD
HETATM   28  O   UNL     1      11.230  17.426  -1.985  1.00  0.00    -0.273 OA
HETATM   29  C   UNL     1      12.095  19.373  -2.914  1.00  0.00     0.206 C 
HETATM   30  O   UNL     1      13.890  19.930  -4.279  1.00  0.00    -0.272 OA
HETATM   31  O   UNL     1      12.874  20.317  -7.113  1.00  0.00    -0.272 OA
ENDBRANCH   6  20
TORSDOF 6
ENDMDL
MODEL 5
REMARK VINA RESULT:      -8.6      5.198      9.734
REMARK  6 active torsions:
REMARK  status: ('A' for Active; 'I' for Inactive)
REMARK    1  A    between atoms: C_2  and  C_29 
REMARK       I    between atoms: C_4  and  N_22 
REMARK    2  A    between atoms: C_4  and  C_26 
REMARK    3  A    between atoms: C_7  and  C_27 
REMARK    4  A    between atoms: O_15  and  C_23 
REMARK    5  A    between atoms: O_15  and  C_29 
REMARK    6  A    between atoms: C_17  and  C_23 
ROOT
HETATM    1  C   UNL     1      11.725  19.647  -7.716  1.00  0.00     0.026 C 
HETATM    2  C   UNL     1      14.567  18.133  -8.130  1.00  0.00     0.015 C 
HETATM    3  C   UNL     1      12.111  18.217  -8.096  1.00  0.00     0.045 C 
HETATM    4  C   UNL     1      13.334  18.265  -9.010  1.00  0.00     0.020 C 
HETATM    5  C   UNL     1      12.597  17.496  -6.835  1.00  0.00     0.033 C 
HETATM    6  C   UNL     1      14.123  17.530  -6.805  1.00  0.00     0.080 C 
ENDROOT
BRANCH   3   7
HETATM    7  C   UNL     1      10.916  17.634  -8.805  1.00  0.00     0.267 C 
HETATM    8  O   UNL     1       9.827  17.504  -8.245  1.00  0.00    -0.264 OA
BRANCH   7   9
HETATM    9  O   UNL     1      11.196  16.832  -9.881  1.00  0.00    -0.316 OA
BRANCH   9  10
HETATM   10  C   UNL     1      10.620  15.523  -9.769  1.00  0.00     0.219 C 
BRANCH  10  11
HETATM   11  C   UNL     1      10.326  14.953 -11.143  1.00  0.00    -0.012 C 
HETATM   12  C   UNL     1       9.006  14.597 -11.497  1.00  0.00     0.014 C 
HETATM   13  C   UNL     1       8.730  14.341 -12.843  1.00  0.00     0.045 C 
HETATM   14  C   UNL     1       9.796  14.242 -13.735  1.00  0.00     0.151 C 
HETATM   15  O   UNL     1      11.089  14.455 -13.344  1.00  0.00    -0.315 OA
HETATM   16  C   UNL     1      11.353  14.807 -12.029  1.00  0.00     0.152 C 
BRANCH  14  17
HETATM   17  C   UNL     1       9.469  14.116 -15.214  1.00  0.00     0.234 C 
HETATM   18  O   UNL     1       8.216  14.014 -15.483  1.00  0.00    -0.642 OA
HETATM   19  O   UNL     1      10.316  14.387 -16.078  1.00  0.00    -0.642 OA
ENDBRANCH  14  17
ENDBRANCH  10  11
ENDBRANCH   9  10
ENDBRANCH   7   9
ENDBRANCH   3   7
BRANCH   6  20
HETATM   20  C   UNL     1      14.810  18.249  -5.667  1.00  0.00     0.236 C 
HETATM   21  N   UNL     1      16.217  18.244  -5.624  1.00  0.00    -0.240 N 
HETATM   22  C   UNL     1      16.966  17.095  -5.377  1.00  0.00     0.092 C 
HETATM   23  C   UNL     1      16.929  19.401  -5.952  1.00  0.00     0.240 C 
HETATM   24  C   UNL     1      16.567  16.157  -4.269  1.00  0.00     0.090 C 
HETATM   25  N   UNL     1      18.090  16.896  -6.088  1.00  0.00    -0.316 N 
HETATM   26  C   UNL     1      18.761  17.998  -6.559  1.00  0.00     0.231 C 
ATOM     27  HN  UNL     1      18.435  15.953  -6.272  1.00  0.00     0.170 HD
HETATM   28  O   UNL     1      19.608  17.890  -7.454  1.00  0.00    -0.273 OA
HETATM   29  C   UNL     1      18.342  19.288  -6.097  1.00  0.00     0.206 C 
HETATM   30  O   UNL     1      16.326  20.428  -6.273  1.00  0.00    -0.272 OA
HETATM   31  O   UNL     1      14.187  18.856  -4.799  1.00  0.00    -0.272 OA
ENDBRANCH   6  20
TORSDOF 6
ENDMDL
MODEL 6
REMARK VINA RESULT:      -8.4      5.386      9.781
REMARK  6 active torsions:
REMARK  status: ('A' for Active; 'I' for Inactive)
REMARK    1  A    between atoms: C_2  and  C_29 
REMARK       I    between atoms: C_4  and  N_22 
REMARK    2  A    between atoms: C_4  and  C_26 
REMARK    3  A    between atoms: C_7  and  C_27 
REMARK    4  A    between atoms: O_15  and  C_23 
REMARK    5  A    between atoms: O_15  and  C_29 
REMARK    6  A    between atoms: C_17  and  C_23 
ROOT
HETATM    1  C   UNL     1      10.876  19.405  -4.500  1.00  0.00     0.026 C 
HETATM    2  C   UNL     1      12.861  20.982  -6.529  1.00  0.00     0.015 C 
HETATM    3  C   UNL     1      11.145  19.303  -6.003  1.00  0.00     0.045 C 
HETATM    4  C   UNL     1      11.366  20.708  -6.559  1.00  0.00     0.020 C 
HETATM    5  C   UNL     1      12.486  18.591  -6.206  1.00  0.00     0.033 C 
HETATM    6  C   UNL     1      13.572  19.639  -6.435  1.00  0.00     0.080 C 
ENDROOT
BRANCH   3   7
HETATM    7  C   UNL     1       9.924  18.657  -6.604  1.00  0.00     0.267 C 
HETATM    8  O   UNL     1       8.804  18.803  -6.116  1.00  0.00    -0.264 OA
BRANCH   7   9
HETATM    9  O   UNL     1      10.159  17.552  -7.382  1.00  0.00    -0.316 OA
BRANCH   9  10
HETATM   10  C   UNL     1       9.496  17.611  -8.653  1.00  0.00     0.219 C 
BRANCH  10  11
HETATM   11  C   UNL     1      10.400  17.079  -9.748  1.00  0.00    -0.012 C 
HETATM   12  C   UNL     1      11.665  17.666  -9.973  1.00  0.00     0.014 C 
HETATM   13  C   UNL     1      12.572  16.985 -10.789  1.00  0.00     0.045 C 
HETATM   14  C   UNL     1      12.124  15.877 -11.506  1.00  0.00     0.151 C 
HETATM   15  O   UNL     1      10.848  15.403 -11.381  1.00  0.00    -0.315 OA
HETATM   16  C   UNL     1       9.976  16.020 -10.495  1.00  0.00     0.152 C 
BRANCH  14  17
HETATM   17  C   UNL     1      13.157  15.062 -12.265  1.00  0.00     0.234 C 
HETATM   18  O   UNL     1      12.697  14.404 -13.268  1.00  0.00    -0.642 OA
HETATM   19  O   UNL     1      14.370  15.262 -12.099  1.00  0.00    -0.642 OA
ENDBRANCH  14  17
ENDBRANCH  10  11
ENDBRANCH   9  10
ENDBRANCH   7   9
ENDBRANCH   3   7
BRANCH   6  20
HETATM   20  C   UNL     1      14.707  19.736  -5.442  1.00  0.00     0.236 C 
HETATM   21  N   UNL     1      16.025  19.792  -5.935  1.00  0.00    -0.240 N 
HETATM   22  C   UNL     1      16.644  18.717  -6.570  1.00  0.00     0.092 C 
HETATM   23  C   UNL     1      16.730  20.997  -5.906  1.00  0.00     0.240 C 
HETATM   24  C   UNL     1      16.533  17.331  -5.992  1.00  0.00     0.090 C 
HETATM   25  N   UNL     1      17.409  18.962  -7.649  1.00  0.00    -0.316 N 
HETATM   26  C   UNL     1      18.018  20.189  -7.745  1.00  0.00     0.231 C 
ATOM     27  HN  UNL     1      17.532  18.257  -8.376  1.00  0.00     0.170 HD
HETATM   28  O   UNL     1      18.474  20.588  -8.823  1.00  0.00    -0.273 OA
HETATM   29  C   UNL     1      17.973  21.053  -6.602  1.00  0.00     0.206 C 
HETATM   30  O   UNL     1      16.202  22.012  -5.443  1.00  0.00    -0.272 OA
HETATM   31  O   UNL     1      14.520  19.796  -4.230  1.00  0.00    -0.272 OA
ENDBRANCH   6  20
TORSDOF 6
ENDMDL
MODEL 7
REMARK VINA RESULT:      -8.4      4.390      9.104
REMARK  6 active torsions:
REMARK  status: ('A' for Active; 'I' for Inactive)
REMARK    1  A    between atoms: C_2  and  C_29 
REMARK       I    between atoms: C_4  and  N_22 
REMARK    2  A    between atoms: C_4  and  C_26 
REMARK    3  A    between atoms: C_7  and  C_27 
REMARK    4  A    between atoms: O_15  and  C_23 
REMARK    5  A    between atoms: O_15  and  C_29 
REMARK    6  A    between atoms: C_17  and  C_23 
ROOT
HETATM    1  C   UNL     1      10.713  18.176  -9.901  1.00  0.00     0.026 C 
HETATM    2  C   UNL     1      13.881  17.610 -10.335  1.00  0.00     0.015 C 
HETATM    3  C   UNL     1      11.534  16.907 -10.134  1.00  0.00     0.045 C 
HETATM    4  C   UNL     1      12.647  17.218 -11.133  1.00  0.00     0.020 C 
HETATM    5  C   UNL     1      12.266  16.559  -8.834  1.00  0.00     0.033 C 
HETATM    6  C   UNL     1      13.698  17.083  -8.919  1.00  0.00     0.080 C 
ENDROOT
BRANCH   3   7
HETATM    7  C   UNL     1      10.575  15.881 -10.680  1.00  0.00     0.267 C 
HETATM    8  O   UNL     1       9.880  15.184  -9.941  1.00  0.00    -0.264 OA
BRANCH   7   9
HETATM    9  O   UNL     1      10.850  15.422 -11.942  1.00  0.00    -0.316 OA
BRANCH   9  10
HETATM   10  C   UNL     1      10.148  14.213 -12.264  1.00  0.00     0.219 C 
BRANCH  10  11
HETATM   11  C   UNL     1       9.589  14.281 -13.671  1.00  0.00    -0.012 C 
HETATM   12  C   UNL     1       8.548  15.185 -13.979  1.00  0.00     0.014 C 
HETATM   13  C   UNL     1       8.253  15.417 -15.325  1.00  0.00     0.045 C 
HETATM   14  C   UNL     1       8.845  14.601 -16.289  1.00  0.00     0.151 C 
HETATM   15  O   UNL     1       9.751  13.634 -15.958  1.00  0.00    -0.315 OA
HETATM   16  C   UNL     1      10.119  13.470 -14.631  1.00  0.00     0.152 C 
BRANCH  14  17
HETATM   17  C   UNL     1       8.631  14.966 -17.748  1.00  0.00     0.234 C 
HETATM   18  O   UNL     1       9.672  15.419 -18.350  1.00  0.00    -0.642 OA
HETATM   19  O   UNL     1       7.625  14.576 -18.359  1.00  0.00    -0.642 OA
ENDBRANCH  14  17
ENDBRANCH  10  11
ENDBRANCH   9  10
ENDBRANCH   7   9
ENDBRANCH   3   7
BRANCH   6  20
HETATM   20  C   UNL     1      14.145  18.133  -7.928  1.00  0.00     0.236 C 
HETATM   21  N   UNL     1      13.690  18.036  -6.599  1.00  0.00    -0.240 N 
HETATM   22  C   UNL     1      12.359  18.230  -6.236  1.00  0.00     0.092 C 
HETATM   23  C   UNL     1      14.563  17.615  -5.592  1.00  0.00     0.240 C 
HETATM   24  C   UNL     1      11.584  19.391  -6.799  1.00  0.00     0.090 C 
HETATM   25  N   UNL     1      11.820  17.415  -5.311  1.00  0.00    -0.316 N 
HETATM   26  C   UNL     1      12.655  16.857  -4.375  1.00  0.00     0.231 C 
ATOM     27  HN  UNL     1      10.819  17.217  -5.306  1.00  0.00     0.170 HD
HETATM   28  O   UNL     1      12.293  15.885  -3.701  1.00  0.00    -0.273 OA
HETATM   29  C   UNL     1      14.006  17.332  -4.310  1.00  0.00     0.206 C 
HETATM   30  O   UNL     1      15.732  17.334  -5.865  1.00  0.00    -0.272 OA
HETATM   31  O   UNL     1      14.909  19.045  -8.233  1.00  0.00    -0.272 OA
ENDBRANCH   6  20
TORSDOF 6
ENDMDL
MODEL 8
REMARK VINA RESULT:      -8.2      5.192      9.638
REMARK  6 active torsions:
REMARK  status: ('A' for Active; 'I' for Inactive)
REMARK    1  A    between atoms: C_2  and  C_29 
REMARK       I    between atoms: C_4  and  N_22 
REMARK    2  A    between atoms: C_4  and  C_26 
REMARK    3  A    between atoms: C_7  and  C_27 
REMARK    4  A    between atoms: O_15  and  C_23 
REMARK    5  A    between atoms: O_15  and  C_29 
REMARK    6  A    between atoms: C_17  and  C_23 
ROOT
HETATM    1  C   UNL     1      11.317  17.817  -5.947  1.00  0.00     0.026 C 
HETATM    2  C   UNL     1      12.283  20.902  -6.255  1.00  0.00     0.015 C 
HETATM    3  C   UNL     1      11.493  18.751  -7.146  1.00  0.00     0.045 C 
HETATM    4  C   UNL     1      11.051  20.157  -6.741  1.00  0.00     0.020 C 
HETATM    5  C   UNL     1      12.990  18.886  -7.438  1.00  0.00     0.033 C 
HETATM    6  C   UNL     1      13.504  20.174  -6.800  1.00  0.00     0.080 C 
ENDROOT
BRANCH   3   7
HETATM    7  C   UNL     1      10.623  18.194  -8.243  1.00  0.00     0.267 C 
HETATM    8  O   UNL     1       9.555  17.633  -8.004  1.00  0.00    -0.264 OA
BRANCH   7   9
HETATM    9  O   UNL     1      11.265  17.903  -9.419  1.00  0.00    -0.316 OA
BRANCH   9  10
HETATM   10  C   UNL     1      11.843  16.589  -9.431  1.00  0.00     0.219 C 
BRANCH  10  11
HETATM   11  C   UNL     1      11.287  15.775 -10.581  1.00  0.00    -0.012 C 
HETATM   12  C   UNL     1      10.033  15.135 -10.458  1.00  0.00     0.014 C 
HETATM   13  C   UNL     1       9.432  14.632 -11.615  1.00  0.00     0.045 C 
HETATM   14  C   UNL     1      10.177  14.596 -12.793  1.00  0.00     0.151 C 
HETATM   15  O   UNL     1      11.447  15.097 -12.860  1.00  0.00    -0.315 OA
HETATM   16  C   UNL     1      12.007  15.686 -11.736  1.00  0.00     0.152 C 
BRANCH  14  17
HETATM   17  C   UNL     1       9.460  14.191 -14.069  1.00  0.00     0.234 C 
HETATM   18  O   UNL     1       8.178  14.271 -14.018  1.00  0.00    -0.642 OA
HETATM   19  O   UNL     1      10.078  14.083 -15.139  1.00  0.00    -0.642 OA
ENDBRANCH  14  17
ENDBRANCH  10  11
ENDBRANCH   9  10
ENDBRANCH   7   9
ENDBRANCH   3   7
BRANCH   6  20
HETATM   20  C   UNL     1      14.559  20.078  -5.723  1.00  0.00     0.236 C 
HETATM   21  N   UNL     1      15.910  20.005  -6.112  1.00  0.00    -0.240 N 
HETATM   22  C   UNL     1      16.451  18.902  -6.771  1.00  0.00     0.092 C 
HETATM   23  C   UNL     1      16.744  21.114  -5.952  1.00  0.00     0.240 C 
HETATM   24  C   UNL     1      16.137  17.509  -6.295  1.00  0.00     0.090 C 
HETATM   25  N   UNL     1      17.324  19.116  -7.772  1.00  0.00    -0.316 N 
HETATM   26  C   UNL     1      18.075  20.265  -7.741  1.00  0.00     0.231 C 
ATOM     27  HN  UNL     1      17.424  18.444  -8.533  1.00  0.00     0.170 HD
HETATM   28  O   UNL     1      18.659  20.668  -8.754  1.00  0.00    -0.273 OA
HETATM   29  C   UNL     1      18.037  21.061  -6.550  1.00  0.00     0.206 C 
HETATM   30  O   UNL     1      16.300  22.156  -5.463  1.00  0.00    -0.272 OA
HETATM   31  O   UNL     1      14.282  20.090  -4.526  1.00  0.00    -0.272 OA
ENDBRANCH   6  20
TORSDOF 6
ENDMDL
MODEL 9
REMARK VINA RESULT:      -8.1      3.477      5.253
REMARK  6 active torsions:
REMARK  status: ('A' for Active; 'I' for Inactive)
REMARK    1  A    between atoms: C_2  and  C_29 
REMARK       I    between atoms: C_4  and  N_22 
REMARK    2  A    between atoms: C_4  and  C_26 
REMARK    3  A    between atoms: C_7  and  C_27 
REMARK    4  A    between atoms: O_15  and  C_23 
REMARK    5  A    between atoms: O_15  and  C_29 
REMARK    6  A    between atoms: C_17  and  C_23 
ROOT
HETATM    1  C   UNL     1      13.200  17.226  -7.228  1.00  0.00     0.026 C 
HETATM    2  C   UNL     1      13.829  17.465 -10.405  1.00  0.00     0.015 C 
HETATM    3  C   UNL     1      12.760  18.205  -8.318  1.00  0.00     0.045 C 
HETATM    4  C   UNL     1      13.939  18.456  -9.257  1.00  0.00     0.020 C 
HETATM    5  C   UNL     1      11.709  17.513  -9.192  1.00  0.00     0.033 C 
HETATM    6  C   UNL     1      12.391  16.966 -10.444  1.00  0.00     0.080 C 
ENDROOT
BRANCH   3   7
HETATM    7  C   UNL     1      12.343  19.466  -7.607  1.00  0.00     0.267 C 
HETATM    8  O   UNL     1      13.134  20.123  -6.932  1.00  0.00    -0.264 OA
BRANCH   7   9
HETATM    9  O   UNL     1      11.003  19.582  -7.340  1.00  0.00    -0.316 OA
BRANCH   9  10
HETATM   10  C   UNL     1      10.737  20.098  -6.028  1.00  0.00     0.219 C 
BRANCH  10  11
HETATM   11  C   UNL     1      10.861  19.000  -4.990  1.00  0.00    -0.012 C 
HETATM   12  C   UNL     1      10.151  17.790  -5.147  1.00  0.00     0.014 C 
HETATM   13  C   UNL     1      10.499  16.709  -4.332  1.00  0.00     0.045 C 
HETATM   14  C   UNL     1      11.375  16.930  -3.270  1.00  0.00     0.151 C 
HETATM   15  O   UNL     1      11.949  18.150  -3.048  1.00  0.00    -0.315 OA
HETATM   16  C   UNL     1      11.680  19.197  -3.917  1.00  0.00     0.152 C 
BRANCH  14  17
HETATM   17  C   UNL     1      11.858  15.718  -2.492  1.00  0.00     0.234 C 
HETATM   18  O   UNL     1      12.849  15.094  -3.022  1.00  0.00    -0.642 OA
HETATM   19  O   UNL     1      11.513  15.539  -1.314  1.00  0.00    -0.642 OA
ENDBRANCH  14  17
ENDBRANCH  10  11
ENDBRANCH   9  10
ENDBRANCH   7   9
ENDBRANCH   3   7
BRANCH   6  20
HETATM   20  C   UNL     1      12.380  15.474 -10.682  1.00  0.00     0.236 C 
HETATM   21  N   UNL     1      11.306  14.919 -11.403  1.00  0.00    -0.240 N 
HETATM   22  C   UNL     1      10.003  14.871 -10.909  1.00  0.00     0.092 C 
HETATM   23  C   UNL     1      11.496  14.493 -12.720  1.00  0.00     0.240 C 
HETATM   24  C   UNL     1       9.749  14.437  -9.490  1.00  0.00     0.090 C 
HETATM   25  N   UNL     1       8.987  15.133 -11.750  1.00  0.00    -0.316 N 
HETATM   26  C   UNL     1       9.167  14.865 -13.085  1.00  0.00     0.231 C 
ATOM     27  HN  UNL     1       8.108  15.521 -11.407  1.00  0.00     0.170 HD
HETATM   28  O   UNL     1       8.413  15.351 -13.937  1.00  0.00    -0.273 OA
HETATM   29  C   UNL     1      10.339  14.136 -13.472  1.00  0.00     0.206 C 
HETATM   30  O   UNL     1      12.605  14.597 -13.250  1.00  0.00    -0.272 OA
HETATM   31  O   UNL     1      13.283  14.738 -10.294  1.00  0.00    -0.272 OA
ENDBRANCH   6  20
TORSDOF 6
ENDMDL
