MODEL 1
REMARK VINA RESULT:      -9.4      0.000      0.000
REMARK  7 active torsions:
REMARK  status: ('A' for Active; 'I' for Inactive)
REMARK    1  A    between atoms: C_1  and  C_9 
REMARK       I    between atoms: C_5  and  N_6 
REMARK    2  A    between atoms: C_5  and  C_13 
REMARK    3  A    between atoms: C_8  and  C_10 
REMARK    4  A    between atoms: C_8  and  C_12 
REMARK    5  A    between atoms: O_14  and  C_21 
REMARK    6  A    between atoms: C_18  and  C_19 
REMARK    7  A    between atoms: C_19  and  C_24 
ROOT
HETATM    1  O   UNL     1      -1.541  21.181  14.958  1.00  0.00    -0.292 OA
HETATM    2  C   UNL     1      -2.627  20.898  15.431  1.00  0.00     0.163 C 
ENDROOT
BRANCH   2   3
HETATM    3  C   UNL     1      -2.764  20.108  16.690  1.00  0.00     0.170 C 
HETATM    4  C   UNL     1      -3.741  18.988  16.430  1.00  0.00     0.157 C 
HETATM    5  N   UNL     1      -4.673  19.584  17.387  1.00  0.00    -0.282 N 
HETATM    6  C   UNL     1      -5.542  19.084  18.336  1.00  0.00     0.260 C 
HETATM    7  C   UNL     1      -3.887  20.659  17.502  1.00  0.00     0.240 C 
HETATM    8  O   UNL     1      -5.204  18.087  18.932  1.00  0.00    -0.267 OA
HETATM    9  O   UNL     1      -4.058  21.685  18.124  1.00  0.00    -0.272 OA
BRANCH   6  10
HETATM   10  C   UNL     1      -6.810  19.762  18.732  1.00  0.00     0.032 C 
HETATM   11  C   UNL     1      -7.338  19.621  20.007  1.00  0.00     0.017 C 
HETATM   12  C   UNL     1      -8.577  20.156  20.304  1.00  0.00     0.001 C 
HETATM   13  C   UNL     1      -9.338  20.738  19.296  1.00  0.00     0.000 C 
HETATM   14  C   UNL     1      -8.774  20.989  18.063  1.00  0.00     0.001 C 
HETATM   15  C   UNL     1      -7.464  20.580  17.814  1.00  0.00     0.017 C 
ENDBRANCH   6  10
ENDBRANCH   2   3
BRANCH   2  16
HETATM   16  C   UNL     1      -3.926  21.402  14.883  1.00  0.00     0.047 C 
HETATM   17  C   UNL     1      -4.581  21.035  13.875  1.00  0.00    -0.018 C 
BRANCH  17  18
HETATM   18  C   UNL     1      -5.800  20.494  13.245  1.00  0.00     0.066 C 
BRANCH  18  19
HETATM   19  C   UNL     1      -6.423  21.477  12.283  1.00  0.00    -0.051 C 
HETATM   20  C   UNL     1      -7.646  21.181  11.683  1.00  0.00     0.020 C 
HETATM   21  C   UNL     1      -8.105  21.926  10.591  1.00  0.00    -0.018 C 
HETATM   22  C   UNL     1      -7.410  23.075  10.232  1.00  0.00     0.049 C 
HETATM   23  C   UNL     1      -6.448  23.571  11.096  1.00  0.00     0.067 C 
HETATM   24  C   UNL     1      -5.827  22.707  12.008  1.00  0.00     0.044 C 
BRANCH  21  25
HETATM   25  C   UNL     1      -9.410  21.660  10.053  1.00  0.00     0.092 C 
HETATM   26  N   UNL     1     -10.128  21.541   9.140  1.00  0.00    -0.407 N 
ATOM     27  HN2 UNL     1      -9.510  21.712   8.347  1.00  0.00     0.155 HD
ATOM     28  HN1 UNL     1     -11.055  21.352   8.759  1.00  0.00     0.155 HD
ENDBRANCH  21  25
BRANCH  23  29
HETATM   29  O   UNL     1      -6.284  24.915  11.251  1.00  0.00    -0.361 OA
ATOM     30  HO  UNL     1      -6.062  25.279  12.100  1.00  0.00     0.217 HD
ENDBRANCH  23  29
ENDBRANCH  18  19
ENDBRANCH  17  18
ENDBRANCH   2  16
TORSDOF 7
ENDMDL
MODEL 2
REMARK VINA RESULT:      -9.1      3.603      7.966
REMARK  7 active torsions:
REMARK  status: ('A' for Active; 'I' for Inactive)
REMARK    1  A    between atoms: C_1  and  C_9 
REMARK       I    between atoms: C_5  and  N_6 
REMARK    2  A    between atoms: C_5  and  C_13 
REMARK    3  A    between atoms: C_8  and  C_10 
REMARK    4  A    between atoms: C_8  and  C_12 
REMARK    5  A    between atoms: O_14  and  C_21 
REMARK    6  A    between atoms: C_18  and  C_19 
REMARK    7  A    between atoms: C_19  and  C_24 
ROOT
HETATM    1  O   UNL     1      -5.658  18.849  16.742  1.00  0.00    -0.292 OA
HETATM    2  C   UNL     1      -4.626  18.747  16.101  1.00  0.00     0.163 C 
ENDROOT
BRANCH   2   3
HETATM    3  C   UNL     1      -4.004  19.913  15.408  1.00  0.00     0.170 C 
HETATM    4  C   UNL     1      -4.873  21.121  15.660  1.00  0.00     0.157 C 
HETATM    5  N   UNL     1      -5.195  21.182  14.234  1.00  0.00    -0.282 N 
HETATM    6  C   UNL     1      -5.378  22.204  13.324  1.00  0.00     0.260 C 
HETATM    7  C   UNL     1      -4.560  20.025  14.028  1.00  0.00     0.240 C 
HETATM    8  O   UNL     1      -4.694  23.193  13.450  1.00  0.00    -0.267 OA
HETATM    9  O   UNL     1      -4.456  19.364  13.018  1.00  0.00    -0.272 OA
BRANCH   6  10
HETATM   10  C   UNL     1      -6.289  22.106  12.147  1.00  0.00     0.032 C 
HETATM   11  C   UNL     1      -6.237  23.031  11.114  1.00  0.00     0.017 C 
HETATM   12  C   UNL     1      -7.178  22.988  10.102  1.00  0.00     0.001 C 
HETATM   13  C   UNL     1      -8.235  22.088  10.178  1.00  0.00     0.000 C 
HETATM   14  C   UNL     1      -8.225  21.092  11.133  1.00  0.00     0.001 C 
HETATM   15  C   UNL     1      -7.190  21.047  12.064  1.00  0.00     0.017 C 
ENDBRANCH   6  10
ENDBRANCH   2   3
BRANCH   2  16
HETATM   16  C   UNL     1      -3.813  17.492  16.034  1.00  0.00     0.047 C 
HETATM   17  C   UNL     1      -3.454  16.806  15.044  1.00  0.00    -0.018 C 
BRANCH  17  18
HETATM   18  C   UNL     1      -2.413  16.208  14.188  1.00  0.00     0.066 C 
BRANCH  18  19
HETATM   19  C   UNL     1      -1.090  16.923  14.325  1.00  0.00    -0.051 C 
HETATM   20  C   UNL     1       0.101  16.222  14.136  1.00  0.00     0.020 C 
HETATM   21  C   UNL     1       1.325  16.775  14.527  1.00  0.00    -0.018 C 
HETATM   22  C   UNL     1       1.353  18.103  14.937  1.00  0.00     0.049 C 
HETATM   23  C   UNL     1       0.236  18.892  14.721  1.00  0.00     0.067 C 
HETATM   24  C   UNL     1      -1.022  18.289  14.593  1.00  0.00     0.044 C 
BRANCH  21  25
HETATM   25  C   UNL     1       2.543  16.072  14.234  1.00  0.00     0.092 C 
HETATM   26  N   UNL     1       3.338  15.691  13.468  1.00  0.00    -0.407 N 
ATOM     27  HN2 UNL     1       2.971  16.033  12.579  1.00  0.00     0.155 HD
ATOM     28  HN1 UNL     1       4.203  15.193  13.260  1.00  0.00     0.155 HD
ENDBRANCH  21  25
BRANCH  23  29
HETATM   29  O   UNL     1       0.371  20.203  14.375  1.00  0.00    -0.361 OA
ATOM     30  HO  UNL     1       0.772  20.822  14.975  1.00  0.00     0.217 HD
ENDBRANCH  23  29
ENDBRANCH  18  19
ENDBRANCH  17  18
ENDBRANCH   2  16
TORSDOF 7
ENDMDL
MODEL 3
REMARK VINA RESULT:      -9.0      4.961      8.882
REMARK  7 active torsions:
REMARK  status: ('A' for Active; 'I' for Inactive)
REMARK    1  A    between atoms: C_1  and  C_9 
REMARK       I    between atoms: C_5  and  N_6 
REMARK    2  A    between atoms: C_5  and  C_13 
REMARK    3  A    between atoms: C_8  and  C_10 
REMARK    4  A    between atoms: C_8  and  C_12 
REMARK    5  A    between atoms: O_14  and  C_21 
REMARK    6  A    between atoms: C_18  and  C_19 
REMARK    7  A    between atoms: C_19  and  C_24 
ROOT
HETATM    1  O   UNL     1      -1.667  17.284  14.440  1.00  0.00    -0.292 OA
HETATM    2  C   UNL     1      -1.492  18.374  14.957  1.00  0.00     0.163 C 
ENDROOT
BRANCH   2   3
HETATM    3  C   UNL     1      -2.593  19.114  15.640  1.00  0.00     0.170 C 
HETATM    4  C   UNL     1      -3.899  18.467  15.252  1.00  0.00     0.157 C 
HETATM    5  N   UNL     1      -4.293  19.689  14.552  1.00  0.00    -0.282 N 
HETATM    6  C   UNL     1      -5.478  20.378  14.394  1.00  0.00     0.260 C 
HETATM    7  C   UNL     1      -3.079  20.210  14.753  1.00  0.00     0.240 C 
HETATM    8  O   UNL     1      -6.246  20.389  15.329  1.00  0.00    -0.267 OA
HETATM    9  O   UNL     1      -2.609  21.259  14.367  1.00  0.00    -0.272 OA
BRANCH   6  10
HETATM   10  C   UNL     1      -5.809  21.186  13.185  1.00  0.00     0.032 C 
HETATM   11  C   UNL     1      -5.159  22.382  12.915  1.00  0.00     0.017 C 
HETATM   12  C   UNL     1      -5.576  23.169  11.858  1.00  0.00     0.001 C 
HETATM   13  C   UNL     1      -6.710  22.814  11.136  1.00  0.00     0.000 C 
HETATM   14  C   UNL     1      -7.285  21.573  11.319  1.00  0.00     0.001 C 
HETATM   15  C   UNL     1      -6.765  20.716  12.288  1.00  0.00     0.017 C 
ENDBRANCH   6  10
ENDBRANCH   2   3
BRANCH   2  16
HETATM   16  C   UNL     1      -0.152  19.032  15.068  1.00  0.00     0.047 C 
HETATM   17  C   UNL     1       0.962  18.557  15.404  1.00  0.00    -0.018 C 
BRANCH  17  18
HETATM   18  C   UNL     1       2.376  18.241  15.125  1.00  0.00     0.066 C 
BRANCH  18  19
HETATM   19  C   UNL     1       2.580  16.773  14.835  1.00  0.00    -0.051 C 
HETATM   20  C   UNL     1       1.481  15.915  14.797  1.00  0.00     0.020 C 
HETATM   21  C   UNL     1       1.659  14.527  14.813  1.00  0.00    -0.018 C 
HETATM   22  C   UNL     1       2.947  14.021  14.682  1.00  0.00     0.049 C 
HETATM   23  C   UNL     1       3.967  14.879  14.307  1.00  0.00     0.067 C 
HETATM   24  C   UNL     1       3.841  16.252  14.555  1.00  0.00     0.044 C 
BRANCH  21  25
HETATM   25  C   UNL     1       0.517  13.667  14.677  1.00  0.00     0.092 C 
HETATM   26  N   UNL     1      -0.623  13.459  14.826  1.00  0.00    -0.407 N 
ATOM     27  HN2 UNL     1      -0.949  14.317  15.271  1.00  0.00     0.155 HD
ATOM     28  HN1 UNL     1      -1.434  12.848  14.730  1.00  0.00     0.155 HD
ENDBRANCH  21  25
BRANCH  23  29
HETATM   29  O   UNL     1       4.960  14.453  13.476  1.00  0.00    -0.361 OA
ATOM     30  HO  UNL     1       5.864  14.448  13.767  1.00  0.00     0.217 HD
ENDBRANCH  23  29
ENDBRANCH  18  19
ENDBRANCH  17  18
ENDBRANCH   2  16
TORSDOF 7
ENDMDL
MODEL 4
REMARK VINA RESULT:      -8.7      4.048      5.672
REMARK  7 active torsions:
REMARK  status: ('A' for Active; 'I' for Inactive)
REMARK    1  A    between atoms: C_1  and  C_9 
REMARK       I    between atoms: C_5  and  N_6 
REMARK    2  A    between atoms: C_5  and  C_13 
REMARK    3  A    between atoms: C_8  and  C_10 
REMARK    4  A    between atoms: C_8  and  C_12 
REMARK    5  A    between atoms: O_14  and  C_21 
REMARK    6  A    between atoms: C_18  and  C_19 
REMARK    7  A    between atoms: C_19  and  C_24 
ROOT
HETATM    1  O   UNL     1      -5.289  18.975  15.962  1.00  0.00    -0.292 OA
HETATM    2  C   UNL     1      -4.285  18.994  15.271  1.00  0.00     0.163 C 
ENDROOT
BRANCH   2   3
HETATM    3  C   UNL     1      -3.196  17.986  15.427  1.00  0.00     0.170 C 
HETATM    4  C   UNL     1      -2.690  17.633  14.049  1.00  0.00     0.157 C 
HETATM    5  N   UNL     1      -3.188  16.268  14.221  1.00  0.00    -0.282 N 
HETATM    6  C   UNL     1      -2.728  15.015  13.866  1.00  0.00     0.260 C 
HETATM    7  C   UNL     1      -3.777  16.613  15.369  1.00  0.00     0.240 C 
HETATM    8  O   UNL     1      -1.533  14.832  13.893  1.00  0.00    -0.267 OA
HETATM    9  O   UNL     1      -4.488  15.963  16.105  1.00  0.00    -0.272 OA
BRANCH   6  10
HETATM   10  C   UNL     1      -3.624  13.864  13.558  1.00  0.00     0.032 C 
HETATM   11  C   UNL     1      -4.817  14.041  12.872  1.00  0.00     0.017 C 
HETATM   12  C   UNL     1      -5.685  12.977  12.713  1.00  0.00     0.001 C 
HETATM   13  C   UNL     1      -5.412  11.762  13.333  1.00  0.00     0.000 C 
HETATM   14  C   UNL     1      -4.177  11.545  13.909  1.00  0.00     0.001 C 
HETATM   15  C   UNL     1      -3.243  12.579  13.935  1.00  0.00     0.017 C 
ENDBRANCH   6  10
ENDBRANCH   2   3
BRANCH   2  16
HETATM   16  C   UNL     1      -4.085  19.938  14.127  1.00  0.00     0.047 C 
HETATM   17  C   UNL     1      -4.761  20.935  13.767  1.00  0.00    -0.018 C 
BRANCH  17  18
HETATM   18  C   UNL     1      -4.900  22.376  13.486  1.00  0.00     0.066 C 
BRANCH  18  19
HETATM   19  C   UNL     1      -5.778  22.635  12.284  1.00  0.00    -0.051 C 
HETATM   20  C   UNL     1      -6.797  21.738  11.964  1.00  0.00     0.020 C 
HETATM   21  C   UNL     1      -7.433  21.795  10.719  1.00  0.00    -0.018 C 
HETATM   22  C   UNL     1      -7.160  22.872   9.883  1.00  0.00     0.049 C 
HETATM   23  C   UNL     1      -6.467  23.956  10.394  1.00  0.00     0.067 C 
HETATM   24  C   UNL     1      -5.630  23.780  11.504  1.00  0.00     0.044 C 
BRANCH  21  25
HETATM   25  C   UNL     1      -8.542  20.922  10.452  1.00  0.00     0.092 C 
HETATM   26  N   UNL     1      -9.238  20.365   9.698  1.00  0.00    -0.407 N 
ATOM     27  HN2 UNL     1      -8.859  20.648   8.794  1.00  0.00     0.155 HD
ATOM     28  HN1 UNL     1     -10.025  19.745   9.508  1.00  0.00     0.155 HD
ENDBRANCH  21  25
BRANCH  23  29
HETATM   29  O   UNL     1      -6.782  25.224  10.007  1.00  0.00    -0.361 OA
ATOM     30  HO  UNL     1      -6.741  25.943  10.627  1.00  0.00     0.217 HD
ENDBRANCH  23  29
ENDBRANCH  18  19
ENDBRANCH  17  18
ENDBRANCH   2  16
TORSDOF 7
ENDMDL
MODEL 5
REMARK VINA RESULT:      -8.6      4.397      6.510
REMARK  7 active torsions:
REMARK  status: ('A' for Active; 'I' for Inactive)
REMARK    1  A    between atoms: C_1  and  C_9 
REMARK       I    between atoms: C_5  and  N_6 
REMARK    2  A    between atoms: C_5  and  C_13 
REMARK    3  A    between atoms: C_8  and  C_10 
REMARK    4  A    between atoms: C_8  and  C_12 
REMARK    5  A    between atoms: O_14  and  C_21 
REMARK    6  A    between atoms: C_18  and  C_19 
REMARK    7  A    between atoms: C_19  and  C_24 
ROOT
HETATM    1  O   UNL     1      -1.510  18.821  15.241  1.00  0.00    -0.292 OA
HETATM    2  C   UNL     1      -2.490  18.815  14.516  1.00  0.00     0.163 C 
ENDROOT
BRANCH   2   3
HETATM    3  C   UNL     1      -3.037  17.556  13.930  1.00  0.00     0.170 C 
HETATM    4  C   UNL     1      -3.386  16.629  15.069  1.00  0.00     0.157 C 
HETATM    5  N   UNL     1      -2.346  15.700  14.626  1.00  0.00    -0.282 N 
HETATM    6  C   UNL     1      -2.236  14.326  14.562  1.00  0.00     0.260 C 
HETATM    7  C   UNL     1      -1.925  16.585  13.717  1.00  0.00     0.240 C 
HETATM    8  O   UNL     1      -3.236  13.698  14.299  1.00  0.00    -0.267 OA
HETATM    9  O   UNL     1      -0.981  16.531  12.959  1.00  0.00    -0.272 OA
BRANCH   6  10
HETATM   10  C   UNL     1      -0.943  13.595  14.696  1.00  0.00     0.032 C 
HETATM   11  C   UNL     1       0.158  14.178  15.305  1.00  0.00     0.017 C 
HETATM   12  C   UNL     1       1.376  13.525  15.300  1.00  0.00     0.001 C 
HETATM   13  C   UNL     1       1.521  12.337  14.592  1.00  0.00     0.000 C 
HETATM   14  C   UNL     1       0.408  11.693  14.090  1.00  0.00     0.001 C 
HETATM   15  C   UNL     1      -0.846  12.286  14.230  1.00  0.00     0.017 C 
ENDBRANCH   6  10
ENDBRANCH   2   3
BRANCH   2  16
HETATM   16  C   UNL     1      -3.314  20.032  14.228  1.00  0.00     0.047 C 
HETATM   17  C   UNL     1      -4.483  20.135  13.779  1.00  0.00    -0.018 C 
BRANCH  17  18
HETATM   18  C   UNL     1      -5.886  20.574  13.900  1.00  0.00     0.066 C 
BRANCH  18  19
HETATM   19  C   UNL     1      -6.318  21.415  12.722  1.00  0.00    -0.051 C 
HETATM   20  C   UNL     1      -7.425  21.034  11.965  1.00  0.00     0.020 C 
HETATM   21  C   UNL     1      -7.677  21.622  10.721  1.00  0.00    -0.018 C 
HETATM   22  C   UNL     1      -6.912  22.718  10.338  1.00  0.00     0.049 C 
HETATM   23  C   UNL     1      -6.103  23.330  11.280  1.00  0.00     0.067 C 
HETATM   24  C   UNL     1      -5.663  22.601  12.393  1.00  0.00     0.044 C 
BRANCH  21  25
HETATM   25  C   UNL     1      -8.875  21.279  10.007  1.00  0.00     0.092 C 
HETATM   26  N   UNL     1      -9.752  21.572   9.294  1.00  0.00    -0.407 N 
ATOM     27  HN2 UNL     1      -9.555  22.552   9.089  1.00  0.00     0.155 HD
ATOM     28  HN1 UNL     1     -10.602  21.328   8.786  1.00  0.00     0.155 HD
ENDBRANCH  21  25
BRANCH  23  29
HETATM   29  O   UNL     1      -5.945  24.684  11.282  1.00  0.00    -0.361 OA
ATOM     30  HO  UNL     1      -6.450  25.230  10.691  1.00  0.00     0.217 HD
ENDBRANCH  23  29
ENDBRANCH  18  19
ENDBRANCH  17  18
ENDBRANCH   2  16
TORSDOF 7
ENDMDL
MODEL 6
REMARK VINA RESULT:      -8.5      4.489      8.218
REMARK  7 active torsions:
REMARK  status: ('A' for Active; 'I' for Inactive)
REMARK    1  A    between atoms: C_1  and  C_9 
REMARK       I    between atoms: C_5  and  N_6 
REMARK    2  A    between atoms: C_5  and  C_13 
REMARK    3  A    between atoms: C_8  and  C_10 
REMARK    4  A    between atoms: C_8  and  C_12 
REMARK    5  A    between atoms: O_14  and  C_21 
REMARK    6  A    between atoms: C_18  and  C_19 
REMARK    7  A    between atoms: C_19  and  C_24 
ROOT
HETATM    1  O   UNL     1      -2.091  16.555  13.784  1.00  0.00    -0.292 OA
HETATM    2  C   UNL     1      -1.462  17.409  14.385  1.00  0.00     0.163 C 
ENDROOT
BRANCH   2   3
HETATM    3  C   UNL     1      -2.123  18.386  15.299  1.00  0.00     0.170 C 
HETATM    4  C   UNL     1      -3.589  18.033  15.374  1.00  0.00     0.157 C 
HETATM    5  N   UNL     1      -3.923  19.298  14.721  1.00  0.00    -0.282 N 
HETATM    6  C   UNL     1      -4.933  20.228  14.865  1.00  0.00     0.260 C 
HETATM    7  C   UNL     1      -2.628  19.545  14.506  1.00  0.00     0.240 C 
HETATM    8  O   UNL     1      -5.355  20.424  15.982  1.00  0.00    -0.267 OA
HETATM    9  O   UNL     1      -2.098  20.457  13.909  1.00  0.00    -0.272 OA
BRANCH   6  10
HETATM   10  C   UNL     1      -5.451  21.065  13.745  1.00  0.00     0.032 C 
HETATM   11  C   UNL     1      -6.463  20.612  12.911  1.00  0.00     0.017 C 
HETATM   12  C   UNL     1      -6.832  21.356  11.806  1.00  0.00     0.001 C 
HETATM   13  C   UNL     1      -6.116  22.501  11.473  1.00  0.00     0.000 C 
HETATM   14  C   UNL     1      -5.194  23.020  12.359  1.00  0.00     0.001 C 
HETATM   15  C   UNL     1      -4.932  22.342  13.548  1.00  0.00     0.017 C 
ENDBRANCH   6  10
ENDBRANCH   2   3
BRANCH   2  16
HETATM   16  C   UNL     1       0.032  17.501  14.370  1.00  0.00     0.047 C 
HETATM   17  C   UNL     1       0.806  18.279  14.982  1.00  0.00    -0.018 C 
BRANCH  17  18
HETATM   18  C   UNL     1       1.907  18.535  15.929  1.00  0.00     0.066 C 
BRANCH  18  19
HETATM   19  C   UNL     1       2.669  19.793  15.582  1.00  0.00    -0.051 C 
HETATM   20  C   UNL     1       2.615  20.300  14.284  1.00  0.00     0.020 C 
HETATM   21  C   UNL     1       3.518  21.283  13.864  1.00  0.00    -0.018 C 
HETATM   22  C   UNL     1       4.346  21.873  14.813  1.00  0.00     0.049 C 
HETATM   23  C   UNL     1       4.090  21.648  16.155  1.00  0.00     0.067 C 
HETATM   24  C   UNL     1       3.394  20.495  16.542  1.00  0.00     0.044 C 
BRANCH  21  25
HETATM   25  C   UNL     1       3.380  21.856  12.554  1.00  0.00     0.092 C 
HETATM   26  N   UNL     1       2.735  22.088  11.609  1.00  0.00    -0.407 N 
ATOM     27  HN2 UNL     1       1.833  21.675  11.849  1.00  0.00     0.155 HD
ATOM     28  HN1 UNL     1       2.637  22.494  10.679  1.00  0.00     0.155 HD
ENDBRANCH  21  25
BRANCH  23  29
HETATM   29  O   UNL     1       4.271  22.642  17.070  1.00  0.00    -0.361 OA
ATOM     30  HO  UNL     1       4.172  22.467  17.999  1.00  0.00     0.217 HD
ENDBRANCH  23  29
ENDBRANCH  18  19
ENDBRANCH  17  18
ENDBRANCH   2  16
TORSDOF 7
ENDMDL
MODEL 7
REMARK VINA RESULT:      -8.3      2.074      2.966
REMARK  7 active torsions:
REMARK  status: ('A' for Active; 'I' for Inactive)
REMARK    1  A    between atoms: C_1  and  C_9 
REMARK       I    between atoms: C_5  and  N_6 
REMARK    2  A    between atoms: C_5  and  C_13 
REMARK    3  A    between atoms: C_8  and  C_10 
REMARK    4  A    between atoms: C_8  and  C_12 
REMARK    5  A    between atoms: O_14  and  C_21 
REMARK    6  A    between atoms: C_18  and  C_19 
REMARK    7  A    between atoms: C_19  and  C_24 
ROOT
HETATM    1  O   UNL     1      -2.930  20.995  16.756  1.00  0.00    -0.292 OA
HETATM    2  C   UNL     1      -4.119  21.119  16.515  1.00  0.00     0.163 C 
ENDROOT
BRANCH   2   3
HETATM    3  C   UNL     1      -5.160  21.002  17.577  1.00  0.00     0.170 C 
HETATM    4  C   UNL     1      -4.480  20.553  18.847  1.00  0.00     0.157 C 
HETATM    5  N   UNL     1      -5.219  19.292  18.793  1.00  0.00    -0.282 N 
HETATM    6  C   UNL     1      -5.807  18.470  19.734  1.00  0.00     0.260 C 
HETATM    7  C   UNL     1      -5.702  19.612  17.589  1.00  0.00     0.240 C 
HETATM    8  O   UNL     1      -6.320  18.999  20.693  1.00  0.00    -0.267 OA
HETATM    9  O   UNL     1      -6.396  18.967  16.833  1.00  0.00    -0.272 OA
BRANCH   6  10
HETATM   10  C   UNL     1      -5.931  16.992  19.576  1.00  0.00     0.032 C 
HETATM   11  C   UNL     1      -4.903  16.234  19.035  1.00  0.00     0.017 C 
HETATM   12  C   UNL     1      -5.097  14.889  18.784  1.00  0.00     0.001 C 
HETATM   13  C   UNL     1      -6.353  14.323  18.974  1.00  0.00     0.000 C 
HETATM   14  C   UNL     1      -7.340  15.037  19.623  1.00  0.00     0.001 C 
HETATM   15  C   UNL     1      -7.089  16.352  20.011  1.00  0.00     0.017 C 
ENDBRANCH   6  10
ENDBRANCH   2   3
BRANCH   2  16
HETATM   16  C   UNL     1      -4.655  21.513  15.174  1.00  0.00     0.047 C 
HETATM   17  C   UNL     1      -4.833  20.829  14.136  1.00  0.00    -0.018 C 
BRANCH  17  18
HETATM   18  C   UNL     1      -5.702  20.268  13.083  1.00  0.00     0.066 C 
BRANCH  18  19
HETATM   19  C   UNL     1      -6.303  21.347  12.214  1.00  0.00    -0.051 C 
HETATM   20  C   UNL     1      -7.555  21.151  11.632  1.00  0.00     0.020 C 
HETATM   21  C   UNL     1      -8.008  21.993  10.611  1.00  0.00    -0.018 C 
HETATM   22  C   UNL     1      -7.271  23.134  10.316  1.00  0.00     0.049 C 
HETATM   23  C   UNL     1      -6.263  23.521  11.184  1.00  0.00     0.067 C 
HETATM   24  C   UNL     1      -5.659  22.566  12.012  1.00  0.00     0.044 C 
BRANCH  21  25
HETATM   25  C   UNL     1      -9.338  21.827  10.095  1.00  0.00     0.092 C 
HETATM   26  N   UNL     1     -10.065  21.468   9.254  1.00  0.00    -0.407 N 
ATOM     27  HN2 UNL     1      -9.425  21.094   8.553  1.00  0.00     0.155 HD
ATOM     28  HN1 UNL     1     -11.009  21.350   8.888  1.00  0.00     0.155 HD
ENDBRANCH  21  25
BRANCH  23  29
HETATM   29  O   UNL     1      -6.033  24.841  11.432  1.00  0.00    -0.361 OA
ATOM     30  HO  UNL     1      -5.498  25.108  12.171  1.00  0.00     0.217 HD
ENDBRANCH  23  29
ENDBRANCH  18  19
ENDBRANCH  17  18
ENDBRANCH   2  16
TORSDOF 7
ENDMDL
MODEL 8
REMARK VINA RESULT:      -8.3      2.474      3.568
REMARK  7 active torsions:
REMARK  status: ('A' for Active; 'I' for Inactive)
REMARK    1  A    between atoms: C_1  and  C_9 
REMARK       I    between atoms: C_5  and  N_6 
REMARK    2  A    between atoms: C_5  and  C_13 
REMARK    3  A    between atoms: C_8  and  C_10 
REMARK    4  A    between atoms: C_8  and  C_12 
REMARK    5  A    between atoms: O_14  and  C_21 
REMARK    6  A    between atoms: C_18  and  C_19 
REMARK    7  A    between atoms: C_19  and  C_24 
ROOT
HETATM    1  O   UNL     1      -3.329  21.192  17.130  1.00  0.00    -0.292 OA
HETATM    2  C   UNL     1      -4.493  21.039  16.805  1.00  0.00     0.163 C 
ENDROOT
BRANCH   2   3
HETATM    3  C   UNL     1      -5.524  20.531  17.757  1.00  0.00     0.170 C 
HETATM    4  C   UNL     1      -5.203  21.081  19.125  1.00  0.00     0.157 C 
HETATM    5  N   UNL     1      -4.928  19.726  19.601  1.00  0.00    -0.282 N 
HETATM    6  C   UNL     1      -5.161  19.046  20.780  1.00  0.00     0.260 C 
HETATM    7  C   UNL     1      -5.053  19.250  18.359  1.00  0.00     0.240 C 
HETATM    8  O   UNL     1      -6.181  19.300  21.379  1.00  0.00    -0.267 OA
HETATM    9  O   UNL     1      -4.886  18.126  17.936  1.00  0.00    -0.272 OA
BRANCH   6  10
HETATM   10  C   UNL     1      -4.283  17.954  21.290  1.00  0.00     0.032 C 
HETATM   11  C   UNL     1      -3.154  18.228  22.049  1.00  0.00     0.017 C 
HETATM   12  C   UNL     1      -2.292  17.206  22.397  1.00  0.00     0.001 C 
HETATM   13  C   UNL     1      -2.500  15.925  21.898  1.00  0.00     0.000 C 
HETATM   14  C   UNL     1      -3.679  15.621  21.248  1.00  0.00     0.001 C 
HETATM   15  C   UNL     1      -4.618  16.627  21.029  1.00  0.00     0.017 C 
ENDBRANCH   6  10
ENDBRANCH   2   3
BRANCH   2  16
HETATM   16  C   UNL     1      -5.041  21.447  15.472  1.00  0.00     0.047 C 
HETATM   17  C   UNL     1      -4.942  20.895  14.348  1.00  0.00    -0.018 C 
BRANCH  17  18
HETATM   18  C   UNL     1      -5.535  20.261  13.155  1.00  0.00     0.066 C 
BRANCH  18  19
HETATM   19  C   UNL     1      -6.222  21.269  12.264  1.00  0.00    -0.051 C 
HETATM   20  C   UNL     1      -7.424  20.938  11.640  1.00  0.00     0.020 C 
HETATM   21  C   UNL     1      -7.932  21.727  10.602  1.00  0.00    -0.018 C 
HETATM   22  C   UNL     1      -7.314  22.942  10.330  1.00  0.00     0.049 C 
HETATM   23  C   UNL     1      -6.385  23.436  11.230  1.00  0.00     0.067 C 
HETATM   24  C   UNL     1      -5.708  22.551  12.080  1.00  0.00     0.044 C 
BRANCH  21  25
HETATM   25  C   UNL     1      -9.217  21.417  10.042  1.00  0.00     0.092 C 
HETATM   26  N   UNL     1     -10.102  21.674   9.325  1.00  0.00    -0.407 N 
ATOM     27  HN2 UNL     1      -9.795  22.547   8.897  1.00  0.00     0.155 HD
ATOM     28  HN1 UNL     1     -11.015  21.453   8.928  1.00  0.00     0.155 HD
ENDBRANCH  21  25
BRANCH  23  29
HETATM   29  O   UNL     1      -6.308  24.773  11.483  1.00  0.00    -0.361 OA
ATOM     30  HO  UNL     1      -5.602  25.125  12.012  1.00  0.00     0.217 HD
ENDBRANCH  23  29
ENDBRANCH  18  19
ENDBRANCH  17  18
ENDBRANCH   2  16
TORSDOF 7
ENDMDL
MODEL 9
REMARK VINA RESULT:      -8.3      4.800      8.990
REMARK  7 active torsions:
REMARK  status: ('A' for Active; 'I' for Inactive)
REMARK    1  A    between atoms: C_1  and  C_9 
REMARK       I    between atoms: C_5  and  N_6 
REMARK    2  A    between atoms: C_5  and  C_13 
REMARK    3  A    between atoms: C_8  and  C_10 
REMARK    4  A    between atoms: C_8  and  C_12 
REMARK    5  A    between atoms: O_14  and  C_21 
REMARK    6  A    between atoms: C_18  and  C_19 
REMARK    7  A    between atoms: C_19  and  C_24 
ROOT
HETATM    1  O   UNL     1      -4.255  16.046  15.497  1.00  0.00    -0.292 OA
HETATM    2  C   UNL     1      -3.388  16.797  15.086  1.00  0.00     0.163 C 
ENDROOT
BRANCH   2   3
HETATM    3  C   UNL     1      -3.276  18.211  15.551  1.00  0.00     0.170 C 
HETATM    4  C   UNL     1      -4.654  18.677  15.952  1.00  0.00     0.157 C 
HETATM    5  N   UNL     1      -4.642  19.644  14.855  1.00  0.00    -0.282 N 
HETATM    6  C   UNL     1      -5.094  20.939  14.697  1.00  0.00     0.260 C 
HETATM    7  C   UNL     1      -3.497  19.130  14.397  1.00  0.00     0.240 C 
HETATM    8  O   UNL     1      -5.025  21.674  15.656  1.00  0.00    -0.267 OA
HETATM    9  O   UNL     1      -2.865  19.404  13.400  1.00  0.00    -0.272 OA
BRANCH   6  10
HETATM   10  C   UNL     1      -5.558  21.499  13.396  1.00  0.00     0.032 C 
HETATM   11  C   UNL     1      -5.051  22.691  12.899  1.00  0.00     0.017 C 
HETATM   12  C   UNL     1      -5.592  23.247  11.755  1.00  0.00     0.001 C 
HETATM   13  C   UNL     1      -6.712  22.669  11.167  1.00  0.00     0.000 C 
HETATM   14  C   UNL     1      -7.143  21.425  11.581  1.00  0.00     0.001 C 
HETATM   15  C   UNL     1      -6.496  20.796  12.644  1.00  0.00     0.017 C 
ENDBRANCH   6  10
ENDBRANCH   2   3
BRANCH   2  16
HETATM   16  C   UNL     1      -2.281  16.364  14.176  1.00  0.00     0.047 C 
HETATM   17  C   UNL     1      -1.151  15.882  14.441  1.00  0.00    -0.018 C 
BRANCH  17  18
HETATM   18  C   UNL     1      -0.146  14.805  14.357  1.00  0.00     0.066 C 
BRANCH  18  19
HETATM   19  C   UNL     1       1.253  15.317  14.606  1.00  0.00    -0.051 C 
HETATM   20  C   UNL     1       1.457  16.667  14.890  1.00  0.00     0.020 C 
HETATM   21  C   UNL     1       2.741  17.220  14.846  1.00  0.00    -0.018 C 
HETATM   22  C   UNL     1       3.827  16.365  14.695  1.00  0.00     0.049 C 
HETATM   23  C   UNL     1       3.628  15.001  14.832  1.00  0.00     0.067 C 
HETATM   24  C   UNL     1       2.354  14.463  14.607  1.00  0.00     0.044 C 
BRANCH  21  25
HETATM   25  C   UNL     1       2.935  18.589  15.235  1.00  0.00     0.092 C 
HETATM   26  N   UNL     1       3.215  19.387  16.041  1.00  0.00    -0.407 N 
ATOM     27  HN2 UNL     1       3.417  18.814  16.861  1.00  0.00     0.155 HD
ATOM     28  HN1 UNL     1       3.353  20.359  16.316  1.00  0.00     0.155 HD
ENDBRANCH  21  25
BRANCH  23  29
HETATM   29  O   UNL     1       4.572  14.220  15.427  1.00  0.00    -0.361 OA
ATOM     30  HO  UNL     1       4.806  14.354  16.338  1.00  0.00     0.217 HD
ENDBRANCH  23  29
ENDBRANCH  18  19
ENDBRANCH  17  18
ENDBRANCH   2  16
TORSDOF 7
ENDMDL
