REMARK  10 active torsions:
REMARK  status: ('A' for Active; 'I' for Inactive)
REMARK    1  A    between atoms: C_1  and  C_3 
REMARK    2  A    between atoms: C_3  and  C_30 
REMARK    3  A    between atoms: C_4  and  N_7 
REMARK    4  A    between atoms: C_4  and  C_34 
REMARK    5  A    between atoms: O_5  and  C_23 
REMARK    6  A    between atoms: N_7  and  C_22 
REMARK    7  A    between atoms: C_14  and  C_16 
REMARK    8  A    between atoms: C_14  and  C_35 
REMARK    9  A    between atoms: C_16  and  C_30 
REMARK   10  A    between atoms: C_23  and  O_24 
ROOT
HETATM    1  C   UNL     1      -4.513  12.275  14.392  1.00  0.00    -0.020 C 
HETATM    2  O   UNL     1      -1.667  10.410  12.177  1.00  0.00    -0.268 OA
HETATM    3  N   UNL     1      -3.846  10.627  12.741  1.00  0.00    -0.332 N 
ATOM      4  HN  UNL     1      -4.096   9.833  12.152  1.00  0.00     0.168 HD
HETATM    5  C   UNL     1      -3.183  12.747  14.425  1.00  0.00     0.027 C 
HETATM    6  C   UNL     1      -4.833  11.261  13.471  1.00  0.00     0.102 C 
HETATM    7  C   UNL     1      -2.529  11.041  12.789  1.00  0.00     0.253 C 
HETATM    8  C   UNL     1      -2.232  12.256  13.542  1.00  0.00     0.036 C 
ENDROOT
BRANCH   8   9
HETATM    9  C   UNL     1      -0.928  12.981  13.354  1.00  0.00     0.276 C 
BRANCH   9  10
HETATM   10  N   UNL     1      -1.111  14.177  12.519  1.00  0.00    -0.067 N 
ATOM     11  HN2 UNL     1      -2.101  14.382  12.387  1.00  0.00     0.277 HD
ATOM     12  HN1 UNL     1      -0.833  15.019  13.022  1.00  0.00     0.277 HD
BRANCH  10  13
HETATM   13  C   UNL     1      -0.414  14.082  11.221  1.00  0.00     0.191 C 
HETATM   14  C   UNL     1       1.096  14.301  11.354  1.00  0.00     0.101 C 
HETATM   15  C   UNL     1       1.406  15.765  11.723  1.00  0.00     0.161 C 
HETATM   16  C   UNL     1       0.863  16.735  10.685  1.00  0.00     0.068 C 
HETATM   17  C   UNL     1      -0.265  16.281   9.790  1.00  0.00     0.007 C 
HETATM   18  C   UNL     1      -1.026  15.034  10.196  1.00  0.00     0.033 C 
BRANCH  15  19
HETATM   19  O   UNL     1       0.891  16.095  12.989  1.00  0.00    -0.365 OA
ATOM     20  HO  UNL     1       1.230  15.489  13.637  1.00  0.00     0.213 HD
ENDBRANCH  15  19
BRANCH  15  21
HETATM   21  O   UNL     1       2.816  15.925  11.779  1.00  0.00    -0.365 OA
ATOM     22  HO  UNL     1       3.164  15.702  10.924  1.00  0.00     0.213 HD
ENDBRANCH  15  21
ENDBRANCH  10  13
ENDBRANCH   9  10
ENDBRANCH   8   9
BRANCH   1  23
HETATM   23  C   UNL     1      -5.512  12.815  15.364  1.00  0.00     0.013 C 
BRANCH  23  24
HETATM   24  C   UNL     1      -6.839  12.920  15.206  1.00  0.00     0.001 C 
BRANCH  24  25
HETATM   25  C   UNL     1      -7.860  12.379  14.333  1.00  0.00     0.002 C 
BRANCH  25  26
HETATM   26  C   UNL     1      -9.030  12.844  13.792  1.00  0.00     0.035 C 
BRANCH  26  27
HETATM   27  C   UNL     1      -9.117  14.201  13.154  1.00  0.00     0.102 C 
HETATM   28  C   UNL     1     -10.043  14.695  12.174  1.00  0.00     0.273 C 
HETATM   29  N   UNL     1      -9.762  16.014  11.952  1.00  0.00    -0.311 N 
HETATM   30  O   UNL     1     -10.690  13.986  11.374  1.00  0.00    -0.266 OA
HETATM   31  C   UNL     1      -8.788  16.322  12.827  1.00  0.00     0.080 C 
ATOM     32  HN  UNL     1     -10.198  16.633  11.268  1.00  0.00     0.170 HD
HETATM   33  C   UNL     1      -7.943  17.536  12.512  1.00  0.00     0.089 C 
HETATM   34  N   UNL     1      -8.217  15.191  13.286  1.00  0.00    -0.342 N 
ATOM     35  HN  UNL     1      -7.274  15.102  13.665  1.00  0.00     0.167 HD
ENDBRANCH  26  27
ENDBRANCH  25  26
ENDBRANCH  24  25
ENDBRANCH  23  24
ENDBRANCH   1  23
TORSDOF 10
