REMARK  0 active torsions:
REMARK  status: ('A' for Active; 'I' for Inactive)
ROOT
HETATM    1  C   UNL     1      24.061   7.274 -18.888  1.00  0.00     0.009 C 
HETATM    2  C   UNL     1      27.142   9.297 -18.961  1.00  0.00     0.121 C 
HETATM    3  C   UNL     1      23.628   7.517 -16.453  1.00  0.00    -0.026 C 
HETATM    4  O   UNL     1      27.720  10.310 -22.742  1.00  0.00    -0.273 OA
HETATM    5  C   UNL     1      25.476   9.171 -17.171  1.00  0.00    -0.000 C 
HETATM    6  C   UNL     1      23.056   6.916 -15.329  1.00  0.00     0.012 C 
HETATM    7  C   UNL     1      25.393   7.460 -19.068  1.00  0.00    -0.047 C 
HETATM    8  C   UNL     1      26.043   6.634 -20.113  1.00  0.00     0.007 C 
HETATM    9  C   UNL     1      23.293   8.999 -14.141  1.00  0.00     0.001 C 
HETATM   10  C   UNL     1      24.407   8.675 -16.246  1.00  0.00    -0.029 C 
HETATM   11  C   UNL     1      28.542   8.161 -23.292  1.00  0.00     0.103 C 
HETATM   12  C   UNL     1      27.208   7.352 -17.433  1.00  0.00     0.025 C 
HETATM   13  C   UNL     1      24.166   9.455 -15.119  1.00  0.00     0.012 C 
HETATM   14  C   UNL     1      27.852   6.371 -21.701  1.00  0.00     0.030 C 
HETATM   15  C   UNL     1      28.131   6.702 -23.158  1.00  0.00     0.012 C 
HETATM   16  N   UNL     1      27.071   8.638 -21.346  1.00  0.00    -0.280 N 
HETATM   17  C   UNL     1      22.782   7.713 -14.226  1.00  0.00     0.001 C 
HETATM   18  C   UNL     1      26.282   8.318 -18.156  1.00  0.00     0.010 C 
HETATM   19  O   UNL     1      26.023  10.521 -20.683  1.00  0.00    -0.273 OA
HETATM   20  C   UNL     1      27.727   9.125 -22.451  1.00  0.00     0.227 C 
HETATM   21  C   UNL     1      26.693   9.550 -20.384  1.00  0.00     0.228 C 
HETATM   22  C   UNL     1      23.329   6.998 -17.751  1.00  0.00     0.013 C 
HETATM   23  C   UNL     1      26.633   7.239 -21.361  1.00  0.00     0.119 C 
ENDROOT
TORSDOF 0
