MODEL 1
REMARK VINA RESULT:      -8.9      0.000      0.000
REMARK  6 active torsions:
REMARK  status: ('A' for Active; 'I' for Inactive)
REMARK    1  A    between atoms: O_5  and  C_25 
REMARK    2  A    between atoms: C_13  and  C_31 
REMARK    3  A    between atoms: C_15  and  C_16 
REMARK    4  A    between atoms: C_16  and  C_18 
REMARK    5  A    between atoms: C_18  and  C_25 
REMARK    6  A    between atoms: C_27  and  C_32 
ROOT
HETATM    1  C   UNL     1      23.816  11.983  12.897  1.00  0.00     0.019 C 
HETATM    2  C   UNL     1      20.368   9.541  14.435  1.00  0.00     0.012 C 
HETATM    3  C   UNL     1      16.938   8.298  10.297  1.00  0.00     0.014 C 
HETATM    4  C   UNL     1      17.180   8.055  11.639  1.00  0.00     0.013 C 
HETATM    5  C   UNL     1      23.177  12.454  15.133  1.00  0.00     0.019 C 
HETATM    6  C   UNL     1      21.880  11.997  14.878  1.00  0.00     0.013 C 
HETATM    7  C   UNL     1      18.665   9.980  10.296  1.00  0.00     0.026 C 
HETATM    8  C   UNL     1      21.617  11.392  13.640  1.00  0.00    -0.026 C 
HETATM    9  C   UNL     1      18.364   8.546  12.187  1.00  0.00    -0.026 C 
HETATM   10  C   UNL     1      19.805  10.524  12.306  1.00  0.00     0.024 C 
HETATM   11  C   UNL     1      18.971   9.664  11.620  1.00  0.00    -0.024 C 
HETATM   12  C   UNL     1      17.794   9.143   9.598  1.00  0.00    -0.009 C 
HETATM   13  C   UNL     1      19.624   8.404  14.304  1.00  0.00     0.002 C 
HETATM   14  C   UNL     1      18.932   7.878  13.258  1.00  0.00     0.012 C 
HETATM   15  C   UNL     1      22.487  11.681  12.584  1.00  0.00     0.013 C 
HETATM   16  C   UNL     1      24.175  12.019  14.253  1.00  0.00     0.040 C 
HETATM   17  C   UNL     1      20.582  10.469  13.443  1.00  0.00    -0.025 C 
ENDROOT
BRANCH  12  18
HETATM   18  C   UNL     1      17.902   9.053   8.203  1.00  0.00     0.042 C 
HETATM   19  C   UNL     1      16.963   8.369   7.450  1.00  0.00     0.037 C 
HETATM   20  C   UNL     1      16.688   8.517   6.113  1.00  0.00    -0.056 C 
HETATM   21  C   UNL     1      17.665   8.453   5.121  1.00  0.00     0.008 C 
HETATM   22  C   UNL     1      18.914   8.985   5.281  1.00  0.00     0.018 C 
HETATM   23  C   UNL     1      19.367   9.617   6.396  1.00  0.00     0.088 C 
HETATM   24  N   UNL     1      18.961   9.674   7.641  1.00  0.00    -0.365 N 
ATOM     25  HN  UNL     1      19.515  10.262   8.263  1.00  0.00     0.165 HD
BRANCH  20  26
HETATM   26  C   UNL     1      15.242   8.661   5.685  1.00  0.00     0.048 C 
BRANCH  26  27
HETATM   27  C   UNL     1      14.395   8.313   6.888  1.00  0.00     0.115 C 
BRANCH  27  28
HETATM   28  C   UNL     1      13.054   7.761   6.487  1.00  0.00     0.258 C 
HETATM   29  O   UNL     1      12.962   6.777   5.808  1.00  0.00    -0.265 OA
BRANCH  28  30
HETATM   30  O   UNL     1      11.970   8.401   7.063  1.00  0.00    -0.326 OA
HETATM   31  C   UNL     1      10.914   7.471   7.335  1.00  0.00     0.213 C 
ENDBRANCH  28  30
ENDBRANCH  27  28
ENDBRANCH  26  27
ENDBRANCH  20  26
ENDBRANCH  12  18
BRANCH  16  32
HETATM   32  C   UNL     1      25.495  11.531  14.705  1.00  0.00     0.209 C 
HETATM   33  O   UNL     1      25.625  10.306  14.909  1.00  0.00    -0.644 OA
HETATM   34  O   UNL     1      26.406  12.358  14.930  1.00  0.00    -0.644 OA
ENDBRANCH  16  32
TORSDOF 6
ENDMDL
MODEL 2
REMARK VINA RESULT:      -8.8      3.518     10.403
REMARK  6 active torsions:
REMARK  status: ('A' for Active; 'I' for Inactive)
REMARK    1  A    between atoms: O_5  and  C_25 
REMARK    2  A    between atoms: C_13  and  C_31 
REMARK    3  A    between atoms: C_15  and  C_16 
REMARK    4  A    between atoms: C_16  and  C_18 
REMARK    5  A    between atoms: C_18  and  C_25 
REMARK    6  A    between atoms: C_27  and  C_32 
ROOT
HETATM    1  C   UNL     1      12.925   7.179   9.939  1.00  0.00     0.019 C 
HETATM    2  C   UNL     1      14.814   8.071   5.957  1.00  0.00     0.012 C 
HETATM    3  C   UNL     1      20.029   9.728   6.667  1.00  0.00     0.014 C 
HETATM    4  C   UNL     1      19.101   9.393   5.694  1.00  0.00     0.013 C 
HETATM    5  C   UNL     1      11.430   7.981   8.282  1.00  0.00     0.019 C 
HETATM    6  C   UNL     1      12.481   8.625   7.619  1.00  0.00     0.013 C 
HETATM    7  C   UNL     1      18.305   9.597   8.348  1.00  0.00     0.026 C 
HETATM    8  C   UNL     1      13.790   8.401   8.070  1.00  0.00    -0.026 C 
HETATM    9  C   UNL     1      17.884   8.858   6.112  1.00  0.00    -0.026 C 
HETATM   10  C   UNL     1      16.060   9.138   7.724  1.00  0.00     0.024 C 
HETATM   11  C   UNL     1      17.397   9.165   7.380  1.00  0.00    -0.024 C 
HETATM   12  C   UNL     1      19.656   9.666   8.007  1.00  0.00    -0.009 C 
HETATM   13  C   UNL     1      15.865   7.847   5.115  1.00  0.00     0.002 C 
HETATM   14  C   UNL     1      17.208   7.994   5.267  1.00  0.00     0.012 C 
HETATM   15  C   UNL     1      13.951   7.950   9.383  1.00  0.00     0.013 C 
HETATM   16  C   UNL     1      11.785   6.947   9.155  1.00  0.00     0.040 C 
HETATM   17  C   UNL     1      14.916   8.536   7.248  1.00  0.00    -0.025 C 
ENDROOT
BRANCH  12  18
HETATM   18  C   UNL     1      20.624   9.518   9.010  1.00  0.00     0.042 C 
HETATM   19  C   UNL     1      21.856   8.946   8.743  1.00  0.00     0.037 C 
HETATM   20  C   UNL     1      23.021   9.088   9.457  1.00  0.00    -0.056 C 
HETATM   21  C   UNL     1      23.108   8.858  10.828  1.00  0.00     0.008 C 
HETATM   22  C   UNL     1      22.119   9.217  11.701  1.00  0.00     0.018 C 
HETATM   23  C   UNL     1      20.946   9.816  11.362  1.00  0.00     0.088 C 
HETATM   24  N   UNL     1      20.290   9.968  10.238  1.00  0.00    -0.365 N 
ATOM     25  HN  UNL     1      19.418  10.494  10.299  1.00  0.00     0.165 HD
BRANCH  20  26
HETATM   26  C   UNL     1      24.293   9.417   8.703  1.00  0.00     0.048 C 
BRANCH  26  27
HETATM   27  C   UNL     1      24.704   8.160   7.972  1.00  0.00     0.115 C 
BRANCH  27  28
HETATM   28  C   UNL     1      26.188   7.925   8.054  1.00  0.00     0.258 C 
HETATM   29  O   UNL     1      26.787   8.071   9.082  1.00  0.00    -0.265 OA
BRANCH  28  30
HETATM   30  O   UNL     1      26.758   7.415   6.899  1.00  0.00    -0.326 OA
HETATM   31  C   UNL     1      25.943   7.704   5.757  1.00  0.00     0.213 C 
ENDBRANCH  28  30
ENDBRANCH  27  28
ENDBRANCH  26  27
ENDBRANCH  20  26
ENDBRANCH  12  18
BRANCH  16  32
HETATM   32  C   UNL     1      11.081   5.648   9.200  1.00  0.00     0.209 C 
HETATM   33  O   UNL     1       9.864   5.634   8.922  1.00  0.00    -0.644 OA
HETATM   34  O   UNL     1      11.704   4.631   9.575  1.00  0.00    -0.644 OA
ENDBRANCH  16  32
TORSDOF 6
ENDMDL
MODEL 3
REMARK VINA RESULT:      -8.8      2.589      3.128
REMARK  6 active torsions:
REMARK  status: ('A' for Active; 'I' for Inactive)
REMARK    1  A    between atoms: O_5  and  C_25 
REMARK    2  A    between atoms: C_13  and  C_31 
REMARK    3  A    between atoms: C_15  and  C_16 
REMARK    4  A    between atoms: C_16  and  C_18 
REMARK    5  A    between atoms: C_18  and  C_25 
REMARK    6  A    between atoms: C_27  and  C_32 
ROOT
HETATM    1  C   UNL     1      26.252   7.806  11.329  1.00  0.00     0.019 C 
HETATM    2  C   UNL     1      22.837   8.713  14.110  1.00  0.00     0.012 C 
HETATM    3  C   UNL     1      18.267   9.777  11.207  1.00  0.00     0.014 C 
HETATM    4  C   UNL     1      18.736   9.594  12.498  1.00  0.00     0.013 C 
HETATM    5  C   UNL     1      26.874   8.849  13.367  1.00  0.00     0.019 C 
HETATM    6  C   UNL     1      25.600   9.415  13.487  1.00  0.00     0.013 C 
HETATM    7  C   UNL     1      20.533   9.734  10.385  1.00  0.00     0.026 C 
HETATM    8  C   UNL     1      24.611   9.032  12.569  1.00  0.00    -0.026 C 
HETATM    9  C   UNL     1      20.053   9.167  12.658  1.00  0.00    -0.026 C 
HETATM   10  C   UNL     1      22.352   9.546  11.900  1.00  0.00     0.024 C 
HETATM   11  C   UNL     1      20.993   9.453  11.672  1.00  0.00    -0.024 C 
HETATM   12  C   UNL     1      19.160   9.681  10.144  1.00  0.00    -0.009 C 
HETATM   13  C   UNL     1      21.552   8.428  14.474  1.00  0.00     0.002 C 
HETATM   14  C   UNL     1      20.383   8.425  13.780  1.00  0.00     0.012 C 
HETATM   15  C   UNL     1      25.036   8.496  11.351  1.00  0.00     0.013 C 
HETATM   16  C   UNL     1      26.984   7.738  12.524  1.00  0.00     0.040 C 
HETATM   17  C   UNL     1      23.240   9.094  12.851  1.00  0.00    -0.025 C 
ENDROOT
BRANCH  12  18
HETATM   18  C   UNL     1      18.702   9.378   8.854  1.00  0.00     0.042 C 
HETATM   19  C   UNL     1      17.540   8.653   8.654  1.00  0.00     0.037 C 
HETATM   20  C   UNL     1      16.754   8.618   7.528  1.00  0.00    -0.056 C 
HETATM   21  C   UNL     1      17.254   8.343   6.257  1.00  0.00     0.008 C 
HETATM   22  C   UNL     1      18.463   8.809   5.823  1.00  0.00     0.018 C 
HETATM   23  C   UNL     1      19.325   9.569   6.551  1.00  0.00     0.088 C 
HETATM   24  N   UNL     1      19.449   9.837   7.827  1.00  0.00    -0.365 N 
ATOM     25  HN  UNL     1      20.206  10.474   8.077  1.00  0.00     0.165 HD
BRANCH  20  26
HETATM   26  C   UNL     1      15.258   8.792   7.688  1.00  0.00     0.048 C 
BRANCH  26  27
HETATM   27  C   UNL     1      14.622   8.287   6.413  1.00  0.00     0.115 C 
BRANCH  27  28
HETATM   28  C   UNL     1      13.223   7.785   6.646  1.00  0.00     0.258 C 
HETATM   29  O   UNL     1      12.872   6.710   6.246  1.00  0.00    -0.265 OA
BRANCH  28  30
HETATM   30  O   UNL     1      12.442   8.597   7.450  1.00  0.00    -0.326 OA
HETATM   31  C   UNL     1      11.526   7.818   8.228  1.00  0.00     0.213 C 
ENDBRANCH  28  30
ENDBRANCH  27  28
ENDBRANCH  26  27
ENDBRANCH  20  26
ENDBRANCH  12  18
BRANCH  16  32
HETATM   32  C   UNL     1      27.737   6.519  12.888  1.00  0.00     0.209 C 
HETATM   33  O   UNL     1      28.984   6.579  12.881  1.00  0.00    -0.644 OA
HETATM   34  O   UNL     1      27.109   5.462  13.120  1.00  0.00    -0.644 OA
ENDBRANCH  16  32
TORSDOF 6
ENDMDL
MODEL 4
REMARK VINA RESULT:      -8.3      2.606      9.914
REMARK  6 active torsions:
REMARK  status: ('A' for Active; 'I' for Inactive)
REMARK    1  A    between atoms: O_5  and  C_25 
REMARK    2  A    between atoms: C_13  and  C_31 
REMARK    3  A    between atoms: C_15  and  C_16 
REMARK    4  A    between atoms: C_16  and  C_18 
REMARK    5  A    between atoms: C_18  and  C_25 
REMARK    6  A    between atoms: C_27  and  C_32 
ROOT
HETATM    1  C   UNL     1      12.918   7.095   9.909  1.00  0.00     0.019 C 
HETATM    2  C   UNL     1      14.697   7.993   5.878  1.00  0.00     0.012 C 
HETATM    3  C   UNL     1      19.924   9.663   6.448  1.00  0.00     0.014 C 
HETATM    4  C   UNL     1      18.972   9.327   5.500  1.00  0.00     0.013 C 
HETATM    5  C   UNL     1      11.377   7.894   8.293  1.00  0.00     0.019 C 
HETATM    6  C   UNL     1      12.407   8.541   7.602  1.00  0.00     0.013 C 
HETATM    7  C   UNL     1      18.247   9.527   8.174  1.00  0.00     0.026 C 
HETATM    8  C   UNL     1      13.729   8.320   8.017  1.00  0.00    -0.026 C 
HETATM    9  C   UNL     1      17.767   8.788   5.950  1.00  0.00    -0.026 C 
HETATM   10  C   UNL     1      15.987   9.063   7.611  1.00  0.00     0.024 C 
HETATM   11  C   UNL     1      17.314   9.094   7.231  1.00  0.00    -0.024 C 
HETATM   12  C   UNL     1      19.588   9.600   7.796  1.00  0.00    -0.009 C 
HETATM   13  C   UNL     1      15.725   7.773   5.007  1.00  0.00     0.002 C 
HETATM   14  C   UNL     1      17.071   7.923   5.123  1.00  0.00     0.012 C 
HETATM   15  C   UNL     1      13.926   7.869   9.325  1.00  0.00     0.013 C 
HETATM   16  C   UNL     1      11.758   6.861   9.156  1.00  0.00     0.040 C 
HETATM   17  C   UNL     1      14.832   8.458   7.165  1.00  0.00    -0.025 C 
ENDROOT
BRANCH  12  18
HETATM   18  C   UNL     1      20.583   9.453   8.773  1.00  0.00     0.042 C 
HETATM   19  C   UNL     1      20.373   9.852  10.082  1.00  0.00     0.037 C 
HETATM   20  C   UNL     1      21.039   9.430  11.206  1.00  0.00    -0.056 C 
HETATM   21  C   UNL     1      22.427   9.453  11.325  1.00  0.00     0.008 C 
HETATM   22  C   UNL     1      23.261   9.140  10.289  1.00  0.00     0.018 C 
HETATM   23  C   UNL     1      22.867   8.788   9.035  1.00  0.00     0.088 C 
HETATM   24  N   UNL     1      21.745   8.898   8.368  1.00  0.00    -0.365 N 
ATOM     25  HN  UNL     1      21.750   8.515   7.422  1.00  0.00     0.165 HD
BRANCH  20  26
HETATM   26  C   UNL     1      20.224   9.009  12.411  1.00  0.00     0.048 C 
BRANCH  26  27
HETATM   27  C   UNL     1      19.561  10.257  12.948  1.00  0.00     0.115 C 
BRANCH  27  28
HETATM   28  C   UNL     1      20.348  10.867  14.076  1.00  0.00     0.258 C 
HETATM   29  O   UNL     1      21.112  10.214  14.729  1.00  0.00    -0.265 OA
BRANCH  28  30
HETATM   30  O   UNL     1      20.207  12.239  14.204  1.00  0.00    -0.326 OA
HETATM   31  C   UNL     1      19.883  12.839  12.944  1.00  0.00     0.213 C 
ENDBRANCH  28  30
ENDBRANCH  27  28
ENDBRANCH  26  27
ENDBRANCH  20  26
ENDBRANCH  12  18
BRANCH  16  32
HETATM   32  C   UNL     1      11.059   5.560   9.219  1.00  0.00     0.209 C 
HETATM   33  O   UNL     1      11.718   4.560   9.574  1.00  0.00    -0.644 OA
HETATM   34  O   UNL     1       9.865   5.493   8.853  1.00  0.00    -0.644 OA
ENDBRANCH  16  32
TORSDOF 6
ENDMDL
MODEL 5
REMARK VINA RESULT:      -8.3      4.386      9.696
REMARK  6 active torsions:
REMARK  status: ('A' for Active; 'I' for Inactive)
REMARK    1  A    between atoms: O_5  and  C_25 
REMARK    2  A    between atoms: C_13  and  C_31 
REMARK    3  A    between atoms: C_15  and  C_16 
REMARK    4  A    between atoms: C_16  and  C_18 
REMARK    5  A    between atoms: C_18  and  C_25 
REMARK    6  A    between atoms: C_27  and  C_32 
ROOT
HETATM    1  C   UNL     1      19.382   8.490   6.769  1.00  0.00     0.019 C 
HETATM    2  C   UNL     1      19.549  11.692   9.922  1.00  0.00     0.012 C 
HETATM    3  C   UNL     1      23.907  10.883  13.207  1.00  0.00     0.014 C 
HETATM    4  C   UNL     1      22.881  11.774  12.936  1.00  0.00     0.013 C 
HETATM    5  C   UNL     1      17.271   9.334   7.448  1.00  0.00     0.019 C 
HETATM    6  C   UNL     1      17.800   9.709   8.688  1.00  0.00     0.013 C 
HETATM    7  C   UNL     1      22.929   9.299  11.676  1.00  0.00     0.026 C 
HETATM    8  C   UNL     1      19.184   9.590   8.887  1.00  0.00    -0.026 C 
HETATM    9  C   UNL     1      22.092  11.535  11.811  1.00  0.00    -0.026 C 
HETATM   10  C   UNL     1      20.872   9.792  10.596  1.00  0.00     0.024 C 
HETATM   11  C   UNL     1      21.953  10.235  11.333  1.00  0.00    -0.024 C 
HETATM   12  C   UNL     1      24.009   9.719  12.451  1.00  0.00    -0.009 C 
HETATM   13  C   UNL     1      20.299  12.653  10.537  1.00  0.00     0.002 C 
HETATM   14  C   UNL     1      21.501  12.610  11.170  1.00  0.00     0.012 C 
HETATM   15  C   UNL     1      19.880   8.707   8.057  1.00  0.00     0.013 C 
HETATM   16  C   UNL     1      18.191   9.142   6.412  1.00  0.00     0.040 C 
HETATM   17  C   UNL     1      19.893  10.364   9.814  1.00  0.00    -0.025 C 
ENDROOT
BRANCH  12  18
HETATM   18  C   UNL     1      25.235   9.048  12.339  1.00  0.00     0.042 C 
HETATM   19  C   UNL     1      25.548   8.302  11.216  1.00  0.00     0.037 C 
HETATM   20  C   UNL     1      26.794   7.938  10.768  1.00  0.00    -0.056 C 
HETATM   21  C   UNL     1      27.735   7.296  11.570  1.00  0.00     0.008 C 
HETATM   22  C   UNL     1      27.916   7.607  12.889  1.00  0.00     0.018 C 
HETATM   23  C   UNL     1      27.217   8.544  13.583  1.00  0.00     0.088 C 
HETATM   24  N   UNL     1      26.089   9.179  13.377  1.00  0.00    -0.365 N 
ATOM     25  HN  UNL     1      25.823   9.857  14.091  1.00  0.00     0.165 HD
BRANCH  20  26
HETATM   26  C   UNL     1      27.129   8.158   9.308  1.00  0.00     0.048 C 
BRANCH  26  27
HETATM   27  C   UNL     1      26.066   9.077   8.750  1.00  0.00     0.115 C 
BRANCH  27  28
HETATM   28  C   UNL     1      26.310   9.402   7.302  1.00  0.00     0.258 C 
HETATM   29  O   UNL     1      26.340  10.536   6.914  1.00  0.00    -0.265 OA
BRANCH  28  30
HETATM   30  O   UNL     1      26.614   8.311   6.506  1.00  0.00    -0.326 OA
HETATM   31  C   UNL     1      25.458   7.865   5.787  1.00  0.00     0.213 C 
ENDBRANCH  28  30
ENDBRANCH  27  28
ENDBRANCH  26  27
ENDBRANCH  20  26
ENDBRANCH  12  18
BRANCH  16  32
HETATM   32  C   UNL     1      17.991   9.667   5.044  1.00  0.00     0.209 C 
HETATM   33  O   UNL     1      16.820   9.882   4.668  1.00  0.00    -0.644 OA
HETATM   34  O   UNL     1      18.983   9.811   4.296  1.00  0.00    -0.644 OA
ENDBRANCH  16  32
TORSDOF 6
ENDMDL
MODEL 6
REMARK VINA RESULT:      -8.2      2.876      4.213
REMARK  6 active torsions:
REMARK  status: ('A' for Active; 'I' for Inactive)
REMARK    1  A    between atoms: O_5  and  C_25 
REMARK    2  A    between atoms: C_13  and  C_31 
REMARK    3  A    between atoms: C_15  and  C_16 
REMARK    4  A    between atoms: C_16  and  C_18 
REMARK    5  A    between atoms: C_18  and  C_25 
REMARK    6  A    between atoms: C_27  and  C_32 
ROOT
HETATM    1  C   UNL     1      23.163   9.257   9.728  1.00  0.00     0.019 C 
HETATM    2  C   UNL     1      20.275   8.740  13.135  1.00  0.00     0.012 C 
HETATM    3  C   UNL     1      15.115   8.424  11.208  1.00  0.00     0.014 C 
HETATM    4  C   UNL     1      15.868   8.310  12.365  1.00  0.00     0.013 C 
HETATM    5  C   UNL     1      23.822  10.286  11.761  1.00  0.00     0.019 C 
HETATM    6  C   UNL     1      22.487  10.379  12.169  1.00  0.00     0.013 C 
HETATM    7  C   UNL     1      17.062   9.211  10.024  1.00  0.00     0.026 C 
HETATM    8  C   UNL     1      21.506   9.757  11.383  1.00  0.00    -0.026 C 
HETATM    9  C   UNL     1      17.257   8.340  12.243  1.00  0.00    -0.026 C 
HETATM   10  C   UNL     1      19.113   9.530  11.176  1.00  0.00     0.024 C 
HETATM   11  C   UNL     1      17.838   9.003  11.165  1.00  0.00    -0.024 C 
HETATM   12  C   UNL     1      15.757   8.718  10.009  1.00  0.00    -0.009 C 
HETATM   13  C   UNL     1      19.248   8.011  13.663  1.00  0.00     0.002 C 
HETATM   14  C   UNL     1      18.025   7.669  13.179  1.00  0.00     0.012 C 
HETATM   15  C   UNL     1      21.822   9.492  10.048  1.00  0.00     0.013 C 
HETATM   16  C   UNL     1      24.105   9.347  10.764  1.00  0.00     0.040 C 
HETATM   17  C   UNL     1      20.273   9.331  11.893  1.00  0.00    -0.025 C 
ENDROOT
BRANCH  12  18
HETATM   18  C   UNL     1      15.167   8.379   8.783  1.00  0.00     0.042 C 
HETATM   19  C   UNL     1      15.710   8.800   7.582  1.00  0.00     0.037 C 
HETATM   20  C   UNL     1      15.522   8.252   6.336  1.00  0.00    -0.056 C 
HETATM   21  C   UNL     1      14.263   8.013   5.789  1.00  0.00     0.008 C 
HETATM   22  C   UNL     1      13.211   7.556   6.533  1.00  0.00     0.018 C 
HETATM   23  C   UNL     1      13.241   7.294   7.867  1.00  0.00     0.088 C 
HETATM   24  N   UNL     1      14.054   7.618   8.842  1.00  0.00    -0.365 N 
ATOM     25  HN  UNL     1      13.815   7.248   9.762  1.00  0.00     0.165 HD
BRANCH  20  26
HETATM   26  C   UNL     1      16.740   7.983   5.476  1.00  0.00     0.048 C 
BRANCH  26  27
HETATM   27  C   UNL     1      17.358   9.326   5.162  1.00  0.00     0.115 C 
BRANCH  27  28
HETATM   28  C   UNL     1      18.843   9.330   5.407  1.00  0.00     0.258 C 
HETATM   29  O   UNL     1      19.293   9.452   6.511  1.00  0.00    -0.265 OA
BRANCH  28  30
HETATM   30  O   UNL     1      19.614   9.060   4.289  1.00  0.00    -0.326 OA
HETATM   31  C   UNL     1      19.138   9.790   3.151  1.00  0.00     0.213 C 
ENDBRANCH  28  30
ENDBRANCH  27  28
ENDBRANCH  26  27
ENDBRANCH  20  26
ENDBRANCH  12  18
BRANCH  16  32
HETATM   32  C   UNL     1      25.262   8.428  10.823  1.00  0.00     0.209 C 
HETATM   33  O   UNL     1      25.477   7.829  11.897  1.00  0.00    -0.644 OA
HETATM   34  O   UNL     1      26.016   8.334   9.830  1.00  0.00    -0.644 OA
ENDBRANCH  16  32
TORSDOF 6
ENDMDL
MODEL 7
REMARK VINA RESULT:      -8.1      3.604     10.011
REMARK  6 active torsions:
REMARK  status: ('A' for Active; 'I' for Inactive)
REMARK    1  A    between atoms: O_5  and  C_25 
REMARK    2  A    between atoms: C_13  and  C_31 
REMARK    3  A    between atoms: C_15  and  C_16 
REMARK    4  A    between atoms: C_16  and  C_18 
REMARK    5  A    between atoms: C_18  and  C_25 
REMARK    6  A    between atoms: C_27  and  C_32 
ROOT
HETATM    1  C   UNL     1      19.870  10.557   2.940  1.00  0.00     0.019 C 
HETATM    2  C   UNL     1      16.762   8.539   5.488  1.00  0.00     0.012 C 
HETATM    3  C   UNL     1      18.166   8.886  10.812  1.00  0.00     0.014 C 
HETATM    4  C   UNL     1      17.148   8.479   9.965  1.00  0.00     0.013 C 
HETATM    5  C   UNL     1      18.775   8.720   1.913  1.00  0.00     0.019 C 
HETATM    6  C   UNL     1      18.489   8.166   3.165  1.00  0.00     0.013 C 
HETATM    7  C   UNL     1      19.591   9.273   8.906  1.00  0.00     0.026 C 
HETATM    8  C   UNL     1      18.785   8.920   4.311  1.00  0.00    -0.026 C 
HETATM    9  C   UNL     1      17.268   8.785   8.610  1.00  0.00    -0.026 C 
HETATM   10  C   UNL     1      18.824   8.765   6.717  1.00  0.00     0.024 C 
HETATM   11  C   UNL     1      18.533   8.957   8.053  1.00  0.00    -0.024 C 
HETATM   12  C   UNL     1      19.322   9.434  10.265  1.00  0.00    -0.009 C 
HETATM   13  C   UNL     1      15.913   8.642   6.552  1.00  0.00     0.002 C 
HETATM   14  C   UNL     1      16.117   8.956   7.859  1.00  0.00     0.012 C 
HETATM   15  C   UNL     1      19.737   9.935   4.186  1.00  0.00     0.013 C 
HETATM   16  C   UNL     1      19.067  10.088   1.889  1.00  0.00     0.040 C 
HETATM   17  C   UNL     1      18.121   8.748   5.532  1.00  0.00    -0.025 C 
ENDROOT
BRANCH  12  18
HETATM   18  C   UNL     1      20.142  10.276  11.030  1.00  0.00     0.042 C 
HETATM   19  C   UNL     1      21.506  10.061  11.127  1.00  0.00     0.037 C 
HETATM   20  C   UNL     1      22.478  10.969  11.469  1.00  0.00    -0.056 C 
HETATM   21  C   UNL     1      22.425  11.745  12.625  1.00  0.00     0.008 C 
HETATM   22  C   UNL     1      21.262  12.285  13.099  1.00  0.00     0.018 C 
HETATM   23  C   UNL     1      20.034  12.135  12.534  1.00  0.00     0.088 C 
HETATM   24  N   UNL     1      19.529  11.305  11.654  1.00  0.00    -0.365 N 
ATOM     25  HN  UNL     1      18.551  11.457  11.410  1.00  0.00     0.165 HD
BRANCH  20  26
HETATM   26  C   UNL     1      23.713  11.065  10.598  1.00  0.00     0.048 C 
BRANCH  26  27
HETATM   27  C   UNL     1      23.781   9.787   9.794  1.00  0.00     0.115 C 
BRANCH  27  28
HETATM   28  C   UNL     1      25.124   9.607   9.140  1.00  0.00     0.258 C 
HETATM   29  O   UNL     1      25.974   8.924   9.639  1.00  0.00    -0.265 OA
BRANCH  28  30
HETATM   30  O   UNL     1      25.239  10.181   7.886  1.00  0.00    -0.326 OA
HETATM   31  C   UNL     1      26.501   9.857   7.289  1.00  0.00     0.213 C 
ENDBRANCH  28  30
ENDBRANCH  27  28
ENDBRANCH  26  27
ENDBRANCH  20  26
ENDBRANCH  12  18
BRANCH  16  32
HETATM   32  C   UNL     1      18.501  11.019   0.890  1.00  0.00     0.209 C 
HETATM   33  O   UNL     1      17.739  10.549   0.020  1.00  0.00    -0.644 OA
HETATM   34  O   UNL     1      18.853  12.219   0.908  1.00  0.00    -0.644 OA
ENDBRANCH  16  32
TORSDOF 6
ENDMDL
MODEL 8
REMARK VINA RESULT:      -8.0      4.853      9.285
REMARK  6 active torsions:
REMARK  status: ('A' for Active; 'I' for Inactive)
REMARK    1  A    between atoms: O_5  and  C_25 
REMARK    2  A    between atoms: C_13  and  C_31 
REMARK    3  A    between atoms: C_15  and  C_16 
REMARK    4  A    between atoms: C_16  and  C_18 
REMARK    5  A    between atoms: C_18  and  C_25 
REMARK    6  A    between atoms: C_27  and  C_32 
ROOT
HETATM    1  C   UNL     1      18.091   4.625  15.000  1.00  0.00     0.019 C 
HETATM    2  C   UNL     1      17.553   8.347  12.534  1.00  0.00     0.012 C 
HETATM    3  C   UNL     1      22.441  10.742  11.637  1.00  0.00     0.014 C 
HETATM    4  C   UNL     1      21.099  10.816  11.301  1.00  0.00     0.013 C 
HETATM    5  C   UNL     1      16.034   5.757  15.336  1.00  0.00     0.019 C 
HETATM    6  C   UNL     1      16.609   6.964  14.924  1.00  0.00     0.013 C 
HETATM    7  C   UNL     1      21.932   9.052  13.279  1.00  0.00     0.026 C 
HETATM    8  C   UNL     1      17.913   6.938  14.407  1.00  0.00    -0.026 C 
HETATM    9  C   UNL     1      20.263   9.786  11.731  1.00  0.00    -0.026 C 
HETATM   10  C   UNL     1      19.682   8.401  13.666  1.00  0.00     0.024 C 
HETATM   11  C   UNL     1      20.598   9.060  12.870  1.00  0.00    -0.024 C 
HETATM   12  C   UNL     1      22.866   9.744  12.508  1.00  0.00    -0.009 C 
HETATM   13  C   UNL     1      17.929   9.047  11.424  1.00  0.00     0.002 C 
HETATM   14  C   UNL     1      19.138   9.483  10.983  1.00  0.00     0.012 C 
HETATM   15  C   UNL     1      18.719   5.848  14.746  1.00  0.00     0.013 C 
HETATM   16  C   UNL     1      16.689   4.587  14.939  1.00  0.00     0.040 C 
HETATM   17  C   UNL     1      18.404   7.905  13.521  1.00  0.00    -0.025 C 
ENDROOT
BRANCH  12  18
HETATM   18  C   UNL     1      24.202   9.319  12.507  1.00  0.00     0.042 C 
HETATM   19  C   UNL     1      24.688   8.470  11.528  1.00  0.00     0.037 C 
HETATM   20  C   UNL     1      25.994   8.288  11.145  1.00  0.00    -0.056 C 
HETATM   21  C   UNL     1      27.019   7.990  12.041  1.00  0.00     0.008 C 
HETATM   22  C   UNL     1      27.095   8.550  13.286  1.00  0.00     0.018 C 
HETATM   23  C   UNL     1      26.206   9.435  13.811  1.00  0.00     0.088 C 
HETATM   24  N   UNL     1      24.983   9.790  13.503  1.00  0.00    -0.365 N 
ATOM     25  HN  UNL     1      24.568  10.513  14.091  1.00  0.00     0.165 HD
BRANCH  20  26
HETATM   26  C   UNL     1      26.323   8.319   9.667  1.00  0.00     0.048 C 
BRANCH  26  27
HETATM   27  C   UNL     1      25.542   9.467   9.070  1.00  0.00     0.115 C 
BRANCH  27  28
HETATM   28  C   UNL     1      25.580   9.449   7.566  1.00  0.00     0.258 C 
HETATM   29  O   UNL     1      25.990  10.387   6.941  1.00  0.00    -0.265 OA
BRANCH  28  30
HETATM   30  O   UNL     1      25.230   8.239   6.992  1.00  0.00    -0.326 OA
HETATM   31  C   UNL     1      26.206   7.830   6.026  1.00  0.00     0.213 C 
ENDBRANCH  28  30
ENDBRANCH  27  28
ENDBRANCH  26  27
ENDBRANCH  20  26
ENDBRANCH  12  18
BRANCH  16  32
HETATM   32  C   UNL     1      15.983   3.408  14.395  1.00  0.00     0.209 C 
HETATM   33  O   UNL     1      14.759   3.515  14.167  1.00  0.00    -0.644 OA
HETATM   34  O   UNL     1      16.610   2.337  14.247  1.00  0.00    -0.644 OA
ENDBRANCH  16  32
TORSDOF 6
ENDMDL
MODEL 9
REMARK VINA RESULT:      -7.8      3.144     10.119
REMARK  6 active torsions:
REMARK  status: ('A' for Active; 'I' for Inactive)
REMARK    1  A    between atoms: O_5  and  C_25 
REMARK    2  A    between atoms: C_13  and  C_31 
REMARK    3  A    between atoms: C_15  and  C_16 
REMARK    4  A    between atoms: C_16  and  C_18 
REMARK    5  A    between atoms: C_18  and  C_25 
REMARK    6  A    between atoms: C_27  and  C_32 
ROOT
HETATM    1  C   UNL     1      19.855  10.562   2.459  1.00  0.00     0.019 C 
HETATM    2  C   UNL     1      16.971   8.632   5.317  1.00  0.00     0.012 C 
HETATM    3  C   UNL     1      18.831   9.107  10.489  1.00  0.00     0.014 C 
HETATM    4  C   UNL     1      17.742   8.686   9.744  1.00  0.00     0.013 C 
HETATM    5  C   UNL     1      18.668   8.707   1.578  1.00  0.00     0.019 C 
HETATM    6  C   UNL     1      18.488   8.187   2.865  1.00  0.00     0.013 C 
HETATM    7  C   UNL     1      20.087   9.435   8.458  1.00  0.00     0.026 C 
HETATM    8  C   UNL     1      18.885   8.968   3.960  1.00  0.00    -0.026 C 
HETATM    9  C   UNL     1      17.745   8.956   8.376  1.00  0.00    -0.026 C 
HETATM   10  C   UNL     1      19.132   8.876   6.358  1.00  0.00     0.024 C 
HETATM   11  C   UNL     1      18.958   9.104   7.708  1.00  0.00    -0.024 C 
HETATM   12  C   UNL     1      19.938   9.633   9.831  1.00  0.00    -0.009 C 
HETATM   13  C   UNL     1      16.217   8.768   6.448  1.00  0.00     0.002 C 
HETATM   14  C   UNL     1      16.535   9.115   7.723  1.00  0.00     0.012 C 
HETATM   15  C   UNL     1      19.828   9.973   3.727  1.00  0.00     0.013 C 
HETATM   16  C   UNL     1      18.963  10.072   1.493  1.00  0.00     0.040 C 
HETATM   17  C   UNL     1      18.329   8.833   5.239  1.00  0.00    -0.025 C 
ENDROOT
BRANCH  12  18
HETATM   18  C   UNL     1      20.824  10.490  10.499  1.00  0.00     0.042 C 
HETATM   19  C   UNL     1      20.364  11.547  11.265  1.00  0.00     0.037 C 
HETATM   20  C   UNL     1      21.025  12.204  12.275  1.00  0.00    -0.056 C 
HETATM   21  C   UNL     1      22.300  12.746  12.126  1.00  0.00     0.008 C 
HETATM   22  C   UNL     1      23.286  12.126  11.410  1.00  0.00     0.018 C 
HETATM   23  C   UNL     1      23.160  10.942  10.753  1.00  0.00     0.088 C 
HETATM   24  N   UNL     1      22.140  10.220  10.361  1.00  0.00    -0.365 N 
ATOM     25  HN  UNL     1      22.369   9.343   9.892  1.00  0.00     0.165 HD
BRANCH  20  26
HETATM   26  C   UNL     1      20.297  12.434  13.583  1.00  0.00     0.048 C 
BRANCH  26  27
HETATM   27  C   UNL     1      21.284  12.142  14.689  1.00  0.00     0.115 C 
BRANCH  27  28
HETATM   28  C   UNL     1      21.604  10.674  14.781  1.00  0.00     0.258 C 
HETATM   29  O   UNL     1      20.737   9.846  14.788  1.00  0.00    -0.265 OA
BRANCH  28  30
HETATM   30  O   UNL     1      22.954  10.372  14.730  1.00  0.00    -0.326 OA
HETATM   31  C   UNL     1      23.699  11.208  15.623  1.00  0.00     0.213 C 
ENDBRANCH  28  30
ENDBRANCH  27  28
ENDBRANCH  26  27
ENDBRANCH  20  26
ENDBRANCH  12  18
BRANCH  16  32
HETATM   32  C   UNL     1      18.317  10.980   0.522  1.00  0.00     0.209 C 
HETATM   33  O   UNL     1      17.671  10.468  -0.416  1.00  0.00    -0.644 OA
HETATM   34  O   UNL     1      18.493  12.213   0.633  1.00  0.00    -0.644 OA
ENDBRANCH  16  32
TORSDOF 6
ENDMDL
