MODEL 1
REMARK VINA RESULT:      -9.2      0.000      0.000
REMARK  5 active torsions:
REMARK  status: ('A' for Active; 'I' for Inactive)
REMARK    1  A    between atoms: C_1  and  C_17 
REMARK    2  A    between atoms: C_1  and  C_29 
REMARK    3  A    between atoms: O_14  and  C_31 
REMARK    4  A    between atoms: O_19  and  C_29 
REMARK    5  A    between atoms: O_21  and  C_23 
ROOT
HETATM    1  C   UNL     1      47.162  36.103  16.809  1.00  0.00     0.091 C 
HETATM    2  C   UNL     1      47.630  35.652  15.644  1.00  0.00     0.057 C 
HETATM    3  N   UNL     1      42.634  32.563  15.823  1.00  0.00    -0.357 N 
ATOM      4  HN  UNL     1      42.407  31.573  15.916  1.00  0.00     0.162 HD
HETATM    5  C   UNL     1      44.803  36.233  16.659  1.00  0.00     0.056 C 
HETATM    6  C   UNL     1      44.695  35.411  15.575  1.00  0.00     0.043 C 
HETATM    7  C   UNL     1      43.916  33.122  15.510  1.00  0.00     0.099 C 
HETATM    8  F   UNL     1      45.047  35.796  13.300  1.00  0.00    -0.202 F 
HETATM    9  C   UNL     1      43.630  36.407  17.384  1.00  0.00     0.192 C 
HETATM   10  C   UNL     1      45.541  35.467  14.499  1.00  0.00     0.162 C 
HETATM   11  N   UNL     1      45.994  36.542  17.208  1.00  0.00    -0.366 N 
ATOM     12  HN  UNL     1      45.985  37.175  18.008  1.00  0.00     0.165 HD
HETATM   13  C   UNL     1      41.714  33.696  15.985  1.00  0.00     0.228 C 
HETATM   14  C   UNL     1      42.597  34.676  16.308  1.00  0.00     0.017 C 
HETATM   15  C   UNL     1      46.895  35.245  14.554  1.00  0.00     0.106 C 
HETATM   16  C   UNL     1      43.790  34.415  15.763  1.00  0.00     0.006 C 
HETATM   17  C   UNL     1      42.430  35.833  16.993  1.00  0.00     0.024 C 
ENDROOT
BRANCH  13  18
HETATM   18  C   UNL     1      40.914  33.876  14.893  1.00  0.00     0.221 C 
HETATM   19  O   UNL     1      41.166  33.161  13.868  1.00  0.00    -0.286 OA
BRANCH  18  20
HETATM   20  C   UNL     1      39.895  34.804  14.743  1.00  0.00     0.031 C 
HETATM   21  C   UNL     1      40.179  35.987  14.093  1.00  0.00     0.017 C 
HETATM   22  C   UNL     1      39.404  36.761  13.266  1.00  0.00     0.002 C 
HETATM   23  C   UNL     1      38.068  36.530  12.963  1.00  0.00     0.017 C 
HETATM   24  C   UNL     1      37.293  35.631  13.610  1.00  0.00     0.087 C 
HETATM   25  N   UNL     1      37.477  34.878  14.680  1.00  0.00    -0.374 N 
HETATM   26  C   UNL     1      38.632  34.521  15.240  1.00  0.00     0.102 C 
ATOM     27  HN  UNL     1      36.632  34.528  15.132  1.00  0.00     0.164 HD
ENDBRANCH  18  20
ENDBRANCH  13  18
BRANCH  13  28
HETATM   28  O   UNL     1      41.002  33.280  17.063  1.00  0.00    -0.360 OA
ATOM     29  HO  UNL     1      41.471  32.618  17.558  1.00  0.00     0.213 HD
ENDBRANCH  13  28
BRANCH   9  30
HETATM   30  O   UNL     1      43.872  36.181  18.748  1.00  0.00    -0.386 OA
ATOM     31  HO  UNL     1      44.773  36.399  18.956  1.00  0.00     0.210 HD
ENDBRANCH   9  30
BRANCH  15  32
HETATM   32  O   UNL     1      47.495  34.512  13.602  1.00  0.00    -0.358 OA
ATOM     33  HO  UNL     1      46.967  33.929  13.069  1.00  0.00     0.217 HD
ENDBRANCH  15  32
TORSDOF 5
ENDMDL
MODEL 2
REMARK VINA RESULT:      -8.7      2.041      6.803
REMARK  5 active torsions:
REMARK  status: ('A' for Active; 'I' for Inactive)
REMARK    1  A    between atoms: C_1  and  C_17 
REMARK    2  A    between atoms: C_1  and  C_29 
REMARK    3  A    between atoms: O_14  and  C_31 
REMARK    4  A    between atoms: O_19  and  C_29 
REMARK    5  A    between atoms: O_21  and  C_23 
ROOT
HETATM    1  C   UNL     1      37.376  34.715  14.924  1.00  0.00     0.091 C 
HETATM    2  C   UNL     1      37.438  35.846  14.219  1.00  0.00     0.057 C 
HETATM    3  N   UNL     1      42.505  36.373  17.146  1.00  0.00    -0.357 N 
ATOM      4  HN  UNL     1      42.856  37.008  17.865  1.00  0.00     0.162 HD
HETATM    5  C   UNL     1      39.572  33.864  15.154  1.00  0.00     0.056 C 
HETATM    6  C   UNL     1      40.200  35.034  14.842  1.00  0.00     0.043 C 
HETATM    7  C   UNL     1      41.341  36.561  16.332  1.00  0.00     0.099 C 
HETATM    8  F   UNL     1      40.616  36.068  12.791  1.00  0.00    -0.202 F 
HETATM    9  C   UNL     1      40.362  32.933  15.818  1.00  0.00     0.192 C 
HETATM   10  C   UNL     1      39.795  35.860  13.826  1.00  0.00     0.162 C 
HETATM   11  N   UNL     1      38.230  33.755  15.174  1.00  0.00    -0.366 N 
ATOM     12  HN  UNL     1      37.844  32.839  15.404  1.00  0.00     0.165 HD
HETATM   13  C   UNL     1      43.094  35.089  16.744  1.00  0.00     0.228 C 
HETATM   14  C   UNL     1      41.996  34.475  16.234  1.00  0.00     0.017 C 
HETATM   15  C   UNL     1      38.571  36.480  13.760  1.00  0.00     0.106 C 
HETATM   16  C   UNL     1      41.139  35.384  15.759  1.00  0.00     0.006 C 
HETATM   17  C   UNL     1      41.703  33.160  16.084  1.00  0.00     0.024 C 
ENDROOT
BRANCH  13  18
HETATM   18  C   UNL     1      44.184  35.248  15.937  1.00  0.00     0.221 C 
HETATM   19  O   UNL     1      44.081  34.831  14.737  1.00  0.00    -0.286 OA
BRANCH  18  20
HETATM   20  C   UNL     1      45.426  35.751  16.294  1.00  0.00     0.031 C 
HETATM   21  C   UNL     1      45.557  37.115  16.454  1.00  0.00     0.017 C 
HETATM   22  C   UNL     1      46.326  37.842  17.328  1.00  0.00     0.002 C 
HETATM   23  C   UNL     1      47.241  37.314  18.230  1.00  0.00     0.017 C 
HETATM   24  C   UNL     1      47.651  36.026  18.221  1.00  0.00     0.087 C 
HETATM   25  N   UNL     1      47.456  35.018  17.390  1.00  0.00    -0.374 N 
HETATM   26  C   UNL     1      46.489  34.882  16.482  1.00  0.00     0.102 C 
ATOM     27  HN  UNL     1      48.126  34.251  17.450  1.00  0.00     0.164 HD
ENDBRANCH  18  20
ENDBRANCH  13  18
BRANCH  13  28
HETATM   28  O   UNL     1      43.439  34.589  17.957  1.00  0.00    -0.360 OA
ATOM     29  HO  UNL     1      44.277  34.143  17.927  1.00  0.00     0.213 HD
ENDBRANCH  13  28
BRANCH   9  30
HETATM   30  O   UNL     1      39.696  32.469  16.962  1.00  0.00    -0.386 OA
ATOM     31  HO  UNL     1      38.812  32.815  16.984  1.00  0.00     0.210 HD
ENDBRANCH   9  30
BRANCH  15  32
HETATM   32  O   UNL     1      38.486  37.760  13.367  1.00  0.00    -0.358 OA
ATOM     33  HO  UNL     1      37.955  38.363  13.873  1.00  0.00     0.217 HD
ENDBRANCH  15  32
TORSDOF 5
ENDMDL
MODEL 3
REMARK VINA RESULT:      -8.5      2.127      6.197
REMARK  5 active torsions:
REMARK  status: ('A' for Active; 'I' for Inactive)
REMARK    1  A    between atoms: C_1  and  C_17 
REMARK    2  A    between atoms: C_1  and  C_29 
REMARK    3  A    between atoms: O_14  and  C_31 
REMARK    4  A    between atoms: O_19  and  C_29 
REMARK    5  A    between atoms: O_21  and  C_23 
ROOT
HETATM    1  C   UNL     1      37.629  34.553  14.732  1.00  0.00     0.091 C 
HETATM    2  C   UNL     1      37.647  35.732  14.107  1.00  0.00     0.057 C 
HETATM    3  N   UNL     1      42.487  36.408  17.370  1.00  0.00    -0.357 N 
ATOM      4  HN  UNL     1      42.747  37.014  18.149  1.00  0.00     0.162 HD
HETATM    5  C   UNL     1      39.866  33.844  15.041  1.00  0.00     0.056 C 
HETATM    6  C   UNL     1      40.422  35.074  14.845  1.00  0.00     0.043 C 
HETATM    7  C   UNL     1      41.360  36.569  16.500  1.00  0.00     0.099 C 
HETATM    8  F   UNL     1      40.876  36.275  12.895  1.00  0.00    -0.202 F 
HETATM    9  C   UNL     1      40.683  32.927  15.690  1.00  0.00     0.192 C 
HETATM   10  C   UNL     1      40.016  35.938  13.862  1.00  0.00     0.162 C 
HETATM   11  N   UNL     1      38.536  33.640  14.971  1.00  0.00    -0.366 N 
ATOM     12  HN  UNL     1      38.206  32.686  15.116  1.00  0.00     0.165 HD
HETATM   13  C   UNL     1      43.191  35.200  16.922  1.00  0.00     0.228 C 
HETATM   14  C   UNL     1      42.172  34.546  16.306  1.00  0.00     0.017 C 
HETATM   15  C   UNL     1      38.755  36.474  13.762  1.00  0.00     0.106 C 
HETATM   16  C   UNL     1      41.279  35.424  15.840  1.00  0.00     0.006 C 
HETATM   17  C   UNL     1      41.986  33.228  16.054  1.00  0.00     0.024 C 
ENDROOT
BRANCH  13  18
HETATM   18  C   UNL     1      44.310  35.490  16.196  1.00  0.00     0.221 C 
HETATM   19  O   UNL     1      45.210  36.185  16.774  1.00  0.00    -0.286 OA
BRANCH  18  20
HETATM   20  C   UNL     1      44.554  35.175  14.868  1.00  0.00     0.031 C 
HETATM   21  C   UNL     1      44.337  36.149  13.915  1.00  0.00     0.017 C 
HETATM   22  C   UNL     1      45.001  36.417  12.745  1.00  0.00     0.002 C 
HETATM   23  C   UNL     1      46.041  35.664  12.216  1.00  0.00     0.017 C 
HETATM   24  C   UNL     1      46.399  34.445  12.677  1.00  0.00     0.087 C 
HETATM   25  N   UNL     1      45.872  33.620  13.564  1.00  0.00    -0.374 N 
HETATM   26  C   UNL     1      45.008  33.908  14.536  1.00  0.00     0.102 C 
ATOM     27  HN  UNL     1      46.162  32.644  13.496  1.00  0.00     0.164 HD
ENDBRANCH  18  20
ENDBRANCH  13  18
BRANCH  13  28
HETATM   28  O   UNL     1      43.502  34.641  18.119  1.00  0.00    -0.360 OA
ATOM     29  HO  UNL     1      42.810  34.069  18.429  1.00  0.00     0.213 HD
ENDBRANCH  13  28
BRANCH   9  30
HETATM   30  O   UNL     1      39.989  32.339  16.759  1.00  0.00    -0.386 OA
ATOM     31  HO  UNL     1      40.174  31.408  16.792  1.00  0.00     0.210 HD
ENDBRANCH   9  30
BRANCH  15  32
HETATM   32  O   UNL     1      38.598  37.769  13.448  1.00  0.00    -0.358 OA
ATOM     33  HO  UNL     1      38.957  38.430  14.029  1.00  0.00     0.217 HD
ENDBRANCH  15  32
TORSDOF 5
ENDMDL
MODEL 4
REMARK VINA RESULT:      -8.4      1.836      2.393
REMARK  5 active torsions:
REMARK  status: ('A' for Active; 'I' for Inactive)
REMARK    1  A    between atoms: C_1  and  C_17 
REMARK    2  A    between atoms: C_1  and  C_29 
REMARK    3  A    between atoms: O_14  and  C_31 
REMARK    4  A    between atoms: O_19  and  C_29 
REMARK    5  A    between atoms: O_21  and  C_23 
ROOT
HETATM    1  C   UNL     1      49.128  36.246  17.543  1.00  0.00     0.091 C 
HETATM    2  C   UNL     1      49.378  35.137  16.844  1.00  0.00     0.057 C 
HETATM    3  N   UNL     1      43.628  34.319  17.736  1.00  0.00    -0.357 N 
ATOM      4  HN  UNL     1      43.074  33.648  18.269  1.00  0.00     0.162 HD
HETATM    5  C   UNL     1      46.958  37.003  16.979  1.00  0.00     0.056 C 
HETATM    6  C   UNL     1      46.541  35.821  16.441  1.00  0.00     0.043 C 
HETATM    7  C   UNL     1      45.015  34.204  17.394  1.00  0.00     0.099 C 
HETATM    8  F   UNL     1      46.941  34.839  14.362  1.00  0.00    -0.202 F 
HETATM    9  C   UNL     1      45.939  37.881  17.328  1.00  0.00     0.192 C 
HETATM   10  C   UNL     1      47.324  35.045  15.627  1.00  0.00     0.162 C 
HETATM   11  N   UNL     1      48.197  37.164  17.484  1.00  0.00    -0.366 N 
ATOM     12  HN  UNL     1      48.430  38.086  17.853  1.00  0.00     0.165 HD
HETATM   13  C   UNL     1      43.163  35.592  17.170  1.00  0.00     0.228 C 
HETATM   14  C   UNL     1      44.340  36.265  17.101  1.00  0.00     0.017 C 
HETATM   15  C   UNL     1      48.518  34.476  15.997  1.00  0.00     0.106 C 
HETATM   16  C   UNL     1      45.353  35.405  16.952  1.00  0.00     0.006 C 
HETATM   17  C   UNL     1      44.604  37.594  17.089  1.00  0.00     0.024 C 
ENDROOT
BRANCH  13  18
HETATM   18  C   UNL     1      42.445  35.417  16.021  1.00  0.00     0.221 C 
HETATM   19  O   UNL     1      43.107  35.289  14.939  1.00  0.00    -0.286 OA
BRANCH  18  20
HETATM   20  C   UNL     1      41.066  35.435  15.884  1.00  0.00     0.031 C 
HETATM   21  C   UNL     1      40.501  36.410  15.087  1.00  0.00     0.017 C 
HETATM   22  C   UNL     1      39.399  36.368  14.270  1.00  0.00     0.002 C 
HETATM   23  C   UNL     1      38.534  35.290  14.136  1.00  0.00     0.017 C 
HETATM   24  C   UNL     1      38.541  34.212  14.952  1.00  0.00     0.087 C 
HETATM   25  N   UNL     1      39.184  33.924  16.069  1.00  0.00    -0.374 N 
HETATM   26  C   UNL     1      40.299  34.483  16.538  1.00  0.00     0.102 C 
ATOM     27  HN  UNL     1      38.779  33.184  16.642  1.00  0.00     0.164 HD
ENDBRANCH  18  20
ENDBRANCH  13  18
BRANCH  13  28
HETATM   28  O   UNL     1      42.382  36.039  18.185  1.00  0.00    -0.360 OA
ATOM     29  HO  UNL     1      42.661  35.688  19.023  1.00  0.00     0.213 HD
ENDBRANCH  13  28
BRANCH   9  30
HETATM   30  O   UNL     1      46.126  38.333  18.643  1.00  0.00    -0.386 OA
ATOM     31  HO  UNL     1      45.371  38.107  19.174  1.00  0.00     0.210 HD
ENDBRANCH   9  30
BRANCH  15  32
HETATM   32  O   UNL     1      48.799  33.213  15.640  1.00  0.00    -0.358 OA
ATOM     33  HO  UNL     1      48.143  32.709  15.173  1.00  0.00     0.217 HD
ENDBRANCH  15  32
TORSDOF 5
ENDMDL
MODEL 5
REMARK VINA RESULT:      -8.1      1.549      2.009
REMARK  5 active torsions:
REMARK  status: ('A' for Active; 'I' for Inactive)
REMARK    1  A    between atoms: C_1  and  C_17 
REMARK    2  A    between atoms: C_1  and  C_29 
REMARK    3  A    between atoms: O_14  and  C_31 
REMARK    4  A    between atoms: O_19  and  C_29 
REMARK    5  A    between atoms: O_21  and  C_23 
ROOT
HETATM    1  C   UNL     1      48.062  34.485  14.988  1.00  0.00     0.091 C 
HETATM    2  C   UNL     1      47.828  34.577  13.678  1.00  0.00     0.057 C 
HETATM    3  N   UNL     1      42.356  33.377  15.451  1.00  0.00    -0.357 N 
ATOM      4  HN  UNL     1      41.721  32.588  15.332  1.00  0.00     0.162 HD
HETATM    5  C   UNL     1      46.175  35.331  16.139  1.00  0.00     0.056 C 
HETATM    6  C   UNL     1      45.323  35.242  15.077  1.00  0.00     0.043 C 
HETATM    7  C   UNL     1      43.556  33.630  14.710  1.00  0.00     0.099 C 
HETATM    8  F   UNL     1      45.030  36.611  13.209  1.00  0.00    -0.202 F 
HETATM    9  C   UNL     1      45.557  35.434  17.380  1.00  0.00     0.192 C 
HETATM   10  C   UNL     1      45.670  35.596  13.799  1.00  0.00     0.162 C 
HETATM   11  N   UNL     1      47.469  34.968  16.051  1.00  0.00    -0.366 N 
ATOM     12  HN  UNL     1      48.039  35.080  16.889  1.00  0.00     0.165 HD
HETATM   13  C   UNL     1      42.222  34.477  16.416  1.00  0.00     0.228 C 
HETATM   14  C   UNL     1      43.520  34.862  16.519  1.00  0.00     0.017 C 
HETATM   15  C   UNL     1      46.671  35.006  13.067  1.00  0.00     0.106 C 
HETATM   16  C   UNL     1      44.171  34.590  15.384  1.00  0.00     0.006 C 
HETATM   17  C   UNL     1      44.180  35.503  17.515  1.00  0.00     0.024 C 
ENDROOT
BRANCH  13  18
HETATM   18  C   UNL     1      41.298  35.402  16.022  1.00  0.00     0.221 C 
HETATM   19  O   UNL     1      41.248  36.488  16.688  1.00  0.00    -0.286 OA
BRANCH  18  20
HETATM   20  C   UNL     1      40.351  35.268  15.018  1.00  0.00     0.031 C 
HETATM   21  C   UNL     1      39.214  34.536  15.286  1.00  0.00     0.017 C 
HETATM   22  C   UNL     1      37.921  34.704  14.857  1.00  0.00     0.002 C 
HETATM   23  C   UNL     1      37.491  35.661  13.947  1.00  0.00     0.017 C 
HETATM   24  C   UNL     1      38.324  36.420  13.201  1.00  0.00     0.087 C 
HETATM   25  N   UNL     1      39.632  36.414  13.011  1.00  0.00    -0.374 N 
HETATM   26  C   UNL     1      40.568  35.869  13.788  1.00  0.00     0.102 C 
ATOM     27  HN  UNL     1      39.965  36.883  12.169  1.00  0.00     0.164 HD
ENDBRANCH  18  20
ENDBRANCH  13  18
BRANCH  13  28
HETATM   28  O   UNL     1      41.807  33.790  17.511  1.00  0.00    -0.360 OA
ATOM     29  HO  UNL     1      42.162  32.909  17.527  1.00  0.00     0.213 HD
ENDBRANCH  13  28
BRANCH   9  30
HETATM   30  O   UNL     1      46.101  34.490  18.265  1.00  0.00    -0.386 OA
ATOM     31  HO  UNL     1      45.434  34.195  18.873  1.00  0.00     0.210 HD
ENDBRANCH   9  30
BRANCH  15  32
HETATM   32  O   UNL     1      46.478  34.724  11.769  1.00  0.00    -0.358 OA
ATOM     33  HO  UNL     1      46.632  35.403  11.123  1.00  0.00     0.217 HD
ENDBRANCH  15  32
TORSDOF 5
ENDMDL
MODEL 6
REMARK VINA RESULT:      -7.9      2.747      4.748
REMARK  5 active torsions:
REMARK  status: ('A' for Active; 'I' for Inactive)
REMARK    1  A    between atoms: C_1  and  C_17 
REMARK    2  A    between atoms: C_1  and  C_29 
REMARK    3  A    between atoms: O_14  and  C_31 
REMARK    4  A    between atoms: O_19  and  C_29 
REMARK    5  A    between atoms: O_21  and  C_23 
ROOT
HETATM    1  C   UNL     1      47.666  34.827  11.123  1.00  0.00     0.091 C 
HETATM    2  C   UNL     1      48.326  33.791  11.644  1.00  0.00     0.057 C 
HETATM    3  N   UNL     1      47.056  36.608  16.642  1.00  0.00    -0.357 N 
ATOM      4  HN  UNL     1      47.606  37.091  17.352  1.00  0.00     0.162 HD
HETATM    5  C   UNL     1      45.930  35.425  12.617  1.00  0.00     0.056 C 
HETATM    6  C   UNL     1      46.453  34.773  13.695  1.00  0.00     0.043 C 
HETATM    7  C   UNL     1      47.552  35.725  15.628  1.00  0.00     0.099 C 
HETATM    8  F   UNL     1      46.443  32.516  14.292  1.00  0.00    -0.202 F 
HETATM    9  C   UNL     1      44.981  36.394  12.921  1.00  0.00     0.192 C 
HETATM   10  C   UNL     1      47.012  33.524  13.622  1.00  0.00     0.162 C 
HETATM   11  N   UNL     1      46.534  35.419  11.413  1.00  0.00    -0.366 N 
ATOM     12  HN  UNL     1      46.067  35.921  10.658  1.00  0.00     0.165 HD
HETATM   13  C   UNL     1      45.601  36.679  16.457  1.00  0.00     0.228 C 
HETATM   14  C   UNL     1      45.512  36.352  15.143  1.00  0.00     0.017 C 
HETATM   15  C   UNL     1      48.115  33.201  12.870  1.00  0.00     0.106 C 
HETATM   16  C   UNL     1      46.535  35.564  14.795  1.00  0.00     0.006 C 
HETATM   17  C   UNL     1      44.560  36.632  14.219  1.00  0.00     0.024 C 
ENDROOT
BRANCH  13  18
HETATM   18  C   UNL     1      44.924  35.916  17.365  1.00  0.00     0.221 C 
HETATM   19  O   UNL     1      45.497  35.704  18.484  1.00  0.00    -0.286 OA
BRANCH  18  20
HETATM   20  C   UNL     1      43.706  35.279  17.183  1.00  0.00     0.031 C 
HETATM   21  C   UNL     1      42.557  36.042  17.219  1.00  0.00     0.017 C 
HETATM   22  C   UNL     1      41.384  35.924  16.517  1.00  0.00     0.002 C 
HETATM   23  C   UNL     1      41.072  34.900  15.632  1.00  0.00     0.017 C 
HETATM   24  C   UNL     1      41.800  33.768  15.502  1.00  0.00     0.087 C 
HETATM   25  N   UNL     1      42.822  33.265  16.171  1.00  0.00    -0.374 N 
HETATM   26  C   UNL     1      43.674  33.909  16.968  1.00  0.00     0.102 C 
ATOM     27  HN  UNL     1      42.978  32.263  16.064  1.00  0.00     0.164 HD
ENDBRANCH  18  20
ENDBRANCH  13  18
BRANCH  13  28
HETATM   28  O   UNL     1      45.394  38.004  16.665  1.00  0.00    -0.360 OA
ATOM     29  HO  UNL     1      46.179  38.512  16.496  1.00  0.00     0.213 HD
ENDBRANCH  13  28
BRANCH   9  30
HETATM   30  O   UNL     1      45.300  37.596  12.270  1.00  0.00    -0.386 OA
ATOM     31  HO  UNL     1      45.687  38.206  12.887  1.00  0.00     0.210 HD
ENDBRANCH   9  30
BRANCH  15  32
HETATM   32  O   UNL     1      49.067  32.403  13.380  1.00  0.00    -0.358 OA
ATOM     33  HO  UNL     1      49.974  32.681  13.334  1.00  0.00     0.217 HD
ENDBRANCH  15  32
TORSDOF 5
ENDMDL
MODEL 7
REMARK VINA RESULT:      -7.5      2.500      6.446
REMARK  5 active torsions:
REMARK  status: ('A' for Active; 'I' for Inactive)
REMARK    1  A    between atoms: C_1  and  C_17 
REMARK    2  A    between atoms: C_1  and  C_29 
REMARK    3  A    between atoms: O_14  and  C_31 
REMARK    4  A    between atoms: O_19  and  C_29 
REMARK    5  A    between atoms: O_21  and  C_23 
ROOT
HETATM    1  C   UNL     1      40.126  33.035  15.641  1.00  0.00     0.091 C 
HETATM    2  C   UNL     1      40.055  34.360  15.782  1.00  0.00     0.057 C 
HETATM    3  N   UNL     1      45.063  33.446  18.717  1.00  0.00    -0.357 N 
ATOM      4  HN  UNL     1      45.348  33.533  19.693  1.00  0.00     0.162 HD
HETATM    5  C   UNL     1      42.406  32.433  15.433  1.00  0.00     0.056 C 
HETATM    6  C   UNL     1      42.897  33.600  15.942  1.00  0.00     0.043 C 
HETATM    7  C   UNL     1      43.877  33.984  18.120  1.00  0.00     0.099 C 
HETATM    8  F   UNL     1      43.174  35.710  14.983  1.00  0.00    -0.202 F 
HETATM    9  C   UNL     1      43.301  31.370  15.433  1.00  0.00     0.192 C 
HETATM   10  C   UNL     1      42.392  34.834  15.623  1.00  0.00     0.162 C 
HETATM   11  N   UNL     1      41.084  32.210  15.301  1.00  0.00    -0.366 N 
ATOM     12  HN  UNL     1      40.804  31.315  14.898  1.00  0.00     0.165 HD
HETATM   13  C   UNL     1      45.787  32.744  17.649  1.00  0.00     0.228 C 
HETATM   14  C   UNL     1      44.758  32.474  16.804  1.00  0.00     0.017 C 
HETATM   15  C   UNL     1      41.107  35.244  15.877  1.00  0.00     0.106 C 
HETATM   16  C   UNL     1      43.801  33.397  16.935  1.00  0.00     0.006 C 
HETATM   17  C   UNL     1      44.612  31.509  15.863  1.00  0.00     0.024 C 
ENDROOT
BRANCH  13  18
HETATM   18  C   UNL     1      46.844  33.467  17.176  1.00  0.00     0.221 C 
HETATM   19  O   UNL     1      47.843  32.810  16.735  1.00  0.00    -0.286 OA
BRANCH  18  20
HETATM   20  C   UNL     1      46.988  34.847  17.185  1.00  0.00     0.031 C 
HETATM   21  C   UNL     1      46.537  35.558  16.092  1.00  0.00     0.017 C 
HETATM   22  C   UNL     1      45.963  36.802  16.011  1.00  0.00     0.002 C 
HETATM   23  C   UNL     1      45.783  37.679  17.074  1.00  0.00     0.017 C 
HETATM   24  C   UNL     1      46.341  37.510  18.293  1.00  0.00     0.087 C 
HETATM   25  N   UNL     1      47.226  36.655  18.775  1.00  0.00    -0.374 N 
HETATM   26  C   UNL     1      47.571  35.467  18.279  1.00  0.00     0.102 C 
ATOM     27  HN  UNL     1      47.703  36.939  19.631  1.00  0.00     0.164 HD
ENDBRANCH  18  20
ENDBRANCH  13  18
BRANCH  13  28
HETATM   28  O   UNL     1      46.197  31.638  18.319  1.00  0.00    -0.360 OA
ATOM     29  HO  UNL     1      45.895  30.841  17.899  1.00  0.00     0.213 HD
ENDBRANCH  13  28
BRANCH   9  30
HETATM   30  O   UNL     1      42.702  30.240  16.011  1.00  0.00    -0.386 OA
ATOM     31  HO  UNL     1      41.799  30.172  15.727  1.00  0.00     0.210 HD
ENDBRANCH   9  30
BRANCH  15  32
HETATM   32  O   UNL     1      40.876  36.480  16.346  1.00  0.00    -0.358 OA
ATOM     33  HO  UNL     1      41.044  37.226  15.782  1.00  0.00     0.217 HD
ENDBRANCH  15  32
TORSDOF 5
ENDMDL
MODEL 8
REMARK VINA RESULT:      -7.5      4.086      6.474
REMARK  5 active torsions:
REMARK  status: ('A' for Active; 'I' for Inactive)
REMARK    1  A    between atoms: C_1  and  C_17 
REMARK    2  A    between atoms: C_1  and  C_29 
REMARK    3  A    between atoms: O_14  and  C_31 
REMARK    4  A    between atoms: O_19  and  C_29 
REMARK    5  A    between atoms: O_21  and  C_23 
ROOT
HETATM    1  C   UNL     1      47.329  31.455  11.158  1.00  0.00     0.091 C 
HETATM    2  C   UNL     1      48.353  32.230  10.796  1.00  0.00     0.057 C 
HETATM    3  N   UNL     1      44.891  36.387  13.088  1.00  0.00    -0.357 N 
ATOM      4  HN  UNL     1      44.380  37.184  12.708  1.00  0.00     0.162 HD
HETATM    5  C   UNL     1      46.418  32.321  13.163  1.00  0.00     0.056 C 
HETATM    6  C   UNL     1      46.988  33.555  13.044  1.00  0.00     0.043 C 
HETATM    7  C   UNL     1      45.922  35.639  12.432  1.00  0.00     0.099 C 
HETATM    8  F   UNL     1      49.153  34.309  13.484  1.00  0.00    -0.202 F 
HETATM    9  C   UNL     1      45.342  32.253  14.040  1.00  0.00     0.192 C 
HETATM   10  C   UNL     1      48.281  33.753  12.636  1.00  0.00     0.162 C 
HETATM   11  N   UNL     1      46.613  31.351  12.249  1.00  0.00    -0.366 N 
ATOM     12  HN  UNL     1      46.160  30.454  12.423  1.00  0.00     0.165 HD
HETATM   13  C   UNL     1      44.715  35.780  14.414  1.00  0.00     0.228 C 
HETATM   14  C   UNL     1      45.180  34.529  14.166  1.00  0.00     0.017 C 
HETATM   15  C   UNL     1      48.781  33.385  11.410  1.00  0.00     0.106 C 
HETATM   16  C   UNL     1      46.087  34.562  13.185  1.00  0.00     0.006 C 
HETATM   17  C   UNL     1      44.923  33.348  14.780  1.00  0.00     0.024 C 
ENDROOT
BRANCH  13  18
HETATM   18  C   UNL     1      45.309  36.511  15.403  1.00  0.00     0.221 C 
HETATM   19  O   UNL     1      45.158  37.776  15.358  1.00  0.00    -0.286 OA
BRANCH  18  20
HETATM   20  C   UNL     1      46.125  36.038  16.420  1.00  0.00     0.031 C 
HETATM   21  C   UNL     1      47.487  36.004  16.202  1.00  0.00     0.017 C 
HETATM   22  C   UNL     1      48.535  36.214  17.064  1.00  0.00     0.002 C 
HETATM   23  C   UNL     1      48.423  36.438  18.430  1.00  0.00     0.017 C 
HETATM   24  C   UNL     1      47.280  36.270  19.131  1.00  0.00     0.087 C 
HETATM   25  N   UNL     1      46.092  35.777  18.826  1.00  0.00    -0.374 N 
HETATM   26  C   UNL     1      45.559  35.621  17.614  1.00  0.00     0.102 C 
ATOM     27  HN  UNL     1      45.514  35.481  19.612  1.00  0.00     0.164 HD
ENDBRANCH  18  20
ENDBRANCH  13  18
BRANCH  13  28
HETATM   28  O   UNL     1      43.362  35.808  14.516  1.00  0.00    -0.360 OA
ATOM     29  HO  UNL     1      42.943  35.594  13.690  1.00  0.00     0.213 HD
ENDBRANCH  13  28
BRANCH   9  30
HETATM   30  O   UNL     1      44.253  31.627  13.414  1.00  0.00    -0.386 OA
ATOM     31  HO  UNL     1      44.484  30.736  13.178  1.00  0.00     0.210 HD
ENDBRANCH   9  30
BRANCH  15  32
HETATM   32  O   UNL     1      49.595  34.216  10.740  1.00  0.00    -0.358 OA
ATOM     33  HO  UNL     1      50.402  34.502  11.153  1.00  0.00     0.217 HD
ENDBRANCH  15  32
TORSDOF 5
ENDMDL
MODEL 9
REMARK VINA RESULT:      -7.4      3.154      5.033
REMARK  5 active torsions:
REMARK  status: ('A' for Active; 'I' for Inactive)
REMARK    1  A    between atoms: C_1  and  C_17 
REMARK    2  A    between atoms: C_1  and  C_29 
REMARK    3  A    between atoms: O_14  and  C_31 
REMARK    4  A    between atoms: O_19  and  C_29 
REMARK    5  A    between atoms: O_21  and  C_23 
ROOT
HETATM    1  C   UNL     1      46.176  37.449  18.211  1.00  0.00     0.091 C 
HETATM    2  C   UNL     1      47.412  37.170  17.790  1.00  0.00     0.057 C 
HETATM    3  N   UNL     1      44.908  31.982  16.629  1.00  0.00    -0.357 N 
ATOM      4  HN  UNL     1      45.010  31.037  17.001  1.00  0.00     0.162 HD
HETATM    5  C   UNL     1      44.642  36.314  16.811  1.00  0.00     0.056 C 
HETATM    6  C   UNL     1      45.553  35.431  16.306  1.00  0.00     0.043 C 
HETATM    7  C   UNL     1      45.803  33.082  16.829  1.00  0.00     0.099 C 
HETATM    8  F   UNL     1      47.179  35.664  14.648  1.00  0.00    -0.202 F 
HETATM    9  C   UNL     1      43.313  35.938  16.657  1.00  0.00     0.192 C 
HETATM   10  C   UNL     1      46.821  35.788  15.931  1.00  0.00     0.162 C 
HETATM   11  N   UNL     1      44.983  37.260  17.707  1.00  0.00    -0.366 N 
ATOM     12  HN  UNL     1      44.243  37.888  18.021  1.00  0.00     0.165 HD
HETATM   13  C   UNL     1      43.816  32.481  15.782  1.00  0.00     0.228 C 
HETATM   14  C   UNL     1      43.885  33.807  16.064  1.00  0.00     0.017 C 
HETATM   15  C   UNL     1      47.770  36.311  16.775  1.00  0.00     0.106 C 
HETATM   16  C   UNL     1      45.136  34.141  16.397  1.00  0.00     0.006 C 
HETATM   17  C   UNL     1      42.946  34.782  15.987  1.00  0.00     0.024 C 
ENDROOT
BRANCH  13  18
HETATM   18  C   UNL     1      43.945  32.084  14.482  1.00  0.00     0.221 C 
HETATM   19  O   UNL     1      42.869  31.922  13.817  1.00  0.00    -0.286 OA
BRANCH  18  20
HETATM   20  C   UNL     1      45.118  31.765  13.814  1.00  0.00     0.031 C 
HETATM   21  C   UNL     1      45.751  32.758  13.096  1.00  0.00     0.017 C 
HETATM   22  C   UNL     1      47.086  32.994  12.884  1.00  0.00     0.002 C 
HETATM   23  C   UNL     1      48.128  32.181  13.314  1.00  0.00     0.017 C 
HETATM   24  C   UNL     1      47.956  30.938  13.817  1.00  0.00     0.087 C 
HETATM   25  N   UNL     1      46.908  30.141  13.926  1.00  0.00    -0.374 N 
HETATM   26  C   UNL     1      45.618  30.475  13.888  1.00  0.00     0.102 C 
ATOM     27  HN  UNL     1      47.111  29.150  14.055  1.00  0.00     0.164 HD
ENDBRANCH  18  20
ENDBRANCH  13  18
BRANCH  13  28
HETATM   28  O   UNL     1      42.753  31.889  16.383  1.00  0.00    -0.360 OA
ATOM     29  HO  UNL     1      42.955  31.003  16.659  1.00  0.00     0.213 HD
ENDBRANCH  13  28
BRANCH   9  30
HETATM   30  O   UNL     1      42.643  36.039  17.886  1.00  0.00    -0.386 OA
ATOM     31  HO  UNL     1      43.096  36.652  18.453  1.00  0.00     0.210 HD
ENDBRANCH   9  30
BRANCH  15  32
HETATM   32  O   UNL     1      49.042  35.888  16.700  1.00  0.00    -0.358 OA
ATOM     33  HO  UNL     1      49.415  35.417  17.436  1.00  0.00     0.217 HD
ENDBRANCH  15  32
TORSDOF 5
ENDMDL
