MODEL 1
REMARK VINA RESULT:      -9.7      0.000      0.000
REMARK  4 active torsions:
REMARK  status: ('A' for Active; 'I' for Inactive)
REMARK    1  A    between atoms: C_8  and  C_30 
REMARK    2  A    between atoms: O_12  and  C_32 
REMARK    3  A    between atoms: C_23  and  O_26 
REMARK    4  A    between atoms: C_31  and  C_33 
ROOT
HETATM    1  C   UNL     1      -1.020   5.994  19.353  1.00  0.00     0.041 C 
HETATM    2  C   UNL     1       1.881   9.843  18.531  1.00  0.00     0.333 C 
HETATM    3  C   UNL     1      -0.712   8.037  21.388  1.00  0.00     0.039 C 
HETATM    4  C   UNL     1       0.538   7.940  19.302  1.00  0.00     0.077 C 
HETATM    5  C   UNL     1       4.903   7.085  18.786  1.00  0.00     0.044 C 
HETATM    6  N   UNL     1       3.163   9.894  18.896  1.00  0.00    -0.292 N 
ATOM      7  HN  UNL     1       3.742  10.723  19.028  1.00  0.00     0.172 HD
HETATM    8  C   UNL     1       4.025   6.067  18.492  1.00  0.00     0.033 C 
HETATM    9  N   UNL     1       1.500   8.540  18.565  1.00  0.00    -0.258 N 
HETATM   10  O   UNL     1       1.209  10.778  18.143  1.00  0.00    -0.246 OA
HETATM   11  C   UNL     1       2.876   6.631  17.894  1.00  0.00     0.036 C 
HETATM   12  C   UNL     1      -2.000   6.344  20.242  1.00  0.00     0.039 C 
HETATM   13  C   UNL     1       3.512   8.630  19.049  1.00  0.00     0.137 C 
HETATM   14  C   UNL     1      -0.099   6.841  18.795  1.00  0.00     0.093 C 
HETATM   15  C   UNL     1       2.617   7.837  18.423  1.00  0.00     0.088 C 
HETATM   16  C   UNL     1       0.318   8.387  20.571  1.00  0.00     0.036 C 
HETATM   17  N   UNL     1       4.480   7.982  19.651  1.00  0.00    -0.340 N 
ATOM     18  HN  UNL     1       4.832   8.141  20.595  1.00  0.00     0.167 HD
HETATM   19  C   UNL     1      -1.901   7.498  21.002  1.00  0.00     0.065 C 
ENDROOT
BRANCH  14  20
HETATM   20  O   UNL     1       0.189   6.570  17.498  1.00  0.00    -0.358 OA
ATOM     21  HO  UNL     1       0.671   7.258  17.055  1.00  0.00     0.217 HD
ENDBRANCH  14  20
BRANCH  19  22
HETATM   22  O   UNL     1      -3.032   8.148  21.384  1.00  0.00    -0.361 OA
ATOM     23  HO  UNL     1      -2.924   8.976  21.836  1.00  0.00     0.217 HD
ENDBRANCH  19  22
BRANCH   5  24
HETATM   24  C   UNL     1       5.955   7.377  17.948  1.00  0.00    -0.009 C 
HETATM   25  C   UNL     1       6.904   8.322  18.292  1.00  0.00     0.015 C 
HETATM   26  C   UNL     1       8.076   8.571  17.607  1.00  0.00     0.019 C 
HETATM   27  C   UNL     1       8.622   7.902  16.526  1.00  0.00     0.040 C 
HETATM   28  C   UNL     1       8.346   6.558  16.287  1.00  0.00     0.018 C 
HETATM   29  C   UNL     1       7.026   6.188  16.046  1.00  0.00     0.002 C 
HETATM   30  C   UNL     1       5.954   6.802  16.687  1.00  0.00     0.014 C 
BRANCH  27  31
HETATM   31  C   UNL     1       9.618   8.573  15.654  1.00  0.00     0.209 C 
HETATM   32  O   UNL     1      10.573   7.933  15.211  1.00  0.00    -0.644 OA
HETATM   33  O   UNL     1       9.489   9.797  15.517  1.00  0.00    -0.644 OA
ENDBRANCH  27  31
ENDBRANCH   5  24
TORSDOF 4
ENDMDL
MODEL 2
REMARK VINA RESULT:      -9.3      2.332      9.117
REMARK  4 active torsions:
REMARK  status: ('A' for Active; 'I' for Inactive)
REMARK    1  A    between atoms: C_8  and  C_30 
REMARK    2  A    between atoms: O_12  and  C_32 
REMARK    3  A    between atoms: C_23  and  O_26 
REMARK    4  A    between atoms: C_31  and  C_33 
ROOT
HETATM    1  C   UNL     1      10.807  10.579  15.540  1.00  0.00     0.041 C 
HETATM    2  C   UNL     1       7.579   6.909  15.440  1.00  0.00     0.333 C 
HETATM    3  C   UNL     1      11.719   7.840  15.819  1.00  0.00     0.039 C 
HETATM    4  C   UNL     1       9.388   8.539  15.737  1.00  0.00     0.077 C 
HETATM    5  C   UNL     1       6.395   8.412  19.065  1.00  0.00     0.044 C 
HETATM    6  N   UNL     1       7.024   6.382  16.532  1.00  0.00    -0.292 N 
ATOM      7  HN  UNL     1       6.588   5.466  16.632  1.00  0.00     0.172 HD
HETATM    8  C   UNL     1       6.939   9.638  18.756  1.00  0.00     0.033 C 
HETATM    9  N   UNL     1       8.107   8.110  15.791  1.00  0.00    -0.258 N 
HETATM   10  O   UNL     1       7.531   6.446  14.318  1.00  0.00    -0.246 OA
HETATM   11  C   UNL     1       7.112   9.706  17.356  1.00  0.00     0.036 C 
HETATM   12  C   UNL     1      12.024  10.129  15.103  1.00  0.00     0.039 C 
HETATM   13  C   UNL     1       7.168   7.314  17.456  1.00  0.00     0.137 C 
HETATM   14  C   UNL     1       9.636   9.869  15.536  1.00  0.00     0.093 C 
HETATM   15  C   UNL     1       7.430   8.499  16.864  1.00  0.00     0.088 C 
HETATM   16  C   UNL     1      10.384   7.646  15.999  1.00  0.00     0.036 C 
HETATM   17  N   UNL     1       7.129   7.362  18.766  1.00  0.00    -0.340 N 
ATOM     18  HN  UNL     1       7.576   6.718  19.419  1.00  0.00     0.167 HD
HETATM   19  C   UNL     1      12.297   8.774  15.013  1.00  0.00     0.065 C 
ENDROOT
BRANCH  14  20
HETATM   20  O   UNL     1       8.541  10.607  15.228  1.00  0.00    -0.358 OA
ATOM     21  HO  UNL     1       7.726  10.248  15.559  1.00  0.00     0.217 HD
ENDBRANCH  14  20
BRANCH  19  22
HETATM   22  O   UNL     1      13.171   8.327  14.073  1.00  0.00    -0.361 OA
ATOM     23  HO  UNL     1      13.310   8.878  13.313  1.00  0.00     0.217 HD
ENDBRANCH  19  22
BRANCH   5  24
HETATM   24  C   UNL     1       5.042   8.271  19.278  1.00  0.00    -0.009 C 
HETATM   25  C   UNL     1       4.323   9.229  19.969  1.00  0.00     0.015 C 
HETATM   26  C   UNL     1       2.949   9.265  20.095  1.00  0.00     0.019 C 
HETATM   27  C   UNL     1       1.989   8.463  19.504  1.00  0.00     0.040 C 
HETATM   28  C   UNL     1       2.220   7.830  18.285  1.00  0.00     0.018 C 
HETATM   29  C   UNL     1       3.261   6.909  18.206  1.00  0.00     0.002 C 
HETATM   30  C   UNL     1       4.452   7.073  18.906  1.00  0.00     0.014 C 
BRANCH  27  31
HETATM   31  C   UNL     1       0.635   8.350  20.100  1.00  0.00     0.209 C 
HETATM   32  O   UNL     1       0.425   8.792  21.231  1.00  0.00    -0.644 OA
HETATM   33  O   UNL     1      -0.195   7.696  19.454  1.00  0.00    -0.644 OA
ENDBRANCH  27  31
ENDBRANCH   5  24
TORSDOF 4
ENDMDL
MODEL 3
REMARK VINA RESULT:      -8.0      5.297      8.764
REMARK  4 active torsions:
REMARK  status: ('A' for Active; 'I' for Inactive)
REMARK    1  A    between atoms: C_8  and  C_30 
REMARK    2  A    between atoms: O_12  and  C_32 
REMARK    3  A    between atoms: C_23  and  O_26 
REMARK    4  A    between atoms: C_31  and  C_33 
ROOT
HETATM    1  C   UNL     1       7.169   1.975  10.759  1.00  0.00     0.041 C 
HETATM    2  C   UNL     1       3.224   3.367  13.289  1.00  0.00     0.333 C 
HETATM    3  C   UNL     1       5.386  -0.021  11.875  1.00  0.00     0.039 C 
HETATM    4  C   UNL     1       5.218   2.377  12.258  1.00  0.00     0.077 C 
HETATM    5  C   UNL     1       5.966   4.578  16.085  1.00  0.00     0.044 C 
HETATM    6  N   UNL     1       3.206   3.502  14.616  1.00  0.00    -0.292 N 
ATOM      7  HN  UNL     1       2.394   3.501  15.234  1.00  0.00     0.172 HD
HETATM    8  C   UNL     1       6.949   4.639  15.124  1.00  0.00     0.033 C 
HETATM    9  N   UNL     1       4.525   3.345  12.900  1.00  0.00    -0.258 N 
HETATM   10  O   UNL     1       2.255   3.365  12.556  1.00  0.00    -0.246 OA
HETATM   11  C   UNL     1       6.326   4.697  13.857  1.00  0.00     0.036 C 
HETATM   12  C   UNL     1       6.939   0.751  10.192  1.00  0.00     0.039 C 
HETATM   13  C   UNL     1       4.476   3.639  14.949  1.00  0.00     0.137 C 
HETATM   14  C   UNL     1       6.253   2.734  11.437  1.00  0.00     0.093 C 
HETATM   15  C   UNL     1       5.195   3.974  13.857  1.00  0.00     0.088 C 
HETATM   16  C   UNL     1       4.931   1.076  12.541  1.00  0.00     0.036 C 
HETATM   17  N   UNL     1       5.185   3.520  16.047  1.00  0.00    -0.340 N 
ATOM     18  HN  UNL     1       5.139   2.764  16.730  1.00  0.00     0.167 HD
HETATM   19  C   UNL     1       5.885  -0.046  10.609  1.00  0.00     0.065 C 
ENDROOT
BRANCH  14  20
HETATM   20  O   UNL     1       6.362   4.067  11.214  1.00  0.00    -0.358 OA
ATOM     21  HO  UNL     1       6.483   4.584  12.002  1.00  0.00     0.217 HD
ENDBRANCH  14  20
BRANCH  19  22
HETATM   22  O   UNL     1       5.296  -0.894   9.726  1.00  0.00    -0.361 OA
ATOM     23  HO  UNL     1       4.821  -0.505   9.002  1.00  0.00     0.217 HD
ENDBRANCH  19  22
BRANCH   5  24
HETATM   24  C   UNL     1       5.565   5.708  16.761  1.00  0.00    -0.009 C 
HETATM   25  C   UNL     1       4.455   5.693  17.586  1.00  0.00     0.015 C 
HETATM   26  C   UNL     1       4.067   6.715  18.428  1.00  0.00     0.019 C 
HETATM   27  C   UNL     1       4.712   7.901  18.728  1.00  0.00     0.040 C 
HETATM   28  C   UNL     1       6.096   8.020  18.637  1.00  0.00     0.018 C 
HETATM   29  C   UNL     1       6.694   7.830  17.394  1.00  0.00     0.002 C 
HETATM   30  C   UNL     1       6.220   6.896  16.478  1.00  0.00     0.014 C 
BRANCH  27  31
HETATM   31  C   UNL     1       3.950   9.052  19.275  1.00  0.00     0.209 C 
HETATM   32  O   UNL     1       4.549  10.061  19.648  1.00  0.00    -0.644 OA
HETATM   33  O   UNL     1       2.734   8.876  19.436  1.00  0.00    -0.644 OA
ENDBRANCH  27  31
ENDBRANCH   5  24
TORSDOF 4
ENDMDL
MODEL 4
REMARK VINA RESULT:      -7.7      2.372      8.534
REMARK  4 active torsions:
REMARK  status: ('A' for Active; 'I' for Inactive)
REMARK    1  A    between atoms: C_8  and  C_30 
REMARK    2  A    between atoms: O_12  and  C_32 
REMARK    3  A    between atoms: C_23  and  O_26 
REMARK    4  A    between atoms: C_31  and  C_33 
ROOT
HETATM    1  C   UNL     1       8.346   6.559  16.563  1.00  0.00     0.041 C 
HETATM    2  C   UNL     1       3.677   6.159  15.173  1.00  0.00     0.333 C 
HETATM    3  C   UNL     1       7.372   4.059  15.462  1.00  0.00     0.039 C 
HETATM    4  C   UNL     1       5.990   5.998  15.971  1.00  0.00     0.077 C 
HETATM    5  C   UNL     1       2.903   6.364  19.193  1.00  0.00     0.044 C 
HETATM    6  N   UNL     1       2.707   5.691  15.962  1.00  0.00    -0.292 N 
ATOM      7  HN  UNL     1       1.803   5.311  15.683  1.00  0.00     0.172 HD
HETATM    8  C   UNL     1       4.117   6.972  19.415  1.00  0.00     0.033 C 
HETATM    9  N   UNL     1       4.728   6.482  15.968  1.00  0.00    -0.258 N 
HETATM   10  O   UNL     1       3.595   6.351  13.976  1.00  0.00    -0.246 OA
HETATM   11  C   UNL     1       4.581   7.499  18.189  1.00  0.00     0.036 C 
HETATM   12  C   UNL     1       9.115   5.692  15.834  1.00  0.00     0.039 C 
HETATM   13  C   UNL     1       3.183   5.834  17.185  1.00  0.00     0.137 C 
HETATM   14  C   UNL     1       7.014   6.813  16.369  1.00  0.00     0.093 C 
HETATM   15  C   UNL     1       4.212   6.707  17.170  1.00  0.00     0.088 C 
HETATM   16  C   UNL     1       6.181   4.679  15.684  1.00  0.00     0.036 C 
HETATM   17  N   UNL     1       2.912   5.339  18.369  1.00  0.00    -0.340 N 
ATOM     18  HN  UNL     1       2.743   4.360  18.602  1.00  0.00     0.167 HD
HETATM   19  C   UNL     1       8.541   4.661  15.108  1.00  0.00     0.065 C 
ENDROOT
BRANCH  14  20
HETATM   20  O   UNL     1       6.664   8.109  16.556  1.00  0.00    -0.358 OA
ATOM     21  HO  UNL     1       5.888   8.228  17.090  1.00  0.00     0.217 HD
ENDBRANCH  14  20
BRANCH  19  22
HETATM   22  O   UNL     1       9.149   4.219  13.976  1.00  0.00    -0.361 OA
ATOM     23  HO  UNL     1       8.771   3.461  13.548  1.00  0.00     0.217 HD
ENDBRANCH  19  22
BRANCH   5  24
HETATM   24  C   UNL     1       1.723   7.017  19.470  1.00  0.00    -0.009 C 
HETATM   25  C   UNL     1       0.504   6.375  19.346  1.00  0.00     0.015 C 
HETATM   26  C   UNL     1      -0.714   6.881  19.751  1.00  0.00     0.019 C 
HETATM   27  C   UNL     1      -0.998   8.043  20.445  1.00  0.00     0.040 C 
HETATM   28  C   UNL     1      -0.067   8.625  21.302  1.00  0.00     0.018 C 
HETATM   29  C   UNL     1       1.144   9.057  20.766  1.00  0.00     0.002 C 
HETATM   30  C   UNL     1       1.784   8.375  19.735  1.00  0.00     0.014 C 
BRANCH  27  31
HETATM   31  C   UNL     1      -2.356   8.641  20.385  1.00  0.00     0.209 C 
HETATM   32  O   UNL     1      -2.768   9.318  21.327  1.00  0.00    -0.644 OA
HETATM   33  O   UNL     1      -3.055   8.314  19.417  1.00  0.00    -0.644 OA
ENDBRANCH  27  31
ENDBRANCH   5  24
TORSDOF 4
ENDMDL
MODEL 5
REMARK VINA RESULT:      -7.5      4.776      8.785
REMARK  4 active torsions:
REMARK  status: ('A' for Active; 'I' for Inactive)
REMARK    1  A    between atoms: C_8  and  C_30 
REMARK    2  A    between atoms: O_12  and  C_32 
REMARK    3  A    between atoms: C_23  and  O_26 
REMARK    4  A    between atoms: C_31  and  C_33 
ROOT
HETATM    1  C   UNL     1       5.527   0.257  13.072  1.00  0.00     0.041 C 
HETATM    2  C   UNL     1       7.637   4.461  14.404  1.00  0.00     0.333 C 
HETATM    3  C   UNL     1       6.707   1.986  11.064  1.00  0.00     0.039 C 
HETATM    4  C   UNL     1       6.474   2.537  13.424  1.00  0.00     0.077 C 
HETATM    5  C   UNL     1       3.800   5.633  15.242  1.00  0.00     0.044 C 
HETATM    6  N   UNL     1       7.003   5.634  14.422  1.00  0.00    -0.292 N 
ATOM      7  HN  UNL     1       7.413   6.568  14.401  1.00  0.00     0.172 HD
HETATM    8  C   UNL     1       3.401   4.320  15.345  1.00  0.00     0.033 C 
HETATM    9  N   UNL     1       6.692   3.488  14.360  1.00  0.00    -0.258 N 
HETATM   10  O   UNL     1       8.836   4.294  14.509  1.00  0.00    -0.246 OA
HETATM   11  C   UNL     1       4.549   3.522  15.542  1.00  0.00     0.036 C 
HETATM   12  C   UNL     1       6.101  -0.194  11.914  1.00  0.00     0.039 C 
HETATM   13  C   UNL     1       5.723   5.315  14.473  1.00  0.00     0.137 C 
HETATM   14  C   UNL     1       5.938   1.338  13.807  1.00  0.00     0.093 C 
HETATM   15  C   UNL     1       5.595   4.032  14.871  1.00  0.00     0.088 C 
HETATM   16  C   UNL     1       6.694   2.849  12.116  1.00  0.00     0.036 C 
HETATM   17  N   UNL     1       4.586   5.920  14.227  1.00  0.00    -0.340 N 
ATOM     18  HN  UNL     1       4.358   6.495  13.415  1.00  0.00     0.167 HD
HETATM   19  C   UNL     1       6.883   0.637  11.130  1.00  0.00     0.065 C 
ENDROOT
BRANCH  14  20
HETATM   20  O   UNL     1       5.842   1.165  15.148  1.00  0.00    -0.358 OA
ATOM     21  HO  UNL     1       6.673   1.217  15.607  1.00  0.00     0.217 HD
ENDBRANCH  14  20
BRANCH  19  22
HETATM   22  O   UNL     1       7.892   0.106  10.390  1.00  0.00    -0.361 OA
ATOM     23  HO  UNL     1       7.989   0.420   9.499  1.00  0.00     0.217 HD
ENDBRANCH  19  22
BRANCH   5  24
HETATM   24  C   UNL     1       3.732   6.481  16.324  1.00  0.00    -0.009 C 
HETATM   25  C   UNL     1       2.521   6.788  16.918  1.00  0.00     0.015 C 
HETATM   26  C   UNL     1       2.359   7.489  18.095  1.00  0.00     0.019 C 
HETATM   27  C   UNL     1       3.314   7.942  18.988  1.00  0.00     0.040 C 
HETATM   28  C   UNL     1       4.549   7.311  19.115  1.00  0.00     0.018 C 
HETATM   29  C   UNL     1       5.386   7.271  18.002  1.00  0.00     0.002 C 
HETATM   30  C   UNL     1       4.894   7.131  16.708  1.00  0.00     0.014 C 
BRANCH  27  31
HETATM   31  C   UNL     1       2.998   9.047  19.927  1.00  0.00     0.209 C 
HETATM   32  O   UNL     1       1.865   9.145  20.399  1.00  0.00    -0.644 OA
HETATM   33  O   UNL     1       3.885   9.896  20.092  1.00  0.00    -0.644 OA
ENDBRANCH  27  31
ENDBRANCH   5  24
TORSDOF 4
ENDMDL
MODEL 6
REMARK VINA RESULT:      -7.3      5.205      9.293
REMARK  4 active torsions:
REMARK  status: ('A' for Active; 'I' for Inactive)
REMARK    1  A    between atoms: C_8  and  C_30 
REMARK    2  A    between atoms: O_12  and  C_32 
REMARK    3  A    between atoms: C_23  and  O_26 
REMARK    4  A    between atoms: C_31  and  C_33 
ROOT
HETATM    1  C   UNL     1       5.641   3.041   9.805  1.00  0.00     0.041 C 
HETATM    2  C   UNL     1       4.930   1.986  14.525  1.00  0.00     0.333 C 
HETATM    3  C   UNL     1       7.683   1.618  11.294  1.00  0.00     0.039 C 
HETATM    4  C   UNL     1       5.649   2.556  12.250  1.00  0.00     0.077 C 
HETATM    5  C   UNL     1       5.316   6.032  15.052  1.00  0.00     0.044 C 
HETATM    6  N   UNL     1       5.348   2.761  15.527  1.00  0.00    -0.292 N 
ATOM      7  HN  UNL     1       5.501   2.496  16.500  1.00  0.00     0.172 HD
HETATM    8  C   UNL     1       4.988   6.255  13.734  1.00  0.00     0.033 C 
HETATM    9  N   UNL     1       4.952   2.736  13.394  1.00  0.00    -0.258 N 
HETATM   10  O   UNL     1       4.513   0.849  14.625  1.00  0.00    -0.246 OA
HETATM   11  C   UNL     1       4.342   5.101  13.237  1.00  0.00     0.036 C 
HETATM   12  C   UNL     1       6.487   2.117   9.254  1.00  0.00     0.039 C 
HETATM   13  C   UNL     1       5.517   3.948  14.976  1.00  0.00     0.137 C 
HETATM   14  C   UNL     1       5.119   3.001  11.070  1.00  0.00     0.093 C 
HETATM   15  C   UNL     1       4.857   3.997  13.800  1.00  0.00     0.088 C 
HETATM   16  C   UNL     1       6.907   2.037  12.331  1.00  0.00     0.036 C 
HETATM   17  N   UNL     1       6.160   5.050  15.280  1.00  0.00    -0.340 N 
ATOM     18  HN  UNL     1       7.118   5.128  15.623  1.00  0.00     0.167 HD
HETATM   19  C   UNL     1       7.249   1.277  10.049  1.00  0.00     0.065 C 
ENDROOT
BRANCH  14  20
HETATM   20  O   UNL     1       3.836   3.431  11.155  1.00  0.00    -0.358 OA
ATOM     21  HO  UNL     1       3.399   3.517  10.316  1.00  0.00     0.217 HD
ENDBRANCH  14  20
BRANCH  19  22
HETATM   22  O   UNL     1       7.582   0.041   9.593  1.00  0.00    -0.361 OA
ATOM     23  HO  UNL     1       8.507  -0.163   9.528  1.00  0.00     0.217 HD
ENDBRANCH  19  22
BRANCH   5  24
HETATM   24  C   UNL     1       4.520   6.510  16.069  1.00  0.00    -0.009 C 
HETATM   25  C   UNL     1       3.142   6.427  15.999  1.00  0.00     0.015 C 
HETATM   26  C   UNL     1       2.266   6.723  17.024  1.00  0.00     0.019 C 
HETATM   27  C   UNL     1       2.532   7.051  18.341  1.00  0.00     0.040 C 
HETATM   28  C   UNL     1       3.696   6.625  18.977  1.00  0.00     0.018 C 
HETATM   29  C   UNL     1       4.920   7.046  18.463  1.00  0.00     0.002 C 
HETATM   30  C   UNL     1       5.136   7.205  17.097  1.00  0.00     0.014 C 
BRANCH  27  31
HETATM   31  C   UNL     1       1.520   7.771  19.153  1.00  0.00     0.209 C 
HETATM   32  O   UNL     1       1.869   8.387  20.161  1.00  0.00    -0.644 OA
HETATM   33  O   UNL     1       0.337   7.606  18.826  1.00  0.00    -0.644 OA
ENDBRANCH  27  31
ENDBRANCH   5  24
TORSDOF 4
ENDMDL
MODEL 7
REMARK VINA RESULT:      -7.2      5.889      7.630
REMARK  4 active torsions:
REMARK  status: ('A' for Active; 'I' for Inactive)
REMARK    1  A    between atoms: C_8  and  C_30 
REMARK    2  A    between atoms: O_12  and  C_32 
REMARK    3  A    between atoms: C_23  and  O_26 
REMARK    4  A    between atoms: C_31  and  C_33 
ROOT
HETATM    1  C   UNL     1       3.377  -0.780  13.544  1.00  0.00     0.041 C 
HETATM    2  C   UNL     1       4.087   3.682  11.676  1.00  0.00     0.333 C 
HETATM    3  C   UNL     1       1.134   0.717  12.477  1.00  0.00     0.039 C 
HETATM    4  C   UNL     1       3.398   1.576  12.729  1.00  0.00     0.077 C 
HETATM    5  C   UNL     1       4.805   4.738  15.571  1.00  0.00     0.044 C 
HETATM    6  N   UNL     1       3.951   4.808  12.378  1.00  0.00    -0.292 N 
ATOM      7  HN  UNL     1       3.796   5.751  12.022  1.00  0.00     0.172 HD
HETATM    8  C   UNL     1       5.094   3.431  15.892  1.00  0.00     0.033 C 
HETATM    9  N   UNL     1       4.190   2.659  12.563  1.00  0.00    -0.258 N 
HETATM   10  O   UNL     1       4.199   3.599  10.469  1.00  0.00    -0.246 OA
HETATM   11  C   UNL     1       5.384   2.735  14.698  1.00  0.00     0.036 C 
HETATM   12  C   UNL     1       2.286  -1.354  12.951  1.00  0.00     0.039 C 
HETATM   13  C   UNL     1       4.062   4.426  13.636  1.00  0.00     0.137 C 
HETATM   14  C   UNL     1       3.950   0.414  13.193  1.00  0.00     0.093 C 
HETATM   15  C   UNL     1       4.636   3.205  13.688  1.00  0.00     0.088 C 
HETATM   16  C   UNL     1       2.056   1.717  12.535  1.00  0.00     0.036 C 
HETATM   17  N   UNL     1       3.750   4.925  14.808  1.00  0.00    -0.340 N 
ATOM     18  HN  UNL     1       2.869   5.368  15.073  1.00  0.00     0.167 HD
HETATM   19  C   UNL     1       1.383  -0.597  12.222  1.00  0.00     0.065 C 
ENDROOT
BRANCH  14  20
HETATM   20  O   UNL     1       5.304   0.424  13.272  1.00  0.00    -0.358 OA
ATOM     21  HO  UNL     1       5.655   1.109  13.829  1.00  0.00     0.217 HD
ENDBRANCH  14  20
BRANCH  19  22
HETATM   22  O   UNL     1       0.711  -1.167  11.188  1.00  0.00    -0.361 OA
ATOM     23  HO  UNL     1       1.032  -0.991  10.312  1.00  0.00     0.217 HD
ENDBRANCH  19  22
BRANCH   5  24
HETATM   24  C   UNL     1       5.760   5.723  15.683  1.00  0.00    -0.009 C 
HETATM   25  C   UNL     1       5.607   6.770  16.573  1.00  0.00     0.015 C 
HETATM   26  C   UNL     1       6.570   7.711  16.879  1.00  0.00     0.019 C 
HETATM   27  C   UNL     1       7.892   7.778  16.479  1.00  0.00     0.040 C 
HETATM   28  C   UNL     1       8.608   6.634  16.135  1.00  0.00     0.018 C 
HETATM   29  C   UNL     1       8.160   5.876  15.056  1.00  0.00     0.002 C 
HETATM   30  C   UNL     1       6.807   5.712  14.775  1.00  0.00     0.014 C 
BRANCH  27  31
HETATM   31  C   UNL     1       8.624   9.069  16.523  1.00  0.00     0.209 C 
HETATM   32  O   UNL     1       8.530   9.793  17.515  1.00  0.00    -0.644 OA
HETATM   33  O   UNL     1       9.207   9.403  15.483  1.00  0.00    -0.644 OA
ENDBRANCH  27  31
ENDBRANCH   5  24
TORSDOF 4
ENDMDL
MODEL 8
REMARK VINA RESULT:      -7.2      5.061      6.816
REMARK  4 active torsions:
REMARK  status: ('A' for Active; 'I' for Inactive)
REMARK    1  A    between atoms: C_8  and  C_30 
REMARK    2  A    between atoms: O_12  and  C_32 
REMARK    3  A    between atoms: C_23  and  O_26 
REMARK    4  A    between atoms: C_31  and  C_33 
ROOT
HETATM    1  C   UNL     1       1.995   6.762  16.912  1.00  0.00     0.041 C 
HETATM    2  C   UNL     1       6.675   6.182  15.624  1.00  0.00     0.333 C 
HETATM    3  C   UNL     1       4.068   6.782  18.940  1.00  0.00     0.039 C 
HETATM    4  C   UNL     1       4.419   6.284  16.583  1.00  0.00     0.077 C 
HETATM    5  C   UNL     1       5.525   2.341  14.774  1.00  0.00     0.044 C 
HETATM    6  N   UNL     1       7.298   5.003  15.612  1.00  0.00    -0.292 N 
ATOM      7  HN  UNL     1       8.302   4.826  15.642  1.00  0.00     0.172 HD
HETATM    8  C   UNL     1       4.213   2.738  14.658  1.00  0.00     0.033 C 
HETATM    9  N   UNL     1       5.340   5.937  15.656  1.00  0.00    -0.258 N 
HETATM   10  O   UNL     1       7.203   7.272  15.524  1.00  0.00    -0.246 OA
HETATM   11  C   UNL     1       4.189   4.137  14.462  1.00  0.00     0.036 C 
HETATM   12  C   UNL     1       1.927   7.489  18.070  1.00  0.00     0.039 C 
HETATM   13  C   UNL     1       6.322   4.116  15.551  1.00  0.00     0.137 C 
HETATM   14  C   UNL     1       3.128   6.504  16.188  1.00  0.00     0.093 C 
HETATM   15  C   UNL     1       5.187   4.723  15.142  1.00  0.00     0.088 C 
HETATM   16  C   UNL     1       4.789   6.292  17.895  1.00  0.00     0.036 C 
HETATM   17  N   UNL     1       6.191   2.834  15.795  1.00  0.00    -0.340 N 
ATOM     18  HN  UNL     1       6.535   2.325  16.610  1.00  0.00     0.167 HD
HETATM   19  C   UNL     1       3.046   7.678  18.865  1.00  0.00     0.065 C 
ENDROOT
BRANCH  14  20
HETATM   20  O   UNL     1       2.944   6.521  14.845  1.00  0.00    -0.358 OA
ATOM     21  HO  UNL     1       2.764   5.668  14.467  1.00  0.00     0.217 HD
ENDBRANCH  14  20
BRANCH  19  22
HETATM   22  O   UNL     1       3.158   8.811  19.607  1.00  0.00    -0.361 OA
ATOM     23  HO  UNL     1       3.891   8.866  20.207  1.00  0.00     0.217 HD
ENDBRANCH  19  22
BRANCH   5  24
HETATM   24  C   UNL     1       6.203   1.813  13.698  1.00  0.00    -0.009 C 
HETATM   25  C   UNL     1       5.850   2.138  12.401  1.00  0.00     0.015 C 
HETATM   26  C   UNL     1       6.559   1.799  11.266  1.00  0.00     0.019 C 
HETATM   27  C   UNL     1       7.790   1.179  11.151  1.00  0.00     0.040 C 
HETATM   28  C   UNL     1       8.748   1.270  12.157  1.00  0.00     0.018 C 
HETATM   29  C   UNL     1       8.436   0.759  13.414  1.00  0.00     0.002 C 
HETATM   30  C   UNL     1       7.153   0.837  13.949  1.00  0.00     0.014 C 
BRANCH  27  31
HETATM   31  C   UNL     1       8.169   0.494   9.890  1.00  0.00     0.209 C 
HETATM   32  O   UNL     1       9.287  -0.011   9.780  1.00  0.00    -0.644 OA
HETATM   33  O   UNL     1       7.359   0.577   8.956  1.00  0.00    -0.644 OA
ENDBRANCH  27  31
ENDBRANCH   5  24
TORSDOF 4
ENDMDL
MODEL 9
REMARK VINA RESULT:      -7.1      6.064      7.895
REMARK  4 active torsions:
REMARK  status: ('A' for Active; 'I' for Inactive)
REMARK    1  A    between atoms: C_8  and  C_30 
REMARK    2  A    between atoms: O_12  and  C_32 
REMARK    3  A    between atoms: C_23  and  O_26 
REMARK    4  A    between atoms: C_31  and  C_33 
ROOT
HETATM    1  C   UNL     1       3.322   5.767  18.295  1.00  0.00     0.041 C 
HETATM    2  C   UNL     1       4.918   6.489  13.731  1.00  0.00     0.333 C 
HETATM    3  C   UNL     1       5.781   7.235  17.836  1.00  0.00     0.039 C 
HETATM    4  C   UNL     1       4.482   6.105  16.115  1.00  0.00     0.077 C 
HETATM    5  C   UNL     1       5.636   2.454  13.795  1.00  0.00     0.044 C 
HETATM    6  N   UNL     1       5.788   5.686  13.116  1.00  0.00    -0.292 N 
ATOM      7  HN  UNL     1       6.379   5.903  12.313  1.00  0.00     0.172 HD
HETATM    8  C   UNL     1       4.727   2.288  14.814  1.00  0.00     0.033 C 
HETATM    9  N   UNL     1       4.421   5.810  14.797  1.00  0.00    -0.258 N 
HETATM   10  O   UNL     1       4.563   7.586  13.350  1.00  0.00    -0.246 OA
HETATM   11  C   UNL     1       3.885   3.422  14.847  1.00  0.00     0.036 C 
HETATM   12  C   UNL     1       3.773   6.777  19.101  1.00  0.00     0.039 C 
HETATM   13  C   UNL     1       5.711   4.548  13.781  1.00  0.00     0.137 C 
HETATM   14  C   UNL     1       3.467   5.696  16.935  1.00  0.00     0.093 C 
HETATM   15  C   UNL     1       4.571   4.524  14.503  1.00  0.00     0.088 C 
HETATM   16  C   UNL     1       5.608   6.703  16.595  1.00  0.00     0.036 C 
HETATM   17  N   UNL     1       6.455   3.476  13.912  1.00  0.00    -0.340 N 
ATOM     18  HN  UNL     1       7.463   3.443  14.071  1.00  0.00     0.167 HD
HETATM   19  C   UNL     1       4.795   7.619  18.693  1.00  0.00     0.065 C 
ENDROOT
BRANCH  14  20
HETATM   20  O   UNL     1       2.394   5.175  16.290  1.00  0.00    -0.358 OA
ATOM     21  HO  UNL     1       1.970   4.463  16.753  1.00  0.00     0.217 HD
ENDBRANCH  14  20
BRANCH  19  22
HETATM   22  O   UNL     1       4.830   8.899  19.147  1.00  0.00    -0.361 OA
ATOM     23  HO  UNL     1       5.125   9.036  20.039  1.00  0.00     0.217 HD
ENDBRANCH  19  22
BRANCH   5  24
HETATM   24  C   UNL     1       5.439   1.864  12.567  1.00  0.00    -0.009 C 
HETATM   25  C   UNL     1       4.375   1.008  12.347  1.00  0.00     0.015 C 
HETATM   26  C   UNL     1       3.995   0.498  11.122  1.00  0.00     0.019 C 
HETATM   27  C   UNL     1       4.485   0.782   9.860  1.00  0.00     0.040 C 
HETATM   28  C   UNL     1       5.076   2.008   9.568  1.00  0.00     0.018 C 
HETATM   29  C   UNL     1       6.227   2.369  10.265  1.00  0.00     0.002 C 
HETATM   30  C   UNL     1       6.419   2.037  11.603  1.00  0.00     0.014 C 
BRANCH  27  31
HETATM   31  C   UNL     1       4.284  -0.176   8.744  1.00  0.00     0.209 C 
HETATM   32  O   UNL     1       4.515   0.175   7.587  1.00  0.00    -0.644 OA
HETATM   33  O   UNL     1       3.769  -1.263   9.042  1.00  0.00    -0.644 OA
ENDBRANCH  27  31
ENDBRANCH   5  24
TORSDOF 4
ENDMDL
