REMARK  2 active torsions:
REMARK  status: ('A' for Active; 'I' for Inactive)
REMARK    1  A    between atoms: C_2  and  C_32 
REMARK    2  A    between atoms: O_12  and  C_16 
ROOT
HETATM    1  O   UNL     1     -25.801  24.441 -18.067  1.00  0.00    -0.312 OA
HETATM    2  C   UNL     1     -27.333  22.622 -18.085  1.00  0.00     0.006 A 
HETATM    3  C   UNL     1     -21.244  21.817 -21.345  1.00  0.00     0.002 C 
HETATM    4  C   UNL     1     -23.700  23.377 -18.438  1.00  0.00     0.053 C 
HETATM    5  C   UNL     1     -25.615  22.610 -19.679  1.00  0.00     0.067 C 
HETATM    6  C   UNL     1     -22.945  22.536 -19.287  1.00  0.00    -0.007 C 
HETATM    7  C   UNL     1     -21.654  22.079 -18.986  1.00  0.00     0.014 C 
HETATM    8  C   UNL     1     -28.374  22.846 -15.952  1.00  0.00     0.159 A 
HETATM    9  C   UNL     1     -27.472  24.050 -16.192  1.00  0.00     0.102 A 
HETATM   10  C   UNL     1     -26.889  23.815 -17.548  1.00  0.00     0.067 A 
HETATM   11  C   UNL     1     -22.613  21.941 -21.592  1.00  0.00     0.030 C 
HETATM   12  N   UNL     1     -24.852  22.030 -20.656  1.00  0.00    -0.353 N 
ATOM     13  HN  UNL     1     -25.279  21.575 -21.463  1.00  0.00     0.166 HD
HETATM   14  C   UNL     1     -23.492  22.086 -20.505  1.00  0.00     0.043 C 
HETATM   15  C   UNL     1     -26.949  22.277 -19.381  1.00  0.00     0.047 C 
HETATM   16  C   UNL     1     -25.027  23.600 -18.839  1.00  0.00     0.103 C 
HETATM   17  C   UNL     1     -20.754  21.945 -20.046  1.00  0.00     0.001 C 
HETATM   18  C   UNL     1     -28.255  21.940 -17.148  1.00  0.00    -0.006 A 
ENDROOT
BRANCH  18  19
HETATM   19  C   UNL     1     -29.295  21.087 -17.816  1.00  0.00    -0.026 C 
HETATM   20  C   UNL     1     -29.292  19.696 -17.636  1.00  0.00     0.012 C 
HETATM   21  C   UNL     1     -30.199  18.905 -18.340  1.00  0.00     0.009 C 
HETATM   22  C   UNL     1     -30.991  19.483 -19.332  1.00  0.00    -0.048 C 
HETATM   23  C   UNL     1     -31.109  20.872 -19.382  1.00  0.00    -0.050 C 
HETATM   24  C   UNL     1     -31.649  18.687 -20.429  1.00  0.00     0.019 C 
HETATM   25  C   UNL     1     -32.127  21.540 -20.272  1.00  0.00     0.043 C 
HETATM   26  C   UNL     1     -30.255  21.673 -18.628  1.00  0.00     0.019 C 
HETATM   27  C   UNL     1     -32.753  20.593 -21.315  1.00  0.00    -0.010 C 
HETATM   28  C   UNL     1     -31.710  20.197 -22.340  1.00  0.00     0.005 C 
HETATM   29  C   UNL     1     -33.067  19.276 -20.594  1.00  0.00     0.014 C 
HETATM   30  C   UNL     1     -30.964  19.006 -21.763  1.00  0.00     0.010 C 
ENDBRANCH  18  19
BRANCH   8  31
HETATM   31  O   UNL     1     -29.696  23.224 -15.607  1.00  0.00    -0.390 OA
ATOM     32  HO  UNL     1     -30.258  22.473 -15.457  1.00  0.00     0.210 HD
ENDBRANCH   8  31
TORSDOF 2
