MODEL 1
REMARK VINA RESULT:     -12.3      0.000      0.000
REMARK  2 active torsions:
REMARK  status: ('A' for Active; 'I' for Inactive)
REMARK    1  A    between atoms: C_9  and  C_15 
REMARK    2  A    between atoms: C_14  and  C_25 
ROOT
HETATM    1  C   UNL     1     -20.735  21.361 -21.245  1.00  0.00     0.001 C 
HETATM    2  C   UNL     1     -24.917  22.424 -20.547  1.00  0.00     0.009 C 
HETATM    3  C   UNL     1     -21.136  21.849 -19.854  1.00  0.00     0.009 C 
HETATM    4  C   UNL     1     -23.055  21.844 -22.029  1.00  0.00     0.009 C 
HETATM    5  C   UNL     1     -21.564  22.063 -22.291  1.00  0.00     0.001 C 
HETATM    6  C   UNL     1     -23.378  22.513 -20.675  1.00  0.00     0.018 C 
HETATM    7  C   UNL     1     -22.639  21.525 -19.728  1.00  0.00     0.016 C 
HETATM    8  C   UNL     1     -26.976  23.889 -17.070  1.00  0.00     0.008 C 
HETATM    9  C   UNL     1     -25.567  24.046 -17.209  1.00  0.00     0.029 C 
HETATM   10  C   UNL     1     -28.796  22.408 -17.722  1.00  0.00     0.070 C 
HETATM   11  N   UNL     1     -28.703  23.346 -15.493  1.00  0.00    -0.332 N 
ATOM     12  HN  UNL     1     -29.201  23.574 -14.633  1.00  0.00     0.168 HD
HETATM   13  C   UNL     1     -25.677  22.827 -19.305  1.00  0.00     0.039 C 
HETATM   14  N   UNL     1     -27.020  22.966 -19.304  1.00  0.00    -0.354 N 
ATOM     15  HN  UNL     1     -27.559  22.969 -20.169  1.00  0.00     0.166 HD
HETATM   16  C   UNL     1     -22.955  21.675 -18.269  1.00  0.00    -0.021 C 
HETATM   17  C   UNL     1     -29.171  22.332 -16.293  1.00  0.00     0.258 C 
HETATM   18  C   UNL     1     -27.602  24.043 -15.822  1.00  0.00     0.105 C 
HETATM   19  C   UNL     1     -25.023  23.087 -18.064  1.00  0.00    -0.009 C 
HETATM   20  C   UNL     1     -27.627  23.106 -18.067  1.00  0.00     0.061 C 
HETATM   21  O   UNL     1     -29.908  21.448 -15.850  1.00  0.00    -0.267 OA
HETATM   22  C   UNL     1     -23.953  22.173 -17.615  1.00  0.00     0.010 C 
ENDROOT
BRANCH  10  23
HETATM   23  C   UNL     1     -29.549  21.561 -18.653  1.00  0.00    -0.016 C 
HETATM   24  C   UNL     1     -29.374  20.175 -18.755  1.00  0.00     0.032 C 
HETATM   25  C   UNL     1     -30.203  19.290 -19.474  1.00  0.00     0.057 C 
HETATM   26  C   UNL     1     -31.541  19.487 -19.761  1.00  0.00     0.106 C 
HETATM   27  N   UNL     1     -32.060  20.559 -20.350  1.00  0.00    -0.374 N 
HETATM   28  C   UNL     1     -31.437  21.724 -20.280  1.00  0.00     0.088 C 
ATOM     29  HN  UNL     1     -32.941  20.483 -20.859  1.00  0.00     0.164 HD
HETATM   30  C   UNL     1     -30.451  22.223 -19.483  1.00  0.00     0.029 C 
BRANCH  25  31
HETATM   31  C   UNL     1     -29.640  17.980 -20.019  1.00  0.00     0.210 C 
HETATM   32  O   UNL     1     -30.258  16.921 -19.686  1.00  0.00    -0.644 OA
HETATM   33  O   UNL     1     -28.703  18.008 -20.826  1.00  0.00    -0.644 OA
ENDBRANCH  25  31
ENDBRANCH  10  23
TORSDOF 2
ENDMDL
MODEL 2
REMARK VINA RESULT:     -12.0      1.495      1.895
REMARK  2 active torsions:
REMARK  status: ('A' for Active; 'I' for Inactive)
REMARK    1  A    between atoms: C_9  and  C_15 
REMARK    2  A    between atoms: C_14  and  C_25 
ROOT
HETATM    1  C   UNL     1     -20.904  21.449 -21.378  1.00  0.00     0.001 C 
HETATM    2  C   UNL     1     -25.119  22.235 -20.531  1.00  0.00     0.009 C 
HETATM    3  C   UNL     1     -21.270  22.060 -20.027  1.00  0.00     0.009 C 
HETATM    4  C   UNL     1     -23.298  21.644 -22.058  1.00  0.00     0.009 C 
HETATM    5  C   UNL     1     -21.849  21.954 -22.439  1.00  0.00     0.001 C 
HETATM    6  C   UNL     1     -23.604  22.436 -20.768  1.00  0.00     0.018 C 
HETATM    7  C   UNL     1     -22.728  21.629 -19.768  1.00  0.00     0.016 C 
HETATM    8  C   UNL     1     -27.107  23.916 -17.112  1.00  0.00     0.008 C 
HETATM    9  C   UNL     1     -25.727  24.172 -17.358  1.00  0.00     0.029 C 
HETATM   10  C   UNL     1     -28.819  22.223 -17.475  1.00  0.00     0.070 C 
HETATM   11  N   UNL     1     -28.688  23.418 -15.374  1.00  0.00    -0.332 N 
ATOM     12  HN  UNL     1     -29.157  23.702 -14.514  1.00  0.00     0.168 HD
HETATM   13  C   UNL     1     -25.843  22.714 -19.295  1.00  0.00     0.039 C 
HETATM   14  N   UNL     1     -27.191  22.741 -19.222  1.00  0.00    -0.354 N 
ATOM     15  HN  UNL     1     -27.775  22.598 -20.045  1.00  0.00     0.166 HD
HETATM   16  C   UNL     1     -22.976  21.921 -18.317  1.00  0.00    -0.021 C 
HETATM   17  C   UNL     1     -29.106  22.283 -16.025  1.00  0.00     0.258 C 
HETATM   18  C   UNL     1     -27.674  24.161 -15.850  1.00  0.00     0.105 C 
HETATM   19  C   UNL     1     -25.147  23.169 -18.135  1.00  0.00    -0.009 C 
HETATM   20  C   UNL     1     -27.738  22.972 -17.971  1.00  0.00     0.061 C 
HETATM   21  O   UNL     1     -29.735  21.398 -15.441  1.00  0.00    -0.267 OA
HETATM   22  C   UNL     1     -23.977  22.407 -17.659  1.00  0.00     0.010 C 
ENDROOT
BRANCH  10  23
HETATM   23  C   UNL     1     -29.543  21.215 -18.256  1.00  0.00    -0.016 C 
HETATM   24  C   UNL     1     -30.340  21.518 -19.367  1.00  0.00     0.032 C 
HETATM   25  C   UNL     1     -30.887  20.585 -20.269  1.00  0.00     0.057 C 
HETATM   26  C   UNL     1     -30.369  19.334 -20.554  1.00  0.00     0.106 C 
HETATM   27  N   UNL     1     -30.068  18.397 -19.661  1.00  0.00    -0.374 N 
HETATM   28  C   UNL     1     -29.779  18.732 -18.414  1.00  0.00     0.088 C 
ATOM     29  HN  UNL     1     -30.061  17.415 -19.938  1.00  0.00     0.164 HD
HETATM   30  C   UNL     1     -29.427  19.900 -17.807  1.00  0.00     0.029 C 
BRANCH  25  31
HETATM   31  C   UNL     1     -32.166  20.912 -21.035  1.00  0.00     0.210 C 
HETATM   32  O   UNL     1     -33.211  20.282 -20.679  1.00  0.00    -0.644 OA
HETATM   33  O   UNL     1     -32.161  21.826 -21.868  1.00  0.00    -0.644 OA
ENDBRANCH  25  31
ENDBRANCH  10  23
TORSDOF 2
ENDMDL
MODEL 3
REMARK VINA RESULT:     -10.4      1.185      1.544
REMARK  2 active torsions:
REMARK  status: ('A' for Active; 'I' for Inactive)
REMARK    1  A    between atoms: C_9  and  C_15 
REMARK    2  A    between atoms: C_14  and  C_25 
ROOT
HETATM    1  C   UNL     1     -22.016  21.521 -23.742  1.00  0.00     0.001 C 
HETATM    2  C   UNL     1     -25.952  22.230 -21.978  1.00  0.00     0.009 C 
HETATM    3  C   UNL     1     -22.090  21.899 -22.264  1.00  0.00     0.009 C 
HETATM    4  C   UNL     1     -24.482  21.875 -23.904  1.00  0.00     0.009 C 
HETATM    5  C   UNL     1     -23.117  22.219 -24.502  1.00  0.00     0.001 C 
HETATM    6  C   UNL     1     -24.500  22.440 -22.467  1.00  0.00     0.018 C 
HETATM    7  C   UNL     1     -23.495  21.458 -21.802  1.00  0.00     0.016 C 
HETATM    8  C   UNL     1     -27.174  23.338 -18.008  1.00  0.00     0.008 C 
HETATM    9  C   UNL     1     -25.853  23.606 -18.471  1.00  0.00     0.029 C 
HETATM   10  C   UNL     1     -29.009  21.765 -18.307  1.00  0.00     0.070 C 
HETATM   11  N   UNL     1     -28.425  22.579 -16.104  1.00  0.00    -0.332 N 
ATOM     12  HN  UNL     1     -28.708  22.721 -15.135  1.00  0.00     0.168 HD
HETATM   13  C   UNL     1     -26.405  22.505 -20.563  1.00  0.00     0.039 C 
HETATM   14  N   UNL     1     -27.712  22.544 -20.226  1.00  0.00    -0.354 N 
ATOM     15  HN  UNL     1     -28.448  22.555 -20.933  1.00  0.00     0.166 HD
HETATM   16  C   UNL     1     -23.450  21.500 -20.303  1.00  0.00    -0.021 C 
HETATM   17  C   UNL     1     -29.015  21.581 -16.839  1.00  0.00     0.258 C 
HETATM   18  C   UNL     1     -27.480  23.374 -16.638  1.00  0.00     0.105 C 
HETATM   19  C   UNL     1     -25.482  22.741 -19.501  1.00  0.00    -0.009 C 
HETATM   20  C   UNL     1     -28.003  22.567 -18.873  1.00  0.00     0.061 C 
HETATM   21  O   UNL     1     -29.568  20.621 -16.298  1.00  0.00    -0.267 OA
HETATM   22  C   UNL     1     -24.284  21.885 -19.392  1.00  0.00     0.010 C 
ENDROOT
BRANCH  10  23
HETATM   23  C   UNL     1     -29.917  20.920 -19.088  1.00  0.00    -0.016 C 
HETATM   24  C   UNL     1     -29.765  19.533 -19.220  1.00  0.00     0.032 C 
HETATM   25  C   UNL     1     -30.710  18.650 -19.778  1.00  0.00     0.057 C 
HETATM   26  C   UNL     1     -32.078  18.847 -19.821  1.00  0.00     0.106 C 
HETATM   27  N   UNL     1     -32.693  19.920 -20.307  1.00  0.00    -0.374 N 
HETATM   28  C   UNL     1     -32.067  21.085 -20.350  1.00  0.00     0.088 C 
ATOM     29  HN  UNL     1     -33.651  19.845 -20.649  1.00  0.00     0.164 HD
HETATM   30  C   UNL     1     -30.954  21.583 -19.742  1.00  0.00     0.029 C 
BRANCH  25  31
HETATM   31  C   UNL     1     -30.255  17.339 -20.416  1.00  0.00     0.210 C 
HETATM   32  O   UNL     1     -31.076  16.371 -20.356  1.00  0.00    -0.644 OA
HETATM   33  O   UNL     1     -29.190  17.304 -21.043  1.00  0.00    -0.644 OA
ENDBRANCH  25  31
ENDBRANCH  10  23
TORSDOF 2
ENDMDL
MODEL 4
REMARK VINA RESULT:      -9.6      4.137      6.917
REMARK  2 active torsions:
REMARK  status: ('A' for Active; 'I' for Inactive)
REMARK    1  A    between atoms: C_9  and  C_15 
REMARK    2  A    between atoms: C_14  and  C_25 
ROOT
HETATM    1  C   UNL     1     -28.443  23.502 -15.500  1.00  0.00     0.001 C 
HETATM    2  C   UNL     1     -27.691  21.958 -19.519  1.00  0.00     0.009 C 
HETATM    3  C   UNL     1     -27.032  23.627 -16.072  1.00  0.00     0.009 C 
HETATM    4  C   UNL     1     -29.095  22.201 -17.528  1.00  0.00     0.009 C 
HETATM    5  C   UNL     1     -29.084  22.231 -15.998  1.00  0.00     0.001 C 
HETATM    6  C   UNL     1     -27.622  22.172 -17.989  1.00  0.00     0.018 C 
HETATM    7  C   UNL     1     -27.214  23.622 -17.604  1.00  0.00     0.016 C 
HETATM    8  C   UNL     1     -24.140  21.821 -21.937  1.00  0.00     0.008 C 
HETATM    9  C   UNL     1     -24.058  21.944 -20.519  1.00  0.00     0.029 C 
HETATM   10  C   UNL     1     -25.588  22.383 -23.812  1.00  0.00     0.070 C 
HETATM   11  N   UNL     1     -23.186  22.618 -23.991  1.00  0.00    -0.332 N 
ATOM     12  HN  UNL     1     -22.371  22.702 -24.599  1.00  0.00     0.168 HD
HETATM   13  C   UNL     1     -26.483  22.007 -20.425  1.00  0.00     0.039 C 
HETATM   14  N   UNL     1     -26.534  21.582 -21.706  1.00  0.00    -0.354 N 
ATOM     15  HN  UNL     1     -27.332  21.062 -22.067  1.00  0.00     0.166 HD
HETATM   16  C   UNL     1     -25.901  24.089 -18.160  1.00  0.00    -0.021 C 
HETATM   17  C   UNL     1     -24.416  23.017 -24.454  1.00  0.00     0.258 C 
HETATM   18  C   UNL     1     -23.035  22.118 -22.752  1.00  0.00     0.105 C 
HETATM   19  C   UNL     1     -25.220  22.500 -19.982  1.00  0.00    -0.009 C 
HETATM   20  C   UNL     1     -25.444  21.891 -22.504  1.00  0.00     0.061 C 
HETATM   21  O   UNL     1     -24.526  23.812 -25.390  1.00  0.00    -0.267 OA
HETATM   22  C   UNL     1     -25.178  23.733 -19.172  1.00  0.00     0.010 C 
ENDROOT
BRANCH  10  23
HETATM   23  C   UNL     1     -26.876  22.514 -24.501  1.00  0.00    -0.016 C 
HETATM   24  C   UNL     1     -27.973  23.204 -23.970  1.00  0.00     0.032 C 
HETATM   25  C   UNL     1     -29.153  23.536 -24.665  1.00  0.00     0.057 C 
HETATM   26  C   UNL     1     -29.264  23.720 -26.031  1.00  0.00     0.106 C 
HETATM   27  N   UNL     1     -28.876  22.858 -26.965  1.00  0.00    -0.374 N 
HETATM   28  C   UNL     1     -27.925  21.977 -26.704  1.00  0.00     0.088 C 
ATOM     29  HN  UNL     1     -29.314  22.876 -27.886  1.00  0.00     0.164 HD
HETATM   30  C   UNL     1     -26.974  21.871 -25.733  1.00  0.00     0.029 C 
BRANCH  25  31
HETATM   31  C   UNL     1     -30.466  23.721 -23.908  1.00  0.00     0.210 C 
HETATM   32  O   UNL     1     -30.369  24.082 -22.693  1.00  0.00    -0.644 OA
HETATM   33  O   UNL     1     -31.538  23.625 -24.516  1.00  0.00    -0.644 OA
ENDBRANCH  25  31
ENDBRANCH  10  23
TORSDOF 2
ENDMDL
