MODEL 1
REMARK VINA RESULT:      -8.5      0.000      0.000
REMARK  2 active torsions:
REMARK  status: ('A' for Active; 'I' for Inactive)
REMARK    1  A    between atoms: C_1  and  C_2 
REMARK    2  A    between atoms: O_13  and  C_15 
ROOT
HETATM    1  C   UNL     1     139.690 145.893-269.228  1.00  0.00     0.061 C 
HETATM    2  C   UNL     1     137.946 146.686-273.807  1.00  0.00     0.105 C 
HETATM    3  C   UNL     1     138.566 145.637-273.251  1.00  0.00     0.041 C 
HETATM    4  N   UNL     1     136.568 146.838-273.612  1.00  0.00    -0.355 N 
ATOM      5  HN  UNL     1     136.048 147.654-273.936  1.00  0.00     0.166 HD
HETATM    6  N   UNL     1     135.050 145.701-272.019  1.00  0.00    -0.235 NA
HETATM    7  C   UNL     1     136.792 145.473-268.909  1.00  0.00     0.020 C 
HETATM    8  C   UNL     1     135.993 145.818-272.963  1.00  0.00     0.094 C 
HETATM    9  C   UNL     1     138.607 144.108-271.713  1.00  0.00     0.028 C 
HETATM   10  C   UNL     1     134.445 144.356-272.189  1.00  0.00     0.108 C 
HETATM   11  C   UNL     1     137.405 146.722-269.050  1.00  0.00     0.048 C 
HETATM   12  C   UNL     1     136.648 147.770-269.578  1.00  0.00     0.081 C 
HETATM   13  C   UNL     1     136.569 144.587-273.021  1.00  0.00    -0.007 C 
HETATM   14  C   UNL     1     139.809 145.517-272.831  1.00  0.00     0.194 C 
HETATM   15  C   UNL     1     135.472 143.573-273.009  1.00  0.00     0.058 C 
HETATM   16  C   UNL     1     139.639 145.038-271.582  1.00  0.00     0.017 C 
HETATM   17  C   UNL     1     137.851 144.629-272.713  1.00  0.00    -0.010 C 
HETATM   18  O   UNL     1     140.906 145.564-273.511  1.00  0.00    -0.287 OA
HETATM   19  C   UNL     1     139.926 145.836-270.557  1.00  0.00     0.034 C 
HETATM   20  O   UNL     1     139.214 147.917-268.104  1.00  0.00    -0.286 OA
HETATM   21  C   UNL     1     135.762 145.156-269.782  1.00  0.00     0.025 C 
HETATM   22  C   UNL     1     138.798 146.918-268.749  1.00  0.00     0.198 C 
HETATM   23  C   UNL     1     135.688 147.430-270.524  1.00  0.00     0.061 C 
HETATM   24  C   UNL     1     135.474 146.077-270.781  1.00  0.00     0.019 C 
ENDROOT
BRANCH   1  25
HETATM   25  C   UNL     1     140.299 144.938-268.336  1.00  0.00     0.159 C 
HETATM   26  C   UNL     1     139.722 144.719-266.976  1.00  0.00     0.097 C 
HETATM   27  O   UNL     1     141.303 144.320-268.686  1.00  0.00    -0.293 OA
ENDBRANCH   1  25
BRANCH  12  28
HETATM   28  O   UNL     1     136.763 149.017-269.069  1.00  0.00    -0.360 OA
ATOM     29  HO  UNL     1     137.619 149.421-268.981  1.00  0.00     0.217 HD
ENDBRANCH  12  28
TORSDOF 2
ENDMDL
MODEL 2
REMARK VINA RESULT:      -7.6      7.635     10.483
REMARK  2 active torsions:
REMARK  status: ('A' for Active; 'I' for Inactive)
REMARK    1  A    between atoms: C_1  and  C_2 
REMARK    2  A    between atoms: O_13  and  C_15 
ROOT
HETATM    1  C   UNL     1     135.021 148.456-277.910  1.00  0.00     0.061 C 
HETATM    2  C   UNL     1     133.941 152.637-280.359  1.00  0.00     0.105 C 
HETATM    3  C   UNL     1     133.445 152.099-279.237  1.00  0.00     0.041 C 
HETATM    4  N   UNL     1     135.128 153.376-280.287  1.00  0.00    -0.355 N 
ATOM      5  HN  UNL     1     135.605 153.742-281.111  1.00  0.00     0.166 HD
HETATM    6  N   UNL     1     136.787 153.549-278.455  1.00  0.00    -0.235 NA
HETATM    7  C   UNL     1     137.212 150.262-277.126  1.00  0.00     0.020 C 
HETATM    8  C   UNL     1     135.582 153.558-279.040  1.00  0.00     0.094 C 
HETATM    9  C   UNL     1     133.782 151.375-277.220  1.00  0.00     0.028 C 
HETATM   10  C   UNL     1     136.680 154.410-277.250  1.00  0.00     0.108 C 
HETATM   11  C   UNL     1     137.101 149.638-278.373  1.00  0.00     0.048 C 
HETATM   12  C   UNL     1     137.715 150.247-279.469  1.00  0.00     0.081 C 
HETATM   13  C   UNL     1     134.702 153.528-278.003  1.00  0.00    -0.007 C 
HETATM   14  C   UNL     1     132.725 151.008-279.071  1.00  0.00     0.194 C 
HETATM   15  C   UNL     1     135.178 154.504-276.977  1.00  0.00     0.058 C 
HETATM   16  C   UNL     1     133.408 150.363-278.105  1.00  0.00     0.017 C 
HETATM   17  C   UNL     1     133.943 152.450-278.035  1.00  0.00    -0.010 C 
HETATM   18  O   UNL     1     131.533 150.748-279.498  1.00  0.00    -0.287 OA
HETATM   19  C   UNL     1     134.059 149.249-278.431  1.00  0.00     0.034 C 
HETATM   20  O   UNL     1     136.712 147.469-279.234  1.00  0.00    -0.286 OA
HETATM   21  C   UNL     1     137.364 151.640-277.103  1.00  0.00     0.025 C 
HETATM   22  C   UNL     1     136.308 148.451-278.556  1.00  0.00     0.198 C 
HETATM   23  C   UNL     1     137.766 151.636-279.463  1.00  0.00     0.061 C 
HETATM   24  C   UNL     1     137.315 152.301-278.323  1.00  0.00     0.019 C 
ENDROOT
BRANCH   1  25
HETATM   25  C   UNL     1     134.758 147.665-276.734  1.00  0.00     0.159 C 
HETATM   26  C   UNL     1     134.379 146.227-276.876  1.00  0.00     0.097 C 
HETATM   27  O   UNL     1     134.826 148.176-275.618  1.00  0.00    -0.293 OA
ENDBRANCH   1  25
BRANCH  12  28
HETATM   28  O   UNL     1     138.348 149.497-280.399  1.00  0.00    -0.360 OA
ATOM     29  HO  UNL     1     138.624 149.886-281.221  1.00  0.00     0.217 HD
ENDBRANCH  12  28
TORSDOF 2
ENDMDL
MODEL 3
REMARK VINA RESULT:      -7.1      7.160      9.233
REMARK  2 active torsions:
REMARK  status: ('A' for Active; 'I' for Inactive)
REMARK    1  A    between atoms: C_1  and  C_2 
REMARK    2  A    between atoms: O_13  and  C_15 
ROOT
HETATM    1  C   UNL     1     136.171 149.107-276.402  1.00  0.00     0.061 C 
HETATM    2  C   UNL     1     135.247 153.681-278.093  1.00  0.00     0.105 C 
HETATM    3  C   UNL     1     135.818 152.611-278.662  1.00  0.00     0.041 C 
HETATM    4  N   UNL     1     133.850 153.766-278.064  1.00  0.00    -0.355 N 
ATOM      5  HN  UNL     1     133.349 154.509-277.576  1.00  0.00     0.166 HD
HETATM    6  N   UNL     1     132.139 152.035-278.527  1.00  0.00    -0.235 NA
HETATM    7  C   UNL     1     133.295 149.007-277.028  1.00  0.00     0.020 C 
HETATM    8  C   UNL     1     133.229 152.785-278.733  1.00  0.00     0.094 C 
HETATM    9  C   UNL     1     135.671 150.535-279.273  1.00  0.00     0.028 C 
HETATM   10  C   UNL     1     131.658 151.610-279.866  1.00  0.00     0.108 C 
HETATM   11  C   UNL     1     133.846 149.653-275.918  1.00  0.00     0.048 C 
HETATM   12  C   UNL     1     133.136 150.716-275.356  1.00  0.00     0.081 C 
HETATM   13  C   UNL     1     133.880 152.164-279.753  1.00  0.00    -0.007 C 
HETATM   14  C   UNL     1     136.968 152.027-278.395  1.00  0.00     0.194 C 
HETATM   15  C   UNL     1     132.863 151.808-280.788  1.00  0.00     0.058 C 
HETATM   16  C   UNL     1     136.603 150.737-278.254  1.00  0.00     0.017 C 
HETATM   17  C   UNL     1     135.079 151.751-279.392  1.00  0.00    -0.010 C 
HETATM   18  O   UNL     1     138.166 152.495-278.518  1.00  0.00    -0.287 OA
HETATM   19  C   UNL     1     136.649 150.199-277.038  1.00  0.00     0.034 C 
HETATM   20  O   UNL     1     135.376 149.176-274.177  1.00  0.00    -0.286 OA
HETATM   21  C   UNL     1     132.463 149.743-277.858  1.00  0.00     0.025 C 
HETATM   22  C   UNL     1     135.147 149.304-275.409  1.00  0.00     0.198 C 
HETATM   23  C   UNL     1     132.387 151.495-276.230  1.00  0.00     0.061 C 
HETATM   24  C   UNL     1     132.307 151.090-277.561  1.00  0.00     0.019 C 
ENDROOT
BRANCH   1  25
HETATM   25  C   UNL     1     136.665 147.794-276.733  1.00  0.00     0.159 C 
HETATM   26  C   UNL     1     136.225 147.131-277.998  1.00  0.00     0.097 C 
HETATM   27  O   UNL     1     137.432 147.212-275.969  1.00  0.00    -0.293 OA
ENDBRANCH   1  25
BRANCH  12  28
HETATM   28  O   UNL     1     133.080 150.863-274.014  1.00  0.00    -0.360 OA
ATOM     29  HO  UNL     1     133.634 151.501-273.578  1.00  0.00     0.217 HD
ENDBRANCH  12  28
TORSDOF 2
ENDMDL
MODEL 4
REMARK VINA RESULT:      -7.1      7.936     10.624
REMARK  2 active torsions:
REMARK  status: ('A' for Active; 'I' for Inactive)
REMARK    1  A    between atoms: C_1  and  C_2 
REMARK    2  A    between atoms: O_13  and  C_15 
ROOT
HETATM    1  C   UNL     1     136.178 148.906-278.133  1.00  0.00     0.061 C 
HETATM    2  C   UNL     1     133.328 152.188-280.530  1.00  0.00     0.105 C 
HETATM    3  C   UNL     1     133.151 151.507-279.390  1.00  0.00     0.041 C 
HETATM    4  N   UNL     1     134.088 153.364-280.503  1.00  0.00    -0.355 N 
ATOM      5  HN  UNL     1     134.332 153.887-281.344  1.00  0.00     0.166 HD
HETATM    6  N   UNL     1     135.579 154.256-278.738  1.00  0.00    -0.235 NA
HETATM    7  C   UNL     1     137.416 151.485-277.433  1.00  0.00     0.020 C 
HETATM    8  C   UNL     1     134.466 153.741-279.274  1.00  0.00     0.094 C 
HETATM    9  C   UNL     1     133.837 151.027-277.389  1.00  0.00     0.028 C 
HETATM   10  C   UNL     1     135.159 155.007-277.528  1.00  0.00     0.108 C 
HETATM   11  C   UNL     1     137.536 150.855-278.675  1.00  0.00     0.048 C 
HETATM   12  C   UNL     1     137.791 151.651-279.794  1.00  0.00     0.081 C 
HETATM   13  C   UNL     1     133.721 153.354-278.204  1.00  0.00    -0.007 C 
HETATM   14  C   UNL     1     132.971 150.216-279.199  1.00  0.00     0.194 C 
HETATM   15  C   UNL     1     133.771 154.455-277.196  1.00  0.00     0.058 C 
HETATM   16  C   UNL     1     133.899 149.939-278.262  1.00  0.00     0.017 C 
HETATM   17  C   UNL     1     133.494 152.055-278.208  1.00  0.00    -0.010 C 
HETATM   18  O   UNL     1     131.990 149.466-279.579  1.00  0.00    -0.287 OA
HETATM   19  C   UNL     1     134.951 149.204-278.615  1.00  0.00     0.034 C 
HETATM   20  O   UNL     1     138.079 148.715-279.525  1.00  0.00    -0.286 OA
HETATM   21  C   UNL     1     136.965 152.796-277.413  1.00  0.00     0.025 C 
HETATM   22  C   UNL     1     137.319 149.440-278.830  1.00  0.00     0.198 C 
HETATM   23  C   UNL     1     137.244 152.929-279.787  1.00  0.00     0.061 C 
HETATM   24  C   UNL     1     136.594 153.355-278.629  1.00  0.00     0.019 C 
ENDROOT
BRANCH   1  25
HETATM   25  C   UNL     1     136.321 148.096-276.950  1.00  0.00     0.159 C 
HETATM   26  C   UNL     1     135.194 147.219-276.509  1.00  0.00     0.097 C 
HETATM   27  O   UNL     1     137.359 148.140-276.293  1.00  0.00    -0.293 OA
ENDBRANCH   1  25
BRANCH  12  28
HETATM   28  O   UNL     1     138.649 151.229-280.749  1.00  0.00    -0.360 OA
ATOM     29  HO  UNL     1     138.320 150.903-281.579  1.00  0.00     0.217 HD
ENDBRANCH  12  28
TORSDOF 2
ENDMDL
MODEL 5
REMARK VINA RESULT:      -7.1      7.202      9.714
REMARK  2 active torsions:
REMARK  status: ('A' for Active; 'I' for Inactive)
REMARK    1  A    between atoms: C_1  and  C_2 
REMARK    2  A    between atoms: O_13  and  C_15 
ROOT
HETATM    1  C   UNL     1     135.373 152.321-279.315  1.00  0.00     0.061 C 
HETATM    2  C   UNL     1     136.820 147.574-279.366  1.00  0.00     0.105 C 
HETATM    3  C   UNL     1     137.409 148.688-278.913  1.00  0.00     0.041 C 
HETATM    4  N   UNL     1     135.873 146.933-278.559  1.00  0.00    -0.355 N 
ATOM      5  HN  UNL     1     135.327 146.130-278.873  1.00  0.00     0.166 HD
HETATM    6  N   UNL     1     134.724 147.730-276.514  1.00  0.00    -0.235 NA
HETATM    7  C   UNL     1     133.862 151.150-277.075  1.00  0.00     0.020 C 
HETATM    8  C   UNL     1     135.747 147.467-277.337  1.00  0.00     0.094 C 
HETATM    9  C   UNL     1     137.354 150.411-277.596  1.00  0.00     0.028 C 
HETATM   10  C   UNL     1     135.276 147.722-275.136  1.00  0.00     0.108 C 
HETATM   11  C   UNL     1     133.562 150.954-278.426  1.00  0.00     0.048 C 
HETATM   12  C   UNL     1     132.883 149.788-278.786  1.00  0.00     0.081 C 
HETATM   13  C   UNL     1     136.798 148.143-276.798  1.00  0.00    -0.007 C 
HETATM   14  C   UNL     1     137.884 149.721-279.578  1.00  0.00     0.194 C 
HETATM   15  C   UNL     1     136.783 147.900-275.324  1.00  0.00     0.058 C 
HETATM   16  C   UNL     1     137.294 150.756-278.948  1.00  0.00     0.017 C 
HETATM   17  C   UNL     1     137.270 149.056-277.624  1.00  0.00    -0.010 C 
HETATM   18  O   UNL     1     138.867 149.768-280.414  1.00  0.00    -0.287 OA
HETATM   19  C   UNL     1     136.355 151.438-279.599  1.00  0.00     0.034 C 
HETATM   20  O   UNL     1     133.261 152.260-280.376  1.00  0.00    -0.286 OA
HETATM   21  C   UNL     1     134.032 150.026-276.281  1.00  0.00     0.025 C 
HETATM   22  C   UNL     1     134.010 151.871-279.441  1.00  0.00     0.198 C 
HETATM   23  C   UNL     1     133.149 148.653-278.030  1.00  0.00     0.061 C 
HETATM   24  C   UNL     1     133.969 148.791-276.911  1.00  0.00     0.019 C 
ENDROOT
BRANCH   1  25
HETATM   25  C   UNL     1     135.695 153.658-278.883  1.00  0.00     0.159 C 
HETATM   26  C   UNL     1     136.161 153.894-277.483  1.00  0.00     0.097 C 
HETATM   27  O   UNL     1     135.568 154.605-279.657  1.00  0.00    -0.293 OA
ENDBRANCH   1  25
BRANCH  12  28
HETATM   28  O   UNL     1     131.914 149.828-279.729  1.00  0.00    -0.360 OA
ATOM     29  HO  UNL     1     132.131 149.694-280.644  1.00  0.00     0.217 HD
ENDBRANCH  12  28
TORSDOF 2
ENDMDL
MODEL 6
REMARK VINA RESULT:      -7.0      7.607      9.890
REMARK  2 active torsions:
REMARK  status: ('A' for Active; 'I' for Inactive)
REMARK    1  A    between atoms: C_1  and  C_2 
REMARK    2  A    between atoms: O_13  and  C_15 
ROOT
HETATM    1  C   UNL     1     136.831 149.500-278.065  1.00  0.00     0.061 C 
HETATM    2  C   UNL     1     134.618 153.930-277.726  1.00  0.00     0.105 C 
HETATM    3  C   UNL     1     135.156 153.271-278.761  1.00  0.00     0.041 C 
HETATM    4  N   UNL     1     133.313 153.616-277.330  1.00  0.00    -0.355 N 
ATOM      5  HN  UNL     1     132.871 154.018-276.502  1.00  0.00     0.166 HD
HETATM    6  N   UNL     1     131.879 151.694-277.952  1.00  0.00    -0.235 NA
HETATM    7  C   UNL     1     133.972 148.801-277.967  1.00  0.00     0.020 C 
HETATM    8  C   UNL     1     132.694 152.741-278.134  1.00  0.00     0.094 C 
HETATM    9  C   UNL     1     135.191 151.505-280.019  1.00  0.00     0.028 C 
HETATM   10  C   UNL     1     131.077 151.561-279.195  1.00  0.00     0.108 C 
HETATM   11  C   UNL     1     134.727 149.221-276.868  1.00  0.00     0.048 C 
HETATM   12  C   UNL     1     134.057 149.838-275.808  1.00  0.00     0.081 C 
HETATM   13  C   UNL     1     133.082 152.647-279.434  1.00  0.00    -0.007 C 
HETATM   14  C   UNL     1     136.415 152.975-279.008  1.00  0.00     0.194 C 
HETATM   15  C   UNL     1     131.867 152.341-280.247  1.00  0.00     0.058 C 
HETATM   16  C   UNL     1     136.350 151.652-279.255  1.00  0.00     0.017 C 
HETATM   17  C   UNL     1     134.387 152.493-279.547  1.00  0.00    -0.010 C 
HETATM   18  O   UNL     1     137.408 153.769-279.242  1.00  0.00    -0.287 OA
HETATM   19  C   UNL     1     136.878 150.817-278.363  1.00  0.00     0.034 C 
HETATM   20  O   UNL     1     136.793 148.700-275.841  1.00  0.00    -0.286 OA
HETATM   21  C   UNL     1     132.801 149.488-278.249  1.00  0.00     0.025 C 
HETATM   22  C   UNL     1     136.161 149.112-276.850  1.00  0.00     0.198 C 
HETATM   23  C   UNL     1     132.942 150.600-276.134  1.00  0.00     0.061 C 
HETATM   24  C   UNL     1     132.512 150.594-277.461  1.00  0.00     0.019 C 
ENDROOT
BRANCH   1  25
HETATM   25  C   UNL     1     137.417 148.529-278.953  1.00  0.00     0.159 C 
HETATM   26  C   UNL     1     136.667 147.281-279.288  1.00  0.00     0.097 C 
HETATM   27  O   UNL     1     138.539 148.716-279.420  1.00  0.00    -0.293 OA
ENDBRANCH   1  25
BRANCH  12  28
HETATM   28  O   UNL     1     134.410 149.568-274.531  1.00  0.00    -0.360 OA
ATOM     29  HO  UNL     1     133.804 149.121-273.951  1.00  0.00     0.217 HD
ENDBRANCH  12  28
TORSDOF 2
ENDMDL
MODEL 7
REMARK VINA RESULT:      -6.6      7.043      9.856
REMARK  2 active torsions:
REMARK  status: ('A' for Active; 'I' for Inactive)
REMARK    1  A    between atoms: C_1  and  C_2 
REMARK    2  A    between atoms: O_13  and  C_15 
ROOT
HETATM    1  C   UNL     1     134.475 149.251-275.731  1.00  0.00     0.061 C 
HETATM    2  C   UNL     1     133.592 151.282-280.173  1.00  0.00     0.105 C 
HETATM    3  C   UNL     1     133.478 151.760-278.928  1.00  0.00     0.041 C 
HETATM    4  N   UNL     1     134.850 151.288-280.787  1.00  0.00    -0.355 N 
ATOM      5  HN  UNL     1     135.026 150.866-281.699  1.00  0.00     0.166 HD
HETATM    6  N   UNL     1     137.096 151.665-279.812  1.00  0.00    -0.235 NA
HETATM    7  C   UNL     1     137.175 149.930-276.691  1.00  0.00     0.020 C 
HETATM    8  C   UNL     1     135.803 151.900-280.071  1.00  0.00     0.094 C 
HETATM    9  C   UNL     1     134.412 152.225-277.026  1.00  0.00     0.028 C 
HETATM   10  C   UNL     1     137.712 152.980-279.505  1.00  0.00     0.108 C 
HETATM   11  C   UNL     1     136.411 148.856-277.158  1.00  0.00     0.048 C 
HETATM   12  C   UNL     1     136.657 148.387-278.450  1.00  0.00     0.081 C 
HETATM   13  C   UNL     1     135.447 152.859-279.175  1.00  0.00    -0.007 C 
HETATM   14  C   UNL     1     132.636 151.428-277.970  1.00  0.00     0.194 C 
HETATM   15  C   UNL     1     136.530 153.887-279.159  1.00  0.00     0.058 C 
HETATM   16  C   UNL     1     133.465 151.204-276.932  1.00  0.00     0.017 C 
HETATM   17  C   UNL     1     134.494 152.443-278.364  1.00  0.00    -0.010 C 
HETATM   18  O   UNL     1     131.351 151.557-277.935  1.00  0.00    -0.287 OA
HETATM   19  C   UNL     1     133.620 149.952-276.508  1.00  0.00     0.034 C 
HETATM   20  O   UNL     1     135.167 147.054-276.263  1.00  0.00    -0.286 OA
HETATM   21  C   UNL     1     137.668 150.828-277.626  1.00  0.00     0.025 C 
HETATM   22  C   UNL     1     135.339 148.296-276.378  1.00  0.00     0.198 C 
HETATM   23  C   UNL     1     137.057 149.330-279.389  1.00  0.00     0.061 C 
HETATM   24  C   UNL     1     137.296 150.631-278.949  1.00  0.00     0.019 C 
ENDROOT
BRANCH   1  25
HETATM   25  C   UNL     1     134.523 149.477-274.308  1.00  0.00     0.159 C 
HETATM   26  C   UNL     1     135.578 148.812-273.486  1.00  0.00     0.097 C 
HETATM   27  O   UNL     1     133.687 150.199-273.770  1.00  0.00    -0.293 OA
ENDBRANCH   1  25
BRANCH  12  28
HETATM   28  O   UNL     1     136.643 147.060-278.706  1.00  0.00    -0.360 OA
ATOM     29  HO  UNL     1     135.963 146.508-278.336  1.00  0.00     0.217 HD
ENDBRANCH  12  28
TORSDOF 2
ENDMDL
MODEL 8
REMARK VINA RESULT:      -6.4      8.793     10.787
REMARK  2 active torsions:
REMARK  status: ('A' for Active; 'I' for Inactive)
REMARK    1  A    between atoms: C_1  and  C_2 
REMARK    2  A    between atoms: O_13  and  C_15 
ROOT
HETATM    1  C   UNL     1     133.687 154.202-276.803  1.00  0.00     0.061 C 
HETATM    2  C   UNL     1     136.066 152.334-280.738  1.00  0.00     0.105 C 
HETATM    3  C   UNL     1     136.507 152.844-279.581  1.00  0.00     0.041 C 
HETATM    4  N   UNL     1     135.648 150.998-280.772  1.00  0.00    -0.355 N 
ATOM      5  HN  UNL     1     135.225 150.569-281.596  1.00  0.00     0.166 HD
HETATM    6  N   UNL     1     135.162 149.435-278.913  1.00  0.00    -0.235 NA
HETATM    7  C   UNL     1     133.396 151.295-276.428  1.00  0.00     0.020 C 
HETATM    8  C   UNL     1     135.851 150.334-279.627  1.00  0.00     0.094 C 
HETATM    9  C   UNL     1     136.536 152.773-277.413  1.00  0.00     0.028 C 
HETATM   10  C   UNL     1     136.159 148.657-278.135  1.00  0.00     0.108 C 
HETATM   11  C   UNL     1     132.683 152.053-277.362  1.00  0.00     0.048 C 
HETATM   12  C   UNL     1     132.207 151.408-278.505  1.00  0.00     0.081 C 
HETATM   13  C   UNL     1     136.840 150.746-278.788  1.00  0.00    -0.007 C 
HETATM   14  C   UNL     1     136.460 154.083-279.134  1.00  0.00     0.194 C 
HETATM   15  C   UNL     1     137.413 149.531-278.134  1.00  0.00     0.058 C 
HETATM   16  C   UNL     1     135.916 153.920-277.912  1.00  0.00     0.017 C 
HETATM   17  C   UNL     1     136.761 152.037-278.532  1.00  0.00    -0.010 C 
HETATM   18  O   UNL     1     137.037 155.139-279.602  1.00  0.00    -0.287 OA
HETATM   19  C   UNL     1     134.676 154.359-277.710  1.00  0.00     0.034 C 
HETATM   20  O   UNL     1     131.410 154.046-277.417  1.00  0.00    -0.286 OA
HETATM   21  C   UNL     1     134.094 150.189-276.889  1.00  0.00     0.025 C 
HETATM   22  C   UNL     1     132.513 153.474-277.211  1.00  0.00     0.198 C 
HETATM   23  C   UNL     1     132.980 150.364-279.000  1.00  0.00     0.061 C 
HETATM   24  C   UNL     1     134.093 149.968-278.260  1.00  0.00     0.019 C 
ENDROOT
BRANCH   1  25
HETATM   25  C   UNL     1     133.827 154.732-275.470  1.00  0.00     0.159 C 
HETATM   26  C   UNL     1     134.795 155.841-275.210  1.00  0.00     0.097 C 
HETATM   27  O   UNL     1     133.167 154.262-274.546  1.00  0.00    -0.293 OA
ENDBRANCH   1  25
BRANCH  12  28
HETATM   28  O   UNL     1     130.982 151.706-278.995  1.00  0.00    -0.360 OA
ATOM     29  HO  UNL     1     130.742 151.442-279.876  1.00  0.00     0.217 HD
ENDBRANCH  12  28
TORSDOF 2
ENDMDL
MODEL 9
REMARK VINA RESULT:      -6.1      8.132     10.190
REMARK  2 active torsions:
REMARK  status: ('A' for Active; 'I' for Inactive)
REMARK    1  A    between atoms: C_1  and  C_2 
REMARK    2  A    between atoms: O_13  and  C_15 
ROOT
HETATM    1  C   UNL     1     134.737 149.592-276.603  1.00  0.00     0.061 C 
HETATM    2  C   UNL     1     135.761 154.236-278.024  1.00  0.00     0.105 C 
HETATM    3  C   UNL     1     135.855 153.061-278.659  1.00  0.00     0.041 C 
HETATM    4  N   UNL     1     134.518 154.878-277.970  1.00  0.00    -0.355 N 
ATOM      5  HN  UNL     1     134.356 155.731-277.435  1.00  0.00     0.166 HD
HETATM    6  N   UNL     1     132.257 154.017-278.504  1.00  0.00    -0.235 NA
HETATM    7  C   UNL     1     132.073 150.701-277.193  1.00  0.00     0.020 C 
HETATM    8  C   UNL     1     133.560 154.272-278.684  1.00  0.00     0.094 C 
HETATM    9  C   UNL     1     134.885 151.260-279.383  1.00  0.00     0.028 C 
HETATM   10  C   UNL     1     131.658 153.900-279.858  1.00  0.00     0.108 C 
HETATM   11  C   UNL     1     132.828 151.004-276.056  1.00  0.00     0.048 C 
HETATM   12  C   UNL     1     132.603 152.230-275.426  1.00  0.00     0.081 C 
HETATM   13  C   UNL     1     133.913 153.499-279.746  1.00  0.00    -0.007 C 
HETATM   14  C   UNL     1     136.667 152.047-278.442  1.00  0.00     0.194 C 
HETATM   15  C   UNL     1     132.849 153.644-280.784  1.00  0.00     0.058 C 
HETATM   16  C   UNL     1     135.810 151.010-278.368  1.00  0.00     0.017 C 
HETATM   17  C   UNL     1     134.838 152.617-279.425  1.00  0.00    -0.010 C 
HETATM   18  O   UNL     1     137.953 151.996-278.555  1.00  0.00    -0.287 OA
HETATM   19  C   UNL     1     135.622 150.430-277.184  1.00  0.00     0.034 C 
HETATM   20  O   UNL     1     134.017 149.851-274.367  1.00  0.00    -0.286 OA
HETATM   21  C   UNL     1     131.619 151.757-277.969  1.00  0.00     0.025 C 
HETATM   22  C   UNL     1     133.871 150.131-275.586  1.00  0.00     0.198 C 
HETATM   23  C   UNL     1     132.243 153.294-276.244  1.00  0.00     0.061 C 
HETATM   24  C   UNL     1     132.018 153.033-277.595  1.00  0.00     0.019 C 
ENDROOT
BRANCH   1  25
HETATM   25  C   UNL     1     134.660 148.212-277.014  1.00  0.00     0.159 C 
HETATM   26  C   UNL     1     135.913 147.417-277.183  1.00  0.00     0.097 C 
HETATM   27  O   UNL     1     133.568 147.696-277.242  1.00  0.00    -0.293 OA
ENDBRANCH   1  25
BRANCH  12  28
HETATM   28  O   UNL     1     132.599 152.312-274.077  1.00  0.00    -0.360 OA
ATOM     29  HO  UNL     1     132.105 152.995-273.640  1.00  0.00     0.217 HD
ENDBRANCH  12  28
TORSDOF 2
ENDMDL
