MODEL 1
REMARK VINA RESULT:      -4.4      0.000      0.000
REMARK  2 active torsions:
REMARK  status: ('A' for Active; 'I' for Inactive)
REMARK    1  A    between atoms: O_2  and  C_12 
REMARK    2  A    between atoms: C_4  and  O_9 
ROOT
HETATM    1  O   UNL     1      10.865   3.897 117.213  1.00  0.00    -0.270 OA
HETATM    2  C   UNL     1      12.490   2.111 116.982  1.00  0.00     0.248 C 
HETATM    3  C   UNL     1      11.992   3.545 116.895  1.00  0.00     0.256 C 
HETATM    4  N   UNL     1      13.048   4.368 116.644  1.00  0.00    -0.293 N 
ATOM      5  HN  UNL     1      13.053   5.373 116.819  1.00  0.00     0.172 HD
HETATM    6  O   UNL     1      15.079   4.169 115.657  1.00  0.00    -0.270 OA
HETATM    7  C   UNL     1      14.090   3.673 116.131  1.00  0.00     0.256 C 
HETATM    8  C   UNL     1      13.928   2.185 116.415  1.00  0.00     0.248 C 
ENDROOT
BRANCH   2   9
HETATM    9  O   UNL     1      12.425   1.636 118.316  1.00  0.00    -0.383 OA
ATOM     10  HO  UNL     1      13.155   1.057 118.503  1.00  0.00     0.210 HD
ENDBRANCH   2   9
BRANCH   8  11
HETATM   11  O   UNL     1      14.198   1.384 115.269  1.00  0.00    -0.383 OA
ATOM     12  HO  UNL     1      13.785   1.656 114.457  1.00  0.00     0.210 HD
ENDBRANCH   8  11
TORSDOF 2
ENDMDL
MODEL 2
REMARK VINA RESULT:      -4.3      1.544      3.003
REMARK  2 active torsions:
REMARK  status: ('A' for Active; 'I' for Inactive)
REMARK    1  A    between atoms: O_2  and  C_12 
REMARK    2  A    between atoms: C_4  and  O_9 
ROOT
HETATM    1  O   UNL     1      14.145   4.458 116.095  1.00  0.00    -0.270 OA
HETATM    2  C   UNL     1      11.996   3.582 116.801  1.00  0.00     0.248 C 
HETATM    3  C   UNL     1      13.494   3.528 116.549  1.00  0.00     0.256 C 
HETATM    4  N   UNL     1      14.000   2.399 117.121  1.00  0.00    -0.293 N 
ATOM      5  HN  UNL     1      14.984   2.258 117.351  1.00  0.00     0.172 HD
HETATM    6  O   UNL     1      13.209   0.347 117.668  1.00  0.00    -0.270 OA
HETATM    7  C   UNL     1      13.022   1.489 117.340  1.00  0.00     0.256 C 
HETATM    8  C   UNL     1      11.655   2.161 117.309  1.00  0.00     0.248 C 
ENDROOT
BRANCH   2   9
HETATM    9  O   UNL     1      11.678   4.611 117.724  1.00  0.00    -0.383 OA
ATOM     10  HO  UNL     1      10.980   5.160 117.388  1.00  0.00     0.210 HD
ENDBRANCH   2   9
BRANCH   8  11
HETATM   11  O   UNL     1      10.709   1.424 116.540  1.00  0.00    -0.383 OA
ATOM     12  HO  UNL     1      10.050   0.945 117.029  1.00  0.00     0.210 HD
ENDBRANCH   8  11
TORSDOF 2
ENDMDL
MODEL 3
REMARK VINA RESULT:      -4.3      2.332      3.949
REMARK  2 active torsions:
REMARK  status: ('A' for Active; 'I' for Inactive)
REMARK    1  A    between atoms: O_2  and  C_12 
REMARK    2  A    between atoms: C_4  and  O_9 
ROOT
HETATM    1  O   UNL     1      14.650   1.630 114.240  1.00  0.00    -0.270 OA
HETATM    2  C   UNL     1      14.178   2.311 116.520  1.00  0.00     0.248 C 
HETATM    3  C   UNL     1      14.572   1.335 115.424  1.00  0.00     0.256 C 
HETATM    4  N   UNL     1      15.038   0.189 115.997  1.00  0.00    -0.293 N 
ATOM      5  HN  UNL     1      15.623  -0.499 115.522  1.00  0.00     0.172 HD
HETATM    6  O   UNL     1      14.735  -0.897 117.962  1.00  0.00    -0.270 OA
HETATM    7  C   UNL     1      14.621   0.086 117.280  1.00  0.00     0.256 C 
HETATM    8  C   UNL     1      14.168   1.445 117.802  1.00  0.00     0.248 C 
ENDROOT
BRANCH   2   9
HETATM    9  O   UNL     1      15.085   3.400 116.573  1.00  0.00    -0.383 OA
ATOM     10  HO  UNL     1      15.641   3.338 117.340  1.00  0.00     0.210 HD
ENDBRANCH   2   9
BRANCH   8  11
HETATM   11  O   UNL     1      12.932   1.369 118.505  1.00  0.00    -0.383 OA
ATOM     12  HO  UNL     1      12.171   1.117 117.994  1.00  0.00     0.210 HD
ENDBRANCH   8  11
TORSDOF 2
ENDMDL
MODEL 4
REMARK VINA RESULT:      -4.2      2.275      3.405
REMARK  2 active torsions:
REMARK  status: ('A' for Active; 'I' for Inactive)
REMARK    1  A    between atoms: O_2  and  C_12 
REMARK    2  A    between atoms: C_4  and  O_9 
ROOT
HETATM    1  O   UNL     1      15.032  -0.722 118.103  1.00  0.00    -0.270 OA
HETATM    2  C   UNL     1      14.162   1.527 117.839  1.00  0.00     0.248 C 
HETATM    3  C   UNL     1      14.765   0.215 117.364  1.00  0.00     0.256 C 
HETATM    4  N   UNL     1      14.729   0.177 116.002  1.00  0.00    -0.293 N 
ATOM      5  HN  UNL     1      14.796  -0.674 115.445  1.00  0.00     0.172 HD
HETATM    6  O   UNL     1      14.708   1.700 114.324  1.00  0.00    -0.270 OA
HETATM    7  C   UNL     1      14.593   1.422 115.488  1.00  0.00     0.256 C 
HETATM    8  C   UNL     1      14.079   2.384 116.553  1.00  0.00     0.248 C 
ENDROOT
BRANCH   2   9
HETATM    9  O   UNL     1      12.907   1.308 118.462  1.00  0.00    -0.383 OA
ATOM     10  HO  UNL     1      12.920   1.613 119.362  1.00  0.00     0.210 HD
ENDBRANCH   2   9
BRANCH   8  11
HETATM   11  O   UNL     1      14.800   3.612 116.564  1.00  0.00    -0.383 OA
ATOM     12  HO  UNL     1      15.569   3.655 116.007  1.00  0.00     0.210 HD
ENDBRANCH   8  11
TORSDOF 2
ENDMDL
MODEL 5
REMARK VINA RESULT:      -3.9      0.417      3.010
REMARK  2 active torsions:
REMARK  status: ('A' for Active; 'I' for Inactive)
REMARK    1  A    between atoms: O_2  and  C_12 
REMARK    2  A    between atoms: C_4  and  O_9 
ROOT
HETATM    1  O   UNL     1      15.627   3.894 115.821  1.00  0.00    -0.270 OA
HETATM    2  C   UNL     1      14.192   2.051 116.476  1.00  0.00     0.248 C 
HETATM    3  C   UNL     1      14.531   3.508 116.202  1.00  0.00     0.256 C 
HETATM    4  N   UNL     1      13.384   4.242 116.221  1.00  0.00    -0.293 N 
ATOM      5  HN  UNL     1      13.279   5.164 115.797  1.00  0.00     0.172 HD
HETATM    6  O   UNL     1      11.346   4.068 117.197  1.00  0.00    -0.270 OA
HETATM    7  C   UNL     1      12.400   3.585 116.879  1.00  0.00     0.256 C 
HETATM    8  C   UNL     1      12.732   2.101 116.985  1.00  0.00     0.248 C 
ENDROOT
BRANCH   2   9
HETATM    9  O   UNL     1      14.363   1.267 115.306  1.00  0.00    -0.383 OA
ATOM     10  HO  UNL     1      13.537   1.156 114.852  1.00  0.00     0.210 HD
ENDBRANCH   2   9
BRANCH   8  11
HETATM   11  O   UNL     1      12.500   1.589 118.293  1.00  0.00    -0.383 OA
ATOM     12  HO  UNL     1      11.671   1.144 118.432  1.00  0.00     0.210 HD
ENDBRANCH   8  11
TORSDOF 2
ENDMDL
MODEL 6
REMARK VINA RESULT:      -3.8      5.212      6.351
REMARK  2 active torsions:
REMARK  status: ('A' for Active; 'I' for Inactive)
REMARK    1  A    between atoms: O_2  and  C_12 
REMARK    2  A    between atoms: C_4  and  O_9 
ROOT
HETATM    1  O   UNL     1      15.901   7.166 114.204  1.00  0.00    -0.270 OA
HETATM    2  C   UNL     1      16.734   6.332 112.084  1.00  0.00     0.248 C 
HETATM    3  C   UNL     1      15.850   6.322 113.321  1.00  0.00     0.256 C 
HETATM    4  N   UNL     1      14.871   5.388 113.160  1.00  0.00    -0.293 N 
ATOM      5  HN  UNL     1      13.997   5.368 113.686  1.00  0.00     0.172 HD
HETATM    6  O   UNL     1      14.622   3.465 111.986  1.00  0.00    -0.270 OA
HETATM    7  C   UNL     1      15.214   4.488 112.208  1.00  0.00     0.256 C 
HETATM    8  C   UNL     1      16.329   5.043 111.330  1.00  0.00     0.248 C 
ENDROOT
BRANCH   2   9
HETATM    9  O   UNL     1      16.536   7.520 111.335  1.00  0.00    -0.383 OA
ATOM     10  HO  UNL     1      17.362   7.847 110.999  1.00  0.00     0.210 HD
ENDBRANCH   2   9
BRANCH   8  11
HETATM   11  O   UNL     1      17.363   4.091 111.105  1.00  0.00    -0.383 OA
ATOM     12  HO  UNL     1      18.185   4.246 111.556  1.00  0.00     0.210 HD
ENDBRANCH   8  11
TORSDOF 2
ENDMDL
MODEL 7
REMARK VINA RESULT:      -3.7      3.900      5.011
REMARK  2 active torsions:
REMARK  status: ('A' for Active; 'I' for Inactive)
REMARK    1  A    between atoms: O_2  and  C_12 
REMARK    2  A    between atoms: C_4  and  O_9 
ROOT
HETATM    1  O   UNL     1      16.968   5.193 115.138  1.00  0.00    -0.270 OA
HETATM    2  C   UNL     1      15.648   5.129 113.103  1.00  0.00     0.248 C 
HETATM    3  C   UNL     1      16.229   4.568 114.391  1.00  0.00     0.256 C 
HETATM    4  N   UNL     1      15.614   3.385 114.677  1.00  0.00    -0.293 N 
ATOM      5  HN  UNL     1      15.598   2.949 115.599  1.00  0.00     0.172 HD
HETATM    6  O   UNL     1      14.570   1.757 113.496  1.00  0.00    -0.270 OA
HETATM    7  C   UNL     1      15.028   2.866 113.573  1.00  0.00     0.256 C 
HETATM    8  C   UNL     1      14.850   3.944 112.510  1.00  0.00     0.248 C 
ENDROOT
BRANCH   2   9
HETATM    9  O   UNL     1      14.857   6.276 113.367  1.00  0.00    -0.383 OA
ATOM     10  HO  UNL     1      13.937   6.045 113.425  1.00  0.00     0.210 HD
ENDBRANCH   2   9
BRANCH   8  11
HETATM   11  O   UNL     1      15.247   3.498 111.218  1.00  0.00    -0.383 OA
ATOM     12  HO  UNL     1      14.574   3.085 110.688  1.00  0.00     0.210 HD
ENDBRANCH   8  11
TORSDOF 2
ENDMDL
MODEL 8
REMARK VINA RESULT:      -3.7      2.121      3.070
REMARK  2 active torsions:
REMARK  status: ('A' for Active; 'I' for Inactive)
REMARK    1  A    between atoms: O_2  and  C_12 
REMARK    2  A    between atoms: C_4  and  O_9 
ROOT
HETATM    1  O   UNL     1      14.675   1.399 113.798  1.00  0.00    -0.270 OA
HETATM    2  C   UNL     1      14.294   2.198 116.057  1.00  0.00     0.248 C 
HETATM    3  C   UNL     1      14.731   2.316 114.605  1.00  0.00     0.256 C 
HETATM    4  N   UNL     1      14.956   3.628 114.314  1.00  0.00    -0.293 N 
ATOM      5  HN  UNL     1      14.977   4.017 113.372  1.00  0.00     0.172 HD
HETATM    6  O   UNL     1      15.540   5.484 115.477  1.00  0.00    -0.270 OA
HETATM    7  C   UNL     1      15.150   4.347 115.445  1.00  0.00     0.256 C 
HETATM    8  C   UNL     1      14.620   3.587 116.655  1.00  0.00     0.248 C 
ENDROOT
BRANCH   2   9
HETATM    9  O   UNL     1      12.922   1.846 116.141  1.00  0.00    -0.383 OA
ATOM     10  HO  UNL     1      12.608   1.516 115.308  1.00  0.00     0.210 HD
ENDBRANCH   2   9
BRANCH   8  11
HETATM   11  O   UNL     1      15.534   3.606 117.747  1.00  0.00    -0.383 OA
ATOM     12  HO  UNL     1      15.590   2.811 118.264  1.00  0.00     0.210 HD
ENDBRANCH   8  11
TORSDOF 2
ENDMDL
MODEL 9
REMARK VINA RESULT:      -3.7      5.251      6.318
REMARK  2 active torsions:
REMARK  status: ('A' for Active; 'I' for Inactive)
REMARK    1  A    between atoms: O_2  and  C_12 
REMARK    2  A    between atoms: C_4  and  O_9 
ROOT
HETATM    1  O   UNL     1      14.813   3.357 111.838  1.00  0.00    -0.270 OA
HETATM    2  C   UNL     1      16.503   5.066 111.514  1.00  0.00     0.248 C 
HETATM    3  C   UNL     1      15.282   4.438 112.165  1.00  0.00     0.256 C 
HETATM    4  N   UNL     1      14.963   5.145 113.286  1.00  0.00    -0.293 N 
ATOM      5  HN  UNL     1      14.388   4.789 114.050  1.00  0.00     0.172 HD
HETATM    6  O   UNL     1      15.252   7.270 114.018  1.00  0.00    -0.270 OA
HETATM    7  C   UNL     1      15.512   6.381 113.250  1.00  0.00     0.256 C 
HETATM    8  C   UNL     1      16.644   6.430 112.231  1.00  0.00     0.248 C 
ENDROOT
BRANCH   2   9
HETATM    9  O   UNL     1      17.637   4.226 111.657  1.00  0.00    -0.383 OA
ATOM     10  HO  UNL     1      18.414   4.739 111.844  1.00  0.00     0.210 HD
ENDBRANCH   2   9
BRANCH   8  11
HETATM   11  O   UNL     1      16.577   7.589 111.405  1.00  0.00    -0.383 OA
ATOM     12  HO  UNL     1      17.376   8.098 111.327  1.00  0.00     0.210 HD
ENDBRANCH   8  11
TORSDOF 2
ENDMDL
