MODEL 1
REMARK VINA RESULT:     -10.4      0.000      0.000
REMARK  4 active torsions:
REMARK  status: ('A' for Active; 'I' for Inactive)
REMARK    1  A    between atoms: O_3  and  N_17 
REMARK    2  A    between atoms: C_8  and  N_11 
REMARK    3  A    between atoms: N_13  and  C_16 
REMARK    4  A    between atoms: N_13  and  C_21 
ROOT
HETATM    1  C   UNL     1      16.858   9.239  28.251  1.00  0.00     0.002 C 
HETATM    2  C   UNL     1      15.552   9.664  28.313  1.00  0.00     0.029 C 
HETATM    3  C   UNL     1      15.624   8.559  25.642  1.00  0.00     0.037 C 
HETATM    4  C   UNL     1      14.495   8.538  26.439  1.00  0.00     0.059 C 
HETATM    5  C   UNL     1      14.436   9.106  27.702  1.00  0.00     0.034 C 
HETATM    6  C   UNL     1      17.418   8.413  27.309  1.00  0.00     0.002 C 
HETATM    7  C   UNL     1      16.821   8.028  26.113  1.00  0.00     0.029 C 
ENDROOT
BRANCH   3   8
HETATM    8  N   UNL     1      15.554   9.075  24.378  1.00  0.00    -0.343 N 
HETATM    9  C   UNL     1      14.669  10.087  24.103  1.00  0.00     0.064 C 
HETATM   10  C   UNL     1      15.226  11.376  24.171  1.00  0.00     0.083 C 
HETATM   11  C   UNL     1      13.316   9.963  23.819  1.00  0.00     0.032 C 
HETATM   12  N   UNL     1      16.540  11.491  23.849  1.00  0.00    -0.257 N 
HETATM   13  C   UNL     1      14.406  12.458  24.510  1.00  0.00     0.034 C 
HETATM   14  C   UNL     1      17.218  10.398  23.146  1.00  0.00     0.176 C 
HETATM   15  C   UNL     1      16.668   9.005  23.433  1.00  0.00     0.152 C 
HETATM   16  C   UNL     1      13.019  12.287  24.392  1.00  0.00     0.002 C 
HETATM   17  C   UNL     1      12.483  11.067  24.007  1.00  0.00     0.002 C 
BRANCH  12  18
HETATM   18  O   UNL     1      17.360  12.567  24.176  1.00  0.00    -0.287 OA
ATOM     19  HO  UNL     1      18.222  12.325  24.491  1.00  0.00     0.244 HD
ENDBRANCH  12  18
ENDBRANCH   3   8
BRANCH   5  20
HETATM   20  N   UNL     1      13.234   9.078  28.369  1.00  0.00    -0.356 N 
ATOM     21  HN  UNL     1      12.787   8.253  28.768  1.00  0.00     0.166 HD
BRANCH  20  22
HETATM   22  C   UNL     1      12.743  10.365  28.403  1.00  0.00     0.032 C 
HETATM   23  C   UNL     1      11.708  10.691  27.534  1.00  0.00     0.029 C 
HETATM   24  C   UNL     1      10.418  10.906  28.016  1.00  0.00     0.002 C 
HETATM   25  C   UNL     1      10.190  11.253  29.345  1.00  0.00     0.000 C 
HETATM   26  C   UNL     1      11.088  11.601  30.313  1.00  0.00     0.000 C 
HETATM   27  C   UNL     1      12.437  11.842  30.260  1.00  0.00     0.002 C 
HETATM   28  C   UNL     1      13.281  11.274  29.305  1.00  0.00     0.029 C 
ENDBRANCH  20  22
ENDBRANCH   5  20
TORSDOF 4
ENDMDL
MODEL 2
REMARK VINA RESULT:     -10.1      1.597      3.795
REMARK  4 active torsions:
REMARK  status: ('A' for Active; 'I' for Inactive)
REMARK    1  A    between atoms: O_3  and  N_17 
REMARK    2  A    between atoms: C_8  and  N_11 
REMARK    3  A    between atoms: N_13  and  C_16 
REMARK    4  A    between atoms: N_13  and  C_21 
ROOT
HETATM    1  C   UNL     1      11.758   9.311  25.140  1.00  0.00     0.002 C 
HETATM    2  C   UNL     1      11.796   9.914  26.374  1.00  0.00     0.029 C 
HETATM    3  C   UNL     1      13.821  11.434  24.979  1.00  0.00     0.037 C 
HETATM    4  C   UNL     1      13.019  11.972  25.968  1.00  0.00     0.059 C 
HETATM    5  C   UNL     1      12.078  11.241  26.675  1.00  0.00     0.034 C 
HETATM    6  C   UNL     1      12.330   9.763  23.977  1.00  0.00     0.002 C 
HETATM    7  C   UNL     1      13.246  10.805  23.879  1.00  0.00     0.029 C 
ENDROOT
BRANCH   3   8
HETATM    8  N   UNL     1      15.181  11.549  25.070  1.00  0.00    -0.343 N 
HETATM    9  C   UNL     1      15.898  10.620  25.780  1.00  0.00     0.064 C 
HETATM   10  C   UNL     1      16.435   9.583  24.998  1.00  0.00     0.083 C 
HETATM   11  C   UNL     1      16.096  10.587  27.153  1.00  0.00     0.032 C 
HETATM   12  N   UNL     1      16.768   9.892  23.719  1.00  0.00    -0.257 N 
HETATM   13  C   UNL     1      16.641   8.326  25.578  1.00  0.00     0.034 C 
HETATM   14  C   UNL     1      16.880  11.297  23.312  1.00  0.00     0.176 C 
HETATM   15  C   UNL     1      15.981  12.264  24.074  1.00  0.00     0.152 C 
HETATM   16  C   UNL     1      16.671   8.251  26.978  1.00  0.00     0.002 C 
HETATM   17  C   UNL     1      16.446   9.378  27.755  1.00  0.00     0.002 C 
BRANCH  12  18
HETATM   18  O   UNL     1      16.975   8.974  22.694  1.00  0.00    -0.287 OA
ATOM     19  HO  UNL     1      17.795   8.500  22.749  1.00  0.00     0.244 HD
ENDBRANCH  12  18
ENDBRANCH   3   8
BRANCH   5  20
HETATM   20  N   UNL     1      11.389  11.874  27.682  1.00  0.00    -0.356 N 
ATOM     21  HN  UNL     1      10.723  12.638  27.567  1.00  0.00     0.166 HD
BRANCH  20  22
HETATM   22  C   UNL     1      11.758  11.291  28.875  1.00  0.00     0.032 C 
HETATM   23  C   UNL     1      13.071  10.854  29.008  1.00  0.00     0.029 C 
HETATM   24  C   UNL     1      13.964  11.528  29.839  1.00  0.00     0.002 C 
HETATM   25  C   UNL     1      13.514  12.336  30.879  1.00  0.00     0.000 C 
HETATM   26  C   UNL     1      12.250  12.483  31.375  1.00  0.00     0.000 C 
HETATM   27  C   UNL     1      11.084  11.811  31.111  1.00  0.00     0.002 C 
HETATM   28  C   UNL     1      10.822  11.179  29.895  1.00  0.00     0.029 C 
ENDBRANCH  20  22
ENDBRANCH   5  20
TORSDOF 4
ENDMDL
MODEL 3
REMARK VINA RESULT:      -9.8      1.308      1.901
REMARK  4 active torsions:
REMARK  status: ('A' for Active; 'I' for Inactive)
REMARK    1  A    between atoms: O_3  and  N_17 
REMARK    2  A    between atoms: C_8  and  N_11 
REMARK    3  A    between atoms: N_13  and  C_16 
REMARK    4  A    between atoms: N_13  and  C_21 
ROOT
HETATM    1  C   UNL     1      16.365   9.762  28.096  1.00  0.00     0.002 C 
HETATM    2  C   UNL     1      15.627  10.915  27.973  1.00  0.00     0.029 C 
HETATM    3  C   UNL     1      14.631   9.404  25.719  1.00  0.00     0.037 C 
HETATM    4  C   UNL     1      13.854  10.297  26.433  1.00  0.00     0.059 C 
HETATM    5  C   UNL     1      14.334  11.060  27.484  1.00  0.00     0.034 C 
HETATM    6  C   UNL     1      16.157   8.570  27.449  1.00  0.00     0.002 C 
HETATM    7  C   UNL     1      15.293   8.372  26.377  1.00  0.00     0.029 C 
ENDROOT
BRANCH   3   8
HETATM    8  N   UNL     1      14.721   9.518  24.359  1.00  0.00    -0.343 N 
HETATM    9  C   UNL     1      14.467  10.725  23.758  1.00  0.00     0.064 C 
HETATM   10  C   UNL     1      15.614  11.496  23.502  1.00  0.00     0.083 C 
HETATM   11  C   UNL     1      13.226  11.254  23.433  1.00  0.00     0.032 C 
HETATM   12  N   UNL     1      16.762  10.818  23.247  1.00  0.00    -0.257 N 
HETATM   13  C   UNL     1      15.507  12.892  23.474  1.00  0.00     0.034 C 
HETATM   14  C   UNL     1      16.708   9.390  22.919  1.00  0.00     0.176 C 
HETATM   15  C   UNL     1      15.546   8.625  23.544  1.00  0.00     0.152 C 
HETATM   16  C   UNL     1      14.229  13.445  23.319  1.00  0.00     0.002 C 
HETATM   17  C   UNL     1      13.106  12.632  23.254  1.00  0.00     0.002 C 
BRANCH  12  18
HETATM   18  O   UNL     1      18.046  11.349  23.315  1.00  0.00    -0.287 OA
ATOM     19  HO  UNL     1      18.470  11.250  24.159  1.00  0.00     0.244 HD
ENDBRANCH  12  18
ENDBRANCH   3   8
BRANCH   5  20
HETATM   20  N   UNL     1      13.480  11.963  28.072  1.00  0.00    -0.356 N 
ATOM     21  HN  UNL     1      13.325  12.927  27.775  1.00  0.00     0.166 HD
BRANCH  20  22
HETATM   22  C   UNL     1      12.869  11.333  29.134  1.00  0.00     0.032 C 
HETATM   23  C   UNL     1      13.538  11.313  30.353  1.00  0.00     0.029 C 
HETATM   24  C   UNL     1      13.087  12.083  31.423  1.00  0.00     0.002 C 
HETATM   25  C   UNL     1      11.769  12.523  31.494  1.00  0.00     0.000 C 
HETATM   26  C   UNL     1      10.701  12.181  30.714  1.00  0.00     0.000 C 
HETATM   27  C   UNL     1      10.555  11.232  29.734  1.00  0.00     0.002 C 
HETATM   28  C   UNL     1      11.614  10.764  28.957  1.00  0.00     0.029 C 
ENDBRANCH  20  22
ENDBRANCH   5  20
TORSDOF 4
ENDMDL
MODEL 4
REMARK VINA RESULT:      -9.6      1.764      2.852
REMARK  4 active torsions:
REMARK  status: ('A' for Active; 'I' for Inactive)
REMARK    1  A    between atoms: O_3  and  N_17 
REMARK    2  A    between atoms: C_8  and  N_11 
REMARK    3  A    between atoms: N_13  and  C_16 
REMARK    4  A    between atoms: N_13  and  C_21 
ROOT
HETATM    1  C   UNL     1      16.738   9.385  28.268  1.00  0.00     0.002 C 
HETATM    2  C   UNL     1      15.733  10.082  28.897  1.00  0.00     0.029 C 
HETATM    3  C   UNL     1      14.530   9.639  26.306  1.00  0.00     0.037 C 
HETATM    4  C   UNL     1      13.800   9.703  27.479  1.00  0.00     0.059 C 
HETATM    5  C   UNL     1      14.361   9.961  28.718  1.00  0.00     0.034 C 
HETATM    6  C   UNL     1      16.653   8.690  27.088  1.00  0.00     0.002 C 
HETATM    7  C   UNL     1      15.590   8.744  26.192  1.00  0.00     0.029 C 
ENDROOT
BRANCH   3   8
HETATM    8  N   UNL     1      14.187  10.434  25.248  1.00  0.00    -0.343 N 
HETATM    9  C   UNL     1      15.108  10.695  24.265  1.00  0.00     0.064 C 
HETATM   10  C   UNL     1      15.017   9.848  23.148  1.00  0.00     0.083 C 
HETATM   11  C   UNL     1      16.111  11.654  24.291  1.00  0.00     0.032 C 
HETATM   12  N   UNL     1      13.783   9.373  22.839  1.00  0.00    -0.257 N 
HETATM   13  C   UNL     1      16.168   9.581  22.397  1.00  0.00     0.034 C 
HETATM   14  C   UNL     1      12.593   9.995  23.429  1.00  0.00     0.176 C 
HETATM   15  C   UNL     1      12.802  10.610  24.809  1.00  0.00     0.152 C 
HETATM   16  C   UNL     1      17.259  10.449  22.546  1.00  0.00     0.002 C 
HETATM   17  C   UNL     1      17.213  11.500  23.450  1.00  0.00     0.002 C 
BRANCH  12  18
HETATM   18  O   UNL     1      13.520   8.278  22.023  1.00  0.00    -0.287 OA
ATOM     19  HO  UNL     1      14.284   7.913  21.593  1.00  0.00     0.244 HD
ENDBRANCH  12  18
ENDBRANCH   3   8
BRANCH   5  20
HETATM   20  N   UNL     1      13.520  10.066  29.801  1.00  0.00    -0.356 N 
ATOM     21  HN  UNL     1      13.378   9.360  30.523  1.00  0.00     0.166 HD
BRANCH  20  22
HETATM   22  C   UNL     1      12.902  11.296  29.735  1.00  0.00     0.032 C 
HETATM   23  C   UNL     1      11.656  11.368  29.123  1.00  0.00     0.029 C 
HETATM   24  C   UNL     1      10.505  11.585  29.879  1.00  0.00     0.002 C 
HETATM   25  C   UNL     1      10.567  12.174  31.138  1.00  0.00     0.000 C 
HETATM   26  C   UNL     1      11.625  12.770  31.762  1.00  0.00     0.000 C 
HETATM   27  C   UNL     1      12.882  13.090  31.318  1.00  0.00     0.002 C 
HETATM   28  C   UNL     1      13.530  12.403  30.292  1.00  0.00     0.029 C 
ENDBRANCH  20  22
ENDBRANCH   5  20
TORSDOF 4
ENDMDL
MODEL 5
REMARK VINA RESULT:      -9.5      2.324      5.605
REMARK  4 active torsions:
REMARK  status: ('A' for Active; 'I' for Inactive)
REMARK    1  A    between atoms: O_3  and  N_17 
REMARK    2  A    between atoms: C_8  and  N_11 
REMARK    3  A    between atoms: N_13  and  C_16 
REMARK    4  A    between atoms: N_13  and  C_21 
ROOT
HETATM    1  C   UNL     1      15.479   8.254  27.096  1.00  0.00     0.002 C 
HETATM    2  C   UNL     1      15.486   8.996  25.939  1.00  0.00     0.029 C 
HETATM    3  C   UNL     1      15.051  11.075  27.900  1.00  0.00     0.037 C 
HETATM    4  C   UNL     1      15.750  11.278  26.725  1.00  0.00     0.059 C 
HETATM    5  C   UNL     1      15.924  10.302  25.758  1.00  0.00     0.034 C 
HETATM    6  C   UNL     1      15.553   8.724  28.384  1.00  0.00     0.002 C 
HETATM    7  C   UNL     1      15.425  10.054  28.768  1.00  0.00     0.029 C 
ENDROOT
BRANCH   3   8
HETATM    8  N   UNL     1      14.010  11.902  28.222  1.00  0.00    -0.343 N 
HETATM    9  C   UNL     1      12.720  11.448  28.107  1.00  0.00     0.064 C 
HETATM   10  C   UNL     1      12.174  10.948  29.302  1.00  0.00     0.083 C 
HETATM   11  C   UNL     1      11.949  11.399  26.954  1.00  0.00     0.032 C 
HETATM   12  N   UNL     1      12.617  11.507  30.457  1.00  0.00    -0.257 N 
HETATM   13  C   UNL     1      11.188   9.956  29.241  1.00  0.00     0.034 C 
HETATM   14  C   UNL     1      13.347  12.778  30.420  1.00  0.00     0.176 C 
HETATM   15  C   UNL     1      14.151  13.026  29.148  1.00  0.00     0.152 C 
HETATM   16  C   UNL     1      10.517   9.778  28.023  1.00  0.00     0.002 C 
HETATM   17  C   UNL     1      10.864  10.524  26.905  1.00  0.00     0.002 C 
BRANCH  12  18
HETATM   18  O   UNL     1      12.487  10.950  31.725  1.00  0.00    -0.287 OA
ATOM     19  HO  UNL     1      12.870  10.087  31.819  1.00  0.00     0.244 HD
ENDBRANCH  12  18
ENDBRANCH   3   8
BRANCH   5  20
HETATM   20  N   UNL     1      16.583  10.647  24.601  1.00  0.00    -0.356 N 
ATOM     21  HN  UNL     1      17.591  10.753  24.491  1.00  0.00     0.166 HD
BRANCH  20  22
HETATM   22  C   UNL     1      15.636  10.824  23.615  1.00  0.00     0.032 C 
HETATM   23  C   UNL     1      15.423   9.780  22.721  1.00  0.00     0.029 C 
HETATM   24  C   UNL     1      14.251   9.028  22.772  1.00  0.00     0.002 C 
HETATM   25  C   UNL     1      13.095   9.531  23.361  1.00  0.00     0.000 C 
HETATM   26  C   UNL     1      12.829  10.796  23.803  1.00  0.00     0.000 C 
HETATM   27  C   UNL     1      13.535  11.966  23.692  1.00  0.00     0.002 C 
HETATM   28  C   UNL     1      14.923  12.014  23.563  1.00  0.00     0.029 C 
ENDBRANCH  20  22
ENDBRANCH   5  20
TORSDOF 4
ENDMDL
MODEL 6
REMARK VINA RESULT:      -9.3      1.809      3.300
REMARK  4 active torsions:
REMARK  status: ('A' for Active; 'I' for Inactive)
REMARK    1  A    between atoms: O_3  and  N_17 
REMARK    2  A    between atoms: C_8  and  N_11 
REMARK    3  A    between atoms: N_13  and  C_16 
REMARK    4  A    between atoms: N_13  and  C_21 
ROOT
HETATM    1  C   UNL     1      12.905  12.963  25.909  1.00  0.00     0.002 C 
HETATM    2  C   UNL     1      12.954  12.524  27.211  1.00  0.00     0.029 C 
HETATM    3  C   UNL     1      15.074  10.946  26.040  1.00  0.00     0.037 C 
HETATM    4  C   UNL     1      15.093  11.385  27.351  1.00  0.00     0.059 C 
HETATM    5  C   UNL     1      14.062  12.101  27.935  1.00  0.00     0.034 C 
HETATM    6  C   UNL     1      13.838  12.748  24.925  1.00  0.00     0.002 C 
HETATM    7  C   UNL     1      14.903  11.857  25.001  1.00  0.00     0.029 C 
ENDROOT
BRANCH   3   8
HETATM    8  N   UNL     1      15.256   9.619  25.764  1.00  0.00    -0.343 N 
HETATM    9  C   UNL     1      14.588   9.043  24.714  1.00  0.00     0.064 C 
HETATM   10  C   UNL     1      15.327   8.986  23.520  1.00  0.00     0.083 C 
HETATM   11  C   UNL     1      13.283   8.571  24.710  1.00  0.00     0.032 C 
HETATM   12  N   UNL     1      16.674   8.865  23.640  1.00  0.00    -0.257 N 
HETATM   13  C   UNL     1      14.649   9.006  22.295  1.00  0.00     0.034 C 
HETATM   14  C   UNL     1      17.259   8.469  24.925  1.00  0.00     0.176 C 
HETATM   15  C   UNL     1      16.463   8.890  26.155  1.00  0.00     0.152 C 
HETATM   16  C   UNL     1      13.282   8.697  22.301  1.00  0.00     0.002 C 
HETATM   17  C   UNL     1      12.617   8.438  23.491  1.00  0.00     0.002 C 
BRANCH  12  18
HETATM   18  O   UNL     1      17.601   9.137  22.640  1.00  0.00    -0.287 OA
ATOM     19  HO  UNL     1      17.225   9.446  21.825  1.00  0.00     0.244 HD
ENDBRANCH  12  18
ENDBRANCH   3   8
BRANCH   5  20
HETATM   20  N   UNL     1      14.170  12.422  29.268  1.00  0.00    -0.356 N 
ATOM     21  HN  UNL     1      14.788  13.127  29.668  1.00  0.00     0.166 HD
BRANCH  20  22
HETATM   22  C   UNL     1      13.292  11.621  29.965  1.00  0.00     0.032 C 
HETATM   23  C   UNL     1      13.006  11.960  31.283  1.00  0.00     0.029 C 
HETATM   24  C   UNL     1      11.757  12.474  31.629  1.00  0.00     0.002 C 
HETATM   25  C   UNL     1      10.638  12.253  30.832  1.00  0.00     0.000 C 
HETATM   26  C   UNL     1      10.493  11.425  29.756  1.00  0.00     0.000 C 
HETATM   27  C   UNL     1      11.327  10.481  29.215  1.00  0.00     0.002 C 
HETATM   28  C   UNL     1      12.716  10.528  29.329  1.00  0.00     0.029 C 
ENDBRANCH  20  22
ENDBRANCH   5  20
TORSDOF 4
ENDMDL
MODEL 7
REMARK VINA RESULT:      -9.0      1.828      3.759
REMARK  4 active torsions:
REMARK  status: ('A' for Active; 'I' for Inactive)
REMARK    1  A    between atoms: O_3  and  N_17 
REMARK    2  A    between atoms: C_8  and  N_11 
REMARK    3  A    between atoms: N_13  and  C_16 
REMARK    4  A    between atoms: N_13  and  C_21 
ROOT
HETATM    1  C   UNL     1      12.375  13.016  25.500  1.00  0.00     0.002 C 
HETATM    2  C   UNL     1      12.479  12.539  26.785  1.00  0.00     0.029 C 
HETATM    3  C   UNL     1      14.553  11.005  25.483  1.00  0.00     0.037 C 
HETATM    4  C   UNL     1      14.625  11.405  26.804  1.00  0.00     0.059 C 
HETATM    5  C   UNL     1      13.616  12.100  27.451  1.00  0.00     0.034 C 
HETATM    6  C   UNL     1      13.268  12.833  24.473  1.00  0.00     0.002 C 
HETATM    7  C   UNL     1      14.337  11.944  24.479  1.00  0.00     0.029 C 
ENDROOT
BRANCH   3   8
HETATM    8  N   UNL     1      14.728   9.686  25.162  1.00  0.00    -0.343 N 
HETATM    9  C   UNL     1      15.570   9.341  24.136  1.00  0.00     0.064 C 
HETATM   10  C   UNL     1      16.872   9.004  24.545  1.00  0.00     0.083 C 
HETATM   11  C   UNL     1      15.280   9.337  22.779  1.00  0.00     0.032 C 
HETATM   12  N   UNL     1      16.999   8.439  25.773  1.00  0.00    -0.257 N 
HETATM   13  C   UNL     1      17.942   9.217  23.668  1.00  0.00     0.034 C 
HETATM   14  C   UNL     1      15.817   7.905  26.457  1.00  0.00     0.176 C 
HETATM   15  C   UNL     1      14.504   8.604  26.120  1.00  0.00     0.152 C 
HETATM   16  C   UNL     1      17.645   9.389  22.308  1.00  0.00     0.002 C 
HETATM   17  C   UNL     1      16.331   9.403  21.864  1.00  0.00     0.002 C 
BRANCH  12  18
HETATM   18  O   UNL     1      18.179   8.353  26.504  1.00  0.00    -0.287 OA
ATOM     19  HO  UNL     1      18.797   7.708  26.183  1.00  0.00     0.244 HD
ENDBRANCH  12  18
ENDBRANCH   3   8
BRANCH   5  20
HETATM   20  N   UNL     1      13.777  12.382  28.787  1.00  0.00    -0.356 N 
ATOM     21  HN  UNL     1      14.366  13.116  29.179  1.00  0.00     0.166 HD
BRANCH  20  22
HETATM   22  C   UNL     1      13.000  11.496  29.500  1.00  0.00     0.032 C 
HETATM   23  C   UNL     1      12.228  11.999  30.542  1.00  0.00     0.029 C 
HETATM   24  C   UNL     1      10.841  12.076  30.426  1.00  0.00     0.002 C 
HETATM   25  C   UNL     1      10.145  11.278  29.522  1.00  0.00     0.000 C 
HETATM   26  C   UNL     1      10.595  10.232  28.769  1.00  0.00     0.000 C 
HETATM   27  C   UNL     1      11.795   9.568  28.757  1.00  0.00     0.002 C 
HETATM   28  C   UNL     1      12.999  10.154  29.146  1.00  0.00     0.029 C 
ENDBRANCH  20  22
ENDBRANCH   5  20
TORSDOF 4
ENDMDL
MODEL 8
REMARK VINA RESULT:      -8.8      2.175      6.007
REMARK  4 active torsions:
REMARK  status: ('A' for Active; 'I' for Inactive)
REMARK    1  A    between atoms: O_3  and  N_17 
REMARK    2  A    between atoms: C_8  and  N_11 
REMARK    3  A    between atoms: N_13  and  C_16 
REMARK    4  A    between atoms: N_13  and  C_21 
ROOT
HETATM    1  C   UNL     1      16.862   8.654  26.166  1.00  0.00     0.002 C 
HETATM    2  C   UNL     1      15.786   8.265  25.405  1.00  0.00     0.029 C 
HETATM    3  C   UNL     1      14.451   9.775  27.478  1.00  0.00     0.037 C 
HETATM    4  C   UNL     1      13.990   9.705  26.177  1.00  0.00     0.059 C 
HETATM    5  C   UNL     1      14.595   8.948  25.188  1.00  0.00     0.034 C 
HETATM    6  C   UNL     1      16.877   9.601  27.160  1.00  0.00     0.002 C 
HETATM    7  C   UNL     1      15.756  10.188  27.735  1.00  0.00     0.029 C 
ENDROOT
BRANCH   3   8
HETATM    8  N   UNL     1      13.613   9.468  28.514  1.00  0.00    -0.343 N 
HETATM    9  C   UNL     1      13.399  10.384  29.512  1.00  0.00     0.064 C 
HETATM   10  C   UNL     1      12.249  11.173  29.336  1.00  0.00     0.083 C 
HETATM   11  C   UNL     1      14.207  10.626  30.614  1.00  0.00     0.032 C 
HETATM   12  N   UNL     1      11.208  10.597  28.682  1.00  0.00    -0.257 N 
HETATM   13  C   UNL     1      12.217  12.465  29.874  1.00  0.00     0.034 C 
HETATM   14  C   UNL     1      11.177   9.143  28.495  1.00  0.00     0.176 C 
HETATM   15  C   UNL     1      12.544   8.475  28.397  1.00  0.00     0.152 C 
HETATM   16  C   UNL     1      13.148  12.778  30.874  1.00  0.00     0.002 C 
HETATM   17  C   UNL     1      14.103  11.852  31.271  1.00  0.00     0.002 C 
BRANCH  12  18
HETATM   18  O   UNL     1      10.142  11.278  28.103  1.00  0.00    -0.287 OA
ATOM     19  HO  UNL     1      10.391  12.036  27.587  1.00  0.00     0.244 HD
ENDBRANCH  12  18
ENDBRANCH   3   8
BRANCH   5  20
HETATM   20  N   UNL     1      14.001   8.907  23.948  1.00  0.00    -0.356 N 
ATOM     21  HN  UNL     1      13.239   8.290  23.666  1.00  0.00     0.166 HD
BRANCH  20  22
HETATM   22  C   UNL     1      14.619   9.849  23.155  1.00  0.00     0.032 C 
HETATM   23  C   UNL     1      14.112  11.144  23.166  1.00  0.00     0.029 C 
HETATM   24  C   UNL     1      14.819  12.178  23.777  1.00  0.00     0.002 C 
HETATM   25  C   UNL     1      16.193  12.093  23.984  1.00  0.00     0.000 C 
HETATM   26  C   UNL     1      17.080  11.163  23.522  1.00  0.00     0.000 C 
HETATM   27  C   UNL     1      16.936  10.131  22.630  1.00  0.00     0.002 C 
HETATM   28  C   UNL     1      15.724   9.482  22.398  1.00  0.00     0.029 C 
ENDBRANCH  20  22
ENDBRANCH   5  20
TORSDOF 4
ENDMDL
MODEL 9
REMARK VINA RESULT:      -8.4      1.443      1.988
REMARK  4 active torsions:
REMARK  status: ('A' for Active; 'I' for Inactive)
REMARK    1  A    between atoms: O_3  and  N_17 
REMARK    2  A    between atoms: C_8  and  N_11 
REMARK    3  A    between atoms: N_13  and  C_16 
REMARK    4  A    between atoms: N_13  and  C_21 
ROOT
HETATM    1  C   UNL     1      17.354   9.289  28.327  1.00  0.00     0.002 C 
HETATM    2  C   UNL     1      16.133   9.831  28.649  1.00  0.00     0.029 C 
HETATM    3  C   UNL     1      15.729   9.246  25.848  1.00  0.00     0.037 C 
HETATM    4  C   UNL     1      14.714   9.195  26.785  1.00  0.00     0.059 C 
HETATM    5  C   UNL     1      14.887   9.519  28.120  1.00  0.00     0.034 C 
HETATM    6  C   UNL     1      17.681   8.600  27.186  1.00  0.00     0.002 C 
HETATM    7  C   UNL     1      16.896   8.512  26.041  1.00  0.00     0.029 C 
ENDROOT
BRANCH   3   8
HETATM    8  N   UNL     1      15.570   9.994  24.714  1.00  0.00    -0.343 N 
HETATM    9  C   UNL     1      14.500   9.761  23.888  1.00  0.00     0.064 C 
HETATM   10  C   UNL     1      13.397  10.600  24.120  1.00  0.00     0.083 C 
HETATM   11  C   UNL     1      14.394   8.781  22.911  1.00  0.00     0.032 C 
HETATM   12  N   UNL     1      13.665  11.850  24.578  1.00  0.00    -0.257 N 
HETATM   13  C   UNL     1      12.110  10.134  23.827  1.00  0.00     0.034 C 
HETATM   14  C   UNL     1      15.029  12.381  24.493  1.00  0.00     0.176 C 
HETATM   15  C   UNL     1      16.137  11.336  24.567  1.00  0.00     0.152 C 
HETATM   16  C   UNL     1      11.996   9.028  22.973  1.00  0.00     0.002 C 
HETATM   17  C   UNL     1      13.125   8.387  22.485  1.00  0.00     0.002 C 
BRANCH  12  18
HETATM   18  O   UNL     1      12.750  12.698  25.193  1.00  0.00    -0.287 OA
ATOM     19  HO  UNL     1      13.069  13.117  25.983  1.00  0.00     0.244 HD
ENDBRANCH  12  18
ENDBRANCH   3   8
BRANCH   5  20
HETATM   20  N   UNL     1      13.783   9.493  28.941  1.00  0.00    -0.356 N 
ATOM     21  HN  UNL     1      13.432   8.684  29.451  1.00  0.00     0.166 HD
BRANCH  20  22
HETATM   22  C   UNL     1      13.238  10.759  28.949  1.00  0.00     0.032 C 
HETATM   23  C   UNL     1      12.043  10.958  28.267  1.00  0.00     0.029 C 
HETATM   24  C   UNL     1      10.855  11.174  28.963  1.00  0.00     0.002 C 
HETATM   25  C   UNL     1      10.858  11.643  30.273  1.00  0.00     0.000 C 
HETATM   26  C   UNL     1      11.900  12.118  31.017  1.00  0.00     0.000 C 
HETATM   27  C   UNL     1      13.201  12.402  30.687  1.00  0.00     0.002 C 
HETATM   28  C   UNL     1      13.882  11.772  29.647  1.00  0.00     0.029 C 
ENDBRANCH  20  22
ENDBRANCH   5  20
TORSDOF 4
ENDMDL
