MODEL 1
REMARK VINA RESULT:     -10.4      0.000      0.000
REMARK  4 active torsions:
REMARK  status: ('A' for Active; 'I' for Inactive)
REMARK    1  A    between atoms: C_10  and  C_27 
REMARK    2  A    between atoms: C_11  and  C_27 
REMARK       I    between atoms: N_22  and  C_32 
REMARK    3  A    between atoms: N_22  and  C_34 
REMARK    4  A    between atoms: C_28  and  C_32 
ROOT
HETATM    1  C   UNL     1       8.806 -12.435  15.646  1.00  0.00     0.000 C 
HETATM    2  C   UNL     1       9.681 -12.042  14.657  1.00  0.00     0.001 C 
HETATM    3  C   UNL     1      11.135 -13.839  15.131  1.00  0.00    -0.009 C 
HETATM    4  C   UNL     1      10.898 -12.657  14.405  1.00  0.00     0.014 C 
HETATM    5  C   UNL     1       9.179 -14.845  16.002  1.00  0.00     0.030 C 
HETATM    6  C   UNL     1       8.698 -13.581  16.403  1.00  0.00     0.002 C 
HETATM    7  C   UNL     1      10.176 -14.845  15.028  1.00  0.00     0.045 C 
ENDROOT
BRANCH   3   8
HETATM    8  C   UNL     1      12.205 -13.947  16.052  1.00  0.00     0.025 C 
BRANCH   8   9
HETATM    9  C   UNL     1      13.537 -13.922  15.612  1.00  0.00    -0.035 C 
HETATM   10  C   UNL     1      14.177 -14.952  14.940  1.00  0.00     0.012 C 
HETATM   11  C   UNL     1      15.232 -14.352  14.267  1.00  0.00     0.013 C 
HETATM   12  C   UNL     1      15.240 -12.986  14.571  1.00  0.00    -0.025 C 
HETATM   13  C   UNL     1      15.985 -12.023  13.798  1.00  0.00    -0.025 C 
HETATM   14  C   UNL     1      14.359 -12.796  15.642  1.00  0.00     0.023 C 
HETATM   15  C   UNL     1      15.627 -10.687  13.644  1.00  0.00     0.024 C 
HETATM   16  C   UNL     1      17.092 -12.518  13.100  1.00  0.00     0.013 C 
HETATM   17  C   UNL     1      16.162  -9.956  12.574  1.00  0.00    -0.022 C 
HETATM   18  C   UNL     1      15.521  -8.801  12.087  1.00  0.00     0.029 C 
HETATM   19  C   UNL     1      17.100 -10.564  11.699  1.00  0.00    -0.011 C 
HETATM   20  C   UNL     1      16.198  -8.054  11.129  1.00  0.00     0.088 C 
HETATM   21  N   UNL     1      17.352  -8.489  10.543  1.00  0.00    -0.374 N 
HETATM   22  C   UNL     1      17.680  -9.784  10.691  1.00  0.00     0.099 C 
ATOM     23  HN  UNL     1      17.944  -7.852  10.010  1.00  0.00     0.164 HD
HETATM   24  C   UNL     1      17.578 -11.849  11.987  1.00  0.00     0.014 C 
ENDBRANCH   8   9
ENDBRANCH   3   8
BRANCH   7  25
HETATM   25  N   UNL     1      10.156 -15.658  13.908  1.00  0.00    -0.326 N 
HETATM   26  C   UNL     1       9.149 -15.585  13.027  1.00  0.00     0.231 C 
HETATM   27  O   UNL     1       7.964 -15.624  13.340  1.00  0.00    -0.272 OA
ATOM     28  HN  UNL     1      10.916 -16.319  13.752  1.00  0.00     0.169 HD
BRANCH  26  29
HETATM   29  C   UNL     1       9.554 -15.371  11.587  1.00  0.00     0.045 C 
HETATM   30  C   UNL     1       9.270 -13.935  11.137  1.00  0.00     0.020 C 
HETATM   31  C   UNL     1       8.240 -13.969  10.021  1.00  0.00     0.002 C 
HETATM   32  C   UNL     1       7.743 -15.403   9.934  1.00  0.00     0.006 C 
HETATM   33  C   UNL     1       8.705 -16.265  10.714  1.00  0.00     0.003 C 
HETATM   34  C   UNL     1       9.610 -17.132   9.872  1.00  0.00     0.006 C 
HETATM   35  C   UNL     1      11.034 -16.692  10.121  1.00  0.00     0.002 C 
HETATM   36  C   UNL     1      11.012 -15.788  11.340  1.00  0.00     0.020 C 
ENDBRANCH  26  29
ENDBRANCH   7  25
TORSDOF 4
ENDMDL
MODEL 2
REMARK VINA RESULT:     -10.3      3.192      5.080
REMARK  4 active torsions:
REMARK  status: ('A' for Active; 'I' for Inactive)
REMARK    1  A    between atoms: C_10  and  C_27 
REMARK    2  A    between atoms: C_11  and  C_27 
REMARK       I    between atoms: N_22  and  C_32 
REMARK    3  A    between atoms: N_22  and  C_34 
REMARK    4  A    between atoms: C_28  and  C_32 
ROOT
HETATM    1  C   UNL     1       8.725 -12.884  17.102  1.00  0.00     0.000 C 
HETATM    2  C   UNL     1       8.376 -12.577  15.804  1.00  0.00     0.001 C 
HETATM    3  C   UNL     1      10.593 -12.891  15.059  1.00  0.00    -0.009 C 
HETATM    4  C   UNL     1       9.279 -12.488  14.755  1.00  0.00     0.014 C 
HETATM    5  C   UNL     1      10.762 -14.265  16.977  1.00  0.00     0.030 C 
HETATM    6  C   UNL     1       9.858 -13.430  17.665  1.00  0.00     0.002 C 
HETATM    7  C   UNL     1      10.754 -14.171  15.586  1.00  0.00     0.045 C 
ENDROOT
BRANCH   3   8
HETATM    8  C   UNL     1      11.684 -11.991  14.990  1.00  0.00     0.025 C 
BRANCH   8   9
HETATM    9  C   UNL     1      12.992 -12.461  14.802  1.00  0.00    -0.035 C 
HETATM   10  C   UNL     1      14.059 -12.221  15.654  1.00  0.00     0.012 C 
HETATM   11  C   UNL     1      14.969 -13.238  15.399  1.00  0.00     0.013 C 
HETATM   12  C   UNL     1      14.462 -14.049  14.377  1.00  0.00    -0.025 C 
HETATM   13  C   UNL     1      14.986 -15.363  14.097  1.00  0.00    -0.025 C 
HETATM   14  C   UNL     1      13.370 -13.375  13.818  1.00  0.00     0.023 C 
HETATM   15  C   UNL     1      14.244 -16.411  13.558  1.00  0.00     0.024 C 
HETATM   16  C   UNL     1      16.311 -15.592  14.482  1.00  0.00     0.013 C 
HETATM   17  C   UNL     1      14.712 -17.724  13.706  1.00  0.00    -0.022 C 
HETATM   18  C   UNL     1      13.838 -18.824  13.619  1.00  0.00     0.029 C 
HETATM   19  C   UNL     1      15.955 -17.966  14.347  1.00  0.00    -0.011 C 
HETATM   20  C   UNL     1      14.407 -20.092  13.623  1.00  0.00     0.088 C 
HETATM   21  N   UNL     1      15.733 -20.297  13.875  1.00  0.00    -0.374 N 
HETATM   22  C   UNL     1      16.435 -19.281  14.404  1.00  0.00     0.099 C 
ATOM     23  HN  UNL     1      16.176 -21.192  13.668  1.00  0.00     0.164 HD
HETATM   24  C   UNL     1      16.763 -16.882  14.714  1.00  0.00     0.014 C 
ENDBRANCH   8   9
ENDBRANCH   3   8
BRANCH   7  25
HETATM   25  N   UNL     1      10.720 -15.267  14.741  1.00  0.00    -0.326 N 
HETATM   26  C   UNL     1       9.552 -15.782  14.334  1.00  0.00     0.231 C 
HETATM   27  O   UNL     1       8.630 -16.068  15.091  1.00  0.00    -0.272 OA
ATOM     28  HN  UNL     1      11.593 -15.687  14.426  1.00  0.00     0.169 HD
BRANCH  26  29
HETATM   29  C   UNL     1       9.388 -15.931  12.839  1.00  0.00     0.045 C 
HETATM   30  C   UNL     1       8.994 -17.361  12.462  1.00  0.00     0.020 C 
HETATM   31  C   UNL     1      10.099 -17.962  11.609  1.00  0.00     0.002 C 
HETATM   32  C   UNL     1      11.256 -16.977  11.641  1.00  0.00     0.006 C 
HETATM   33  C   UNL     1      10.725 -15.672  12.184  1.00  0.00     0.003 C 
HETATM   34  C   UNL     1      10.567 -14.574  11.161  1.00  0.00     0.006 C 
HETATM   35  C   UNL     1       9.098 -14.228  11.078  1.00  0.00     0.002 C 
HETATM   36  C   UNL     1       8.420 -14.883  12.267  1.00  0.00     0.020 C 
ENDBRANCH  26  29
ENDBRANCH   7  25
TORSDOF 4
ENDMDL
MODEL 3
REMARK VINA RESULT:     -10.2      3.183      6.898
REMARK  4 active torsions:
REMARK  status: ('A' for Active; 'I' for Inactive)
REMARK    1  A    between atoms: C_10  and  C_27 
REMARK    2  A    between atoms: C_11  and  C_27 
REMARK       I    between atoms: N_22  and  C_32 
REMARK    3  A    between atoms: N_22  and  C_34 
REMARK    4  A    between atoms: C_28  and  C_32 
ROOT
HETATM    1  C   UNL     1       9.087 -13.097  17.673  1.00  0.00     0.000 C 
HETATM    2  C   UNL     1      10.201 -13.905  17.594  1.00  0.00     0.001 C 
HETATM    3  C   UNL     1       9.874 -14.252  15.284  1.00  0.00    -0.009 C 
HETATM    4  C   UNL     1      10.599 -14.573  16.446  1.00  0.00     0.014 C 
HETATM    5  C   UNL     1       8.708 -12.198  15.410  1.00  0.00     0.030 C 
HETATM    6  C   UNL     1       8.286 -12.509  16.719  1.00  0.00     0.002 C 
HETATM    7  C   UNL     1       9.810 -12.905  14.932  1.00  0.00     0.045 C 
ENDROOT
BRANCH   3   8
HETATM    8  C   UNL     1       9.108 -15.220  14.591  1.00  0.00     0.025 C 
BRANCH   8   9
HETATM    9  C   UNL     1       9.731 -16.256  13.880  1.00  0.00    -0.035 C 
HETATM   10  C   UNL     1       9.965 -16.261  12.513  1.00  0.00     0.012 C 
HETATM   11  C   UNL     1      11.005 -17.159  12.321  1.00  0.00     0.013 C 
HETATM   12  C   UNL     1      11.357 -17.711  13.559  1.00  0.00    -0.025 C 
HETATM   13  C   UNL     1      12.596 -18.418  13.769  1.00  0.00    -0.025 C 
HETATM   14  C   UNL     1      10.355 -17.356  14.469  1.00  0.00     0.023 C 
HETATM   15  C   UNL     1      13.272 -18.481  14.984  1.00  0.00     0.024 C 
HETATM   16  C   UNL     1      13.172 -19.000  12.635  1.00  0.00     0.013 C 
HETATM   17  C   UNL     1      14.631 -18.827  14.991  1.00  0.00    -0.022 C 
HETATM   18  C   UNL     1      15.470 -18.469  16.063  1.00  0.00     0.029 C 
HETATM   19  C   UNL     1      15.283 -19.164  13.775  1.00  0.00    -0.011 C 
HETATM   20  C   UNL     1      16.762 -18.984  16.060  1.00  0.00     0.088 C 
HETATM   21  N   UNL     1      17.276 -19.665  14.994  1.00  0.00    -0.374 N 
HETATM   22  C   UNL     1      16.617 -19.587  13.825  1.00  0.00     0.099 C 
ATOM     23  HN  UNL     1      18.130 -20.214  15.082  1.00  0.00     0.164 HD
HETATM   24  C   UNL     1      14.532 -19.269  12.597  1.00  0.00     0.014 C 
ENDBRANCH   8   9
ENDBRANCH   3   8
BRANCH   7  25
HETATM   25  N   UNL     1      10.889 -12.311  14.302  1.00  0.00    -0.326 N 
HETATM   26  C   UNL     1      11.988 -11.978  14.993  1.00  0.00     0.231 C 
HETATM   27  O   UNL     1      11.969 -11.333  16.036  1.00  0.00    -0.272 OA
ATOM     28  HN  UNL     1      10.848 -12.125  13.300  1.00  0.00     0.169 HD
BRANCH  26  29
HETATM   29  C   UNL     1      13.291 -12.515  14.449  1.00  0.00     0.045 C 
HETATM   30  C   UNL     1      13.049 -13.583  13.379  1.00  0.00     0.020 C 
HETATM   31  C   UNL     1      13.618 -14.904  13.870  1.00  0.00     0.002 C 
HETATM   32  C   UNL     1      14.018 -14.689  15.321  1.00  0.00     0.006 C 
HETATM   33  C   UNL     1      14.032 -13.201  15.572  1.00  0.00     0.003 C 
HETATM   34  C   UNL     1      15.407 -12.590  15.700  1.00  0.00     0.006 C 
HETATM   35  C   UNL     1      15.580 -11.604  14.568  1.00  0.00     0.002 C 
HETATM   36  C   UNL     1      14.209 -11.385  13.955  1.00  0.00     0.020 C 
ENDBRANCH  26  29
ENDBRANCH   7  25
TORSDOF 4
ENDMDL
MODEL 4
REMARK VINA RESULT:      -9.8      2.777      8.079
REMARK  4 active torsions:
REMARK  status: ('A' for Active; 'I' for Inactive)
REMARK    1  A    between atoms: C_10  and  C_27 
REMARK    2  A    between atoms: C_11  and  C_27 
REMARK       I    between atoms: N_22  and  C_32 
REMARK    3  A    between atoms: N_22  and  C_34 
REMARK    4  A    between atoms: C_28  and  C_32 
ROOT
HETATM    1  C   UNL     1       9.175 -12.859  18.060  1.00  0.00     0.000 C 
HETATM    2  C   UNL     1      10.397 -13.496  18.088  1.00  0.00     0.001 C 
HETATM    3  C   UNL     1      10.145 -14.230  15.860  1.00  0.00    -0.009 C 
HETATM    4  C   UNL     1      10.900 -14.262  17.047  1.00  0.00     0.014 C 
HETATM    5  C   UNL     1       8.685 -12.376  15.694  1.00  0.00     0.030 C 
HETATM    6  C   UNL     1       8.304 -12.546  17.040  1.00  0.00     0.002 C 
HETATM    7  C   UNL     1       9.885 -12.976  15.312  1.00  0.00     0.045 C 
ENDROOT
BRANCH   3   8
HETATM    8  C   UNL     1       9.537 -15.394  15.330  1.00  0.00     0.025 C 
BRANCH   8   9
HETATM    9  C   UNL     1      10.051 -16.015  14.183  1.00  0.00    -0.035 C 
HETATM   10  C   UNL     1      10.744 -17.216  14.165  1.00  0.00     0.012 C 
HETATM   11  C   UNL     1      10.609 -17.699  12.870  1.00  0.00     0.013 C 
HETATM   12  C   UNL     1       9.877 -16.772  12.119  1.00  0.00    -0.025 C 
HETATM   13  C   UNL     1       9.280 -17.102  10.848  1.00  0.00    -0.025 C 
HETATM   14  C   UNL     1       9.796 -15.598  12.876  1.00  0.00     0.023 C 
HETATM   15  C   UNL     1       8.129 -16.507  10.339  1.00  0.00     0.024 C 
HETATM   16  C   UNL     1       9.875 -18.153  10.143  1.00  0.00     0.013 C 
HETATM   17  C   UNL     1       7.414 -17.162   9.326  1.00  0.00    -0.022 C 
HETATM   18  C   UNL     1       6.053 -16.885   9.098  1.00  0.00     0.029 C 
HETATM   19  C   UNL     1       7.898 -18.386   8.795  1.00  0.00    -0.011 C 
HETATM   20  C   UNL     1       5.464 -17.463   7.979  1.00  0.00     0.088 C 
HETATM   21  N   UNL     1       6.103 -18.399   7.218  1.00  0.00    -0.374 N 
HETATM   22  C   UNL     1       7.207 -18.972   7.726  1.00  0.00     0.099 C 
ATOM     23  HN  UNL     1       5.754 -18.655   6.294  1.00  0.00     0.164 HD
HETATM   24  C   UNL     1       9.151 -18.865   9.198  1.00  0.00     0.014 C 
ENDBRANCH   8   9
ENDBRANCH   3   8
BRANCH   7  25
HETATM   25  N   UNL     1      10.869 -12.330  14.584  1.00  0.00    -0.326 N 
HETATM   26  C   UNL     1      12.010 -11.940  15.170  1.00  0.00     0.231 C 
HETATM   27  O   UNL     1      12.056 -11.294  16.212  1.00  0.00    -0.272 OA
ATOM     28  HN  UNL     1      10.725 -12.149  13.591  1.00  0.00     0.169 HD
BRANCH  26  29
HETATM   29  C   UNL     1      13.281 -12.413  14.505  1.00  0.00     0.045 C 
HETATM   30  C   UNL     1      12.984 -13.403  13.377  1.00  0.00     0.020 C 
HETATM   31  C   UNL     1      13.601 -14.746  13.731  1.00  0.00     0.002 C 
HETATM   32  C   UNL     1      14.092 -14.632  15.166  1.00  0.00     0.006 C 
HETATM   33  C   UNL     1      14.103 -13.166  15.525  1.00  0.00     0.003 C 
HETATM   34  C   UNL     1      15.474 -12.541  15.611  1.00  0.00     0.006 C 
HETATM   35  C   UNL     1      15.561 -11.472  14.547  1.00  0.00     0.002 C 
HETATM   36  C   UNL     1      14.150 -11.233  14.040  1.00  0.00     0.020 C 
ENDBRANCH  26  29
ENDBRANCH   7  25
TORSDOF 4
ENDMDL
MODEL 5
REMARK VINA RESULT:      -9.8      4.033      7.131
REMARK  4 active torsions:
REMARK  status: ('A' for Active; 'I' for Inactive)
REMARK    1  A    between atoms: C_10  and  C_27 
REMARK    2  A    between atoms: C_11  and  C_27 
REMARK       I    between atoms: N_22  and  C_32 
REMARK    3  A    between atoms: N_22  and  C_34 
REMARK    4  A    between atoms: C_28  and  C_32 
ROOT
HETATM    1  C   UNL     1       7.931 -13.558   9.538  1.00  0.00     0.000 C 
HETATM    2  C   UNL     1       6.637 -13.512  10.009  1.00  0.00     0.001 C 
HETATM    3  C   UNL     1       6.988 -15.409  11.368  1.00  0.00    -0.009 C 
HETATM    4  C   UNL     1       6.085 -14.454  10.864  1.00  0.00     0.014 C 
HETATM    5  C   UNL     1       9.258 -14.754  11.236  1.00  0.00     0.030 C 
HETATM    6  C   UNL     1       9.048 -14.262   9.931  1.00  0.00     0.002 C 
HETATM    7  C   UNL     1       8.119 -14.923  12.022  1.00  0.00     0.045 C 
ENDROOT
BRANCH   3   8
HETATM    8  C   UNL     1       6.849 -16.789  11.086  1.00  0.00     0.025 C 
BRANCH   8   9
HETATM    9  C   UNL     1       7.976 -17.594  10.863  1.00  0.00    -0.035 C 
HETATM   10  C   UNL     1       8.681 -17.672   9.671  1.00  0.00     0.012 C 
HETATM   11  C   UNL     1       9.942 -18.134  10.019  1.00  0.00     0.013 C 
HETATM   12  C   UNL     1       9.971 -18.365  11.400  1.00  0.00    -0.025 C 
HETATM   13  C   UNL     1      11.202 -18.530  12.133  1.00  0.00    -0.025 C 
HETATM   14  C   UNL     1       8.649 -18.305  11.856  1.00  0.00     0.023 C 
HETATM   15  C   UNL     1      11.373 -18.194  13.473  1.00  0.00     0.024 C 
HETATM   16  C   UNL     1      12.301 -18.984  11.397  1.00  0.00     0.013 C 
HETATM   17  C   UNL     1      12.672 -18.006  13.968  1.00  0.00    -0.022 C 
HETATM   18  C   UNL     1      12.907 -17.237  15.124  1.00  0.00     0.029 C 
HETATM   19  C   UNL     1      13.791 -18.215  13.120  1.00  0.00    -0.011 C 
HETATM   20  C   UNL     1      14.202 -17.230  15.630  1.00  0.00     0.088 C 
HETATM   21  N   UNL     1      15.252 -17.791  14.962  1.00  0.00    -0.374 N 
HETATM   22  C   UNL     1      15.076 -18.102  13.666  1.00  0.00     0.099 C 
ATOM     23  HN  UNL     1      16.141 -17.968  15.430  1.00  0.00     0.164 HD
HETATM   24  C   UNL     1      13.592 -18.730  11.832  1.00  0.00     0.014 C 
ENDBRANCH   8   9
ENDBRANCH   3   8
BRANCH   7  25
HETATM   25  N   UNL     1       8.014 -14.480  13.329  1.00  0.00    -0.326 N 
HETATM   26  C   UNL     1       8.678 -15.096  14.317  1.00  0.00     0.231 C 
HETATM   27  O   UNL     1       8.659 -16.309  14.500  1.00  0.00    -0.272 OA
ATOM     28  HN  UNL     1       7.425 -13.676  13.543  1.00  0.00     0.169 HD
BRANCH  26  29
HETATM   29  C   UNL     1       9.542 -14.205  15.179  1.00  0.00     0.045 C 
HETATM   30  C   UNL     1       9.420 -14.575  16.659  1.00  0.00     0.020 C 
HETATM   31  C   UNL     1       8.825 -13.395  17.409  1.00  0.00     0.002 C 
HETATM   32  C   UNL     1       8.392 -12.387  16.357  1.00  0.00     0.006 C 
HETATM   33  C   UNL     1       9.040 -12.786  15.054  1.00  0.00     0.003 C 
HETATM   34  C   UNL     1      10.179 -11.899  14.611  1.00  0.00     0.006 C 
HETATM   35  C   UNL     1      11.435 -12.739  14.583  1.00  0.00     0.002 C 
HETATM   36  C   UNL     1      11.001 -14.189  14.695  1.00  0.00     0.020 C 
ENDBRANCH  26  29
ENDBRANCH   7  25
TORSDOF 4
ENDMDL
MODEL 6
REMARK VINA RESULT:      -9.6      1.963      4.203
REMARK  4 active torsions:
REMARK  status: ('A' for Active; 'I' for Inactive)
REMARK    1  A    between atoms: C_10  and  C_27 
REMARK    2  A    between atoms: C_11  and  C_27 
REMARK       I    between atoms: N_22  and  C_32 
REMARK    3  A    between atoms: N_22  and  C_34 
REMARK    4  A    between atoms: C_28  and  C_32 
ROOT
HETATM    1  C   UNL     1       6.754 -13.518   9.889  1.00  0.00     0.000 C 
HETATM    2  C   UNL     1       8.119 -13.631   9.727  1.00  0.00     0.001 C 
HETATM    3  C   UNL     1       8.342 -14.752  11.791  1.00  0.00    -0.009 C 
HETATM    4  C   UNL     1       8.974 -14.168  10.677  1.00  0.00     0.014 C 
HETATM    5  C   UNL     1       6.075 -15.320  11.426  1.00  0.00     0.030 C 
HETATM    6  C   UNL     1       5.864 -14.090  10.771  1.00  0.00     0.002 C 
HETATM    7  C   UNL     1       7.399 -15.745  11.531  1.00  0.00     0.045 C 
ENDROOT
BRANCH   3   8
HETATM    8  C   UNL     1       8.528 -14.252  13.102  1.00  0.00     0.025 C 
BRANCH   8   9
HETATM    9  C   UNL     1       9.689 -14.552  13.828  1.00  0.00    -0.035 C 
HETATM   10  C   UNL     1      10.328 -15.783  13.844  1.00  0.00     0.012 C 
HETATM   11  C   UNL     1      11.634 -15.515  14.227  1.00  0.00     0.013 C 
HETATM   12  C   UNL     1      11.758 -14.142  14.475  1.00  0.00    -0.025 C 
HETATM   13  C   UNL     1      13.036 -13.483  14.569  1.00  0.00    -0.025 C 
HETATM   14  C   UNL     1      10.463 -13.611  14.507  1.00  0.00     0.023 C 
HETATM   15  C   UNL     1      13.263 -12.149  14.240  1.00  0.00     0.024 C 
HETATM   16  C   UNL     1      14.119 -14.288  14.939  1.00  0.00     0.013 C 
HETATM   17  C   UNL     1      14.572 -11.725  13.973  1.00  0.00    -0.022 C 
HETATM   18  C   UNL     1      14.824 -10.572  13.207  1.00  0.00     0.029 C 
HETATM   19  C   UNL     1      15.652 -12.638  14.098  1.00  0.00    -0.011 C 
HETATM   20  C   UNL     1      16.143 -10.139  13.122  1.00  0.00     0.088 C 
HETATM   21  N   UNL     1      17.187 -10.875  13.604  1.00  0.00    -0.374 N 
HETATM   22  C   UNL     1      16.956 -12.164  13.908  1.00  0.00     0.099 C 
ATOM     23  HN  UNL     1      18.111 -10.461  13.728  1.00  0.00     0.164 HD
HETATM   24  C   UNL     1      15.414 -13.921  14.607  1.00  0.00     0.014 C 
ENDBRANCH   8   9
ENDBRANCH   3   8
BRANCH   7  25
HETATM   25  N   UNL     1       7.821 -17.026  11.225  1.00  0.00    -0.326 N 
HETATM   26  C   UNL     1       8.050 -17.387   9.954  1.00  0.00     0.231 C 
HETATM   27  O   UNL     1       7.257 -17.199   9.038  1.00  0.00    -0.272 OA
ATOM     28  HN  UNL     1       7.960 -17.703  11.973  1.00  0.00     0.169 HD
BRANCH  26  29
HETATM   29  C   UNL     1       9.408 -17.990   9.680  1.00  0.00     0.045 C 
HETATM   30  C   UNL     1       9.371 -18.916   8.461  1.00  0.00     0.020 C 
HETATM   31  C   UNL     1       9.707 -20.328   8.912  1.00  0.00     0.002 C 
HETATM   32  C   UNL     1       9.743 -20.300  10.432  1.00  0.00     0.006 C 
HETATM   33  C   UNL     1       9.795 -18.853  10.857  1.00  0.00     0.003 C 
HETATM   34  C   UNL     1      11.131 -18.393  11.388  1.00  0.00     0.006 C 
HETATM   35  C   UNL     1      11.651 -17.319  10.460  1.00  0.00     0.002 C 
HETATM   36  C   UNL     1      10.495 -16.909   9.565  1.00  0.00     0.020 C 
ENDBRANCH  26  29
ENDBRANCH   7  25
TORSDOF 4
ENDMDL
MODEL 7
REMARK VINA RESULT:      -9.6      4.422     10.900
REMARK  4 active torsions:
REMARK  status: ('A' for Active; 'I' for Inactive)
REMARK    1  A    between atoms: C_10  and  C_27 
REMARK    2  A    between atoms: C_11  and  C_27 
REMARK       I    between atoms: N_22  and  C_32 
REMARK    3  A    between atoms: N_22  and  C_34 
REMARK    4  A    between atoms: C_28  and  C_32 
ROOT
HETATM    1  C   UNL     1       8.011 -13.518   9.585  1.00  0.00     0.000 C 
HETATM    2  C   UNL     1       6.697 -13.662   9.976  1.00  0.00     0.001 C 
HETATM    3  C   UNL     1       7.255 -15.414  11.455  1.00  0.00    -0.009 C 
HETATM    4  C   UNL     1       6.247 -14.642  10.847  1.00  0.00     0.014 C 
HETATM    5  C   UNL     1       9.394 -14.405  11.422  1.00  0.00     0.030 C 
HETATM    6  C   UNL     1       9.197 -14.012  10.082  1.00  0.00     0.002 C 
HETATM    7  C   UNL     1       8.247 -14.722  12.147  1.00  0.00     0.045 C 
ENDROOT
BRANCH   3   8
HETATM    8  C   UNL     1       7.357 -16.809  11.242  1.00  0.00     0.025 C 
BRANCH   8   9
HETATM    9  C   UNL     1       6.278 -17.538  10.721  1.00  0.00    -0.035 C 
HETATM   10  C   UNL     1       5.067 -17.745  11.365  1.00  0.00     0.012 C 
HETATM   11  C   UNL     1       4.159 -18.033  10.356  1.00  0.00     0.013 C 
HETATM   12  C   UNL     1       4.834 -18.035   9.129  1.00  0.00    -0.025 C 
HETATM   13  C   UNL     1       4.146 -17.971   7.864  1.00  0.00    -0.025 C 
HETATM   14  C   UNL     1       6.205 -18.018   9.413  1.00  0.00     0.023 C 
HETATM   15  C   UNL     1       4.674 -17.409   6.705  1.00  0.00     0.024 C 
HETATM   16  C   UNL     1       2.828 -18.440   7.856  1.00  0.00     0.013 C 
HETATM   17  C   UNL     1       3.804 -17.031   5.673  1.00  0.00    -0.022 C 
HETATM   18  C   UNL     1       4.182 -16.069   4.717  1.00  0.00     0.029 C 
HETATM   19  C   UNL     1       2.411 -17.276   5.795  1.00  0.00    -0.011 C 
HETATM   20  C   UNL     1       3.322 -15.867   3.643  1.00  0.00     0.088 C 
HETATM   21  N   UNL     1       2.081 -16.433   3.583  1.00  0.00    -0.374 N 
HETATM   22  C   UNL     1       1.579 -16.964   4.712  1.00  0.00     0.099 C 
ATOM     23  HN  UNL     1       1.553 -16.454   2.711  1.00  0.00     0.164 HD
HETATM   24  C   UNL     1       1.933 -18.007   6.890  1.00  0.00     0.014 C 
ENDBRANCH   8   9
ENDBRANCH   3   8
BRANCH   7  25
HETATM   25  N   UNL     1       7.986 -14.244  13.419  1.00  0.00    -0.326 N 
HETATM   26  C   UNL     1       8.683 -14.687  14.475  1.00  0.00     0.231 C 
HETATM   27  O   UNL     1       8.863 -15.874  14.725  1.00  0.00    -0.272 OA
ATOM     28  HN  UNL     1       7.254 -13.548  13.556  1.00  0.00     0.169 HD
BRANCH  26  29
HETATM   29  C   UNL     1       9.324 -13.619  15.330  1.00  0.00     0.045 C 
HETATM   30  C   UNL     1      10.538 -13.001  14.631  1.00  0.00     0.020 C 
HETATM   31  C   UNL     1      11.779 -13.298  15.456  1.00  0.00     0.002 C 
HETATM   32  C   UNL     1      11.354 -14.272  16.544  1.00  0.00     0.006 C 
HETATM   33  C   UNL     1       9.845 -14.265  16.592  1.00  0.00     0.003 C 
HETATM   34  C   UNL     1       9.249 -13.561  17.787  1.00  0.00     0.006 C 
HETATM   35  C   UNL     1       8.452 -12.383  17.278  1.00  0.00     0.002 C 
HETATM   36  C   UNL     1       8.302 -12.563  15.778  1.00  0.00     0.020 C 
ENDBRANCH  26  29
ENDBRANCH   7  25
TORSDOF 4
ENDMDL
MODEL 8
REMARK VINA RESULT:      -9.4      3.129      9.757
REMARK  4 active torsions:
REMARK  status: ('A' for Active; 'I' for Inactive)
REMARK    1  A    between atoms: C_10  and  C_27 
REMARK    2  A    between atoms: C_11  and  C_27 
REMARK       I    between atoms: N_22  and  C_32 
REMARK    3  A    between atoms: N_22  and  C_34 
REMARK    4  A    between atoms: C_28  and  C_32 
ROOT
HETATM    1  C   UNL     1      10.290 -17.413  10.970  1.00  0.00     0.000 C 
HETATM    2  C   UNL     1      10.756 -16.573   9.982  1.00  0.00     0.001 C 
HETATM    3  C   UNL     1      10.302 -14.663  11.291  1.00  0.00    -0.009 C 
HETATM    4  C   UNL     1      10.715 -15.189  10.052  1.00  0.00     0.014 C 
HETATM    5  C   UNL     1      10.493 -16.182  13.095  1.00  0.00     0.030 C 
HETATM    6  C   UNL     1       9.963 -17.213  12.294  1.00  0.00     0.002 C 
HETATM    7  C   UNL     1      11.009 -15.077  12.419  1.00  0.00     0.045 C 
ENDROOT
BRANCH   3   8
HETATM    8  C   UNL     1       9.127 -13.884  11.417  1.00  0.00     0.025 C 
BRANCH   8   9
HETATM    9  C   UNL     1       7.995 -14.159  10.636  1.00  0.00    -0.035 C 
HETATM   10  C   UNL     1       7.563 -13.402   9.557  1.00  0.00     0.012 C 
HETATM   11  C   UNL     1       6.781 -14.259   8.796  1.00  0.00     0.013 C 
HETATM   12  C   UNL     1       6.718 -15.501   9.440  1.00  0.00    -0.025 C 
HETATM   13  C   UNL     1       6.272 -16.699   8.772  1.00  0.00    -0.025 C 
HETATM   14  C   UNL     1       7.235 -15.325  10.728  1.00  0.00     0.023 C 
HETATM   15  C   UNL     1       6.696 -17.985   9.092  1.00  0.00     0.024 C 
HETATM   16  C   UNL     1       5.418 -16.513   7.679  1.00  0.00     0.013 C 
HETATM   17  C   UNL     1       6.534 -19.011   8.150  1.00  0.00    -0.022 C 
HETATM   18  C   UNL     1       7.325 -20.175   8.196  1.00  0.00     0.029 C 
HETATM   19  C   UNL     1       5.892 -18.742   6.913  1.00  0.00    -0.011 C 
HETATM   20  C   UNL     1       6.994 -21.204   7.321  1.00  0.00     0.088 C 
HETATM   21  N   UNL     1       6.063 -21.054   6.334  1.00  0.00    -0.374 N 
HETATM   22  C   UNL     1       5.670 -19.805   6.028  1.00  0.00     0.099 C 
ATOM     23  HN  UNL     1       5.680 -21.862   5.844  1.00  0.00     0.164 HD
HETATM   24  C   UNL     1       5.314 -17.485   6.696  1.00  0.00     0.014 C 
ENDBRANCH   8   9
ENDBRANCH   3   8
BRANCH   7  25
HETATM   25  N   UNL     1      12.238 -14.508  12.701  1.00  0.00    -0.326 N 
HETATM   26  C   UNL     1      12.394 -13.704  13.762  1.00  0.00     0.231 C 
HETATM   27  O   UNL     1      11.657 -12.756  14.014  1.00  0.00    -0.272 OA
ATOM     28  HN  UNL     1      13.035 -14.703  12.096  1.00  0.00     0.169 HD
BRANCH  26  29
HETATM   29  C   UNL     1      13.513 -14.076  14.707  1.00  0.00     0.045 C 
HETATM   30  C   UNL     1      13.548 -13.145  15.921  1.00  0.00     0.020 C 
HETATM   31  C   UNL     1      14.864 -12.385  15.915  1.00  0.00     0.002 C 
HETATM   32  C   UNL     1      15.537 -12.696  14.588  1.00  0.00     0.006 C 
HETATM   33  C   UNL     1      14.828 -13.886  13.988  1.00  0.00     0.003 C 
HETATM   34  C   UNL     1      15.604 -15.180  14.033  1.00  0.00     0.006 C 
HETATM   35  C   UNL     1      14.832 -16.151  14.896  1.00  0.00     0.002 C 
HETATM   36  C   UNL     1      13.450 -15.559  15.103  1.00  0.00     0.020 C 
ENDBRANCH  26  29
ENDBRANCH   7  25
TORSDOF 4
ENDMDL
MODEL 9
REMARK VINA RESULT:      -9.2      1.793      4.544
REMARK  4 active torsions:
REMARK  status: ('A' for Active; 'I' for Inactive)
REMARK    1  A    between atoms: C_10  and  C_27 
REMARK    2  A    between atoms: C_11  and  C_27 
REMARK       I    between atoms: N_22  and  C_32 
REMARK    3  A    between atoms: N_22  and  C_34 
REMARK    4  A    between atoms: C_28  and  C_32 
ROOT
HETATM    1  C   UNL     1       8.833 -17.389  11.965  1.00  0.00     0.000 C 
HETATM    2  C   UNL     1       8.352 -17.173  13.238  1.00  0.00     0.001 C 
HETATM    3  C   UNL     1      10.522 -16.746  14.062  1.00  0.00    -0.009 C 
HETATM    4  C   UNL     1       9.154 -16.925  14.342  1.00  0.00     0.014 C 
HETATM    5  C   UNL     1      10.980 -16.190  11.808  1.00  0.00     0.030 C 
HETATM    6  C   UNL     1      10.056 -17.161  11.372  1.00  0.00     0.002 C 
HETATM    7  C   UNL     1      10.851 -15.763  13.129  1.00  0.00     0.045 C 
ENDROOT
BRANCH   3   8
HETATM    8  C   UNL     1      11.509 -17.624  14.570  1.00  0.00     0.025 C 
BRANCH   8   9
HETATM    9  C   UNL     1      12.865 -17.266  14.555  1.00  0.00    -0.035 C 
HETATM   10  C   UNL     1      13.831 -17.821  13.729  1.00  0.00     0.012 C 
HETATM   11  C   UNL     1      14.846 -16.877  13.664  1.00  0.00     0.013 C 
HETATM   12  C   UNL     1      14.502 -15.790  14.477  1.00  0.00    -0.025 C 
HETATM   13  C   UNL     1      15.164 -14.513  14.384  1.00  0.00    -0.025 C 
HETATM   14  C   UNL     1      13.406 -16.185  15.252  1.00  0.00     0.023 C 
HETATM   15  C   UNL     1      14.568 -13.291  14.684  1.00  0.00     0.024 C 
HETATM   16  C   UNL     1      16.467 -14.529  13.875  1.00  0.00     0.013 C 
HETATM   17  C   UNL     1      15.136 -12.112  14.182  1.00  0.00    -0.022 C 
HETATM   18  C   UNL     1      14.375 -10.937  14.041  1.00  0.00     0.029 C 
HETATM   19  C   UNL     1      16.338 -12.171  13.427  1.00  0.00    -0.011 C 
HETATM   20  C   UNL     1      15.053  -9.778  13.682  1.00  0.00     0.088 C 
HETATM   21  N   UNL     1      16.366  -9.785  13.308  1.00  0.00    -0.374 N 
HETATM   22  C   UNL     1      16.927 -10.970  13.011  1.00  0.00     0.099 C 
ATOM     23  HN  UNL     1      16.904  -8.920  13.255  1.00  0.00     0.164 HD
HETATM   24  C   UNL     1      17.011 -13.392  13.298  1.00  0.00     0.014 C 
ENDBRANCH   8   9
ENDBRANCH   3   8
BRANCH   7  25
HETATM   25  N   UNL     1      10.858 -14.434  13.512  1.00  0.00    -0.326 N 
HETATM   26  C   UNL     1       9.755 -13.857  14.009  1.00  0.00     0.231 C 
HETATM   27  O   UNL     1       8.653 -13.920  13.476  1.00  0.00    -0.272 OA
ATOM     28  HN  UNL     1      11.713 -13.886  13.415  1.00  0.00     0.169 HD
BRANCH  26  29
HETATM   29  C   UNL     1       9.923 -13.166  15.343  1.00  0.00     0.045 C 
HETATM   30  C   UNL     1      11.187 -12.303  15.367  1.00  0.00     0.020 C 
HETATM   31  C   UNL     1      12.133 -12.854  16.421  1.00  0.00     0.002 C 
HETATM   32  C   UNL     1      11.537 -14.172  16.891  1.00  0.00     0.006 C 
HETATM   33  C   UNL     1      10.109 -14.221  16.408  1.00  0.00     0.003 C 
HETATM   34  C   UNL     1       9.066 -14.025  17.482  1.00  0.00     0.006 C 
HETATM   35  C   UNL     1       8.302 -12.762  17.157  1.00  0.00     0.002 C 
HETATM   36  C   UNL     1       8.664 -12.377  15.734  1.00  0.00     0.020 C 
ENDBRANCH  26  29
ENDBRANCH   7  25
TORSDOF 4
ENDMDL
