MODEL 1
REMARK VINA RESULT:      -8.5      0.000      0.000
REMARK  8 active torsions:
REMARK  status: ('A' for Active; 'I' for Inactive)
REMARK    1  A    between atoms: C_6  and  C_22 
REMARK    2  A    between atoms: O_7  and  C_25 
REMARK    3  A    between atoms: O_11  and  C_27 
REMARK    4  A    between atoms: C_14  and  C_16 
REMARK    5  A    between atoms: C_16  and  C_18 
REMARK    6  A    between atoms: C_16  and  C_24 
REMARK    7  A    between atoms: C_18  and  C_22 
REMARK    8  A    between atoms: C_24  and  C_26 
ROOT
HETATM    1  C   UNL     1       3.763   7.361  19.819  1.00  0.00     0.034 C 
ENDROOT
BRANCH   1   2
HETATM    2  C   UNL     1       4.043   7.181  18.341  1.00  0.00    -0.020 C 
HETATM    3  C   UNL     1       3.815   8.135  17.345  1.00  0.00     0.012 C 
HETATM    4  C   UNL     1       4.506   8.021  16.136  1.00  0.00     0.024 C 
HETATM    5  C   UNL     1       5.395   6.964  15.950  1.00  0.00     0.036 C 
HETATM    6  C   UNL     1       5.542   5.970  16.914  1.00  0.00     0.060 C 
HETATM    7 CL   UNL     1       6.226   6.872  14.452  1.00  0.00    -0.084 Cl
HETATM    8  C   UNL     1       4.576   5.949  17.923  1.00  0.00     0.074 C 
BRANCH   8   9
HETATM    9  O   UNL     1       4.065   4.792  18.383  1.00  0.00    -0.360 OA
ATOM     10  HO  UNL     1       3.575   4.205  17.818  1.00  0.00     0.217 HD
ENDBRANCH   8   9
ENDBRANCH   1   2
BRANCH   1  11
HETATM   11  C   UNL     1       5.095   7.138  20.554  1.00  0.00     0.093 C 
BRANCH  11  12
HETATM   12  C   UNL     1       6.023   8.337  20.562  1.00  0.00     0.160 C 
HETATM   13  O   UNL     1       5.995   9.134  21.482  1.00  0.00    -0.292 OA
BRANCH  12  14
HETATM   14  C   UNL     1       6.949   8.530  19.403  1.00  0.00     0.010 C 
HETATM   15  C   UNL     1       7.903   7.552  19.128  1.00  0.00     0.015 C 
HETATM   16  C   UNL     1       8.656   7.634  17.960  1.00  0.00     0.001 C 
HETATM   17  C   UNL     1       8.505   8.725  17.110  1.00  0.00     0.000 C 
HETATM   18  C   UNL     1       7.557   9.697  17.387  1.00  0.00     0.001 C 
HETATM   19  C   UNL     1       6.835   9.637  18.577  1.00  0.00     0.015 C 
ENDBRANCH  12  14
ENDBRANCH  11  12
ENDBRANCH   1  11
BRANCH   1  20
HETATM   20  C   UNL     1       2.532   6.661  20.388  1.00  0.00     0.067 C 
BRANCH  20  21
HETATM   21  C   UNL     1       1.327   6.525  19.476  1.00  0.00     0.013 C 
HETATM   22  C   UNL     1       0.443   7.587  19.305  1.00  0.00     0.028 C 
HETATM   23  C   UNL     1      -0.533   7.515  18.308  1.00  0.00     0.044 C 
HETATM   24  C   UNL     1      -0.631   6.346  17.556  1.00  0.00     0.134 C 
HETATM   25  C   UNL     1      -0.002   5.147  18.057  1.00  0.00     0.279 C 
HETATM   26  O   UNL     1      -0.430   4.020  17.738  1.00  0.00    -0.265 OA
HETATM   27  N   UNL     1       1.095   5.334  18.866  1.00  0.00    -0.325 N 
ATOM     28  HN  UNL     1       1.747   4.562  19.011  1.00  0.00     0.169 HD
BRANCH  24  29
HETATM   29  O   UNL     1      -1.220   6.334  16.334  1.00  0.00    -0.356 OA
ATOM     30  HO  UNL     1      -2.078   5.940  16.230  1.00  0.00     0.218 HD
ENDBRANCH  24  29
ENDBRANCH  20  21
ENDBRANCH   1  20
TORSDOF 8
ENDMDL
MODEL 2
REMARK VINA RESULT:      -8.2      3.811      6.591
REMARK  8 active torsions:
REMARK  status: ('A' for Active; 'I' for Inactive)
REMARK    1  A    between atoms: C_6  and  C_22 
REMARK    2  A    between atoms: O_7  and  C_25 
REMARK    3  A    between atoms: O_11  and  C_27 
REMARK    4  A    between atoms: C_14  and  C_16 
REMARK    5  A    between atoms: C_16  and  C_18 
REMARK    6  A    between atoms: C_16  and  C_24 
REMARK    7  A    between atoms: C_18  and  C_22 
REMARK    8  A    between atoms: C_24  and  C_26 
ROOT
HETATM    1  C   UNL     1       3.819   9.190  19.810  1.00  0.00     0.034 C 
ENDROOT
BRANCH   1   2
HETATM    2  C   UNL     1       4.856   8.426  20.608  1.00  0.00    -0.020 C 
HETATM    3  C   UNL     1       6.228   8.394  20.343  1.00  0.00     0.012 C 
HETATM    4  C   UNL     1       7.102   8.037  21.373  1.00  0.00     0.024 C 
HETATM    5  C   UNL     1       6.589   7.719  22.630  1.00  0.00     0.036 C 
HETATM    6  C   UNL     1       5.216   7.666  22.854  1.00  0.00     0.060 C 
HETATM    7 CL   UNL     1       7.704   7.296  23.864  1.00  0.00    -0.084 Cl
HETATM    8  C   UNL     1       4.410   7.680  21.714  1.00  0.00     0.074 C 
BRANCH   8   9
HETATM    9  O   UNL     1       3.318   6.899  21.615  1.00  0.00    -0.360 OA
ATOM     10  HO  UNL     1       2.834   6.622  22.384  1.00  0.00     0.217 HD
ENDBRANCH   8   9
ENDBRANCH   1   2
BRANCH   1  11
HETATM   11  C   UNL     1       3.715   8.498  18.440  1.00  0.00     0.093 C 
BRANCH  11  12
HETATM   12  C   UNL     1       2.303   8.155  18.009  1.00  0.00     0.160 C 
HETATM   13  O   UNL     1       1.550   9.025  17.609  1.00  0.00    -0.292 OA
BRANCH  12  14
HETATM   14  C   UNL     1       1.849   6.734  18.115  1.00  0.00     0.010 C 
HETATM   15  C   UNL     1       2.791   5.741  18.382  1.00  0.00     0.015 C 
HETATM   16  C   UNL     1       2.365   4.442  18.650  1.00  0.00     0.001 C 
HETATM   17  C   UNL     1       1.012   4.126  18.580  1.00  0.00     0.000 C 
HETATM   18  C   UNL     1       0.078   5.115  18.312  1.00  0.00     0.001 C 
HETATM   19  C   UNL     1       0.508   6.403  18.003  1.00  0.00     0.015 C 
ENDBRANCH  12  14
ENDBRANCH  11  12
ENDBRANCH   1  11
BRANCH   1  20
HETATM   20  C   UNL     1       3.917  10.713  19.812  1.00  0.00     0.067 C 
BRANCH  20  21
HETATM   21  C   UNL     1       4.286  11.386  18.503  1.00  0.00     0.013 C 
HETATM   22  C   UNL     1       5.621  11.583  18.159  1.00  0.00     0.028 C 
HETATM   23  C   UNL     1       5.942  12.009  16.868  1.00  0.00     0.044 C 
HETATM   24  C   UNL     1       4.904  12.287  15.981  1.00  0.00     0.134 C 
HETATM   25  C   UNL     1       3.576  12.486  16.513  1.00  0.00     0.279 C 
HETATM   26  O   UNL     1       2.743  13.187  15.904  1.00  0.00    -0.265 OA
HETATM   27  N   UNL     1       3.294  11.838  17.693  1.00  0.00    -0.325 N 
ATOM     28  HN  UNL     1       2.321  11.695  17.965  1.00  0.00     0.169 HD
BRANCH  24  29
HETATM   29  O   UNL     1       5.095  12.283  14.638  1.00  0.00    -0.356 OA
ATOM     30  HO  UNL     1       4.808  11.537  14.125  1.00  0.00     0.218 HD
ENDBRANCH  24  29
ENDBRANCH  20  21
ENDBRANCH   1  20
TORSDOF 8
ENDMDL
MODEL 3
REMARK VINA RESULT:      -8.2      3.438      6.793
REMARK  8 active torsions:
REMARK  status: ('A' for Active; 'I' for Inactive)
REMARK    1  A    between atoms: C_6  and  C_22 
REMARK    2  A    between atoms: O_7  and  C_25 
REMARK    3  A    between atoms: O_11  and  C_27 
REMARK    4  A    between atoms: C_14  and  C_16 
REMARK    5  A    between atoms: C_16  and  C_18 
REMARK    6  A    between atoms: C_16  and  C_24 
REMARK    7  A    between atoms: C_18  and  C_22 
REMARK    8  A    between atoms: C_24  and  C_26 
ROOT
HETATM    1  C   UNL     1       4.344   8.057  19.183  1.00  0.00     0.034 C 
ENDROOT
BRANCH   1   2
HETATM    2  C   UNL     1       5.331   7.614  20.243  1.00  0.00    -0.020 C 
HETATM    3  C   UNL     1       6.717   7.786  20.190  1.00  0.00     0.012 C 
HETATM    4  C   UNL     1       7.445   7.744  21.382  1.00  0.00     0.024 C 
HETATM    5  C   UNL     1       6.778   7.528  22.586  1.00  0.00     0.036 C 
HETATM    6  C   UNL     1       5.411   7.267  22.615  1.00  0.00     0.060 C 
HETATM    7 CL   UNL     1       7.714   7.494  24.025  1.00  0.00    -0.084 Cl
HETATM    8  C   UNL     1       4.820   6.971  21.384  1.00  0.00     0.074 C 
BRANCH   8   9
HETATM    9  O   UNL     1       3.891   6.003  21.264  1.00  0.00    -0.360 OA
ATOM     10  HO  UNL     1       2.970   6.177  21.416  1.00  0.00     0.217 HD
ENDBRANCH   8   9
ENDBRANCH   1   2
BRANCH   1  11
HETATM   11  C   UNL     1       4.753   7.359  17.875  1.00  0.00     0.093 C 
BRANCH  11  12
HETATM   12  C   UNL     1       3.596   6.828  17.052  1.00  0.00     0.160 C 
HETATM   13  O   UNL     1       3.513   7.084  15.864  1.00  0.00    -0.292 OA
BRANCH  12  14
HETATM   14  C   UNL     1       2.548   6.010  17.737  1.00  0.00     0.010 C 
HETATM   15  C   UNL     1       1.256   6.521  17.848  1.00  0.00     0.015 C 
HETATM   16  C   UNL     1       0.233   5.708  18.330  1.00  0.00     0.001 C 
HETATM   17  C   UNL     1       0.517   4.417  18.763  1.00  0.00     0.000 C 
HETATM   18  C   UNL     1       1.803   3.912  18.654  1.00  0.00     0.001 C 
HETATM   19  C   UNL     1       2.833   4.740  18.212  1.00  0.00     0.015 C 
ENDBRANCH  12  14
ENDBRANCH  11  12
ENDBRANCH   1  11
BRANCH   1  20
HETATM   20  C   UNL     1       4.026   9.548  19.102  1.00  0.00     0.067 C 
BRANCH  20  21
HETATM   21  C   UNL     1       4.966  10.415  18.285  1.00  0.00     0.013 C 
HETATM   22  C   UNL     1       6.072  11.017  18.879  1.00  0.00     0.028 C 
HETATM   23  C   UNL     1       7.033  11.633  18.074  1.00  0.00     0.044 C 
HETATM   24  C   UNL     1       6.819  11.680  16.698  1.00  0.00     0.134 C 
HETATM   25  C   UNL     1       5.486  11.440  16.198  1.00  0.00     0.279 C 
HETATM   26  O   UNL     1       5.115  11.925  15.111  1.00  0.00    -0.265 OA
HETATM   27  N   UNL     1       4.685  10.635  16.974  1.00  0.00    -0.325 N 
ATOM     28  HN  UNL     1       3.865  10.194  16.557  1.00  0.00     0.169 HD
BRANCH  24  29
HETATM   29  O   UNL     1       7.842  11.853  15.825  1.00  0.00    -0.356 OA
ATOM     30  HO  UNL     1       8.712  11.546  16.053  1.00  0.00     0.218 HD
ENDBRANCH  24  29
ENDBRANCH  20  21
ENDBRANCH   1  20
TORSDOF 8
ENDMDL
MODEL 4
REMARK VINA RESULT:      -8.1      3.584      6.510
REMARK  8 active torsions:
REMARK  status: ('A' for Active; 'I' for Inactive)
REMARK    1  A    between atoms: C_6  and  C_22 
REMARK    2  A    between atoms: O_7  and  C_25 
REMARK    3  A    between atoms: O_11  and  C_27 
REMARK    4  A    between atoms: C_14  and  C_16 
REMARK    5  A    between atoms: C_16  and  C_18 
REMARK    6  A    between atoms: C_16  and  C_24 
REMARK    7  A    between atoms: C_18  and  C_22 
REMARK    8  A    between atoms: C_24  and  C_26 
ROOT
HETATM    1  C   UNL     1       3.878   9.263  19.070  1.00  0.00     0.034 C 
ENDROOT
BRANCH   1   2
HETATM    2  C   UNL     1       5.244   8.643  19.281  1.00  0.00    -0.020 C 
HETATM    3  C   UNL     1       5.727   7.498  18.641  1.00  0.00     0.012 C 
HETATM    4  C   UNL     1       7.108   7.294  18.584  1.00  0.00     0.024 C 
HETATM    5  C   UNL     1       7.965   8.227  19.167  1.00  0.00     0.036 C 
HETATM    6  C   UNL     1       7.467   9.313  19.881  1.00  0.00     0.060 C 
HETATM    7 CL   UNL     1       9.653   7.938  19.062  1.00  0.00    -0.084 Cl
HETATM    8  C   UNL     1       6.108   9.263  20.201  1.00  0.00     0.074 C 
BRANCH   8   9
HETATM    9  O   UNL     1       5.653   9.662  21.403  1.00  0.00    -0.360 OA
ATOM     10  HO  UNL     1       5.943  10.476  21.799  1.00  0.00     0.217 HD
ENDBRANCH   8   9
ENDBRANCH   1   2
BRANCH   1  11
HETATM   11  C   UNL     1       3.258   8.568  17.845  1.00  0.00     0.093 C 
BRANCH  11  12
HETATM   12  C   UNL     1       1.795   8.201  17.998  1.00  0.00     0.160 C 
HETATM   13  O   UNL     1       0.926   9.035  17.817  1.00  0.00    -0.292 OA
BRANCH  12  14
HETATM   14  C   UNL     1       1.449   6.804  18.402  1.00  0.00     0.010 C 
HETATM   15  C   UNL     1       0.275   6.230  17.916  1.00  0.00     0.015 C 
HETATM   16  C   UNL     1       0.022   4.879  18.145  1.00  0.00     0.001 C 
HETATM   17  C   UNL     1       0.905   4.127  18.913  1.00  0.00     0.000 C 
HETATM   18  C   UNL     1       2.071   4.700  19.396  1.00  0.00     0.001 C 
HETATM   19  C   UNL     1       2.301   6.061  19.204  1.00  0.00     0.015 C 
ENDBRANCH  12  14
ENDBRANCH  11  12
ENDBRANCH   1  11
BRANCH   1  20
HETATM   20  C   UNL     1       3.784  10.785  19.124  1.00  0.00     0.067 C 
BRANCH  20  21
HETATM   21  C   UNL     1       4.154  11.548  17.866  1.00  0.00     0.013 C 
HETATM   22  C   UNL     1       5.487  11.814  17.564  1.00  0.00     0.028 C 
HETATM   23  C   UNL     1       5.817  12.328  16.307  1.00  0.00     0.044 C 
HETATM   24  C   UNL     1       4.787  12.620  15.415  1.00  0.00     0.134 C 
HETATM   25  C   UNL     1       3.442  12.738  15.928  1.00  0.00     0.279 C 
HETATM   26  O   UNL     1       2.596  13.443  15.344  1.00  0.00    -0.265 OA
HETATM   27  N   UNL     1       3.162  12.011  17.062  1.00  0.00    -0.325 N 
ATOM     28  HN  UNL     1       2.190  11.816  17.304  1.00  0.00     0.169 HD
BRANCH  24  29
HETATM   29  O   UNL     1       5.004  12.703  14.080  1.00  0.00    -0.356 OA
ATOM     30  HO  UNL     1       5.471  13.451  13.725  1.00  0.00     0.218 HD
ENDBRANCH  24  29
ENDBRANCH  20  21
ENDBRANCH   1  20
TORSDOF 8
ENDMDL
MODEL 5
REMARK VINA RESULT:      -8.1      2.700      6.634
REMARK  8 active torsions:
REMARK  status: ('A' for Active; 'I' for Inactive)
REMARK    1  A    between atoms: C_6  and  C_22 
REMARK    2  A    between atoms: O_7  and  C_25 
REMARK    3  A    between atoms: O_11  and  C_27 
REMARK    4  A    between atoms: C_14  and  C_16 
REMARK    5  A    between atoms: C_16  and  C_18 
REMARK    6  A    between atoms: C_16  and  C_24 
REMARK    7  A    between atoms: C_18  and  C_22 
REMARK    8  A    between atoms: C_24  and  C_26 
ROOT
HETATM    1  C   UNL     1       4.003   7.784  18.581  1.00  0.00     0.034 C 
ENDROOT
BRANCH   1   2
HETATM    2  C   UNL     1       3.969   9.077  17.793  1.00  0.00    -0.020 C 
HETATM    3  C   UNL     1       3.593  10.327  18.293  1.00  0.00     0.012 C 
HETATM    4  C   UNL     1       4.018  11.475  17.620  1.00  0.00     0.024 C 
HETATM    5  C   UNL     1       4.797  11.348  16.470  1.00  0.00     0.036 C 
HETATM    6  C   UNL     1       5.085  10.097  15.931  1.00  0.00     0.060 C 
HETATM    7 CL   UNL     1       5.302  12.787  15.683  1.00  0.00    -0.084 Cl
HETATM    8  C   UNL     1       4.344   9.028  16.438  1.00  0.00     0.074 C 
BRANCH   8   9
HETATM    9  O   UNL     1       3.878   8.051  15.636  1.00  0.00    -0.360 OA
ATOM     10  HO  UNL     1       2.996   7.711  15.729  1.00  0.00     0.217 HD
ENDBRANCH   8   9
ENDBRANCH   1   2
BRANCH   1  11
HETATM   11  C   UNL     1       3.289   8.057  19.916  1.00  0.00     0.093 C 
BRANCH  11  12
HETATM   12  C   UNL     1       2.624   6.845  20.538  1.00  0.00     0.160 C 
HETATM   13  O   UNL     1       2.883   6.516  21.681  1.00  0.00    -0.292 OA
BRANCH  12  14
HETATM   14  C   UNL     1       1.668   6.050  19.707  1.00  0.00     0.010 C 
HETATM   15  C   UNL     1       0.578   6.696  19.125  1.00  0.00     0.015 C 
HETATM   16  C   UNL     1      -0.223   6.010  18.215  1.00  0.00     0.001 C 
HETATM   17  C   UNL     1       0.024   4.668  17.945  1.00  0.00     0.000 C 
HETATM   18  C   UNL     1       1.107   4.028  18.526  1.00  0.00     0.001 C 
HETATM   19  C   UNL     1       1.882   4.702  19.468  1.00  0.00     0.015 C 
ENDBRANCH  12  14
ENDBRANCH  11  12
ENDBRANCH   1  11
BRANCH   1  20
HETATM   20  C   UNL     1       5.334   7.040  18.647  1.00  0.00     0.067 C 
BRANCH  20  21
HETATM   21  C   UNL     1       6.464   7.706  19.410  1.00  0.00     0.013 C 
HETATM   22  C   UNL     1       7.628   8.098  18.754  1.00  0.00     0.028 C 
HETATM   23  C   UNL     1       8.560   8.892  19.426  1.00  0.00     0.044 C 
HETATM   24  C   UNL     1       8.323   9.213  20.761  1.00  0.00     0.134 C 
HETATM   25  C   UNL     1       7.354   8.435  21.496  1.00  0.00     0.279 C 
HETATM   26  O   UNL     1       7.434   8.322  22.735  1.00  0.00    -0.265 OA
HETATM   27  N   UNL     1       6.344   7.869  20.753  1.00  0.00    -0.325 N 
ATOM     28  HN  UNL     1       5.489   7.566  21.219  1.00  0.00     0.169 HD
BRANCH  24  29
HETATM   29  O   UNL     1       8.909  10.285  21.350  1.00  0.00    -0.356 OA
ATOM     30  HO  UNL     1       8.372  10.924  21.803  1.00  0.00     0.218 HD
ENDBRANCH  24  29
ENDBRANCH  20  21
ENDBRANCH   1  20
TORSDOF 8
ENDMDL
MODEL 6
REMARK VINA RESULT:      -8.0      3.500      4.880
REMARK  8 active torsions:
REMARK  status: ('A' for Active; 'I' for Inactive)
REMARK    1  A    between atoms: C_6  and  C_22 
REMARK    2  A    between atoms: O_7  and  C_25 
REMARK    3  A    between atoms: O_11  and  C_27 
REMARK    4  A    between atoms: C_14  and  C_16 
REMARK    5  A    between atoms: C_16  and  C_18 
REMARK    6  A    between atoms: C_16  and  C_24 
REMARK    7  A    between atoms: C_18  and  C_22 
REMARK    8  A    between atoms: C_24  and  C_26 
ROOT
HETATM    1  C   UNL     1       4.008   9.005  18.932  1.00  0.00     0.034 C 
ENDROOT
BRANCH   1   2
HETATM    2  C   UNL     1       3.483   7.584  18.926  1.00  0.00    -0.020 C 
HETATM    3  C   UNL     1       3.540   6.689  19.999  1.00  0.00     0.012 C 
HETATM    4  C   UNL     1       2.656   5.607  20.018  1.00  0.00     0.024 C 
HETATM    5  C   UNL     1       1.748   5.444  18.973  1.00  0.00     0.036 C 
HETATM    6  C   UNL     1       1.764   6.289  17.867  1.00  0.00     0.060 C 
HETATM    7 CL   UNL     1       0.676   4.105  19.047  1.00  0.00    -0.084 Cl
HETATM    8  C   UNL     1       2.886   7.112  17.743  1.00  0.00     0.074 C 
BRANCH   8   9
HETATM    9  O   UNL     1       3.467   7.335  16.549  1.00  0.00    -0.360 OA
ATOM     10  HO  UNL     1       3.127   6.946  15.751  1.00  0.00     0.217 HD
ENDBRANCH   8   9
ENDBRANCH   1   2
BRANCH   1  11
HETATM   11  C   UNL     1       4.649   9.237  20.310  1.00  0.00     0.093 C 
BRANCH  11  12
HETATM   12  C   UNL     1       6.029   9.863  20.269  1.00  0.00     0.160 C 
HETATM   13  O   UNL     1       6.273  10.864  20.919  1.00  0.00    -0.292 OA
BRANCH  12  14
HETATM   14  C   UNL     1       7.069   9.241  19.394  1.00  0.00     0.010 C 
HETATM   15  C   UNL     1       7.822   8.176  19.888  1.00  0.00     0.015 C 
HETATM   16  C   UNL     1       8.673   7.479  19.034  1.00  0.00     0.001 C 
HETATM   17  C   UNL     1       8.821   7.890  17.713  1.00  0.00     0.000 C 
HETATM   18  C   UNL     1       8.073   8.949  17.224  1.00  0.00     0.001 C 
HETATM   19  C   UNL     1       7.255   9.672  18.090  1.00  0.00     0.015 C 
ENDBRANCH  12  14
ENDBRANCH  11  12
ENDBRANCH   1  11
BRANCH   1  20
HETATM   20  C   UNL     1       3.077  10.096  18.408  1.00  0.00     0.067 C 
BRANCH  20  21
HETATM   21  C   UNL     1       3.535  10.870  17.185  1.00  0.00     0.013 C 
HETATM   22  C   UNL     1       3.535  12.262  17.187  1.00  0.00     0.028 C 
HETATM   23  C   UNL     1       4.153  12.950  16.140  1.00  0.00     0.044 C 
HETATM   24  C   UNL     1       4.695  12.215  15.088  1.00  0.00     0.134 C 
HETATM   25  C   UNL     1       4.287  10.839  14.925  1.00  0.00     0.279 C 
HETATM   26  O   UNL     1       4.321  10.291  13.805  1.00  0.00    -0.265 OA
HETATM   27  N   UNL     1       3.898  10.184  16.071  1.00  0.00    -0.325 N 
ATOM     28  HN  UNL     1       3.882   9.164  16.084  1.00  0.00     0.169 HD
BRANCH  24  29
HETATM   29  O   UNL     1       5.654  12.730  14.280  1.00  0.00    -0.356 OA
ATOM     30  HO  UNL     1       5.404  13.251  13.526  1.00  0.00     0.218 HD
ENDBRANCH  24  29
ENDBRANCH  20  21
ENDBRANCH   1  20
TORSDOF 8
ENDMDL
MODEL 7
REMARK VINA RESULT:      -7.8      2.897      5.815
REMARK  8 active torsions:
REMARK  status: ('A' for Active; 'I' for Inactive)
REMARK    1  A    between atoms: C_6  and  C_22 
REMARK    2  A    between atoms: O_7  and  C_25 
REMARK    3  A    between atoms: O_11  and  C_27 
REMARK    4  A    between atoms: C_14  and  C_16 
REMARK    5  A    between atoms: C_16  and  C_18 
REMARK    6  A    between atoms: C_16  and  C_24 
REMARK    7  A    between atoms: C_18  and  C_22 
REMARK    8  A    between atoms: C_24  and  C_26 
ROOT
HETATM    1  C   UNL     1       4.446   8.321  19.635  1.00  0.00     0.034 C 
ENDROOT
BRANCH   1   2
HETATM    2  C   UNL     1       3.833   9.528  18.956  1.00  0.00    -0.020 C 
HETATM    3  C   UNL     1       3.581  10.764  19.560  1.00  0.00     0.012 C 
HETATM    4  C   UNL     1       3.439  11.891  18.747  1.00  0.00     0.024 C 
HETATM    5  C   UNL     1       3.545  11.758  17.363  1.00  0.00     0.036 C 
HETATM    6  C   UNL     1       3.703  10.509  16.771  1.00  0.00     0.060 C 
HETATM    7 CL   UNL     1       3.371  13.174  16.408  1.00  0.00    -0.084 Cl
HETATM    8  C   UNL     1       3.480   9.407  17.600  1.00  0.00     0.074 C 
BRANCH   8   9
HETATM    9  O   UNL     1       2.824   8.317  17.161  1.00  0.00    -0.360 OA
ATOM     10  HO  UNL     1       2.891   7.481  17.609  1.00  0.00     0.217 HD
ENDBRANCH   8   9
ENDBRANCH   1   2
BRANCH   1  11
HETATM   11  C   UNL     1       3.955   8.334  21.093  1.00  0.00     0.093 C 
BRANCH  11  12
HETATM   12  C   UNL     1       3.189   7.095  21.515  1.00  0.00     0.160 C 
HETATM   13  O   UNL     1       3.114   6.785  22.690  1.00  0.00    -0.292 OA
BRANCH  12  14
HETATM   14  C   UNL     1       2.557   6.252  20.454  1.00  0.00     0.010 C 
HETATM   15  C   UNL     1       1.328   6.642  19.923  1.00  0.00     0.015 C 
HETATM   16  C   UNL     1       0.808   5.965  18.822  1.00  0.00     0.001 C 
HETATM   17  C   UNL     1       1.480   4.863  18.303  1.00  0.00     0.000 C 
HETATM   18  C   UNL     1       2.700   4.476  18.834  1.00  0.00     0.001 C 
HETATM   19  C   UNL     1       3.198   5.127  19.961  1.00  0.00     0.015 C 
ENDBRANCH  12  14
ENDBRANCH  11  12
ENDBRANCH   1  11
BRANCH   1  20
HETATM   20  C   UNL     1       5.934   8.071  19.408  1.00  0.00     0.067 C 
BRANCH  20  21
HETATM   21  C   UNL     1       6.342   7.482  18.070  1.00  0.00     0.013 C 
HETATM   22  C   UNL     1       7.423   8.006  17.365  1.00  0.00     0.028 C 
HETATM   23  C   UNL     1       7.910   7.323  16.248  1.00  0.00     0.044 C 
HETATM   24  C   UNL     1       7.251   6.166  15.835  1.00  0.00     0.134 C 
HETATM   25  C   UNL     1       5.913   5.923  16.321  1.00  0.00     0.279 C 
HETATM   26  O   UNL     1       5.111   5.232  15.661  1.00  0.00    -0.265 OA
HETATM   27  N   UNL     1       5.607   6.468  17.546  1.00  0.00    -0.325 N 
ATOM     28  HN  UNL     1       4.811   6.103  18.071  1.00  0.00     0.169 HD
BRANCH  24  29
HETATM   29  O   UNL     1       7.868   5.232  15.070  1.00  0.00    -0.356 OA
ATOM     30  HO  UNL     1       8.749   5.391  14.753  1.00  0.00     0.218 HD
ENDBRANCH  24  29
ENDBRANCH  20  21
ENDBRANCH   1  20
TORSDOF 8
ENDMDL
MODEL 8
REMARK VINA RESULT:      -7.8      2.934      4.804
REMARK  8 active torsions:
REMARK  status: ('A' for Active; 'I' for Inactive)
REMARK    1  A    between atoms: C_6  and  C_22 
REMARK    2  A    between atoms: O_7  and  C_25 
REMARK    3  A    between atoms: O_11  and  C_27 
REMARK    4  A    between atoms: C_14  and  C_16 
REMARK    5  A    between atoms: C_16  and  C_18 
REMARK    6  A    between atoms: C_16  and  C_24 
REMARK    7  A    between atoms: C_18  and  C_22 
REMARK    8  A    between atoms: C_24  and  C_26 
ROOT
HETATM    1  C   UNL     1       4.325  10.141  19.084  1.00  0.00     0.034 C 
ENDROOT
BRANCH   1   2
HETATM    2  C   UNL     1       3.878   8.757  18.659  1.00  0.00    -0.020 C 
HETATM    3  C   UNL     1       4.723   7.687  18.347  1.00  0.00     0.012 C 
HETATM    4  C   UNL     1       4.211   6.389  18.406  1.00  0.00     0.024 C 
HETATM    5  C   UNL     1       2.879   6.192  18.767  1.00  0.00     0.036 C 
HETATM    6  C   UNL     1       2.025   7.270  18.984  1.00  0.00     0.060 C 
HETATM    7 CL   UNL     1       2.298   4.578  18.834  1.00  0.00    -0.084 Cl
HETATM    8  C   UNL     1       2.496   8.516  18.565  1.00  0.00     0.074 C 
BRANCH   8   9
HETATM    9  O   UNL     1       1.687   9.407  17.961  1.00  0.00    -0.360 OA
ATOM     10  HO  UNL     1       0.834   9.625  18.317  1.00  0.00     0.217 HD
ENDBRANCH   8   9
ENDBRANCH   1   2
BRANCH   1  11
HETATM   11  C   UNL     1       5.128  10.728  17.911  1.00  0.00     0.093 C 
BRANCH  11  12
HETATM   12  C   UNL     1       6.617  10.860  18.165  1.00  0.00     0.160 C 
HETATM   13  O   UNL     1       7.091  11.922  18.528  1.00  0.00    -0.292 OA
BRANCH  12  14
HETATM   14  C   UNL     1       7.488   9.667  17.935  1.00  0.00     0.010 C 
HETATM   15  C   UNL     1       8.152   9.093  19.018  1.00  0.00     0.015 C 
HETATM   16  C   UNL     1       8.829   7.888  18.852  1.00  0.00     0.001 C 
HETATM   17  C   UNL     1       8.900   7.299  17.594  1.00  0.00     0.000 C 
HETATM   18  C   UNL     1       8.241   7.871  16.518  1.00  0.00     0.001 C 
HETATM   19  C   UNL     1       7.600   9.098  16.676  1.00  0.00     0.015 C 
ENDBRANCH  12  14
ENDBRANCH  11  12
ENDBRANCH   1  11
BRANCH   1  20
HETATM   20  C   UNL     1       4.930  10.284  20.478  1.00  0.00     0.067 C 
BRANCH  20  21
HETATM   21  C   UNL     1       4.840   9.082  21.400  1.00  0.00     0.013 C 
HETATM   22  C   UNL     1       5.930   8.232  21.565  1.00  0.00     0.028 C 
HETATM   23  C   UNL     1       5.898   7.262  22.570  1.00  0.00     0.044 C 
HETATM   24  C   UNL     1       4.741   7.134  23.336  1.00  0.00     0.134 C 
HETATM   25  C   UNL     1       3.518   7.723  22.844  1.00  0.00     0.279 C 
HETATM   26  O   UNL     1       2.408   7.264  23.178  1.00  0.00    -0.265 OA
HETATM   27  N   UNL     1       3.663   8.819  22.025  1.00  0.00    -0.325 N 
ATOM     28  HN  UNL     1       2.871   9.447  21.885  1.00  0.00     0.169 HD
BRANCH  24  29
HETATM   29  O   UNL     1       4.760   6.554  24.561  1.00  0.00    -0.356 OA
ATOM     30  HO  UNL     1       4.191   6.884  25.246  1.00  0.00     0.218 HD
ENDBRANCH  24  29
ENDBRANCH  20  21
ENDBRANCH   1  20
TORSDOF 8
ENDMDL
MODEL 9
REMARK VINA RESULT:      -7.7      2.745      5.821
REMARK  8 active torsions:
REMARK  status: ('A' for Active; 'I' for Inactive)
REMARK    1  A    between atoms: C_6  and  C_22 
REMARK    2  A    between atoms: O_7  and  C_25 
REMARK    3  A    between atoms: O_11  and  C_27 
REMARK    4  A    between atoms: C_14  and  C_16 
REMARK    5  A    between atoms: C_16  and  C_18 
REMARK    6  A    between atoms: C_16  and  C_24 
REMARK    7  A    between atoms: C_18  and  C_22 
REMARK    8  A    between atoms: C_24  and  C_26 
ROOT
HETATM    1  C   UNL     1       4.877   7.546  19.557  1.00  0.00     0.034 C 
ENDROOT
BRANCH   1   2
HETATM    2  C   UNL     1       5.489   6.979  18.293  1.00  0.00    -0.020 C 
HETATM    3  C   UNL     1       4.871   6.077  17.422  1.00  0.00     0.012 C 
HETATM    4  C   UNL     1       5.341   5.982  16.109  1.00  0.00     0.024 C 
HETATM    5  C   UNL     1       6.410   6.780  15.704  1.00  0.00     0.036 C 
HETATM    6  C   UNL     1       7.075   7.606  16.606  1.00  0.00     0.060 C 
HETATM    7 CL   UNL     1       6.945   6.635  14.079  1.00  0.00    -0.084 Cl
HETATM    8  C   UNL     1       6.791   7.388  17.957  1.00  0.00     0.074 C 
BRANCH   8   9
HETATM    9  O   UNL     1       7.758   7.426  18.893  1.00  0.00    -0.360 OA
ATOM     10  HO  UNL     1       7.716   8.029  19.626  1.00  0.00     0.217 HD
ENDBRANCH   8   9
ENDBRANCH   1   2
BRANCH   1  11
HETATM   11  C   UNL     1       4.324   6.353  20.357  1.00  0.00     0.093 C 
BRANCH  11  12
HETATM   12  C   UNL     1       2.840   6.429  20.660  1.00  0.00     0.160 C 
HETATM   13  O   UNL     1       2.449   6.854  21.733  1.00  0.00    -0.292 OA
BRANCH  12  14
HETATM   14  C   UNL     1       1.875   5.944  19.626  1.00  0.00     0.010 C 
HETATM   15  C   UNL     1       1.904   4.603  19.248  1.00  0.00     0.015 C 
HETATM   16  C   UNL     1       0.907   4.100  18.416  1.00  0.00     0.001 C 
HETATM   17  C   UNL     1      -0.071   4.950  17.911  1.00  0.00     0.000 C 
HETATM   18  C   UNL     1      -0.097   6.284  18.287  1.00  0.00     0.001 C 
HETATM   19  C   UNL     1       0.925   6.795  19.084  1.00  0.00     0.015 C 
ENDBRANCH  12  14
ENDBRANCH  11  12
ENDBRANCH   1  11
BRANCH   1  20
HETATM   20  C   UNL     1       3.968   8.763  19.411  1.00  0.00     0.067 C 
BRANCH  20  21
HETATM   21  C   UNL     1       4.391   9.829  18.416  1.00  0.00     0.013 C 
HETATM   22  C   UNL     1       3.791   9.906  17.162  1.00  0.00     0.028 C 
HETATM   23  C   UNL     1       4.042  11.013  16.348  1.00  0.00     0.044 C 
HETATM   24  C   UNL     1       4.941  11.979  16.795  1.00  0.00     0.134 C 
HETATM   25  C   UNL     1       5.842  11.638  17.871  1.00  0.00     0.279 C 
HETATM   26  O   UNL     1       6.941  12.215  17.991  1.00  0.00    -0.265 OA
HETATM   27  N   UNL     1       5.398  10.677  18.750  1.00  0.00    -0.325 N 
ATOM     28  HN  UNL     1       5.833  10.600  19.669  1.00  0.00     0.169 HD
BRANCH  24  29
HETATM   29  O   UNL     1       4.925  13.245  16.310  1.00  0.00    -0.356 OA
ATOM     30  HO  UNL     1       4.603  13.407  15.430  1.00  0.00     0.218 HD
ENDBRANCH  24  29
ENDBRANCH  20  21
ENDBRANCH   1  20
TORSDOF 8
ENDMDL
