REMARK  2 active torsions:
REMARK  status: ('A' for Active; 'I' for Inactive)
REMARK    1  A    between atoms: C_7  and  C_21 
REMARK    2  A    between atoms: C_7  and  O_29 
ROOT
HETATM    1  C   UNL     1    -151.416 -69.745  60.724  1.00  0.00     0.013 C 
HETATM    2  C   UNL     1    -151.670 -71.523  55.806  1.00  0.00     0.012 C 
HETATM    3  C   UNL     1    -150.021 -69.909  56.572  1.00  0.00     0.013 C 
HETATM    4  C   UNL     1    -152.122 -72.202  61.781  1.00  0.00     0.016 C 
HETATM    5  C   UNL     1    -149.660 -72.293  56.755  1.00  0.00    -0.025 C 
HETATM    6  C   UNL     1    -152.312 -70.721  54.896  1.00  0.00     0.002 C 
HETATM    7  C   UNL     1    -153.046 -71.166  61.767  1.00  0.00     0.013 C 
HETATM    8  C   UNL     1    -151.147 -68.535  54.899  1.00  0.00    -0.032 C 
HETATM    9  C   UNL     1    -148.739 -73.213  60.147  1.00  0.00     0.232 C 
HETATM   10  N   UNL     1    -153.298 -66.439  54.731  1.00  0.00    -0.384 N 
ATOM     11  HN  UNL     1    -154.296 -66.306  54.569  1.00  0.00     0.160 HD
HETATM   12  C   UNL     1    -148.578 -72.720  55.996  1.00  0.00     0.012 C 
HETATM   13  C   UNL     1    -151.751 -65.063  56.090  1.00  0.00     0.068 C 
HETATM   14  C   UNL     1    -150.444 -71.208  56.361  1.00  0.00    -0.026 C 
HETATM   15  C   UNL     1    -153.286 -66.803  57.211  1.00  0.00    -0.014 C 
HETATM   16  C   UNL     1    -153.711 -68.191  59.599  1.00  0.00    -0.027 C 
HETATM   17  C   UNL     1    -153.339 -66.845  59.626  1.00  0.00     0.013 C 
HETATM   18  C   UNL     1    -148.799 -73.370  58.667  1.00  0.00     0.019 C 
HETATM   19  C   UNL     1    -153.820 -68.105  57.200  1.00  0.00     0.014 C 
HETATM   20  C   UNL     1    -153.807 -68.940  60.921  1.00  0.00    -0.014 C 
HETATM   21  C   UNL     1    -152.506 -66.946  53.609  1.00  0.00     0.111 C 
HETATM   22  C   UNL     1    -151.170 -67.433  54.083  1.00  0.00    -0.047 C 
HETATM   23  C   UNL     1    -150.494 -70.786  60.722  1.00  0.00     0.016 C 
HETATM   24  C   UNL     1    -152.724 -69.969  61.143  1.00  0.00    -0.027 C 
HETATM   25  C   UNL     1    -150.722 -66.304  52.089  1.00  0.00     0.007 C 
HETATM   26  C   UNL     1    -152.161 -66.033  52.452  1.00  0.00     0.030 C 
HETATM   27  C   UNL     1    -147.608 -73.519  56.594  1.00  0.00     0.002 C 
HETATM   28  O   UNL     1    -150.280 -74.272  61.624  1.00  0.00    -0.283 OA
HETATM   29  O   UNL     1    -147.684 -73.059  60.719  1.00  0.00    -0.283 OA
HETATM   30  C   UNL     1    -149.917 -72.910  57.977  1.00  0.00     0.028 C 
HETATM   31  C   UNL     1    -154.013 -68.800  58.383  1.00  0.00     0.013 C 
HETATM   32  C   UNL     1    -152.826 -66.127  55.975  1.00  0.00     0.012 C 
HETATM   33  C   UNL     1    -153.184 -66.148  58.431  1.00  0.00     0.014 C 
HETATM   34  C   UNL     1    -150.015 -73.256  60.990  1.00  0.00     0.232 C 
HETATM   35  C   UNL     1    -147.720 -73.847  57.933  1.00  0.00     0.015 C 
HETATM   36  C   UNL     1    -152.108 -69.429  54.650  1.00  0.00     0.012 C 
HETATM   37  C   UNL     1    -150.190 -68.738  55.875  1.00  0.00     0.012 C 
HETATM   38  C   UNL     1    -150.065 -66.797  53.356  1.00  0.00     0.037 C 
HETATM   39  C   UNL     1    -150.888 -72.052  61.168  1.00  0.00     0.018 C 
ENDROOT
BRANCH  20  40
HETATM   40  C   UNL     1    -155.179 -69.176  61.518  1.00  0.00     0.204 C 
BRANCH  40  41
HETATM   41  O   UNL     1    -156.113 -69.637  60.561  1.00  0.00    -0.396 OA
ATOM     42  HO  UNL     1    -156.973 -69.785  60.935  1.00  0.00     0.209 HD
ENDBRANCH  40  41
ENDBRANCH  20  40
TORSDOF 2
