REMARK  1 active torsions:
REMARK  status: ('A' for Active; 'I' for Inactive)
REMARK    1  A    between atoms: O_14  and  C_25 
ROOT
HETATM    1  C   UNL     1       0.610   9.520   8.362  1.00  0.00     0.084 C 
HETATM    2  C   UNL     1       1.793   5.043  10.672  1.00  0.00     0.063 C 
HETATM    3  N   UNL     1       0.960   7.357   9.654  1.00  0.00    -0.335 N 
HETATM    4  C   UNL     1      -4.137   8.722   5.165  1.00  0.00     0.007 C 
HETATM    5  C   UNL     1       3.404   9.527   8.294  1.00  0.00     0.144 C 
HETATM    6  C   UNL     1      -1.369   9.394   6.749  1.00  0.00     0.033 C 
HETATM    7  C   UNL     1      -2.294   5.600   8.890  1.00  0.00    -0.045 C 
HETATM    8  C   UNL     1      -1.840   8.329   5.967  1.00  0.00     0.037 C 
HETATM    9  C   UNL     1       1.949   6.502  10.338  1.00  0.00     0.095 C 
HETATM   10  N   UNL     1      -0.010   9.404   7.097  1.00  0.00    -0.353 N 
ATOM     11  HN  UNL     1       0.634   9.313   6.311  1.00  0.00     0.166 HD
HETATM   12  C   UNL     1      -5.000   4.251   8.038  1.00  0.00     0.001 C 
HETATM   13  C   UNL     1       1.965  11.368   9.246  1.00  0.00     0.004 C 
HETATM   14  F   UNL     1       0.950   3.829   8.836  1.00  0.00    -0.207 F 
HETATM   15  C   UNL     1      -2.247  10.441   7.142  1.00  0.00     0.029 C 
HETATM   16  O   UNL     1       2.753   8.316   8.413  1.00  0.00    -0.304 OA
HETATM   17  C   UNL     1       3.139  10.749   8.749  1.00  0.00     0.025 C 
HETATM   18  C   UNL     1      -3.307   6.367   5.477  1.00  0.00     0.077 C 
HETATM   19  C   UNL     1      -3.528  10.618   6.680  1.00  0.00     0.002 C 
HETATM   20  C   UNL     1      -4.906   5.222   7.059  1.00  0.00     0.007 C 
HETATM   21  C   UNL     1      -0.687   4.646  10.358  1.00  0.00     0.072 C 
HETATM   22  C   UNL     1      -1.719   3.566   9.986  1.00  0.00     0.050 C 
HETATM   23  C   UNL     1       0.726   4.077  10.155  1.00  0.00     0.227 C 
HETATM   24  C   UNL     1       1.424   8.350   8.809  1.00  0.00     0.176 C 
HETATM   25  C   UNL     1      -4.326   9.972   5.741  1.00  0.00     0.001 C 
HETATM   26  C   UNL     1      -3.733   5.962   6.882  1.00  0.00    -0.053 C 
HETATM   27  C   UNL     1      -2.949   6.366   7.957  1.00  0.00     0.015 C 
HETATM   28  C   UNL     1      -0.846   5.756   9.308  1.00  0.00     0.048 C 
HETATM   29  C   UNL     1      -3.081   7.868   5.543  1.00  0.00    -0.052 C 
HETATM   30  C   UNL     1      -2.797   4.365   9.289  1.00  0.00    -0.051 C 
HETATM   31  C   UNL     1       0.707  10.766   9.053  1.00  0.00     0.034 C 
HETATM   32  C   UNL     1      -4.057   3.898   8.988  1.00  0.00     0.007 C 
HETATM   33  C   UNL     1      -0.483   7.136   9.929  1.00  0.00     0.140 C 
ENDROOT
BRANCH  23  34
HETATM   34  O   UNL     1       0.856   2.841  10.819  1.00  0.00    -0.358 OA
ATOM     35  HO  UNL     1       0.193   2.241  10.498  1.00  0.00     0.213 HD
ENDBRANCH  23  34
TORSDOF 1
