REMARK  14 active torsions:
REMARK  status: ('A' for Active; 'I' for Inactive)
REMARK    1  A    between atoms: C_2  and  O_10 
REMARK    2  A    between atoms: O_3  and  P_22 
REMARK    3  A    between atoms: O_6  and  P_22 
REMARK    4  A    between atoms: O_8  and  P_22 
REMARK    5  A    between atoms: C_13  and  O_14 
REMARK    6  A    between atoms: C_17  and  C_36 
REMARK    7  A    between atoms: C_19  and  C_20 
REMARK    8  A    between atoms: C_19  and  C_26 
REMARK    9  A    between atoms: C_21  and  N_39 
REMARK   10  A    between atoms: P_22  and  N_27 
REMARK   11  A    between atoms: P_22  and  O_33 
REMARK   12  A    between atoms: C_24  and  C_26 
REMARK   13  A    between atoms: N_27  and  C_37 
REMARK   14  A    between atoms: C_31  and  N_39 
ROOT
HETATM    1  O   UNL     1     -27.724 -14.990  -5.642  1.00  0.00    -0.283 OA
HETATM    2  C   UNL     1     -27.710 -13.739  -5.292  1.00  0.00     0.226 C 
HETATM    3  C   UNL     1     -28.767 -12.837  -5.332  1.00  0.00     0.086 C 
HETATM    4  C   UNL     1     -26.847 -11.752  -5.463  1.00  0.00     0.007 C 
HETATM    5  C   UNL     1     -26.586 -13.002  -4.944  1.00  0.00     0.101 C 
HETATM    6  C   UNL     1     -28.227 -11.584  -5.462  1.00  0.00     0.048 C 
ENDROOT
BRANCH   3   7
HETATM    7  N   UNL     1     -30.107 -13.092  -5.106  1.00  0.00    -0.353 N 
ATOM      8  HN  UNL     1     -30.788 -12.714  -5.765  1.00  0.00     0.166 HD
BRANCH   7   9
HETATM    9  C   UNL     1     -30.576 -13.836  -4.028  1.00  0.00     0.032 C 
HETATM   10  C   UNL     1     -31.947 -14.013  -3.904  1.00  0.00     0.030 C 
HETATM   11  C   UNL     1     -32.449 -14.760  -2.856  1.00  0.00     0.009 C 
HETATM   12  C   UNL     1     -31.593 -15.362  -1.945  1.00  0.00    -0.058 C 
HETATM   13  C   UNL     1     -30.233 -15.283  -2.153  1.00  0.00     0.009 C 
HETATM   14  C   UNL     1     -29.727 -14.462  -3.135  1.00  0.00     0.030 C 
BRANCH  12  15
HETATM   15  C   UNL     1     -32.164 -16.035  -0.737  1.00  0.00     0.049 C 
BRANCH  15  16
HETATM   16  C   UNL     1     -31.170 -16.542   0.285  1.00  0.00     0.117 C 
BRANCH  16  17
HETATM   17  C   UNL     1     -30.616 -17.920  -0.015  1.00  0.00     0.172 C 
HETATM   18  O   UNL     1     -29.369 -18.027   0.086  1.00  0.00    -0.648 OA
HETATM   19  O   UNL     1     -31.468 -18.804  -0.271  1.00  0.00    -0.648 OA
ENDBRANCH  16  17
ENDBRANCH  15  16
ENDBRANCH  12  15
ENDBRANCH   7   9
ENDBRANCH   3   7
BRANCH   5  20
HETATM   20  N   UNL     1     -25.359 -13.720  -4.717  1.00  0.00    -0.288 N 
ATOM     21  HN  UNL     1     -24.684 -13.987  -5.433  1.00  0.00     0.172 HD
BRANCH  20  22
HETATM   22  P   UNL     1     -25.220 -14.059  -3.001  1.00  0.00     0.360 P 
BRANCH  22  23
HETATM   23  O   UNL     1     -26.371 -13.699  -1.984  1.00  0.00    -0.307 OA
ATOM     24  HO  UNL     1     -27.097 -13.383  -2.510  1.00  0.00     0.222 HD
ENDBRANCH  22  23
BRANCH  22  25
HETATM   25  O   UNL     1     -24.044 -14.571  -2.149  1.00  0.00    -0.307 OA
ATOM     26  HO  UNL     1     -23.351 -14.788  -2.761  1.00  0.00     0.222 HD
ENDBRANCH  22  25
BRANCH  22  27
HETATM   27  O   UNL     1     -25.901 -15.481  -3.138  1.00  0.00    -0.307 OA
ATOM     28  HO  UNL     1     -25.208 -15.698  -3.750  1.00  0.00     0.222 HD
ENDBRANCH  22  27
BRANCH  22  29
HETATM   29  O   UNL     1     -25.080 -12.475  -2.596  1.00  0.00    -0.307 OA
ATOM     30  HO  UNL     1     -24.387 -12.692  -3.208  1.00  0.00     0.222 HD
ENDBRANCH  22  29
ENDBRANCH  20  22
ENDBRANCH   5  20
BRANCH   4  31
HETATM   31  C   UNL     1     -25.962 -10.970  -6.180  1.00  0.00    -0.021 C 
HETATM   32  C   UNL     1     -26.144 -10.637  -7.523  1.00  0.00     0.015 C 
HETATM   33  C   UNL     1     -25.458  -9.548  -8.054  1.00  0.00     0.040 C 
HETATM   34  C   UNL     1     -24.821  -8.662  -7.198  1.00  0.00     0.098 C 
HETATM   35  C   UNL     1     -24.696  -9.017  -5.859  1.00  0.00     0.099 C 
HETATM   36  C   UNL     1     -24.947 -10.324  -5.479  1.00  0.00     0.051 C 
BRANCH  34  37
HETATM   37  O   UNL     1     -23.990  -7.687  -7.650  1.00  0.00    -0.358 OA
ATOM     38  HO  UNL     1     -24.075  -7.445  -8.565  1.00  0.00     0.217 HD
ENDBRANCH  34  37
BRANCH  35  39
HETATM   39  O   UNL     1     -24.614  -8.037  -4.931  1.00  0.00    -0.358 OA
ATOM     40  HO  UNL     1     -24.529  -8.279  -4.016  1.00  0.00     0.217 HD
ENDBRANCH  35  39
ENDBRANCH   4  31
TORSDOF 14
