REMARK  8 active torsions:
REMARK  status: ('A' for Active; 'I' for Inactive)
REMARK    1  A    between atoms: O_3  and  C_19 
REMARK    2  A    between atoms: O_3  and  C_23 
REMARK    3  A    between atoms: P_4  and  O_12 
REMARK    4  A    between atoms: C_10  and  O_21 
REMARK    5  A    between atoms: O_12  and  C_17 
REMARK    6  A    between atoms: C_14  and  O_25 
REMARK    7  A    between atoms: C_16  and  C_17 
REMARK    8  A    between atoms: C_19  and  C_27 
ROOT
HETATM    1  O   UNL     1     -13.667  16.217  26.038  1.00  0.00    -0.379 OA
ENDROOT
BRANCH   1   2
HETATM    2  C   UNL     1     -13.645  14.787  25.946  1.00  0.00     0.207 C 
BRANCH   2   3
HETATM    3  C   UNL     1     -12.527  14.491  24.991  1.00  0.00    -0.034 C 
HETATM    4  C   UNL     1     -11.700  13.396  25.213  1.00  0.00     0.025 C 
HETATM    5  C   UNL     1     -10.480  13.351  24.538  1.00  0.00     0.024 C 
HETATM    6  C   UNL     1      -9.592  12.170  24.610  1.00  0.00     0.214 C 
HETATM    7  C   UNL     1     -10.054  14.485  23.851  1.00  0.00    -0.020 C 
HETATM    8  O   UNL     1     -10.011  11.025  24.699  1.00  0.00    -0.287 OA
HETATM    9  C   UNL     1      -8.119  12.470  24.435  1.00  0.00     0.333 C 
HETATM   10  O   UNL     1      -7.898  13.477  23.448  1.00  0.00    -0.349 OA
HETATM   11  C   UNL     1      -8.580  14.699  23.709  1.00  0.00     0.211 C 
HETATM   12  C   UNL     1     -11.006  15.372  23.361  1.00  0.00     0.011 C 
HETATM   13  C   UNL     1     -12.300  15.321  23.888  1.00  0.00     0.010 C 
BRANCH   9  14
HETATM   14  O   UNL     1      -7.429  11.324  23.999  1.00  0.00    -0.364 OA
ATOM     15  HO  UNL     1      -6.504  11.512  23.889  1.00  0.00     0.213 HD
ENDBRANCH   9  14
ENDBRANCH   2   3
ENDBRANCH   1   2
BRANCH   1  16
HETATM   16  C   UNL     1     -12.886  16.672  27.125  1.00  0.00     0.151 C 
HETATM   17  C   UNL     1     -11.878  17.757  26.846  1.00  0.00     0.147 C 
HETATM   18  C   UNL     1     -11.987  18.787  27.970  1.00  0.00     0.041 C 
HETATM   19  C   UNL     1     -12.831  18.092  29.020  1.00  0.00     0.015 C 
HETATM   20  C   UNL     1     -13.773  17.204  28.229  1.00  0.00     0.041 C 
BRANCH  17  21
HETATM   21  O   UNL     1     -12.107  18.363  25.588  1.00  0.00    -0.393 OA
ATOM     22  HO  UNL     1     -12.039  17.723  24.889  1.00  0.00     0.210 HD
ENDBRANCH  17  21
BRANCH  19  23
HETATM   23  C   UNL     1     -13.565  18.987  29.989  1.00  0.00     0.187 C 
BRANCH  23  24
HETATM   24  O   UNL     1     -12.619  19.944  30.456  1.00  0.00    -0.282 OA
BRANCH  24  25
HETATM   25  P   UNL     1     -12.168  19.894  31.973  1.00  0.00     0.422 P 
HETATM   26  O   UNL     1     -11.879  21.292  32.355  1.00  0.00    -0.617 OA
HETATM   27  O   UNL     1     -13.330  19.284  32.721  1.00  0.00    -0.617 OA
HETATM   28  O   UNL     1     -10.981  18.984  31.976  1.00  0.00    -0.617 OA
ENDBRANCH  24  25
ENDBRANCH  23  24
ENDBRANCH  19  23
ENDBRANCH   1  16
TORSDOF 8
