MODEL 1
REMARK VINA RESULT:      -9.8      0.000      0.000
REMARK  3 active torsions:
REMARK  status: ('A' for Active; 'I' for Inactive)
REMARK       I    between atoms: N_12  and  C_22 
REMARK    1  A    between atoms: C_13  and  C_14 
REMARK    2  A    between atoms: P_15  and  C_24 
REMARK    3  A    between atoms: C_17  and  C_22 
ROOT
HETATM    1  O   UNL     1      34.220  37.672  53.476  1.00  0.00    -0.267 OA
HETATM    2  C   UNL     1      34.562  34.785  51.958  1.00  0.00     0.010 C 
HETATM    3  C   UNL     1      34.106  34.361  54.425  1.00  0.00     0.065 C 
HETATM    4  N   UNL     1      35.971  36.254  53.412  1.00  0.00    -0.344 N 
HETATM    5  C   UNL     1      35.555  34.066  54.740  1.00  0.00     0.109 C 
HETATM    6  C   UNL     1      35.773  35.726  52.048  1.00  0.00     0.154 C 
HETATM    7  C   UNL     1      35.416  37.483  53.697  1.00  0.00     0.254 C 
HETATM    8  C   UNL     1      36.413  35.306  54.456  1.00  0.00     0.142 C 
HETATM    9  C   UNL     1      33.745  34.525  53.031  1.00  0.00     0.044 C 
ENDROOT
BRANCH   7  10
HETATM   10  C   UNL     1      36.236  38.637  54.172  1.00  0.00     0.032 C 
HETATM   11  C   UNL     1      35.660  39.424  55.166  1.00  0.00     0.017 C 
HETATM   12  C   UNL     1      35.872  40.711  55.624  1.00  0.00     0.004 C 
HETATM   13  C   UNL     1      36.995  41.497  55.444  1.00  0.00     0.042 C 
HETATM   14  C   UNL     1      37.937  41.227  54.466  1.00  0.00     0.116 C 
HETATM   15  C   UNL     1      38.295  39.980  54.013  1.00  0.00     0.043 C 
HETATM   16  F   UNL     1      38.405  42.300  53.804  1.00  0.00    -0.206 F 
HETATM   17  C   UNL     1      37.552  38.843  53.745  1.00  0.00     0.020 C 
ENDBRANCH   7  10
BRANCH   5  18
HETATM   18  C   UNL     1      35.723  32.722  54.043  1.00  0.00     0.178 C 
HETATM   19  O   UNL     1      36.524  32.564  53.128  1.00  0.00    -0.648 OA
HETATM   20  O   UNL     1      34.955  31.808  54.390  1.00  0.00    -0.648 OA
ENDBRANCH   5  18
BRANCH   9  21
HETATM   21  P   UNL     1      32.019  34.808  53.004  1.00  0.00     0.291 P 
HETATM   22  O   UNL     1      31.794  36.130  52.364  1.00  0.00    -0.636 OA
HETATM   23  O   UNL     1      31.558  34.867  54.438  1.00  0.00    -0.636 OA
HETATM   24  O   UNL     1      31.555  33.568  52.287  1.00  0.00    -0.636 OA
ENDBRANCH   9  21
TORSDOF 3
ENDMDL
MODEL 2
REMARK VINA RESULT:      -9.0      2.600      3.250
REMARK  3 active torsions:
REMARK  status: ('A' for Active; 'I' for Inactive)
REMARK       I    between atoms: N_12  and  C_22 
REMARK    1  A    between atoms: C_13  and  C_14 
REMARK    2  A    between atoms: P_15  and  C_24 
REMARK    3  A    between atoms: C_17  and  C_22 
ROOT
HETATM    1  O   UNL     1      32.980  36.853  55.294  1.00  0.00    -0.267 OA
HETATM    2  C   UNL     1      34.087  35.595  52.474  1.00  0.00     0.010 C 
HETATM    3  C   UNL     1      34.019  33.747  54.222  1.00  0.00     0.065 C 
HETATM    4  N   UNL     1      35.079  36.353  54.643  1.00  0.00    -0.344 N 
HETATM    5  C   UNL     1      35.509  33.801  54.475  1.00  0.00     0.109 C 
HETATM    6  C   UNL     1      34.936  36.648  53.203  1.00  0.00     0.154 C 
HETATM    7  C   UNL     1      34.189  36.962  55.501  1.00  0.00     0.254 C 
HETATM    8  C   UNL     1      35.896  35.181  55.023  1.00  0.00     0.142 C 
HETATM    9  C   UNL     1      33.499  34.539  53.126  1.00  0.00     0.044 C 
ENDROOT
BRANCH   7  10
HETATM   10  C   UNL     1      34.636  37.839  56.623  1.00  0.00     0.032 C 
HETATM   11  C   UNL     1      35.338  37.207  57.646  1.00  0.00     0.017 C 
HETATM   12  C   UNL     1      35.615  37.519  58.964  1.00  0.00     0.004 C 
HETATM   13  C   UNL     1      35.557  38.762  59.568  1.00  0.00     0.042 C 
HETATM   14  C   UNL     1      34.865  39.823  59.009  1.00  0.00     0.116 C 
HETATM   15  C   UNL     1      34.712  40.069  57.666  1.00  0.00     0.043 C 
HETATM   16  F   UNL     1      34.154  40.567  59.875  1.00  0.00    -0.206 F 
HETATM   17  C   UNL     1      34.478  39.228  56.592  1.00  0.00     0.020 C 
ENDBRANCH   7  10
BRANCH   5  18
HETATM   18  C   UNL     1      36.034  33.212  53.171  1.00  0.00     0.178 C 
HETATM   19  O   UNL     1      35.465  32.283  52.607  1.00  0.00    -0.648 OA
HETATM   20  O   UNL     1      37.109  33.664  52.741  1.00  0.00    -0.648 OA
ENDBRANCH   5  18
BRANCH   9  21
HETATM   21  P   UNL     1      31.778  34.227  53.074  1.00  0.00     0.291 P 
HETATM   22  O   UNL     1      31.566  33.047  52.195  1.00  0.00    -0.636 OA
HETATM   23  O   UNL     1      31.128  35.434  52.448  1.00  0.00    -0.636 OA
HETATM   24  O   UNL     1      31.484  34.097  54.544  1.00  0.00    -0.636 OA
ENDBRANCH   9  21
TORSDOF 3
ENDMDL
MODEL 3
REMARK VINA RESULT:      -8.7      3.847      5.306
REMARK  3 active torsions:
REMARK  status: ('A' for Active; 'I' for Inactive)
REMARK       I    between atoms: N_12  and  C_22 
REMARK    1  A    between atoms: C_13  and  C_14 
REMARK    2  A    between atoms: P_15  and  C_24 
REMARK    3  A    between atoms: C_17  and  C_22 
ROOT
HETATM    1  O   UNL     1      37.188  33.519  56.207  1.00  0.00    -0.267 OA
HETATM    2  C   UNL     1      34.649  35.160  54.934  1.00  0.00     0.010 C 
HETATM    3  C   UNL     1      36.510  35.063  53.201  1.00  0.00     0.065 C 
HETATM    4  N   UNL     1      36.865  35.735  55.943  1.00  0.00    -0.344 N 
HETATM    5  C   UNL     1      36.957  36.484  53.462  1.00  0.00     0.109 C 
HETATM    6  C   UNL     1      35.401  35.765  56.129  1.00  0.00     0.154 C 
HETATM    7  C   UNL     1      37.546  34.664  56.483  1.00  0.00     0.254 C 
HETATM    8  C   UNL     1      37.443  36.621  54.911  1.00  0.00     0.142 C 
HETATM    9  C   UNL     1      35.295  34.615  53.852  1.00  0.00     0.044 C 
ENDROOT
BRANCH   7  10
HETATM   10  C   UNL     1      38.646  34.839  57.476  1.00  0.00     0.032 C 
HETATM   11  C   UNL     1      38.261  34.854  58.814  1.00  0.00     0.017 C 
HETATM   12  C   UNL     1      38.839  35.318  59.981  1.00  0.00     0.004 C 
HETATM   13  C   UNL     1      40.173  35.606  60.206  1.00  0.00     0.042 C 
HETATM   14  C   UNL     1      41.071  35.804  59.172  1.00  0.00     0.116 C 
HETATM   15  C   UNL     1      41.040  35.183  57.946  1.00  0.00     0.043 C 
HETATM   16  F   UNL     1      41.940  36.816  59.347  1.00  0.00    -0.206 F 
HETATM   17  C   UNL     1      39.994  34.854  57.102  1.00  0.00     0.020 C 
ENDBRANCH   7  10
BRANCH   5  18
HETATM   18  C   UNL     1      35.785  37.256  52.868  1.00  0.00     0.178 C 
HETATM   19  O   UNL     1      35.390  37.052  51.725  1.00  0.00    -0.648 OA
HETATM   20  O   UNL     1      35.293  38.159  53.566  1.00  0.00    -0.648 OA
ENDBRANCH   5  18
BRANCH   9  21
HETATM   21  P   UNL     1      35.036  32.968  53.319  1.00  0.00     0.291 P 
HETATM   22  O   UNL     1      33.847  32.971  52.428  1.00  0.00    -0.636 OA
HETATM   23  O   UNL     1      34.733  32.148  54.547  1.00  0.00    -0.636 OA
HETATM   24  O   UNL     1      36.386  32.663  52.726  1.00  0.00    -0.636 OA
ENDBRANCH   9  21
TORSDOF 3
ENDMDL
MODEL 4
REMARK VINA RESULT:      -8.3      3.145      4.984
REMARK  3 active torsions:
REMARK  status: ('A' for Active; 'I' for Inactive)
REMARK       I    between atoms: N_12  and  C_22 
REMARK    1  A    between atoms: C_13  and  C_14 
REMARK    2  A    between atoms: P_15  and  C_24 
REMARK    3  A    between atoms: C_17  and  C_22 
ROOT
HETATM    1  O   UNL     1      35.518  33.973  55.455  1.00  0.00    -0.267 OA
HETATM    2  C   UNL     1      33.495  36.393  54.556  1.00  0.00     0.010 C 
HETATM    3  C   UNL     1      34.858  35.673  52.531  1.00  0.00     0.065 C 
HETATM    4  N   UNL     1      35.922  36.165  55.124  1.00  0.00    -0.344 N 
HETATM    5  C   UNL     1      35.799  36.853  52.626  1.00  0.00     0.109 C 
HETATM    6  C   UNL     1      34.616  36.696  55.563  1.00  0.00     0.154 C 
HETATM    7  C   UNL     1      36.287  34.923  55.596  1.00  0.00     0.254 C 
HETATM    8  C   UNL     1      36.563  36.806  53.956  1.00  0.00     0.142 C 
HETATM    9  C   UNL     1      33.706  35.665  53.411  1.00  0.00     0.044 C 
ENDROOT
BRANCH   7  10
HETATM   10  C   UNL     1      37.546  34.703  56.369  1.00  0.00     0.032 C 
HETATM   11  C   UNL     1      37.392  34.155  57.639  1.00  0.00     0.017 C 
HETATM   12  C   UNL     1      38.179  34.113  58.775  1.00  0.00     0.004 C 
HETATM   13  C   UNL     1      39.543  34.320  58.866  1.00  0.00     0.042 C 
HETATM   14  C   UNL     1      40.263  34.951  57.866  1.00  0.00     0.116 C 
HETATM   15  C   UNL     1      39.998  34.890  56.519  1.00  0.00     0.043 C 
HETATM   16  F   UNL     1      41.194  35.824  58.290  1.00  0.00    -0.206 F 
HETATM   17  C   UNL     1      38.811  34.909  55.808  1.00  0.00     0.020 C 
ENDBRANCH   7  10
BRANCH   5  18
HETATM   18  C   UNL     1      34.869  37.984  52.204  1.00  0.00     0.178 C 
HETATM   19  O   UNL     1      34.176  37.908  51.196  1.00  0.00    -0.648 OA
HETATM   20  O   UNL     1      34.901  39.023  52.886  1.00  0.00    -0.648 OA
ENDBRANCH   5  18
BRANCH   9  21
HETATM   21  P   UNL     1      32.811  34.211  53.029  1.00  0.00     0.291 P 
HETATM   22  O   UNL     1      33.645  33.408  52.097  1.00  0.00    -0.636 OA
HETATM   23  O   UNL     1      31.552  34.640  52.321  1.00  0.00    -0.636 OA
HETATM   24  O   UNL     1      32.556  33.681  54.414  1.00  0.00    -0.636 OA
ENDBRANCH   9  21
TORSDOF 3
ENDMDL
MODEL 5
REMARK VINA RESULT:      -7.9      3.940      7.049
REMARK  3 active torsions:
REMARK  status: ('A' for Active; 'I' for Inactive)
REMARK       I    between atoms: N_12  and  C_22 
REMARK    1  A    between atoms: C_13  and  C_14 
REMARK    2  A    between atoms: P_15  and  C_24 
REMARK    3  A    between atoms: C_17  and  C_22 
ROOT
HETATM    1  O   UNL     1      33.987  37.318  56.312  1.00  0.00    -0.267 OA
HETATM    2  C   UNL     1      36.801  38.852  57.011  1.00  0.00     0.010 C 
HETATM    3  C   UNL     1      35.466  40.292  55.393  1.00  0.00     0.065 C 
HETATM    4  N   UNL     1      35.890  37.493  55.118  1.00  0.00    -0.344 N 
HETATM    5  C   UNL     1      36.294  39.883  54.196  1.00  0.00     0.109 C 
HETATM    6  C   UNL     1      36.849  37.524  56.240  1.00  0.00     0.154 C 
HETATM    7  C   UNL     1      34.658  36.924  55.359  1.00  0.00     0.254 C 
HETATM    8  C   UNL     1      36.161  38.372  53.961  1.00  0.00     0.142 C 
HETATM    9  C   UNL     1      35.919  39.857  56.699  1.00  0.00     0.044 C 
ENDROOT
BRANCH   7  10
HETATM   10  C   UNL     1      34.144  35.769  54.565  1.00  0.00     0.032 C 
HETATM   11  C   UNL     1      34.673  34.523  54.890  1.00  0.00     0.017 C 
HETATM   12  C   UNL     1      34.762  33.310  54.233  1.00  0.00     0.004 C 
HETATM   13  C   UNL     1      34.016  32.878  53.152  1.00  0.00     0.042 C 
HETATM   14  C   UNL     1      33.305  33.753  52.347  1.00  0.00     0.116 C 
HETATM   15  C   UNL     1      32.703  34.918  52.757  1.00  0.00     0.043 C 
HETATM   16  F   UNL     1      33.367  33.502  51.027  1.00  0.00    -0.206 F 
HETATM   17  C   UNL     1      33.102  35.905  53.641  1.00  0.00     0.020 C 
ENDBRANCH   7  10
BRANCH   5  18
HETATM   18  C   UNL     1      37.604  40.596  54.508  1.00  0.00     0.178 C 
HETATM   19  O   UNL     1      37.635  41.780  54.828  1.00  0.00    -0.648 OA
HETATM   20  O   UNL     1      38.651  39.946  54.349  1.00  0.00    -0.648 OA
ENDBRANCH   5  18
BRANCH   9  21
HETATM   21  P   UNL     1      34.785  40.521  57.854  1.00  0.00     0.291 P 
HETATM   22  O   UNL     1      33.446  40.530  57.209  1.00  0.00    -0.636 OA
HETATM   23  O   UNL     1      35.211  41.941  58.127  1.00  0.00    -0.636 OA
HETATM   24  O   UNL     1      35.021  39.601  59.021  1.00  0.00    -0.636 OA
ENDBRANCH   9  21
TORSDOF 3
ENDMDL
MODEL 6
REMARK VINA RESULT:      -7.7      3.898      4.786
REMARK  3 active torsions:
REMARK  status: ('A' for Active; 'I' for Inactive)
REMARK       I    between atoms: N_12  and  C_22 
REMARK    1  A    between atoms: C_13  and  C_14 
REMARK    2  A    between atoms: P_15  and  C_24 
REMARK    3  A    between atoms: C_17  and  C_22 
ROOT
HETATM    1  O   UNL     1      36.375  37.007  56.143  1.00  0.00    -0.267 OA
HETATM    2  C   UNL     1      36.314  35.869  53.067  1.00  0.00     0.010 C 
HETATM    3  C   UNL     1      34.677  34.518  54.469  1.00  0.00     0.065 C 
HETATM    4  N   UNL     1      37.334  35.176  55.244  1.00  0.00    -0.344 N 
HETATM    5  C   UNL     1      35.616  33.341  54.604  1.00  0.00     0.109 C 
HETATM    6  C   UNL     1      37.600  35.711  53.893  1.00  0.00     0.154 C 
HETATM    7  C   UNL     1      37.188  36.091  56.264  1.00  0.00     0.254 C 
HETATM    8  C   UNL     1      36.888  33.771  55.348  1.00  0.00     0.142 C 
HETATM    9  C   UNL     1      35.070  35.587  53.572  1.00  0.00     0.044 C 
ENDROOT
BRANCH   7  10
HETATM   10  C   UNL     1      38.053  36.074  57.480  1.00  0.00     0.032 C 
HETATM   11  C   UNL     1      39.426  36.042  57.249  1.00  0.00     0.017 C 
HETATM   12  C   UNL     1      40.525  35.678  58.005  1.00  0.00     0.004 C 
HETATM   13  C   UNL     1      40.603  35.559  59.380  1.00  0.00     0.042 C 
HETATM   14  C   UNL     1      39.476  35.448  60.177  1.00  0.00     0.116 C 
HETATM   15  C   UNL     1      38.256  36.032  59.935  1.00  0.00     0.043 C 
HETATM   16  F   UNL     1      39.563  34.553  61.177  1.00  0.00    -0.206 F 
HETATM   17  C   UNL     1      37.531  36.213  58.770  1.00  0.00     0.020 C 
ENDBRANCH   7  10
BRANCH   5  18
HETATM   18  C   UNL     1      35.591  32.801  53.179  1.00  0.00     0.178 C 
HETATM   19  O   UNL     1      34.541  32.657  52.562  1.00  0.00    -0.648 OA
HETATM   20  O   UNL     1      36.677  32.439  52.695  1.00  0.00    -0.648 OA
ENDBRANCH   5  18
BRANCH   9  21
HETATM   21  P   UNL     1      33.769  36.756  53.609  1.00  0.00     0.291 P 
HETATM   22  O   UNL     1      32.922  36.443  54.790  1.00  0.00    -0.636 OA
HETATM   23  O   UNL     1      32.959  36.558  52.354  1.00  0.00    -0.636 OA
HETATM   24  O   UNL     1      34.559  38.037  53.603  1.00  0.00    -0.636 OA
ENDBRANCH   9  21
TORSDOF 3
ENDMDL
MODEL 7
REMARK VINA RESULT:      -7.7      3.452      4.712
REMARK  3 active torsions:
REMARK  status: ('A' for Active; 'I' for Inactive)
REMARK       I    between atoms: N_12  and  C_22 
REMARK    1  A    between atoms: C_13  and  C_14 
REMARK    2  A    between atoms: P_15  and  C_24 
REMARK    3  A    between atoms: C_17  and  C_22 
ROOT
HETATM    1  O   UNL     1      37.335  36.890  54.635  1.00  0.00    -0.267 OA
HETATM    2  C   UNL     1      35.674  35.353  52.260  1.00  0.00     0.010 C 
HETATM    3  C   UNL     1      34.009  36.438  53.850  1.00  0.00     0.065 C 
HETATM    4  N   UNL     1      36.268  34.904  54.649  1.00  0.00    -0.344 N 
HETATM    5  C   UNL     1      33.687  35.138  54.552  1.00  0.00     0.109 C 
HETATM    6  C   UNL     1      36.508  34.519  53.244  1.00  0.00     0.154 C 
HETATM    7  C   UNL     1      37.136  35.818  55.207  1.00  0.00     0.254 C 
HETATM    8  C   UNL     1      34.948  34.585  55.230  1.00  0.00     0.142 C 
HETATM    9  C   UNL     1      34.846  36.370  52.669  1.00  0.00     0.044 C 
ENDROOT
BRANCH   7  10
HETATM   10  C   UNL     1      37.928  35.518  56.436  1.00  0.00     0.032 C 
HETATM   11  C   UNL     1      37.393  35.985  57.634  1.00  0.00     0.017 C 
HETATM   12  C   UNL     1      37.913  36.243  58.889  1.00  0.00     0.004 C 
HETATM   13  C   UNL     1      39.094  35.767  59.428  1.00  0.00     0.042 C 
HETATM   14  C   UNL     1      40.104  35.238  58.644  1.00  0.00     0.116 C 
HETATM   15  C   UNL     1      39.934  34.535  57.475  1.00  0.00     0.043 C 
HETATM   16  F   UNL     1      41.352  35.599  58.991  1.00  0.00    -0.206 F 
HETATM   17  C   UNL     1      39.067  34.707  56.410  1.00  0.00     0.020 C 
ENDBRANCH   7  10
BRANCH   5  18
HETATM   18  C   UNL     1      32.909  34.418  53.457  1.00  0.00     0.178 C 
HETATM   19  O   UNL     1      31.984  34.958  52.861  1.00  0.00    -0.648 OA
HETATM   20  O   UNL     1      33.203  33.228  53.247  1.00  0.00    -0.648 OA
ENDBRANCH   5  18
BRANCH   9  21
HETATM   21  P   UNL     1      34.992  38.011  52.080  1.00  0.00     0.291 P 
HETATM   22  O   UNL     1      34.931  38.914  53.260  1.00  0.00    -0.636 OA
HETATM   23  O   UNL     1      33.800  38.272  51.195  1.00  0.00    -0.636 OA
HETATM   24  O   UNL     1      36.283  37.908  51.313  1.00  0.00    -0.636 OA
ENDBRANCH   9  21
TORSDOF 3
ENDMDL
MODEL 8
REMARK VINA RESULT:      -7.6      3.195      4.496
REMARK  3 active torsions:
REMARK  status: ('A' for Active; 'I' for Inactive)
REMARK       I    between atoms: N_12  and  C_22 
REMARK    1  A    between atoms: C_13  and  C_14 
REMARK    2  A    between atoms: P_15  and  C_24 
REMARK    3  A    between atoms: C_17  and  C_22 
ROOT
HETATM    1  O   UNL     1      37.982  37.682  56.718  1.00  0.00    -0.267 OA
HETATM    2  C   UNL     1      35.777  35.351  57.399  1.00  0.00     0.010 C 
HETATM    3  C   UNL     1      37.308  34.511  55.548  1.00  0.00     0.065 C 
HETATM    4  N   UNL     1      36.102  37.086  55.626  1.00  0.00    -0.344 N 
HETATM    5  C   UNL     1      36.295  34.779  54.458  1.00  0.00     0.109 C 
HETATM    6  C   UNL     1      35.294  36.677  56.793  1.00  0.00     0.154 C 
HETATM    7  C   UNL     1      37.144  37.957  55.859  1.00  0.00     0.254 C 
HETATM    8  C   UNL     1      35.982  36.280  54.394  1.00  0.00     0.142 C 
HETATM    9  C   UNL     1      36.872  34.673  56.920  1.00  0.00     0.044 C 
ENDROOT
BRANCH   7  10
HETATM   10  C   UNL     1      37.245  39.281  55.175  1.00  0.00     0.032 C 
HETATM   11  C   UNL     1      38.528  39.683  54.815  1.00  0.00     0.017 C 
HETATM   12  C   UNL     1      39.110  40.900  54.511  1.00  0.00     0.004 C 
HETATM   13  C   UNL     1      38.475  42.068  54.131  1.00  0.00     0.042 C 
HETATM   14  C   UNL     1      37.123  42.277  54.344  1.00  0.00     0.116 C 
HETATM   15  C   UNL     1      36.144  41.313  54.323  1.00  0.00     0.043 C 
HETATM   16  F   UNL     1      36.791  43.510  54.768  1.00  0.00    -0.206 F 
HETATM   17  C   UNL     1      36.115  40.014  54.799  1.00  0.00     0.020 C 
ENDBRANCH   7  10
BRANCH   5  18
HETATM   18  C   UNL     1      35.267  33.696  54.763  1.00  0.00     0.178 C 
HETATM   19  O   UNL     1      35.551  32.504  54.711  1.00  0.00    -0.648 OA
HETATM   20  O   UNL     1      34.104  34.071  54.991  1.00  0.00    -0.648 OA
ENDBRANCH   5  18
BRANCH   9  21
HETATM   21  P   UNL     1      38.245  34.253  57.920  1.00  0.00     0.291 P 
HETATM   22  O   UNL     1      38.282  35.217  59.052  1.00  0.00    -0.636 OA
HETATM   23  O   UNL     1      39.480  34.434  57.075  1.00  0.00    -0.636 OA
HETATM   24  O   UNL     1      37.935  32.809  58.209  1.00  0.00    -0.636 OA
ENDBRANCH   9  21
TORSDOF 3
ENDMDL
MODEL 9
REMARK VINA RESULT:      -7.5      3.107      4.066
REMARK  3 active torsions:
REMARK  status: ('A' for Active; 'I' for Inactive)
REMARK       I    between atoms: N_12  and  C_22 
REMARK    1  A    between atoms: C_13  and  C_14 
REMARK    2  A    between atoms: P_15  and  C_24 
REMARK    3  A    between atoms: C_17  and  C_22 
ROOT
HETATM    1  O   UNL     1      33.377  37.901  56.071  1.00  0.00    -0.267 OA
HETATM    2  C   UNL     1      35.014  37.148  53.330  1.00  0.00     0.010 C 
HETATM    3  C   UNL     1      35.724  35.542  55.172  1.00  0.00     0.065 C 
HETATM    4  N   UNL     1      35.498  38.363  55.463  1.00  0.00    -0.344 N 
HETATM    5  C   UNL     1      37.024  36.267  55.434  1.00  0.00     0.109 C 
HETATM    6  C   UNL     1      35.282  38.500  54.009  1.00  0.00     0.154 C 
HETATM    7  C   UNL     1      34.403  38.547  56.281  1.00  0.00     0.254 C 
HETATM    8  C   UNL     1      36.738  37.697  55.912  1.00  0.00     0.142 C 
HETATM    9  C   UNL     1      34.938  35.970  54.031  1.00  0.00     0.044 C 
ENDROOT
BRANCH   7  10
HETATM   10  C   UNL     1      34.378  39.579  57.359  1.00  0.00     0.032 C 
HETATM   11  C   UNL     1      35.151  40.714  57.133  1.00  0.00     0.017 C 
HETATM   12  C   UNL     1      35.686  41.697  57.944  1.00  0.00     0.004 C 
HETATM   13  C   UNL     1      35.302  42.032  59.230  1.00  0.00     0.042 C 
HETATM   14  C   UNL     1      34.548  41.183  60.021  1.00  0.00     0.116 C 
HETATM   15  C   UNL     1      33.588  40.306  59.576  1.00  0.00     0.043 C 
HETATM   16  F   UNL     1      34.923  41.111  61.310  1.00  0.00    -0.206 F 
HETATM   17  C   UNL     1      33.532  39.478  58.468  1.00  0.00     0.020 C 
ENDBRANCH   7  10
BRANCH   5  18
HETATM   18  C   UNL     1      37.796  35.919  54.166  1.00  0.00     0.178 C 
HETATM   19  O   UNL     1      37.978  34.756  53.820  1.00  0.00    -0.648 OA
HETATM   20  O   UNL     1      38.301  36.864  53.537  1.00  0.00    -0.648 OA
ENDBRANCH   5  18
BRANCH   9  21
HETATM   21  P   UNL     1      33.539  34.921  53.981  1.00  0.00     0.291 P 
HETATM   22  O   UNL     1      32.374  35.710  54.457  1.00  0.00    -0.636 OA
HETATM   23  O   UNL     1      33.799  33.791  54.945  1.00  0.00    -0.636 OA
HETATM   24  O   UNL     1      33.581  34.486  52.541  1.00  0.00    -0.636 OA
ENDBRANCH   9  21
TORSDOF 3
ENDMDL
