MODEL 1
REMARK VINA RESULT:     -10.5      0.000      0.000
REMARK  1 active torsions:
REMARK  status: ('A' for Active; 'I' for Inactive)
REMARK    1  A    between atoms: O_3  and  C_15 
ROOT
HETATM    1  C   UNL     1      33.898  33.162  54.227  1.00  0.00     0.108 C 
HETATM    2  C   UNL     1      34.501  35.396  53.340  1.00  0.00     0.093 C 
HETATM    3  C   UNL     1      31.738  34.075  53.585  1.00  0.00     0.248 C 
HETATM    4  O   UNL     1      30.505  33.833  53.739  1.00  0.00    -0.268 OA
HETATM    5  C   UNL     1      38.572  40.762  54.196  1.00  0.00     0.012 C 
HETATM    6  N   UNL     1      32.599  33.425  54.361  1.00  0.00    -0.333 N 
ATOM      7  HN  UNL     1      32.188  33.059  55.220  1.00  0.00     0.168 HD
HETATM    8  C   UNL     1      33.314  35.788  52.691  1.00  0.00     0.149 C 
HETATM    9  C   UNL     1      38.100  41.843  54.955  1.00  0.00     0.001 C 
HETATM   10  C   UNL     1      36.522  39.518  54.739  1.00  0.00    -0.024 C 
HETATM   11  N   UNL     1      35.704  36.057  53.502  1.00  0.00    -0.304 N 
HETATM   12  C   UNL     1      36.978  41.680  55.782  1.00  0.00     0.001 C 
HETATM   13  C   UNL     1      36.141  33.866  53.371  1.00  0.00     0.106 C 
HETATM   14  C   UNL     1      37.871  39.538  54.224  1.00  0.00    -0.025 C 
HETATM   15  C   UNL     1      35.647  38.477  54.359  1.00  0.00     0.043 C 
HETATM   16  F   UNL     1      33.307  36.961  52.058  1.00  0.00    -0.203 F 
HETATM   17  C   UNL     1      36.722  35.140  53.398  1.00  0.00     0.075 C 
HETATM   18  C   UNL     1      37.929  35.790  53.523  1.00  0.00     0.046 C 
HETATM   19  C   UNL     1      36.151  40.550  55.625  1.00  0.00     0.012 C 
HETATM   20  C   UNL     1      37.633  37.182  53.728  1.00  0.00    -0.006 C 
HETATM   21  C   UNL     1      38.453  38.319  53.813  1.00  0.00     0.026 C 
HETATM   22  C   UNL     1      34.775  34.053  53.621  1.00  0.00     0.045 C 
HETATM   23  C   UNL     1      32.154  35.048  52.667  1.00  0.00     0.119 C 
HETATM   24  C   UNL     1      36.220  37.295  53.866  1.00  0.00     0.051 C 
ENDROOT
BRANCH  13  25
HETATM   25  O   UNL     1      36.755  32.705  52.952  1.00  0.00    -0.357 OA
ATOM     26  HO  UNL     1      36.700  31.859  53.380  1.00  0.00     0.217 HD
ENDBRANCH  13  25
TORSDOF 1
ENDMDL
MODEL 2
REMARK VINA RESULT:      -9.3      3.540      6.775
REMARK  1 active torsions:
REMARK  status: ('A' for Active; 'I' for Inactive)
REMARK    1  A    between atoms: O_3  and  C_15 
ROOT
HETATM    1  C   UNL     1      37.148  41.661  55.438  1.00  0.00     0.108 C 
HETATM    2  C   UNL     1      36.428  39.299  55.646  1.00  0.00     0.093 C 
HETATM    3  C   UNL     1      35.877  41.678  57.510  1.00  0.00     0.248 C 
HETATM    4  O   UNL     1      35.370  42.505  58.324  1.00  0.00    -0.268 OA
HETATM    5  C   UNL     1      34.244  33.870  52.204  1.00  0.00     0.012 C 
HETATM    6  N   UNL     1      36.281  42.137  56.330  1.00  0.00    -0.333 N 
ATOM      7  HN  UNL     1      35.847  43.019  56.058  1.00  0.00     0.168 HD
HETATM    8  C   UNL     1      35.971  39.244  56.976  1.00  0.00     0.149 C 
HETATM    9  C   UNL     1      32.861  33.664  52.089  1.00  0.00     0.001 C 
HETATM   10  C   UNL     1      33.808  36.006  53.339  1.00  0.00    -0.024 C 
HETATM   11  N   UNL     1      36.459  38.332  54.659  1.00  0.00    -0.304 N 
HETATM   12  C   UNL     1      31.972  34.712  52.377  1.00  0.00     0.001 C 
HETATM   13  C   UNL     1      38.218  39.679  54.348  1.00  0.00     0.106 C 
HETATM   14  C   UNL     1      34.723  35.112  52.671  1.00  0.00    -0.025 C 
HETATM   15  C   UNL     1      34.312  36.994  54.212  1.00  0.00     0.043 C 
HETATM   16  F   UNL     1      35.535  38.073  57.439  1.00  0.00    -0.203 F 
HETATM   17  C   UNL     1      37.617  38.483  53.935  1.00  0.00     0.075 C 
HETATM   18  C   UNL     1      37.678  37.504  52.970  1.00  0.00     0.046 C 
HETATM   19  C   UNL     1      32.433  35.852  53.064  1.00  0.00     0.012 C 
HETATM   20  C   UNL     1      36.482  36.716  53.101  1.00  0.00    -0.006 C 
HETATM   21  C   UNL     1      36.053  35.539  52.468  1.00  0.00     0.026 C 
HETATM   22  C   UNL     1      37.304  40.299  55.211  1.00  0.00     0.045 C 
HETATM   23  C   UNL     1      35.937  40.317  57.837  1.00  0.00     0.119 C 
HETATM   24  C   UNL     1      35.661  37.357  54.071  1.00  0.00     0.051 C 
ENDROOT
BRANCH  13  25
HETATM   25  O   UNL     1      39.529  40.044  54.128  1.00  0.00    -0.357 OA
ATOM     26  HO  UNL     1      40.272  39.810  54.671  1.00  0.00     0.217 HD
ENDBRANCH  13  25
TORSDOF 1
ENDMDL
MODEL 3
REMARK VINA RESULT:      -9.0      3.179      6.770
REMARK  1 active torsions:
REMARK  status: ('A' for Active; 'I' for Inactive)
REMARK    1  A    between atoms: O_3  and  C_15 
ROOT
HETATM    1  C   UNL     1      38.889  40.072  54.284  1.00  0.00     0.108 C 
HETATM    2  C   UNL     1      36.834  38.891  55.005  1.00  0.00     0.093 C 
HETATM    3  C   UNL     1      37.276  41.882  54.463  1.00  0.00     0.248 C 
HETATM    4  O   UNL     1      37.153  43.099  54.138  1.00  0.00    -0.268 OA
HETATM    5  C   UNL     1      33.159  33.234  54.233  1.00  0.00     0.012 C 
HETATM    6  N   UNL     1      38.270  41.191  53.913  1.00  0.00    -0.333 N 
ATOM      7  HN  UNL     1      38.623  41.593  53.045  1.00  0.00     0.168 HD
HETATM    8  C   UNL     1      36.004  39.955  55.405  1.00  0.00     0.149 C 
HETATM    9  C   UNL     1      32.119  33.237  53.293  1.00  0.00     0.001 C 
HETATM   10  C   UNL     1      33.792  35.495  53.506  1.00  0.00    -0.024 C 
HETATM   11  N   UNL     1      36.603  37.528  54.968  1.00  0.00    -0.304 N 
HETATM   12  C   UNL     1      32.061  34.245  52.318  1.00  0.00     0.001 C 
HETATM   13  C   UNL     1      38.774  37.840  55.410  1.00  0.00     0.106 C 
HETATM   14  C   UNL     1      34.102  34.284  54.227  1.00  0.00    -0.025 C 
HETATM   15  C   UNL     1      34.445  36.698  53.851  1.00  0.00     0.043 C 
HETATM   16  F   UNL     1      34.801  39.659  55.895  1.00  0.00    -0.203 F 
HETATM   17  C   UNL     1      37.758  36.880  55.336  1.00  0.00     0.075 C 
HETATM   18  C   UNL     1      37.533  35.522  55.339  1.00  0.00     0.046 C 
HETATM   19  C   UNL     1      32.847  35.405  52.462  1.00  0.00     0.012 C 
HETATM   20  C   UNL     1      36.166  35.327  54.935  1.00  0.00    -0.006 C 
HETATM   21  C   UNL     1      35.360  34.180  54.859  1.00  0.00     0.026 C 
HETATM   22  C   UNL     1      38.223  39.033  54.922  1.00  0.00     0.045 C 
HETATM   23  C   UNL     1      36.345  41.286  55.322  1.00  0.00     0.119 C 
HETATM   24  C   UNL     1      35.653  36.600  54.558  1.00  0.00     0.051 C 
ENDROOT
BRANCH  13  25
HETATM   25  O   UNL     1      39.987  37.688  56.049  1.00  0.00    -0.357 OA
ATOM     26  HO  UNL     1      40.315  38.227  56.759  1.00  0.00     0.217 HD
ENDBRANCH  13  25
TORSDOF 1
ENDMDL
MODEL 4
REMARK VINA RESULT:      -8.7      3.926      6.884
REMARK  1 active torsions:
REMARK  status: ('A' for Active; 'I' for Inactive)
REMARK    1  A    between atoms: O_3  and  C_15 
ROOT
HETATM    1  C   UNL     1      36.039  42.044  56.914  1.00  0.00     0.108 C 
HETATM    2  C   UNL     1      36.072  39.583  56.621  1.00  0.00     0.093 C 
HETATM    3  C   UNL     1      35.039  41.253  58.985  1.00  0.00     0.248 C 
HETATM    4  O   UNL     1      34.398  41.703  59.979  1.00  0.00    -0.268 OA
HETATM    5  C   UNL     1      35.241  34.544  52.148  1.00  0.00     0.012 C 
HETATM    6  N   UNL     1      35.167  42.040  57.921  1.00  0.00    -0.333 N 
ATOM      7  HN  UNL     1      34.467  42.780  57.867  1.00  0.00     0.168 HD
HETATM    8  C   UNL     1      35.791  39.125  57.923  1.00  0.00     0.149 C 
HETATM    9  C   UNL     1      33.976  33.947  52.042  1.00  0.00     0.001 C 
HETATM   10  C   UNL     1      34.315  36.169  53.743  1.00  0.00    -0.024 C 
HETATM   11  N   UNL     1      36.284  38.890  55.445  1.00  0.00    -0.304 N 
HETATM   12  C   UNL     1      32.853  34.589  52.587  1.00  0.00     0.001 C 
HETATM   13  C   UNL     1      37.527  40.749  55.374  1.00  0.00     0.106 C 
HETATM   14  C   UNL     1      35.379  35.754  52.860  1.00  0.00    -0.025 C 
HETATM   15  C   UNL     1      34.593  37.070  54.793  1.00  0.00     0.043 C 
HETATM   16  F   UNL     1      35.769  37.809  58.131  1.00  0.00    -0.203 F 
HETATM   17  C   UNL     1      37.266  39.533  54.730  1.00  0.00     0.075 C 
HETATM   18  C   UNL     1      37.513  38.834  53.571  1.00  0.00     0.046 C 
HETATM   19  C   UNL     1      33.026  35.655  53.491  1.00  0.00     0.012 C 
HETATM   20  C   UNL     1      36.622  37.705  53.569  1.00  0.00    -0.006 C 
HETATM   21  C   UNL     1      36.496  36.603  52.707  1.00  0.00     0.026 C 
HETATM   22  C   UNL     1      36.565  40.871  56.386  1.00  0.00     0.045 C 
HETATM   23  C   UNL     1      35.531  39.942  59.000  1.00  0.00     0.119 C 
HETATM   24  C   UNL     1      35.753  37.853  54.686  1.00  0.00     0.051 C 
ENDROOT
BRANCH  13  25
HETATM   25  O   UNL     1      38.643  41.538  55.191  1.00  0.00    -0.357 OA
ATOM     26  HO  UNL     1      38.891  42.285  55.723  1.00  0.00     0.217 HD
ENDBRANCH  13  25
TORSDOF 1
ENDMDL
MODEL 5
REMARK VINA RESULT:      -8.6      2.614      3.648
REMARK  1 active torsions:
REMARK  status: ('A' for Active; 'I' for Inactive)
REMARK    1  A    between atoms: O_3  and  C_15 
ROOT
HETATM    1  C   UNL     1      35.927  35.074  52.583  1.00  0.00     0.108 C 
HETATM    2  C   UNL     1      34.685  36.669  54.017  1.00  0.00     0.093 C 
HETATM    3  C   UNL     1      34.055  33.734  53.363  1.00  0.00     0.248 C 
HETATM    4  O   UNL     1      33.682  32.525  53.396  1.00  0.00    -0.268 OA
HETATM    5  C   UNL     1      35.339  41.701  58.527  1.00  0.00     0.012 C 
HETATM    6  N   UNL     1      35.323  33.984  53.052  1.00  0.00    -0.333 N 
ATOM      7  HN  UNL     1      35.949  33.193  53.200  1.00  0.00     0.168 HD
HETATM    8  C   UNL     1      33.460  36.003  54.210  1.00  0.00     0.149 C 
HETATM    9  C   UNL     1      35.329  41.379  59.893  1.00  0.00     0.001 C 
HETATM   10  C   UNL     1      35.258  39.305  57.986  1.00  0.00    -0.024 C 
HETATM   11  N   UNL     1      35.144  37.879  54.503  1.00  0.00    -0.304 N 
HETATM   12  C   UNL     1      35.519  40.049  60.299  1.00  0.00     0.001 C 
HETATM   13  C   UNL     1      36.047  37.572  52.479  1.00  0.00     0.106 C 
HETATM   14  C   UNL     1      35.477  40.671  57.574  1.00  0.00    -0.025 C 
HETATM   15  C   UNL     1      34.919  38.331  57.021  1.00  0.00     0.043 C 
HETATM   16  F   UNL     1      32.521  36.619  54.927  1.00  0.00    -0.203 F 
HETATM   17  C   UNL     1      35.879  38.494  53.519  1.00  0.00     0.075 C 
HETATM   18  C   UNL     1      36.313  39.717  53.977  1.00  0.00     0.046 C 
HETATM   19  C   UNL     1      35.414  39.008  59.356  1.00  0.00     0.012 C 
HETATM   20  C   UNL     1      35.828  39.853  55.324  1.00  0.00    -0.006 C 
HETATM   21  C   UNL     1      35.870  40.916  56.240  1.00  0.00     0.026 C 
HETATM   22  C   UNL     1      35.531  36.355  52.947  1.00  0.00     0.045 C 
HETATM   23  C   UNL     1      33.162  34.755  53.713  1.00  0.00     0.119 C 
HETATM   24  C   UNL     1      35.228  38.612  55.681  1.00  0.00     0.051 C 
ENDROOT
BRANCH  13  25
HETATM   25  O   UNL     1      36.427  37.868  51.187  1.00  0.00    -0.357 OA
ATOM     26  HO  UNL     1      35.856  37.889  50.429  1.00  0.00     0.217 HD
ENDBRANCH  13  25
TORSDOF 1
ENDMDL
MODEL 6
REMARK VINA RESULT:      -8.1      3.793      5.032
REMARK  1 active torsions:
REMARK  status: ('A' for Active; 'I' for Inactive)
REMARK    1  A    between atoms: O_3  and  C_15 
ROOT
HETATM    1  C   UNL     1      33.789  36.168  53.077  1.00  0.00     0.108 C 
HETATM    2  C   UNL     1      35.079  34.964  54.816  1.00  0.00     0.093 C 
HETATM    3  C   UNL     1      34.060  33.960  52.097  1.00  0.00     0.248 C 
HETATM    4  O   UNL     1      33.912  33.373  50.985  1.00  0.00    -0.268 OA
HETATM    5  C   UNL     1      40.050  35.555  59.403  1.00  0.00     0.012 C 
HETATM    6  N   UNL     1      34.031  35.289  52.106  1.00  0.00    -0.333 N 
ATOM      7  HN  UNL     1      34.232  35.713  51.202  1.00  0.00     0.168 HD
HETATM    8  C   UNL     1      34.965  33.625  54.397  1.00  0.00     0.149 C 
HETATM    9  C   UNL     1      41.353  35.195  59.025  1.00  0.00     0.001 C 
HETATM   10  C   UNL     1      39.297  35.152  57.098  1.00  0.00    -0.024 C 
HETATM   11  N   UNL     1      35.751  35.522  55.887  1.00  0.00    -0.304 N 
HETATM   12  C   UNL     1      41.671  35.047  57.666  1.00  0.00     0.001 C 
HETATM   13  C   UNL     1      33.929  36.763  55.504  1.00  0.00     0.106 C 
HETATM   14  C   UNL     1      39.058  35.701  58.411  1.00  0.00    -0.025 C 
HETATM   15  C   UNL     1      38.203  34.854  56.257  1.00  0.00     0.043 C 
HETATM   16  F   UNL     1      35.531  32.684  55.152  1.00  0.00    -0.203 F 
HETATM   17  C   UNL     1      34.990  36.550  56.391  1.00  0.00     0.075 C 
HETATM   18  C   UNL     1      35.631  37.094  57.482  1.00  0.00     0.046 C 
HETATM   19  C   UNL     1      40.640  34.956  56.712  1.00  0.00     0.012 C 
HETATM   20  C   UNL     1      36.861  36.366  57.647  1.00  0.00    -0.006 C 
HETATM   21  C   UNL     1      37.855  36.406  58.637  1.00  0.00     0.026 C 
HETATM   22  C   UNL     1      34.177  35.946  54.392  1.00  0.00     0.045 C 
HETATM   23  C   UNL     1      34.312  33.215  53.257  1.00  0.00     0.119 C 
HETATM   24  C   UNL     1      36.981  35.487  56.534  1.00  0.00     0.051 C 
ENDROOT
BRANCH  13  25
HETATM   25  O   UNL     1      32.770  37.457  55.779  1.00  0.00    -0.357 OA
ATOM     26  HO  UNL     1      32.228  37.353  56.552  1.00  0.00     0.217 HD
ENDBRANCH  13  25
TORSDOF 1
ENDMDL
MODEL 7
REMARK VINA RESULT:      -7.9      4.111      4.787
REMARK  1 active torsions:
REMARK  status: ('A' for Active; 'I' for Inactive)
REMARK    1  A    between atoms: O_3  and  C_15 
ROOT
HETATM    1  C   UNL     1      34.700  35.560  52.549  1.00  0.00     0.108 C 
HETATM    2  C   UNL     1      36.077  36.565  54.347  1.00  0.00     0.093 C 
HETATM    3  C   UNL     1      34.535  37.939  52.073  1.00  0.00     0.248 C 
HETATM    4  O   UNL     1      33.857  38.734  51.358  1.00  0.00    -0.268 OA
HETATM    5  C   UNL     1      37.763  36.127  60.909  1.00  0.00     0.012 C 
HETATM    6  N   UNL     1      34.089  36.694  52.208  1.00  0.00    -0.333 N 
ATOM      7  HN  UNL     1      33.094  36.587  52.015  1.00  0.00     0.168 HD
HETATM    8  C   UNL     1      36.237  37.889  53.895  1.00  0.00     0.149 C 
HETATM    9  C   UNL     1      37.048  36.900  61.835  1.00  0.00     0.001 C 
HETATM   10  C   UNL     1      36.254  36.903  59.131  1.00  0.00    -0.024 C 
HETATM   11  N   UNL     1      36.520  35.944  55.500  1.00  0.00    -0.304 N 
HETATM   12  C   UNL     1      35.821  37.474  61.467  1.00  0.00     0.001 C 
HETATM   13  C   UNL     1      36.491  34.413  53.868  1.00  0.00     0.106 C 
HETATM   14  C   UNL     1      37.270  35.988  59.595  1.00  0.00    -0.025 C 
HETATM   15  C   UNL     1      36.084  37.112  57.746  1.00  0.00     0.043 C 
HETATM   16  F   UNL     1      36.978  38.716  54.631  1.00  0.00    -0.203 F 
HETATM   17  C   UNL     1      36.892  34.659  55.187  1.00  0.00     0.075 C 
HETATM   18  C   UNL     1      37.369  34.038  56.319  1.00  0.00     0.046 C 
HETATM   19  C   UNL     1      35.458  37.537  60.108  1.00  0.00     0.012 C 
HETATM   20  C   UNL     1      37.270  34.993  57.390  1.00  0.00    -0.006 C 
HETATM   21  C   UNL     1      37.696  34.959  58.727  1.00  0.00     0.026 C 
HETATM   22  C   UNL     1      35.736  35.527  53.474  1.00  0.00     0.045 C 
HETATM   23  C   UNL     1      35.676  38.395  52.745  1.00  0.00     0.119 C 
HETATM   24  C   UNL     1      36.587  36.132  56.876  1.00  0.00     0.051 C 
ENDROOT
BRANCH  13  25
HETATM   25  O   UNL     1      36.946  33.393  53.060  1.00  0.00    -0.357 OA
ATOM     26  HO  UNL     1      36.548  32.536  52.966  1.00  0.00     0.217 HD
ENDBRANCH  13  25
TORSDOF 1
ENDMDL
MODEL 8
REMARK VINA RESULT:      -7.9      4.605      6.606
REMARK  1 active torsions:
REMARK  status: ('A' for Active; 'I' for Inactive)
REMARK    1  A    between atoms: O_3  and  C_15 
ROOT
HETATM    1  C   UNL     1      35.422  39.801  54.114  1.00  0.00     0.108 C 
HETATM    2  C   UNL     1      37.281  38.405  54.971  1.00  0.00     0.093 C 
HETATM    3  C   UNL     1      37.187  41.435  54.471  1.00  0.00     0.248 C 
HETATM    4  O   UNL     1      37.343  42.690  54.521  1.00  0.00    -0.268 OA
HETATM    5  C   UNL     1      38.843  33.127  58.946  1.00  0.00     0.012 C 
HETATM    6  N   UNL     1      35.945  40.963  54.503  1.00  0.00    -0.333 N 
ATOM      7  HN  UNL     1      35.266  41.611  54.901  1.00  0.00     0.168 HD
HETATM    8  C   UNL     1      38.379  39.283  54.880  1.00  0.00     0.149 C 
HETATM    9  C   UNL     1      39.200  33.378  60.279  1.00  0.00     0.001 C 
HETATM   10  C   UNL     1      38.356  35.519  58.651  1.00  0.00    -0.024 C 
HETATM   11  N   UNL     1      37.197  37.108  55.441  1.00  0.00    -0.304 N 
HETATM   12  C   UNL     1      38.916  34.626  60.856  1.00  0.00     0.001 C 
HETATM   13  C   UNL     1      35.701  37.335  53.793  1.00  0.00     0.106 C 
HETATM   14  C   UNL     1      38.259  34.158  58.180  1.00  0.00    -0.025 C 
HETATM   15  C   UNL     1      38.226  36.585  57.735  1.00  0.00     0.043 C 
HETATM   16  F   UNL     1      39.577  38.824  55.239  1.00  0.00    -0.203 F 
HETATM   17  C   UNL     1      36.320  36.412  54.644  1.00  0.00     0.075 C 
HETATM   18  C   UNL     1      36.253  35.107  55.078  1.00  0.00     0.046 C 
HETATM   19  C   UNL     1      38.562  35.713  60.033  1.00  0.00     0.012 C 
HETATM   20  C   UNL     1      37.129  35.002  56.215  1.00  0.00    -0.006 C 
HETATM   21  C   UNL     1      37.539  33.907  56.992  1.00  0.00     0.026 C 
HETATM   22  C   UNL     1      36.118  38.603  54.220  1.00  0.00     0.045 C 
HETATM   23  C   UNL     1      38.302  40.588  54.451  1.00  0.00     0.119 C 
HETATM   24  C   UNL     1      37.589  36.316  56.514  1.00  0.00     0.051 C 
ENDROOT
BRANCH  13  25
HETATM   25  O   UNL     1      35.013  37.035  52.636  1.00  0.00    -0.357 OA
ATOM     26  HO  UNL     1      34.173  37.394  52.378  1.00  0.00     0.217 HD
ENDBRANCH  13  25
TORSDOF 1
ENDMDL
MODEL 9
REMARK VINA RESULT:      -7.8      4.354      6.896
REMARK  1 active torsions:
REMARK  status: ('A' for Active; 'I' for Inactive)
REMARK    1  A    between atoms: O_3  and  C_15 
ROOT
HETATM    1  C   UNL     1      34.434  40.702  58.861  1.00  0.00     0.108 C 
HETATM    2  C   UNL     1      35.450  38.745  57.730  1.00  0.00     0.093 C 
HETATM    3  C   UNL     1      34.581  39.071  60.659  1.00  0.00     0.248 C 
HETATM    4  O   UNL     1      34.151  38.893  61.836  1.00  0.00    -0.268 OA
HETATM    5  C   UNL     1      35.570  35.143  51.977  1.00  0.00     0.012 C 
HETATM    6  N   UNL     1      34.013  40.027  59.930  1.00  0.00    -0.333 N 
ATOM      7  HN  UNL     1      33.082  40.293  60.248  1.00  0.00     0.168 HD
HETATM    8  C   UNL     1      35.818  37.931  58.818  1.00  0.00     0.149 C 
HETATM    9  C   UNL     1      34.731  34.023  51.873  1.00  0.00     0.001 C 
HETATM   10  C   UNL     1      34.571  35.658  54.163  1.00  0.00    -0.024 C 
HETATM   11  N   UNL     1      35.568  38.543  56.368  1.00  0.00    -0.304 N 
HETATM   12  C   UNL     1      33.672  33.856  52.778  1.00  0.00     0.001 C 
HETATM   13  C   UNL     1      35.778  40.737  56.751  1.00  0.00     0.106 C 
HETATM   14  C   UNL     1      35.376  36.057  53.033  1.00  0.00    -0.025 C 
HETATM   15  C   UNL     1      34.736  36.312  55.403  1.00  0.00     0.043 C 
HETATM   16  F   UNL     1      36.441  36.783  58.556  1.00  0.00    -0.203 F 
HETATM   17  C   UNL     1      35.891  39.740  55.775  1.00  0.00     0.075 C 
HETATM   18  C   UNL     1      36.046  39.546  54.421  1.00  0.00     0.046 C 
HETATM   19  C   UNL     1      33.631  34.627  53.957  1.00  0.00     0.012 C 
HETATM   20  C   UNL     1      35.789  38.153  54.168  1.00  0.00    -0.006 C 
HETATM   21  C   UNL     1      35.898  37.369  53.009  1.00  0.00     0.026 C 
HETATM   22  C   UNL     1      35.228  40.118  57.882  1.00  0.00     0.045 C 
HETATM   23  C   UNL     1      35.575  38.233  60.139  1.00  0.00     0.119 C 
HETATM   24  C   UNL     1      35.338  37.581  55.391  1.00  0.00     0.051 C 
ENDROOT
BRANCH  13  25
HETATM   25  O   UNL     1      36.317  42.004  56.679  1.00  0.00    -0.357 OA
ATOM     26  HO  UNL     1      37.230  42.230  56.805  1.00  0.00     0.217 HD
ENDBRANCH  13  25
TORSDOF 1
ENDMDL
