MODEL 1
REMARK VINA RESULT:     -11.0      0.000      0.000
REMARK  13 active torsions:
REMARK  status: ('A' for Active; 'I' for Inactive)
REMARK    1  A    between atoms: C_1  and  C_5 
REMARK    2  A    between atoms: N_2  and  C_22 
REMARK    3  A    between atoms: C_5  and  C_34 
REMARK    4  A    between atoms: C_7  and  C_22 
REMARK    5  A    between atoms: C_10  and  C_33 
REMARK    6  A    between atoms: C_16  and  C_27 
REMARK    7  A    between atoms: C_16  and  C_39 
REMARK    8  A    between atoms: C_17  and  O_37 
REMARK    9  A    between atoms: N_23  and  C_34 
REMARK   10  A    between atoms: C_25  and  C_29 
REMARK   11  A    between atoms: C_25  and  C_36 
REMARK   12  A    between atoms: C_27  and  C_29 
REMARK   13  A    between atoms: C_31  and  C_39 
ROOT
HETATM    1  C   UNL     1     -15.946   7.575  -4.017  1.00  0.00     0.079 C 
HETATM    2  N   UNL     1     -15.578   7.004  -2.875  1.00  0.00    -0.379 N 
ATOM      3  HN  UNL     1     -14.599   6.989  -2.592  1.00  0.00     0.160 HD
ENDROOT
BRANCH   1   4
HETATM    4  N   UNL     1     -16.483   8.757  -4.033  1.00  0.00    -0.388 N 
ATOM      5  HN2 UNL     1     -16.568   9.285  -4.902  1.00  0.00     0.157 HD
ATOM      6  HN1 UNL     1     -16.900   9.142  -3.185  1.00  0.00     0.157 HD
ENDBRANCH   1   4
BRANCH   1   7
HETATM    7  C   UNL     1     -15.624   6.877  -5.304  1.00  0.00     0.014 C 
HETATM    8  C   UNL     1     -14.726   5.665  -5.141  1.00  0.00     0.021 C 
HETATM    9  C   UNL     1     -15.047   4.744  -6.330  1.00  0.00    -0.013 C 
HETATM   10  C   UNL     1     -16.472   5.091  -6.737  1.00  0.00     0.006 C 
HETATM   11  C   UNL     1     -16.858   6.393  -6.037  1.00  0.00     0.017 C 
HETATM   12  C   UNL     1     -14.904   7.915  -6.179  1.00  0.00     0.023 C 
BRANCH   9  13
HETATM   13  C   UNL     1     -14.048   5.074  -7.440  1.00  0.00     0.005 C 
BRANCH  13  14
HETATM   14  C   UNL     1     -13.377   3.937  -8.191  1.00  0.00     0.000 C 
BRANCH  14  15
HETATM   15  C   UNL     1     -12.821   2.899  -7.216  1.00  0.00     0.000 C 
BRANCH  15  16
HETATM   16  C   UNL     1     -11.537   3.361  -6.548  1.00  0.00     0.005 C 
BRANCH  16  17
HETATM   17  C   UNL     1     -10.232   2.842  -7.103  1.00  0.00     0.038 C 
BRANCH  17  18
HETATM   18  C   UNL     1      -9.951   1.415  -6.679  1.00  0.00    -0.058 C 
HETATM   19  C   UNL     1      -9.793   1.084  -5.340  1.00  0.00     0.007 C 
HETATM   20  C   UNL     1      -9.300  -0.164  -4.972  1.00  0.00     0.001 C 
HETATM   21  C   UNL     1      -9.016  -1.110  -5.954  1.00  0.00     0.000 C 
HETATM   22  C   UNL     1      -9.321  -0.840  -7.286  1.00  0.00     0.001 C 
HETATM   23  C   UNL     1      -9.869   0.397  -7.633  1.00  0.00     0.007 C 
ENDBRANCH  17  18
ENDBRANCH  16  17
ENDBRANCH  15  16
ENDBRANCH  14  15
ENDBRANCH  13  14
ENDBRANCH   9  13
ENDBRANCH   1   7
BRANCH   2  24
HETATM   24  C   UNL     1     -16.615   6.391  -2.026  1.00  0.00     0.127 C 
BRANCH  24  25
HETATM   25  C   UNL     1     -16.075   6.334  -0.614  1.00  0.00     0.080 C 
BRANCH  25  26
HETATM   26  C   UNL     1     -16.096   7.591   0.205  1.00  0.00     0.060 C 
HETATM   27  N   UNL     1     -15.747   7.550   1.498  1.00  0.00    -0.346 N 
HETATM   28  C   UNL     1     -16.391   8.427   2.274  1.00  0.00     0.084 C 
ATOM     29  HN  UNL     1     -15.046   6.903   1.860  1.00  0.00     0.167 HD
HETATM   30  N   UNL     1     -17.627   8.976   1.930  1.00  0.00    -0.372 N 
HETATM   31  C   UNL     1     -17.802   9.386   0.522  1.00  0.00     0.206 C 
ATOM     32  HN  UNL     1     -18.372   9.088   2.616  1.00  0.00     0.161 HD
HETATM   33  C   UNL     1     -16.615   8.899  -0.270  1.00  0.00     0.189 C 
HETATM   34  O   UNL     1     -16.054   9.609  -1.127  1.00  0.00    -0.289 OA
BRANCH  28  35
HETATM   35  C   UNL     1     -15.685   9.031   3.426  1.00  0.00     0.082 C 
HETATM   36  C   UNL     1     -16.352  10.086   4.247  1.00  0.00     0.015 C 
HETATM   37  C   UNL     1     -15.893   9.928   5.674  1.00  0.00     0.003 C 
HETATM   38  C   UNL     1     -14.857   8.830   5.678  1.00  0.00     0.032 C 
HETATM   39  C   UNL     1     -15.274   8.048   4.470  1.00  0.00     0.129 C 
BRANCH  39  40
HETATM   40  O   UNL     1     -14.583   6.947   4.028  1.00  0.00    -0.395 OA
ATOM     41  HO  UNL     1     -14.919   6.062   4.115  1.00  0.00     0.210 HD
ENDBRANCH  39  40
ENDBRANCH  28  35
ENDBRANCH  25  26
ENDBRANCH  24  25
ENDBRANCH   2  24
TORSDOF 13
ENDMDL
MODEL 2
REMARK VINA RESULT:     -10.5      4.090     10.328
REMARK  13 active torsions:
REMARK  status: ('A' for Active; 'I' for Inactive)
REMARK    1  A    between atoms: C_1  and  C_5 
REMARK    2  A    between atoms: N_2  and  C_22 
REMARK    3  A    between atoms: C_5  and  C_34 
REMARK    4  A    between atoms: C_7  and  C_22 
REMARK    5  A    between atoms: C_10  and  C_33 
REMARK    6  A    between atoms: C_16  and  C_27 
REMARK    7  A    between atoms: C_16  and  C_39 
REMARK    8  A    between atoms: C_17  and  O_37 
REMARK    9  A    between atoms: N_23  and  C_34 
REMARK   10  A    between atoms: C_25  and  C_29 
REMARK   11  A    between atoms: C_25  and  C_36 
REMARK   12  A    between atoms: C_27  and  C_29 
REMARK   13  A    between atoms: C_31  and  C_39 
ROOT
HETATM    1  C   UNL     1     -16.521   2.819  -4.673  1.00  0.00     0.079 C 
HETATM    2  N   UNL     1     -15.490   2.086  -5.080  1.00  0.00    -0.379 N 
ATOM      3  HN  UNL     1     -14.615   2.084  -4.557  1.00  0.00     0.160 HD
ENDROOT
BRANCH   1   4
HETATM    4  N   UNL     1     -17.523   2.279  -4.047  1.00  0.00    -0.388 N 
ATOM      5  HN2 UNL     1     -18.215   1.718  -4.544  1.00  0.00     0.157 HD
ATOM      6  HN1 UNL     1     -17.587   2.346  -3.031  1.00  0.00     0.157 HD
ENDBRANCH   1   4
BRANCH   1   7
HETATM    7  C   UNL     1     -16.457   4.306  -4.849  1.00  0.00     0.014 C 
HETATM    8  C   UNL     1     -16.609   4.765  -6.287  1.00  0.00     0.021 C 
HETATM    9  C   UNL     1     -17.182   6.190  -6.213  1.00  0.00    -0.013 C 
HETATM   10  C   UNL     1     -17.923   6.259  -4.885  1.00  0.00     0.006 C 
HETATM   11  C   UNL     1     -17.521   5.039  -4.058  1.00  0.00     0.017 C 
HETATM   12  C   UNL     1     -15.075   4.733  -4.333  1.00  0.00     0.023 C 
BRANCH   9  13
HETATM   13  C   UNL     1     -15.999   7.157  -6.249  1.00  0.00     0.005 C 
BRANCH  13  14
HETATM   14  C   UNL     1     -16.149   8.532  -5.624  1.00  0.00     0.000 C 
BRANCH  14  15
HETATM   15  C   UNL     1     -15.567   8.550  -4.210  1.00  0.00     0.000 C 
BRANCH  15  16
HETATM   16  C   UNL     1     -16.633   8.744  -3.146  1.00  0.00     0.005 C 
BRANCH  16  17
HETATM   17  C   UNL     1     -16.259   9.533  -1.914  1.00  0.00     0.038 C 
BRANCH  17  18
HETATM   18  C   UNL     1     -16.412   8.722  -0.642  1.00  0.00    -0.058 C 
HETATM   19  C   UNL     1     -16.474   7.336  -0.681  1.00  0.00     0.007 C 
HETATM   20  C   UNL     1     -16.853   6.612   0.446  1.00  0.00     0.001 C 
HETATM   21  C   UNL     1     -17.120   7.282   1.638  1.00  0.00     0.000 C 
HETATM   22  C   UNL     1     -16.908   8.656   1.724  1.00  0.00     0.001 C 
HETATM   23  C   UNL     1     -16.470   9.360   0.600  1.00  0.00     0.007 C 
ENDBRANCH  17  18
ENDBRANCH  16  17
ENDBRANCH  15  16
ENDBRANCH  14  15
ENDBRANCH  13  14
ENDBRANCH   9  13
ENDBRANCH   1   7
BRANCH   2  24
HETATM   24  C   UNL     1     -15.637   1.276  -6.302  1.00  0.00     0.127 C 
BRANCH  24  25
HETATM   25  C   UNL     1     -15.000   2.042  -7.439  1.00  0.00     0.080 C 
BRANCH  25  26
HETATM   26  C   UNL     1     -13.525   2.309  -7.377  1.00  0.00     0.060 C 
HETATM   27  N   UNL     1     -12.704   1.397  -6.839  1.00  0.00    -0.346 N 
HETATM   28  C   UNL     1     -11.636   1.909  -6.220  1.00  0.00     0.084 C 
ATOM     29  HN  UNL     1     -12.881   0.394  -6.897  1.00  0.00     0.167 HD
HETATM   30  N   UNL     1     -11.599   3.216  -5.733  1.00  0.00    -0.372 N 
HETATM   31  C   UNL     1     -12.182   4.263  -6.595  1.00  0.00     0.206 C 
ATOM     32  HN  UNL     1     -11.191   3.437  -4.825  1.00  0.00     0.161 HD
HETATM   33  C   UNL     1     -12.884   3.595  -7.751  1.00  0.00     0.189 C 
HETATM   34  O   UNL     1     -12.791   4.022  -8.918  1.00  0.00    -0.289 OA
BRANCH  28  35
HETATM   35  C   UNL     1     -10.356   1.167  -6.250  1.00  0.00     0.082 C 
HETATM   36  C   UNL     1     -10.110   0.055  -5.283  1.00  0.00     0.015 C 
HETATM   37  C   UNL     1      -9.267  -0.987  -5.974  1.00  0.00     0.003 C 
HETATM   38  C   UNL     1      -8.920  -0.432  -7.334  1.00  0.00     0.032 C 
HETATM   39  C   UNL     1     -10.067   0.505  -7.556  1.00  0.00     0.129 C 
BRANCH  39  40
HETATM   40  O   UNL     1     -10.170   1.297  -8.672  1.00  0.00    -0.395 OA
ATOM     41  HO  UNL     1      -9.679   1.126  -9.468  1.00  0.00     0.210 HD
ENDBRANCH  39  40
ENDBRANCH  28  35
ENDBRANCH  25  26
ENDBRANCH  24  25
ENDBRANCH   2  24
TORSDOF 13
ENDMDL
MODEL 3
REMARK VINA RESULT:     -10.3      1.468      1.869
REMARK  13 active torsions:
REMARK  status: ('A' for Active; 'I' for Inactive)
REMARK    1  A    between atoms: C_1  and  C_5 
REMARK    2  A    between atoms: N_2  and  C_22 
REMARK    3  A    between atoms: C_5  and  C_34 
REMARK    4  A    between atoms: C_7  and  C_22 
REMARK    5  A    between atoms: C_10  and  C_33 
REMARK    6  A    between atoms: C_16  and  C_27 
REMARK    7  A    between atoms: C_16  and  C_39 
REMARK    8  A    between atoms: C_17  and  O_37 
REMARK    9  A    between atoms: N_23  and  C_34 
REMARK   10  A    between atoms: C_25  and  C_29 
REMARK   11  A    between atoms: C_25  and  C_36 
REMARK   12  A    between atoms: C_27  and  C_29 
REMARK   13  A    between atoms: C_31  and  C_39 
ROOT
HETATM    1  C   UNL     1     -16.331   7.696  -4.208  1.00  0.00     0.079 C 
HETATM    2  N   UNL     1     -16.135   7.757  -2.895  1.00  0.00    -0.379 N 
ATOM      3  HN  UNL     1     -15.303   7.346  -2.473  1.00  0.00     0.160 HD
ENDROOT
BRANCH   1   4
HETATM    4  N   UNL     1     -16.097   8.721  -4.970  1.00  0.00    -0.388 N 
ATOM      5  HN2 UNL     1     -15.179   8.867  -5.390  1.00  0.00     0.157 HD
ATOM      6  HN1 UNL     1     -16.855   9.356  -5.220  1.00  0.00     0.157 HD
ENDBRANCH   1   4
BRANCH   1   7
HETATM    7  C   UNL     1     -16.719   6.382  -4.815  1.00  0.00     0.014 C 
HETATM    8  C   UNL     1     -15.719   5.268  -4.566  1.00  0.00     0.021 C 
HETATM    9  C   UNL     1     -16.525   3.960  -4.628  1.00  0.00    -0.013 C 
HETATM   10  C   UNL     1     -17.951   4.347  -4.262  1.00  0.00     0.006 C 
HETATM   11  C   UNL     1     -18.053   5.870  -4.311  1.00  0.00     0.017 C 
HETATM   12  C   UNL     1     -16.823   6.628  -6.328  1.00  0.00     0.023 C 
BRANCH   9  13
HETATM   13  C   UNL     1     -16.433   3.438  -6.062  1.00  0.00     0.005 C 
BRANCH  13  14
HETATM   14  C   UNL     1     -15.242   2.587  -6.464  1.00  0.00     0.000 C 
BRANCH  14  15
HETATM   15  C   UNL     1     -14.179   3.439  -7.160  1.00  0.00     0.000 C 
BRANCH  15  16
HETATM   16  C   UNL     1     -12.819   3.326  -6.494  1.00  0.00     0.005 C 
BRANCH  16  17
HETATM   17  C   UNL     1     -11.699   2.696  -7.288  1.00  0.00     0.038 C 
BRANCH  17  18
HETATM   18  C   UNL     1     -11.055   1.536  -6.556  1.00  0.00    -0.058 C 
HETATM   19  C   UNL     1     -11.817   0.477  -6.082  1.00  0.00     0.007 C 
HETATM   20  C   UNL     1     -11.267  -0.457  -5.209  1.00  0.00     0.001 C 
HETATM   21  C   UNL     1      -9.925  -0.358  -4.850  1.00  0.00     0.000 C 
HETATM   22  C   UNL     1      -9.117   0.609  -5.444  1.00  0.00     0.001 C 
HETATM   23  C   UNL     1      -9.670   1.503  -6.364  1.00  0.00     0.007 C 
ENDBRANCH  17  18
ENDBRANCH  16  17
ENDBRANCH  15  16
ENDBRANCH  14  15
ENDBRANCH  13  14
ENDBRANCH   9  13
ENDBRANCH   1   7
BRANCH   2  24
HETATM   24  C   UNL     1     -17.146   8.431  -2.061  1.00  0.00     0.127 C 
BRANCH  24  25
HETATM   25  C   UNL     1     -16.413   9.315  -1.077  1.00  0.00     0.080 C 
BRANCH  25  26
HETATM   26  C   UNL     1     -16.689   9.130   0.386  1.00  0.00     0.060 C 
HETATM   27  N   UNL     1     -15.690   9.233   1.272  1.00  0.00    -0.346 N 
HETATM   28  C   UNL     1     -15.817   8.448   2.346  1.00  0.00     0.084 C 
ATOM     29  HN  UNL     1     -14.896   9.861   1.138  1.00  0.00     0.167 HD
HETATM   30  N   UNL     1     -16.598   7.292   2.348  1.00  0.00    -0.372 N 
HETATM   31  C   UNL     1     -17.911   7.377   1.678  1.00  0.00     0.206 C 
ATOM     32  HN  UNL     1     -16.279   6.431   2.791  1.00  0.00     0.161 HD
HETATM   33  C   UNL     1     -17.992   8.695   0.950  1.00  0.00     0.189 C 
HETATM   34  O   UNL     1     -19.022   9.399   0.967  1.00  0.00    -0.289 OA
BRANCH  28  35
HETATM   35  C   UNL     1     -15.313   8.921   3.655  1.00  0.00     0.082 C 
HETATM   36  C   UNL     1     -16.027  10.012   4.384  1.00  0.00     0.015 C 
HETATM   37  C   UNL     1     -15.900   9.746   5.863  1.00  0.00     0.003 C 
HETATM   38  C   UNL     1     -15.006   8.538   6.011  1.00  0.00     0.032 C 
HETATM   39  C   UNL     1     -15.236   7.857   4.697  1.00  0.00     0.129 C 
BRANCH  39  40
HETATM   40  O   UNL     1     -14.583   6.703   4.339  1.00  0.00    -0.395 OA
ATOM     41  HO  UNL     1     -14.426   5.993   4.950  1.00  0.00     0.210 HD
ENDBRANCH  39  40
ENDBRANCH  28  35
ENDBRANCH  25  26
ENDBRANCH  24  25
ENDBRANCH   2  24
TORSDOF 13
ENDMDL
MODEL 4
REMARK VINA RESULT:     -10.1      1.149      1.603
REMARK  13 active torsions:
REMARK  status: ('A' for Active; 'I' for Inactive)
REMARK    1  A    between atoms: C_1  and  C_5 
REMARK    2  A    between atoms: N_2  and  C_22 
REMARK    3  A    between atoms: C_5  and  C_34 
REMARK    4  A    between atoms: C_7  and  C_22 
REMARK    5  A    between atoms: C_10  and  C_33 
REMARK    6  A    between atoms: C_16  and  C_27 
REMARK    7  A    between atoms: C_16  and  C_39 
REMARK    8  A    between atoms: C_17  and  O_37 
REMARK    9  A    between atoms: N_23  and  C_34 
REMARK   10  A    between atoms: C_25  and  C_29 
REMARK   11  A    between atoms: C_25  and  C_36 
REMARK   12  A    between atoms: C_27  and  C_29 
REMARK   13  A    between atoms: C_31  and  C_39 
ROOT
HETATM    1  C   UNL     1     -17.159   6.984  -3.833  1.00  0.00     0.079 C 
HETATM    2  N   UNL     1     -16.718   8.063  -3.195  1.00  0.00    -0.379 N 
ATOM      3  HN  UNL     1     -16.782   8.985  -3.625  1.00  0.00     0.160 HD
ENDROOT
BRANCH   1   4
HETATM    4  N   UNL     1     -18.304   6.449  -3.534  1.00  0.00    -0.388 N 
ATOM      5  HN2 UNL     1     -19.159   6.731  -4.014  1.00  0.00     0.157 HD
ATOM      6  HN1 UNL     1     -18.350   5.680  -2.865  1.00  0.00     0.157 HD
ENDBRANCH   1   4
BRANCH   1   7
HETATM    7  C   UNL     1     -16.362   6.459  -4.988  1.00  0.00     0.014 C 
HETATM    8  C   UNL     1     -15.973   4.998  -4.857  1.00  0.00     0.021 C 
HETATM    9  C   UNL     1     -15.802   4.479  -6.294  1.00  0.00    -0.013 C 
HETATM   10  C   UNL     1     -16.680   5.376  -7.155  1.00  0.00     0.006 C 
HETATM   11  C   UNL     1     -17.088   6.583  -6.312  1.00  0.00     0.017 C 
HETATM   12  C   UNL     1     -15.084   7.311  -5.043  1.00  0.00     0.023 C 
BRANCH   9  13
HETATM   13  C   UNL     1     -14.323   4.624  -6.655  1.00  0.00     0.005 C 
BRANCH  13  14
HETATM   14  C   UNL     1     -13.833   4.085  -7.987  1.00  0.00     0.000 C 
BRANCH  14  15
HETATM   15  C   UNL     1     -12.306   3.997  -8.005  1.00  0.00     0.000 C 
BRANCH  15  16
HETATM   16  C   UNL     1     -11.785   2.816  -7.205  1.00  0.00     0.005 C 
BRANCH  16  17
HETATM   17  C   UNL     1     -10.311   2.789  -6.874  1.00  0.00     0.038 C 
BRANCH  17  18
HETATM   18  C   UNL     1      -9.824   1.396  -6.526  1.00  0.00    -0.058 C 
HETATM   19  C   UNL     1      -9.621   0.442  -7.513  1.00  0.00     0.007 C 
HETATM   20  C   UNL     1      -9.410  -0.892  -7.177  1.00  0.00     0.001 C 
HETATM   21  C   UNL     1      -9.348  -1.263  -5.835  1.00  0.00     0.000 C 
HETATM   22  C   UNL     1      -9.395  -0.287  -4.843  1.00  0.00     0.001 C 
HETATM   23  C   UNL     1      -9.548   1.055  -5.198  1.00  0.00     0.007 C 
ENDBRANCH  17  18
ENDBRANCH  16  17
ENDBRANCH  15  16
ENDBRANCH  14  15
ENDBRANCH  13  14
ENDBRANCH   9  13
ENDBRANCH   1   7
BRANCH   2  24
HETATM   24  C   UNL     1     -16.133   7.900  -1.852  1.00  0.00     0.127 C 
BRANCH  24  25
HETATM   25  C   UNL     1     -16.408   9.168  -1.075  1.00  0.00     0.080 C 
BRANCH  25  26
HETATM   26  C   UNL     1     -16.681   9.055   0.396  1.00  0.00     0.060 C 
HETATM   27  N   UNL     1     -15.671   9.150   1.270  1.00  0.00    -0.346 N 
HETATM   28  C   UNL     1     -15.824   8.414   2.376  1.00  0.00     0.084 C 
ATOM     29  HN  UNL     1     -14.852   9.735   1.106  1.00  0.00     0.167 HD
HETATM   30  N   UNL     1     -16.655   7.296   2.430  1.00  0.00    -0.372 N 
HETATM   31  C   UNL     1     -17.969   7.412   1.765  1.00  0.00     0.206 C 
ATOM     32  HN  UNL     1     -16.371   6.440   2.905  1.00  0.00     0.161 HD
HETATM   33  C   UNL     1     -17.997   8.702   0.985  1.00  0.00     0.189 C 
HETATM   34  O   UNL     1     -18.994   9.450   0.979  1.00  0.00    -0.289 OA
BRANCH  28  35
HETATM   35  C   UNL     1     -15.289   8.917   3.661  1.00  0.00     0.082 C 
HETATM   36  C   UNL     1     -15.983  10.028   4.379  1.00  0.00     0.015 C 
HETATM   37  C   UNL     1     -15.824   9.798   5.861  1.00  0.00     0.003 C 
HETATM   38  C   UNL     1     -14.932   8.590   6.019  1.00  0.00     0.032 C 
HETATM   39  C   UNL     1     -15.193   7.878   4.728  1.00  0.00     0.129 C 
BRANCH  39  40
HETATM   40  O   UNL     1     -14.553   6.713   4.383  1.00  0.00    -0.395 OA
ATOM     41  HO  UNL     1     -13.612   6.663   4.264  1.00  0.00     0.210 HD
ENDBRANCH  39  40
ENDBRANCH  28  35
ENDBRANCH  25  26
ENDBRANCH  24  25
ENDBRANCH   2  24
TORSDOF 13
ENDMDL
MODEL 5
REMARK VINA RESULT:     -10.0      2.151      3.502
REMARK  13 active torsions:
REMARK  status: ('A' for Active; 'I' for Inactive)
REMARK    1  A    between atoms: C_1  and  C_5 
REMARK    2  A    between atoms: N_2  and  C_22 
REMARK    3  A    between atoms: C_5  and  C_34 
REMARK    4  A    between atoms: C_7  and  C_22 
REMARK    5  A    between atoms: C_10  and  C_33 
REMARK    6  A    between atoms: C_16  and  C_27 
REMARK    7  A    between atoms: C_16  and  C_39 
REMARK    8  A    between atoms: C_17  and  O_37 
REMARK    9  A    between atoms: N_23  and  C_34 
REMARK   10  A    between atoms: C_25  and  C_29 
REMARK   11  A    between atoms: C_25  and  C_36 
REMARK   12  A    between atoms: C_27  and  C_29 
REMARK   13  A    between atoms: C_31  and  C_39 
ROOT
HETATM    1  C   UNL     1     -17.044   3.157  -4.769  1.00  0.00     0.079 C 
HETATM    2  N   UNL     1     -18.061   3.988  -4.973  1.00  0.00    -0.379 N 
ATOM      3  HN  UNL     1     -18.607   3.940  -5.833  1.00  0.00     0.160 HD
ENDROOT
BRANCH   1   4
HETATM    4  N   UNL     1     -17.169   2.122  -3.995  1.00  0.00    -0.388 N 
ATOM      5  HN2 UNL     1     -17.242   1.180  -4.382  1.00  0.00     0.157 HD
ATOM      6  HN1 UNL     1     -17.116   2.230  -2.982  1.00  0.00     0.157 HD
ENDBRANCH   1   4
BRANCH   1   7
HETATM    7  C   UNL     1     -15.777   3.372  -5.539  1.00  0.00     0.014 C 
HETATM    8  C   UNL     1     -15.989   3.941  -6.930  1.00  0.00     0.021 C 
HETATM    9  C   UNL     1     -14.694   4.695  -7.275  1.00  0.00    -0.013 C 
HETATM   10  C   UNL     1     -14.087   5.090  -5.937  1.00  0.00     0.006 C 
HETATM   11  C   UNL     1     -14.814   4.312  -4.842  1.00  0.00     0.017 C 
HETATM   12  C   UNL     1     -15.117   1.990  -5.663  1.00  0.00     0.023 C 
BRANCH   9  13
HETATM   13  C   UNL     1     -13.794   3.723  -8.038  1.00  0.00     0.005 C 
BRANCH  13  14
HETATM   14  C   UNL     1     -12.289   3.924  -7.997  1.00  0.00     0.000 C 
BRANCH  14  15
HETATM   15  C   UNL     1     -11.595   2.694  -7.409  1.00  0.00     0.000 C 
BRANCH  15  16
HETATM   16  C   UNL     1     -10.276   2.389  -8.096  1.00  0.00     0.005 C 
BRANCH  16  17
HETATM   17  C   UNL     1      -9.890   0.938  -8.263  1.00  0.00     0.038 C 
BRANCH  17  18
HETATM   18  C   UNL     1      -9.801   0.209  -6.937  1.00  0.00    -0.058 C 
HETATM   19  C   UNL     1     -10.567  -0.922  -6.690  1.00  0.00     0.007 C 
HETATM   20  C   UNL     1     -10.666  -1.443  -5.404  1.00  0.00     0.001 C 
HETATM   21  C   UNL     1      -9.946  -0.857  -4.365  1.00  0.00     0.000 C 
HETATM   22  C   UNL     1      -9.055   0.179  -4.637  1.00  0.00     0.001 C 
HETATM   23  C   UNL     1      -8.924   0.653  -5.944  1.00  0.00     0.007 C 
ENDBRANCH  17  18
ENDBRANCH  16  17
ENDBRANCH  15  16
ENDBRANCH  14  15
ENDBRANCH  13  14
ENDBRANCH   9  13
ENDBRANCH   1   7
BRANCH   2  24
HETATM   24  C   UNL     1     -18.384   4.979  -3.932  1.00  0.00     0.127 C 
BRANCH  24  25
HETATM   25  C   UNL     1     -17.877   6.323  -4.404  1.00  0.00     0.080 C 
BRANCH  25  26
HETATM   26  C   UNL     1     -17.040   7.137  -3.462  1.00  0.00     0.060 C 
HETATM   27  N   UNL     1     -17.187   6.987  -2.139  1.00  0.00    -0.346 N 
HETATM   28  C   UNL     1     -16.977   8.100  -1.429  1.00  0.00     0.084 C 
ATOM     29  HN  UNL     1     -17.440   6.097  -1.710  1.00  0.00     0.167 HD
HETATM   30  N   UNL     1     -17.087   9.378  -1.976  1.00  0.00    -0.372 N 
HETATM   31  C   UNL     1     -16.518   9.575  -3.324  1.00  0.00     0.206 C 
ATOM     32  HN  UNL     1     -17.539  10.140  -1.470  1.00  0.00     0.161 HD
HETATM   33  C   UNL     1     -16.123   8.229  -3.877  1.00  0.00     0.189 C 
HETATM   34  O   UNL     1     -15.051   8.054  -4.489  1.00  0.00    -0.289 OA
BRANCH  28  35
HETATM   35  C   UNL     1     -16.377   7.995  -0.080  1.00  0.00     0.082 C 
HETATM   36  C   UNL     1     -16.105   9.228   0.719  1.00  0.00     0.015 C 
HETATM   37  C   UNL     1     -16.314   8.897   2.175  1.00  0.00     0.003 C 
HETATM   38  C   UNL     1     -16.610   7.419   2.246  1.00  0.00     0.032 C 
HETATM   39  C   UNL     1     -17.178   7.181   0.880  1.00  0.00     0.129 C 
BRANCH  39  40
HETATM   40  O   UNL     1     -17.563   5.936   0.446  1.00  0.00    -0.395 OA
ATOM     41  HO  UNL     1     -18.297   5.804  -0.142  1.00  0.00     0.210 HD
ENDBRANCH  39  40
ENDBRANCH  28  35
ENDBRANCH  25  26
ENDBRANCH  24  25
ENDBRANCH   2  24
TORSDOF 13
ENDMDL
MODEL 6
REMARK VINA RESULT:      -9.8      2.194      3.524
REMARK  13 active torsions:
REMARK  status: ('A' for Active; 'I' for Inactive)
REMARK    1  A    between atoms: C_1  and  C_5 
REMARK    2  A    between atoms: N_2  and  C_22 
REMARK    3  A    between atoms: C_5  and  C_34 
REMARK    4  A    between atoms: C_7  and  C_22 
REMARK    5  A    between atoms: C_10  and  C_33 
REMARK    6  A    between atoms: C_16  and  C_27 
REMARK    7  A    between atoms: C_16  and  C_39 
REMARK    8  A    between atoms: C_17  and  O_37 
REMARK    9  A    between atoms: N_23  and  C_34 
REMARK   10  A    between atoms: C_25  and  C_29 
REMARK   11  A    between atoms: C_25  and  C_36 
REMARK   12  A    between atoms: C_27  and  C_29 
REMARK   13  A    between atoms: C_31  and  C_39 
ROOT
HETATM    1  C   UNL     1     -17.159   7.261  -3.930  1.00  0.00     0.079 C 
HETATM    2  N   UNL     1     -16.825   8.333  -3.220  1.00  0.00    -0.379 N 
ATOM      3  HN  UNL     1     -17.020   9.271  -3.570  1.00  0.00     0.160 HD
ENDROOT
BRANCH   1   4
HETATM    4  N   UNL     1     -18.216   6.565  -3.639  1.00  0.00    -0.388 N 
ATOM      5  HN2 UNL     1     -18.306   6.095  -2.738  1.00  0.00     0.157 HD
ATOM      6  HN1 UNL     1     -19.009   6.545  -4.281  1.00  0.00     0.157 HD
ENDBRANCH   1   4
BRANCH   1   7
HETATM    7  C   UNL     1     -16.355   6.932  -5.151  1.00  0.00     0.014 C 
HETATM    8  C   UNL     1     -15.460   5.717  -4.992  1.00  0.00     0.021 C 
HETATM    9  C   UNL     1     -15.270   5.149  -6.408  1.00  0.00    -0.013 C 
HETATM   10  C   UNL     1     -16.497   5.596  -7.191  1.00  0.00     0.006 C 
HETATM   11  C   UNL     1     -17.215   6.665  -6.370  1.00  0.00     0.017 C 
HETATM   12  C   UNL     1     -15.478   8.163  -5.425  1.00  0.00     0.023 C 
BRANCH   9  13
HETATM   13  C   UNL     1     -13.988   5.759  -6.973  1.00  0.00     0.005 C 
BRANCH  13  14
HETATM   14  C   UNL     1     -13.005   4.864  -7.707  1.00  0.00     0.000 C 
BRANCH  14  15
HETATM   15  C   UNL     1     -12.545   3.715  -6.809  1.00  0.00     0.000 C 
BRANCH  15  16
HETATM   16  C   UNL     1     -13.124   2.378  -7.238  1.00  0.00     0.005 C 
BRANCH  16  17
HETATM   17  C   UNL     1     -13.640   1.458  -6.156  1.00  0.00     0.038 C 
BRANCH  17  18
HETATM   18  C   UNL     1     -15.098   1.712  -5.830  1.00  0.00    -0.058 C 
HETATM   19  C   UNL     1     -16.080   1.594  -6.804  1.00  0.00     0.007 C 
HETATM   20  C   UNL     1     -17.371   2.057  -6.568  1.00  0.00     0.001 C 
HETATM   21  C   UNL     1     -17.694   2.595  -5.324  1.00  0.00     0.000 C 
HETATM   22  C   UNL     1     -16.756   2.572  -4.294  1.00  0.00     0.001 C 
HETATM   23  C   UNL     1     -15.483   2.050  -4.529  1.00  0.00     0.007 C 
ENDBRANCH  17  18
ENDBRANCH  16  17
ENDBRANCH  15  16
ENDBRANCH  14  15
ENDBRANCH  13  14
ENDBRANCH   9  13
ENDBRANCH   1   7
BRANCH   2  24
HETATM   24  C   UNL     1     -16.167   8.139  -1.915  1.00  0.00     0.127 C 
BRANCH  24  25
HETATM   25  C   UNL     1     -16.456   9.360  -1.070  1.00  0.00     0.080 C 
BRANCH  25  26
HETATM   26  C   UNL     1     -16.725   9.163   0.392  1.00  0.00     0.060 C 
HETATM   27  N   UNL     1     -15.727   9.287   1.277  1.00  0.00    -0.346 N 
HETATM   28  C   UNL     1     -15.834   8.495   2.348  1.00  0.00     0.084 C 
ATOM     29  HN  UNL     1     -14.950   9.934   1.144  1.00  0.00     0.167 HD
HETATM   30  N   UNL     1     -16.588   7.321   2.347  1.00  0.00    -0.372 N 
HETATM   31  C   UNL     1     -17.904   7.377   1.679  1.00  0.00     0.206 C 
ATOM     32  HN  UNL     1     -16.248   6.466   2.786  1.00  0.00     0.161 HD
HETATM   33  C   UNL     1     -18.018   8.696   0.956  1.00  0.00     0.189 C 
HETATM   34  O   UNL     1     -19.063   9.375   0.977  1.00  0.00    -0.289 OA
BRANCH  28  35
HETATM   35  C   UNL     1     -15.340   8.975   3.658  1.00  0.00     0.082 C 
HETATM   36  C   UNL     1     -16.068  10.059   4.384  1.00  0.00     0.015 C 
HETATM   37  C   UNL     1     -15.943   9.796   5.863  1.00  0.00     0.003 C 
HETATM   38  C   UNL     1     -15.037   8.598   6.016  1.00  0.00     0.032 C 
HETATM   39  C   UNL     1     -15.255   7.913   4.702  1.00  0.00     0.129 C 
BRANCH  39  40
HETATM   40  O   UNL     1     -14.588   6.766   4.347  1.00  0.00    -0.395 OA
ATOM     41  HO  UNL     1     -13.649   6.667   4.451  1.00  0.00     0.210 HD
ENDBRANCH  39  40
ENDBRANCH  28  35
ENDBRANCH  25  26
ENDBRANCH  24  25
ENDBRANCH   2  24
TORSDOF 13
ENDMDL
MODEL 7
REMARK VINA RESULT:      -9.7      3.747     10.786
REMARK  13 active torsions:
REMARK  status: ('A' for Active; 'I' for Inactive)
REMARK    1  A    between atoms: C_1  and  C_5 
REMARK    2  A    between atoms: N_2  and  C_22 
REMARK    3  A    between atoms: C_5  and  C_34 
REMARK    4  A    between atoms: C_7  and  C_22 
REMARK    5  A    between atoms: C_10  and  C_33 
REMARK    6  A    between atoms: C_16  and  C_27 
REMARK    7  A    between atoms: C_16  and  C_39 
REMARK    8  A    between atoms: C_17  and  O_37 
REMARK    9  A    between atoms: N_23  and  C_34 
REMARK   10  A    between atoms: C_25  and  C_29 
REMARK   11  A    between atoms: C_25  and  C_36 
REMARK   12  A    between atoms: C_27  and  C_29 
REMARK   13  A    between atoms: C_31  and  C_39 
ROOT
HETATM    1  C   UNL     1     -16.611   4.282  -4.910  1.00  0.00     0.079 C 
HETATM    2  N   UNL     1     -15.561   3.744  -5.522  1.00  0.00    -0.379 N 
ATOM      3  HN  UNL     1     -14.630   3.809  -5.112  1.00  0.00     0.160 HD
ENDROOT
BRANCH   1   4
HETATM    4  N   UNL     1     -17.444   3.548  -4.237  1.00  0.00    -0.388 N 
ATOM      5  HN2 UNL     1     -18.444   3.564  -4.441  1.00  0.00     0.157 HD
ATOM      6  HN1 UNL     1     -17.098   2.885  -3.543  1.00  0.00     0.157 HD
ENDBRANCH   1   4
BRANCH   1   7
HETATM    7  C   UNL     1     -16.755   5.773  -4.913  1.00  0.00     0.014 C 
HETATM    8  C   UNL     1     -15.665   6.501  -4.148  1.00  0.00     0.021 C 
HETATM    9  C   UNL     1     -15.566   7.896  -4.786  1.00  0.00    -0.013 C 
HETATM   10  C   UNL     1     -16.070   7.725  -6.212  1.00  0.00     0.006 C 
HETATM   11  C   UNL     1     -16.755   6.363  -6.309  1.00  0.00     0.017 C 
HETATM   12  C   UNL     1     -18.110   6.069  -4.251  1.00  0.00     0.023 C 
BRANCH   9  13
HETATM   13  C   UNL     1     -16.467   8.830  -3.978  1.00  0.00     0.005 C 
BRANCH  13  14
HETATM   14  C   UNL     1     -16.037   9.244  -2.581  1.00  0.00     0.000 C 
BRANCH  14  15
HETATM   15  C   UNL     1     -17.025   8.724  -1.536  1.00  0.00     0.000 C 
BRANCH  15  16
HETATM   16  C   UNL     1     -16.438   7.608  -0.689  1.00  0.00     0.005 C 
BRANCH  16  17
HETATM   17  C   UNL     1     -17.084   7.327   0.647  1.00  0.00     0.038 C 
BRANCH  17  18
HETATM   18  C   UNL     1     -16.375   8.028   1.789  1.00  0.00    -0.058 C 
HETATM   19  C   UNL     1     -15.234   7.483   2.364  1.00  0.00     0.007 C 
HETATM   20  C   UNL     1     -14.730   7.995   3.556  1.00  0.00     0.001 C 
HETATM   21  C   UNL     1     -15.342   9.097   4.148  1.00  0.00     0.000 C 
HETATM   22  C   UNL     1     -16.390   9.742   3.495  1.00  0.00     0.001 C 
HETATM   23  C   UNL     1     -16.848   9.252   2.270  1.00  0.00     0.007 C 
ENDBRANCH  17  18
ENDBRANCH  16  17
ENDBRANCH  15  16
ENDBRANCH  14  15
ENDBRANCH  13  14
ENDBRANCH   9  13
ENDBRANCH   1   7
BRANCH   2  24
HETATM   24  C   UNL     1     -15.771   3.050  -6.806  1.00  0.00     0.127 C 
BRANCH  24  25
HETATM   25  C   UNL     1     -14.839   1.859  -6.841  1.00  0.00     0.080 C 
BRANCH  25  26
HETATM   26  C   UNL     1     -13.371   2.112  -7.025  1.00  0.00     0.060 C 
HETATM   27  N   UNL     1     -12.479   1.239  -6.538  1.00  0.00    -0.346 N 
HETATM   28  C   UNL     1     -11.330   1.789  -6.134  1.00  0.00     0.084 C 
ATOM     29  HN  UNL     1     -12.661   0.237  -6.481  1.00  0.00     0.167 HD
HETATM   30  N   UNL     1     -11.220   3.132  -5.774  1.00  0.00    -0.372 N 
HETATM   31  C   UNL     1     -11.926   4.109  -6.627  1.00  0.00     0.206 C 
ATOM     32  HN  UNL     1     -10.679   3.426  -4.961  1.00  0.00     0.161 HD
HETATM   33  C   UNL     1     -12.794   3.353  -7.601  1.00  0.00     0.189 C 
HETATM   34  O   UNL     1     -12.879   3.676  -8.802  1.00  0.00    -0.289 OA
BRANCH  28  35
HETATM   35  C   UNL     1     -10.068   1.031  -6.291  1.00  0.00     0.082 C 
HETATM   36  C   UNL     1      -9.753  -0.101  -5.369  1.00  0.00     0.015 C 
HETATM   37  C   UNL     1      -8.990  -1.141  -6.149  1.00  0.00     0.003 C 
HETATM   38  C   UNL     1      -8.759  -0.568  -7.526  1.00  0.00     0.032 C 
HETATM   39  C   UNL     1      -9.908   0.388  -7.628  1.00  0.00     0.129 C 
BRANCH  39  40
HETATM   40  O   UNL     1     -10.099   1.201  -8.718  1.00  0.00    -0.395 OA
ATOM     41  HO  UNL     1      -9.388   1.677  -9.132  1.00  0.00     0.210 HD
ENDBRANCH  39  40
ENDBRANCH  28  35
ENDBRANCH  25  26
ENDBRANCH  24  25
ENDBRANCH   2  24
TORSDOF 13
ENDMDL
MODEL 8
REMARK VINA RESULT:      -9.7      4.358     10.729
REMARK  13 active torsions:
REMARK  status: ('A' for Active; 'I' for Inactive)
REMARK    1  A    between atoms: C_1  and  C_5 
REMARK    2  A    between atoms: N_2  and  C_22 
REMARK    3  A    between atoms: C_5  and  C_34 
REMARK    4  A    between atoms: C_7  and  C_22 
REMARK    5  A    between atoms: C_10  and  C_33 
REMARK    6  A    between atoms: C_16  and  C_27 
REMARK    7  A    between atoms: C_16  and  C_39 
REMARK    8  A    between atoms: C_17  and  O_37 
REMARK    9  A    between atoms: N_23  and  C_34 
REMARK   10  A    between atoms: C_25  and  C_29 
REMARK   11  A    between atoms: C_25  and  C_36 
REMARK   12  A    between atoms: C_27  and  C_29 
REMARK   13  A    between atoms: C_31  and  C_39 
ROOT
HETATM    1  C   UNL     1     -16.556   3.266  -7.048  1.00  0.00     0.079 C 
HETATM    2  N   UNL     1     -16.843   1.968  -7.039  1.00  0.00    -0.379 N 
ATOM      3  HN  UNL     1     -17.812   1.649  -7.062  1.00  0.00     0.160 HD
ENDROOT
BRANCH   1   4
HETATM    4  N   UNL     1     -16.159   3.857  -8.134  1.00  0.00    -0.388 N 
ATOM      5  HN2 UNL     1     -15.764   4.797  -8.108  1.00  0.00     0.157 HD
ATOM      6  HN1 UNL     1     -16.166   3.355  -9.022  1.00  0.00     0.157 HD
ENDBRANCH   1   4
BRANCH   1   7
HETATM    7  C   UNL     1     -16.810   4.065  -5.806  1.00  0.00     0.014 C 
HETATM    8  C   UNL     1     -17.614   5.330  -6.039  1.00  0.00     0.021 C 
HETATM    9  C   UNL     1     -18.326   5.624  -4.708  1.00  0.00    -0.013 C 
HETATM   10  C   UNL     1     -18.451   4.278  -4.010  1.00  0.00     0.006 C 
HETATM   11  C   UNL     1     -17.553   3.283  -4.743  1.00  0.00     0.017 C 
HETATM   12  C   UNL     1     -15.426   4.449  -5.261  1.00  0.00     0.023 C 
BRANCH   9  13
HETATM   13  C   UNL     1     -17.435   6.586  -3.921  1.00  0.00     0.005 C 
BRANCH  13  14
HETATM   14  C   UNL     1     -16.663   7.658  -4.671  1.00  0.00     0.000 C 
BRANCH  14  15
HETATM   15  C   UNL     1     -16.398   8.864  -3.768  1.00  0.00     0.000 C 
BRANCH  15  16
HETATM   16  C   UNL     1     -16.888   8.643  -2.347  1.00  0.00     0.005 C 
BRANCH  16  17
HETATM   17  C   UNL     1     -16.286   9.498  -1.257  1.00  0.00     0.038 C 
BRANCH  17  18
HETATM   18  C   UNL     1     -16.583   8.959   0.128  1.00  0.00    -0.058 C 
HETATM   19  C   UNL     1     -16.468   9.768   1.251  1.00  0.00     0.007 C 
HETATM   20  C   UNL     1     -16.504   9.216   2.528  1.00  0.00     0.001 C 
HETATM   21  C   UNL     1     -16.712   7.847   2.682  1.00  0.00     0.000 C 
HETATM   22  C   UNL     1     -16.984   7.057   1.567  1.00  0.00     0.001 C 
HETATM   23  C   UNL     1     -17.002   7.636   0.297  1.00  0.00     0.007 C 
ENDBRANCH  17  18
ENDBRANCH  16  17
ENDBRANCH  15  16
ENDBRANCH  14  15
ENDBRANCH  13  14
ENDBRANCH   9  13
ENDBRANCH   1   7
BRANCH   2  24
HETATM   24  C   UNL     1     -15.734   0.999  -6.994  1.00  0.00     0.127 C 
BRANCH  24  25
HETATM   25  C   UNL     1     -14.696   1.535  -6.032  1.00  0.00     0.080 C 
BRANCH  25  26
HETATM   26  C   UNL     1     -13.309   1.781  -6.549  1.00  0.00     0.060 C 
HETATM   27  N   UNL     1     -12.295   1.014  -6.128  1.00  0.00    -0.346 N 
HETATM   28  C   UNL     1     -11.118   1.642  -6.057  1.00  0.00     0.084 C 
ATOM     29  HN  UNL     1     -12.412   0.031  -5.882  1.00  0.00     0.167 HD
HETATM   30  N   UNL     1     -11.006   3.027  -5.937  1.00  0.00    -0.372 N 
HETATM   31  C   UNL     1     -11.916   3.842  -6.767  1.00  0.00     0.206 C 
ATOM     32  HN  UNL     1     -10.329   3.457  -5.307  1.00  0.00     0.161 HD
HETATM   33  C   UNL     1     -12.922   2.924  -7.415  1.00  0.00     0.189 C 
HETATM   34  O   UNL     1     -13.260   3.049  -8.608  1.00  0.00    -0.289 OA
BRANCH  28  35
HETATM   35  C   UNL     1      -9.876   0.891  -6.351  1.00  0.00     0.082 C 
HETATM   36  C   UNL     1      -9.438  -0.217  -5.450  1.00  0.00     0.015 C 
HETATM   37  C   UNL     1      -8.764  -1.268  -6.296  1.00  0.00     0.003 C 
HETATM   38  C   UNL     1      -8.709  -0.723  -7.703  1.00  0.00     0.032 C 
HETATM   39  C   UNL     1      -9.873   0.220  -7.684  1.00  0.00     0.129 C 
BRANCH  39  40
HETATM   40  O   UNL     1     -10.205   1.006  -8.759  1.00  0.00    -0.395 OA
ATOM     41  HO  UNL     1      -9.786   0.915  -9.608  1.00  0.00     0.210 HD
ENDBRANCH  39  40
ENDBRANCH  28  35
ENDBRANCH  25  26
ENDBRANCH  24  25
ENDBRANCH   2  24
TORSDOF 13
ENDMDL
MODEL 9
REMARK VINA RESULT:      -9.7      3.759     10.492
REMARK  13 active torsions:
REMARK  status: ('A' for Active; 'I' for Inactive)
REMARK    1  A    between atoms: C_1  and  C_5 
REMARK    2  A    between atoms: N_2  and  C_22 
REMARK    3  A    between atoms: C_5  and  C_34 
REMARK    4  A    between atoms: C_7  and  C_22 
REMARK    5  A    between atoms: C_10  and  C_33 
REMARK    6  A    between atoms: C_16  and  C_27 
REMARK    7  A    between atoms: C_16  and  C_39 
REMARK    8  A    between atoms: C_17  and  O_37 
REMARK    9  A    between atoms: N_23  and  C_34 
REMARK   10  A    between atoms: C_25  and  C_29 
REMARK   11  A    between atoms: C_25  and  C_36 
REMARK   12  A    between atoms: C_27  and  C_29 
REMARK   13  A    between atoms: C_31  and  C_39 
ROOT
HETATM    1  C   UNL     1     -18.133   4.283  -4.742  1.00  0.00     0.079 C 
HETATM    2  N   UNL     1     -17.626   3.060  -4.854  1.00  0.00    -0.379 N 
ATOM      3  HN  UNL     1     -17.267   2.569  -4.035  1.00  0.00     0.160 HD
ENDROOT
BRANCH   1   4
HETATM    4  N   UNL     1     -19.416   4.480  -4.730  1.00  0.00    -0.388 N 
ATOM      5  HN2 UNL     1     -19.941   4.589  -5.599  1.00  0.00     0.157 HD
ATOM      6  HN1 UNL     1     -19.931   4.450  -3.850  1.00  0.00     0.157 HD
ENDBRANCH   1   4
BRANCH   1   7
HETATM    7  C   UNL     1     -17.194   5.429  -4.514  1.00  0.00     0.014 C 
HETATM    8  C   UNL     1     -17.563   6.302  -3.329  1.00  0.00     0.021 C 
HETATM    9  C   UNL     1     -16.245   6.933  -2.848  1.00  0.00    -0.013 C 
HETATM   10  C   UNL     1     -15.151   5.971  -3.289  1.00  0.00     0.006 C 
HETATM   11  C   UNL     1     -15.765   4.984  -4.281  1.00  0.00     0.017 C 
HETATM   12  C   UNL     1     -17.245   6.279  -5.793  1.00  0.00     0.023 C 
BRANCH   9  13
HETATM   13  C   UNL     1     -16.114   8.290  -3.540  1.00  0.00     0.005 C 
BRANCH  13  14
HETATM   14  C   UNL     1     -16.457   9.551  -2.766  1.00  0.00     0.000 C 
BRANCH  14  15
HETATM   15  C   UNL     1     -17.128   9.202  -1.437  1.00  0.00     0.000 C 
BRANCH  15  16
HETATM   16  C   UNL     1     -16.161   9.256  -0.267  1.00  0.00     0.005 C 
BRANCH  16  17
HETATM   17  C   UNL     1     -16.026   8.018   0.589  1.00  0.00     0.038 C 
BRANCH  17  18
HETATM   18  C   UNL     1     -15.893   8.349   2.062  1.00  0.00    -0.058 C 
HETATM   19  C   UNL     1     -16.742   9.264   2.670  1.00  0.00     0.007 C 
HETATM   20  C   UNL     1     -16.468   9.743   3.948  1.00  0.00     0.001 C 
HETATM   21  C   UNL     1     -15.363   9.260   4.644  1.00  0.00     0.000 C 
HETATM   22  C   UNL     1     -14.598   8.229   4.101  1.00  0.00     0.001 C 
HETATM   23  C   UNL     1     -14.920   7.717   2.843  1.00  0.00     0.007 C 
ENDBRANCH  17  18
ENDBRANCH  16  17
ENDBRANCH  15  16
ENDBRANCH  14  15
ENDBRANCH  13  14
ENDBRANCH   9  13
ENDBRANCH   1   7
BRANCH   2  24
HETATM   24  C   UNL     1     -17.595   2.427  -6.184  1.00  0.00     0.127 C 
BRANCH  24  25
HETATM   25  C   UNL     1     -16.531   1.352  -6.155  1.00  0.00     0.080 C 
BRANCH  25  26
HETATM   26  C   UNL     1     -15.198   1.655  -6.773  1.00  0.00     0.060 C 
HETATM   27  N   UNL     1     -14.086   1.112  -6.260  1.00  0.00    -0.346 N 
HETATM   28  C   UNL     1     -12.996   1.878  -6.366  1.00  0.00     0.084 C 
ATOM     29  HN  UNL     1     -14.073   0.190  -5.824  1.00  0.00     0.167 HD
HETATM   30  N   UNL     1     -13.057   3.263  -6.519  1.00  0.00    -0.372 N 
HETATM   31  C   UNL     1     -14.081   3.784  -7.447  1.00  0.00     0.206 C 
ATOM     32  HN  UNL     1     -12.426   3.886  -6.016  1.00  0.00     0.161 HD
HETATM   33  C   UNL     1     -14.977   2.643  -7.859  1.00  0.00     0.189 C 
HETATM   34  O   UNL     1     -15.355   2.490  -9.037  1.00  0.00    -0.289 OA
BRANCH  28  35
HETATM   35  C   UNL     1     -11.676   1.237  -6.567  1.00  0.00     0.082 C 
HETATM   36  C   UNL     1     -10.458   2.075  -6.776  1.00  0.00     0.015 C 
HETATM   37  C   UNL     1      -9.287   1.364  -6.146  1.00  0.00     0.003 C 
HETATM   38  C   UNL     1      -9.803   0.035  -5.650  1.00  0.00     0.032 C 
HETATM   39  C   UNL     1     -11.251   0.357  -5.439  1.00  0.00     0.129 C 
BRANCH  39  40
HETATM   40  O   UNL     1     -12.164  -0.581  -5.024  1.00  0.00    -0.395 OA
ATOM     41  HO  UNL     1     -12.467  -0.637  -4.125  1.00  0.00     0.210 HD
ENDBRANCH  39  40
ENDBRANCH  28  35
ENDBRANCH  25  26
ENDBRANCH  24  25
ENDBRANCH   2  24
TORSDOF 13
ENDMDL
