ATOM      1  N   LEU A  23      27.812  31.557  22.341  1.00 11.20    -0.069 N 
ATOM      2  HN1 LEU A  23      27.945  32.552  22.522  1.00  0.00     0.275 HD
ATOM      3  HN2 LEU A  23      28.073  31.312  21.386  1.00  0.00     0.275 HD
ATOM      4  HN3 LEU A  23      28.497  30.990  22.840  1.00  0.00     0.275 HD
ATOM      5  CA  LEU A  23      26.454  31.145  22.646  1.00 11.30     0.244 C 
ATOM      6  C   LEU A  23      26.256  29.659  22.375  1.00 12.40     0.263 C 
ATOM      7  O   LEU A  23      26.560  29.201  21.284  1.00 12.60    -0.305 OA
ATOM      8  CB  LEU A  23      25.506  31.920  21.735  1.00 12.30     0.044 C 
ATOM      9  CG  LEU A  23      24.025  31.885  22.084  1.00 13.40    -0.020 C 
ATOM     10  CD1 LEU A  23      23.869  32.515  23.462  1.00 13.80     0.009 C 
ATOM     11  CD2 LEU A  23      23.169  32.657  21.026  1.00 11.20     0.009 C 
ATOM     12  N   ASP A  25      24.299  26.804  21.166  1.00 11.30    -0.068 N 
ATOM     13  HN1 ASP A  25      24.500  27.755  21.475  1.00  0.00     0.275 HD
ATOM     14  HN2 ASP A  25      25.123  26.390  20.729  1.00  0.00     0.275 HD
ATOM     15  HN3 ASP A  25      24.197  26.182  21.968  1.00  0.00     0.275 HD
ATOM     16  CA  ASP A  25      23.140  26.691  20.281  1.00 10.60     0.254 C 
ATOM     17  C   ASP A  25      22.839  25.265  19.817  1.00 10.00     0.264 C 
ATOM     18  O   ASP A  25      23.487  24.772  18.900  1.00  7.50    -0.305 OA
ATOM     19  CB  ASP A  25      23.380  27.594  19.062  1.00 10.90     0.153 C 
ATOM     20  CG  ASP A  25      22.152  27.820  18.221  1.00 11.50     0.174 C 
ATOM     21  OD1 ASP A  25      21.183  27.068  18.313  1.00 12.70    -0.648 OA
ATOM     22  OD2 ASP A  25      22.165  28.768  17.430  1.00 12.30    -0.648 OA
ATOM     23  N   ALA A  28      22.074  24.800  15.816  1.00  7.60    -0.069 N 
ATOM     24  HN1 ALA A  28      21.573  25.683  15.920  1.00  0.00     0.275 HD
ATOM     25  HN2 ALA A  28      22.448  24.491  16.713  1.00  0.00     0.275 HD
ATOM     26  HN3 ALA A  28      21.423  24.037  15.630  1.00  0.00     0.275 HD
ATOM     27  CA  ALA A  28      23.126  24.836  14.805  1.00  7.30     0.240 C 
ATOM     28  C   ALA A  28      23.889  23.491  14.646  1.00  9.30     0.263 C 
ATOM     29  O   ALA A  28      24.308  22.880  15.626  1.00  9.40    -0.305 OA
ATOM     30  CB  ALA A  28      24.097  25.948  15.104  1.00  4.40     0.047 C 
ATOM     31  N   VAL A  32      30.182  28.280  14.371  1.00 10.80    -0.069 N 
ATOM     32  HN1 VAL A  32      29.810  27.508  13.818  1.00  0.00     0.275 HD
ATOM     33  HN2 VAL A  32      29.560  28.542  15.136  1.00  0.00     0.275 HD
ATOM     34  HN3 VAL A  32      30.989  28.002  14.929  1.00  0.00     0.275 HD
ATOM     35  CA  VAL A  32      30.482  29.412  13.487  1.00 10.10     0.247 C 
ATOM     36  C   VAL A  32      31.034  30.559  14.309  1.00 10.60     0.264 C 
ATOM     37  O   VAL A  32      30.384  31.005  15.247  1.00 11.70    -0.305 OA
ATOM     38  CB  VAL A  32      29.218  29.936  12.742  1.00 11.00     0.015 C 
ATOM     39  CG1 VAL A  32      29.616  30.811  11.553  1.00  8.20     0.012 C 
ATOM     40  CG2 VAL A  32      28.351  28.799  12.294  1.00  8.30     0.012 C 
ATOM     41  N   GLY A  49      20.332  30.176   7.128  1.00 13.20    -0.071 N 
ATOM     42  HN1 GLY A  49      21.054  29.461   7.216  1.00  0.00     0.274 HD
ATOM     43  HN2 GLY A  49      20.720  31.086   6.881  1.00  0.00     0.274 HD
ATOM     44  HN3 GLY A  49      19.750  30.035   6.302  1.00  0.00     0.274 HD
ATOM     45  CA  GLY A  49      19.548  30.229   8.346  1.00 12.40     0.332 C 
ATOM     46  C   GLY A  49      18.473  31.293   8.215  1.00 11.30     0.243 C 
ATOM     47  O   GLY A  49      18.021  31.583   7.115  1.00 11.80    -0.272 OA
ATOM     48  N   ILE A  50      18.062  31.873   9.328  1.00 11.40    -0.346 N 
ATOM     49  HN  ILE A  50      18.467  31.581  10.217  1.00  0.00     0.163 HD
ATOM     50  CA  ILE A  50      17.057  32.907   9.322  1.00 13.20     0.180 C 
ATOM     51  C   ILE A  50      17.619  34.102   8.580  1.00 13.50     0.241 C 
ATOM     52  O   ILE A  50      18.672  34.634   8.956  1.00 12.90    -0.271 OA
ATOM     53  CB  ILE A  50      16.712  33.301  10.759  1.00 14.00     0.013 C 
ATOM     54  CG1 ILE A  50      16.041  32.110  11.457  1.00 15.20     0.002 C 
ATOM     55  CG2 ILE A  50      15.860  34.565  10.778  1.00 15.50     0.012 C 
ATOM     56  CD1 ILE A  50      15.860  32.275  12.943  1.00 15.90     0.005 C 
ATOM     57  N   GLY A  51      16.978  34.466   7.477  1.00 14.40    -0.353 N 
ATOM     58  HN  GLY A  51      16.160  33.941   7.169  1.00  0.00     0.162 HD
ATOM     59  CA  GLY A  51      17.437  35.610   6.706  1.00 15.10     0.192 C 
ATOM     60  C   GLY A  51      18.284  35.371   5.463  1.00 15.60     0.250 C 
ATOM     61  O   GLY A  51      18.557  36.325   4.725  1.00 16.80    -0.305 OA
ATOM     62  N   THR A  80      29.169  36.122  10.882  1.00 13.90    -0.064 N 
ATOM     63  HN1 THR A  80      29.219  35.347  10.221  1.00  0.00     0.275 HD
ATOM     64  HN2 THR A  80      30.025  36.270  11.417  1.00  0.00     0.275 HD
ATOM     65  HN3 THR A  80      29.149  37.043  10.444  1.00  0.00     0.275 HD
ATOM     66  CA  THR A  80      28.000  35.825  11.698  1.00 15.20     0.302 C 
ATOM     67  C   THR A  80      27.924  36.994  12.695  1.00 16.10     0.253 C 
ATOM     68  O   THR A  80      28.948  37.635  13.011  1.00 15.00    -0.271 OA
ATOM     69  CB  THR A  80      28.163  34.493  12.466  1.00 14.40     0.153 C 
ATOM     70  OG1 THR A  80      27.123  34.358  13.442  1.00 14.40    -0.393 OA
ATOM     71  HG1 THR A  80      27.223  33.540  13.914  1.00  0.00     0.210 HD
ATOM     72  CG2 THR A  80      29.478  34.480  13.185  1.00 14.90     0.042 C 
ATOM     73  N   PRO A  81      26.707  37.332  13.161  1.00 16.90    -0.337 N 
ATOM     74  CA  PRO A  81      26.544  38.435  14.120  1.00 14.80     0.179 C 
ATOM     75  C   PRO A  81      27.010  38.127  15.541  1.00 16.50     0.241 C 
ATOM     76  O   PRO A  81      27.208  39.050  16.347  1.00 15.50    -0.271 OA
ATOM     77  CB  PRO A  81      25.044  38.688  14.084  1.00 15.50     0.037 C 
ATOM     78  CG  PRO A  81      24.467  37.302  13.798  1.00 16.00     0.022 C 
ATOM     79  CD  PRO A  81      25.395  36.842  12.690  1.00 15.60     0.127 C 
ATOM     80  N   VAL A  82      27.156  36.840  15.863  1.00 15.20    -0.346 N 
ATOM     81  HN  VAL A  82      26.968  36.128  15.157  1.00  0.00     0.163 HD
ATOM     82  CA  VAL A  82      27.578  36.423  17.199  1.00 14.10     0.180 C 
ATOM     83  C   VAL A  82      28.225  35.038  17.119  1.00 14.00     0.241 C 
ATOM     84  O   VAL A  82      27.954  34.290  16.164  1.00 14.90    -0.271 OA
ATOM     85  CB  VAL A  82      26.377  36.451  18.199  1.00 16.00     0.009 C 
ATOM     86  CG1 VAL A  82      25.244  35.553  17.732  1.00 15.80     0.012 C 
ATOM     87  CG2 VAL A  82      26.827  36.071  19.592  1.00 15.40     0.012 C 
ATOM     88  N   ASN A  83      29.153  34.759  18.042  1.00 12.60    -0.346 N 
ATOM     89  HN  ASN A  83      29.375  35.471  18.738  1.00  0.00     0.163 HD
ATOM     90  CA  ASN A  83      29.871  33.471  18.102  1.00 12.90     0.185 C 
ATOM     91  C   ASN A  83      28.915  32.350  18.529  1.00 12.20     0.241 C 
ATOM     92  O   ASN A  83      28.222  32.472  19.538  1.00 13.10    -0.271 OA
ATOM     93  CB  ASN A  83      31.084  33.533  19.066  1.00 11.50     0.137 C 
ATOM     94  CG  ASN A  83      32.258  34.391  18.528  1.00 13.60     0.217 C 
ATOM     95  OD1 ASN A  83      32.476  34.507  17.316  1.00 14.30    -0.274 OA
ATOM     96  ND2 ASN A  83      33.034  34.962  19.445  1.00 13.00    -0.370 N 
ATOM     97 1HD2 ASN A  83      33.806  35.526  19.091  1.00  0.00     0.159 HD
ATOM     98 2HD2 ASN A  83      32.854  34.866  20.444  1.00  0.00     0.159 HD
ATOM     99  N   ILE A  84      28.929  31.241  17.791  1.00 11.20    -0.348 N 
ATOM    100  HN  ILE A  84      29.589  31.175  17.016  1.00  0.00     0.163 HD
ATOM    101  CA  ILE A  84      28.036  30.119  18.050  1.00  9.50     0.149 C 
ATOM    102  C   ILE A  84      28.729  28.754  18.194  1.00  8.70     0.256 C 
ATOM    103  O   ILE A  84      29.560  28.397  17.380  1.00 10.20    -0.305 OA
ATOM    104  CB  ILE A  84      27.003  30.027  16.892  1.00  8.80     0.011 C 
ATOM    105  CG1 ILE A  84      26.135  31.273  16.874  1.00  7.40     0.002 C 
ATOM    106  CG2 ILE A  84      26.109  28.831  17.033  1.00 10.00     0.012 C 
ATOM    107  CD1 ILE A  84      25.367  31.382  15.635  1.00  8.40     0.005 C 
ATOM    108  N   ARG A   8      20.378  34.331  28.288  1.00 14.70    -0.069 N 
ATOM    109  HN1 ARG A   8      19.652  34.951  27.930  1.00  0.00     0.275 HD
ATOM    110  HN2 ARG A   8      21.015  34.820  28.917  1.00  0.00     0.275 HD
ATOM    111  HN3 ARG A   8      20.001  33.651  28.948  1.00  0.00     0.275 HD
ATOM    112  CA  ARG A   8      21.099  33.677  27.189  1.00 14.80     0.244 C 
ATOM    113  C   ARG A   8      22.194  32.742  27.728  1.00 13.80     0.263 C 
ATOM    114  O   ARG A   8      22.847  33.048  28.728  1.00 13.30    -0.305 OA
ATOM    115  CB  ARG A   8      21.745  34.706  26.261  1.00 14.60     0.041 C 
ATOM    116  CG  ARG A   8      20.781  35.605  25.539  1.00 18.50     0.023 C 
ATOM    117  CD  ARG A   8      21.352  35.988  24.206  1.00 20.30     0.138 C 
ATOM    118  NE  ARG A   8      20.769  37.227  23.705  1.00 24.10    -0.227 N 
ATOM    119  HE  ARG A   8      20.746  38.026  24.338  1.00  0.00     0.177 HD
ATOM    120  CZ  ARG A   8      20.263  37.396  22.482  1.00 26.80     0.665 C 
ATOM    121  NH1 ARG A   8      20.291  36.382  21.615  1.00 28.50    -0.235 N 
ATOM    122 1HH1 ARG A   8      19.904  36.511  20.680  1.00  0.00     0.174 HD
ATOM    123 2HH1 ARG A   8      20.685  35.486  21.902  1.00  0.00     0.174 HD
ATOM    124  NH2 ARG A   8      19.745  38.574  22.105  1.00 26.00    -0.235 N 
ATOM    125 1HH2 ARG A   8      19.358  38.703  21.170  1.00  0.00     0.174 HD
ATOM    126 2HH2 ARG A   8      19.724  39.349  22.768  1.00  0.00     0.174 HD
ATOM    127  N   GLY A  27      20.405  24.337  18.019  1.00  7.50    -0.073 N 
ATOM    128  HN1 GLY A  27      19.733  24.319  18.786  1.00  0.00     0.274 HD
ATOM    129  HN2 GLY A  27      21.054  25.114  18.140  1.00  0.00     0.274 HD
ATOM    130  HN3 GLY A  27      21.049  23.550  18.099  1.00  0.00     0.274 HD
ATOM    131  CA  GLY A  27      19.827  24.374  16.689  1.00  7.30     0.298 C 
ATOM    132  C   GLY A  27      20.826  24.401  15.548  1.00  8.50     0.258 C 
ATOM    133  O   GLY A  27      20.437  24.108  14.411  1.00  9.60    -0.305 OA
ATOM    134  N   PRO A   9      22.393  31.576  27.101  1.00 13.10    -0.065 N 
ATOM    135  HN1 PRO A   9      22.786  32.419  26.683  1.00  0.00     0.278 HD
ATOM    136  HN2 PRO A   9      21.854  32.010  27.850  1.00  0.00     0.278 HD
ATOM    137  CA  PRO A   9      23.440  30.699  27.630  1.00 13.50     0.246 C 
ATOM    138  C   PRO A   9      24.836  30.958  27.026  1.00 14.30     0.264 C 
ATOM    139  O   PRO A   9      25.249  30.267  26.091  1.00 14.40    -0.305 OA
ATOM    140  CB  PRO A   9      22.892  29.300  27.335  1.00 11.00     0.042 C 
ATOM    141  CG  PRO A   9      22.187  29.482  26.040  1.00 11.10     0.030 C 
ATOM    142  CD  PRO A   9      21.520  30.855  26.151  1.00 13.70     0.233 C 
ATOM    143  N   LEU A  24      25.753  28.911  23.357  1.00 12.10    -0.069 N 
ATOM    144  HN1 LEU A  24      26.615  29.006  23.894  1.00  0.00     0.275 HD
ATOM    145  HN2 LEU A  24      24.967  29.410  23.774  1.00  0.00     0.275 HD
ATOM    146  HN3 LEU A  24      25.778  29.418  22.472  1.00  0.00     0.275 HD
ATOM    147  CA  LEU A  24      25.495  27.475  23.187  1.00 12.00     0.244 C 
ATOM    148  C   LEU A  24      24.204  27.332  22.382  1.00 12.60     0.263 C 
ATOM    149  O   LEU A  24      23.134  27.670  22.872  1.00 16.00    -0.305 OA
ATOM    150  CB  LEU A  24      25.374  26.791  24.553  1.00 10.10     0.044 C 
ATOM    151  CG  LEU A  24      26.605  26.918  25.468  1.00 10.90    -0.020 C 
ATOM    152  CD1 LEU A  24      26.364  26.237  26.808  1.00 11.80     0.009 C 
ATOM    153  CD2 LEU A  24      27.832  26.354  24.805  1.00  8.90     0.009 C 
ATOM    154  N   ALA A  22      30.954  32.882  23.698  1.00 15.20    -0.069 N 
ATOM    155  HN1 ALA A  22      31.857  33.183  23.331  1.00  0.00     0.275 HD
ATOM    156  HN2 ALA A  22      31.082  32.272  24.505  1.00  0.00     0.275 HD
ATOM    157  HN3 ALA A  22      30.472  33.662  24.145  1.00  0.00     0.275 HD
ATOM    158  CA  ALA A  22      30.092  32.248  22.711  1.00 11.70     0.240 C 
ATOM    159  C   ALA A  22      28.742  31.798  23.259  1.00 11.60     0.263 C 
ATOM    160  O   ALA A  22      28.578  31.603  24.458  1.00 11.20    -0.305 OA
ATOM    161  CB  ALA A  22      30.814  31.082  22.098  1.00 12.00     0.047 C 
ATOM    162  N   THR A  26      21.751  24.679  20.348  1.00  9.70    -0.066 N 
ATOM    163  HN1 THR A  26      22.148  24.760  21.284  1.00  0.00     0.275 HD
ATOM    164  HN2 THR A  26      20.982  25.337  20.223  1.00  0.00     0.275 HD
ATOM    165  HN3 THR A  26      22.398  25.041  19.647  1.00  0.00     0.275 HD
ATOM    166  CA  THR A  26      21.329  23.312  20.013  1.00  7.90     0.272 C 
ATOM    167  C   THR A  26      20.734  23.191  18.611  1.00  8.80     0.266 C 
ATOM    168  O   THR A  26      20.601  22.092  18.077  1.00  7.00    -0.305 OA
ATOM    169  CB  THR A  26      20.319  22.740  21.048  1.00  8.80     0.151 C 
ATOM    170  OG1 THR A  26      19.206  23.628  21.186  1.00  9.70    -0.393 OA
ATOM    171  HG1 THR A  26      18.589  23.279  21.818  1.00  0.00     0.210 HD
ATOM    172  CG2 THR A  26      20.976  22.556  22.410  1.00  6.80     0.042 C 
ATOM    173  N   ILE A  85      28.390  28.012  19.247  1.00  8.80    -0.069 N 
ATOM    174  HN1 ILE A  85      29.145  28.645  19.512  1.00  0.00     0.275 HD
ATOM    175  HN2 ILE A  85      27.510  28.201  19.726  1.00  0.00     0.275 HD
ATOM    176  HN3 ILE A  85      28.046  28.159  18.298  1.00  0.00     0.275 HD
ATOM    177  CA  ILE A  85      28.909  26.662  19.482  1.00  8.10     0.247 C 
ATOM    178  C   ILE A  85      27.765  25.702  19.081  1.00  7.00     0.264 C 
ATOM    179  O   ILE A  85      26.722  25.675  19.731  1.00  6.50    -0.305 OA
ATOM    180  CB  ILE A  85      29.252  26.430  20.967  1.00  9.10     0.018 C 
ATOM    181  CG1 ILE A  85      30.387  27.354  21.433  1.00  9.10     0.002 C 
ATOM    182  CG2 ILE A  85      29.583  24.960  21.219  1.00  9.30     0.012 C 
ATOM    183  CD1 ILE A  85      31.724  27.110  20.793  1.00 10.00     0.005 C 
TER     184      ILE A  85 
ATOM    184  N   ASP B  25      15.712  25.093  19.925  1.00  5.50    -0.068 N 
ATOM    185  HN1 ASP B  25      15.519  24.497  19.120  1.00  0.00     0.275 HD
ATOM    186  HN2 ASP B  25      14.886  25.635  20.179  1.00  0.00     0.275 HD
ATOM    187  HN3 ASP B  25      15.815  24.533  20.771  1.00  0.00     0.275 HD
ATOM    188  CA  ASP B  25      16.884  25.981  19.739  1.00  5.90     0.254 C 
ATOM    189  C   ASP B  25      17.181  26.898  20.978  1.00  6.50     0.264 C 
ATOM    190  O   ASP B  25      16.559  27.935  21.168  1.00  5.20    -0.305 OA
ATOM    191  CB  ASP B  25      16.629  26.793  18.438  1.00  6.40     0.153 C 
ATOM    192  CG  ASP B  25      17.813  27.669  17.981  1.00  8.10     0.174 C 
ATOM    193  OD1 ASP B  25      18.639  28.079  18.787  1.00 10.30    -0.648 OA
ATOM    194  OD2 ASP B  25      17.908  27.997  16.792  1.00  9.20    -0.648 OA
ATOM    195  N   GLY B  27      19.618  28.919  21.457  1.00 10.20    -0.071 N 
ATOM    196  HN1 GLY B  27      20.267  28.187  21.747  1.00  0.00     0.274 HD
ATOM    197  HN2 GLY B  27      19.035  28.576  20.694  1.00  0.00     0.274 HD
ATOM    198  HN3 GLY B  27      18.915  29.058  22.182  1.00  0.00     0.274 HD
ATOM    199  CA  GLY B  27      20.200  30.205  21.087  1.00 10.10     0.332 C 
ATOM    200  C   GLY B  27      19.230  31.299  20.654  1.00 10.70     0.243 C 
ATOM    201  O   GLY B  27      19.612  32.458  20.483  1.00 10.90    -0.272 OA
ATOM    202  N   ALA B  28      17.967  30.934  20.475  1.00 10.60    -0.349 N 
ATOM    203  HN  ALA B  28      17.708  29.961  20.636  1.00  0.00     0.163 HD
ATOM    204  CA  ALA B  28      16.934  31.877  20.055  1.00 10.10     0.142 C 
ATOM    205  C   ALA B  28      16.122  32.426  21.233  1.00 10.30     0.255 C 
ATOM    206  O   ALA B  28      15.746  31.682  22.135  1.00  9.50    -0.305 OA
ATOM    207  CB  ALA B  28      16.005  31.205  19.047  1.00  9.50     0.039 C 
ATOM    208  N   ILE B  47      13.420  40.695  13.177  1.00 16.40    -0.066 N 
ATOM    209  HN1 ILE B  47      12.628  40.915  13.781  1.00  0.00     0.275 HD
ATOM    210  HN2 ILE B  47      13.141  40.233  12.311  1.00  0.00     0.275 HD
ATOM    211  HN3 ILE B  47      13.841  41.525  12.759  1.00  0.00     0.275 HD
ATOM    212  CA  ILE B  47      14.375  39.907  13.959  1.00 17.00     0.278 C 
ATOM    213  C   ILE B  47      15.556  39.579  13.059  1.00 16.90     0.249 C 
ATOM    214  O   ILE B  47      15.386  39.356  11.853  1.00 16.30    -0.271 OA
ATOM    215  CB  ILE B  47      13.792  38.560  14.514  1.00 17.70     0.021 C 
ATOM    216  CG1 ILE B  47      13.422  37.611  13.381  1.00 16.20     0.002 C 
ATOM    217  CG2 ILE B  47      12.581  38.813  15.446  1.00 18.10     0.012 C 
ATOM    218  CD1 ILE B  47      13.276  36.183  13.827  1.00 15.70     0.005 C 
ATOM    219  N   GLY B  48      16.752  39.607  13.632  1.00 16.10    -0.351 N 
ATOM    220  HN  GLY B  48      16.835  39.853  14.619  1.00  0.00     0.163 HD
ATOM    221  CA  GLY B  48      17.940  39.292  12.869  1.00 16.30     0.225 C 
ATOM    222  C   GLY B  48      18.411  37.866  13.093  1.00 17.30     0.235 C 
ATOM    223  O   GLY B  48      18.291  37.344  14.207  1.00 17.40    -0.272 OA
ATOM    224  N   GLY B  49      18.889  37.231  12.017  1.00 17.00    -0.351 N 
ATOM    225  HN  GLY B  49      18.890  37.719  11.121  1.00  0.00     0.163 HD
ATOM    226  CA  GLY B  49      19.406  35.876  12.072  1.00 15.90     0.225 C 
ATOM    227  C   GLY B  49      20.849  35.886  11.592  1.00 16.10     0.236 C 
ATOM    228  O   GLY B  49      21.500  36.936  11.560  1.00 16.40    -0.272 OA
ATOM    229  N   ILE B  50      21.340  34.736  11.153  1.00 15.80    -0.346 N 
ATOM    230  HN  ILE B  50      20.745  33.908  11.149  1.00  0.00     0.163 HD
ATOM    231  CA  ILE B  50      22.715  34.631  10.675  1.00 16.60     0.180 C 
ATOM    232  C   ILE B  50      22.911  35.279   9.303  1.00 16.00     0.241 C 
ATOM    233  O   ILE B  50      23.991  35.784   9.010  1.00 15.90    -0.271 OA
ATOM    234  CB  ILE B  50      23.193  33.141  10.679  1.00 18.20     0.013 C 
ATOM    235  CG1 ILE B  50      24.561  33.046  11.317  1.00 18.20     0.002 C 
ATOM    236  CG2 ILE B  50      23.246  32.526   9.262  1.00 19.30     0.012 C 
ATOM    237  CD1 ILE B  50      24.791  31.696  11.906  1.00 22.10     0.005 C 
ATOM    238  N   GLY B  51      21.851  35.316   8.498  1.00 16.10    -0.351 N 
ATOM    239  HN  GLY B  51      20.963  34.926   8.815  1.00  0.00     0.163 HD
ATOM    240  CA  GLY B  51      21.945  35.906   7.171  1.00 16.60     0.225 C 
ATOM    241  C   GLY B  51      21.227  37.224   6.909  1.00 17.00     0.235 C 
ATOM    242  O   GLY B  51      21.050  37.609   5.751  1.00 19.00    -0.272 OA
ATOM    243  N   GLY B  52      20.863  37.951   7.953  1.00 17.20    -0.353 N 
ATOM    244  HN  GLY B  52      21.065  37.632   8.901  1.00  0.00     0.162 HD
ATOM    245  CA  GLY B  52      20.175  39.203   7.733  1.00 17.50     0.192 C 
ATOM    246  C   GLY B  52      18.907  39.314   8.557  1.00 18.50     0.250 C 
ATOM    247  O   GLY B  52      18.639  38.468   9.418  1.00 16.80    -0.305 OA
ATOM    248  N   THR B  26      18.189  26.539  21.768  1.00  5.60    -0.066 N 
ATOM    249  HN1 THR B  26      17.809  25.611  21.953  1.00  0.00     0.275 HD
ATOM    250  HN2 THR B  26      18.978  26.475  21.125  1.00  0.00     0.275 HD
ATOM    251  HN3 THR B  26      17.539  27.079  21.197  1.00  0.00     0.275 HD
ATOM    252  CA  THR B  26      18.567  27.298  22.957  1.00  7.20     0.272 C 
ATOM    253  C   THR B  26      19.137  28.689  22.679  1.00  8.70     0.266 C 
ATOM    254  O   THR B  26      19.196  29.523  23.592  1.00 11.10    -0.305 OA
ATOM    255  CB  THR B  26      19.614  26.534  23.823  1.00  8.30     0.151 C 
ATOM    256  OG1 THR B  26      20.784  26.278  23.043  1.00  9.50    -0.393 OA
ATOM    257  HG1 THR B  26      21.422  25.812  23.571  1.00  0.00     0.210 HD
ATOM    258  CG2 THR B  26      19.074  25.213  24.307  1.00  7.80     0.042 C 
ATOM    259  N   ASP B  29      15.816  33.719  21.212  1.00  9.60    -0.068 N 
ATOM    260  HN1 ASP B  29      16.815  33.846  21.375  1.00  0.00     0.275 HD
ATOM    261  HN2 ASP B  29      15.526  34.106  20.314  1.00  0.00     0.275 HD
ATOM    262  HN3 ASP B  29      15.582  32.741  21.039  1.00  0.00     0.275 HD
ATOM    263  CA  ASP B  29      15.048  34.269  22.307  1.00 10.90     0.254 C 
ATOM    264  C   ASP B  29      13.551  34.078  22.063  1.00 11.40     0.264 C 
ATOM    265  O   ASP B  29      12.789  33.875  23.006  1.00 12.50    -0.305 OA
ATOM    266  CB  ASP B  29      15.322  35.748  22.474  1.00 12.40     0.153 C 
ATOM    267  CG  ASP B  29      16.801  36.098  22.494  1.00 15.60     0.174 C 
ATOM    268  OD1 ASP B  29      17.648  35.321  22.992  1.00 16.30    -0.648 OA
ATOM    269  OD2 ASP B  29      17.114  37.192  22.000  1.00 16.50    -0.648 OA
ATOM    270  N   ARG B  87      13.740  30.133  23.625  1.00  7.50    -0.069 N 
ATOM    271  HN1 ARG B  87      14.593  29.850  23.142  1.00  0.00     0.275 HD
ATOM    272  HN2 ARG B  87      13.390  30.997  23.212  1.00  0.00     0.275 HD
ATOM    273  HN3 ARG B  87      12.987  29.487  23.386  1.00  0.00     0.275 HD
ATOM    274  CA  ARG B  87      13.805  30.285  25.092  1.00  8.80     0.244 C 
ATOM    275  C   ARG B  87      12.524  30.710  25.817  1.00 10.20     0.263 C 
ATOM    276  O   ARG B  87      12.244  30.233  26.923  1.00 11.70    -0.305 OA
ATOM    277  CB  ARG B  87      14.982  31.186  25.513  1.00  9.10     0.041 C 
ATOM    278  CG  ARG B  87      16.367  30.595  25.240  1.00  9.00     0.023 C 
ATOM    279  CD  ARG B  87      17.480  31.350  25.986  1.00  7.50     0.138 C 
ATOM    280  NE  ARG B  87      17.476  32.784  25.713  1.00  7.90    -0.227 N 
ATOM    281  HE  ARG B  87      17.881  33.104  24.833  1.00  0.00     0.177 HD
ATOM    282  CZ  ARG B  87      16.976  33.704  26.542  1.00  8.40     0.665 C 
ATOM    283  NH1 ARG B  87      16.447  33.345  27.694  1.00 10.30    -0.235 N 
ATOM    284 1HH1 ARG B  87      16.065  34.048  28.327  1.00  0.00     0.174 HD
ATOM    285 2HH1 ARG B  87      16.456  32.359  27.955  1.00  0.00     0.174 HD
ATOM    286  NH2 ARG B  87      16.964  34.979  26.204  1.00 10.10    -0.235 N 
ATOM    287 1HH2 ARG B  87      16.582  35.682  26.837  1.00  0.00     0.174 HD
ATOM    288 2HH2 ARG B  87      17.374  35.257  25.312  1.00  0.00     0.174 HD
ATOM    289  N   ASP B  30      13.155  34.077  20.787  1.00 11.50    -0.068 N 
ATOM    290  HN1 ASP B  30      13.378  34.929  21.301  1.00  0.00     0.275 HD
ATOM    291  HN2 ASP B  30      13.776  33.968  19.985  1.00  0.00     0.275 HD
ATOM    292  HN3 ASP B  30      13.424  33.253  21.325  1.00  0.00     0.275 HD
ATOM    293  CA  ASP B  30      11.755  33.987  20.371  1.00 11.80     0.254 C 
ATOM    294  C   ASP B  30      11.421  32.711  19.602  1.00 11.00     0.264 C 
ATOM    295  O   ASP B  30      12.306  32.029  19.111  1.00 10.60    -0.305 OA
ATOM    296  CB  ASP B  30      11.410  35.214  19.480  1.00 14.70     0.153 C 
ATOM    297  CG  ASP B  30      11.725  36.577  20.148  1.00 15.60     0.174 C 
ATOM    298  OD1 ASP B  30      11.274  36.832  21.288  1.00 16.10    -0.648 OA
ATOM    299  OD2 ASP B  30      12.430  37.402  19.526  1.00 18.30    -0.648 OA
ATOM    300  N   PHE B  53      18.106  40.340   8.262  1.00 17.70    -0.069 N 
ATOM    301  HN1 PHE B  53      18.924  40.642   8.792  1.00  0.00     0.275 HD
ATOM    302  HN2 PHE B  53      18.087  40.763   7.334  1.00  0.00     0.275 HD
ATOM    303  HN3 PHE B  53      18.181  39.360   7.989  1.00  0.00     0.275 HD
ATOM    304  CA  PHE B  53      16.864  40.597   8.990  1.00 16.70     0.248 C 
ATOM    305  C   PHE B  53      15.667  40.155   8.215  1.00 16.00     0.264 C 
ATOM    306  O   PHE B  53      15.747  40.004   7.001  1.00 17.00    -0.305 OA
ATOM    307  CB  PHE B  53      16.710  42.067   9.303  1.00 15.90     0.078 C 
ATOM    308  CG  PHE B  53      17.504  42.510  10.485  1.00 17.30    -0.056 A 
ATOM    309  CD1 PHE B  53      18.857  42.860  10.352  1.00 19.60     0.007 A 
ATOM    310  CD2 PHE B  53      16.908  42.592  11.732  1.00 17.00     0.007 A 
ATOM    311  CE1 PHE B  53      19.605  43.290  11.455  1.00 18.70     0.001 A 
ATOM    312  CE2 PHE B  53      17.630  43.013  12.835  1.00 18.60     0.001 A 
ATOM    313  CZ  PHE B  53      18.994  43.368  12.696  1.00 17.70     0.000 A 
TER     314      PHE B  53 
