REMARK  5 active torsions:
REMARK  status: ('A' for Active; 'I' for Inactive)
REMARK    1  A    between atoms: C_5  and  C_8 
REMARK    2  A    between atoms: C_8  and  C_30 
REMARK    3  A    between atoms: N_11  and  C_30 
REMARK    4  A    between atoms: C_17  and  C_29 
REMARK    5  A    between atoms: C_17  and  C_30 
ROOT
HETATM    1  C   UNL     1       1.253   5.658  19.156  1.00  0.00     0.001 C 
HETATM    2  C   UNL     1       4.419   8.694  20.108  1.00  0.00     0.056 C 
HETATM    3  C   UNL     1       6.945   6.936  17.460  1.00  0.00     0.041 A 
HETATM    4  C   UNL     1       6.346   8.735  18.833  1.00  0.00     0.017 A 
HETATM    5  C   UNL     1       6.250  10.093  19.487  1.00  0.00     0.058 C 
HETATM    6  C   UNL     1       4.728  10.153  19.888  1.00  0.00     0.020 C 
HETATM    7  C   UNL     1       3.193   7.989  19.978  1.00  0.00    -0.038 C 
HETATM    8  C   UNL     1       2.042   8.195  20.787  1.00  0.00     0.009 C 
HETATM    9  C   UNL     1       0.466   6.411  20.036  1.00  0.00     0.000 C 
HETATM   10  C   UNL     1       2.568   5.768  18.699  1.00  0.00     0.013 C 
HETATM   11  C   UNL     1       4.803   6.934  18.607  1.00  0.00    -0.014 A 
HETATM   12  C   UNL     1       5.676   6.323  17.694  1.00  0.00     0.043 A 
HETATM   13  C   UNL     1       5.204   8.093  19.156  1.00  0.00    -0.016 A 
HETATM   14  N   UNL     1       7.265   8.159  18.025  1.00  0.00    -0.359 N 
ATOM     15  HN  UNL     1       8.161   8.609  17.839  1.00  0.00     0.166 HD
HETATM   16  C   UNL     1       3.490   6.758  19.114  1.00  0.00    -0.018 C 
HETATM   17  C   UNL     1       0.810   7.585  20.727  1.00  0.00     0.001 C 
ENDROOT
BRANCH   3  18
HETATM   18  C   UNL     1       7.993   6.294  16.610  1.00  0.00    -0.012 C 
HETATM   19  C   UNL     1       8.442   4.910  16.997  1.00  0.00     0.052 C 
BRANCH  18  20
HETATM   20  C   UNL     1       8.387   6.827  15.256  1.00  0.00     0.032 C 
BRANCH  20  21
HETATM   21  N   UNL     1       9.548   7.726  15.313  1.00  0.00    -0.335 N 
HETATM   22  C   UNL     1       9.403   9.090  15.534  1.00  0.00     0.096 C 
HETATM   23  C   UNL     1      10.388  10.035  15.404  1.00  0.00     0.018 C 
HETATM   24  C   UNL     1      11.709   9.968  14.944  1.00  0.00     0.001 C 
HETATM   25  C   UNL     1      12.538   8.873  14.959  1.00  0.00     0.001 C 
HETATM   26  C   UNL     1      12.060   7.557  15.188  1.00  0.00     0.018 C 
HETATM   27  C   UNL     1      10.782   7.126  15.314  1.00  0.00     0.096 C 
ENDBRANCH  20  21
BRANCH  20  28
HETATM   28  C   UNL     1       7.373   7.040  14.149  1.00  0.00     0.154 C 
BRANCH  28  29
HETATM   29  C   UNL     1       6.268   6.028  14.099  1.00  0.00     0.224 C 
HETATM   30 CL   UNL     1       4.679   6.660  14.343  1.00  0.00    -0.043 Cl
HETATM   31  O   UNL     1       6.468   4.849  13.917  1.00  0.00    -0.279 OA
ENDBRANCH  28  29
ENDBRANCH  20  28
ENDBRANCH  18  20
ENDBRANCH   3  18
TORSDOF 5
