MODEL 1
REMARK VINA RESULT:      -9.8      0.000      0.000
REMARK  3 active torsions:
REMARK  status: ('A' for Active; 'I' for Inactive)
REMARK    1  A    between atoms: C_11  and  O_12 
REMARK    2  A    between atoms: C_11  and  O_31 
REMARK    3  A    between atoms: N_20  and  O_22 
ROOT
HETATM    1  C   UNL     1       7.121   4.068  15.631  1.00  0.00    -0.060 C 
HETATM    2  C   UNL     1       8.086   6.007  16.661  1.00  0.00     0.032 C 
HETATM    3  C   UNL     1       3.245   5.980  15.954  1.00  0.00     0.331 C 
HETATM    4  C   UNL     1       8.252   4.769  16.036  1.00  0.00     0.009 C 
HETATM    5  C   UNL     1       5.291   7.448  18.540  1.00  0.00     0.272 C 
HETATM    6  C   UNL     1       0.122   5.987  18.102  1.00  0.00     0.024 C 
HETATM    7  O   UNL     1       5.123   7.830  19.692  1.00  0.00    -0.266 OA
HETATM    8  C   UNL     1       5.942   4.771  15.420  1.00  0.00     0.039 C 
HETATM    9  N   UNL     1       4.436   6.316  16.552  1.00  0.00    -0.257 N 
HETATM   10  C   UNL     1       6.786   6.448  16.914  1.00  0.00     0.062 C 
HETATM   11  C   UNL     1      -2.326   7.877  20.998  1.00  0.00     0.163 C 
HETATM   12  C   UNL     1       0.121   8.016  21.213  1.00  0.00     0.012 C 
HETATM   13  C   UNL     1      -1.373   5.892  17.783  1.00  0.00     0.008 C 
HETATM   14  O   UNL     1       3.066   5.568  14.825  1.00  0.00    -0.246 OA
HETATM   15  C   UNL     1      -1.674   7.512  19.663  1.00  0.00     0.053 C 
HETATM   16  C   UNL     1       0.545   7.338  18.663  1.00  0.00     0.099 C 
HETATM   17  C   UNL     1       7.091   2.566  15.681  1.00  0.00     0.048 C 
HETATM   18  N   UNL     1       2.013   7.450  18.904  1.00  0.00    -0.165 NA
HETATM   19  C   UNL     1       2.735   7.324  17.638  1.00  0.00     0.246 C 
HETATM   20  N   UNL     1       6.519   7.388  17.916  1.00  0.00    -0.320 N 
ATOM     21  HN  UNL     1       7.251   8.044  18.191  1.00  0.00     0.169 HD
HETATM   22  C   UNL     1       4.174   7.062  17.662  1.00  0.00     0.129 C 
HETATM   23  C   UNL     1       5.712   5.890  16.211  1.00  0.00     0.071 C 
HETATM   24  C   UNL     1      -2.265   6.287  18.959  1.00  0.00     0.011 C 
HETATM   25  C   UNL     1       1.036   5.462  17.015  1.00  0.00     0.136 C 
HETATM   26  C   UNL     1      -0.211   7.222  19.971  1.00  0.00     0.015 C 
HETATM   27  C   UNL     1      -1.185   8.022  21.991  1.00  0.00     0.069 C 
HETATM   28  N   UNL     1       2.278   6.192  16.906  1.00  0.00    -0.308 N 
ENDROOT
BRANCH  11  29
HETATM   29  O   UNL     1      -3.108   9.036  20.938  1.00  0.00    -0.365 OA
ATOM     30  HO  UNL     1      -3.743   9.028  20.232  1.00  0.00     0.213 HD
ENDBRANCH  11  29
BRANCH  11  31
HETATM   31  O   UNL     1      -3.182   6.853  21.481  1.00  0.00    -0.365 OA
ATOM     32  HO  UNL     1      -3.461   7.131  22.345  1.00  0.00     0.213 HD
ENDBRANCH  11  31
BRANCH  18  33
HETATM   33  O   UNL     1       2.239   8.831  19.135  1.00  0.00    -0.310 OA
ATOM     34  HO  UNL     1       2.923   8.859  19.793  1.00  0.00     0.237 HD
ENDBRANCH  18  33
TORSDOF 3
ENDMDL
MODEL 2
REMARK VINA RESULT:      -9.7      3.418      6.060
REMARK  3 active torsions:
REMARK  status: ('A' for Active; 'I' for Inactive)
REMARK    1  A    between atoms: C_11  and  O_12 
REMARK    2  A    between atoms: C_11  and  O_31 
REMARK    3  A    between atoms: N_20  and  O_22 
ROOT
HETATM    1  C   UNL     1       5.817   1.889  10.986  1.00  0.00    -0.060 C 
HETATM    2  C   UNL     1       4.057   0.641  12.035  1.00  0.00     0.032 C 
HETATM    3  C   UNL     1       6.703   3.642  14.849  1.00  0.00     0.331 C 
HETATM    4  C   UNL     1       4.825   0.917  10.902  1.00  0.00     0.009 C 
HETATM    5  C   UNL     1       3.236   2.649  14.987  1.00  0.00     0.272 C 
HETATM    6  C   UNL     1       6.118   6.796  16.870  1.00  0.00     0.024 C 
HETATM    7  O   UNL     1       2.205   3.098  15.474  1.00  0.00    -0.266 OA
HETATM    8  C   UNL     1       6.329   2.209  12.237  1.00  0.00     0.039 C 
HETATM    9  N   UNL     1       5.603   2.922  14.451  1.00  0.00    -0.257 N 
HETATM   10  C   UNL     1       4.274   1.408  13.181  1.00  0.00     0.062 C 
HETATM   11  C   UNL     1       4.154   8.799  20.046  1.00  0.00     0.163 C 
HETATM   12  C   UNL     1       2.913   7.145  18.713  1.00  0.00     0.012 C 
HETATM   13  C   UNL     1       7.044   7.723  17.662  1.00  0.00     0.008 C 
HETATM   14  O   UNL     1       7.866   3.460  14.547  1.00  0.00    -0.246 OA
HETATM   15  C   UNL     1       5.140   7.922  19.270  1.00  0.00     0.053 C 
HETATM   16  C   UNL     1       5.133   6.024  17.737  1.00  0.00     0.099 C 
HETATM   17  C   UNL     1       6.136   2.764   9.807  1.00  0.00     0.048 C 
HETATM   18  N   UNL     1       4.283   5.069  16.968  1.00  0.00    -0.165 NA
HETATM   19  C   UNL     1       5.123   4.045  16.348  1.00  0.00     0.246 C 
HETATM   20  N   UNL     1       3.286   1.545  14.162  1.00  0.00    -0.320 N 
ATOM     21  HN  UNL     1       2.586   0.811  14.270  1.00  0.00     0.169 HD
HETATM   22  C   UNL     1       4.563   3.214  15.282  1.00  0.00     0.129 C 
HETATM   23  C   UNL     1       5.469   2.121  13.325  1.00  0.00     0.071 C 
HETATM   24  C   UNL     1       6.290   8.672  18.593  1.00  0.00     0.011 C 
HETATM   25  C   UNL     1       6.814   5.946  15.827  1.00  0.00     0.136 C 
HETATM   26  C   UNL     1       4.327   7.224  18.188  1.00  0.00     0.015 C 
HETATM   27  C   UNL     1       2.772   8.405  19.551  1.00  0.00     0.069 C 
HETATM   28  N   UNL     1       6.221   4.639  15.664  1.00  0.00    -0.308 N 
ENDROOT
BRANCH  11  29
HETATM   29  O   UNL     1       4.263   8.665  21.434  1.00  0.00    -0.365 OA
ATOM     30  HO  UNL     1       4.333   9.496  21.890  1.00  0.00     0.213 HD
ENDBRANCH  11  29
BRANCH  11  31
HETATM   31  O   UNL     1       4.326  10.180  19.771  1.00  0.00    -0.365 OA
ATOM     32  HO  UNL     1       4.312  10.263  18.825  1.00  0.00     0.213 HD
ENDBRANCH  11  31
BRANCH  18  33
HETATM   33  O   UNL     1       3.664   4.258  17.955  1.00  0.00    -0.310 OA
ATOM     34  HO  UNL     1       2.891   4.743  18.217  1.00  0.00     0.237 HD
ENDBRANCH  18  33
TORSDOF 3
ENDMDL
MODEL 3
REMARK VINA RESULT:      -9.6      1.627      3.445
REMARK  3 active torsions:
REMARK  status: ('A' for Active; 'I' for Inactive)
REMARK    1  A    between atoms: C_11  and  O_12 
REMARK    2  A    between atoms: C_11  and  O_31 
REMARK    3  A    between atoms: N_20  and  O_22 
ROOT
HETATM    1  C   UNL     1       7.897   8.070  16.935  1.00  0.00    -0.060 C 
HETATM    2  C   UNL     1       7.588   5.954  15.847  1.00  0.00     0.032 C 
HETATM    3  C   UNL     1       4.482   7.139  19.436  1.00  0.00     0.331 C 
HETATM    4  C   UNL     1       8.341   7.117  16.023  1.00  0.00     0.009 C 
HETATM    5  C   UNL     1       4.044   5.220  16.410  1.00  0.00     0.272 C 
HETATM    6  C   UNL     1       0.780   7.875  19.779  1.00  0.00     0.024 C 
HETATM    7  O   UNL     1       3.101   4.889  15.701  1.00  0.00    -0.266 OA
HETATM    8  C   UNL     1       7.038   7.668  17.949  1.00  0.00     0.039 C 
HETATM    9  N   UNL     1       4.911   6.527  18.283  1.00  0.00    -0.257 N 
HETATM   10  C   UNL     1       6.385   5.836  16.545  1.00  0.00     0.062 C 
HETATM   11  C   UNL     1      -3.252   6.621  19.420  1.00  0.00     0.163 C 
HETATM   12  C   UNL     1      -1.611   5.902  17.734  1.00  0.00     0.012 C 
HETATM   13  C   UNL     1      -0.098   8.325  20.950  1.00  0.00     0.008 C 
HETATM   14  O   UNL     1       5.159   7.583  20.342  1.00  0.00    -0.246 OA
HETATM   15  C   UNL     1      -1.836   6.822  19.965  1.00  0.00     0.053 C 
HETATM   16  C   UNL     1       0.483   6.462  19.296  1.00  0.00     0.099 C 
HETATM   17  C   UNL     1       8.114   9.535  16.681  1.00  0.00     0.048 C 
HETATM   18  N   UNL     1       1.389   6.002  18.204  1.00  0.00    -0.165 NA
HETATM   19  C   UNL     1       2.767   5.953  18.689  1.00  0.00     0.246 C 
HETATM   20  N   UNL     1       5.367   4.986  16.099  1.00  0.00    -0.320 N 
ATOM     21  HN  UNL     1       5.609   4.174  15.531  1.00  0.00     0.169 HD
HETATM   22  C   UNL     1       3.861   5.864  17.722  1.00  0.00     0.129 C 
HETATM   23  C   UNL     1       6.151   6.636  17.669  1.00  0.00     0.071 C 
HETATM   24  C   UNL     1      -1.593   8.153  20.681  1.00  0.00     0.011 C 
HETATM   25  C   UNL     1       2.256   8.168  19.944  1.00  0.00     0.136 C 
HETATM   26  C   UNL     1      -0.905   6.753  18.762  1.00  0.00     0.015 C 
HETATM   27  C   UNL     1      -3.082   6.206  17.968  1.00  0.00     0.069 C 
HETATM   28  N   UNL     1       3.111   7.162  19.357  1.00  0.00    -0.308 N 
ENDROOT
BRANCH  11  29
HETATM   29  O   UNL     1      -3.999   5.683  20.141  1.00  0.00    -0.365 OA
ATOM     30  HO  UNL     1      -4.923   5.685  19.921  1.00  0.00     0.213 HD
ENDBRANCH  11  29
BRANCH  11  31
HETATM   31  O   UNL     1      -4.012   7.820  19.434  1.00  0.00    -0.365 OA
ATOM     32  HO  UNL     1      -4.077   8.078  20.345  1.00  0.00     0.213 HD
ENDBRANCH  11  31
BRANCH  18  33
HETATM   33  O   UNL     1       1.156   4.606  18.102  1.00  0.00    -0.310 OA
ATOM     34  HO  UNL     1       0.824   4.353  18.955  1.00  0.00     0.237 HD
ENDBRANCH  18  33
TORSDOF 3
ENDMDL
MODEL 4
REMARK VINA RESULT:      -9.5      2.211      8.233
REMARK  3 active torsions:
REMARK  status: ('A' for Active; 'I' for Inactive)
REMARK    1  A    between atoms: C_11  and  O_12 
REMARK    2  A    between atoms: C_11  and  O_31 
REMARK    3  A    between atoms: N_20  and  O_22 
ROOT
HETATM    1  C   UNL     1      -1.899   5.285  21.654  1.00  0.00    -0.060 C 
HETATM    2  C   UNL     1      -2.651   4.506  19.513  1.00  0.00     0.032 C 
HETATM    3  C   UNL     1       1.252   7.453  19.615  1.00  0.00     0.331 C 
HETATM    4  C   UNL     1      -2.837   4.593  20.895  1.00  0.00     0.009 C 
HETATM    5  C   UNL     1       0.352   4.728  17.427  1.00  0.00     0.272 C 
HETATM    6  C   UNL     1       4.941   7.212  18.775  1.00  0.00     0.024 C 
HETATM    7  O   UNL     1       0.944   3.966  16.672  1.00  0.00    -0.266 OA
HETATM    8  C   UNL     1      -1.104   6.234  21.024  1.00  0.00     0.039 C 
HETATM    9  N   UNL     1       0.420   6.470  19.136  1.00  0.00    -0.257 N 
HETATM   10  C   UNL     1      -1.490   5.057  18.969  1.00  0.00     0.062 C 
HETATM   11  C   UNL     1       8.014   6.550  15.934  1.00  0.00     0.163 C 
HETATM   12  C   UNL     1       5.952   5.213  15.813  1.00  0.00     0.012 C 
HETATM   13  C   UNL     1       6.118   8.181  18.922  1.00  0.00     0.008 C 
HETATM   14  O   UNL     1       0.979   8.357  20.380  1.00  0.00    -0.246 OA
HETATM   15  C   UNL     1       6.914   7.230  16.751  1.00  0.00     0.053 C 
HETATM   16  C   UNL     1       4.563   6.920  17.329  1.00  0.00     0.099 C 
HETATM   17  C   UNL     1      -1.559   4.838  23.047  1.00  0.00     0.048 C 
HETATM   18  N   UNL     1       3.371   6.033  17.192  1.00  0.00    -0.165 NA
HETATM   19  C   UNL     1       2.196   6.689  17.763  1.00  0.00     0.246 C 
HETATM   20  N   UNL     1      -0.988   4.624  17.737  1.00  0.00    -0.320 N 
ATOM     21  HN  UNL     1      -1.628   4.222  17.052  1.00  0.00     0.169 HD
HETATM   22  C   UNL     1       1.004   5.891  18.050  1.00  0.00     0.129 C 
HETATM   23  C   UNL     1      -0.764   6.007  19.696  1.00  0.00     0.071 C 
HETATM   24  C   UNL     1       7.348   7.757  18.122  1.00  0.00     0.011 C 
HETATM   25  C   UNL     1       3.756   7.514  19.668  1.00  0.00     0.136 C 
HETATM   26  C   UNL     1       5.834   6.178  16.969  1.00  0.00     0.015 C 
HETATM   27  C   UNL     1       7.439   5.212  15.499  1.00  0.00     0.069 C 
HETATM   28  N   UNL     1       2.484   7.201  19.060  1.00  0.00    -0.308 N 
ENDROOT
BRANCH  11  29
HETATM   29  O   UNL     1       8.443   7.307  14.838  1.00  0.00    -0.365 OA
ATOM     30  HO  UNL     1       8.528   8.234  15.029  1.00  0.00     0.213 HD
ENDBRANCH  11  29
BRANCH  11  31
HETATM   31  O   UNL     1       9.175   6.283  16.704  1.00  0.00    -0.365 OA
ATOM     32  HO  UNL     1       8.942   6.475  17.604  1.00  0.00     0.213 HD
ENDBRANCH  11  31
BRANCH  18  33
HETATM   33  O   UNL     1       3.011   6.119  15.822  1.00  0.00    -0.310 OA
ATOM     34  HO  UNL     1       3.837   6.174  15.357  1.00  0.00     0.237 HD
ENDBRANCH  18  33
TORSDOF 3
ENDMDL
MODEL 5
REMARK VINA RESULT:      -9.4      2.855      8.509
REMARK  3 active torsions:
REMARK  status: ('A' for Active; 'I' for Inactive)
REMARK    1  A    between atoms: C_11  and  O_12 
REMARK    2  A    between atoms: C_11  and  O_31 
REMARK    3  A    between atoms: N_20  and  O_22 
ROOT
HETATM    1  C   UNL     1      -0.071   6.771  18.807  1.00  0.00    -0.060 C 
HETATM    2  C   UNL     1       0.565   8.491  20.354  1.00  0.00     0.032 C 
HETATM    3  C   UNL     1       4.113   5.684  18.492  1.00  0.00     0.331 C 
HETATM    4  C   UNL     1      -0.438   7.775  19.697  1.00  0.00     0.009 C 
HETATM    5  C   UNL     1       4.065   9.149  19.498  1.00  0.00     0.272 C 
HETATM    6  C   UNL     1       7.125   6.140  16.237  1.00  0.00     0.024 C 
HETATM    7  O   UNL     1       4.727  10.151  19.252  1.00  0.00    -0.266 OA
HETATM    8  C   UNL     1       1.187   6.196  18.936  1.00  0.00     0.039 C 
HETATM    9  N   UNL     1       3.543   6.809  19.038  1.00  0.00    -0.257 N 
HETATM   10  C   UNL     1       1.894   8.212  20.029  1.00  0.00     0.062 C 
HETATM   11  C   UNL     1      10.889   7.930  15.472  1.00  0.00     0.163 C 
HETATM   12  C   UNL     1       9.128   9.250  16.571  1.00  0.00     0.012 C 
HETATM   13  C   UNL     1       8.144   5.168  15.635  1.00  0.00     0.008 C 
HETATM   14  O   UNL     1       3.710   4.538  18.550  1.00  0.00    -0.246 OA
HETATM   15  C   UNL     1       9.812   6.991  16.019  1.00  0.00     0.053 C 
HETATM   16  C   UNL     1       7.718   7.090  17.269  1.00  0.00     0.099 C 
HETATM   17  C   UNL     1      -0.888   6.500  17.575  1.00  0.00     0.048 C 
HETATM   18  N   UNL     1       6.709   7.985  17.905  1.00  0.00    -0.165 NA
HETATM   19  C   UNL     1       5.732   7.186  18.645  1.00  0.00     0.246 C 
HETATM   20  N   UNL     1       2.908   9.150  20.247  1.00  0.00    -0.320 N 
ATOM     21  HN  UNL     1       2.789   9.851  20.979  1.00  0.00     0.169 HD
HETATM   22  C   UNL     1       4.473   7.804  19.060  1.00  0.00     0.129 C 
HETATM   23  C   UNL     1       2.217   7.004  19.401  1.00  0.00     0.071 C 
HETATM   24  C   UNL     1       9.381   5.867  15.072  1.00  0.00     0.011 C 
HETATM   25  C   UNL     1       5.821   5.503  16.669  1.00  0.00     0.136 C 
HETATM   26  C   UNL     1       8.595   7.862  16.305  1.00  0.00     0.015 C 
HETATM   27  C   UNL     1      10.356   9.338  15.681  1.00  0.00     0.069 C 
HETATM   28  N   UNL     1       5.244   6.116  17.843  1.00  0.00    -0.308 N 
ENDROOT
BRANCH  11  29
HETATM   29  O   UNL     1      12.139   7.756  16.077  1.00  0.00    -0.365 OA
ATOM     30  HO  UNL     1      12.166   7.029  16.687  1.00  0.00     0.213 HD
ENDBRANCH  11  29
BRANCH  11  31
HETATM   31  O   UNL     1      11.101   7.758  14.079  1.00  0.00    -0.365 OA
ATOM     32  HO  UNL     1      11.487   8.570  13.771  1.00  0.00     0.213 HD
ENDBRANCH  11  31
BRANCH  18  33
HETATM   33  O   UNL     1       7.382   8.564  19.011  1.00  0.00    -0.310 OA
ATOM     34  HO  UNL     1       7.770   9.361  18.670  1.00  0.00     0.237 HD
ENDBRANCH  18  33
TORSDOF 3
ENDMDL
MODEL 6
REMARK VINA RESULT:      -9.4      2.086      8.432
REMARK  3 active torsions:
REMARK  status: ('A' for Active; 'I' for Inactive)
REMARK    1  A    between atoms: C_11  and  O_12 
REMARK    2  A    between atoms: C_11  and  O_31 
REMARK    3  A    between atoms: N_20  and  O_22 
ROOT
HETATM    1  C   UNL     1      -1.581   7.354  20.989  1.00  0.00    -0.060 C 
HETATM    2  C   UNL     1      -2.765   5.915  19.479  1.00  0.00     0.032 C 
HETATM    3  C   UNL     1       1.588   7.627  18.045  1.00  0.00     0.331 C 
HETATM    4  C   UNL     1      -2.731   6.636  20.674  1.00  0.00     0.009 C 
HETATM    5  C   UNL     1      -0.107   4.508  17.389  1.00  0.00     0.272 C 
HETATM    6  C   UNL     1       5.008   6.204  17.242  1.00  0.00     0.024 C 
HETATM    7  O   UNL     1       0.220   3.380  17.040  1.00  0.00    -0.266 OA
HETATM    8  C   UNL     1      -0.724   7.722  19.960  1.00  0.00     0.039 C 
HETATM    9  N   UNL     1       0.528   6.754  18.107  1.00  0.00    -0.257 N 
HETATM   10  C   UNL     1      -1.613   5.891  18.691  1.00  0.00     0.062 C 
HETATM   11  C   UNL     1       7.462   3.682  14.882  1.00  0.00     0.163 C 
HETATM   12  C   UNL     1       5.194   2.939  15.480  1.00  0.00     0.012 C 
HETATM   13  C   UNL     1       6.352   6.840  16.876  1.00  0.00     0.008 C 
HETATM   14  O   UNL     1       1.599   8.810  18.323  1.00  0.00    -0.246 OA
HETATM   15  C   UNL     1       6.637   4.883  15.347  1.00  0.00     0.053 C 
HETATM   16  C   UNL     1       4.378   5.405  16.108  1.00  0.00     0.099 C 
HETATM   17  C   UNL     1      -1.132   7.495  22.416  1.00  0.00     0.048 C 
HETATM   18  N   UNL     1       3.036   4.847  16.446  1.00  0.00    -0.165 NA
HETATM   19  C   UNL     1       2.097   5.938  16.707  1.00  0.00     0.246 C 
HETATM   20  N   UNL     1      -1.383   4.861  17.772  1.00  0.00    -0.320 N 
ATOM     21  HN  UNL     1      -2.178   4.359  17.376  1.00  0.00     0.169 HD
HETATM   22  C   UNL     1       0.832   5.643  17.380  1.00  0.00     0.129 C 
HETATM   23  C   UNL     1      -0.627   6.867  18.869  1.00  0.00     0.071 C 
HETATM   24  C   UNL     1       7.354   5.840  16.303  1.00  0.00     0.011 C 
HETATM   25  C   UNL     1       4.041   7.128  17.951  1.00  0.00     0.136 C 
HETATM   26  C   UNL     1       5.425   4.310  16.070  1.00  0.00     0.015 C 
HETATM   27  C   UNL     1       6.595   2.460  15.134  1.00  0.00     0.069 C 
HETATM   28  N   UNL     1       2.658   6.882  17.612  1.00  0.00    -0.308 N 
ENDROOT
BRANCH  11  29
HETATM   29  O   UNL     1       7.861   3.764  13.543  1.00  0.00    -0.365 OA
ATOM     30  HO  UNL     1       8.476   4.467  13.374  1.00  0.00     0.213 HD
ENDBRANCH  11  29
BRANCH  11  31
HETATM   31  O   UNL     1       8.654   3.519  15.635  1.00  0.00    -0.365 OA
ATOM     32  HO  UNL     1       9.123   2.799  15.231  1.00  0.00     0.213 HD
ENDBRANCH  11  31
BRANCH  18  33
HETATM   33  O   UNL     1       2.503   4.408  15.207  1.00  0.00    -0.310 OA
ATOM     34  HO  UNL     1       1.629   4.102  15.413  1.00  0.00     0.237 HD
ENDBRANCH  18  33
TORSDOF 3
ENDMDL
MODEL 7
REMARK VINA RESULT:      -9.4      4.211      8.747
REMARK  3 active torsions:
REMARK  status: ('A' for Active; 'I' for Inactive)
REMARK    1  A    between atoms: C_11  and  O_12 
REMARK    2  A    between atoms: C_11  and  O_31 
REMARK    3  A    between atoms: N_20  and  O_22 
ROOT
HETATM    1  C   UNL     1       3.970   7.180  19.008  1.00  0.00    -0.060 C 
HETATM    2  C   UNL     1       6.260   7.726  18.545  1.00  0.00     0.032 C 
HETATM    3  C   UNL     1       4.467   3.611  16.600  1.00  0.00     0.331 C 
HETATM    4  C   UNL     1       5.071   8.003  19.224  1.00  0.00     0.009 C 
HETATM    5  C   UNL     1       6.936   5.959  15.409  1.00  0.00     0.272 C 
HETATM    6  C   UNL     1       3.745   2.258  13.134  1.00  0.00     0.024 C 
HETATM    7  O   UNL     1       7.413   6.266  14.323  1.00  0.00    -0.266 OA
HETATM    8  C   UNL     1       4.186   5.893  18.532  1.00  0.00     0.039 C 
HETATM    9  N   UNL     1       5.280   4.714  16.702  1.00  0.00    -0.257 N 
HETATM   10  C   UNL     1       6.264   6.677  17.625  1.00  0.00     0.062 C 
HETATM   11  C   UNL     1       5.115   1.106   9.294  1.00  0.00     0.163 C 
HETATM   12  C   UNL     1       6.115   3.068  10.392  1.00  0.00     0.012 C 
HETATM   13  C   UNL     1       3.095   0.969  12.623  1.00  0.00     0.008 C 
HETATM   14  O   UNL     1       3.846   3.056  17.485  1.00  0.00    -0.246 OA
HETATM   15  C   UNL     1       4.790   1.077  10.788  1.00  0.00     0.053 C 
HETATM   16  C   UNL     1       5.229   2.366  12.813  1.00  0.00     0.099 C 
HETATM   17  C   UNL     1       2.577   7.743  19.024  1.00  0.00     0.048 C 
HETATM   18  N   UNL     1       5.873   3.590  13.375  1.00  0.00    -0.165 NA
HETATM   19  C   UNL     1       5.804   3.560  14.836  1.00  0.00     0.246 C 
HETATM   20  N   UNL     1       7.201   6.623  16.587  1.00  0.00    -0.320 N 
ATOM     21  HN  UNL     1       8.102   7.087  16.706  1.00  0.00     0.169 HD
HETATM   22  C   UNL     1       6.057   4.791  15.586  1.00  0.00     0.129 C 
HETATM   23  C   UNL     1       5.268   5.695  17.685  1.00  0.00     0.071 C 
HETATM   24  C   UNL     1       3.342   0.720  11.136  1.00  0.00     0.011 C 
HETATM   25  C   UNL     1       3.399   2.619  14.564  1.00  0.00     0.136 C 
HETATM   26  C   UNL     1       5.070   2.480  11.311  1.00  0.00     0.015 C 
HETATM   27  C   UNL     1       5.797   2.441   9.044  1.00  0.00     0.069 C 
HETATM   28  N   UNL     1       4.483   3.258  15.273  1.00  0.00    -0.308 N 
ENDROOT
BRANCH  11  29
HETATM   29  O   UNL     1       5.912   0.034   8.876  1.00  0.00    -0.365 OA
ATOM     30  HO  UNL     1       6.476  -0.306   9.560  1.00  0.00     0.213 HD
ENDBRANCH  11  29
BRANCH  11  31
HETATM   31  O   UNL     1       3.950   1.066   8.484  1.00  0.00    -0.365 OA
ATOM     32  HO  UNL     1       3.215   1.124   9.082  1.00  0.00     0.213 HD
ENDBRANCH  11  31
BRANCH  18  33
HETATM   33  O   UNL     1       7.267   3.366  13.230  1.00  0.00    -0.310 OA
ATOM     34  HO  UNL     1       7.665   4.217  13.368  1.00  0.00     0.237 HD
ENDBRANCH  18  33
TORSDOF 3
ENDMDL
MODEL 8
REMARK VINA RESULT:      -9.3      3.871      7.740
REMARK  3 active torsions:
REMARK  status: ('A' for Active; 'I' for Inactive)
REMARK    1  A    between atoms: C_11  and  O_12 
REMARK    2  A    between atoms: C_11  and  O_31 
REMARK    3  A    between atoms: N_20  and  O_22 
ROOT
HETATM    1  C   UNL     1       4.116   8.127  19.750  1.00  0.00    -0.060 C 
HETATM    2  C   UNL     1       6.231   8.651  18.746  1.00  0.00     0.032 C 
HETATM    3  C   UNL     1       4.119   4.415  17.513  1.00  0.00     0.331 C 
HETATM    4  C   UNL     1       5.222   8.966  19.660  1.00  0.00     0.009 C 
HETATM    5  C   UNL     1       6.211   6.692  15.652  1.00  0.00     0.272 C 
HETATM    6  C   UNL     1       2.655   2.844  14.389  1.00  0.00     0.024 C 
HETATM    7  O   UNL     1       6.424   6.932  14.469  1.00  0.00    -0.266 OA
HETATM    8  C   UNL     1       4.241   6.813  19.316  1.00  0.00     0.039 C 
HETATM    9  N   UNL     1       4.914   5.524  17.360  1.00  0.00    -0.257 N 
HETATM   10  C   UNL     1       6.045   7.546  17.915  1.00  0.00     0.062 C 
HETATM   11  C   UNL     1       3.141   1.457  10.415  1.00  0.00     0.163 C 
HETATM   12  C   UNL     1       4.327   3.488  11.136  1.00  0.00     0.012 C 
HETATM   13  C   UNL     1       1.929   1.522  14.118  1.00  0.00     0.008 C 
HETATM   14  O   UNL     1       3.724   3.914  18.547  1.00  0.00    -0.246 OA
HETATM   15  C   UNL     1       3.162   1.521  11.943  1.00  0.00     0.053 C 
HETATM   16  C   UNL     1       4.026   2.937  13.734  1.00  0.00     0.099 C 
HETATM   17  C   UNL     1       2.753   8.684  20.047  1.00  0.00     0.048 C 
HETATM   18  N   UNL     1       4.758   4.195  14.060  1.00  0.00    -0.165 NA
HETATM   19  C   UNL     1       5.022   4.258  15.497  1.00  0.00     0.246 C 
HETATM   20  N   UNL     1       6.724   7.430  16.697  1.00  0.00    -0.320 N 
ATOM     21  HN  UNL     1       7.620   7.904  16.579  1.00  0.00     0.169 HD
HETATM   22  C   UNL     1       5.416   5.534  16.094  1.00  0.00     0.129 C 
HETATM   23  C   UNL     1       5.107   6.566  18.258  1.00  0.00     0.071 C 
HETATM   24  C   UNL     1       1.838   1.181  12.632  1.00  0.00     0.011 C 
HETATM   25  C   UNL     1       2.635   3.292  15.836  1.00  0.00     0.136 C 
HETATM   26  C   UNL     1       3.529   2.955  12.302  1.00  0.00     0.015 C 
HETATM   27  C   UNL     1       3.724   2.776   9.936  1.00  0.00     0.069 C 
HETATM   28  N   UNL     1       3.840   3.979  16.240  1.00  0.00    -0.308 N 
ENDROOT
BRANCH  11  29
HETATM   29  O   UNL     1       3.841   0.364   9.893  1.00  0.00    -0.365 OA
ATOM     30  HO  UNL     1       4.458  -0.018  10.506  1.00  0.00     0.213 HD
ENDBRANCH  11  29
BRANCH  11  31
HETATM   31  O   UNL     1       1.824   1.361   9.895  1.00  0.00    -0.365 OA
ATOM     32  HO  UNL     1       1.272   1.859  10.487  1.00  0.00     0.213 HD
ENDBRANCH  11  31
BRANCH  18  33
HETATM   33  O   UNL     1       6.086   3.968  13.616  1.00  0.00    -0.310 OA
ATOM     34  HO  UNL     1       6.423   4.830  13.406  1.00  0.00     0.237 HD
ENDBRANCH  18  33
TORSDOF 3
ENDMDL
MODEL 9
REMARK VINA RESULT:      -8.8      4.942      7.915
REMARK  3 active torsions:
REMARK  status: ('A' for Active; 'I' for Inactive)
REMARK    1  A    between atoms: C_11  and  O_12 
REMARK    2  A    between atoms: C_11  and  O_31 
REMARK    3  A    between atoms: N_20  and  O_22 
ROOT
HETATM    1  C   UNL     1       2.770   0.896  10.094  1.00  0.00    -0.060 C 
HETATM    2  C   UNL     1       1.586  -0.005  11.977  1.00  0.00     0.032 C 
HETATM    3  C   UNL     1       5.782   2.355  12.847  1.00  0.00     0.331 C 
HETATM    4  C   UNL     1       1.713   0.140  10.593  1.00  0.00     0.009 C 
HETATM    5  C   UNL     1       2.744   2.059  14.772  1.00  0.00     0.272 C 
HETATM    6  C   UNL     1       6.876   5.516  14.629  1.00  0.00     0.024 C 
HETATM    7  O   UNL     1       2.200   2.691  15.670  1.00  0.00    -0.266 OA
HETATM    8  C   UNL     1       3.890   1.081  10.893  1.00  0.00     0.039 C 
HETATM    9  N   UNL     1       4.522   1.874  13.109  1.00  0.00    -0.257 N 
HETATM   10  C   UNL     1       2.486   0.679  12.796  1.00  0.00     0.062 C 
HETATM   11  C   UNL     1       7.180   7.795  18.189  1.00  0.00     0.163 C 
HETATM   12  C   UNL     1       5.161   6.448  17.789  1.00  0.00     0.012 C 
HETATM   13  C   UNL     1       8.226   6.225  14.778  1.00  0.00     0.008 C 
HETATM   14  O   UNL     1       6.579   1.954  12.022  1.00  0.00    -0.246 OA
HETATM   15  C   UNL     1       7.464   6.759  17.099  1.00  0.00     0.053 C 
HETATM   16  C   UNL     1       6.342   4.933  15.931  1.00  0.00     0.099 C 
HETATM   17  C   UNL     1       2.603   1.717   8.847  1.00  0.00     0.048 C 
HETATM   18  N   UNL     1       5.064   4.181  15.767  1.00  0.00    -0.165 NA
HETATM   19  C   UNL     1       5.276   3.026  14.895  1.00  0.00     0.246 C 
HETATM   20  N   UNL     1       2.171   0.986  14.124  1.00  0.00    -0.320 N 
ATOM     21  HN  UNL     1       1.501   0.401  14.625  1.00  0.00     0.169 HD
HETATM   22  C   UNL     1       4.115   2.346  14.321  1.00  0.00     0.129 C 
HETATM   23  C   UNL     1       3.697   1.140  12.267  1.00  0.00     0.071 C 
HETATM   24  C   UNL     1       8.230   7.283  15.881  1.00  0.00     0.011 C 
HETATM   25  C   UNL     1       6.785   4.569  13.451  1.00  0.00     0.136 C 
HETATM   26  C   UNL     1       6.105   6.259  16.625  1.00  0.00     0.015 C 
HETATM   27  C   UNL     1       5.693   7.692  18.482  1.00  0.00     0.069 C 
HETATM   28  N   UNL     1       5.966   3.408  13.710  1.00  0.00    -0.308 N 
ENDROOT
BRANCH  11  29
HETATM   29  O   UNL     1       7.948   7.612  19.344  1.00  0.00    -0.365 OA
ATOM     30  HO  UNL     1       8.875   7.770  19.212  1.00  0.00     0.213 HD
ENDBRANCH  11  29
BRANCH  11  31
HETATM   31  O   UNL     1       7.437   9.122  17.755  1.00  0.00    -0.365 OA
ATOM     32  HO  UNL     1       8.259   9.087  17.280  1.00  0.00     0.213 HD
ENDBRANCH  11  31
BRANCH  18  33
HETATM   33  O   UNL     1       4.892   3.487  16.992  1.00  0.00    -0.310 OA
ATOM     34  HO  UNL     1       5.774   3.322  17.304  1.00  0.00     0.237 HD
ENDBRANCH  18  33
TORSDOF 3
ENDMDL
