REMARK  4 active torsions:
REMARK  status: ('A' for Active; 'I' for Inactive)
REMARK    1  A    between atoms: N_5  and  C_9 
REMARK    2  A    between atoms: C_16  and  C_32 
REMARK    3  A    between atoms: N_21  and  C_24 
REMARK    4  A    between atoms: C_22  and  C_25 
ROOT
HETATM    1  C   UNL     1     -18.829   0.225  63.717  1.00  0.00     0.002 C 
HETATM    2  C   UNL     1     -19.903   2.004  62.528  1.00  0.00     0.014 C 
HETATM    3  C   UNL     1     -19.415   0.707  62.558  1.00  0.00     0.001 C 
HETATM    4  C   UNL     1     -19.151   2.348  64.777  1.00  0.00     0.050 C 
HETATM    5  C   UNL     1     -20.868   3.752  63.921  1.00  0.00     0.027 C 
HETATM    6  C   UNL     1     -20.427   3.526  66.268  1.00  0.00     0.111 C 
HETATM    7  N   UNL     1     -19.174   3.194  65.870  1.00  0.00    -0.310 N 
HETATM    8  C   UNL     1     -19.966   2.720  63.712  1.00  0.00    -0.008 C 
HETATM    9  C   UNL     1     -18.599   1.075  64.789  1.00  0.00     0.031 C 
HETATM   10  C   UNL     1     -21.137   4.123  65.235  1.00  0.00    -0.009 C 
ENDROOT
BRANCH   7  11
HETATM   11  C   UNL     1     -18.101   3.830  66.381  1.00  0.00     0.084 C 
HETATM   12  N   UNL     1     -16.995   4.024  65.691  1.00  0.00    -0.344 N 
ATOM     13  HN  UNL     1     -16.645   3.180  65.237  1.00  0.00     0.167 HD
HETATM   14  C   UNL     1     -18.151   4.334  67.801  1.00  0.00     0.089 C 
BRANCH  12  15
HETATM   15  C   UNL     1     -16.226   5.124  65.462  1.00  0.00     0.057 C 
HETATM   16  C   UNL     1     -16.438   6.070  64.466  1.00  0.00     0.118 C 
HETATM   17  N   UNL     1     -15.214   6.523  64.095  1.00  0.00    -0.363 N 
HETATM   18  C   UNL     1     -14.283   6.092  64.984  1.00  0.00     0.036 C 
ATOM     19  HN  UNL     1     -15.023   7.098  63.275  1.00  0.00     0.165 HD
HETATM   20  C   UNL     1     -12.891   6.027  65.126  1.00  0.00     0.004 C 
HETATM   21  C   UNL     1     -14.916   5.337  65.965  1.00  0.00    -0.003 C 
HETATM   22  C   UNL     1     -12.657   5.361  66.387  1.00  0.00     0.034 C 
HETATM   23  C   UNL     1     -13.912   5.013  66.961  1.00  0.00     0.047 C 
ENDBRANCH  12  15
ENDBRANCH   7  11
BRANCH  10  24
HETATM   24  C   UNL     1     -22.000   5.159  65.533  1.00  0.00    -0.025 C 
HETATM   25  C   UNL     1     -22.145   5.641  66.831  1.00  0.00     0.013 C 
HETATM   26  C   UNL     1     -22.356   7.007  67.001  1.00  0.00     0.008 C 
HETATM   27  C   UNL     1     -22.582   7.814  65.886  1.00  0.00    -0.055 C 
HETATM   28  C   UNL     1     -22.790   7.228  64.651  1.00  0.00     0.008 C 
HETATM   29  C   UNL     1     -22.594   5.861  64.487  1.00  0.00     0.013 C 
BRANCH  27  30
HETATM   30  C   UNL     1     -22.590   9.320  65.992  1.00  0.00     0.010 C 
HETATM   31  C   UNL     1     -22.793   9.852  67.393  1.00  0.00     0.015 C 
HETATM   32  C   UNL     1     -23.625   9.892  65.035  1.00  0.00     0.015 C 
ENDBRANCH  27  30
ENDBRANCH  10  24
TORSDOF 4
