MODEL 1
REMARK VINA RESULT:      -8.6      0.000      0.000
REMARK  0 active torsions:
REMARK  status: ('A' for Active; 'I' for Inactive)
ROOT
HETATM    1  C   UNL     1      19.664   9.976  11.430  1.00  0.00     0.014 C 
HETATM    2  C   UNL     1      17.535   9.903   9.931  1.00  0.00    -0.044 C 
HETATM    3  C   UNL     1      18.308   9.826  11.177  1.00  0.00    -0.005 C 
HETATM    4  C   UNL     1      19.239   9.552  13.765  1.00  0.00     0.002 C 
HETATM    5  C   UNL     1      20.127   9.765  12.722  1.00  0.00     0.001 C 
HETATM    6  N   UNL     1      16.179   9.155  11.641  1.00  0.00    -0.380 N 
ATOM      7  HN  UNL     1      15.490   8.520  12.043  1.00  0.00     0.160 HD
HETATM    8  C   UNL     1      13.983   9.551   8.824  1.00  0.00     0.007 C 
HETATM    9  C   UNL     1      13.516   8.752   7.583  1.00  0.00     0.000 C 
HETATM   10  C   UNL     1      15.417   9.093   9.169  1.00  0.00     0.017 C 
HETATM   11  C   UNL     1      16.048   9.880  10.351  1.00  0.00     0.116 C 
HETATM   12  C   UNL     1      15.963   8.669   6.862  1.00  0.00     0.005 C 
HETATM   13  C   UNL     1      17.675   9.459   8.500  1.00  0.00     0.042 C 
HETATM   14  C   UNL     1      17.861   9.482  13.528  1.00  0.00     0.030 C 
HETATM   15  C   UNL     1      16.232   9.708   7.977  1.00  0.00    -0.004 C 
HETATM   16  C   UNL     1      14.507   8.844   6.419  1.00  0.00     0.000 C 
HETATM   17  C   UNL     1      17.415   9.497  12.212  1.00  0.00     0.039 C 
ENDROOT
TORSDOF 0
ENDMDL
MODEL 2
REMARK VINA RESULT:      -8.5      1.480      3.003
REMARK  0 active torsions:
REMARK  status: ('A' for Active; 'I' for Inactive)
ROOT
HETATM    1  C   UNL     1      15.343   9.787  11.862  1.00  0.00     0.014 C 
HETATM    2  C   UNL     1      15.188   9.445   9.285  1.00  0.00    -0.044 C 
HETATM    3  C   UNL     1      15.830   9.778  10.563  1.00  0.00    -0.005 C 
HETATM    4  C   UNL     1      17.508  10.524  12.629  1.00  0.00     0.002 C 
HETATM    5  C   UNL     1      16.176  10.233  12.881  1.00  0.00     0.001 C 
HETATM    6  N   UNL     1      17.285  10.324   8.894  1.00  0.00    -0.380 N 
ATOM      7  HN  UNL     1      17.934  10.950   8.418  1.00  0.00     0.160 HD
HETATM    8  C   UNL     1      16.089   9.312   5.660  1.00  0.00     0.007 C 
HETATM    9  C   UNL     1      15.216   9.869   4.509  1.00  0.00     0.000 C 
HETATM   10  C   UNL     1      15.588   9.941   6.979  1.00  0.00     0.017 C 
HETATM   11  C   UNL     1      16.323   9.402   8.237  1.00  0.00     0.116 C 
HETATM   12  C   UNL     1      13.312  10.054   6.199  1.00  0.00     0.005 C 
HETATM   13  C   UNL     1      13.866   9.676   8.605  1.00  0.00     0.042 C 
HETATM   14  C   UNL     1      18.025  10.436  11.330  1.00  0.00     0.030 C 
HETATM   15  C   UNL     1      14.202   9.225   7.155  1.00  0.00    -0.004 C 
HETATM   16  C   UNL     1      13.717   9.687   4.768  1.00  0.00     0.000 C 
HETATM   17  C   UNL     1      17.147  10.182  10.285  1.00  0.00     0.039 C 
ENDROOT
TORSDOF 0
ENDMDL
MODEL 3
REMARK VINA RESULT:      -8.5      0.949      5.938
REMARK  0 active torsions:
REMARK  status: ('A' for Active; 'I' for Inactive)
ROOT
HETATM    1  C   UNL     1      13.948   9.474   8.794  1.00  0.00     0.014 C 
HETATM    2  C   UNL     1      16.086   9.844  10.236  1.00  0.00    -0.044 C 
HETATM    3  C   UNL     1      15.315   9.509   9.032  1.00  0.00    -0.005 C 
HETATM    4  C   UNL     1      14.397   8.774   6.530  1.00  0.00     0.002 C 
HETATM    5  C   UNL     1      13.500   9.034   7.555  1.00  0.00     0.001 C 
HETATM    6  N   UNL     1      17.502   9.014   8.614  1.00  0.00    -0.380 N 
ATOM      7  HN  UNL     1      18.253   8.407   8.287  1.00  0.00     0.160 HD
HETATM    8  C   UNL     1      19.665  10.038  11.295  1.00  0.00     0.007 C 
HETATM    9  C   UNL     1      20.228   9.477  12.623  1.00  0.00     0.000 C 
HETATM   10  C   UNL     1      18.287   9.384  11.052  1.00  0.00     0.017 C 
HETATM   11  C   UNL     1      17.562   9.923   9.788  1.00  0.00     0.116 C 
HETATM   12  C   UNL     1      17.811   9.231  13.407  1.00  0.00     0.005 C 
HETATM   13  C   UNL     1      16.008   9.592  11.718  1.00  0.00     0.042 C 
HETATM   14  C   UNL     1      15.777   8.888   6.742  1.00  0.00     0.030 C 
HETATM   15  C   UNL     1      17.419  10.068  12.166  1.00  0.00    -0.004 C 
HETATM   16  C   UNL     1      19.243   9.624  13.787  1.00  0.00     0.000 C 
HETATM   17  C   UNL     1      16.230   9.136   8.031  1.00  0.00     0.039 C 
ENDROOT
TORSDOF 0
ENDMDL
MODEL 4
REMARK VINA RESULT:      -8.1      1.303      5.824
REMARK  0 active torsions:
REMARK  status: ('A' for Active; 'I' for Inactive)
ROOT
HETATM    1  C   UNL     1      14.940   9.164   7.521  1.00  0.00     0.014 C 
HETATM    2  C   UNL     1      16.301   9.848   9.634  1.00  0.00    -0.044 C 
HETATM    3  C   UNL     1      16.092   9.330   8.276  1.00  0.00    -0.005 C 
HETATM    4  C   UNL     1      16.285   8.267   5.732  1.00  0.00     0.002 C 
HETATM    5  C   UNL     1      15.043   8.562   6.273  1.00  0.00     0.001 C 
HETATM    6  N   UNL     1      18.275   8.964   8.828  1.00  0.00    -0.380 N 
ATOM      7  HN  UNL     1      19.111   8.386   8.908  1.00  0.00     0.160 HD
HETATM    8  C   UNL     1      19.141  10.430  11.993  1.00  0.00     0.007 C 
HETATM    9  C   UNL     1      19.135  10.057  13.495  1.00  0.00     0.000 C 
HETATM   10  C   UNL     1      17.998   9.649  11.308  1.00  0.00     0.017 C 
HETATM   11  C   UNL     1      17.830   9.994   9.803  1.00  0.00     0.116 C 
HETATM   12  C   UNL     1      16.616   9.709  13.279  1.00  0.00     0.005 C 
HETATM   13  C   UNL     1      15.639   9.750  10.981  1.00  0.00     0.042 C 
HETATM   14  C   UNL     1      17.458   8.509   6.458  1.00  0.00     0.030 C 
HETATM   15  C   UNL     1      16.735  10.377  11.889  1.00  0.00    -0.004 C 
HETATM   16  C   UNL     1      17.760  10.249  14.143  1.00  0.00     0.000 C 
HETATM   17  C   UNL     1      17.344   8.925   7.778  1.00  0.00     0.039 C 
ENDROOT
TORSDOF 0
ENDMDL
MODEL 5
REMARK VINA RESULT:      -8.0      1.409      5.631
REMARK  0 active torsions:
REMARK  status: ('A' for Active; 'I' for Inactive)
ROOT
HETATM    1  C   UNL     1      16.281   9.372   6.625  1.00  0.00     0.014 C 
HETATM    2  C   UNL     1      16.508   9.464   9.218  1.00  0.00    -0.044 C 
HETATM    3  C   UNL     1      15.808   9.427   7.928  1.00  0.00    -0.005 C 
HETATM    4  C   UNL     1      14.003   9.397   5.835  1.00  0.00     0.002 C 
HETATM    5  C   UNL     1      15.365   9.431   5.582  1.00  0.00     0.001 C 
HETATM    6  N   UNL     1      14.251   9.811   9.550  1.00  0.00    -0.380 N 
ATOM      7  HN  UNL     1      13.458  10.309   9.953  1.00  0.00     0.160 HD
HETATM    8  C   UNL     1      15.655   9.634  12.853  1.00  0.00     0.007 C 
HETATM    9  C   UNL     1      16.345  10.562  13.882  1.00  0.00     0.000 C 
HETATM   10  C   UNL     1      15.980  10.171  11.441  1.00  0.00     0.017 C 
HETATM   11  C   UNL     1      15.419   9.280  10.299  1.00  0.00     0.116 C 
HETATM   12  C   UNL     1      18.140  10.989  12.120  1.00  0.00     0.005 C 
HETATM   13  C   UNL     1      17.719  10.130   9.813  1.00  0.00     0.042 C 
HETATM   14  C   UNL     1      13.520   9.368   7.149  1.00  0.00     0.030 C 
HETATM   15  C   UNL     1      17.506   9.825  11.323  1.00  0.00    -0.004 C 
HETATM   16  C   UNL     1      17.839  10.742  13.602  1.00  0.00     0.000 C 
HETATM   17  C   UNL     1      14.429   9.509   8.190  1.00  0.00     0.039 C 
ENDROOT
TORSDOF 0
ENDMDL
MODEL 6
REMARK VINA RESULT:      -7.9      1.755      2.785
REMARK  0 active torsions:
REMARK  status: ('A' for Active; 'I' for Inactive)
ROOT
HETATM    1  C   UNL     1      17.922  10.473  13.497  1.00  0.00     0.014 C 
HETATM    2  C   UNL     1      17.921  10.136  10.914  1.00  0.00    -0.044 C 
HETATM    3  C   UNL     1      17.336  10.322  12.249  1.00  0.00    -0.005 C 
HETATM    4  C   UNL     1      15.722  10.625  14.472  1.00  0.00     0.002 C 
HETATM    5  C   UNL     1      17.099  10.552  14.614  1.00  0.00     0.001 C 
HETATM    6  N   UNL     1      15.631   9.864  10.805  1.00  0.00    -0.380 N 
ATOM      7  HN  UNL     1      14.788   9.368  10.517  1.00  0.00     0.160 HD
HETATM    8  C   UNL     1      16.750   9.675   7.395  1.00  0.00     0.007 C 
HETATM    9  C   UNL     1      17.312   8.627   6.404  1.00  0.00     0.000 C 
HETATM   10  C   UNL     1      17.175   9.255   8.819  1.00  0.00     0.017 C 
HETATM   11  C   UNL     1      16.750  10.271   9.915  1.00  0.00     0.116 C 
HETATM   12  C   UNL     1      19.237   8.281   8.045  1.00  0.00     0.005 C 
HETATM   13  C   UNL     1      19.049   9.364  10.287  1.00  0.00     0.042 C 
HETATM   14  C   UNL     1      15.128  10.556  13.205  1.00  0.00     0.030 C 
HETATM   15  C   UNL     1      18.718   9.540   8.778  1.00  0.00    -0.004 C 
HETATM   16  C   UNL     1      18.818   8.405   6.576  1.00  0.00     0.000 C 
HETATM   17  C   UNL     1      15.938  10.280  12.111  1.00  0.00     0.039 C 
ENDROOT
TORSDOF 0
ENDMDL
MODEL 7
REMARK VINA RESULT:      -7.6      1.618      5.559
REMARK  0 active torsions:
REMARK  status: ('A' for Active; 'I' for Inactive)
ROOT
HETATM    1  C   UNL     1      18.419   8.857   6.738  1.00  0.00     0.014 C 
HETATM    2  C   UNL     1      18.118   9.206   9.301  1.00  0.00    -0.044 C 
HETATM    3  C   UNL     1      17.758   9.285   7.880  1.00  0.00    -0.005 C 
HETATM    4  C   UNL     1      16.603   9.719   5.406  1.00  0.00     0.002 C 
HETATM    5  C   UNL     1      17.862   9.146   5.498  1.00  0.00     0.001 C 
HETATM    6  N   UNL     1      16.227  10.506   9.049  1.00  0.00    -0.380 N 
ATOM      7  HN  UNL     1      15.668  11.340   9.225  1.00  0.00     0.160 HD
HETATM    8  C   UNL     1      16.688  10.221  12.602  1.00  0.00     0.007 C 
HETATM    9  C   UNL     1      17.483  10.910  13.738  1.00  0.00     0.000 C 
HETATM   10  C   UNL     1      17.502  10.371  11.297  1.00  0.00     0.017 C 
HETATM   11  C   UNL     1      16.859   9.646  10.083  1.00  0.00     0.116 C 
HETATM   12  C   UNL     1      19.608  10.298  12.463  1.00  0.00     0.005 C 
HETATM   13  C   UNL     1      19.344   9.382  10.154  1.00  0.00     0.042 C 
HETATM   14  C   UNL     1      15.895  10.078   6.559  1.00  0.00     0.030 C 
HETATM   15  C   UNL     1      18.709   9.407  11.574  1.00  0.00    -0.004 C 
HETATM   16  C   UNL     1      18.928  10.409  13.831  1.00  0.00     0.000 C 
HETATM   17  C   UNL     1      16.534   9.970   7.788  1.00  0.00     0.039 C 
ENDROOT
TORSDOF 0
ENDMDL
MODEL 8
REMARK VINA RESULT:      -7.2      4.363      6.603
REMARK  0 active torsions:
REMARK  status: ('A' for Active; 'I' for Inactive)
ROOT
HETATM    1  C   UNL     1      13.182   4.776   9.278  1.00  0.00     0.014 C 
HETATM    2  C   UNL     1      13.721   6.856   7.805  1.00  0.00    -0.044 C 
HETATM    3  C   UNL     1      13.404   5.449   8.086  1.00  0.00    -0.005 C 
HETATM    4  C   UNL     1      12.854   2.741   8.027  1.00  0.00     0.002 C 
HETATM    5  C   UNL     1      12.979   3.402   9.239  1.00  0.00     0.001 C 
HETATM    6  N   UNL     1      13.895   5.618   5.865  1.00  0.00    -0.380 N 
ATOM      7  HN  UNL     1      14.372   5.329   5.012  1.00  0.00     0.160 HD
HETATM    8  C   UNL     1      14.400   9.025   4.839  1.00  0.00     0.007 C 
HETATM    9  C   UNL     1      15.547  10.060   4.742  1.00  0.00     0.000 C 
HETATM   10  C   UNL     1      14.727   8.064   6.004  1.00  0.00     0.017 C 
HETATM   11  C   UNL     1      13.611   7.019   6.272  1.00  0.00     0.116 C 
HETATM   12  C   UNL     1      15.853   9.782   7.261  1.00  0.00     0.005 C 
HETATM   13  C   UNL     1      14.590   7.940   8.379  1.00  0.00     0.042 C 
HETATM   14  C   UNL     1      12.994   3.432   6.817  1.00  0.00     0.030 C 
HETATM   15  C   UNL     1      14.517   9.002   7.245  1.00  0.00    -0.004 C 
HETATM   16  C   UNL     1      15.825  10.756   6.078  1.00  0.00     0.000 C 
HETATM   17  C   UNL     1      13.392   4.763   6.859  1.00  0.00     0.039 C 
ENDROOT
TORSDOF 0
ENDMDL
MODEL 9
REMARK VINA RESULT:      -7.0      2.659      4.756
REMARK  0 active torsions:
REMARK  status: ('A' for Active; 'I' for Inactive)
ROOT
HETATM    1  C   UNL     1      16.755  10.802  16.566  1.00  0.00     0.014 C 
HETATM    2  C   UNL     1      17.347  10.592  14.038  1.00  0.00    -0.044 C 
HETATM    3  C   UNL     1      16.471  10.666  15.215  1.00  0.00    -0.005 C 
HETATM    4  C   UNL     1      14.390  10.731  17.033  1.00  0.00     0.002 C 
HETATM    5  C   UNL     1      15.704  10.760  17.474  1.00  0.00     0.001 C 
HETATM    6  N   UNL     1      15.170  10.145  13.416  1.00  0.00    -0.380 N 
ATOM      7  HN  UNL     1      14.457   9.599  12.934  1.00  0.00     0.160 HD
HETATM    8  C   UNL     1      17.018  10.214  10.335  1.00  0.00     0.007 C 
HETATM    9  C   UNL     1      17.873   9.263   9.462  1.00  0.00     0.000 C 
HETATM   10  C   UNL     1      17.158   9.759  11.804  1.00  0.00     0.017 C 
HETATM   11  C   UNL     1      16.415  10.683  12.809  1.00  0.00     0.116 C 
HETATM   12  C   UNL     1      19.416   8.991  11.477  1.00  0.00     0.005 C 
HETATM   13  C   UNL     1      18.649   9.944  13.654  1.00  0.00     0.042 C 
HETATM   14  C   UNL     1      14.096  10.677  15.665  1.00  0.00     0.030 C 
HETATM   15  C   UNL     1      18.641  10.168  12.115  1.00  0.00    -0.004 C 
HETATM   16  C   UNL     1      19.319   9.153   9.956  1.00  0.00     0.000 C 
HETATM   17  C   UNL     1      15.146  10.520  14.769  1.00  0.00     0.039 C 
ENDROOT
TORSDOF 0
ENDMDL
