REMARK  3 active torsions:
REMARK  status: ('A' for Active; 'I' for Inactive)
REMARK    1  A    between atoms: O_4  and  C_11 
REMARK    2  A    between atoms: C_13  and  O_17 
REMARK    3  A    between atoms: C_14  and  O_15 
ROOT
HETATM    1  C   UNL     1      35.385  36.222  52.815  1.00  0.00     0.010 C 
HETATM    2  C   UNL     1      35.758  33.838  52.967  1.00  0.00     0.037 C 
HETATM    3  C   UNL     1      33.604  34.829  54.013  1.00  0.00     0.007 C 
HETATM    4  C   UNL     1      33.025  33.527  52.044  1.00  0.00     0.020 C 
HETATM    5  C   UNL     1      33.201  33.417  54.443  1.00  0.00     0.029 C 
HETATM    6  C   UNL     1      35.090  35.004  53.675  1.00  0.00    -0.011 C 
HETATM    7  C   UNL     1      33.532  32.595  53.173  1.00  0.00     0.022 C 
HETATM    8  C   UNL     1      32.646  36.086  51.953  1.00  0.00     0.018 C 
HETATM    9  C   UNL     1      35.074  32.502  53.185  1.00  0.00     0.123 C 
HETATM   10  C   UNL     1      32.696  34.833  52.796  1.00  0.00    -0.011 C 
HETATM   11  C   UNL     1      31.671  33.469  54.408  1.00  0.00     0.152 C 
HETATM   12  C   UNL     1      31.372  34.684  53.533  1.00  0.00     0.155 C 
ENDROOT
BRANCH   9  13
HETATM   13  O   UNL     1      35.450  32.016  54.474  1.00  0.00    -0.395 OA
ATOM     14  HO  UNL     1      35.022  31.179  54.611  1.00  0.00     0.210 HD
ENDBRANCH   9  13
BRANCH  11  15
HETATM   15  O   UNL     1      31.002  33.488  55.638  1.00  0.00    -0.393 OA
ATOM     16  HO  UNL     1      30.053  33.520  55.616  1.00  0.00     0.210 HD
ENDBRANCH  11  15
BRANCH  12  17
HETATM   17  O   UNL     1      30.305  34.463  52.640  1.00  0.00    -0.392 OA
ATOM     18  HO  UNL     1      29.479  34.370  53.100  1.00  0.00     0.210 HD
ENDBRANCH  12  17
TORSDOF 3
