REMARK  6 active torsions:
REMARK  status: ('A' for Active; 'I' for Inactive)
REMARK    1  A    between atoms: C_1  and  N_20 
REMARK    2  A    between atoms: C_2  and  C_6 
REMARK    3  A    between atoms: C_2  and  C_7 
REMARK    4  A    between atoms: C_3  and  N_9 
REMARK    5  A    between atoms: C_6  and  C_17 
REMARK    6  A    between atoms: N_9  and  C_11 
ROOT
HETATM    1  C   UNL     1     144.841 -25.324  69.830  1.00  0.00     0.053 C 
HETATM    2  C   UNL     1     143.011 -25.943  68.358  1.00  0.00     0.003 C 
HETATM    3  C   UNL     1     142.757 -26.008  70.756  1.00  0.00    -0.029 C 
HETATM    4  C   UNL     1     143.865 -25.102  70.852  1.00  0.00     0.065 C 
HETATM    5  C   UNL     1     144.382 -25.709  68.548  1.00  0.00     0.031 C 
HETATM    6  C   UNL     1     142.188 -26.119  69.479  1.00  0.00     0.009 C 
ENDROOT
BRANCH   4   7
HETATM    7  N   UNL     1     144.077 -24.050  71.708  1.00  0.00    -0.354 N 
ATOM      8  HN  UNL     1     144.976 -23.620  71.489  1.00  0.00     0.166 HD
BRANCH   7   9
HETATM    9  C   UNL     1     143.502 -23.372  72.758  1.00  0.00     0.032 C 
HETATM   10  C   UNL     1     142.575 -22.323  72.485  1.00  0.00     0.029 C 
HETATM   11  C   UNL     1     141.847 -21.594  73.398  1.00  0.00     0.002 C 
HETATM   12  C   UNL     1     141.795 -21.552  74.782  1.00  0.00     0.000 C 
HETATM   13  C   UNL     1     142.645 -22.174  75.711  1.00  0.00     0.000 C 
HETATM   14  C   UNL     1     143.685 -23.015  75.303  1.00  0.00     0.002 C 
HETATM   15  C   UNL     1     143.911 -23.643  74.082  1.00  0.00     0.029 C 
ENDBRANCH   7   9
ENDBRANCH   4   7
BRANCH   1  16
HETATM   16  N   UNL     1     146.148 -25.109  70.114  1.00  0.00    -0.397 N 
ATOM     17  HN2 UNL     1     146.479 -24.831  71.038  1.00  0.00     0.156 HD
ATOM     18  HN1 UNL     1     146.844 -25.267  69.385  1.00  0.00     0.156 HD
ENDBRANCH   1  16
BRANCH   3  19
HETATM   19  C   UNL     1     142.348 -26.900  71.920  1.00  0.00     0.045 C 
BRANCH  19  20
HETATM   20  C   UNL     1     141.858 -28.313  71.561  1.00  0.00    -0.015 C 
HETATM   21  C   UNL     1     142.038 -29.267  72.737  1.00  0.00     0.010 C 
BRANCH  20  22
HETATM   22  C   UNL     1     140.405 -28.333  71.058  1.00  0.00    -0.000 C 
HETATM   23  C   UNL     1     139.509 -27.239  71.598  1.00  0.00     0.005 C 
ENDBRANCH  20  22
ENDBRANCH  19  20
ENDBRANCH   3  19
TORSDOF 6
