REMARK  1 active torsions:
REMARK  status: ('A' for Active; 'I' for Inactive)
REMARK    1  A    between atoms: C_4  and  C_17 
ROOT
HETATM    1  C   UNL     1     -21.271  21.159 -22.616  1.00  0.00     0.149 C 
HETATM    2  C   UNL     1     -27.235  22.621 -17.948  1.00  0.00     0.004 C 
HETATM    3  C   UNL     1     -25.025  22.873 -21.113  1.00  0.00    -0.063 C 
HETATM    4  C   UNL     1     -22.183  21.767 -18.761  1.00  0.00     0.068 C 
HETATM    5  C   UNL     1     -25.737  22.302 -19.892  1.00  0.00     0.045 C 
HETATM    6  C   UNL     1     -22.735  23.090 -21.914  1.00  0.00     0.117 C 
HETATM    7  C   UNL     1     -27.109  22.810 -19.478  1.00  0.00     0.019 C 
HETATM    8  C   UNL     1     -23.389  22.333 -19.468  1.00  0.00    -0.043 C 
HETATM    9  C   UNL     1     -24.676  22.460 -18.812  1.00  0.00    -0.064 C 
HETATM   10  C   UNL     1     -26.767  25.768 -16.404  1.00  0.00     0.001 C 
HETATM   11  C   UNL     1     -26.252  23.483 -17.176  1.00  0.00    -0.032 C 
HETATM   12  N   UNL     1     -21.407  22.470 -21.980  1.00  0.00    -0.386 N 
HETATM   13  C   UNL     1     -25.037  23.276 -22.578  1.00  0.00     0.038 C 
HETATM   14  C   UNL     1     -26.196  24.953 -17.561  1.00  0.00     0.010 C 
HETATM   15  C   UNL     1     -24.891  22.795 -17.368  1.00  0.00     0.045 C 
HETATM   16  C   UNL     1     -20.856  21.856 -19.476  1.00  0.00    -0.005 C 
HETATM   17  C   UNL     1     -23.657  22.831 -23.122  1.00  0.00     0.034 C 
HETATM   18  C   UNL     1     -20.594  22.626 -20.749  1.00  0.00     0.082 C 
HETATM   19  C   UNL     1     -23.585  22.639 -20.792  1.00  0.00    -0.025 C 
HETATM   20  C   UNL     1     -27.270  24.799 -15.367  1.00  0.00     0.001 C 
HETATM   21  C   UNL     1     -26.560  23.487 -15.683  1.00  0.00     0.010 C 
ENDROOT
BRANCH   2  22
HETATM   22  C   UNL     1     -28.638  22.509 -17.411  1.00  0.00     0.024 C 
HETATM   23  C   UNL     1     -29.502  21.538 -18.126  1.00  0.00    -0.046 C 
HETATM   24  C   UNL     1     -30.029  21.608 -19.409  1.00  0.00     0.020 C 
HETATM   25  C   UNL     1     -29.912  20.539 -17.257  1.00  0.00    -0.051 C 
HETATM   26  C   UNL     1     -30.978  20.643 -19.770  1.00  0.00    -0.023 C 
HETATM   27  C   UNL     1     -31.897  20.871 -20.814  1.00  0.00     0.029 C 
HETATM   28  C   UNL     1     -31.059  19.436 -19.035  1.00  0.00    -0.010 C 
HETATM   29  C   UNL     1     -33.091  20.149 -20.702  1.00  0.00     0.088 C 
HETATM   30  N   UNL     1     -32.980  18.835 -20.325  1.00  0.00    -0.374 N 
HETATM   31  C   UNL     1     -32.011  18.491 -19.458  1.00  0.00     0.099 C 
ATOM     32  HN  UNL     1     -33.620  18.132 -20.695  1.00  0.00     0.164 HD
HETATM   33  C   UNL     1     -30.447  19.363 -17.766  1.00  0.00     0.021 C 
HETATM   34  C   UNL     1     -29.704  20.954 -15.836  1.00  0.00     0.040 C 
HETATM   35  C   UNL     1     -28.796  22.172 -15.938  1.00  0.00     0.014 C 
ENDBRANCH   2  22
TORSDOF 1
