REMARK  4 active torsions:
REMARK  status: ('A' for Active; 'I' for Inactive)
REMARK    1  A    between atoms: C_1  and  C_2 
REMARK    2  A    between atoms: C_1  and  C_3 
REMARK    3  A    between atoms: C_2  and  C_12 
REMARK    4  A    between atoms: C_3  and  C_9 
ROOT
HETATM    1  C   UNL     1     -12.004 -27.405   2.912  1.00  0.00     0.009 C 
ENDROOT
BRANCH   1   2
HETATM    2  C   UNL     1     -12.767 -28.123   1.801  1.00  0.00    -0.014 C 
HETATM    3  C   UNL     1     -12.339 -27.633   0.418  1.00  0.00     0.010 C 
BRANCH   2   4
HETATM    4  C   UNL     1     -14.251 -27.799   1.997  1.00  0.00     0.042 C 
BRANCH   4   5
HETATM    5  C   UNL     1     -15.186 -28.856   1.464  1.00  0.00    -0.058 C 
HETATM    6  C   UNL     1     -15.036 -29.368   0.186  1.00  0.00     0.007 C 
HETATM    7  C   UNL     1     -16.046 -29.438  -0.757  1.00  0.00     0.001 C 
HETATM    8  C   UNL     1     -17.270 -30.039  -0.507  1.00  0.00     0.000 C 
HETATM    9  C   UNL     1     -17.639 -30.553   0.703  1.00  0.00     0.000 C 
HETATM   10  C   UNL     1     -17.239 -30.115   1.920  1.00  0.00     0.001 C 
HETATM   11  C   UNL     1     -16.199 -29.295   2.287  1.00  0.00     0.007 C 
ENDBRANCH   4   5
ENDBRANCH   2   4
ENDBRANCH   1   2
BRANCH   1  12
HETATM   12  C   UNL     1     -10.513 -27.747   2.939  1.00  0.00    -0.010 C 
HETATM   13  C   UNL     1      -9.809 -26.723   2.038  1.00  0.00     0.009 C 
HETATM   14  C   UNL     1      -8.290 -26.817   2.101  1.00  0.00     0.039 C 
HETATM   15  C   UNL     1      -7.787 -27.056   3.482  1.00  0.00    -0.052 C 
HETATM   16  C   UNL     1      -6.421 -27.121   3.746  1.00  0.00     0.007 C 
HETATM   17  C   UNL     1      -8.664 -27.110   4.559  1.00  0.00    -0.051 C 
HETATM   18  C   UNL     1      -5.983 -26.585   4.959  1.00  0.00     0.001 C 
HETATM   19  C   UNL     1      -6.922 -26.156   5.896  1.00  0.00     0.001 C 
HETATM   20  C   UNL     1      -8.263 -26.517   5.755  1.00  0.00     0.007 C 
HETATM   21  C   UNL     1     -10.078 -27.544   4.393  1.00  0.00     0.043 C 
ENDBRANCH   1  12
TORSDOF 4
