MODEL 1
REMARK VINA RESULT:     -11.3      0.000      0.000
REMARK  2 active torsions:
REMARK  status: ('A' for Active; 'I' for Inactive)
REMARK    1  A    between atoms: C_10  and  O_23 
REMARK    2  A    between atoms: N_15  and  C_21 
ROOT
HETATM    1  C   UNL     1       7.097  51.534  23.212  1.00  0.00     0.045 C 
HETATM    2  O   UNL     1       7.807  50.271  17.940  1.00  0.00    -0.295 OA
HETATM    3  C   UNL     1       6.784  52.282  22.092  1.00  0.00     0.057 C 
HETATM    4  C   UNL     1      10.645  53.725  26.440  1.00  0.00     0.030 C 
HETATM    5  C   UNL     1       9.185  51.448  27.459  1.00  0.00     0.042 C 
HETATM    6  C   UNL     1      11.346  53.366  27.548  1.00  0.00     0.004 C 
HETATM    7  C   UNL     1       8.233  53.358  19.513  1.00  0.00     0.061 C 
HETATM    8  N   UNL     1       8.993  53.987  24.830  1.00  0.00    -0.355 N 
ATOM      9  HN  UNL     1       9.531  54.771  24.461  1.00  0.00     0.166 HD
HETATM   10  C   UNL     1       6.398  52.181  17.615  1.00  0.00     0.191 C 
HETATM   11  C   UNL     1       7.495  52.234  24.351  1.00  0.00    -0.006 C 
HETATM   12  C   UNL     1       6.738  53.684  22.152  1.00  0.00     0.059 C 
HETATM   13  C   UNL     1       7.857  53.588  24.213  1.00  0.00     0.045 C 
HETATM   14  C   UNL     1       8.877  52.097  26.291  1.00  0.00    -0.006 C 
HETATM   15  C   UNL     1       5.849  53.040  18.743  1.00  0.00     0.093 C 
HETATM   16  C   UNL     1       7.238  54.372  23.249  1.00  0.00     0.061 C 
HETATM   17  C   UNL     1      11.279  52.269  28.336  1.00  0.00     0.029 C 
HETATM   18  C   UNL     1      10.276  51.324  28.262  1.00  0.00     0.026 C 
HETATM   19  C   UNL     1       6.793  53.120  19.931  1.00  0.00     0.107 C 
HETATM   20  N   UNL     1       6.677  51.939  20.771  1.00  0.00    -0.362 N 
ATOM     21  HN  UNL     1       6.536  50.990  20.425  1.00  0.00     0.162 HD
HETATM   22  C   UNL     1       8.749  52.418  18.449  1.00  0.00     0.085 C 
HETATM   23  C   UNL     1       7.681  51.461  18.005  1.00  0.00     0.155 C 
HETATM   24  C   UNL     1       7.785  51.631  25.570  1.00  0.00     0.027 C 
HETATM   25  C   UNL     1       9.413  53.335  25.946  1.00  0.00     0.043 C 
HETATM   26  N   UNL     1       6.417  54.131  20.902  1.00  0.00    -0.362 N 
ATOM     27  HN  UNL     1       5.984  55.029  20.686  1.00  0.00     0.162 HD
ENDROOT
BRANCH  10  28
HETATM   28  O   UNL     1       5.448  51.344  16.984  1.00  0.00    -0.388 OA
ATOM     29  HO  UNL     1       5.475  50.433  17.252  1.00  0.00     0.210 HD
ENDBRANCH  10  28
BRANCH  18  30
HETATM   30  N   UNL     1      10.500  50.148  28.912  1.00  0.00    -0.399 N 
ATOM     31  HN2 UNL     1       9.869  49.927  29.683  1.00  0.00     0.156 HD
ATOM     32  HN1 UNL     1      11.337  49.607  28.696  1.00  0.00     0.156 HD
ENDBRANCH  18  30
TORSDOF 2
ENDMDL
MODEL 2
REMARK VINA RESULT:     -10.5      1.077      1.135
REMARK  2 active torsions:
REMARK  status: ('A' for Active; 'I' for Inactive)
REMARK    1  A    between atoms: C_10  and  O_23 
REMARK    2  A    between atoms: N_15  and  C_21 
ROOT
HETATM    1  C   UNL     1       6.977  50.755  23.361  1.00  0.00     0.045 C 
HETATM    2  O   UNL     1       7.613  48.707  18.333  1.00  0.00    -0.295 OA
HETATM    3  C   UNL     1       6.532  51.264  22.156  1.00  0.00     0.057 C 
HETATM    4  C   UNL     1      10.372  53.835  25.969  1.00  0.00     0.030 C 
HETATM    5  C   UNL     1       9.236  51.616  27.431  1.00  0.00     0.042 C 
HETATM    6  C   UNL     1      11.156  53.748  27.075  1.00  0.00     0.004 C 
HETATM    7  C   UNL     1       7.735  52.043  19.353  1.00  0.00     0.061 C 
HETATM    8  N   UNL     1       8.635  53.639  24.441  1.00  0.00    -0.355 N 
ATOM      9  HN  UNL     1       9.060  54.404  23.917  1.00  0.00     0.166 HD
HETATM   10  C   UNL     1       5.974  50.367  17.787  1.00  0.00     0.191 C 
HETATM   11  C   UNL     1       7.337  51.676  24.345  1.00  0.00    -0.006 C 
HETATM   12  C   UNL     1       6.322  52.642  21.990  1.00  0.00     0.059 C 
HETATM   13  C   UNL     1       7.530  53.019  23.968  1.00  0.00     0.045 C 
HETATM   14  C   UNL     1       8.805  52.020  26.195  1.00  0.00    -0.006 C 
HETATM   15  C   UNL     1       5.375  51.339  18.791  1.00  0.00     0.093 C 
HETATM   16  C   UNL     1       6.782  53.556  22.928  1.00  0.00     0.061 C 
HETATM   17  C   UNL     1      11.253  52.798  28.034  1.00  0.00     0.029 C 
HETATM   18  C   UNL     1      10.367  51.750  28.176  1.00  0.00     0.026 C 
HETATM   19  C   UNL     1       6.351  51.721  19.891  1.00  0.00     0.107 C 
HETATM   20  N   UNL     1       6.411  50.693  20.917  1.00  0.00    -0.362 N 
ATOM     21  HN  UNL     1       6.370  49.690  20.740  1.00  0.00     0.162 HD
HETATM   22  C   UNL     1       8.313  50.999  18.427  1.00  0.00     0.085 C 
HETATM   23  C   UNL     1       7.349  49.870  18.211  1.00  0.00     0.155 C 
HETATM   24  C   UNL     1       7.747  51.323  25.626  1.00  0.00     0.027 C 
HETATM   25  C   UNL     1       9.176  53.234  25.620  1.00  0.00     0.043 C 
HETATM   26  N   UNL     1       5.899  52.834  20.706  1.00  0.00    -0.362 N 
ATOM     27  HN  UNL     1       5.354  53.630  20.374  1.00  0.00     0.162 HD
ENDROOT
BRANCH  10  28
HETATM   28  O   UNL     1       5.105  49.337  17.360  1.00  0.00    -0.388 OA
ATOM     29  HO  UNL     1       4.265  49.311  17.802  1.00  0.00     0.210 HD
ENDBRANCH  10  28
BRANCH  18  30
HETATM   30  N   UNL     1      10.756  50.732  28.994  1.00  0.00    -0.399 N 
ATOM     31  HN2 UNL     1      11.739  50.718  29.266  1.00  0.00     0.156 HD
ATOM     32  HN1 UNL     1      10.103  49.977  29.200  1.00  0.00     0.156 HD
ENDBRANCH  18  30
TORSDOF 2
ENDMDL
MODEL 3
REMARK VINA RESULT:      -9.6      4.497      5.775
REMARK  2 active torsions:
REMARK  status: ('A' for Active; 'I' for Inactive)
REMARK    1  A    between atoms: C_10  and  O_23 
REMARK    2  A    between atoms: N_15  and  C_21 
ROOT
HETATM    1  C   UNL     1       5.991  53.040  24.720  1.00  0.00     0.045 C 
HETATM    2  O   UNL     1       0.831  54.651  25.538  1.00  0.00    -0.295 OA
HETATM    3  C   UNL     1       4.818  52.370  24.428  1.00  0.00     0.057 C 
HETATM    4  C   UNL     1       9.135  50.624  28.198  1.00  0.00     0.030 C 
HETATM    5  C   UNL     1      10.274  52.834  26.724  1.00  0.00     0.042 C 
HETATM    6  C   UNL     1      10.277  50.905  28.878  1.00  0.00     0.004 C 
HETATM    7  C   UNL     1       2.201  51.463  25.925  1.00  0.00     0.061 C 
HETATM    8  N   UNL     1       7.479  50.477  26.578  1.00  0.00    -0.355 N 
ATOM      9  HN  UNL     1       7.068  49.717  27.120  1.00  0.00     0.166 HD
HETATM   10  C   UNL     1       0.351  52.772  24.130  1.00  0.00     0.191 C 
HETATM   11  C   UNL     1       7.089  52.264  25.094  1.00  0.00    -0.006 C 
HETATM   12  C   UNL     1       4.783  50.968  24.377  1.00  0.00     0.059 C 
HETATM   13  C   UNL     1       6.868  50.921  25.455  1.00  0.00     0.045 C 
HETATM   14  C   UNL     1       9.060  52.266  26.437  1.00  0.00    -0.006 C 
HETATM   15  C   UNL     1       1.408  51.842  23.557  1.00  0.00     0.093 C 
HETATM   16  C   UNL     1       5.841  50.206  24.853  1.00  0.00     0.061 C 
HETATM   17  C   UNL     1      11.135  51.948  28.799  1.00  0.00     0.029 C 
HETATM   18  C   UNL     1      11.105  52.899  27.800  1.00  0.00     0.026 C 
HETATM   19  C   UNL     1       2.606  51.679  24.477  1.00  0.00     0.107 C 
HETATM   20  N   UNL     1       3.521  52.802  24.348  1.00  0.00    -0.362 N 
ATOM     21  HN  UNL     1       3.237  53.772  24.216  1.00  0.00     0.162 HD
HETATM   22  C   UNL     1       1.213  52.471  26.464  1.00  0.00     0.085 C 
HETATM   23  C   UNL     1       0.814  53.459  25.408  1.00  0.00     0.155 C 
HETATM   24  C   UNL     1       8.351  52.783  25.362  1.00  0.00     0.027 C 
HETATM   25  C   UNL     1       8.643  51.051  26.977  1.00  0.00     0.043 C 
HETATM   26  N   UNL     1       3.501  50.606  24.080  1.00  0.00    -0.362 N 
ATOM     27  HN  UNL     1       3.216  49.726  23.648  1.00  0.00     0.162 HD
ENDROOT
BRANCH  10  28
HETATM   28  O   UNL     1      -0.240  53.653  23.195  1.00  0.00    -0.388 OA
ATOM     29  HO  UNL     1      -1.152  53.478  22.999  1.00  0.00     0.210 HD
ENDBRANCH  10  28
BRANCH  18  30
HETATM   30  N   UNL     1      11.837  54.028  28.014  1.00  0.00    -0.399 N 
ATOM     31  HN2 UNL     1      12.841  53.959  27.843  1.00  0.00     0.156 HD
ATOM     32  HN1 UNL     1      11.393  54.841  28.442  1.00  0.00     0.156 HD
ENDBRANCH  18  30
TORSDOF 2
ENDMDL
MODEL 4
REMARK VINA RESULT:      -8.7      1.586      1.875
REMARK  2 active torsions:
REMARK  status: ('A' for Active; 'I' for Inactive)
REMARK    1  A    between atoms: C_10  and  O_23 
REMARK    2  A    between atoms: N_15  and  C_21 
ROOT
HETATM    1  C   UNL     1       6.406  49.820  23.403  1.00  0.00     0.045 C 
HETATM    2  O   UNL     1       7.585  48.333  18.276  1.00  0.00    -0.295 OA
HETATM    3  C   UNL     1       6.113  50.476  22.222  1.00  0.00     0.057 C 
HETATM    4  C   UNL     1       9.528  52.480  26.718  1.00  0.00     0.030 C 
HETATM    5  C   UNL     1       8.190  50.146  27.775  1.00  0.00     0.042 C 
HETATM    6  C   UNL     1      10.176  52.244  27.888  1.00  0.00     0.004 C 
HETATM    7  C   UNL     1       7.647  51.528  19.683  1.00  0.00     0.061 C 
HETATM    8  N   UNL     1       7.977  52.511  24.991  1.00  0.00    -0.355 N 
ATOM      9  HN  UNL     1       8.474  53.317  24.610  1.00  0.00     0.166 HD
HETATM   10  C   UNL     1       6.051  50.095  17.743  1.00  0.00     0.191 C 
HETATM   11  C   UNL     1       6.664  50.613  24.521  1.00  0.00    -0.006 C 
HETATM   12  C   UNL     1       5.948  51.869  22.193  1.00  0.00     0.059 C 
HETATM   13  C   UNL     1       6.924  51.984  24.326  1.00  0.00     0.045 C 
HETATM   14  C   UNL     1       7.913  50.701  26.553  1.00  0.00    -0.006 C 
HETATM   15  C   UNL     1       5.356  50.965  18.779  1.00  0.00     0.093 C 
HETATM   16  C   UNL     1       6.312  52.657  23.277  1.00  0.00     0.061 C 
HETATM   17  C   UNL     1      10.145  51.190  28.736  1.00  0.00     0.029 C 
HETATM   18  C   UNL     1       9.229  50.161  28.654  1.00  0.00     0.026 C 
HETATM   19  C   UNL     1       6.205  51.191  20.019  1.00  0.00     0.107 C 
HETATM   20  N   UNL     1       6.127  50.052  20.920  1.00  0.00    -0.362 N 
ATOM     21  HN  UNL     1       6.089  49.077  20.624  1.00  0.00     0.162 HD
HETATM   22  C   UNL     1       8.311  50.578  18.714  1.00  0.00     0.085 C 
HETATM   23  C   UNL     1       7.359  49.511  18.260  1.00  0.00     0.155 C 
HETATM   24  C   UNL     1       6.917  50.105  25.791  1.00  0.00     0.027 C 
HETATM   25  C   UNL     1       8.370  51.960  26.169  1.00  0.00     0.043 C 
HETATM   26  N   UNL     1       5.681  52.218  20.901  1.00  0.00    -0.362 N 
ATOM     27  HN  UNL     1       5.192  53.063  20.603  1.00  0.00     0.162 HD
ENDROOT
BRANCH  10  28
HETATM   28  O   UNL     1       5.220  49.146  17.105  1.00  0.00    -0.388 OA
ATOM     29  HO  UNL     1       4.809  48.517  17.685  1.00  0.00     0.210 HD
ENDBRANCH  10  28
BRANCH  18  30
HETATM   30  N   UNL     1       9.502  49.046  29.388  1.00  0.00    -0.399 N 
ATOM     31  HN2 UNL     1       8.730  48.659  29.932  1.00  0.00     0.156 HD
ATOM     32  HN1 UNL     1      10.465  48.718  29.464  1.00  0.00     0.156 HD
ENDBRANCH  18  30
TORSDOF 2
ENDMDL
