MODEL 1
REMARK VINA RESULT:     -11.3      0.000      0.000
REMARK  4 active torsions:
REMARK  status: ('A' for Active; 'I' for Inactive)
REMARK    1  A    between atoms: C_4  and  C_18 
REMARK    2  A    between atoms: C_10  and  C_17 
REMARK    3  A    between atoms: C_12  and  C_16 
REMARK    4  A    between atoms: C_21  and  C_26 
ROOT
HETATM    1  C   UNL     1      11.181  40.128   5.828  1.00  0.00     0.031 C 
HETATM    2  C   UNL     1       9.963  37.703   5.898  1.00  0.00     0.100 C 
HETATM    3  N   UNL     1      11.280  37.755   5.660  1.00  0.00    -0.364 N 
ATOM      4  HN  UNL     1      11.842  36.903   5.648  1.00  0.00     0.165 HD
HETATM    5  C   UNL     1       9.167  38.842   5.893  1.00  0.00    -0.011 C 
HETATM    6  C   UNL     1       9.837  40.037   6.183  1.00  0.00     0.016 C 
HETATM    7  C   UNL     1      11.851  38.970   5.435  1.00  0.00     0.042 C 
ENDROOT
BRANCH   5   8
HETATM    8  C   UNL     1       7.778  38.829   5.521  1.00  0.00    -0.025 C 
HETATM    9  C   UNL     1       7.396  39.546   4.395  1.00  0.00     0.013 C 
HETATM   10  C   UNL     1       6.365  39.243   3.514  1.00  0.00     0.019 C 
HETATM   11  C   UNL     1       5.531  38.161   3.561  1.00  0.00     0.040 C 
HETATM   12  C   UNL     1       4.968  37.661   4.752  1.00  0.00     0.018 C 
HETATM   13  C   UNL     1       5.625  37.636   5.962  1.00  0.00     0.002 C 
HETATM   14  C   UNL     1       6.842  38.185   6.331  1.00  0.00     0.012 C 
BRANCH  11  15
HETATM   15  C   UNL     1       5.118  37.556   2.243  1.00  0.00     0.209 C 
HETATM   16  O   UNL     1       5.448  38.146   1.189  1.00  0.00    -0.644 OA
HETATM   17  O   UNL     1       4.342  36.578   2.247  1.00  0.00    -0.644 OA
ENDBRANCH  11  15
ENDBRANCH   5   8
BRANCH   7  18
HETATM   18  C   UNL     1      13.148  38.982   4.841  1.00  0.00    -0.009 C 
HETATM   19  C   UNL     1      13.347  39.565   3.589  1.00  0.00     0.014 C 
HETATM   20  C   UNL     1      14.376  39.330   2.700  1.00  0.00     0.002 C 
HETATM   21  C   UNL     1      15.351  38.361   2.708  1.00  0.00     0.018 C 
HETATM   22  C   UNL     1      15.841  37.702   3.830  1.00  0.00     0.040 C 
HETATM   23  C   UNL     1      15.356  37.842   5.125  1.00  0.00     0.019 C 
HETATM   24  C   UNL     1      14.215  38.471   5.577  1.00  0.00     0.015 C 
BRANCH  22  25
HETATM   25  C   UNL     1      17.039  36.834   3.628  1.00  0.00     0.209 C 
HETATM   26  O   UNL     1      17.561  36.278   4.628  1.00  0.00    -0.644 OA
HETATM   27  O   UNL     1      17.392  36.614   2.451  1.00  0.00    -0.644 OA
ENDBRANCH  22  25
ENDBRANCH   7  18
TORSDOF 4
ENDMDL
MODEL 2
REMARK VINA RESULT:     -11.1      1.641      8.979
REMARK  4 active torsions:
REMARK  status: ('A' for Active; 'I' for Inactive)
REMARK    1  A    between atoms: C_4  and  C_18 
REMARK    2  A    between atoms: C_10  and  C_17 
REMARK    3  A    between atoms: C_12  and  C_16 
REMARK    4  A    between atoms: C_21  and  C_26 
ROOT
HETATM    1  C   UNL     1      10.601  40.479   6.736  1.00  0.00     0.031 C 
HETATM    2  C   UNL     1      12.209  39.252   4.926  1.00  0.00     0.100 C 
HETATM    3  N   UNL     1      10.912  39.407   4.633  1.00  0.00    -0.364 N 
ATOM      4  HN  UNL     1      10.560  39.202   3.698  1.00  0.00     0.165 HD
HETATM    5  C   UNL     1      12.713  39.496   6.198  1.00  0.00    -0.011 C 
HETATM    6  C   UNL     1      11.974  40.404   6.966  1.00  0.00     0.016 C 
HETATM    7  C   UNL     1      10.074  39.844   5.613  1.00  0.00     0.042 C 
ENDROOT
BRANCH   5   8
HETATM    8  C   UNL     1      13.850  38.803   6.740  1.00  0.00    -0.025 C 
HETATM    9  C   UNL     1      13.912  37.424   6.581  1.00  0.00     0.013 C 
HETATM   10  C   UNL     1      15.053  36.644   6.442  1.00  0.00     0.019 C 
HETATM   11  C   UNL     1      16.350  37.077   6.406  1.00  0.00     0.040 C 
HETATM   12  C   UNL     1      16.860  38.079   7.254  1.00  0.00     0.018 C 
HETATM   13  C   UNL     1      16.144  39.184   7.658  1.00  0.00     0.002 C 
HETATM   14  C   UNL     1      14.807  39.497   7.480  1.00  0.00     0.012 C 
BRANCH  11  15
HETATM   15  C   UNL     1      17.290  36.349   5.479  1.00  0.00     0.209 C 
HETATM   16  O   UNL     1      17.108  36.453   4.245  1.00  0.00    -0.644 OA
HETATM   17  O   UNL     1      18.121  35.556   5.967  1.00  0.00    -0.644 OA
ENDBRANCH  11  15
ENDBRANCH   5   8
BRANCH   7  18
HETATM   18  C   UNL     1       8.674  39.665   5.403  1.00  0.00    -0.009 C 
HETATM   19  C   UNL     1       7.819  39.451   6.484  1.00  0.00     0.014 C 
HETATM   20  C   UNL     1       6.565  38.872   6.470  1.00  0.00     0.002 C 
HETATM   21  C   UNL     1       5.911  38.199   5.466  1.00  0.00     0.018 C 
HETATM   22  C   UNL     1       6.124  38.357   4.100  1.00  0.00     0.040 C 
HETATM   23  C   UNL     1       7.106  39.151   3.522  1.00  0.00     0.019 C 
HETATM   24  C   UNL     1       8.181  39.790   4.106  1.00  0.00     0.015 C 
BRANCH  22  25
HETATM   25  C   UNL     1       5.159  37.672   3.189  1.00  0.00     0.209 C 
HETATM   26  O   UNL     1       4.211  37.017   3.691  1.00  0.00    -0.644 OA
HETATM   27  O   UNL     1       5.282  37.884   1.965  1.00  0.00    -0.644 OA
ENDBRANCH  22  25
ENDBRANCH   7  18
TORSDOF 4
ENDMDL
MODEL 3
REMARK VINA RESULT:     -10.9      2.089      2.380
REMARK  4 active torsions:
REMARK  status: ('A' for Active; 'I' for Inactive)
REMARK    1  A    between atoms: C_4  and  C_18 
REMARK    2  A    between atoms: C_10  and  C_17 
REMARK    3  A    between atoms: C_12  and  C_16 
REMARK    4  A    between atoms: C_21  and  C_26 
ROOT
HETATM    1  C   UNL     1      11.959  40.017   6.995  1.00  0.00     0.031 C 
HETATM    2  C   UNL     1      10.002  38.217   7.540  1.00  0.00     0.100 C 
HETATM    3  N   UNL     1      11.261  37.922   7.886  1.00  0.00    -0.364 N 
ATOM      4  HN  UNL     1      11.466  37.109   8.467  1.00  0.00     0.165 HD
HETATM    5  C   UNL     1       9.695  39.300   6.726  1.00  0.00    -0.011 C 
HETATM    6  C   UNL     1      10.627  40.345   6.748  1.00  0.00     0.016 C 
HETATM    7  C   UNL     1      12.262  38.732   7.442  1.00  0.00     0.042 C 
ENDROOT
BRANCH   5   8
HETATM    8  C   UNL     1       8.560  39.324   5.842  1.00  0.00    -0.025 C 
HETATM    9  C   UNL     1       8.797  39.401   4.476  1.00  0.00     0.013 C 
HETATM   10  C   UNL     1       8.025  38.857   3.457  1.00  0.00     0.019 C 
HETATM   11  C   UNL     1       6.887  38.111   3.591  1.00  0.00     0.040 C 
HETATM   12  C   UNL     1       5.867  38.406   4.517  1.00  0.00     0.018 C 
HETATM   13  C   UNL     1       6.095  38.908   5.779  1.00  0.00     0.002 C 
HETATM   14  C   UNL     1       7.266  39.360   6.364  1.00  0.00     0.012 C 
BRANCH  11  15
HETATM   15  C   UNL     1       6.684  36.986   2.608  1.00  0.00     0.209 C 
HETATM   16  O   UNL     1       7.538  36.822   1.707  1.00  0.00    -0.644 OA
HETATM   17  O   UNL     1       5.608  36.353   2.633  1.00  0.00    -0.644 OA
ENDBRANCH  11  15
ENDBRANCH   5   8
BRANCH   7  18
HETATM   18  C   UNL     1      13.592  38.222   7.509  1.00  0.00    -0.009 C 
HETATM   19  C   UNL     1      14.588  38.931   8.182  1.00  0.00     0.014 C 
HETATM   20  C   UNL     1      15.955  38.829   8.022  1.00  0.00     0.002 C 
HETATM   21  C   UNL     1      16.689  38.171   7.064  1.00  0.00     0.018 C 
HETATM   22  C   UNL     1      16.273  37.064   6.331  1.00  0.00     0.040 C 
HETATM   23  C   UNL     1      15.004  36.497   6.373  1.00  0.00     0.019 C 
HETATM   24  C   UNL     1      13.847  36.968   6.958  1.00  0.00     0.015 C 
BRANCH  22  25
HETATM   25  C   UNL     1      17.307  36.389   5.491  1.00  0.00     0.209 C 
HETATM   26  O   UNL     1      18.126  35.613   6.046  1.00  0.00    -0.644 OA
HETATM   27  O   UNL     1      17.229  36.545   4.255  1.00  0.00    -0.644 OA
ENDBRANCH  22  25
ENDBRANCH   7  18
TORSDOF 4
ENDMDL
MODEL 4
REMARK VINA RESULT:     -10.7      2.242      8.948
REMARK  4 active torsions:
REMARK  status: ('A' for Active; 'I' for Inactive)
REMARK    1  A    between atoms: C_4  and  C_18 
REMARK    2  A    between atoms: C_10  and  C_17 
REMARK    3  A    between atoms: C_12  and  C_16 
REMARK    4  A    between atoms: C_21  and  C_26 
ROOT
HETATM    1  C   UNL     1      10.304  36.791   6.373  1.00  0.00     0.031 C 
HETATM    2  C   UNL     1      11.505  39.026   7.336  1.00  0.00     0.100 C 
HETATM    3  N   UNL     1      10.383  39.158   6.617  1.00  0.00    -0.364 N 
ATOM      4  HN  UNL     1       9.908  40.058   6.551  1.00  0.00     0.165 HD
HETATM    5  C   UNL     1      12.189  37.820   7.421  1.00  0.00    -0.011 C 
HETATM    6  C   UNL     1      11.407  36.677   7.217  1.00  0.00     0.016 C 
HETATM    7  C   UNL     1       9.892  38.062   5.976  1.00  0.00     0.042 C 
ENDROOT
BRANCH   5   8
HETATM    8  C   UNL     1      13.613  37.735   7.607  1.00  0.00    -0.025 C 
HETATM    9  C   UNL     1      14.191  36.473   7.653  1.00  0.00     0.013 C 
HETATM   10  C   UNL     1      15.464  36.115   7.225  1.00  0.00     0.019 C 
HETATM   11  C   UNL     1      16.399  36.926   6.648  1.00  0.00     0.040 C 
HETATM   12  C   UNL     1      16.665  38.240   7.081  1.00  0.00     0.018 C 
HETATM   13  C   UNL     1      15.701  39.108   7.542  1.00  0.00     0.002 C 
HETATM   14  C   UNL     1      14.363  38.891   7.824  1.00  0.00     0.012 C 
BRANCH  11  15
HETATM   15  C   UNL     1      17.256  36.322   5.565  1.00  0.00     0.209 C 
HETATM   16  O   UNL     1      16.976  36.579   4.372  1.00  0.00    -0.644 OA
HETATM   17  O   UNL     1      18.117  35.475   5.881  1.00  0.00    -0.644 OA
ENDBRANCH  11  15
ENDBRANCH   5   8
BRANCH   7  18
HETATM   18  C   UNL     1       8.928  38.284   4.948  1.00  0.00    -0.009 C 
HETATM   19  C   UNL     1       8.481  39.574   4.665  1.00  0.00     0.014 C 
HETATM   20  C   UNL     1       7.311  39.946   4.031  1.00  0.00     0.002 C 
HETATM   21  C   UNL     1       6.214  39.193   3.684  1.00  0.00     0.018 C 
HETATM   22  C   UNL     1       6.205  37.825   3.434  1.00  0.00     0.040 C 
HETATM   23  C   UNL     1       7.288  36.968   3.593  1.00  0.00     0.019 C 
HETATM   24  C   UNL     1       8.512  37.193   4.187  1.00  0.00     0.015 C 
BRANCH  22  25
HETATM   25  C   UNL     1       4.944  37.254   2.875  1.00  0.00     0.209 C 
HETATM   26  O   UNL     1       4.049  36.869   3.670  1.00  0.00    -0.644 OA
HETATM   27  O   UNL     1       4.798  37.297   1.636  1.00  0.00    -0.644 OA
ENDBRANCH  22  25
ENDBRANCH   7  18
TORSDOF 4
ENDMDL
MODEL 5
REMARK VINA RESULT:     -10.6      1.798      2.321
REMARK  4 active torsions:
REMARK  status: ('A' for Active; 'I' for Inactive)
REMARK    1  A    between atoms: C_4  and  C_18 
REMARK    2  A    between atoms: C_10  and  C_17 
REMARK    3  A    between atoms: C_12  and  C_16 
REMARK    4  A    between atoms: C_21  and  C_26 
ROOT
HETATM    1  C   UNL     1      11.654  40.041   3.326  1.00  0.00     0.031 C 
HETATM    2  C   UNL     1      10.122  38.828   5.211  1.00  0.00     0.100 C 
HETATM    3  N   UNL     1      11.449  38.866   5.387  1.00  0.00    -0.364 N 
ATOM      4  HN  UNL     1      11.866  38.577   6.272  1.00  0.00     0.165 HD
HETATM    5  C   UNL     1       9.527  39.188   4.008  1.00  0.00    -0.011 C 
HETATM    6  C   UNL     1      10.265  40.084   3.224  1.00  0.00     0.016 C 
HETATM    7  C   UNL     1      12.228  39.299   4.358  1.00  0.00     0.042 C 
ENDROOT
BRANCH   5   8
HETATM    8  C   UNL     1       8.293  38.618   3.538  1.00  0.00    -0.025 C 
HETATM    9  C   UNL     1       7.321  39.479   3.047  1.00  0.00     0.013 C 
HETATM   10  C   UNL     1       6.394  39.218   2.046  1.00  0.00     0.019 C 
HETATM   11  C   UNL     1       6.266  38.067   1.319  1.00  0.00     0.040 C 
HETATM   12  C   UNL     1       6.369  36.777   1.877  1.00  0.00     0.018 C 
HETATM   13  C   UNL     1       7.241  36.445   2.890  1.00  0.00     0.002 C 
HETATM   14  C   UNL     1       8.062  37.248   3.664  1.00  0.00     0.012 C 
BRANCH  11  15
HETATM   15  C   UNL     1       5.884  38.211  -0.132  1.00  0.00     0.209 C 
HETATM   16  O   UNL     1       4.668  38.279  -0.423  1.00  0.00    -0.644 OA
HETATM   17  O   UNL     1       6.774  38.110  -1.001  1.00  0.00    -0.644 OA
ENDBRANCH  11  15
ENDBRANCH   5   8
BRANCH   7  18
HETATM   18  C   UNL     1      13.621  39.002   4.424  1.00  0.00    -0.009 C 
HETATM   19  C   UNL     1      14.390  38.952   3.261  1.00  0.00     0.014 C 
HETATM   20  C   UNL     1      15.597  38.310   3.070  1.00  0.00     0.002 C 
HETATM   21  C   UNL     1      16.264  37.419   3.877  1.00  0.00     0.018 C 
HETATM   22  C   UNL     1      16.150  37.322   5.260  1.00  0.00     0.040 C 
HETATM   23  C   UNL     1      15.265  38.046   6.050  1.00  0.00     0.019 C 
HETATM   24  C   UNL     1      14.204  38.846   5.680  1.00  0.00     0.015 C 
BRANCH  22  25
HETATM   25  C   UNL     1      17.119  36.419   5.950  1.00  0.00     0.209 C 
HETATM   26  O   UNL     1      17.786  35.606   5.262  1.00  0.00    -0.644 OA
HETATM   27  O   UNL     1      17.298  36.602   7.172  1.00  0.00    -0.644 OA
ENDBRANCH  22  25
ENDBRANCH   7  18
TORSDOF 4
ENDMDL
MODEL 6
REMARK VINA RESULT:     -10.3      1.363      9.108
REMARK  4 active torsions:
REMARK  status: ('A' for Active; 'I' for Inactive)
REMARK    1  A    between atoms: C_4  and  C_18 
REMARK    2  A    between atoms: C_10  and  C_17 
REMARK    3  A    between atoms: C_12  and  C_16 
REMARK    4  A    between atoms: C_21  and  C_26 
ROOT
HETATM    1  C   UNL     1      10.207  37.649   6.224  1.00  0.00     0.031 C 
HETATM    2  C   UNL     1      11.614  39.967   6.341  1.00  0.00     0.100 C 
HETATM    3  N   UNL     1      10.291  40.027   6.149  1.00  0.00    -0.364 N 
ATOM      4  HN  UNL     1       9.797  40.919   6.189  1.00  0.00     0.165 HD
HETATM    5  C   UNL     1      12.317  38.771   6.265  1.00  0.00    -0.011 C 
HETATM    6  C   UNL     1      11.566  37.621   6.535  1.00  0.00     0.016 C 
HETATM    7  C   UNL     1       9.619  38.869   5.898  1.00  0.00     0.042 C 
ENDROOT
BRANCH   5   8
HETATM    8  C   UNL     1      13.691  38.691   5.846  1.00  0.00    -0.025 C 
HETATM    9  C   UNL     1      14.678  38.956   6.786  1.00  0.00     0.013 C 
HETATM   10  C   UNL     1      15.949  38.399   6.851  1.00  0.00     0.019 C 
HETATM   11  C   UNL     1      16.480  37.455   6.017  1.00  0.00     0.040 C 
HETATM   12  C   UNL     1      16.305  37.464   4.619  1.00  0.00     0.018 C 
HETATM   13  C   UNL     1      15.145  37.858   3.991  1.00  0.00     0.002 C 
HETATM   14  C   UNL     1      14.002  38.443   4.509  1.00  0.00     0.012 C 
BRANCH  11  15
HETATM   15  C   UNL     1      17.389  36.425   6.637  1.00  0.00     0.209 C 
HETATM   16  O   UNL     1      17.950  35.596   5.885  1.00  0.00    -0.644 OA
HETATM   17  O   UNL     1      17.438  36.338   7.882  1.00  0.00    -0.644 OA
ENDBRANCH  11  15
ENDBRANCH   5   8
BRANCH   7  18
HETATM   18  C   UNL     1       8.306  38.982   5.351  1.00  0.00    -0.009 C 
HETATM   19  C   UNL     1       7.192  39.025   6.189  1.00  0.00     0.014 C 
HETATM   20  C   UNL     1       5.881  38.728   5.872  1.00  0.00     0.002 C 
HETATM   21  C   UNL     1       5.352  38.149   4.743  1.00  0.00     0.018 C 
HETATM   22  C   UNL     1       5.914  38.170   3.471  1.00  0.00     0.040 C 
HETATM   23  C   UNL     1       7.158  38.698   3.146  1.00  0.00     0.019 C 
HETATM   24  C   UNL     1       8.177  39.127   3.971  1.00  0.00     0.015 C 
BRANCH  22  25
HETATM   25  C   UNL     1       5.068  37.652   2.355  1.00  0.00     0.209 C 
HETATM   26  O   UNL     1       5.259  38.093   1.194  1.00  0.00    -0.644 OA
HETATM   27  O   UNL     1       4.285  36.716   2.621  1.00  0.00    -0.644 OA
ENDBRANCH  22  25
ENDBRANCH   7  18
TORSDOF 4
ENDMDL
MODEL 7
REMARK VINA RESULT:     -10.3      2.630      9.476
REMARK  4 active torsions:
REMARK  status: ('A' for Active; 'I' for Inactive)
REMARK    1  A    between atoms: C_4  and  C_18 
REMARK    2  A    between atoms: C_10  and  C_17 
REMARK    3  A    between atoms: C_12  and  C_16 
REMARK    4  A    between atoms: C_21  and  C_26 
ROOT
HETATM    1  C   UNL     1      10.763  36.819   6.051  1.00  0.00     0.031 C 
HETATM    2  C   UNL     1      11.893  38.874   7.417  1.00  0.00     0.100 C 
HETATM    3  N   UNL     1      10.601  38.961   7.077  1.00  0.00    -0.364 N 
ATOM      4  HN  UNL     1      10.014  39.711   7.444  1.00  0.00     0.165 HD
HETATM    5  C   UNL     1      12.723  37.881   6.912  1.00  0.00    -0.011 C 
HETATM    6  C   UNL     1      12.073  36.707   6.514  1.00  0.00     0.016 C 
HETATM    7  C   UNL     1      10.089  38.025   6.231  1.00  0.00     0.042 C 
ENDROOT
BRANCH   5   8
HETATM    8  C   UNL     1      14.136  38.063   6.712  1.00  0.00    -0.025 C 
HETATM    9  C   UNL     1      14.679  39.312   6.986  1.00  0.00     0.013 C 
HETATM   10  C   UNL     1      15.958  39.588   7.454  1.00  0.00     0.019 C 
HETATM   11  C   UNL     1      16.936  38.685   7.766  1.00  0.00     0.040 C 
HETATM   12  C   UNL     1      17.219  37.543   6.991  1.00  0.00     0.018 C 
HETATM   13  C   UNL     1      16.260  36.796   6.345  1.00  0.00     0.002 C 
HETATM   14  C   UNL     1      14.906  37.033   6.172  1.00  0.00     0.012 C 
BRANCH  11  15
HETATM   15  C   UNL     1      17.819  39.011   8.944  1.00  0.00     0.209 C 
HETATM   16  O   UNL     1      19.046  39.158   8.745  1.00  0.00    -0.644 OA
HETATM   17  O   UNL     1      17.328  38.977  10.091  1.00  0.00    -0.644 OA
ENDBRANCH  11  15
ENDBRANCH   5   8
BRANCH   7  18
HETATM   18  C   UNL     1       8.842  38.323   5.605  1.00  0.00    -0.009 C 
HETATM   19  C   UNL     1       7.872  39.065   6.280  1.00  0.00     0.014 C 
HETATM   20  C   UNL     1       6.514  39.107   6.031  1.00  0.00     0.002 C 
HETATM   21  C   UNL     1       5.738  38.324   5.211  1.00  0.00     0.018 C 
HETATM   22  C   UNL     1       6.173  37.640   4.080  1.00  0.00     0.040 C 
HETATM   23  C   UNL     1       7.490  37.553   3.646  1.00  0.00     0.019 C 
HETATM   24  C   UNL     1       8.656  37.925   4.283  1.00  0.00     0.015 C 
BRANCH  22  25
HETATM   25  C   UNL     1       5.118  37.017   3.227  1.00  0.00     0.209 C 
HETATM   26  O   UNL     1       5.470  36.317   2.243  1.00  0.00    -0.644 OA
HETATM   27  O   UNL     1       3.935  37.132   3.607  1.00  0.00    -0.644 OA
ENDBRANCH  22  25
ENDBRANCH   7  18
TORSDOF 4
ENDMDL
MODEL 8
REMARK VINA RESULT:     -10.3      2.800      3.803
REMARK  4 active torsions:
REMARK  status: ('A' for Active; 'I' for Inactive)
REMARK    1  A    between atoms: C_4  and  C_18 
REMARK    2  A    between atoms: C_10  and  C_17 
REMARK    3  A    between atoms: C_12  and  C_16 
REMARK    4  A    between atoms: C_21  and  C_26 
ROOT
HETATM    1  C   UNL     1      12.683  37.448   6.177  1.00  0.00     0.031 C 
HETATM    2  C   UNL     1      11.793  39.420   4.538  1.00  0.00     0.100 C 
HETATM    3  N   UNL     1      13.107  39.323   4.772  1.00  0.00    -0.364 N 
ATOM      4  HN  UNL     1      13.775  39.880   4.238  1.00  0.00     0.165 HD
HETATM    5  C   UNL     1      10.858  38.695   5.267  1.00  0.00    -0.011 C 
HETATM    6  C   UNL     1      11.335  37.504   5.828  1.00  0.00     0.016 C 
HETATM    7  C   UNL     1      13.532  38.462   5.738  1.00  0.00     0.042 C 
ENDROOT
BRANCH   5   8
HETATM    8  C   UNL     1       9.523  39.165   5.522  1.00  0.00    -0.025 C 
HETATM    9  C   UNL     1       8.736  39.518   4.434  1.00  0.00     0.013 C 
HETATM   10  C   UNL     1       7.355  39.408   4.323  1.00  0.00     0.019 C 
HETATM   11  C   UNL     1       6.490  38.903   5.254  1.00  0.00     0.040 C 
HETATM   12  C   UNL     1       6.588  39.169   6.634  1.00  0.00     0.018 C 
HETATM   13  C   UNL     1       7.780  39.294   7.311  1.00  0.00     0.002 C 
HETATM   14  C   UNL     1       9.079  39.340   6.833  1.00  0.00     0.012 C 
BRANCH  11  15
HETATM   15  C   UNL     1       5.313  38.115   4.739  1.00  0.00     0.209 C 
HETATM   16  O   UNL     1       4.619  37.476   5.562  1.00  0.00    -0.644 OA
HETATM   17  O   UNL     1       5.156  38.005   3.505  1.00  0.00    -0.644 OA
ENDBRANCH  11  15
ENDBRANCH   5   8
BRANCH   7  18
HETATM   18  C   UNL     1      14.866  38.626   6.217  1.00  0.00    -0.009 C 
HETATM   19  C   UNL     1      15.855  37.700   5.885  1.00  0.00     0.014 C 
HETATM   20  C   UNL     1      17.043  37.456   6.545  1.00  0.00     0.002 C 
HETATM   21  C   UNL     1      17.484  37.900   7.769  1.00  0.00     0.018 C 
HETATM   22  C   UNL     1      17.081  39.066   8.411  1.00  0.00     0.040 C 
HETATM   23  C   UNL     1      16.088  39.931   7.968  1.00  0.00     0.019 C 
HETATM   24  C   UNL     1      15.167  39.770   6.954  1.00  0.00     0.015 C 
BRANCH  22  25
HETATM   25  C   UNL     1      17.840  39.452   9.638  1.00  0.00     0.209 C 
HETATM   26  O   UNL     1      17.383  39.123  10.762  1.00  0.00    -0.644 OA
HETATM   27  O   UNL     1      18.957  39.986   9.473  1.00  0.00    -0.644 OA
ENDBRANCH  22  25
ENDBRANCH   7  18
TORSDOF 4
ENDMDL
MODEL 9
REMARK VINA RESULT:     -10.2      2.132      8.601
REMARK  4 active torsions:
REMARK  status: ('A' for Active; 'I' for Inactive)
REMARK    1  A    between atoms: C_4  and  C_18 
REMARK    2  A    between atoms: C_10  and  C_17 
REMARK    3  A    between atoms: C_12  and  C_16 
REMARK    4  A    between atoms: C_21  and  C_26 
ROOT
HETATM    1  C   UNL     1       9.980  37.376   6.212  1.00  0.00     0.031 C 
HETATM    2  C   UNL     1      11.308  39.413   7.418  1.00  0.00     0.100 C 
HETATM    3  N   UNL     1      10.174  39.685   6.760  1.00  0.00    -0.364 N 
ATOM      4  HN  UNL     1       9.740  40.605   6.828  1.00  0.00     0.165 HD
HETATM    5  C   UNL     1      11.939  38.178   7.323  1.00  0.00    -0.011 C 
HETATM    6  C   UNL     1      11.100  37.106   6.997  1.00  0.00     0.016 C 
HETATM    7  C   UNL     1       9.616  38.704   5.998  1.00  0.00     0.042 C 
ENDROOT
BRANCH   5   8
HETATM    8  C   UNL     1      13.361  38.010   7.449  1.00  0.00    -0.025 C 
HETATM    9  C   UNL     1      13.864  36.716   7.495  1.00  0.00     0.013 C 
HETATM   10  C   UNL     1      15.093  36.273   7.021  1.00  0.00     0.019 C 
HETATM   11  C   UNL     1      16.049  37.017   6.387  1.00  0.00     0.040 C 
HETATM   12  C   UNL     1      16.412  38.319   6.781  1.00  0.00     0.018 C 
HETATM   13  C   UNL     1      15.523  39.252   7.267  1.00  0.00     0.002 C 
HETATM   14  C   UNL     1      14.188  39.122   7.610  1.00  0.00     0.012 C 
BRANCH  11  15
HETATM   15  C   UNL     1      16.819  36.342   5.280  1.00  0.00     0.209 C 
HETATM   16  O   UNL     1      17.786  35.609   5.589  1.00  0.00    -0.644 OA
HETATM   17  O   UNL     1      16.566  36.650   4.097  1.00  0.00    -0.644 OA
ENDBRANCH  11  15
ENDBRANCH   5   8
BRANCH   7  18
HETATM   18  C   UNL     1       8.636  39.100   5.040  1.00  0.00    -0.009 C 
HETATM   19  C   UNL     1       7.320  39.341   5.434  1.00  0.00     0.014 C 
HETATM   20  C   UNL     1       6.185  39.329   4.647  1.00  0.00     0.002 C 
HETATM   21  C   UNL     1       6.010  38.908   3.350  1.00  0.00     0.018 C 
HETATM   22  C   UNL     1       6.991  38.857   2.366  1.00  0.00     0.040 C 
HETATM   23  C   UNL     1       8.340  39.130   2.556  1.00  0.00     0.019 C 
HETATM   24  C   UNL     1       9.047  39.314   3.726  1.00  0.00     0.015 C 
BRANCH  22  25
HETATM   25  C   UNL     1       6.531  38.560   0.977  1.00  0.00     0.209 C 
HETATM   26  O   UNL     1       7.286  38.850   0.014  1.00  0.00    -0.644 OA
HETATM   27  O   UNL     1       5.461  37.929   0.852  1.00  0.00    -0.644 OA
ENDBRANCH  22  25
ENDBRANCH   7  18
TORSDOF 4
ENDMDL
