REMARK  3 active torsions:
REMARK  status: ('A' for Active; 'I' for Inactive)
REMARK    1  A    between atoms: C_1  and  C_25 
REMARK    2  A    between atoms: C_6  and  O_20 
REMARK    3  A    between atoms: C_16  and  C_25 
ROOT
HETATM    1  C   UNL     1      13.049  39.395   5.462  1.00  0.00    -0.053 C 
HETATM    2  C   UNL     1      10.386  38.889   4.835  1.00  0.00    -0.022 C 
HETATM    3  C   UNL     1       5.713  38.000   2.376  1.00  0.00     0.039 C 
HETATM    4  C   UNL     1      11.162  39.704   4.001  1.00  0.00    -0.043 C 
HETATM    5  C   UNL     1      10.965  38.275   5.936  1.00  0.00     0.013 C 
HETATM    6  C   UNL     1      12.311  38.500   6.231  1.00  0.00     0.008 C 
HETATM    7  C   UNL     1       9.159  39.237   2.825  1.00  0.00    -0.040 C 
HETATM    8  C   UNL     1       8.122  38.795   2.050  1.00  0.00    -0.048 C 
HETATM    9  C   UNL     1      10.460  39.990   2.683  1.00  0.00     0.079 C 
HETATM   10  C   UNL     1       7.664  38.097   4.358  1.00  0.00     0.074 C 
HETATM   11  C   UNL     1       7.078  38.213   2.955  1.00  0.00    -0.068 C 
HETATM   12  C   UNL     1       9.033  38.730   4.234  1.00  0.00    -0.036 C 
HETATM   13  C   UNL     1      12.429  40.078   4.409  1.00  0.00     0.015 C 
HETATM   14  C   UNL     1       6.576  38.396   0.033  1.00  0.00     0.009 C 
HETATM   15  C   UNL     1       5.717  37.504   0.929  1.00  0.00    -0.014 C 
HETATM   16  C   UNL     1       6.394  36.123   0.996  1.00  0.00     0.010 C 
HETATM   17  C   UNL     1       7.977  38.693   0.557  1.00  0.00     0.040 C 
ENDROOT
BRANCH   1  18
HETATM   18  C   UNL     1      14.545  39.585   5.674  1.00  0.00     0.077 C 
BRANCH  18  19
HETATM   19  C   UNL     1      15.380  38.679   4.781  1.00  0.00    -0.054 C 
HETATM   20  C   UNL     1      15.233  38.737   3.381  1.00  0.00     0.010 C 
HETATM   21  C   UNL     1      16.197  38.462   2.413  1.00  0.00     0.037 C 
HETATM   22  C   UNL     1      17.296  37.628   2.656  1.00  0.00     0.065 C 
HETATM   23  C   UNL     1      17.275  36.586   3.606  1.00  0.00     0.036 C 
HETATM   24  C   UNL     1      17.127  36.883   4.960  1.00  0.00     0.003 C 
HETATM   25  C   UNL     1      16.221  37.814   5.444  1.00  0.00     0.007 C 
BRANCH  22  26
HETATM   26  O   UNL     1      18.547  37.941   2.162  1.00  0.00    -0.361 OA
ATOM     27  HO  UNL     1      18.561  38.643   1.522  1.00  0.00     0.217 HD
ENDBRANCH  22  26
ENDBRANCH  18  19
ENDBRANCH   1  18
TORSDOF 3
