REMARK  2 active torsions:
REMARK  status: ('A' for Active; 'I' for Inactive)
REMARK    1  A    between atoms: C_3  and  C_18 
REMARK    2  A    between atoms: C_6  and  O_15 
ROOT
HETATM    1  C   UNL     1      48.139  39.522  -1.699  1.00  0.00     0.003 C 
HETATM    2  C   UNL     1      52.686  43.419  -2.676  1.00  0.00     0.040 C 
HETATM    3  C   UNL     1      51.054  41.995  -1.591  1.00  0.00     0.024 C 
HETATM    4  C   UNL     1      48.827  40.204  -3.912  1.00  0.00     0.072 C 
HETATM    5  C   UNL     1      50.725  42.923  -0.432  1.00  0.00     0.014 C 
HETATM    6  C   UNL     1      50.887  41.878  -3.984  1.00  0.00     0.047 C 
HETATM    7  C   UNL     1      51.702  44.084  -0.286  1.00  0.00     0.036 C 
HETATM    8  C   UNL     1      51.259  42.862  -2.859  1.00  0.00     0.002 C 
HETATM    9  C   UNL     1      49.166  40.278  -1.144  1.00  0.00     0.008 C 
HETATM   10  C   UNL     1      52.769  44.240  -1.400  1.00  0.00    -0.067 C 
HETATM   11  C   UNL     1      49.805  41.039  -3.354  1.00  0.00    -0.018 C 
HETATM   12  C   UNL     1      49.936  41.087  -1.978  1.00  0.00    -0.045 C 
HETATM   13  C   UNL     1      47.901  39.573  -3.076  1.00  0.00     0.037 C 
ENDROOT
BRANCH  10  14
HETATM   14  C   UNL     1      53.773  45.206  -1.040  1.00  0.00    -0.011 C 
HETATM   15  C   UNL     1      54.016  45.502   0.323  1.00  0.00     0.157 C 
HETATM   16  O   UNL     1      55.356  45.639   0.675  1.00  0.00    -0.287 OA
HETATM   17  C   UNL     1      56.315  45.432  -0.294  1.00  0.00     0.287 C 
HETATM   18  C   UNL     1      55.977  46.018  -1.609  1.00  0.00     0.083 C 
HETATM   19  O   UNL     1      57.285  44.756  -0.030  1.00  0.00    -0.260 OA
HETATM   20  C   UNL     1      54.675  45.784  -2.014  1.00  0.00     0.019 C 
ENDBRANCH  10  14
BRANCH   4  21
HETATM   21  O   UNL     1      48.716  40.046  -5.262  1.00  0.00    -0.360 OA
ATOM     22  HO  UNL     1      48.053  39.480  -5.640  1.00  0.00     0.217 HD
ENDBRANCH   4  21
TORSDOF 2
