MODEL 1
REMARK VINA RESULT:      -6.8      0.000      0.000
REMARK  13 active torsions:
REMARK  status: ('A' for Active; 'I' for Inactive)
REMARK    1  A    between atoms: N_1  and  C_15 
REMARK    2  A    between atoms: C_2  and  C_22 
REMARK       I    between atoms: C_2  and  N_31 
REMARK    3  A    between atoms: N_4  and  C_33 
REMARK    4  A    between atoms: C_7  and  C_19 
REMARK    5  A    between atoms: C_8  and  C_21 
REMARK    6  A    between atoms: C_8  and  C_22 
REMARK    7  A    between atoms: C_11  and  C_28 
REMARK    8  A    between atoms: C_12  and  C_19 
REMARK       I    between atoms: C_12  and  N_31 
REMARK    9  A    between atoms: O_14  and  C_28 
REMARK   10  A    between atoms: C_15  and  C_26 
REMARK   11  A    between atoms: C_21  and  C_27 
REMARK   12  A    between atoms: C_21  and  O_29 
REMARK   13  A    between atoms: O_23  and  C_36 
ROOT
HETATM    1  C   UNL     1       9.672  39.524  16.682  1.00  0.00     0.073 C 
ENDROOT
BRANCH   1   2
HETATM    2  C   UNL     1       9.627  39.201  18.136  1.00  0.00     0.043 C 
BRANCH   2   3
HETATM    3  C   UNL     1      10.283  38.039  18.731  1.00  0.00     0.033 C 
HETATM    4  C   UNL     1      11.016  37.086  18.025  1.00  0.00     0.021 C 
BRANCH   4   5
HETATM    5  C   UNL     1      12.059  36.160  18.507  1.00  0.00     0.114 C 
BRANCH   5   6
HETATM    6  N   UNL     1      13.459  36.427  18.846  1.00  0.00    -0.171 N 
HETATM    7  C   UNL     1      14.584  36.165  18.137  1.00  0.00     0.115 C 
HETATM    8  C   UNL     1      15.702  36.376  18.906  1.00  0.00     0.163 C 
HETATM    9  N   UNL     1      15.254  36.945  20.087  1.00  0.00    -0.215 N 
HETATM   10  C   UNL     1      13.921  36.871  20.052  1.00  0.00     0.678 C 
ATOM     11  HN  UNL     1      15.827  37.339  20.833  1.00  0.00     0.178 HD
BRANCH   8  12
HETATM   12  C   UNL     1      16.852  37.201  18.302  1.00  0.00     0.198 C 
BRANCH  12  13
HETATM   13  O   UNL     1      16.534  38.580  18.245  1.00  0.00    -0.394 OA
HETATM   14  C   UNL     1      17.638  39.452  18.444  1.00  0.00     0.201 C 
ENDBRANCH  12  13
ENDBRANCH   8  12
BRANCH  10  15
HETATM   15  N   UNL     1      13.157  37.370  21.012  1.00  0.00    -0.234 N 
ATOM     16  HN2 UNL     1      12.376  37.997  20.818  1.00  0.00     0.174 HD
ATOM     17  HN1 UNL     1      13.172  37.061  21.984  1.00  0.00     0.174 HD
ENDBRANCH  10  15
ENDBRANCH   5   6
ENDBRANCH   4   5
ENDBRANCH   2   3
BRANCH   2  18
HETATM   18  O   UNL     1       9.253  40.215  18.979  1.00  0.00    -0.365 OA
ATOM     19  HO  UNL     1       9.561  40.159  19.875  1.00  0.00     0.217 HD
ENDBRANCH   2  18
ENDBRANCH   1   2
BRANCH   1  20
HETATM   20  C   UNL     1      10.362  40.822  16.288  1.00  0.00     0.110 C 
BRANCH  20  21
HETATM   21  C   UNL     1       9.345  41.829  15.783  1.00  0.00     0.224 C 
HETATM   22  O   UNL     1       9.361  42.243  14.626  1.00  0.00    -0.273 OA
HETATM   23  N   UNL     1       8.421  42.251  16.681  1.00  0.00    -0.297 N 
HETATM   24  C   UNL     1       8.371  43.525  17.156  1.00  0.00     0.228 C 
ATOM     25  HN  UNL     1       7.730  41.581  17.016  1.00  0.00     0.171 HD
HETATM   26  O   UNL     1       8.928  44.450  16.610  1.00  0.00    -0.273 OA
BRANCH  24  27
HETATM   27  C   UNL     1       7.613  43.665  18.466  1.00  0.00     0.141 C 
BRANCH  27  28
HETATM   28  C   UNL     1       8.416  44.206  19.633  1.00  0.00    -0.049 C 
HETATM   29  C   UNL     1       9.209  43.349  20.386  1.00  0.00     0.007 C 
HETATM   30  C   UNL     1       9.886  43.634  21.540  1.00  0.00     0.003 C 
HETATM   31  C   UNL     1       9.887  44.705  22.394  1.00  0.00     0.036 C 
HETATM   32  C   UNL     1       9.598  46.008  22.013  1.00  0.00     0.065 C 
HETATM   33  C   UNL     1       8.815  46.309  20.932  1.00  0.00     0.037 C 
HETATM   34  C   UNL     1       8.362  45.553  19.895  1.00  0.00     0.010 C 
BRANCH  32  35
HETATM   35  O   UNL     1      10.227  47.022  22.658  1.00  0.00    -0.361 OA
ATOM     36  HO  UNL     1      10.835  46.805  23.355  1.00  0.00     0.217 HD
ENDBRANCH  32  35
ENDBRANCH  27  28
ENDBRANCH  24  27
ENDBRANCH  20  21
ENDBRANCH   1  20
TORSDOF 13
ENDMDL
MODEL 2
REMARK VINA RESULT:      -6.8      3.676      5.079
REMARK  13 active torsions:
REMARK  status: ('A' for Active; 'I' for Inactive)
REMARK    1  A    between atoms: N_1  and  C_15 
REMARK    2  A    between atoms: C_2  and  C_22 
REMARK       I    between atoms: C_2  and  N_31 
REMARK    3  A    between atoms: N_4  and  C_33 
REMARK    4  A    between atoms: C_7  and  C_19 
REMARK    5  A    between atoms: C_8  and  C_21 
REMARK    6  A    between atoms: C_8  and  C_22 
REMARK    7  A    between atoms: C_11  and  C_28 
REMARK    8  A    between atoms: C_12  and  C_19 
REMARK       I    between atoms: C_12  and  N_31 
REMARK    9  A    between atoms: O_14  and  C_28 
REMARK   10  A    between atoms: C_15  and  C_26 
REMARK   11  A    between atoms: C_21  and  C_27 
REMARK   12  A    between atoms: C_21  and  O_29 
REMARK   13  A    between atoms: O_23  and  C_36 
ROOT
HETATM    1  C   UNL     1      10.639  40.046  17.696  1.00  0.00     0.073 C 
ENDROOT
BRANCH   1   2
HETATM    2  C   UNL     1      11.134  38.651  17.873  1.00  0.00     0.043 C 
BRANCH   2   3
HETATM    3  C   UNL     1      10.464  37.651  18.700  1.00  0.00     0.033 C 
HETATM    4  C   UNL     1       9.268  37.852  19.388  1.00  0.00     0.021 C 
BRANCH   4   5
HETATM    5  C   UNL     1       8.286  36.862  19.870  1.00  0.00     0.114 C 
BRANCH   5   6
HETATM    6  N   UNL     1       8.368  35.946  21.010  1.00  0.00    -0.171 N 
HETATM    7  C   UNL     1       8.878  34.692  21.075  1.00  0.00     0.115 C 
HETATM    8  C   UNL     1       8.563  34.102  22.274  1.00  0.00     0.163 C 
HETATM    9  N   UNL     1       7.970  35.089  23.045  1.00  0.00    -0.215 N 
HETATM   10  C   UNL     1       7.788  36.134  22.232  1.00  0.00     0.678 C 
ATOM     11  HN  UNL     1       7.723  35.030  24.033  1.00  0.00     0.178 HD
BRANCH   8  12
HETATM   12  C   UNL     1       9.687  33.398  23.054  1.00  0.00     0.198 C 
BRANCH  12  13
HETATM   13  O   UNL     1       9.386  33.303  24.436  1.00  0.00    -0.394 OA
HETATM   14  C   UNL     1       8.902  32.033  24.850  1.00  0.00     0.201 C 
ENDBRANCH  12  13
ENDBRANCH   8  12
BRANCH  10  15
HETATM   15  N   UNL     1       7.282  37.282  22.655  1.00  0.00    -0.234 N 
ATOM     16  HN2 UNL     1       7.014  38.031  22.016  1.00  0.00     0.174 HD
ATOM     17  HN1 UNL     1       6.971  37.461  23.610  1.00  0.00     0.174 HD
ENDBRANCH  10  15
ENDBRANCH   5   6
ENDBRANCH   4   5
ENDBRANCH   2   3
BRANCH   2  18
HETATM   18  O   UNL     1      12.047  38.203  16.954  1.00  0.00    -0.365 OA
ATOM     19  HO  UNL     1      12.120  38.701  16.149  1.00  0.00     0.217 HD
ENDBRANCH   2  18
ENDBRANCH   1   2
BRANCH   1  20
HETATM   20  C   UNL     1      10.584  40.580  16.272  1.00  0.00     0.110 C 
BRANCH  20  21
HETATM   21  C   UNL     1       9.144  40.708  15.810  1.00  0.00     0.224 C 
HETATM   22  O   UNL     1       8.833  40.620  14.625  1.00  0.00    -0.273 OA
HETATM   23  N   UNL     1       8.221  40.930  16.778  1.00  0.00    -0.297 N 
HETATM   24  C   UNL     1       7.527  42.095  16.894  1.00  0.00     0.228 C 
ATOM     25  HN  UNL     1       8.037  40.187  17.452  1.00  0.00     0.171 HD
HETATM   26  O   UNL     1       7.442  42.898  15.993  1.00  0.00    -0.273 OA
BRANCH  24  27
HETATM   27  C   UNL     1       6.932  42.323  18.273  1.00  0.00     0.141 C 
BRANCH  27  28
HETATM   28  C   UNL     1       7.760  43.179  19.211  1.00  0.00    -0.049 C 
HETATM   29  C   UNL     1       7.818  44.555  19.025  1.00  0.00     0.007 C 
HETATM   30  C   UNL     1       8.611  45.455  19.683  1.00  0.00     0.003 C 
HETATM   31  C   UNL     1       9.665  45.328  20.549  1.00  0.00     0.036 C 
HETATM   32  C   UNL     1       9.850  44.248  21.401  1.00  0.00     0.065 C 
HETATM   33  C   UNL     1       9.341  43.005  21.145  1.00  0.00     0.037 C 
HETATM   34  C   UNL     1       8.412  42.565  20.252  1.00  0.00     0.010 C 
BRANCH  32  35
HETATM   35  O   UNL     1      10.445  44.469  22.600  1.00  0.00    -0.361 OA
ATOM     36  HO  UNL     1       9.996  45.016  23.233  1.00  0.00     0.217 HD
ENDBRANCH  32  35
ENDBRANCH  27  28
ENDBRANCH  24  27
ENDBRANCH  20  21
ENDBRANCH   1  20
TORSDOF 13
ENDMDL
MODEL 3
REMARK VINA RESULT:      -6.7      1.245      1.714
REMARK  13 active torsions:
REMARK  status: ('A' for Active; 'I' for Inactive)
REMARK    1  A    between atoms: N_1  and  C_15 
REMARK    2  A    between atoms: C_2  and  C_22 
REMARK       I    between atoms: C_2  and  N_31 
REMARK    3  A    between atoms: N_4  and  C_33 
REMARK    4  A    between atoms: C_7  and  C_19 
REMARK    5  A    between atoms: C_8  and  C_21 
REMARK    6  A    between atoms: C_8  and  C_22 
REMARK    7  A    between atoms: C_11  and  C_28 
REMARK    8  A    between atoms: C_12  and  C_19 
REMARK       I    between atoms: C_12  and  N_31 
REMARK    9  A    between atoms: O_14  and  C_28 
REMARK   10  A    between atoms: C_15  and  C_26 
REMARK   11  A    between atoms: C_21  and  C_27 
REMARK   12  A    between atoms: C_21  and  O_29 
REMARK   13  A    between atoms: O_23  and  C_36 
ROOT
HETATM    1  C   UNL     1       9.905  39.536  17.576  1.00  0.00     0.073 C 
ENDROOT
BRANCH   1   2
HETATM    2  C   UNL     1       9.814  38.542  18.681  1.00  0.00     0.043 C 
BRANCH   2   3
HETATM    3  C   UNL     1      10.876  37.592  19.008  1.00  0.00     0.033 C 
HETATM    4  C   UNL     1      11.486  36.730  18.098  1.00  0.00     0.021 C 
BRANCH   4   5
HETATM    5  C   UNL     1      12.806  36.073  18.170  1.00  0.00     0.114 C 
BRANCH   5   6
HETATM    6  N   UNL     1      14.131  36.664  18.375  1.00  0.00    -0.171 N 
HETATM    7  C   UNL     1      15.121  36.897  17.480  1.00  0.00     0.115 C 
HETATM    8  C   UNL     1      16.279  37.262  18.121  1.00  0.00     0.163 C 
HETATM    9  N   UNL     1      15.946  37.416  19.457  1.00  0.00    -0.215 N 
HETATM   10  C   UNL     1      14.696  36.963  19.582  1.00  0.00     0.678 C 
ATOM     11  HN  UNL     1      16.537  37.798  20.195  1.00  0.00     0.178 HD
BRANCH   8  12
HETATM   12  C   UNL     1      17.038  38.494  17.599  1.00  0.00     0.198 C 
BRANCH  12  13
HETATM   13  O   UNL     1      16.771  39.645  18.383  1.00  0.00    -0.394 OA
HETATM   14  C   UNL     1      15.886  40.579  17.781  1.00  0.00     0.201 C 
ENDBRANCH  12  13
ENDBRANCH   8  12
BRANCH  10  15
HETATM   15  N   UNL     1      14.037  37.005  20.731  1.00  0.00    -0.234 N 
ATOM     16  HN2 UNL     1      13.033  37.180  20.779  1.00  0.00     0.174 HD
ATOM     17  HN1 UNL     1      14.423  36.719  21.630  1.00  0.00     0.174 HD
ENDBRANCH  10  15
ENDBRANCH   5   6
ENDBRANCH   4   5
ENDBRANCH   2   3
BRANCH   2  18
HETATM   18  O   UNL     1       8.853  38.766  19.631  1.00  0.00    -0.365 OA
ATOM     19  HO  UNL     1       8.224  38.069  19.774  1.00  0.00     0.217 HD
ENDBRANCH   2  18
ENDBRANCH   1   2
BRANCH   1  20
HETATM   20  C   UNL     1       9.337  39.118  16.227  1.00  0.00     0.110 C 
BRANCH  20  21
HETATM   21  C   UNL     1       8.669  40.299  15.546  1.00  0.00     0.224 C 
HETATM   22  O   UNL     1       8.923  40.606  14.384  1.00  0.00    -0.273 OA
HETATM   23  N   UNL     1       7.781  40.999  16.293  1.00  0.00    -0.297 N 
HETATM   24  C   UNL     1       7.994  42.281  16.698  1.00  0.00     0.228 C 
ATOM     25  HN  UNL     1       6.910  40.543  16.564  1.00  0.00     0.171 HD
HETATM   26  O   UNL     1       8.823  42.999  16.189  1.00  0.00    -0.273 OA
BRANCH  24  27
HETATM   27  C   UNL     1       7.147  42.699  17.888  1.00  0.00     0.141 C 
BRANCH  27  28
HETATM   28  C   UNL     1       7.891  43.398  19.009  1.00  0.00    -0.049 C 
HETATM   29  C   UNL     1       8.018  44.782  19.000  1.00  0.00     0.007 C 
HETATM   30  C   UNL     1       8.761  45.559  19.846  1.00  0.00     0.003 C 
HETATM   31  C   UNL     1       9.703  45.281  20.801  1.00  0.00     0.036 C 
HETATM   32  C   UNL     1       9.751  44.101  21.530  1.00  0.00     0.065 C 
HETATM   33  C   UNL     1       9.231  42.922  21.070  1.00  0.00     0.037 C 
HETATM   34  C   UNL     1       8.397  42.636  20.032  1.00  0.00     0.010 C 
BRANCH  32  35
HETATM   35  O   UNL     1      10.212  44.150  22.804  1.00  0.00    -0.361 OA
ATOM     36  HO  UNL     1       9.610  43.945  23.510  1.00  0.00     0.217 HD
ENDBRANCH  32  35
ENDBRANCH  27  28
ENDBRANCH  24  27
ENDBRANCH  20  21
ENDBRANCH   1  20
TORSDOF 13
ENDMDL
MODEL 4
REMARK VINA RESULT:      -6.7      3.687      8.226
REMARK  13 active torsions:
REMARK  status: ('A' for Active; 'I' for Inactive)
REMARK    1  A    between atoms: N_1  and  C_15 
REMARK    2  A    between atoms: C_2  and  C_22 
REMARK       I    between atoms: C_2  and  N_31 
REMARK    3  A    between atoms: N_4  and  C_33 
REMARK    4  A    between atoms: C_7  and  C_19 
REMARK    5  A    between atoms: C_8  and  C_21 
REMARK    6  A    between atoms: C_8  and  C_22 
REMARK    7  A    between atoms: C_11  and  C_28 
REMARK    8  A    between atoms: C_12  and  C_19 
REMARK       I    between atoms: C_12  and  N_31 
REMARK    9  A    between atoms: O_14  and  C_28 
REMARK   10  A    between atoms: C_15  and  C_26 
REMARK   11  A    between atoms: C_21  and  C_27 
REMARK   12  A    between atoms: C_21  and  O_29 
REMARK   13  A    between atoms: O_23  and  C_36 
ROOT
HETATM    1  C   UNL     1      10.109  45.321  14.807  1.00  0.00     0.073 C 
ENDROOT
BRANCH   1   2
HETATM    2  C   UNL     1       9.469  46.372  15.647  1.00  0.00     0.043 C 
BRANCH   2   3
HETATM    3  C   UNL     1       8.618  46.083  16.799  1.00  0.00     0.033 C 
HETATM    4  C   UNL     1       8.481  44.832  17.400  1.00  0.00     0.021 C 
BRANCH   4   5
HETATM    5  C   UNL     1       8.041  44.492  18.766  1.00  0.00     0.114 C 
BRANCH   5   6
HETATM    6  N   UNL     1       8.807  44.478  20.015  1.00  0.00    -0.171 N 
HETATM    7  C   UNL     1       9.392  45.503  20.681  1.00  0.00     0.115 C 
HETATM    8  C   UNL     1      10.193  45.031  21.692  1.00  0.00     0.163 C 
HETATM    9  N   UNL     1       9.968  43.665  21.754  1.00  0.00    -0.215 N 
HETATM   10  C   UNL     1       9.219  43.364  20.690  1.00  0.00     0.678 C 
ATOM     11  HN  UNL     1      10.307  43.020  22.468  1.00  0.00     0.178 HD
BRANCH   8  12
HETATM   12  C   UNL     1      10.058  45.673  23.084  1.00  0.00     0.198 C 
BRANCH  12  13
HETATM   13  O   UNL     1      11.112  46.584  23.344  1.00  0.00    -0.394 OA
HETATM   14  C   UNL     1      12.411  46.083  23.063  1.00  0.00     0.201 C 
ENDBRANCH  12  13
ENDBRANCH   8  12
BRANCH  10  15
HETATM   15  N   UNL     1       8.773  42.138  20.460  1.00  0.00    -0.234 N 
ATOM     16  HN2 UNL     1       7.785  41.894  20.529  1.00  0.00     0.174 HD
ATOM     17  HN1 UNL     1       9.328  41.387  20.050  1.00  0.00     0.174 HD
ENDBRANCH  10  15
ENDBRANCH   5   6
ENDBRANCH   4   5
ENDBRANCH   2   3
BRANCH   2  18
HETATM   18  O   UNL     1       9.981  47.638  15.541  1.00  0.00    -0.365 OA
ATOM     19  HO  UNL     1       9.823  48.095  14.723  1.00  0.00     0.217 HD
ENDBRANCH   2  18
ENDBRANCH   1   2
BRANCH   1  20
HETATM   20  C   UNL     1      11.165  45.784  13.814  1.00  0.00     0.110 C 
BRANCH  20  21
HETATM   21  C   UNL     1      12.556  45.498  14.350  1.00  0.00     0.224 C 
HETATM   22  O   UNL     1      13.385  46.390  14.510  1.00  0.00    -0.273 OA
HETATM   23  N   UNL     1      12.835  44.203  14.637  1.00  0.00    -0.297 N 
HETATM   24  C   UNL     1      13.739  43.462  13.939  1.00  0.00     0.228 C 
ATOM     25  HN  UNL     1      12.344  43.762  15.413  1.00  0.00     0.171 HD
HETATM   26  O   UNL     1      14.578  43.959  13.222  1.00  0.00    -0.273 OA
BRANCH  24  27
HETATM   27  C   UNL     1      13.553  41.962  14.088  1.00  0.00     0.141 C 
BRANCH  27  28
HETATM   28  C   UNL     1      13.891  41.392  15.452  1.00  0.00    -0.049 C 
HETATM   29  C   UNL     1      15.130  41.653  16.024  1.00  0.00     0.007 C 
HETATM   30  C   UNL     1      15.651  41.119  17.171  1.00  0.00     0.003 C 
HETATM   31  C   UNL     1      15.263  40.096  17.997  1.00  0.00     0.036 C 
HETATM   32  C   UNL     1      13.948  39.693  18.175  1.00  0.00     0.065 C 
HETATM   33  C   UNL     1      12.977  39.886  17.231  1.00  0.00     0.037 C 
HETATM   34  C   UNL     1      12.938  40.652  16.106  1.00  0.00     0.010 C 
BRANCH  32  35
HETATM   35  O   UNL     1      13.582  39.210  19.388  1.00  0.00    -0.361 OA
ATOM     36  HO  UNL     1      14.255  39.086  20.047  1.00  0.00     0.217 HD
ENDBRANCH  32  35
ENDBRANCH  27  28
ENDBRANCH  24  27
ENDBRANCH  20  21
ENDBRANCH   1  20
TORSDOF 13
ENDMDL
MODEL 5
REMARK VINA RESULT:      -6.6      3.581      4.493
REMARK  13 active torsions:
REMARK  status: ('A' for Active; 'I' for Inactive)
REMARK    1  A    between atoms: N_1  and  C_15 
REMARK    2  A    between atoms: C_2  and  C_22 
REMARK       I    between atoms: C_2  and  N_31 
REMARK    3  A    between atoms: N_4  and  C_33 
REMARK    4  A    between atoms: C_7  and  C_19 
REMARK    5  A    between atoms: C_8  and  C_21 
REMARK    6  A    between atoms: C_8  and  C_22 
REMARK    7  A    between atoms: C_11  and  C_28 
REMARK    8  A    between atoms: C_12  and  C_19 
REMARK       I    between atoms: C_12  and  N_31 
REMARK    9  A    between atoms: O_14  and  C_28 
REMARK   10  A    between atoms: C_15  and  C_26 
REMARK   11  A    between atoms: C_21  and  C_27 
REMARK   12  A    between atoms: C_21  and  O_29 
REMARK   13  A    between atoms: O_23  and  C_36 
ROOT
HETATM    1  C   UNL     1       7.021  40.734  13.119  1.00  0.00     0.073 C 
ENDROOT
BRANCH   1   2
HETATM    2  C   UNL     1       6.676  39.488  13.859  1.00  0.00     0.043 C 
BRANCH   2   3
HETATM    3  C   UNL     1       7.669  38.556  14.388  1.00  0.00     0.033 C 
HETATM    4  C   UNL     1       8.830  38.923  15.067  1.00  0.00     0.021 C 
BRANCH   4   5
HETATM    5  C   UNL     1       9.655  38.139  16.005  1.00  0.00     0.114 C 
BRANCH   5   6
HETATM    6  N   UNL     1       9.486  37.930  17.446  1.00  0.00    -0.171 N 
HETATM    7  C   UNL     1       8.979  36.864  18.110  1.00  0.00     0.115 C 
HETATM    8  C   UNL     1       8.799  37.160  19.439  1.00  0.00     0.163 C 
HETATM    9  N   UNL     1       9.367  38.409  19.634  1.00  0.00    -0.215 N 
HETATM   10  C   UNL     1       9.676  38.870  18.418  1.00  0.00     0.678 C 
ATOM     11  HN  UNL     1       9.518  38.881  20.526  1.00  0.00     0.178 HD
BRANCH   8  12
HETATM   12  C   UNL     1       9.314  36.154  20.483  1.00  0.00     0.198 C 
BRANCH  12  13
HETATM   13  O   UNL     1      10.392  36.685  21.235  1.00  0.00    -0.394 OA
HETATM   14  C   UNL     1      10.921  35.804  22.215  1.00  0.00     0.201 C 
ENDBRANCH  12  13
ENDBRANCH   8  12
BRANCH  10  15
HETATM   15  N   UNL     1      10.286  40.031  18.234  1.00  0.00    -0.234 N 
ATOM     16  HN2 UNL     1      10.871  40.217  17.420  1.00  0.00     0.174 HD
ATOM     17  HN1 UNL     1      10.106  40.873  18.781  1.00  0.00     0.174 HD
ENDBRANCH  10  15
ENDBRANCH   5   6
ENDBRANCH   4   5
ENDBRANCH   2   3
BRANCH   2  18
HETATM   18  O   UNL     1       5.402  39.402  14.357  1.00  0.00    -0.365 OA
ATOM     19  HO  UNL     1       5.044  40.190  14.748  1.00  0.00     0.217 HD
ENDBRANCH   2  18
ENDBRANCH   1   2
BRANCH   1  20
HETATM   20  C   UNL     1       6.418  42.031  13.638  1.00  0.00     0.110 C 
BRANCH  20  21
HETATM   21  C   UNL     1       7.470  42.853  14.358  1.00  0.00     0.224 C 
HETATM   22  O   UNL     1       8.493  43.234  13.796  1.00  0.00    -0.273 OA
HETATM   23  N   UNL     1       7.221  43.139  15.660  1.00  0.00    -0.297 N 
HETATM   24  C   UNL     1       7.954  42.631  16.689  1.00  0.00     0.228 C 
ATOM     25  HN  UNL     1       6.447  43.766  15.880  1.00  0.00     0.171 HD
HETATM   26  O   UNL     1       9.050  42.144  16.534  1.00  0.00    -0.273 OA
BRANCH  24  27
HETATM   27  C   UNL     1       7.242  42.670  18.030  1.00  0.00     0.141 C 
BRANCH  27  28
HETATM   28  C   UNL     1       7.962  43.422  19.133  1.00  0.00    -0.049 C 
HETATM   29  C   UNL     1       8.017  44.810  19.105  1.00  0.00     0.007 C 
HETATM   30  C   UNL     1       8.728  45.635  19.931  1.00  0.00     0.003 C 
HETATM   31  C   UNL     1       9.695  45.419  20.878  1.00  0.00     0.036 C 
HETATM   32  C   UNL     1       9.812  44.253  21.621  1.00  0.00     0.065 C 
HETATM   33  C   UNL     1       9.348  43.043  21.183  1.00  0.00     0.037 C 
HETATM   34  C   UNL     1       8.518  42.700  20.160  1.00  0.00     0.010 C 
BRANCH  32  35
HETATM   35  O   UNL     1      10.284  44.343  22.889  1.00  0.00    -0.361 OA
ATOM     36  HO  UNL     1       9.658  44.365  23.604  1.00  0.00     0.217 HD
ENDBRANCH  32  35
ENDBRANCH  27  28
ENDBRANCH  24  27
ENDBRANCH  20  21
ENDBRANCH   1  20
TORSDOF 13
ENDMDL
MODEL 6
REMARK VINA RESULT:      -6.5      2.139      3.791
REMARK  13 active torsions:
REMARK  status: ('A' for Active; 'I' for Inactive)
REMARK    1  A    between atoms: N_1  and  C_15 
REMARK    2  A    between atoms: C_2  and  C_22 
REMARK       I    between atoms: C_2  and  N_31 
REMARK    3  A    between atoms: N_4  and  C_33 
REMARK    4  A    between atoms: C_7  and  C_19 
REMARK    5  A    between atoms: C_8  and  C_21 
REMARK    6  A    between atoms: C_8  and  C_22 
REMARK    7  A    between atoms: C_11  and  C_28 
REMARK    8  A    between atoms: C_12  and  C_19 
REMARK       I    between atoms: C_12  and  N_31 
REMARK    9  A    between atoms: O_14  and  C_28 
REMARK   10  A    between atoms: C_15  and  C_26 
REMARK   11  A    between atoms: C_21  and  C_27 
REMARK   12  A    between atoms: C_21  and  O_29 
REMARK   13  A    between atoms: O_23  and  C_36 
ROOT
HETATM    1  C   UNL     1      11.598  41.435  15.276  1.00  0.00     0.073 C 
ENDROOT
BRANCH   1   2
HETATM    2  C   UNL     1      13.047  41.140  15.455  1.00  0.00     0.043 C 
BRANCH   2   3
HETATM    3  C   UNL     1      13.555  39.943  16.121  1.00  0.00     0.033 C 
HETATM    4  C   UNL     1      13.911  39.866  17.467  1.00  0.00     0.021 C 
BRANCH   4   5
HETATM    5  C   UNL     1      14.004  38.685  18.346  1.00  0.00     0.114 C 
BRANCH   5   6
HETATM    6  N   UNL     1      12.937  37.921  18.997  1.00  0.00    -0.171 N 
HETATM    7  C   UNL     1      11.626  37.817  18.669  1.00  0.00     0.115 C 
HETATM    8  C   UNL     1      10.927  37.176  19.661  1.00  0.00     0.163 C 
HETATM    9  N   UNL     1      11.872  36.724  20.568  1.00  0.00    -0.215 N 
HETATM   10  C   UNL     1      13.035  37.265  20.191  1.00  0.00     0.678 C 
ATOM     11  HN  UNL     1      11.713  36.105  21.363  1.00  0.00     0.178 HD
BRANCH   8  12
HETATM   12  C   UNL     1       9.969  36.042  19.257  1.00  0.00     0.198 C 
BRANCH  12  13
HETATM   13  O   UNL     1       9.963  35.836  17.855  1.00  0.00    -0.394 OA
HETATM   14  C   UNL     1       8.685  35.955  17.245  1.00  0.00     0.201 C 
ENDBRANCH  12  13
ENDBRANCH   8  12
BRANCH  10  15
HETATM   15  N   UNL     1      14.174  37.004  20.814  1.00  0.00    -0.234 N 
ATOM     16  HN2 UNL     1      14.587  36.071  20.830  1.00  0.00     0.174 HD
ATOM     17  HN1 UNL     1      14.806  37.712  21.186  1.00  0.00     0.174 HD
ENDBRANCH  10  15
ENDBRANCH   5   6
ENDBRANCH   4   5
ENDBRANCH   2   3
BRANCH   2  18
HETATM   18  O   UNL     1      13.919  41.840  14.662  1.00  0.00    -0.365 OA
ATOM     19  HO  UNL     1      14.111  42.732  14.925  1.00  0.00     0.217 HD
ENDBRANCH   2  18
ENDBRANCH   1   2
BRANCH   1  20
HETATM   20  C   UNL     1      10.635  40.756  16.239  1.00  0.00     0.110 C 
BRANCH  20  21
HETATM   21  C   UNL     1       9.205  40.912  15.754  1.00  0.00     0.224 C 
HETATM   22  O   UNL     1       8.917  40.878  14.560  1.00  0.00    -0.273 OA
HETATM   23  N   UNL     1       8.263  41.096  16.712  1.00  0.00    -0.297 N 
HETATM   24  C   UNL     1       7.572  42.259  16.865  1.00  0.00     0.228 C 
ATOM     25  HN  UNL     1       8.062  40.326  17.348  1.00  0.00     0.171 HD
HETATM   26  O   UNL     1       7.509  43.102  15.999  1.00  0.00    -0.273 OA
BRANCH  24  27
HETATM   27  C   UNL     1       6.950  42.429  18.240  1.00  0.00     0.141 C 
BRANCH  27  28
HETATM   28  C   UNL     1       7.767  43.230  19.235  1.00  0.00    -0.049 C 
HETATM   29  C   UNL     1       7.892  44.606  19.082  1.00  0.00     0.007 C 
HETATM   30  C   UNL     1       8.689  45.458  19.796  1.00  0.00     0.003 C 
HETATM   31  C   UNL     1       9.694  45.269  20.708  1.00  0.00     0.036 C 
HETATM   32  C   UNL     1       9.792  44.166  21.544  1.00  0.00     0.065 C 
HETATM   33  C   UNL     1       9.243  42.951  21.238  1.00  0.00     0.037 C 
HETATM   34  C   UNL     1       8.342  42.569  20.292  1.00  0.00     0.010 C 
BRANCH  32  35
HETATM   35  O   UNL     1      10.337  44.337  22.774  1.00  0.00    -0.361 OA
ATOM     36  HO  UNL     1      10.796  45.149  22.956  1.00  0.00     0.217 HD
ENDBRANCH  32  35
ENDBRANCH  27  28
ENDBRANCH  24  27
ENDBRANCH  20  21
ENDBRANCH   1  20
TORSDOF 13
ENDMDL
MODEL 7
REMARK VINA RESULT:      -6.4      2.539      4.567
REMARK  13 active torsions:
REMARK  status: ('A' for Active; 'I' for Inactive)
REMARK    1  A    between atoms: N_1  and  C_15 
REMARK    2  A    between atoms: C_2  and  C_22 
REMARK       I    between atoms: C_2  and  N_31 
REMARK    3  A    between atoms: N_4  and  C_33 
REMARK    4  A    between atoms: C_7  and  C_19 
REMARK    5  A    between atoms: C_8  and  C_21 
REMARK    6  A    between atoms: C_8  and  C_22 
REMARK    7  A    between atoms: C_11  and  C_28 
REMARK    8  A    between atoms: C_12  and  C_19 
REMARK       I    between atoms: C_12  and  N_31 
REMARK    9  A    between atoms: O_14  and  C_28 
REMARK   10  A    between atoms: C_15  and  C_26 
REMARK   11  A    between atoms: C_21  and  C_27 
REMARK   12  A    between atoms: C_21  and  O_29 
REMARK   13  A    between atoms: O_23  and  C_36 
ROOT
HETATM    1  C   UNL     1      12.042  39.953  17.029  1.00  0.00     0.073 C 
ENDROOT
BRANCH   1   2
HETATM    2  C   UNL     1      13.108  38.977  17.390  1.00  0.00     0.043 C 
BRANCH   2   3
HETATM    3  C   UNL     1      12.873  37.778  18.191  1.00  0.00     0.033 C 
HETATM    4  C   UNL     1      12.920  37.723  19.584  1.00  0.00     0.021 C 
BRANCH   4   5
HETATM    5  C   UNL     1      12.297  36.754  20.505  1.00  0.00     0.114 C 
BRANCH   5   6
HETATM    6  N   UNL     1      10.881  36.527  20.801  1.00  0.00    -0.171 N 
HETATM    7  C   UNL     1       9.780  36.983  20.156  1.00  0.00     0.115 C 
HETATM    8  C   UNL     1       8.646  36.717  20.883  1.00  0.00     0.163 C 
HETATM    9  N   UNL     1       9.048  35.923  21.945  1.00  0.00    -0.215 N 
HETATM   10  C   UNL     1      10.383  35.912  21.914  1.00  0.00     0.678 C 
ATOM     11  HN  UNL     1       8.445  35.444  22.614  1.00  0.00     0.178 HD
BRANCH   8  12
HETATM   12  C   UNL     1       7.446  36.091  20.152  1.00  0.00     0.198 C 
BRANCH  12  13
HETATM   13  O   UNL     1       7.425  34.681  20.294  1.00  0.00    -0.394 OA
HETATM   14  C   UNL     1       7.802  33.962  19.128  1.00  0.00     0.201 C 
ENDBRANCH  12  13
ENDBRANCH   8  12
BRANCH  10  15
HETATM   15  N   UNL     1      11.107  35.202  22.768  1.00  0.00    -0.234 N 
ATOM     16  HN2 UNL     1      11.711  34.437  22.468  1.00  0.00     0.174 HD
ATOM     17  HN1 UNL     1      11.250  35.446  23.748  1.00  0.00     0.174 HD
ENDBRANCH  10  15
ENDBRANCH   5   6
ENDBRANCH   4   5
ENDBRANCH   2   3
BRANCH   2  18
HETATM   18  O   UNL     1      14.263  39.029  16.654  1.00  0.00    -0.365 OA
ATOM     19  HO  UNL     1      15.007  38.548  16.996  1.00  0.00     0.217 HD
ENDBRANCH   2  18
ENDBRANCH   1   2
BRANCH   1  20
HETATM   20  C   UNL     1      10.641  39.665  17.550  1.00  0.00     0.110 C 
BRANCH  20  21
HETATM   21  C   UNL     1       9.599  40.115  16.542  1.00  0.00     0.224 C 
HETATM   22  O   UNL     1       9.726  39.903  15.339  1.00  0.00    -0.273 OA
HETATM   23  N   UNL     1       8.523  40.771  17.043  1.00  0.00    -0.297 N 
HETATM   24  C   UNL     1       8.274  42.087  16.804  1.00  0.00     0.228 C 
ATOM     25  HN  UNL     1       7.869  40.252  17.628  1.00  0.00     0.171 HD
HETATM   26  O   UNL     1       8.796  42.699  15.900  1.00  0.00    -0.273 OA
BRANCH  24  27
HETATM   27  C   UNL     1       7.337  42.730  17.812  1.00  0.00     0.141 C 
BRANCH  27  28
HETATM   28  C   UNL     1       8.009  43.443  18.969  1.00  0.00    -0.049 C 
HETATM   29  C   UNL     1       8.108  44.829  18.966  1.00  0.00     0.007 C 
HETATM   30  C   UNL     1       8.791  45.620  19.848  1.00  0.00     0.003 C 
HETATM   31  C   UNL     1       9.689  45.360  20.850  1.00  0.00     0.036 C 
HETATM   32  C   UNL     1       9.723  44.181  21.582  1.00  0.00     0.065 C 
HETATM   33  C   UNL     1       9.250  42.992  21.096  1.00  0.00     0.037 C 
HETATM   34  C   UNL     1       8.477  42.690  20.018  1.00  0.00     0.010 C 
BRANCH  32  35
HETATM   35  O   UNL     1      10.116  44.238  22.878  1.00  0.00    -0.361 OA
ATOM     36  HO  UNL     1      10.308  45.089  23.254  1.00  0.00     0.217 HD
ENDBRANCH  32  35
ENDBRANCH  27  28
ENDBRANCH  24  27
ENDBRANCH  20  21
ENDBRANCH   1  20
TORSDOF 13
ENDMDL
MODEL 8
REMARK VINA RESULT:      -6.4      2.431      3.885
REMARK  13 active torsions:
REMARK  status: ('A' for Active; 'I' for Inactive)
REMARK    1  A    between atoms: N_1  and  C_15 
REMARK    2  A    between atoms: C_2  and  C_22 
REMARK       I    between atoms: C_2  and  N_31 
REMARK    3  A    between atoms: N_4  and  C_33 
REMARK    4  A    between atoms: C_7  and  C_19 
REMARK    5  A    between atoms: C_8  and  C_21 
REMARK    6  A    between atoms: C_8  and  C_22 
REMARK    7  A    between atoms: C_11  and  C_28 
REMARK    8  A    between atoms: C_12  and  C_19 
REMARK       I    between atoms: C_12  and  N_31 
REMARK    9  A    between atoms: O_14  and  C_28 
REMARK   10  A    between atoms: C_15  and  C_26 
REMARK   11  A    between atoms: C_21  and  C_27 
REMARK   12  A    between atoms: C_21  and  O_29 
REMARK   13  A    between atoms: O_23  and  C_36 
ROOT
HETATM    1  C   UNL     1      11.640  36.617  19.516  1.00  0.00     0.073 C 
ENDROOT
BRANCH   1   2
HETATM    2  C   UNL     1      12.833  36.698  20.404  1.00  0.00     0.043 C 
BRANCH   2   3
HETATM    3  C   UNL     1      14.186  36.970  19.923  1.00  0.00     0.033 C 
HETATM    4  C   UNL     1      14.838  36.251  18.922  1.00  0.00     0.021 C 
BRANCH   4   5
HETATM    5  C   UNL     1      15.963  36.658  18.057  1.00  0.00     0.114 C 
BRANCH   5   6
HETATM    6  N   UNL     1      17.158  37.437  18.388  1.00  0.00    -0.171 N 
HETATM    7  C   UNL     1      18.392  37.012  18.754  1.00  0.00     0.115 C 
HETATM    8  C   UNL     1      19.161  38.065  19.184  1.00  0.00     0.163 C 
HETATM    9  N   UNL     1      18.425  39.210  18.925  1.00  0.00    -0.215 N 
HETATM   10  C   UNL     1      17.214  38.793  18.544  1.00  0.00     0.678 C 
ATOM     11  HN  UNL     1      18.743  40.175  19.008  1.00  0.00     0.178 HD
BRANCH   8  12
HETATM   12  C   UNL     1      20.590  38.195  18.630  1.00  0.00     0.198 C 
BRANCH  12  13
HETATM   13  O   UNL     1      20.676  37.735  17.292  1.00  0.00    -0.394 OA
HETATM   14  C   UNL     1      20.945  38.749  16.334  1.00  0.00     0.201 C 
ENDBRANCH  12  13
ENDBRANCH   8  12
BRANCH  10  15
HETATM   15  N   UNL     1      16.260  39.632  18.169  1.00  0.00    -0.234 N 
ATOM     16  HN2 UNL     1      16.455  40.598  17.905  1.00  0.00     0.174 HD
ATOM     17  HN1 UNL     1      15.299  39.361  17.960  1.00  0.00     0.174 HD
ENDBRANCH  10  15
ENDBRANCH   5   6
ENDBRANCH   4   5
ENDBRANCH   2   3
BRANCH   2  18
HETATM   18  O   UNL     1      12.592  36.870  21.742  1.00  0.00    -0.365 OA
ATOM     19  HO  UNL     1      13.351  36.880  22.314  1.00  0.00     0.217 HD
ENDBRANCH   2  18
ENDBRANCH   1   2
BRANCH   1  20
HETATM   20  C   UNL     1      10.370  37.296  20.008  1.00  0.00     0.110 C 
BRANCH  20  21
HETATM   21  C   UNL     1       9.685  38.026  18.867  1.00  0.00     0.224 C 
HETATM   22  O   UNL     1       9.945  37.782  17.691  1.00  0.00    -0.273 OA
HETATM   23  N   UNL     1       8.773  38.966  19.217  1.00  0.00    -0.297 N 
HETATM   24  C   UNL     1       8.954  40.298  19.001  1.00  0.00     0.228 C 
ATOM     25  HN  UNL     1       7.909  38.661  19.665  1.00  0.00     0.171 HD
HETATM   26  O   UNL     1       9.773  40.729  18.222  1.00  0.00    -0.273 OA
BRANCH  24  27
HETATM   27  C   UNL     1       8.084  41.187  19.874  1.00  0.00     0.141 C 
BRANCH  27  28
HETATM   28  C   UNL     1       8.485  42.649  19.924  1.00  0.00    -0.049 C 
HETATM   29  C   UNL     1       9.348  43.098  20.916  1.00  0.00     0.007 C 
HETATM   30  C   UNL     1       9.705  44.390  21.191  1.00  0.00     0.003 C 
HETATM   31  C   UNL     1       9.252  45.608  20.757  1.00  0.00     0.036 C 
HETATM   32  C   UNL     1       8.672  45.828  19.515  1.00  0.00     0.065 C 
HETATM   33  C   UNL     1       8.034  44.845  18.809  1.00  0.00     0.037 C 
HETATM   34  C   UNL     1       8.003  43.492  18.953  1.00  0.00     0.010 C 
BRANCH  32  35
HETATM   35  O   UNL     1       8.863  47.031  18.920  1.00  0.00    -0.361 OA
ATOM     36  HO  UNL     1       8.145  47.410  18.426  1.00  0.00     0.217 HD
ENDBRANCH  32  35
ENDBRANCH  27  28
ENDBRANCH  24  27
ENDBRANCH  20  21
ENDBRANCH   1  20
TORSDOF 13
ENDMDL
MODEL 9
REMARK VINA RESULT:      -6.3      3.244      4.254
REMARK  13 active torsions:
REMARK  status: ('A' for Active; 'I' for Inactive)
REMARK    1  A    between atoms: N_1  and  C_15 
REMARK    2  A    between atoms: C_2  and  C_22 
REMARK       I    between atoms: C_2  and  N_31 
REMARK    3  A    between atoms: N_4  and  C_33 
REMARK    4  A    between atoms: C_7  and  C_19 
REMARK    5  A    between atoms: C_8  and  C_21 
REMARK    6  A    between atoms: C_8  and  C_22 
REMARK    7  A    between atoms: C_11  and  C_28 
REMARK    8  A    between atoms: C_12  and  C_19 
REMARK       I    between atoms: C_12  and  N_31 
REMARK    9  A    between atoms: O_14  and  C_28 
REMARK   10  A    between atoms: C_15  and  C_26 
REMARK   11  A    between atoms: C_21  and  C_27 
REMARK   12  A    between atoms: C_21  and  O_29 
REMARK   13  A    between atoms: O_23  and  C_36 
ROOT
HETATM    1  C   UNL     1       9.855  40.929  14.453  1.00  0.00     0.073 C 
ENDROOT
BRANCH   1   2
HETATM    2  C   UNL     1       9.238  39.863  15.290  1.00  0.00     0.043 C 
BRANCH   2   3
HETATM    3  C   UNL     1      10.004  38.949  16.135  1.00  0.00     0.033 C 
HETATM    4  C   UNL     1      10.506  39.257  17.399  1.00  0.00     0.021 C 
BRANCH   4   5
HETATM    5  C   UNL     1      10.884  38.355  18.503  1.00  0.00     0.114 C 
BRANCH   5   6
HETATM    6  N   UNL     1      10.031  37.622  19.441  1.00  0.00    -0.171 N 
HETATM    7  C   UNL     1      10.085  36.323  19.824  1.00  0.00     0.115 C 
HETATM    8  C   UNL     1       8.971  35.985  20.553  1.00  0.00     0.163 C 
HETATM    9  N   UNL     1       8.277  37.166  20.765  1.00  0.00    -0.215 N 
HETATM   10  C   UNL     1       8.883  38.090  20.014  1.00  0.00     0.678 C 
ATOM     11  HN  UNL     1       7.468  37.300  21.370  1.00  0.00     0.178 HD
BRANCH   8  12
HETATM   12  C   UNL     1       9.173  35.223  21.875  1.00  0.00     0.198 C 
BRANCH  12  13
HETATM   13  O   UNL     1       9.463  33.854  21.651  1.00  0.00    -0.394 OA
HETATM   14  C   UNL     1       8.900  32.966  22.606  1.00  0.00     0.201 C 
ENDBRANCH  12  13
ENDBRANCH   8  12
BRANCH  10  15
HETATM   15  N   UNL     1       8.506  39.360  20.012  1.00  0.00    -0.234 N 
ATOM     16  HN2 UNL     1       7.706  39.693  20.550  1.00  0.00     0.174 HD
ATOM     17  HN1 UNL     1       9.052  40.126  19.618  1.00  0.00     0.174 HD
ENDBRANCH  10  15
ENDBRANCH   5   6
ENDBRANCH   4   5
ENDBRANCH   2   3
BRANCH   2  18
HETATM   18  O   UNL     1       7.895  39.978  15.539  1.00  0.00    -0.365 OA
ATOM     19  HO  UNL     1       7.386  39.177  15.504  1.00  0.00     0.217 HD
ENDBRANCH   2  18
ENDBRANCH   1   2
BRANCH   1  20
HETATM   20  C   UNL     1      10.224  42.227  15.156  1.00  0.00     0.110 C 
BRANCH  20  21
HETATM   21  C   UNL     1       9.034  43.169  15.186  1.00  0.00     0.224 C 
HETATM   22  O   UNL     1       8.782  43.926  14.252  1.00  0.00    -0.273 OA
HETATM   23  N   UNL     1       8.269  43.133  16.304  1.00  0.00    -0.297 N 
HETATM   24  C   UNL     1       8.189  44.166  17.188  1.00  0.00     0.228 C 
ATOM     25  HN  UNL     1       7.726  42.291  16.493  1.00  0.00     0.171 HD
HETATM   26  O   UNL     1       8.535  45.292  16.911  1.00  0.00    -0.273 OA
BRANCH  24  27
HETATM   27  C   UNL     1       7.695  43.761  18.566  1.00  0.00     0.141 C 
BRANCH  27  28
HETATM   28  C   UNL     1       8.501  44.293  19.734  1.00  0.00    -0.049 C 
HETATM   29  C   UNL     1       9.318  43.436  20.461  1.00  0.00     0.007 C 
HETATM   30  C   UNL     1      10.003  43.710  21.613  1.00  0.00     0.003 C 
HETATM   31  C   UNL     1       9.995  44.765  22.488  1.00  0.00     0.036 C 
HETATM   32  C   UNL     1       9.679  46.069  22.136  1.00  0.00     0.065 C 
HETATM   33  C   UNL     1       8.878  46.377  21.070  1.00  0.00     0.037 C 
HETATM   34  C   UNL     1       8.427  45.634  20.023  1.00  0.00     0.010 C 
BRANCH  32  35
HETATM   35  O   UNL     1      10.297  47.081  22.793  1.00  0.00    -0.361 OA
ATOM     36  HO  UNL     1      10.173  47.968  22.476  1.00  0.00     0.217 HD
ENDBRANCH  32  35
ENDBRANCH  27  28
ENDBRANCH  24  27
ENDBRANCH  20  21
ENDBRANCH   1  20
TORSDOF 13
ENDMDL
