MODEL 1
REMARK VINA RESULT:     -11.7      0.000      0.000
REMARK  4 active torsions:
REMARK  status: ('A' for Active; 'I' for Inactive)
REMARK    1  A    between atoms: C_1  and  N_9 
REMARK    2  A    between atoms: C_6  and  O_23 
REMARK    3  A    between atoms: C_16  and  O_35 
REMARK    4  A    between atoms: C_22  and  N_34 
ROOT
HETATM    1  C   UNL     1      42.648   2.534 136.754  1.00  0.00     0.040 C 
HETATM    2  C   UNL     1      44.368   0.821 132.875  1.00  0.00     0.082 C 
HETATM    3  C   UNL     1      42.604   1.951 134.483  1.00  0.00     0.063 C 
HETATM    4  C   UNL     1      44.127   3.642 135.278  1.00  0.00     0.036 C 
HETATM    5  C   UNL     1      43.920   2.510 134.478  1.00  0.00     0.083 C 
HETATM    6  C   UNL     1      45.440  -0.001 132.627  1.00  0.00     0.026 C 
HETATM    7  C   UNL     1      47.728  -0.027 132.259  1.00  0.00     0.311 C 
HETATM    8  N   UNL     1      44.847   1.769 133.763  1.00  0.00    -0.252 N 
HETATM    9  C   UNL     1      43.273   3.762 136.395  1.00  0.00     0.032 C 
HETATM   10  C   UNL     1      45.739  -1.371 132.135  1.00  0.00     0.178 C 
HETATM   11  O   UNL     1      48.962   0.078 132.584  1.00  0.00    -0.244 OA
HETATM   12  N   UNL     1      46.226   1.773 133.712  1.00  0.00    -0.286 N 
ATOM     13  HN  UNL     1      46.861   2.441 134.149  1.00  0.00     0.188 HD
HETATM   14  C   UNL     1      43.022   0.847 132.493  1.00  0.00     0.120 C 
HETATM   15  C   UNL     1      41.973   1.843 135.736  1.00  0.00     0.061 C 
HETATM   16  C   UNL     1      46.557   0.685 132.949  1.00  0.00     0.146 C 
HETATM   17  N   UNL     1      42.139   1.469 133.300  1.00  0.00    -0.362 N 
ATOM     18  HN  UNL     1      41.160   1.573 133.033  1.00  0.00     0.165 HD
HETATM   19  N   UNL     1      47.220  -1.422 132.149  1.00  0.00    -0.294 N 
ENDROOT
BRANCH  19  20
HETATM   20  C   UNL     1      47.843  -2.681 132.252  1.00  0.00     0.042 C 
HETATM   21  C   UNL     1      48.110  -3.493 131.150  1.00  0.00     0.066 C 
HETATM   22  C   UNL     1      48.885  -4.672 131.133  1.00  0.00     0.067 C 
HETATM   23  C   UNL     1      49.693  -5.183 132.172  1.00  0.00     0.036 C 
HETATM   24  C   UNL     1      49.554  -5.108 133.560  1.00  0.00     0.003 C 
HETATM   25  C   UNL     1      48.820  -4.083 134.194  1.00  0.00     0.002 C 
HETATM   26  C   UNL     1      48.249  -3.013 133.567  1.00  0.00     0.030 C 
BRANCH  22  27
HETATM   27  O   UNL     1      48.909  -5.379 129.961  1.00  0.00    -0.361 OA
ATOM     28  HO  UNL     1      49.764  -5.582 129.600  1.00  0.00     0.217 HD
ENDBRANCH  22  27
ENDBRANCH  19  20
BRANCH   7  29
HETATM   29  O   UNL     1      47.710   0.515 130.946  1.00  0.00    -0.318 OA
ATOM     30  HO  UNL     1      47.578   1.442 131.109  1.00  0.00     0.222 HD
ENDBRANCH   7  29
BRANCH   1  31
HETATM   31  N   UNL     1      42.739   2.029 138.031  1.00  0.00    -0.333 N 
HETATM   32  C   UNL     1      42.255   0.781 138.256  1.00  0.00     0.096 C 
HETATM   33  C   UNL     1      41.008   0.534 138.848  1.00  0.00     0.021 C 
HETATM   34  C   UNL     1      40.493   1.400 139.812  1.00  0.00     0.043 C 
HETATM   35  C   UNL     1      41.345   2.087 140.682  1.00  0.00     0.117 C 
HETATM   36  F   UNL     1      40.970   2.104 141.969  1.00  0.00    -0.206 F 
HETATM   37  C   UNL     1      42.557   2.688 140.349  1.00  0.00     0.060 C 
HETATM   38  C   UNL     1      43.138   2.789 139.095  1.00  0.00     0.099 C 
ENDBRANCH   1  31
TORSDOF 4
ENDMDL
MODEL 2
REMARK VINA RESULT:     -11.2      3.777      8.834
REMARK  4 active torsions:
REMARK  status: ('A' for Active; 'I' for Inactive)
REMARK    1  A    between atoms: C_1  and  N_9 
REMARK    2  A    between atoms: C_6  and  O_23 
REMARK    3  A    between atoms: C_16  and  O_35 
REMARK    4  A    between atoms: C_22  and  N_34 
ROOT
HETATM    1  C   UNL     1      47.132  -0.730 131.332  1.00  0.00     0.040 C 
HETATM    2  C   UNL     1      43.715   1.666 133.209  1.00  0.00     0.082 C 
HETATM    3  C   UNL     1      45.704   1.116 131.560  1.00  0.00     0.063 C 
HETATM    4  C   UNL     1      44.824  -1.033 130.913  1.00  0.00     0.036 C 
HETATM    5  C   UNL     1      44.694   0.115 131.707  1.00  0.00     0.083 C 
HETATM    6  C   UNL     1      43.061   1.551 134.411  1.00  0.00     0.026 C 
HETATM    7  C   UNL     1      41.317   0.474 135.492  1.00  0.00     0.311 C 
HETATM    8  N   UNL     1      43.781   0.375 132.715  1.00  0.00    -0.252 N 
HETATM    9  C   UNL     1      46.141  -1.358 130.524  1.00  0.00     0.032 C 
HETATM   10  C   UNL     1      42.884   2.286 135.690  1.00  0.00     0.178 C 
HETATM   11  O   UNL     1      40.716  -0.520 136.030  1.00  0.00    -0.244 OA
HETATM   12  N   UNL     1      42.845  -0.401 133.369  1.00  0.00    -0.286 N 
ATOM     13  HN  UNL     1      42.563  -1.355 133.143  1.00  0.00     0.188 HD
HETATM   14  C   UNL     1      44.314   2.711 132.495  1.00  0.00     0.120 C 
HETATM   15  C   UNL     1      47.033   0.660 131.493  1.00  0.00     0.061 C 
HETATM   16  C   UNL     1      42.379   0.387 134.388  1.00  0.00     0.146 C 
HETATM   17  N   UNL     1      45.295   2.411 131.622  1.00  0.00    -0.362 N 
ATOM     18  HN  UNL     1      45.716   3.128 131.030  1.00  0.00     0.165 HD
HETATM   19  N   UNL     1      41.942   1.428 136.448  1.00  0.00    -0.294 N 
ENDROOT
BRANCH  19  20
HETATM   20  C   UNL     1      41.946   1.514 137.854  1.00  0.00     0.042 C 
HETATM   21  C   UNL     1      42.770   2.389 138.563  1.00  0.00     0.066 C 
HETATM   22  C   UNL     1      42.714   2.673 139.944  1.00  0.00     0.067 C 
HETATM   23  C   UNL     1      41.718   2.278 140.862  1.00  0.00     0.036 C 
HETATM   24  C   UNL     1      40.918   1.134 140.907  1.00  0.00     0.003 C 
HETATM   25  C   UNL     1      40.620   0.371 139.758  1.00  0.00     0.002 C 
HETATM   26  C   UNL     1      40.981   0.689 138.481  1.00  0.00     0.030 C 
BRANCH  22  27
HETATM   27  O   UNL     1      43.705   3.472 140.450  1.00  0.00    -0.361 OA
ATOM     28  HO  UNL     1      43.630   3.719 141.364  1.00  0.00     0.217 HD
ENDBRANCH  22  27
ENDBRANCH  19  20
BRANCH   7  29
HETATM   29  O   UNL     1      40.251   1.172 134.862  1.00  0.00    -0.318 OA
ATOM     30  HO  UNL     1      39.657   0.470 134.625  1.00  0.00     0.222 HD
ENDBRANCH   7  29
BRANCH   1  31
HETATM   31  N   UNL     1      48.114  -1.462 131.960  1.00  0.00    -0.333 N 
HETATM   32  C   UNL     1      48.535  -2.605 131.359  1.00  0.00     0.096 C 
HETATM   33  C   UNL     1      48.112  -3.882 131.753  1.00  0.00     0.021 C 
HETATM   34  C   UNL     1      47.816  -4.155 133.088  1.00  0.00     0.043 C 
HETATM   35  C   UNL     1      48.500  -3.503 134.118  1.00  0.00     0.117 C 
HETATM   36  F   UNL     1      48.901  -4.282 135.133  1.00  0.00    -0.206 F 
HETATM   37  C   UNL     1      48.854  -2.156 134.153  1.00  0.00     0.060 C 
HETATM   38  C   UNL     1      48.551  -1.174 133.222  1.00  0.00     0.099 C 
ENDBRANCH   1  31
TORSDOF 4
ENDMDL
MODEL 3
REMARK VINA RESULT:     -10.9      0.953      1.441
REMARK  4 active torsions:
REMARK  status: ('A' for Active; 'I' for Inactive)
REMARK    1  A    between atoms: C_1  and  N_9 
REMARK    2  A    between atoms: C_6  and  O_23 
REMARK    3  A    between atoms: C_16  and  O_35 
REMARK    4  A    between atoms: C_22  and  N_34 
ROOT
HETATM    1  C   UNL     1      42.459   2.281 136.872  1.00  0.00     0.040 C 
HETATM    2  C   UNL     1      44.235   1.143 132.812  1.00  0.00     0.082 C 
HETATM    3  C   UNL     1      42.439   2.009 134.543  1.00  0.00     0.063 C 
HETATM    4  C   UNL     1      43.922   3.608 135.571  1.00  0.00     0.036 C 
HETATM    5  C   UNL     1      43.743   2.590 134.624  1.00  0.00     0.083 C 
HETATM    6  C   UNL     1      45.326   0.384 132.463  1.00  0.00     0.026 C 
HETATM    7  C   UNL     1      47.616   0.454 132.114  1.00  0.00     0.311 C 
HETATM    8  N   UNL     1      44.689   1.972 133.823  1.00  0.00    -0.252 N 
HETATM    9  C   UNL     1      43.060   3.559 136.687  1.00  0.00     0.032 C 
HETATM   10  C   UNL     1      45.656  -0.901 131.793  1.00  0.00     0.178 C 
HETATM   11  O   UNL     1      48.845   0.540 132.460  1.00  0.00    -0.244 OA
HETATM   12  N   UNL     1      46.068   2.011 133.784  1.00  0.00    -0.286 N 
ATOM     13  HN  UNL     1      46.686   2.627 134.312  1.00  0.00     0.188 HD
HETATM   14  C   UNL     1      42.891   1.193 132.426  1.00  0.00     0.120 C 
HETATM   15  C   UNL     1      41.804   1.720 135.764  1.00  0.00     0.061 C 
HETATM   16  C   UNL     1      46.426   1.043 132.884  1.00  0.00     0.146 C 
HETATM   17  N   UNL     1      41.991   1.682 133.302  1.00  0.00    -0.362 N 
ATOM     18  HN  UNL     1      41.011   1.801 133.043  1.00  0.00     0.165 HD
HETATM   19  N   UNL     1      47.138  -0.923 131.812  1.00  0.00    -0.294 N 
ENDROOT
BRANCH  19  20
HETATM   20  C   UNL     1      47.788  -2.172 131.750  1.00  0.00     0.042 C 
HETATM   21  C   UNL     1      48.390  -2.774 132.854  1.00  0.00     0.066 C 
HETATM   22  C   UNL     1      48.897  -4.089 132.930  1.00  0.00     0.067 C 
HETATM   23  C   UNL     1      48.748  -5.122 131.980  1.00  0.00     0.036 C 
HETATM   24  C   UNL     1      48.643  -5.077 130.588  1.00  0.00     0.003 C 
HETATM   25  C   UNL     1      48.181  -3.935 129.900  1.00  0.00     0.002 C 
HETATM   26  C   UNL     1      47.703  -2.798 130.483  1.00  0.00     0.030 C 
BRANCH  22  27
HETATM   27  O   UNL     1      49.561  -4.430 134.078  1.00  0.00    -0.361 OA
ATOM     28  HO  UNL     1      50.502  -4.545 134.010  1.00  0.00     0.217 HD
ENDBRANCH  22  27
ENDBRANCH  19  20
BRANCH   7  29
HETATM   29  O   UNL     1      47.593   1.169 130.885  1.00  0.00    -0.318 OA
ATOM     30  HO  UNL     1      48.328   0.793 130.415  1.00  0.00     0.222 HD
ENDBRANCH   7  29
BRANCH   1  31
HETATM   31  N   UNL     1      42.555   1.610 138.070  1.00  0.00    -0.333 N 
HETATM   32  C   UNL     1      41.809   0.487 138.229  1.00  0.00     0.096 C 
HETATM   33  C   UNL     1      40.606   0.456 138.948  1.00  0.00     0.021 C 
HETATM   34  C   UNL     1      40.414   1.287 140.052  1.00  0.00     0.043 C 
HETATM   35  C   UNL     1      41.489   1.647 140.870  1.00  0.00     0.117 C 
HETATM   36  F   UNL     1      41.261   1.585 142.190  1.00  0.00    -0.206 F 
HETATM   37  C   UNL     1      42.770   1.993 140.447  1.00  0.00     0.060 C 
HETATM   38  C   UNL     1      43.230   2.118 139.144  1.00  0.00     0.099 C 
ENDBRANCH   1  31
TORSDOF 4
ENDMDL
MODEL 4
REMARK VINA RESULT:     -10.0      6.073      8.088
REMARK  4 active torsions:
REMARK  status: ('A' for Active; 'I' for Inactive)
REMARK    1  A    between atoms: C_1  and  N_9 
REMARK    2  A    between atoms: C_6  and  O_23 
REMARK    3  A    between atoms: C_16  and  O_35 
REMARK    4  A    between atoms: C_22  and  N_34 
ROOT
HETATM    1  C   UNL     1      36.382  -3.615 135.572  1.00  0.00     0.040 C 
HETATM    2  C   UNL     1      38.576   0.248 134.477  1.00  0.00     0.082 C 
HETATM    3  C   UNL     1      36.550  -1.423 134.758  1.00  0.00     0.063 C 
HETATM    4  C   UNL     1      37.018  -1.902 137.073  1.00  0.00     0.036 C 
HETATM    5  C   UNL     1      37.390  -1.233 135.899  1.00  0.00     0.083 C 
HETATM    6  C   UNL     1      39.907   0.530 134.285  1.00  0.00     0.026 C 
HETATM    7  C   UNL     1      41.865   1.125 135.372  1.00  0.00     0.311 C 
HETATM    8  N   UNL     1      38.535  -0.497 135.643  1.00  0.00    -0.252 N 
HETATM    9  C   UNL     1      36.271  -3.084 136.889  1.00  0.00     0.032 C 
HETATM   10  C   UNL     1      40.847   0.923 133.204  1.00  0.00     0.178 C 
HETATM   11  O   UNL     1      42.881   0.938 136.129  1.00  0.00    -0.244 OA
HETATM   12  N   UNL     1      39.713  -0.305 136.337  1.00  0.00    -0.286 N 
ATOM     13  HN  UNL     1      39.931  -0.613 137.285  1.00  0.00     0.188 HD
HETATM   14  C   UNL     1      37.393   0.491 133.769  1.00  0.00     0.120 C 
HETATM   15  C   UNL     1      36.117  -2.738 134.509  1.00  0.00     0.061 C 
HETATM   16  C   UNL     1      40.524   0.386 135.477  1.00  0.00     0.146 C 
HETATM   17  N   UNL     1      36.351  -0.342 133.957  1.00  0.00    -0.362 N 
ATOM     18  HN  UNL     1      35.447  -0.168 133.517  1.00  0.00     0.165 HD
HETATM   19  N   UNL     1      42.142   1.056 133.912  1.00  0.00    -0.294 N 
ENDROOT
BRANCH  19  20
HETATM   20  C   UNL     1      43.328   0.904 133.166  1.00  0.00     0.042 C 
HETATM   21  C   UNL     1      44.011  -0.308 133.058  1.00  0.00     0.066 C 
HETATM   22  C   UNL     1      45.090  -0.598 132.196  1.00  0.00     0.067 C 
HETATM   23  C   UNL     1      45.591   0.203 131.148  1.00  0.00     0.036 C 
HETATM   24  C   UNL     1      45.648   1.591 131.004  1.00  0.00     0.003 C 
HETATM   25  C   UNL     1      44.767   2.460 131.684  1.00  0.00     0.002 C 
HETATM   26  C   UNL     1      43.720   2.072 132.469  1.00  0.00     0.030 C 
BRANCH  22  27
HETATM   27  O   UNL     1      45.691  -1.820 132.349  1.00  0.00    -0.361 OA
ATOM     28  HO  UNL     1      45.816  -2.337 131.562  1.00  0.00     0.217 HD
ENDBRANCH  22  27
ENDBRANCH  19  20
BRANCH   7  29
HETATM   29  O   UNL     1      41.516   2.473 135.655  1.00  0.00    -0.318 OA
ATOM     30  HO  UNL     1      40.589   2.407 135.857  1.00  0.00     0.222 HD
ENDBRANCH   7  29
BRANCH   1  31
HETATM   31  N   UNL     1      36.773  -4.917 135.354  1.00  0.00    -0.333 N 
HETATM   32  C   UNL     1      36.023  -5.671 134.509  1.00  0.00     0.096 C 
HETATM   33  C   UNL     1      35.084  -6.615 134.948  1.00  0.00     0.021 C 
HETATM   34  C   UNL     1      35.288  -7.326 136.130  1.00  0.00     0.043 C 
HETATM   35  C   UNL     1      36.579  -7.656 136.552  1.00  0.00     0.117 C 
HETATM   36  F   UNL     1      36.743  -8.911 136.995  1.00  0.00    -0.206 F 
HETATM   37  C   UNL     1      37.703  -6.835 136.493  1.00  0.00     0.060 C 
HETATM   38  C   UNL     1      37.769  -5.515 136.073  1.00  0.00     0.099 C 
ENDBRANCH   1  31
TORSDOF 4
ENDMDL
MODEL 5
REMARK VINA RESULT:      -9.9      3.700      8.730
REMARK  4 active torsions:
REMARK  status: ('A' for Active; 'I' for Inactive)
REMARK    1  A    between atoms: C_1  and  N_9 
REMARK    2  A    between atoms: C_6  and  O_23 
REMARK    3  A    between atoms: C_16  and  O_35 
REMARK    4  A    between atoms: C_22  and  N_34 
ROOT
HETATM    1  C   UNL     1      47.629  -0.487 131.762  1.00  0.00     0.040 C 
HETATM    2  C   UNL     1      44.342   2.200 133.469  1.00  0.00     0.082 C 
HETATM    3  C   UNL     1      46.394   1.496 131.963  1.00  0.00     0.063 C 
HETATM    4  C   UNL     1      45.347  -0.514 131.142  1.00  0.00     0.036 C 
HETATM    5  C   UNL     1      45.273   0.609 131.978  1.00  0.00     0.083 C 
HETATM    6  C   UNL     1      43.577   2.112 134.607  1.00  0.00     0.026 C 
HETATM    7  C   UNL     1      41.640   1.195 135.488  1.00  0.00     0.311 C 
HETATM    8  N   UNL     1      44.310   0.930 132.920  1.00  0.00    -0.252 N 
HETATM    9  C   UNL     1      46.649  -0.968 130.847  1.00  0.00     0.032 C 
HETATM   10  C   UNL     1      43.370   2.811 135.901  1.00  0.00     0.178 C 
HETATM   11  O   UNL     1      40.891   0.253 135.926  1.00  0.00    -0.244 OA
HETATM   12  N   UNL     1      43.243   0.238 133.457  1.00  0.00    -0.286 N 
ATOM     13  HN  UNL     1      42.880  -0.669 133.162  1.00  0.00     0.188 HD
HETATM   14  C   UNL     1      45.109   3.199 132.858  1.00  0.00     0.120 C 
HETATM   15  C   UNL     1      47.667   0.898 131.982  1.00  0.00     0.061 C 
HETATM   16  C   UNL     1      42.778   1.032 134.471  1.00  0.00     0.146 C 
HETATM   17  N   UNL     1      46.124   2.826 132.054  1.00  0.00    -0.362 N 
ATOM     18  HN  UNL     1      46.669   3.514 131.534  1.00  0.00     0.165 HD
HETATM   19  N   UNL     1      42.280   2.034 136.537  1.00  0.00    -0.294 N 
ENDROOT
BRANCH  19  20
HETATM   20  C   UNL     1      42.172   2.063 137.942  1.00  0.00     0.042 C 
HETATM   21  C   UNL     1      41.380   1.171 138.664  1.00  0.00     0.066 C 
HETATM   22  C   UNL     1      41.352   1.006 140.066  1.00  0.00     0.067 C 
HETATM   23  C   UNL     1      42.231   1.573 141.014  1.00  0.00     0.036 C 
HETATM   24  C   UNL     1      42.915   2.790 141.015  1.00  0.00     0.003 C 
HETATM   25  C   UNL     1      43.231   3.483 139.826  1.00  0.00     0.002 C 
HETATM   26  C   UNL     1      43.003   3.028 138.560  1.00  0.00     0.030 C 
BRANCH  22  27
HETATM   27  O   UNL     1      40.403   0.157 140.569  1.00  0.00    -0.361 OA
ATOM     28  HO  UNL     1      40.464  -0.054 141.493  1.00  0.00     0.217 HD
ENDBRANCH  22  27
ENDBRANCH  19  20
BRANCH   7  29
HETATM   29  O   UNL     1      40.714   2.032 134.808  1.00  0.00    -0.318 OA
ATOM     30  HO  UNL     1      40.267   2.467 135.525  1.00  0.00     0.222 HD
ENDBRANCH   7  29
BRANCH   1  31
HETATM   31  N   UNL     1      48.468  -1.348 132.432  1.00  0.00    -0.333 N 
HETATM   32  C   UNL     1      48.826  -2.499 131.806  1.00  0.00     0.096 C 
HETATM   33  C   UNL     1      48.241  -3.742 132.087  1.00  0.00     0.021 C 
HETATM   34  C   UNL     1      47.795  -4.046 133.373  1.00  0.00     0.043 C 
HETATM   35  C   UNL     1      48.441  -3.520 134.495  1.00  0.00     0.117 C 
HETATM   36  F   UNL     1      48.663  -4.385 135.495  1.00  0.00    -0.206 F 
HETATM   37  C   UNL     1      48.923  -2.222 134.639  1.00  0.00     0.060 C 
HETATM   38  C   UNL     1      48.811  -1.170 133.743  1.00  0.00     0.099 C 
ENDBRANCH   1  31
TORSDOF 4
ENDMDL
MODEL 6
REMARK VINA RESULT:      -9.0      5.242      8.988
REMARK  4 active torsions:
REMARK  status: ('A' for Active; 'I' for Inactive)
REMARK    1  A    between atoms: C_1  and  N_9 
REMARK    2  A    between atoms: C_6  and  O_23 
REMARK    3  A    between atoms: C_16  and  O_35 
REMARK    4  A    between atoms: C_22  and  N_34 
ROOT
HETATM    1  C   UNL     1      39.298  -0.865 128.701  1.00  0.00     0.040 C 
HETATM    2  C   UNL     1      42.500  -0.649 131.963  1.00  0.00     0.082 C 
HETATM    3  C   UNL     1      41.327  -1.432 129.730  1.00  0.00     0.063 C 
HETATM    4  C   UNL     1      40.958   0.806 128.915  1.00  0.00     0.036 C 
HETATM    5  C   UNL     1      41.430  -0.022 129.942  1.00  0.00     0.083 C 
HETATM    6  C   UNL     1      42.475  -0.165 133.249  1.00  0.00     0.026 C 
HETATM    7  C   UNL     1      42.732   1.750 134.527  1.00  0.00     0.311 C 
HETATM    8  N   UNL     1      41.882   0.329 131.203  1.00  0.00    -0.252 N 
HETATM    9  C   UNL     1      39.950   0.250 128.100  1.00  0.00     0.032 C 
HETATM   10  C   UNL     1      42.567  -0.645 134.651  1.00  0.00     0.178 C 
HETATM   11  O   UNL     1      42.399   2.897 134.987  1.00  0.00    -0.244 OA
HETATM   12  N   UNL     1      41.878   1.512 131.916  1.00  0.00    -0.286 N 
ATOM     13  HN  UNL     1      41.613   2.438 131.579  1.00  0.00     0.188 HD
HETATM   14  C   UNL     1      42.927  -1.834 131.352  1.00  0.00     0.120 C 
HETATM   15  C   UNL     1      40.118  -1.897 129.182  1.00  0.00     0.061 C 
HETATM   16  C   UNL     1      42.306   1.172 133.172  1.00  0.00     0.146 C 
HETATM   17  N   UNL     1      42.354  -2.197 130.188  1.00  0.00    -0.362 N 
ATOM     18  HN  UNL     1      42.677  -3.015 129.670  1.00  0.00     0.165 HD
HETATM   19  N   UNL     1      42.482   0.605 135.444  1.00  0.00    -0.294 N 
ENDROOT
BRANCH  19  20
HETATM   20  C   UNL     1      42.018   0.521 136.772  1.00  0.00     0.042 C 
HETATM   21  C   UNL     1      42.652   1.153 137.842  1.00  0.00     0.066 C 
HETATM   22  C   UNL     1      42.166   1.277 139.161  1.00  0.00     0.067 C 
HETATM   23  C   UNL     1      40.877   0.953 139.635  1.00  0.00     0.036 C 
HETATM   24  C   UNL     1      39.975  -0.034 139.231  1.00  0.00     0.003 C 
HETATM   25  C   UNL     1      39.995  -0.593 137.935  1.00  0.00     0.002 C 
HETATM   26  C   UNL     1      40.804  -0.193 136.911  1.00  0.00     0.030 C 
BRANCH  22  27
HETATM   27  O   UNL     1      43.016   1.829 140.083  1.00  0.00    -0.361 OA
ATOM     28  HO  UNL     1      42.966   1.488 140.969  1.00  0.00     0.217 HD
ENDBRANCH  22  27
ENDBRANCH  19  20
BRANCH   7  29
HETATM   29  O   UNL     1      44.142   1.868 134.402  1.00  0.00    -0.318 OA
ATOM     30  HO  UNL     1      44.451   1.054 134.783  1.00  0.00     0.222 HD
ENDBRANCH   7  29
BRANCH   1  31
HETATM   31  N   UNL     1      37.929  -0.904 128.842  1.00  0.00    -0.333 N 
HETATM   32  C   UNL     1      37.349   0.012 129.660  1.00  0.00     0.096 C 
HETATM   33  C   UNL     1      36.932  -0.276 130.967  1.00  0.00     0.021 C 
HETATM   34  C   UNL     1      36.457  -1.545 131.299  1.00  0.00     0.043 C 
HETATM   35  C   UNL     1      35.767  -2.318 130.360  1.00  0.00     0.117 C 
HETATM   36  F   UNL     1      34.661  -2.928 130.810  1.00  0.00    -0.206 F 
HETATM   37  C   UNL     1      36.083  -2.455 129.011  1.00  0.00     0.060 C 
HETATM   38  C   UNL     1      37.167  -1.917 128.333  1.00  0.00     0.099 C 
ENDBRANCH   1  31
TORSDOF 4
ENDMDL
MODEL 7
REMARK VINA RESULT:      -8.8      1.496      1.906
REMARK  4 active torsions:
REMARK  status: ('A' for Active; 'I' for Inactive)
REMARK    1  A    between atoms: C_1  and  N_9 
REMARK    2  A    between atoms: C_6  and  O_23 
REMARK    3  A    between atoms: C_16  and  O_35 
REMARK    4  A    between atoms: C_22  and  N_34 
ROOT
HETATM    1  C   UNL     1      42.983   2.762 135.152  1.00  0.00     0.040 C 
HETATM    2  C   UNL     1      45.810   1.004 132.013  1.00  0.00     0.082 C 
HETATM    3  C   UNL     1      43.768   2.374 132.977  1.00  0.00     0.063 C 
HETATM    4  C   UNL     1      45.103   3.620 134.551  1.00  0.00     0.036 C 
HETATM    5  C   UNL     1      45.047   2.625 133.566  1.00  0.00     0.083 C 
HETATM    6  C   UNL     1      46.730  -0.015 132.069  1.00  0.00     0.026 C 
HETATM    7  C   UNL     1      48.926  -0.520 132.608  1.00  0.00     0.311 C 
HETATM    8  N   UNL     1      46.041   1.753 133.154  1.00  0.00    -0.252 N 
HETATM    9  C   UNL     1      43.903   3.844 135.259  1.00  0.00     0.032 C 
HETATM   10  C   UNL     1      46.961  -1.376 131.520  1.00  0.00     0.178 C 
HETATM   11  O   UNL     1      49.918  -0.716 133.394  1.00  0.00    -0.244 OA
HETATM   12  N   UNL     1      47.299   1.455 133.637  1.00  0.00    -0.286 N 
ATOM     13  HN  UNL     1      47.806   1.931 134.384  1.00  0.00     0.188 HD
HETATM   14  C   UNL     1      44.763   1.357 131.153  1.00  0.00     0.120 C 
HETATM   15  C   UNL     1      42.673   2.316 133.858  1.00  0.00     0.061 C 
HETATM   16  C   UNL     1      47.718   0.380 132.899  1.00  0.00     0.146 C 
HETATM   17  N   UNL     1      43.751   2.097 131.646  1.00  0.00    -0.362 N 
ATOM     18  HN  UNL     1      43.000   2.435 131.044  1.00  0.00     0.165 HD
HETATM   19  N   UNL     1      48.274  -1.755 132.093  1.00  0.00    -0.294 N 
ENDROOT
BRANCH  19  20
HETATM   20  C   UNL     1      48.573  -3.126 132.228  1.00  0.00     0.042 C 
HETATM   21  C   UNL     1      48.522  -4.026 131.163  1.00  0.00     0.066 C 
HETATM   22  C   UNL     1      48.975  -5.362 131.162  1.00  0.00     0.067 C 
HETATM   23  C   UNL     1      49.727  -6.014 132.161  1.00  0.00     0.036 C 
HETATM   24  C   UNL     1      49.746  -5.847 133.548  1.00  0.00     0.003 C 
HETATM   25  C   UNL     1      49.355  -4.643 134.171  1.00  0.00     0.002 C 
HETATM   26  C   UNL     1      49.009  -3.492 133.524  1.00  0.00     0.030 C 
BRANCH  22  27
HETATM   27  O   UNL     1      48.709  -6.103 130.040  1.00  0.00    -0.361 OA
ATOM     28  HO  UNL     1      49.061  -5.779 129.220  1.00  0.00     0.217 HD
ENDBRANCH  22  27
ENDBRANCH  19  20
BRANCH   7  29
HETATM   29  O   UNL     1      49.539   0.109 131.491  1.00  0.00    -0.318 OA
ATOM     30  HO  UNL     1      50.454   0.136 131.747  1.00  0.00     0.222 HD
ENDBRANCH   7  29
BRANCH   1  31
HETATM   31  N   UNL     1      42.456   2.155 136.270  1.00  0.00    -0.333 N 
HETATM   32  C   UNL     1      41.855   2.945 137.196  1.00  0.00     0.096 C 
HETATM   33  C   UNL     1      42.476   3.342 138.390  1.00  0.00     0.021 C 
HETATM   34  C   UNL     1      43.387   2.504 139.032  1.00  0.00     0.043 C 
HETATM   35  C   UNL     1      43.248   1.114 138.966  1.00  0.00     0.117 C 
HETATM   36  F   UNL     1      43.419   0.458 140.122  1.00  0.00    -0.206 F 
HETATM   37  C   UNL     1      42.890   0.372 137.843  1.00  0.00     0.060 C 
HETATM   38  C   UNL     1      42.662   0.835 136.556  1.00  0.00     0.099 C 
ENDBRANCH   1  31
TORSDOF 4
ENDMDL
