MODEL 1
REMARK VINA RESULT:      -5.3      0.000      0.000
REMARK  2 active torsions:
REMARK  status: ('A' for Active; 'I' for Inactive)
REMARK    1  A    between atoms: O_3  and  C_7 
REMARK    2  A    between atoms: C_7  and  CA_10 
ROOT
HETATM    1  O   UNL     1      -1.121  32.006  21.929  1.00  0.00    -0.268 OA
HETATM    2  C   UNL     1       0.405  32.193  23.690  1.00  0.00     0.074 C 
HETATM    3  N   UNL     1      -1.107  33.933  23.005  1.00  0.00    -0.325 N 
ATOM      4  HN  UNL     1      -1.731  34.361  22.320  1.00  0.00     0.169 HD
HETATM    5  C   UNL     1       0.265  32.613  25.002  1.00  0.00     0.007 C 
HETATM    6  C   UNL     1      -0.461  32.760  22.724  1.00  0.00     0.245 C 
HETATM    7  CA  UNL     1      -0.900  34.515  24.213  1.00  0.00     0.035 C 
HETATM    8  C   UNL     1      -0.618  33.664  25.287  1.00  0.00     0.027 C 
ENDROOT
BRANCH   7   9
HETATM    9  C   UNL     1      -1.115  35.989  24.394  1.00  0.00     0.221 C 
BRANCH   9  10
HETATM   10  O   UNL     1      -2.243  36.277  25.186  1.00  0.00    -0.395 OA
ATOM     11  HO  UNL     1      -2.426  35.594  25.821  1.00  0.00     0.209 HD
ENDBRANCH   9  10
ENDBRANCH   7   9
TORSDOF 2
ENDMDL
MODEL 2
REMARK VINA RESULT:      -5.0      2.204      2.814
REMARK  2 active torsions:
REMARK  status: ('A' for Active; 'I' for Inactive)
REMARK    1  A    between atoms: O_3  and  C_7 
REMARK    2  A    between atoms: C_7  and  CA_10 
ROOT
HETATM    1  O   UNL     1       1.571  29.437  23.234  1.00  0.00    -0.268 OA
HETATM    2  C   UNL     1       1.896  31.089  24.854  1.00  0.00     0.074 C 
HETATM    3  N   UNL     1       0.671  31.407  22.810  1.00  0.00    -0.325 N 
ATOM      4  HN  UNL     1       0.427  31.130  21.858  1.00  0.00     0.169 HD
HETATM    5  C   UNL     1       1.020  31.953  25.492  1.00  0.00     0.007 C 
HETATM    6  C   UNL     1       1.571  30.679  23.539  1.00  0.00     0.245 C 
HETATM    7  CA  UNL     1       0.109  32.504  23.379  1.00  0.00     0.035 C 
HETATM    8  C   UNL     1      -0.057  32.483  24.767  1.00  0.00     0.027 C 
ENDROOT
BRANCH   7   9
HETATM    9  C   UNL     1      -0.434  33.610  22.523  1.00  0.00     0.221 C 
BRANCH   9  10
HETATM   10  O   UNL     1      -1.837  33.699  22.582  1.00  0.00    -0.395 OA
ATOM     11  HO  UNL     1      -2.141  34.171  23.348  1.00  0.00     0.209 HD
ENDBRANCH   9  10
ENDBRANCH   7   9
TORSDOF 2
ENDMDL
MODEL 3
REMARK VINA RESULT:      -5.0      2.335      3.068
REMARK  2 active torsions:
REMARK  status: ('A' for Active; 'I' for Inactive)
REMARK    1  A    between atoms: O_3  and  C_7 
REMARK    2  A    between atoms: C_7  and  CA_10 
ROOT
HETATM    1  O   UNL     1      -0.424  32.652  28.190  1.00  0.00    -0.268 OA
HETATM    2  C   UNL     1      -1.113  31.606  26.217  1.00  0.00     0.074 C 
HETATM    3  N   UNL     1      -0.795  33.977  26.463  1.00  0.00    -0.325 N 
ATOM      4  HN  UNL     1      -0.700  34.814  27.039  1.00  0.00     0.169 HD
HETATM    5  C   UNL     1      -0.668  31.701  24.908  1.00  0.00     0.007 C 
HETATM    6  C   UNL     1      -0.977  32.749  27.040  1.00  0.00     0.245 C 
HETATM    7  CA  UNL     1      -0.744  34.057  25.109  1.00  0.00     0.035 C 
HETATM    8  C   UNL     1      -0.239  32.946  24.427  1.00  0.00     0.027 C 
ENDROOT
BRANCH   7   9
HETATM    9  C   UNL     1      -1.081  35.342  24.411  1.00  0.00     0.221 C 
BRANCH   9  10
HETATM   10  O   UNL     1      -2.066  36.083  25.090  1.00  0.00    -0.395 OA
ATOM     11  HO  UNL     1      -2.139  36.974  24.767  1.00  0.00     0.209 HD
ENDBRANCH   9  10
ENDBRANCH   7   9
TORSDOF 2
ENDMDL
MODEL 4
REMARK VINA RESULT:      -4.9      1.919      2.336
REMARK  2 active torsions:
REMARK  status: ('A' for Active; 'I' for Inactive)
REMARK    1  A    between atoms: O_3  and  C_7 
REMARK    2  A    between atoms: C_7  and  CA_10 
ROOT
HETATM    1  O   UNL     1       1.884  31.992  25.340  1.00  0.00    -0.268 OA
HETATM    2  C   UNL     1       0.476  31.612  23.514  1.00  0.00     0.074 C 
HETATM    3  N   UNL     1       0.132  33.323  25.169  1.00  0.00    -0.325 N 
ATOM      4  HN  UNL     1       0.304  33.728  26.089  1.00  0.00     0.169 HD
HETATM    5  C   UNL     1      -0.054  32.460  22.554  1.00  0.00     0.007 C 
HETATM    6  C   UNL     1       0.739  32.155  24.795  1.00  0.00     0.245 C 
HETATM    7  CA  UNL     1      -0.704  33.932  24.289  1.00  0.00     0.035 C 
HETATM    8  C   UNL     1      -0.428  33.758  22.929  1.00  0.00     0.027 C 
ENDROOT
BRANCH   7   9
HETATM    9  C   UNL     1      -1.776  34.861  24.778  1.00  0.00     0.221 C 
BRANCH   9  10
HETATM   10  O   UNL     1      -1.770  36.095  24.101  1.00  0.00    -0.395 OA
ATOM     11  HO  UNL     1      -2.643  36.384  23.862  1.00  0.00     0.209 HD
ENDBRANCH   9  10
ENDBRANCH   7   9
TORSDOF 2
ENDMDL
MODEL 5
REMARK VINA RESULT:      -4.9      0.907      3.430
REMARK  2 active torsions:
REMARK  status: ('A' for Active; 'I' for Inactive)
REMARK    1  A    between atoms: O_3  and  C_7 
REMARK    2  A    between atoms: C_7  and  CA_10 
ROOT
HETATM    1  O   UNL     1      -1.008  36.435  24.065  1.00  0.00    -0.268 OA
HETATM    2  C   UNL     1      -1.478  34.503  25.293  1.00  0.00     0.074 C 
HETATM    3  N   UNL     1      -0.656  34.516  23.033  1.00  0.00    -0.325 N 
ATOM      4  HN  UNL     1      -0.490  34.984  22.142  1.00  0.00     0.169 HD
HETATM    5  C   UNL     1      -0.746  33.352  25.533  1.00  0.00     0.007 C 
HETATM    6  C   UNL     1      -1.253  35.180  24.070  1.00  0.00     0.245 C 
HETATM    7  CA  UNL     1      -0.289  33.222  23.216  1.00  0.00     0.035 C 
HETATM    8  C   UNL     1       0.069  32.841  24.513  1.00  0.00     0.027 C 
ENDROOT
BRANCH   7   9
HETATM    9  C   UNL     1      -0.141  32.300  22.040  1.00  0.00     0.221 C 
BRANCH   9  10
HETATM   10  O   UNL     1      -1.311  31.562  21.782  1.00  0.00    -0.395 OA
ATOM     11  HO  UNL     1      -1.795  31.358  22.575  1.00  0.00     0.209 HD
ENDBRANCH   9  10
ENDBRANCH   7   9
TORSDOF 2
ENDMDL
MODEL 6
REMARK VINA RESULT:      -4.8      1.858      3.677
REMARK  2 active torsions:
REMARK  status: ('A' for Active; 'I' for Inactive)
REMARK    1  A    between atoms: O_3  and  C_7 
REMARK    2  A    between atoms: C_7  and  CA_10 
ROOT
HETATM    1  O   UNL     1      -0.404  34.738  22.075  1.00  0.00    -0.268 OA
HETATM    2  C   UNL     1      -1.196  34.210  24.209  1.00  0.00     0.074 C 
HETATM    3  N   UNL     1       0.010  32.690  22.788  1.00  0.00    -0.325 N 
ATOM      4  HN  UNL     1       0.358  32.403  21.873  1.00  0.00     0.169 HD
HETATM    5  C   UNL     1      -0.588  33.632  25.312  1.00  0.00     0.007 C 
HETATM    6  C   UNL     1      -0.720  33.839  22.929  1.00  0.00     0.245 C 
HETATM    7  CA  UNL     1       0.261  31.941  23.892  1.00  0.00     0.035 C 
HETATM    8  C   UNL     1       0.362  32.621  25.110  1.00  0.00     0.027 C 
ENDROOT
BRANCH   7   9
HETATM    9  C   UNL     1       0.559  30.476  23.765  1.00  0.00     0.221 C 
BRANCH   9  10
HETATM   10  O   UNL     1       1.676  30.221  22.947  1.00  0.00    -0.395 OA
ATOM     11  HO  UNL     1       1.513  30.427  22.034  1.00  0.00     0.209 HD
ENDBRANCH   9  10
ENDBRANCH   7   9
TORSDOF 2
ENDMDL
MODEL 7
REMARK VINA RESULT:      -4.7      2.045      3.466
REMARK  2 active torsions:
REMARK  status: ('A' for Active; 'I' for Inactive)
REMARK    1  A    between atoms: O_3  and  C_7 
REMARK    2  A    between atoms: C_7  and  CA_10 
ROOT
HETATM    1  O   UNL     1      -1.558  35.341  24.039  1.00  0.00    -0.268 OA
HETATM    2  C   UNL     1      -0.716  33.757  22.541  1.00  0.00     0.074 C 
HETATM    3  N   UNL     1      -0.371  33.702  24.920  1.00  0.00    -0.325 N 
ATOM      4  HN  UNL     1      -0.362  34.153  25.836  1.00  0.00     0.169 HD
HETATM    5  C   UNL     1      -0.752  32.371  22.533  1.00  0.00     0.007 C 
HETATM    6  C   UNL     1      -0.720  34.405  23.799  1.00  0.00     0.245 C 
HETATM    7  CA  UNL     1      -0.037  32.393  24.789  1.00  0.00     0.035 C 
HETATM    8  C   UNL     1      -0.650  31.684  23.751  1.00  0.00     0.027 C 
ENDROOT
BRANCH   7   9
HETATM    9  C   UNL     1       0.837  31.725  25.809  1.00  0.00     0.221 C 
BRANCH   9  10
HETATM   10  O   UNL     1       2.152  32.228  25.806  1.00  0.00    -0.395 OA
ATOM     11  HO  UNL     1       2.407  32.584  26.650  1.00  0.00     0.209 HD
ENDBRANCH   9  10
ENDBRANCH   7   9
TORSDOF 2
ENDMDL
MODEL 8
REMARK VINA RESULT:      -4.7      2.529      4.431
REMARK  2 active torsions:
REMARK  status: ('A' for Active; 'I' for Inactive)
REMARK    1  A    between atoms: O_3  and  C_7 
REMARK    2  A    between atoms: C_7  and  CA_10 
ROOT
HETATM    1  O   UNL     1       0.197  33.207  22.028  1.00  0.00    -0.268 OA
HETATM    2  C   UNL     1      -0.310  32.767  24.266  1.00  0.00     0.074 C 
HETATM    3  N   UNL     1       0.959  31.302  22.842  1.00  0.00    -0.325 N 
ATOM      4  HN  UNL     1       1.257  30.985  21.919  1.00  0.00     0.169 HD
HETATM    5  C   UNL     1       0.474  32.374  25.338  1.00  0.00     0.007 C 
HETATM    6  C   UNL     1       0.092  32.352  22.973  1.00  0.00     0.245 C 
HETATM    7  CA  UNL     1       1.415  30.692  23.966  1.00  0.00     0.035 C 
HETATM    8  C   UNL     1       1.533  31.483  25.114  1.00  0.00     0.027 C 
ENDROOT
BRANCH   7   9
HETATM    9  C   UNL     1       1.903  29.274  23.916  1.00  0.00     0.221 C 
BRANCH   9  10
HETATM   10  O   UNL     1       1.069  28.443  23.144  1.00  0.00    -0.395 OA
ATOM     11  HO  UNL     1       1.449  28.231  22.299  1.00  0.00     0.209 HD
ENDBRANCH   9  10
ENDBRANCH   7   9
TORSDOF 2
ENDMDL
MODEL 9
REMARK VINA RESULT:      -4.4      2.457      4.288
REMARK  2 active torsions:
REMARK  status: ('A' for Active; 'I' for Inactive)
REMARK    1  A    between atoms: O_3  and  C_7 
REMARK    2  A    between atoms: C_7  and  CA_10 
ROOT
HETATM    1  O   UNL     1      -1.348  33.662  25.837  1.00  0.00    -0.268 OA
HETATM    2  C   UNL     1      -0.513  33.634  23.655  1.00  0.00     0.074 C 
HETATM    3  N   UNL     1       0.502  32.501  25.518  1.00  0.00    -0.325 N 
ATOM      4  HN  UNL     1       0.629  32.361  26.520  1.00  0.00     0.169 HD
HETATM    5  C   UNL     1      -0.104  32.600  22.827  1.00  0.00     0.007 C 
HETATM    6  C   UNL     1      -0.361  33.455  25.050  1.00  0.00     0.245 C 
HETATM    7  CA  UNL     1       1.184  31.746  24.619  1.00  0.00     0.035 C 
HETATM    8  C   UNL     1       0.558  31.501  23.392  1.00  0.00     0.027 C 
ENDROOT
BRANCH   7   9
HETATM    9  C   UNL     1       2.480  31.095  25.002  1.00  0.00     0.221 C 
BRANCH   9  10
HETATM   10  O   UNL     1       3.148  30.532  23.898  1.00  0.00    -0.395 OA
ATOM     11  HO  UNL     1       2.966  29.605  23.796  1.00  0.00     0.209 HD
ENDBRANCH   9  10
ENDBRANCH   7   9
TORSDOF 2
ENDMDL
