MODEL 1
REMARK VINA RESULT:      -7.4      0.000      0.000
REMARK  4 active torsions:
REMARK  status: ('A' for Active; 'I' for Inactive)
REMARK    1  A    between atoms: C_1  and  O_13 
REMARK    2  A    between atoms: C_5  and  C_6 
REMARK    3  A    between atoms: C_7  and  O_8 
REMARK    4  A    between atoms: O_15  and  C_17 
ROOT
HETATM    1  C   UNL     1       8.105  44.399  18.604  1.00  0.00     0.009 C 
HETATM    2  C   UNL     1       8.432  45.172  17.509  1.00  0.00     0.076 C 
HETATM    3  C   UNL     1       7.711  43.733  15.606  1.00  0.00     0.039 C 
HETATM    4  C   UNL     1       7.134  42.400  17.484  1.00  0.00     0.037 C 
HETATM    5  C   UNL     1       8.180  44.831  16.221  1.00  0.00     0.040 C 
HETATM    6  C   UNL     1       7.573  42.491  16.186  1.00  0.00     0.065 C 
HETATM    7  C   UNL     1       7.310  43.296  18.486  1.00  0.00     0.018 C 
ENDROOT
BRANCH   1   8
HETATM    8  C   UNL     1       8.523  44.804  19.883  1.00  0.00    -0.001 C 
HETATM    9  C   UNL     1       8.074  45.984  20.392  1.00  0.00     0.158 C 
HETATM   10  O   UNL     1       8.826  46.825  21.127  1.00  0.00    -0.285 OA
HETATM   11  C   UNL     1       9.367  46.569  22.328  1.00  0.00     0.321 C 
HETATM   12  C   UNL     1       9.573  45.180  22.721  1.00  0.00     0.141 C 
HETATM   13  O   UNL     1       9.734  47.480  23.050  1.00  0.00    -0.257 OA
HETATM   14  C   UNL     1       9.923  44.226  21.829  1.00  0.00     0.044 C 
HETATM   15  C   UNL     1       9.451  44.036  20.569  1.00  0.00     0.017 C 
BRANCH  12  16
HETATM   16  O   UNL     1       9.578  44.889  24.040  1.00  0.00    -0.355 OA
ATOM     17  HO  UNL     1      10.347  45.124  24.545  1.00  0.00     0.218 HD
ENDBRANCH  12  16
ENDBRANCH   1   8
BRANCH   2  18
HETATM   18  O   UNL     1       9.071  46.360  17.714  1.00  0.00    -0.360 OA
ATOM     19  HO  UNL     1       9.869  46.538  17.229  1.00  0.00     0.217 HD
ENDBRANCH   2  18
BRANCH   6  20
HETATM   20  O   UNL     1       7.927  41.393  15.470  1.00  0.00    -0.361 OA
ATOM     21  HO  UNL     1       8.585  41.483  14.790  1.00  0.00     0.217 HD
ENDBRANCH   6  20
TORSDOF 4
ENDMDL
MODEL 2
REMARK VINA RESULT:      -7.2      1.905      2.563
REMARK  4 active torsions:
REMARK  status: ('A' for Active; 'I' for Inactive)
REMARK    1  A    between atoms: C_1  and  O_13 
REMARK    2  A    between atoms: C_5  and  C_6 
REMARK    3  A    between atoms: C_7  and  O_8 
REMARK    4  A    between atoms: O_15  and  C_17 
ROOT
HETATM    1  C   UNL     1       8.942  43.848  20.292  1.00  0.00     0.009 C 
HETATM    2  C   UNL     1       8.263  44.553  19.319  1.00  0.00     0.076 C 
HETATM    3  C   UNL     1       7.372  42.734  17.867  1.00  0.00     0.039 C 
HETATM    4  C   UNL     1       8.526  41.511  19.544  1.00  0.00     0.037 C 
HETATM    5  C   UNL     1       7.553  43.989  18.311  1.00  0.00     0.040 C 
HETATM    6  C   UNL     1       8.123  41.640  18.237  1.00  0.00     0.065 C 
HETATM    7  C   UNL     1       8.786  42.500  20.434  1.00  0.00     0.018 C 
ENDROOT
BRANCH   1   8
HETATM    8  C   UNL     1       9.740  44.543  21.217  1.00  0.00    -0.001 C 
HETATM    9  C   UNL     1      10.992  44.937  20.857  1.00  0.00     0.158 C 
HETATM   10  O   UNL     1      12.058  44.913  21.680  1.00  0.00    -0.285 OA
HETATM   11  C   UNL     1      12.211  45.625  22.807  1.00  0.00     0.321 C 
HETATM   12  C   UNL     1      11.022  46.132  23.482  1.00  0.00     0.141 C 
HETATM   13  O   UNL     1      13.317  45.792  23.291  1.00  0.00    -0.257 OA
HETATM   14  C   UNL     1       9.862  45.437  23.511  1.00  0.00     0.044 C 
HETATM   15  C   UNL     1       9.270  44.741  22.506  1.00  0.00     0.017 C 
BRANCH  12  16
HETATM   16  O   UNL     1      11.147  47.246  24.235  1.00  0.00    -0.355 OA
ATOM     17  HO  UNL     1      11.953  47.744  24.163  1.00  0.00     0.218 HD
ENDBRANCH  12  16
ENDBRANCH   1   8
BRANCH   2  18
HETATM   18  O   UNL     1       8.314  45.916  19.343  1.00  0.00    -0.360 OA
ATOM     19  HO  UNL     1       8.384  46.385  18.520  1.00  0.00     0.217 HD
ENDBRANCH   2  18
BRANCH   6  20
HETATM   20  O   UNL     1       8.487  40.745  17.283  1.00  0.00    -0.361 OA
ATOM     21  HO  UNL     1       8.457  39.818  17.490  1.00  0.00     0.217 HD
ENDBRANCH   6  20
TORSDOF 4
ENDMDL
MODEL 3
REMARK VINA RESULT:      -7.1      1.393      2.014
REMARK  4 active torsions:
REMARK  status: ('A' for Active; 'I' for Inactive)
REMARK    1  A    between atoms: C_1  and  O_13 
REMARK    2  A    between atoms: C_5  and  C_6 
REMARK    3  A    between atoms: C_7  and  O_8 
REMARK    4  A    between atoms: O_15  and  C_17 
ROOT
HETATM    1  C   UNL     1       8.226  44.158  18.419  1.00  0.00     0.009 C 
HETATM    2  C   UNL     1       7.435  43.036  18.279  1.00  0.00     0.076 C 
HETATM    3  C   UNL     1       6.961  43.018  15.833  1.00  0.00     0.039 C 
HETATM    4  C   UNL     1       8.332  44.943  16.060  1.00  0.00     0.037 C 
HETATM    5  C   UNL     1       6.958  42.570  17.099  1.00  0.00     0.040 C 
HETATM    6  C   UNL     1       7.292  44.296  15.439  1.00  0.00     0.065 C 
HETATM    7  C   UNL     1       8.764  44.789  17.335  1.00  0.00     0.018 C 
ENDROOT
BRANCH   1   8
HETATM    8  C   UNL     1       8.560  44.610  19.707  1.00  0.00    -0.001 C 
HETATM    9  C   UNL     1       8.004  45.759  20.179  1.00  0.00     0.158 C 
HETATM   10  O   UNL     1       8.661  46.664  20.929  1.00  0.00    -0.285 OA
HETATM   11  C   UNL     1       9.170  46.465  22.154  1.00  0.00     0.321 C 
HETATM   12  C   UNL     1       9.465  45.101  22.577  1.00  0.00     0.141 C 
HETATM   13  O   UNL     1       9.439  47.410  22.876  1.00  0.00    -0.257 OA
HETATM   14  C   UNL     1       9.921  44.165  21.714  1.00  0.00     0.044 C 
HETATM   15  C   UNL     1       9.515  43.923  20.440  1.00  0.00     0.017 C 
BRANCH  12  16
HETATM   16  O   UNL     1       9.439  44.827  23.899  1.00  0.00    -0.355 OA
ATOM     17  HO  UNL     1       9.455  45.558  24.506  1.00  0.00     0.218 HD
ENDBRANCH  12  16
ENDBRANCH   1   8
BRANCH   2  18
HETATM   18  O   UNL     1       7.079  42.342  19.400  1.00  0.00    -0.360 OA
ATOM     19  HO  UNL     1       6.731  41.464  19.301  1.00  0.00     0.217 HD
ENDBRANCH   2  18
BRANCH   6  20
HETATM   20  O   UNL     1       6.541  44.898  14.480  1.00  0.00    -0.361 OA
ATOM     21  HO  UNL     1       5.942  45.589  14.737  1.00  0.00     0.217 HD
ENDBRANCH   6  20
TORSDOF 4
ENDMDL
MODEL 4
REMARK VINA RESULT:      -7.0      1.118      6.012
REMARK  4 active torsions:
REMARK  status: ('A' for Active; 'I' for Inactive)
REMARK    1  A    between atoms: C_1  and  O_13 
REMARK    2  A    between atoms: C_5  and  C_6 
REMARK    3  A    between atoms: C_7  and  O_8 
REMARK    4  A    between atoms: O_15  and  C_17 
ROOT
HETATM    1  C   UNL     1       8.829  44.653  19.906  1.00  0.00     0.009 C 
HETATM    2  C   UNL     1       8.716  46.018  20.076  1.00  0.00     0.076 C 
HETATM    3  C   UNL     1       9.531  46.333  22.410  1.00  0.00     0.039 C 
HETATM    4  C   UNL     1       9.743  43.985  22.122  1.00  0.00     0.037 C 
HETATM    5  C   UNL     1       9.094  46.690  21.192  1.00  0.00     0.040 C 
HETATM    6  C   UNL     1       9.480  45.060  22.936  1.00  0.00     0.065 C 
HETATM    7  C   UNL     1       9.527  43.880  20.788  1.00  0.00     0.018 C 
ENDROOT
BRANCH   1   8
HETATM    8  C   UNL     1       8.294  44.056  18.752  1.00  0.00    -0.001 C 
HETATM    9  C   UNL     1       8.668  44.514  17.526  1.00  0.00     0.158 C 
HETATM   10  O   UNL     1       7.835  44.624  16.473  1.00  0.00    -0.285 OA
HETATM   11  C   UNL     1       7.202  43.619  15.850  1.00  0.00     0.321 C 
HETATM   12  C   UNL     1       6.997  42.367  16.569  1.00  0.00     0.141 C 
HETATM   13  O   UNL     1       6.751  43.770  14.728  1.00  0.00    -0.257 OA
HETATM   14  C   UNL     1       6.749  42.335  17.899  1.00  0.00     0.044 C 
HETATM   15  C   UNL     1       7.331  43.067  18.883  1.00  0.00     0.017 C 
BRANCH  12  16
HETATM   16  O   UNL     1       6.889  41.231  15.847  1.00  0.00    -0.355 OA
ATOM     17  HO  UNL     1       6.969  41.295  14.902  1.00  0.00     0.218 HD
ENDBRANCH  12  16
ENDBRANCH   1   8
BRANCH   2  18
HETATM   18  O   UNL     1       8.169  46.760  19.071  1.00  0.00    -0.360 OA
ATOM     19  HO  UNL     1       7.934  47.664  19.247  1.00  0.00     0.217 HD
ENDBRANCH   2  18
BRANCH   6  20
HETATM   20  O   UNL     1       9.118  44.905  24.236  1.00  0.00    -0.361 OA
ATOM     21  HO  UNL     1       9.679  44.394  24.808  1.00  0.00     0.217 HD
ENDBRANCH   6  20
TORSDOF 4
ENDMDL
MODEL 5
REMARK VINA RESULT:      -6.6      1.622      6.371
REMARK  4 active torsions:
REMARK  status: ('A' for Active; 'I' for Inactive)
REMARK    1  A    between atoms: C_1  and  O_13 
REMARK    2  A    between atoms: C_5  and  C_6 
REMARK    3  A    between atoms: C_7  and  O_8 
REMARK    4  A    between atoms: O_15  and  C_17 
ROOT
HETATM    1  C   UNL     1       8.602  44.520  19.915  1.00  0.00     0.009 C 
HETATM    2  C   UNL     1       9.206  43.504  20.627  1.00  0.00     0.076 C 
HETATM    3  C   UNL     1      10.023  44.691  22.660  1.00  0.00     0.039 C 
HETATM    4  C   UNL     1       8.976  46.444  21.448  1.00  0.00     0.037 C 
HETATM    5  C   UNL     1       9.766  43.649  21.854  1.00  0.00     0.040 C 
HETATM    6  C   UNL     1       9.973  46.018  22.292  1.00  0.00     0.065 C 
HETATM    7  C   UNL     1       8.342  45.733  20.485  1.00  0.00     0.018 C 
ENDROOT
BRANCH   1   8
HETATM    8  C   UNL     1       8.163  44.275  18.602  1.00  0.00    -0.001 C 
HETATM    9  C   UNL     1       7.326  43.229  18.361  1.00  0.00     0.158 C 
HETATM   10  O   UNL     1       7.394  42.443  17.269  1.00  0.00    -0.285 OA
HETATM   11  C   UNL     1       7.202  42.827  15.998  1.00  0.00     0.321 C 
HETATM   12  C   UNL     1       7.370  44.235  15.659  1.00  0.00     0.141 C 
HETATM   13  O   UNL     1       6.953  42.006  15.133  1.00  0.00    -0.257 OA
HETATM   14  C   UNL     1       8.305  45.010  16.254  1.00  0.00     0.044 C 
HETATM   15  C   UNL     1       8.655  45.052  17.565  1.00  0.00     0.017 C 
BRANCH  12  16
HETATM   16  O   UNL     1       6.682  44.719  14.602  1.00  0.00    -0.355 OA
ATOM     17  HO  UNL     1       6.302  44.095  13.995  1.00  0.00     0.218 HD
ENDBRANCH  12  16
ENDBRANCH   1   8
BRANCH   2  18
HETATM   18  O   UNL     1       9.272  42.261  20.067  1.00  0.00    -0.360 OA
ATOM     19  HO  UNL     1       8.573  41.985  19.486  1.00  0.00     0.217 HD
ENDBRANCH   2  18
BRANCH   6  20
HETATM   20  O   UNL     1      10.946  46.855  22.734  1.00  0.00    -0.361 OA
ATOM     21  HO  UNL     1      11.359  47.444  22.113  1.00  0.00     0.217 HD
ENDBRANCH   6  20
TORSDOF 4
ENDMDL
MODEL 6
REMARK VINA RESULT:      -6.6      1.619      6.204
REMARK  4 active torsions:
REMARK  status: ('A' for Active; 'I' for Inactive)
REMARK    1  A    between atoms: C_1  and  O_13 
REMARK    2  A    between atoms: C_5  and  C_6 
REMARK    3  A    between atoms: C_7  and  O_8 
REMARK    4  A    between atoms: O_15  and  C_17 
ROOT
HETATM    1  C   UNL     1       8.704  44.676  19.841  1.00  0.00     0.009 C 
HETATM    2  C   UNL     1       9.250  43.650  20.585  1.00  0.00     0.076 C 
HETATM    3  C   UNL     1       9.925  44.813  22.684  1.00  0.00     0.039 C 
HETATM    4  C   UNL     1       8.976  46.583  21.417  1.00  0.00     0.037 C 
HETATM    5  C   UNL     1       9.721  43.780  21.850  1.00  0.00     0.040 C 
HETATM    6  C   UNL     1       9.907  46.143  22.326  1.00  0.00     0.065 C 
HETATM    7  C   UNL     1       8.409  45.885  20.403  1.00  0.00     0.018 C 
ENDROOT
BRANCH   1   8
HETATM    8  C   UNL     1       8.359  44.446  18.498  1.00  0.00    -0.001 C 
HETATM    9  C   UNL     1       8.782  45.315  17.540  1.00  0.00     0.158 C 
HETATM   10  O   UNL     1       8.043  45.689  16.479  1.00  0.00    -0.285 OA
HETATM   11  C   UNL     1       7.604  44.892  15.492  1.00  0.00     0.321 C 
HETATM   12  C   UNL     1       7.498  43.459  15.745  1.00  0.00     0.141 C 
HETATM   13  O   UNL     1       7.243  45.362  14.428  1.00  0.00    -0.257 OA
HETATM   14  C   UNL     1       7.134  42.968  16.952  1.00  0.00     0.044 C 
HETATM   15  C   UNL     1       7.524  43.386  18.184  1.00  0.00     0.017 C 
BRANCH  12  16
HETATM   16  O   UNL     1       7.603  42.621  14.692  1.00  0.00    -0.355 OA
ATOM     17  HO  UNL     1       7.347  41.715  14.816  1.00  0.00     0.218 HD
ENDBRANCH  12  16
ENDBRANCH   1   8
BRANCH   2  18
HETATM   18  O   UNL     1       9.351  42.413  20.018  1.00  0.00    -0.360 OA
ATOM     19  HO  UNL     1      10.136  42.198  19.528  1.00  0.00     0.217 HD
ENDBRANCH   2  18
BRANCH   6  20
HETATM   20  O   UNL     1      10.849  46.972  22.845  1.00  0.00    -0.361 OA
ATOM     21  HO  UNL     1      10.573  47.671  23.426  1.00  0.00     0.217 HD
ENDBRANCH   6  20
TORSDOF 4
ENDMDL
MODEL 7
REMARK VINA RESULT:      -6.4      1.799      6.366
REMARK  4 active torsions:
REMARK  status: ('A' for Active; 'I' for Inactive)
REMARK    1  A    between atoms: C_1  and  O_13 
REMARK    2  A    between atoms: C_5  and  C_6 
REMARK    3  A    between atoms: C_7  and  O_8 
REMARK    4  A    between atoms: O_15  and  C_17 
ROOT
HETATM    1  C   UNL     1       8.420  43.913  19.126  1.00  0.00     0.009 C 
HETATM    2  C   UNL     1       8.833  42.848  19.901  1.00  0.00     0.076 C 
HETATM    3  C   UNL     1       9.717  43.983  21.936  1.00  0.00     0.039 C 
HETATM    4  C   UNL     1       8.999  45.820  20.616  1.00  0.00     0.037 C 
HETATM    5  C   UNL     1       9.348  42.958  21.150  1.00  0.00     0.040 C 
HETATM    6  C   UNL     1       9.880  45.287  21.524  1.00  0.00     0.065 C 
HETATM    7  C   UNL     1       8.314  45.172  19.643  1.00  0.00     0.018 C 
ENDROOT
BRANCH   1   8
HETATM    8  C   UNL     1       8.012  43.683  17.801  1.00  0.00    -0.001 C 
HETATM    9  C   UNL     1       8.488  44.482  16.806  1.00  0.00     0.158 C 
HETATM   10  O   UNL     1       7.756  44.898  15.756  1.00  0.00    -0.285 OA
HETATM   11  C   UNL     1       7.211  44.123  14.806  1.00  0.00     0.321 C 
HETATM   12  C   UNL     1       6.974  42.715  15.102  1.00  0.00     0.141 C 
HETATM   13  O   UNL     1       6.865  44.599  13.739  1.00  0.00    -0.257 OA
HETATM   14  C   UNL     1       6.601  42.294  16.332  1.00  0.00     0.044 C 
HETATM   15  C   UNL     1       7.068  42.702  17.541  1.00  0.00     0.017 C 
BRANCH  12  16
HETATM   16  O   UNL     1       6.964  41.843  14.071  1.00  0.00    -0.355 OA
ATOM     17  HO  UNL     1       6.217  41.263  13.985  1.00  0.00     0.218 HD
ENDBRANCH  12  16
ENDBRANCH   1   8
BRANCH   2  18
HETATM   18  O   UNL     1       8.742  41.589  19.385  1.00  0.00    -0.360 OA
ATOM     19  HO  UNL     1       9.538  41.151  19.107  1.00  0.00     0.217 HD
ENDBRANCH   2  18
BRANCH   6  20
HETATM   20  O   UNL     1      10.943  45.991  21.991  1.00  0.00    -0.361 OA
ATOM     21  HO  UNL     1      11.165  46.815  21.572  1.00  0.00     0.217 HD
ENDBRANCH   6  20
TORSDOF 4
ENDMDL
MODEL 8
REMARK VINA RESULT:      -6.0      3.187      6.350
REMARK  4 active torsions:
REMARK  status: ('A' for Active; 'I' for Inactive)
REMARK    1  A    between atoms: C_1  and  O_13 
REMARK    2  A    between atoms: C_5  and  C_6 
REMARK    3  A    between atoms: C_7  and  O_8 
REMARK    4  A    between atoms: O_15  and  C_17 
ROOT
HETATM    1  C   UNL     1       8.715  45.239  16.584  1.00  0.00     0.009 C 
HETATM    2  C   UNL     1       8.509  45.749  17.850  1.00  0.00     0.076 C 
HETATM    3  C   UNL     1       7.789  43.733  19.126  1.00  0.00     0.039 C 
HETATM    4  C   UNL     1       8.153  42.844  16.954  1.00  0.00     0.037 C 
HETATM    5  C   UNL     1       8.150  45.011  18.930  1.00  0.00     0.040 C 
HETATM    6  C   UNL     1       7.450  42.838  18.134  1.00  0.00     0.065 C 
HETATM    7  C   UNL     1       8.766  43.895  16.357  1.00  0.00     0.018 C 
ENDROOT
BRANCH   1   8
HETATM    8  C   UNL     1       8.970  46.121  15.519  1.00  0.00    -0.001 C 
HETATM    9  C   UNL     1       7.938  46.544  14.740  1.00  0.00     0.158 C 
HETATM   10  O   UNL     1       8.019  46.720  13.407  1.00  0.00    -0.285 OA
HETATM   11  C   UNL     1       8.801  47.603  12.766  1.00  0.00     0.321 C 
HETATM   12  C   UNL     1       9.980  48.120  13.451  1.00  0.00     0.141 C 
HETATM   13  O   UNL     1       8.565  47.918  11.613  1.00  0.00    -0.257 OA
HETATM   14  C   UNL     1      10.714  47.357  14.292  1.00  0.00     0.044 C 
HETATM   15  C   UNL     1      10.278  46.477  15.230  1.00  0.00     0.017 C 
BRANCH  12  16
HETATM   16  O   UNL     1      10.435  49.341  13.094  1.00  0.00    -0.355 OA
ATOM     17  HO  UNL     1      11.221  49.385  12.563  1.00  0.00     0.218 HD
ENDBRANCH  12  16
ENDBRANCH   1   8
BRANCH   2  18
HETATM   18  O   UNL     1       8.653  47.092  18.046  1.00  0.00    -0.360 OA
ATOM     19  HO  UNL     1       9.062  47.611  17.364  1.00  0.00     0.217 HD
ENDBRANCH   2  18
BRANCH   6  20
HETATM   20  O   UNL     1       6.394  42.009  18.336  1.00  0.00    -0.361 OA
ATOM     21  HO  UNL     1       5.729  42.261  18.967  1.00  0.00     0.217 HD
ENDBRANCH   6  20
TORSDOF 4
ENDMDL
MODEL 9
REMARK VINA RESULT:      -6.0      3.125      6.363
REMARK  4 active torsions:
REMARK  status: ('A' for Active; 'I' for Inactive)
REMARK    1  A    between atoms: C_1  and  O_13 
REMARK    2  A    between atoms: C_5  and  C_6 
REMARK    3  A    between atoms: C_7  and  O_8 
REMARK    4  A    between atoms: O_15  and  C_17 
ROOT
HETATM    1  C   UNL     1       8.706  45.227  16.489  1.00  0.00     0.009 C 
HETATM    2  C   UNL     1       8.502  45.777  17.738  1.00  0.00     0.076 C 
HETATM    3  C   UNL     1       7.824  43.795  19.089  1.00  0.00     0.039 C 
HETATM    4  C   UNL     1       8.184  42.837  16.947  1.00  0.00     0.037 C 
HETATM    5  C   UNL     1       8.163  45.072  18.845  1.00  0.00     0.040 C 
HETATM    6  C   UNL     1       7.492  42.861  18.133  1.00  0.00     0.065 C 
HETATM    7  C   UNL     1       8.776  43.876  16.308  1.00  0.00     0.018 C 
ENDROOT
BRANCH   1   8
HETATM    8  C   UNL     1       8.937  46.074  15.392  1.00  0.00    -0.001 C 
HETATM    9  C   UNL     1      10.171  46.620  15.216  1.00  0.00     0.158 C 
HETATM   10  O   UNL     1      10.387  47.874  14.776  1.00  0.00    -0.285 OA
HETATM   11  C   UNL     1      10.052  48.366  13.574  1.00  0.00     0.321 C 
HETATM   12  C   UNL     1       8.996  47.705  12.816  1.00  0.00     0.141 C 
HETATM   13  O   UNL     1      10.577  49.381  13.150  1.00  0.00    -0.257 OA
HETATM   14  C   UNL     1       7.921  47.149  13.419  1.00  0.00     0.044 C 
HETATM   15  C   UNL     1       7.882  46.405  14.555  1.00  0.00     0.017 C 
BRANCH  12  16
HETATM   16  O   UNL     1       9.022  47.809  11.470  1.00  0.00    -0.355 OA
ATOM     17  HO  UNL     1       8.774  47.047  10.960  1.00  0.00     0.218 HD
ENDBRANCH  12  16
ENDBRANCH   1   8
BRANCH   2  18
HETATM   18  O   UNL     1       8.626  47.128  17.886  1.00  0.00    -0.360 OA
ATOM     19  HO  UNL     1       8.980  47.466  18.700  1.00  0.00     0.217 HD
ENDBRANCH   2  18
BRANCH   6  20
HETATM   20  O   UNL     1       6.450  42.024  18.372  1.00  0.00    -0.361 OA
ATOM     21  HO  UNL     1       5.634  42.164  17.905  1.00  0.00     0.217 HD
ENDBRANCH   6  20
TORSDOF 4
ENDMDL
