REMARK  3 active torsions:
REMARK  status: ('A' for Active; 'I' for Inactive)
REMARK    1  A    between atoms: C_2  and  C_18 
REMARK    2  A    between atoms: C_10  and  N_19 
REMARK    3  A    between atoms: O_15  and  C_22 
REMARK       I    between atoms: C_18  and  N_19 
ROOT
HETATM    1  C   UNL     1     -34.491   7.206   0.463  1.00  0.00     0.082 C 
HETATM    2  C   UNL     1     -34.107   8.549   0.294  1.00  0.00     0.247 C 
HETATM    3  O   UNL     1     -33.158   9.009   0.945  1.00  0.00    -0.268 OA
HETATM    4  C   UNL     1     -35.140   4.912  -0.663  1.00  0.00     0.076 C 
HETATM    5  C   UNL     1     -35.035   6.566  -1.923  1.00  0.00    -0.019 C 
HETATM    6  C   UNL     1     -34.299   8.964  -1.972  1.00  0.00     0.111 C 
HETATM    7  N   UNL     1     -34.624   9.311  -0.698  1.00  0.00    -0.309 N 
ATOM      8  HN  UNL     1     -35.229  10.108  -0.499  1.00  0.00     0.170 HD
HETATM    9  C   UNL     1     -34.531   7.702  -2.547  1.00  0.00     0.059 C 
HETATM   10  C   UNL     1     -34.884   6.344  -0.560  1.00  0.00    -0.041 C 
HETATM   11  C   UNL     1     -35.172   5.049  -2.176  1.00  0.00     0.156 C 
ENDROOT
BRANCH   6  12
HETATM   12  N   UNL     1     -33.672   9.956  -2.704  1.00  0.00    -0.309 N 
HETATM   13  C   UNL     1     -34.401  10.539  -3.668  1.00  0.00     0.259 C 
HETATM   14  O   UNL     1     -35.406  11.192  -3.402  1.00  0.00    -0.267 OA
ATOM     15  HN  UNL     1     -32.707  10.230  -2.521  1.00  0.00     0.170 HD
BRANCH  13  16
HETATM   16  C   UNL     1     -34.037  10.301  -5.077  1.00  0.00     0.054 C 
HETATM   17  C   UNL     1     -35.035  10.226  -6.010  1.00  0.00     0.163 C 
HETATM   18  O   UNL     1     -34.754   9.953  -7.320  1.00  0.00    -0.287 OA
HETATM   19  C   UNL     1     -33.471   9.689  -7.711  1.00  0.00     0.287 C 
HETATM   20  C   UNL     1     -32.409   9.993  -6.826  1.00  0.00     0.084 C 
HETATM   21  O   UNL     1     -33.291   9.223  -8.844  1.00  0.00    -0.260 OA
HETATM   22  C   UNL     1     -32.707  10.207  -5.488  1.00  0.00     0.025 C 
ENDBRANCH  13  16
ENDBRANCH   6  12
BRANCH  11  23
HETATM   23  O   UNL     1     -36.502   4.660  -2.555  1.00  0.00    -0.391 OA
ATOM     24  HO  UNL     1     -36.522   4.746  -3.501  1.00  0.00     0.210 HD
ENDBRANCH  11  23
TORSDOF 3
