REMARK  5 active torsions:
REMARK  status: ('A' for Active; 'I' for Inactive)
REMARK    1  A    between atoms: C_1  and  O_29 
REMARK    2  A    between atoms: C_2  and  C_31 
REMARK    3  A    between atoms: C_6  and  N_23 
REMARK    4  A    between atoms: C_14  and  C_32 
REMARK    5  A    between atoms: C_31  and  C_34 
ROOT
HETATM    1  C   UNL     1      12.788  22.384 -14.780  1.00  0.00     0.072 C 
HETATM    2  C   UNL     1      13.897  27.222 -15.464  1.00  0.00    -0.046 C 
HETATM    3  C   UNL     1      14.808  23.585 -15.370  1.00  0.00     0.022 C 
HETATM    4  C   UNL     1      14.124  24.809 -15.212  1.00  0.00    -0.014 C 
HETATM    5  C   UNL     1      14.707  26.062 -15.573  1.00  0.00    -0.012 C 
HETATM    6  C   UNL     1      12.252  25.996 -14.202  1.00  0.00     0.013 C 
HETATM    7  C   UNL     1      12.134  23.585 -14.553  1.00  0.00     0.049 C 
HETATM    8  C   UNL     1      12.795  27.204 -14.605  1.00  0.00     0.009 C 
HETATM    9  C   UNL     1      14.176  22.394 -15.032  1.00  0.00    -0.028 C 
HETATM   10  C   UNL     1      14.943  21.105 -15.025  1.00  0.00     0.051 C 
HETATM   11  C   UNL     1      12.816  24.802 -14.649  1.00  0.00    -0.022 C 
ENDROOT
BRANCH   2  12
HETATM   12  C   UNL     1      14.142  28.445 -16.318  1.00  0.00     0.044 C 
BRANCH  12  13
HETATM   13  C   UNL     1      15.055  29.421 -15.625  1.00  0.00    -0.005 C 
HETATM   14  C   UNL     1      14.664  30.189 -14.384  1.00  0.00     0.019 C 
HETATM   15  C   UNL     1      15.398  31.521 -14.434  1.00  0.00    -0.017 C 
HETATM   16  C   UNL     1      14.409  32.619 -14.800  1.00  0.00     0.020 C 
HETATM   17  C   UNL     1      16.020  31.831 -13.090  1.00  0.00     0.043 C 
HETATM   18  C   UNL     1      16.425  31.342 -15.524  1.00  0.00    -0.069 C 
HETATM   19  C   UNL     1      17.238  32.620 -13.160  1.00  0.00     0.003 C 
HETATM   20  C   UNL     1      18.029  32.628 -14.317  1.00  0.00     0.022 C 
HETATM   21  C   UNL     1      17.732  31.760 -15.414  1.00  0.00     0.032 C 
HETATM   22  C   UNL     1      15.978  30.265 -16.487  1.00  0.00     0.040 C 
BRANCH  20  23
HETATM   23  N   UNL     1      18.944  33.627 -14.467  1.00  0.00    -0.399 N 
ATOM     24  HN2 UNL     1      19.520  33.633 -15.309  1.00  0.00     0.156 HD
ATOM     25  HN1 UNL     1      19.156  34.246 -13.685  1.00  0.00     0.156 HD
ENDBRANCH  20  23
ENDBRANCH  12  13
ENDBRANCH   2  12
BRANCH   5  26
HETATM   26  C   UNL     1      16.047  26.138 -16.086  1.00  0.00    -0.040 C 
HETATM   27  C   UNL     1      16.475  25.960 -17.363  1.00  0.00    -0.049 A 
HETATM   28  C   UNL     1      15.863  25.878 -18.727  1.00  0.00     0.040 A 
HETATM   29  C   UNL     1      17.975  25.958 -17.450  1.00  0.00    -0.073 A 
HETATM   30  C   UNL     1      17.044  25.751 -19.705  1.00  0.00     0.009 A 
HETATM   31  C   UNL     1      18.341  25.728 -18.903  1.00  0.00     0.035 A 
HETATM   32  C   UNL     1      18.423  26.432 -16.095  1.00  0.00     0.039 C 
HETATM   33  C   UNL     1      17.217  26.445 -15.160  1.00  0.00     0.044 C 
ENDBRANCH   5  26
BRANCH   1  34
HETATM   34  O   UNL     1      12.217  21.197 -14.385  1.00  0.00    -0.360 OA
ATOM     35  HO  UNL     1      12.665  20.374 -14.541  1.00  0.00     0.217 HD
ENDBRANCH   1  34
TORSDOF 5
