MODEL 1
REMARK VINA RESULT:      -7.5      0.000      0.000
REMARK  7 active torsions:
REMARK  status: ('A' for Active; 'I' for Inactive)
REMARK    1  A    between atoms: O_5  and  C_7 
REMARK    2  A    between atoms: C_7  and  O_9 
REMARK    3  A    between atoms: C_7  and  C_23 
REMARK    4  A    between atoms: C_7  and  O_35 
REMARK    5  A    between atoms: C_11  and  C_27 
REMARK    6  A    between atoms: N_16  and  C_26 
REMARK    7  A    between atoms: C_24  and  C_33 
ROOT
HETATM    1  C   UNL     1     -29.459 -18.871  20.372  1.00  0.00     0.053 C 
HETATM    2  C   UNL     1     -29.167 -20.326  20.641  1.00  0.00    -0.062 C 
HETATM    3  C   UNL     1     -30.879 -18.605  20.884  1.00  0.00     0.012 C 
HETATM    4  N   UNL     1     -30.931 -17.538  17.337  1.00  0.00    -0.038 N 
ATOM      5  HN1 UNL     1     -31.668 -16.873  17.100  1.00  0.00     0.280 HD
ATOM      6  HN2 UNL     1     -31.412 -18.407  17.108  1.00  0.00     0.280 HD
HETATM    7  N   UNL     1     -28.279 -18.092  18.194  1.00  0.00    -0.065 N 
ATOM      8  HN1 UNL     1     -27.946 -17.150  18.400  1.00  0.00     0.277 HD
ATOM      9  HN2 UNL     1     -27.437 -18.583  18.491  1.00  0.00     0.277 HD
HETATM   10  C   UNL     1     -30.607 -17.476  18.777  1.00  0.00     0.220 C 
HETATM   11  C   UNL     1     -29.764 -17.348  16.485  1.00  0.00     0.406 C 
HETATM   12  C   UNL     1     -28.624 -18.305  16.770  1.00  0.00     0.294 C 
HETATM   13  C   UNL     1     -31.686 -18.069  19.710  1.00  0.00     0.041 C 
HETATM   14  C   UNL     1     -29.463 -18.465  18.932  1.00  0.00     0.225 C 
HETATM   15  C   UNL     1     -31.139 -19.740  21.833  1.00  0.00     0.095 C 
HETATM   16  C   UNL     1     -30.141 -20.866  21.670  1.00  0.00     0.051 C 
ENDROOT
BRANCH   2  17
HETATM   17  C   UNL     1     -27.950 -20.946  20.034  1.00  0.00    -0.033 C 
HETATM   18  C   UNL     1     -27.982 -21.426  18.733  1.00  0.00     0.012 C 
HETATM   19  C   UNL     1     -26.891 -22.094  18.194  1.00  0.00     0.016 C 
HETATM   20  C   UNL     1     -25.718 -22.185  18.917  1.00  0.00     0.033 C 
HETATM   21  C   UNL     1     -25.708 -21.796  20.255  1.00  0.00     0.016 C 
HETATM   22  C   UNL     1     -26.790 -21.096  20.771  1.00  0.00     0.012 C 
BRANCH  20  23
HETATM   23  C   UNL     1     -24.418 -22.645  18.212  1.00  0.00     0.307 C 
BRANCH  23  24
HETATM   24  O   UNL     1     -23.538 -23.186  19.188  1.00  0.00    -0.340 OA
ATOM     25  HO  UNL     1     -23.831 -23.152  20.091  1.00  0.00     0.216 HD
ENDBRANCH  23  24
BRANCH  23  26
HETATM   26  O   UNL     1     -24.687 -23.423  17.142  1.00  0.00    -0.340 OA
ATOM     27  HO  UNL     1     -25.301 -24.136  17.278  1.00  0.00     0.216 HD
ENDBRANCH  23  26
BRANCH  23  28
HETATM   28  O   UNL     1     -23.614 -21.629  17.776  1.00  0.00    -0.340 OA
ATOM     29  HO  UNL     1     -22.795 -21.943  18.142  1.00  0.00     0.216 HD
ENDBRANCH  23  28
ENDBRANCH  20  23
ENDBRANCH   2  17
BRANCH  15  30
HETATM   30  C   UNL     1     -32.499 -19.939  22.449  1.00  0.00     0.177 C 
HETATM   31  O   UNL     1     -33.378 -20.432  21.709  1.00  0.00    -0.648 OA
HETATM   32  O   UNL     1     -32.619 -19.680  23.675  1.00  0.00    -0.648 OA
ENDBRANCH  15  30
BRANCH  11  33
HETATM   33  N   UNL     1     -30.046 -17.113  15.137  1.00  0.00    -0.049 N 
ATOM     34  HN3 UNL     1     -29.772 -16.164  14.881  1.00  0.00     0.276 HD
ATOM     35  HN2 UNL     1     -29.409 -17.648  14.546  1.00  0.00     0.276 HD
ATOM     36  HN1 UNL     1     -31.011 -17.287  14.859  1.00  0.00     0.276 HD
ENDBRANCH  11  33
TORSDOF 7
ENDMDL
MODEL 2
REMARK VINA RESULT:      -7.4      3.850      5.461
REMARK  7 active torsions:
REMARK  status: ('A' for Active; 'I' for Inactive)
REMARK    1  A    between atoms: O_5  and  C_7 
REMARK    2  A    between atoms: C_7  and  O_9 
REMARK    3  A    between atoms: C_7  and  C_23 
REMARK    4  A    between atoms: C_7  and  O_35 
REMARK    5  A    between atoms: C_11  and  C_27 
REMARK    6  A    between atoms: N_16  and  C_26 
REMARK    7  A    between atoms: C_24  and  C_33 
ROOT
HETATM    1  C   UNL     1     -30.993 -17.662  17.367  1.00  0.00     0.053 C 
HETATM    2  C   UNL     1     -30.220 -17.273  16.132  1.00  0.00    -0.062 C 
HETATM    3  C   UNL     1     -32.245 -16.778  17.400  1.00  0.00     0.012 C 
HETATM    4  N   UNL     1     -30.586 -16.201  20.662  1.00  0.00    -0.038 N 
ATOM      5  HN1 UNL     1     -31.198 -15.850  21.398  1.00  0.00     0.280 HD
ATOM      6  HN2 UNL     1     -30.237 -15.314  20.300  1.00  0.00     0.280 HD
HETATM    7  N   UNL     1     -29.373 -18.363  19.272  1.00  0.00    -0.065 N 
ATOM      8  HN1 UNL     1     -29.828 -19.156  19.723  1.00  0.00     0.277 HD
ATOM      9  HN2 UNL     1     -28.834 -18.903  18.597  1.00  0.00     0.277 HD
HETATM   10  C   UNL     1     -31.359 -16.925  19.632  1.00  0.00     0.220 C 
HETATM   11  C   UNL     1     -29.502 -16.998  21.222  1.00  0.00     0.406 C 
HETATM   12  C   UNL     1     -28.540 -17.552  20.190  1.00  0.00     0.294 C 
HETATM   13  C   UNL     1     -32.229 -16.028  18.725  1.00  0.00     0.041 C 
HETATM   14  C   UNL     1     -30.295 -17.428  18.670  1.00  0.00     0.225 C 
HETATM   15  C   UNL     1     -32.382 -16.294  15.985  1.00  0.00     0.095 C 
HETATM   16  C   UNL     1     -31.123 -16.515  15.176  1.00  0.00     0.051 C 
ENDROOT
BRANCH   2  17
HETATM   17  C   UNL     1     -28.829 -17.789  15.954  1.00  0.00    -0.033 C 
HETATM   18  C   UNL     1     -27.789 -16.917  15.665  1.00  0.00     0.012 C 
HETATM   19  C   UNL     1     -26.514 -17.395  15.398  1.00  0.00     0.016 C 
HETATM   20  C   UNL     1     -26.245 -18.743  15.530  1.00  0.00     0.033 C 
HETATM   21  C   UNL     1     -27.300 -19.634  15.721  1.00  0.00     0.016 C 
HETATM   22  C   UNL     1     -28.562 -19.143  16.025  1.00  0.00     0.012 C 
BRANCH  20  23
HETATM   23  C   UNL     1     -24.777 -19.234  15.540  1.00  0.00     0.307 C 
BRANCH  23  24
HETATM   24  O   UNL     1     -24.498 -19.863  14.296  1.00  0.00    -0.340 OA
ATOM     25  HO  UNL     1     -23.627 -20.226  14.189  1.00  0.00     0.216 HD
ENDBRANCH  23  24
BRANCH  23  26
HETATM   26  O   UNL     1     -23.932 -18.253  15.924  1.00  0.00    -0.340 OA
ATOM     27  HO  UNL     1     -23.304 -18.474  16.602  1.00  0.00     0.216 HD
ENDBRANCH  23  26
BRANCH  23  28
HETATM   28  O   UNL     1     -24.539 -20.308  16.353  1.00  0.00    -0.340 OA
ATOM     29  HO  UNL     1     -24.924 -20.978  15.801  1.00  0.00     0.216 HD
ENDBRANCH  23  28
ENDBRANCH  20  23
ENDBRANCH   2  17
BRANCH  15  30
HETATM   30  C   UNL     1     -33.417 -15.264  15.616  1.00  0.00     0.177 C 
HETATM   31  O   UNL     1     -32.995 -14.225  15.062  1.00  0.00    -0.648 OA
HETATM   32  O   UNL     1     -34.624 -15.565  15.810  1.00  0.00    -0.648 OA
ENDBRANCH  15  30
BRANCH  11  33
HETATM   33  N   UNL     1     -28.924 -16.480  22.384  1.00  0.00    -0.049 N 
ATOM     34  HN3 UNL     1     -28.038 -16.025  22.162  1.00  0.00     0.276 HD
ATOM     35  HN2 UNL     1     -29.458 -15.678  22.715  1.00  0.00     0.276 HD
ATOM     36  HN1 UNL     1     -28.794 -17.152  23.140  1.00  0.00     0.276 HD
ENDBRANCH  11  33
TORSDOF 7
ENDMDL
MODEL 3
REMARK VINA RESULT:      -7.3      1.600      6.323
REMARK  7 active torsions:
REMARK  status: ('A' for Active; 'I' for Inactive)
REMARK    1  A    between atoms: O_5  and  C_7 
REMARK    2  A    between atoms: C_7  and  O_9 
REMARK    3  A    between atoms: C_7  and  C_23 
REMARK    4  A    between atoms: C_7  and  O_35 
REMARK    5  A    between atoms: C_11  and  C_27 
REMARK    6  A    between atoms: N_16  and  C_26 
REMARK    7  A    between atoms: C_24  and  C_33 
ROOT
HETATM    1  C   UNL     1     -28.348 -21.061  18.395  1.00  0.00     0.053 C 
HETATM    2  C   UNL     1     -27.702 -20.896  19.748  1.00  0.00    -0.062 C 
HETATM    3  C   UNL     1     -27.235 -21.463  17.421  1.00  0.00     0.012 C 
HETATM    4  N   UNL     1     -28.768 -18.443  15.920  1.00  0.00    -0.038 N 
ATOM      5  HN1 UNL     1     -28.621 -18.341  14.916  1.00  0.00     0.280 HD
ATOM      6  HN2 UNL     1     -27.974 -17.901  16.261  1.00  0.00     0.280 HD
HETATM    7  N   UNL     1     -30.311 -19.385  18.113  1.00  0.00    -0.065 N 
ATOM      8  HN1 UNL     1     -31.035 -19.911  17.624  1.00  0.00     0.277 HD
ATOM      9  HN2 UNL     1     -30.621 -19.609  19.058  1.00  0.00     0.277 HD
HETATM   10  C   UNL     1     -28.657 -19.858  16.330  1.00  0.00     0.220 C 
HETATM   11  C   UNL     1     -30.028 -17.833  16.327  1.00  0.00     0.406 C 
HETATM   12  C   UNL     1     -30.318 -17.936  17.811  1.00  0.00     0.294 C 
HETATM   13  C   UNL     1     -27.222 -20.429  16.304  1.00  0.00     0.041 C 
HETATM   14  C   UNL     1     -28.969 -19.829  17.818  1.00  0.00     0.225 C 
HETATM   15  C   UNL     1     -26.141 -21.975  18.314  1.00  0.00     0.095 C 
HETATM   16  C   UNL     1     -26.350 -21.586  19.762  1.00  0.00     0.051 C 
ENDROOT
BRANCH   2  17
HETATM   17  C   UNL     1     -28.485 -20.271  20.855  1.00  0.00    -0.033 C 
HETATM   18  C   UNL     1     -29.479 -20.989  21.504  1.00  0.00     0.012 C 
HETATM   19  C   UNL     1     -30.280 -20.387  22.464  1.00  0.00     0.016 C 
HETATM   20  C   UNL     1     -30.018 -19.092  22.863  1.00  0.00     0.033 C 
HETATM   21  C   UNL     1     -29.090 -18.333  22.151  1.00  0.00     0.016 C 
HETATM   22  C   UNL     1     -28.269 -18.955  21.221  1.00  0.00     0.012 C 
BRANCH  20  23
HETATM   23  C   UNL     1     -30.696 -18.530  24.136  1.00  0.00     0.307 C 
BRANCH  23  24
HETATM   24  O   UNL     1     -30.756 -17.114  24.032  1.00  0.00    -0.340 OA
ATOM     25  HO  UNL     1     -30.228 -16.714  23.351  1.00  0.00     0.216 HD
ENDBRANCH  23  24
BRANCH  23  26
HETATM   26  O   UNL     1     -31.858 -19.167  24.397  1.00  0.00    -0.340 OA
ATOM     27  HO  UNL     1     -32.653 -18.654  24.308  1.00  0.00     0.216 HD
ENDBRANCH  23  26
BRANCH  23  28
HETATM   28  O   UNL     1     -29.936 -18.604  25.270  1.00  0.00    -0.340 OA
ATOM     29  HO  UNL     1     -29.258 -19.180  24.936  1.00  0.00     0.216 HD
ENDBRANCH  23  28
ENDBRANCH  20  23
ENDBRANCH   2  17
BRANCH  15  30
HETATM   30  C   UNL     1     -24.790 -22.337  17.755  1.00  0.00     0.177 C 
HETATM   31  O   UNL     1     -24.779 -23.163  16.817  1.00  0.00    -0.648 OA
HETATM   32  O   UNL     1     -23.793 -21.718  18.212  1.00  0.00    -0.648 OA
ENDBRANCH  15  30
BRANCH  11  33
HETATM   33  N   UNL     1     -30.311 -16.601  15.730  1.00  0.00    -0.049 N 
ATOM     34  HN3 UNL     1     -29.995 -16.600  14.761  1.00  0.00     0.276 HD
ATOM     35  HN2 UNL     1     -31.316 -16.501  15.590  1.00  0.00     0.276 HD
ATOM     36  HN1 UNL     1     -29.942 -15.787  16.221  1.00  0.00     0.276 HD
ENDBRANCH  11  33
TORSDOF 7
ENDMDL
MODEL 4
REMARK VINA RESULT:      -7.3      1.485      6.361
REMARK  7 active torsions:
REMARK  status: ('A' for Active; 'I' for Inactive)
REMARK    1  A    between atoms: O_5  and  C_7 
REMARK    2  A    between atoms: C_7  and  O_9 
REMARK    3  A    between atoms: C_7  and  C_23 
REMARK    4  A    between atoms: C_7  and  O_35 
REMARK    5  A    between atoms: C_11  and  C_27 
REMARK    6  A    between atoms: N_16  and  C_26 
REMARK    7  A    between atoms: C_24  and  C_33 
ROOT
HETATM    1  C   UNL     1     -28.318 -21.125  18.279  1.00  0.00     0.053 C 
HETATM    2  C   UNL     1     -27.733 -21.006  19.664  1.00  0.00    -0.062 C 
HETATM    3  C   UNL     1     -27.159 -21.482  17.341  1.00  0.00     0.012 C 
HETATM    4  N   UNL     1     -28.653 -18.419  15.887  1.00  0.00    -0.038 N 
ATOM      5  HN1 UNL     1     -28.462 -18.279  14.895  1.00  0.00     0.280 HD
ATOM      6  HN2 UNL     1     -27.880 -17.884  16.282  1.00  0.00     0.280 HD
HETATM    7  N   UNL     1     -30.282 -19.455  17.972  1.00  0.00    -0.065 N 
ATOM      8  HN1 UNL     1     -30.979 -19.968  17.432  1.00  0.00     0.277 HD
ATOM      9  HN2 UNL     1     -30.631 -19.717  18.894  1.00  0.00     0.277 HD
HETATM   10  C   UNL     1     -28.546 -19.848  16.248  1.00  0.00     0.220 C 
HETATM   11  C   UNL     1     -29.935 -17.834  16.259  1.00  0.00     0.406 C 
HETATM   12  C   UNL     1     -30.290 -17.995  17.724  1.00  0.00     0.294 C 
HETATM   13  C   UNL     1     -27.106 -20.407  16.265  1.00  0.00     0.041 C 
HETATM   14  C   UNL     1     -28.924 -19.877  17.721  1.00  0.00     0.225 C 
HETATM   15  C   UNL     1     -26.101 -22.018  18.263  1.00  0.00     0.095 C 
HETATM   16  C   UNL     1     -26.378 -21.686  19.712  1.00  0.00     0.051 C 
ENDROOT
BRANCH   2  17
HETATM   17  C   UNL     1     -28.571 -20.429  20.758  1.00  0.00    -0.033 C 
HETATM   18  C   UNL     1     -28.348 -19.135  21.205  1.00  0.00     0.012 C 
HETATM   19  C   UNL     1     -29.052 -18.625  22.287  1.00  0.00     0.016 C 
HETATM   20  C   UNL     1     -30.065 -19.369  22.858  1.00  0.00     0.033 C 
HETATM   21  C   UNL     1     -30.230 -20.701  22.484  1.00  0.00     0.016 C 
HETATM   22  C   UNL     1     -29.548 -21.188  21.377  1.00  0.00     0.012 C 
BRANCH  20  23
HETATM   23  C   UNL     1     -31.049 -18.693  23.845  1.00  0.00     0.307 C 
BRANCH  23  24
HETATM   24  O   UNL     1     -30.420 -18.590  25.116  1.00  0.00    -0.340 OA
ATOM     25  HO  UNL     1     -30.576 -19.301  25.727  1.00  0.00     0.216 HD
ENDBRANCH  23  24
BRANCH  23  26
HETATM   26  O   UNL     1     -31.559 -17.554  23.330  1.00  0.00    -0.340 OA
ATOM     27  HO  UNL     1     -31.122 -17.201  22.563  1.00  0.00     0.216 HD
ENDBRANCH  23  26
BRANCH  23  28
HETATM   28  O   UNL     1     -32.108 -19.472  24.221  1.00  0.00    -0.340 OA
ATOM     29  HO  UNL     1     -32.283 -19.872  23.377  1.00  0.00     0.216 HD
ENDBRANCH  23  28
ENDBRANCH  20  23
ENDBRANCH   2  17
BRANCH  15  30
HETATM   30  C   UNL     1     -24.723 -22.349  17.751  1.00  0.00     0.177 C 
HETATM   31  O   UNL     1     -24.662 -23.153  16.796  1.00  0.00    -0.648 OA
HETATM   32  O   UNL     1     -23.755 -21.726  18.262  1.00  0.00    -0.648 OA
ENDBRANCH  15  30
BRANCH  11  33
HETATM   33  N   UNL     1     -30.203 -16.584  15.697  1.00  0.00    -0.049 N 
ATOM     34  HN3 UNL     1     -31.207 -16.463  15.573  1.00  0.00     0.276 HD
ATOM     35  HN2 UNL     1     -30.016 -15.846  16.376  1.00  0.00     0.276 HD
ATOM     36  HN1 UNL     1     -29.715 -16.388  14.823  1.00  0.00     0.276 HD
ENDBRANCH  11  33
TORSDOF 7
ENDMDL
MODEL 5
REMARK VINA RESULT:      -7.3      3.717      5.228
REMARK  7 active torsions:
REMARK  status: ('A' for Active; 'I' for Inactive)
REMARK    1  A    between atoms: O_5  and  C_7 
REMARK    2  A    between atoms: C_7  and  O_9 
REMARK    3  A    between atoms: C_7  and  C_23 
REMARK    4  A    between atoms: C_7  and  O_35 
REMARK    5  A    between atoms: C_11  and  C_27 
REMARK    6  A    between atoms: N_16  and  C_26 
REMARK    7  A    between atoms: C_24  and  C_33 
ROOT
HETATM    1  C   UNL     1     -31.071 -17.731  17.554  1.00  0.00     0.053 C 
HETATM    2  C   UNL     1     -30.311 -17.467  16.279  1.00  0.00    -0.062 C 
HETATM    3  C   UNL     1     -32.229 -16.727  17.593  1.00  0.00     0.012 C 
HETATM    4  N   UNL     1     -30.399 -16.195  20.771  1.00  0.00    -0.038 N 
ATOM      5  HN1 UNL     1     -30.947 -15.758  21.512  1.00  0.00     0.280 HD
ATOM      6  HN2 UNL     1     -29.979 -15.361  20.360  1.00  0.00     0.280 HD
HETATM    7  N   UNL     1     -29.456 -18.517  19.430  1.00  0.00    -0.065 N 
ATOM      8  HN1 UNL     1     -29.969 -19.244  19.928  1.00  0.00     0.277 HD
ATOM      9  HN2 UNL     1     -28.998 -19.132  18.759  1.00  0.00     0.277 HD
HETATM   10  C   UNL     1     -31.278 -16.878  19.798  1.00  0.00     0.220 C 
HETATM   11  C   UNL     1     -29.378 -17.074  21.326  1.00  0.00     0.406 C 
HETATM   12  C   UNL     1     -28.514 -17.759  20.285  1.00  0.00     0.294 C 
HETATM   13  C   UNL     1     -32.090 -15.933  18.884  1.00  0.00     0.041 C 
HETATM   14  C   UNL     1     -30.305 -17.519  18.821  1.00  0.00     0.225 C 
HETATM   15  C   UNL     1     -32.371 -16.285  16.164  1.00  0.00     0.095 C 
HETATM   16  C   UNL     1     -31.171 -16.660  15.323  1.00  0.00     0.051 C 
ENDROOT
BRANCH   2  17
HETATM   17  C   UNL     1     -28.985 -18.123  16.074  1.00  0.00    -0.033 C 
HETATM   18  C   UNL     1     -28.896 -19.502  15.948  1.00  0.00     0.012 C 
HETATM   19  C   UNL     1     -27.662 -20.130  15.859  1.00  0.00     0.016 C 
HETATM   20  C   UNL     1     -26.510 -19.373  15.783  1.00  0.00     0.033 C 
HETATM   21  C   UNL     1     -26.580 -17.999  16.008  1.00  0.00     0.016 C 
HETATM   22  C   UNL     1     -27.820 -17.378  16.057  1.00  0.00     0.012 C 
BRANCH  20  23
HETATM   23  C   UNL     1     -25.177 -20.045  15.373  1.00  0.00     0.307 C 
BRANCH  23  24
HETATM   24  O   UNL     1     -25.412 -21.431  15.161  1.00  0.00    -0.340 OA
ATOM     25  HO  UNL     1     -24.662 -21.955  14.905  1.00  0.00     0.216 HD
ENDBRANCH  23  24
BRANCH  23  26
HETATM   26  O   UNL     1     -24.575 -19.373  14.368  1.00  0.00    -0.340 OA
ATOM     27  HO  UNL     1     -23.721 -19.688  14.098  1.00  0.00     0.216 HD
ENDBRANCH  23  26
BRANCH  23  28
HETATM   28  O   UNL     1     -24.261 -20.160  16.382  1.00  0.00    -0.340 OA
ATOM     29  HO  UNL     1     -23.743 -19.390  16.178  1.00  0.00     0.216 HD
ENDBRANCH  23  28
ENDBRANCH  20  23
ENDBRANCH   2  17
BRANCH  15  30
HETATM   30  C   UNL     1     -33.314 -15.172  15.789  1.00  0.00     0.177 C 
HETATM   31  O   UNL     1     -34.444 -15.196  16.323  1.00  0.00    -0.648 OA
HETATM   32  O   UNL     1     -32.863 -14.264  15.042  1.00  0.00    -0.648 OA
ENDBRANCH  15  30
BRANCH  11  33
HETATM   33  N   UNL     1     -28.708 -16.573  22.445  1.00  0.00    -0.049 N 
ATOM     34  HN3 UNL     1     -27.979 -15.922  22.155  1.00  0.00     0.276 HD
ATOM     35  HN2 UNL     1     -29.317 -15.940  22.964  1.00  0.00     0.276 HD
ATOM     36  HN1 UNL     1     -28.321 -17.279  23.070  1.00  0.00     0.276 HD
ENDBRANCH  11  33
TORSDOF 7
ENDMDL
MODEL 6
REMARK VINA RESULT:      -6.9      3.356      7.398
REMARK  7 active torsions:
REMARK  status: ('A' for Active; 'I' for Inactive)
REMARK    1  A    between atoms: O_5  and  C_7 
REMARK    2  A    between atoms: C_7  and  O_9 
REMARK    3  A    between atoms: C_7  and  C_23 
REMARK    4  A    between atoms: C_7  and  O_35 
REMARK    5  A    between atoms: C_11  and  C_27 
REMARK    6  A    between atoms: N_16  and  C_26 
REMARK    7  A    between atoms: C_24  and  C_33 
ROOT
HETATM    1  C   UNL     1     -24.331 -20.369  15.859  1.00  0.00     0.053 C 
HETATM    2  C   UNL     1     -24.506 -21.026  17.205  1.00  0.00    -0.062 C 
HETATM    3  C   UNL     1     -22.844 -20.018  15.730  1.00  0.00     0.012 C 
HETATM    4  N   UNL     1     -24.628 -16.817  15.187  1.00  0.00    -0.038 N 
ATOM      5  HN1 UNL     1     -24.098 -16.113  14.674  1.00  0.00     0.280 HD
ATOM      6  HN2 UNL     1     -24.384 -16.548  16.140  1.00  0.00     0.280 HD
HETATM    7  N   UNL     1     -26.447 -19.001  15.231  1.00  0.00    -0.065 N 
ATOM      8  HN1 UNL     1     -26.574 -19.161  14.232  1.00  0.00     0.277 HD
ATOM      9  HN2 UNL     1     -27.026 -19.776  15.551  1.00  0.00     0.277 HD
HETATM   10  C   UNL     1     -24.136 -18.176  14.879  1.00  0.00     0.220 C 
HETATM   11  C   UNL     1     -26.059 -16.665  14.953  1.00  0.00     0.406 C 
HETATM   12  C   UNL     1     -26.919 -17.674  15.688  1.00  0.00     0.294 C 
HETATM   13  C   UNL     1     -22.757 -18.519  15.484  1.00  0.00     0.041 C 
HETATM   14  C   UNL     1     -25.071 -19.084  15.663  1.00  0.00     0.225 C 
HETATM   15  C   UNL     1     -22.176 -20.899  16.747  1.00  0.00     0.095 C 
HETATM   16  C   UNL     1     -23.161 -21.492  17.731  1.00  0.00     0.051 C 
ENDROOT
BRANCH   2  17
HETATM   17  C   UNL     1     -25.887 -21.262  17.723  1.00  0.00    -0.033 C 
HETATM   18  C   UNL     1     -26.087 -21.632  19.045  1.00  0.00     0.012 C 
HETATM   19  C   UNL     1     -27.355 -21.952  19.510  1.00  0.00     0.016 C 
HETATM   20  C   UNL     1     -28.449 -21.793  18.684  1.00  0.00     0.033 C 
HETATM   21  C   UNL     1     -28.250 -21.518  17.332  1.00  0.00     0.016 C 
HETATM   22  C   UNL     1     -26.984 -21.163  16.887  1.00  0.00     0.012 C 
BRANCH  20  23
HETATM   23  C   UNL     1     -29.876 -21.845  19.282  1.00  0.00     0.307 C 
BRANCH  23  24
HETATM   24  O   UNL     1     -29.807 -22.434  20.574  1.00  0.00    -0.340 OA
ATOM     25  HO  UNL     1     -29.077 -22.170  21.123  1.00  0.00     0.216 HD
ENDBRANCH  23  24
BRANCH  23  26
HETATM   26  O   UNL     1     -30.490 -20.645  19.198  1.00  0.00    -0.340 OA
ATOM     27  HO  UNL     1     -30.683 -20.327  18.323  1.00  0.00     0.216 HD
ENDBRANCH  23  26
BRANCH  23  28
HETATM   28  O   UNL     1     -30.708 -22.762  18.701  1.00  0.00    -0.340 OA
ATOM     29  HO  UNL     1     -30.349 -23.541  19.109  1.00  0.00     0.216 HD
ENDBRANCH  23  28
ENDBRANCH  20  23
ENDBRANCH   2  17
BRANCH  15  30
HETATM   30  C   UNL     1     -20.708 -20.756  17.051  1.00  0.00     0.177 C 
HETATM   31  O   UNL     1     -20.366 -20.934  18.240  1.00  0.00    -0.648 OA
HETATM   32  O   UNL     1     -19.935 -20.559  16.076  1.00  0.00    -0.648 OA
ENDBRANCH  15  30
BRANCH  11  33
HETATM   33  N   UNL     1     -26.523 -15.348  14.951  1.00  0.00    -0.049 N 
ATOM     34  HN3 UNL     1     -27.183 -15.209  14.186  1.00  0.00     0.276 HD
ATOM     35  HN2 UNL     1     -27.140 -15.192  15.748  1.00  0.00     0.276 HD
ATOM     36  HN1 UNL     1     -25.797 -14.632  14.924  1.00  0.00     0.276 HD
ENDBRANCH  11  33
TORSDOF 7
ENDMDL
MODEL 7
REMARK VINA RESULT:      -6.9      2.806      3.575
REMARK  7 active torsions:
REMARK  status: ('A' for Active; 'I' for Inactive)
REMARK    1  A    between atoms: O_5  and  C_7 
REMARK    2  A    between atoms: C_7  and  O_9 
REMARK    3  A    between atoms: C_7  and  C_23 
REMARK    4  A    between atoms: C_7  and  O_35 
REMARK    5  A    between atoms: C_11  and  C_27 
REMARK    6  A    between atoms: N_16  and  C_26 
REMARK    7  A    between atoms: C_24  and  C_33 
ROOT
HETATM    1  C   UNL     1     -30.779 -17.568  18.214  1.00  0.00     0.053 C 
HETATM    2  C   UNL     1     -29.940 -18.818  18.301  1.00  0.00    -0.062 C 
HETATM    3  C   UNL     1     -32.056 -17.838  19.018  1.00  0.00     0.012 C 
HETATM    4  N   UNL     1     -33.243 -16.852  15.649  1.00  0.00    -0.038 N 
ATOM      5  HN1 UNL     1     -34.199 -16.500  15.618  1.00  0.00     0.280 HD
ATOM      6  HN2 UNL     1     -33.422 -17.836  15.451  1.00  0.00     0.280 HD
HETATM    7  N   UNL     1     -30.448 -16.408  15.914  1.00  0.00    -0.065 N 
ATOM      8  HN1 UNL     1     -30.434 -15.410  16.125  1.00  0.00     0.277 HD
ATOM      9  HN2 UNL     1     -29.444 -16.560  15.997  1.00  0.00     0.277 HD
HETATM   10  C   UNL     1     -32.661 -16.681  16.997  1.00  0.00     0.220 C 
HETATM   11  C   UNL     1     -32.430 -16.249  14.600  1.00  0.00     0.406 C 
HETATM   12  C   UNL     1     -30.992 -16.727  14.575  1.00  0.00     0.294 C 
HETATM   13  C   UNL     1     -33.233 -17.628  18.075  1.00  0.00     0.041 C 
HETATM   14  C   UNL     1     -31.235 -17.188  16.841  1.00  0.00     0.225 C 
HETATM   15  C   UNL     1     -31.687 -18.993  19.905  1.00  0.00     0.095 C 
HETATM   16  C   UNL     1     -30.416 -19.679  19.457  1.00  0.00     0.051 C 
ENDROOT
BRANCH   2  17
HETATM   17  C   UNL     1     -28.744 -18.952  17.417  1.00  0.00    -0.033 C 
HETATM   18  C   UNL     1     -27.809 -17.931  17.341  1.00  0.00     0.012 C 
HETATM   19  C   UNL     1     -26.748 -18.001  16.449  1.00  0.00     0.016 C 
HETATM   20  C   UNL     1     -26.553 -19.148  15.705  1.00  0.00     0.033 C 
HETATM   21  C   UNL     1     -27.537 -20.135  15.700  1.00  0.00     0.016 C 
HETATM   22  C   UNL     1     -28.572 -20.072  16.623  1.00  0.00     0.012 C 
BRANCH  20  23
HETATM   23  C   UNL     1     -25.216 -19.355  14.952  1.00  0.00     0.307 C 
BRANCH  23  24
HETATM   24  O   UNL     1     -25.027 -20.746  14.734  1.00  0.00    -0.340 OA
ATOM     25  HO  UNL     1     -25.806 -21.258  14.551  1.00  0.00     0.216 HD
ENDBRANCH  23  24
BRANCH  23  26
HETATM   26  O   UNL     1     -25.133 -18.556  13.867  1.00  0.00    -0.340 OA
ATOM     27  HO  UNL     1     -25.923 -18.461  13.348  1.00  0.00     0.216 HD
ENDBRANCH  23  26
BRANCH  23  28
HETATM   28  O   UNL     1     -24.095 -19.127  15.703  1.00  0.00    -0.340 OA
ATOM     29  HO  UNL     1     -23.458 -19.158  14.999  1.00  0.00     0.216 HD
ENDBRANCH  23  28
ENDBRANCH  20  23
ENDBRANCH   2  17
BRANCH  15  30
HETATM   30  C   UNL     1     -32.723 -19.673  20.761  1.00  0.00     0.177 C 
HETATM   31  O   UNL     1     -33.420 -20.547  20.201  1.00  0.00    -0.648 OA
HETATM   32  O   UNL     1     -32.745 -19.376  21.984  1.00  0.00    -0.648 OA
ENDBRANCH  15  30
BRANCH  11  33
HETATM   33  N   UNL     1     -33.059 -16.129  13.358  1.00  0.00    -0.049 N 
ATOM     34  HN3 UNL     1     -33.830 -16.792  13.289  1.00  0.00     0.276 HD
ATOM     35  HN2 UNL     1     -33.574 -15.250  13.309  1.00  0.00     0.276 HD
ATOM     36  HN1 UNL     1     -32.443 -16.220  12.550  1.00  0.00     0.276 HD
ENDBRANCH  11  33
TORSDOF 7
ENDMDL
MODEL 8
REMARK VINA RESULT:      -6.7      3.430      4.964
REMARK  7 active torsions:
REMARK  status: ('A' for Active; 'I' for Inactive)
REMARK    1  A    between atoms: O_5  and  C_7 
REMARK    2  A    between atoms: C_7  and  O_9 
REMARK    3  A    between atoms: C_7  and  C_23 
REMARK    4  A    between atoms: C_7  and  O_35 
REMARK    5  A    between atoms: C_11  and  C_27 
REMARK    6  A    between atoms: N_16  and  C_26 
REMARK    7  A    between atoms: C_24  and  C_33 
ROOT
HETATM    1  C   UNL     1     -31.218 -18.169  17.968  1.00  0.00     0.053 C 
HETATM    2  C   UNL     1     -30.378 -17.751  16.788  1.00  0.00    -0.062 C 
HETATM    3  C   UNL     1     -32.331 -17.125  18.109  1.00  0.00     0.012 C 
HETATM    4  N   UNL     1     -30.657 -17.184  21.414  1.00  0.00    -0.038 N 
ATOM      5  HN1 UNL     1     -31.225 -16.839  22.188  1.00  0.00     0.280 HD
ATOM      6  HN2 UNL     1     -30.180 -16.319  21.160  1.00  0.00     0.280 HD
HETATM    7  N   UNL     1     -29.744 -19.317  19.773  1.00  0.00    -0.065 N 
ATOM      8  HN1 UNL     1     -30.314 -20.085  20.125  1.00  0.00     0.277 HD
ATOM      9  HN2 UNL     1     -29.277 -19.844  19.036  1.00  0.00     0.277 HD
HETATM   10  C   UNL     1     -31.510 -17.662  20.306  1.00  0.00     0.220 C 
HETATM   11  C   UNL     1     -29.707 -18.189  21.873  1.00  0.00     0.406 C 
HETATM   12  C   UNL     1     -28.818 -18.749  20.779  1.00  0.00     0.294 C 
HETATM   13  C   UNL     1     -32.229 -16.548  19.514  1.00  0.00     0.041 C 
HETATM   14  C   UNL     1     -30.514 -18.195  19.288  1.00  0.00     0.225 C 
HETATM   15  C   UNL     1     -32.376 -16.461  16.763  1.00  0.00     0.095 C 
HETATM   16  C   UNL     1     -31.149 -16.763  15.931  1.00  0.00     0.051 C 
ENDROOT
BRANCH   2  17
HETATM   17  C   UNL     1     -29.073 -18.435  16.546  1.00  0.00    -0.033 C 
HETATM   18  C   UNL     1     -27.887 -17.715  16.570  1.00  0.00     0.012 C 
HETATM   19  C   UNL     1     -26.680 -18.320  16.248  1.00  0.00     0.016 C 
HETATM   20  C   UNL     1     -26.637 -19.679  16.009  1.00  0.00     0.033 C 
HETATM   21  C   UNL     1     -27.830 -20.390  15.885  1.00  0.00     0.016 C 
HETATM   22  C   UNL     1     -29.025 -19.785  16.247  1.00  0.00     0.012 C 
BRANCH  20  23
HETATM   23  C   UNL     1     -25.270 -20.405  15.960  1.00  0.00     0.307 C 
BRANCH  23  24
HETATM   24  O   UNL     1     -24.991 -20.939  17.247  1.00  0.00    -0.340 OA
ATOM     25  HO  UNL     1     -24.155 -20.704  17.633  1.00  0.00     0.216 HD
ENDBRANCH  23  24
BRANCH  23  26
HETATM   26  O   UNL     1     -25.207 -21.266  14.922  1.00  0.00    -0.340 OA
ATOM     27  HO  UNL     1     -26.033 -21.621  14.613  1.00  0.00     0.216 HD
ENDBRANCH  23  26
BRANCH  23  28
HETATM   28  O   UNL     1     -24.186 -19.577  15.859  1.00  0.00    -0.340 OA
ATOM     29  HO  UNL     1     -23.625 -20.020  16.486  1.00  0.00     0.216 HD
ENDBRANCH  23  28
ENDBRANCH  20  23
ENDBRANCH   2  17
BRANCH  15  30
HETATM   30  C   UNL     1     -33.248 -15.257  16.522  1.00  0.00     0.177 C 
HETATM   31  O   UNL     1     -32.831 -14.169  16.975  1.00  0.00    -0.648 OA
HETATM   32  O   UNL     1     -34.274 -15.422  15.812  1.00  0.00    -0.648 OA
ENDBRANCH  15  30
BRANCH  11  33
HETATM   33  N   UNL     1     -29.078 -17.902  23.087  1.00  0.00    -0.049 N 
ATOM     34  HN3 UNL     1     -29.770 -17.832  23.832  1.00  0.00     0.276 HD
ATOM     35  HN2 UNL     1     -28.549 -18.712  23.409  1.00  0.00     0.276 HD
ATOM     36  HN1 UNL     1     -28.483 -17.074  23.081  1.00  0.00     0.276 HD
ENDBRANCH  11  33
TORSDOF 7
ENDMDL
MODEL 9
REMARK VINA RESULT:      -6.6      3.470      4.850
REMARK  7 active torsions:
REMARK  status: ('A' for Active; 'I' for Inactive)
REMARK    1  A    between atoms: O_5  and  C_7 
REMARK    2  A    between atoms: C_7  and  O_9 
REMARK    3  A    between atoms: C_7  and  C_23 
REMARK    4  A    between atoms: C_7  and  O_35 
REMARK    5  A    between atoms: C_11  and  C_27 
REMARK    6  A    between atoms: N_16  and  C_26 
REMARK    7  A    between atoms: C_24  and  C_33 
ROOT
HETATM    1  C   UNL     1     -31.342 -17.365  18.835  1.00  0.00     0.053 C 
HETATM    2  C   UNL     1     -30.728 -17.601  17.479  1.00  0.00    -0.062 C 
HETATM    3  C   UNL     1     -32.292 -16.171  18.687  1.00  0.00     0.012 C 
HETATM    4  N   UNL     1     -29.984 -15.218  21.425  1.00  0.00    -0.038 N 
ATOM      5  HN1 UNL     1     -30.341 -14.502  22.056  1.00  0.00     0.280 HD
ATOM      6  HN2 UNL     1     -29.485 -14.623  20.763  1.00  0.00     0.280 HD
HETATM    7  N   UNL     1     -29.649 -17.950  20.716  1.00  0.00    -0.065 N 
ATOM      8  HN1 UNL     1     -30.208 -18.403  21.438  1.00  0.00     0.277 HD
ATOM      9  HN2 UNL     1     -29.400 -18.799  20.209  1.00  0.00     0.277 HD
HETATM   10  C   UNL     1     -31.092 -15.935  20.759  1.00  0.00     0.220 C 
HETATM   11  C   UNL     1     -29.065 -16.112  22.117  1.00  0.00     0.406 C 
HETATM   12  C   UNL     1     -28.483 -17.205  21.242  1.00  0.00     0.294 C 
HETATM   13  C   UNL     1     -31.844 -15.115  19.688  1.00  0.00     0.041 C 
HETATM   14  C   UNL     1     -30.386 -16.993  19.924  1.00  0.00     0.225 C 
HETATM   15  C   UNL     1     -32.548 -16.095  17.209  1.00  0.00     0.095 C 
HETATM   16  C   UNL     1     -31.556 -16.912  16.410  1.00  0.00     0.051 C 
ENDROOT
BRANCH   2  17
HETATM   17  C   UNL     1     -29.576 -18.545  17.357  1.00  0.00    -0.033 C 
HETATM   18  C   UNL     1     -28.427 -18.166  16.680  1.00  0.00     0.012 C 
HETATM   19  C   UNL     1     -27.392 -19.068  16.475  1.00  0.00     0.016 C 
HETATM   20  C   UNL     1     -27.454 -20.324  17.044  1.00  0.00     0.033 C 
HETATM   21  C   UNL     1     -28.642 -20.747  17.639  1.00  0.00     0.016 C 
HETATM   22  C   UNL     1     -29.653 -19.826  17.873  1.00  0.00     0.012 C 
BRANCH  20  23
HETATM   23  C   UNL     1     -26.186 -21.211  17.083  1.00  0.00     0.307 C 
BRANCH  23  24
HETATM   24  O   UNL     1     -25.806 -21.404  18.439  1.00  0.00    -0.340 OA
ATOM     25  HO  UNL     1     -25.913 -22.280  18.790  1.00  0.00     0.216 HD
ENDBRANCH  23  24
BRANCH  23  26
HETATM   26  O   UNL     1     -26.340 -22.324  16.334  1.00  0.00    -0.340 OA
ATOM     27  HO  UNL     1     -25.978 -23.128  16.688  1.00  0.00     0.216 HD
ENDBRANCH  23  26
BRANCH  23  28
HETATM   28  O   UNL     1     -25.043 -20.595  16.652  1.00  0.00    -0.340 OA
ATOM     29  HO  UNL     1     -24.424 -21.075  17.191  1.00  0.00     0.216 HD
ENDBRANCH  23  28
ENDBRANCH  20  23
ENDBRANCH   2  17
BRANCH  15  30
HETATM   30  C   UNL     1     -33.325 -14.949  16.616  1.00  0.00     0.177 C 
HETATM   31  O   UNL     1     -32.988 -14.582  15.470  1.00  0.00    -0.648 OA
HETATM   32  O   UNL     1     -34.304 -14.513  17.278  1.00  0.00    -0.648 OA
ENDBRANCH  15  30
BRANCH  11  33
HETATM   33  N   UNL     1     -28.173 -15.486  22.991  1.00  0.00    -0.049 N 
ATOM     34  HN3 UNL     1     -28.279 -15.865  23.931  1.00  0.00     0.276 HD
ATOM     35  HN2 UNL     1     -27.217 -15.779  22.787  1.00  0.00     0.276 HD
ATOM     36  HN1 UNL     1     -28.230 -14.468  23.013  1.00  0.00     0.276 HD
ENDBRANCH  11  33
TORSDOF 7
ENDMDL
