REMARK  3 active torsions:
REMARK  status: ('A' for Active; 'I' for Inactive)
REMARK    1  A    between atoms: C_6  and  C_18 
REMARK    2  A    between atoms: C_7  and  C_18 
REMARK    3  A    between atoms: C_10  and  C_14 
ROOT
HETATM    1  C   UNL     1     -26.055 -16.067  15.533  1.00  0.00     0.037 C 
HETATM    2  C   UNL     1     -24.344 -21.692  15.364  1.00  0.00     0.177 C 
HETATM    3  C   UNL     1     -28.324 -19.899  16.568  1.00  0.00    -0.041 C 
HETATM    4  C   UNL     1     -25.012 -17.115  15.251  1.00  0.00    -0.044 C 
HETATM    5  C   UNL     1     -23.685 -17.046  16.012  1.00  0.00     0.156 C 
HETATM    6  C   UNL     1     -25.140 -18.180  14.356  1.00  0.00    -0.042 C 
HETATM    7  C   UNL     1     -27.810 -17.457  16.696  1.00  0.00     0.005 C 
HETATM    8  C   UNL     1     -25.472 -22.245  16.232  1.00  0.00     0.074 C 
HETATM    9  C   UNL     1     -23.663 -19.528  15.765  1.00  0.00     0.189 C 
HETATM   10  C   UNL     1     -28.642 -20.831  17.545  1.00  0.00     0.095 C 
HETATM   11  C   UNL     1     -26.750 -21.521  16.560  1.00  0.00     0.048 C 
HETATM   12  C   UNL     1     -27.489 -16.590  15.473  1.00  0.00     0.005 C 
HETATM   13  C   UNL     1     -22.649 -16.325  15.135  1.00  0.00     0.045 C 
HETATM   14  C   UNL     1     -27.216 -20.388  15.921  1.00  0.00     0.038 C 
HETATM   15  C   UNL     1     -28.861 -18.519  16.312  1.00  0.00     0.040 C 
HETATM   16  O   UNL     1     -23.213 -18.360  16.395  1.00  0.00    -0.321 OA
HETATM   17  N   UNL     1     -27.686 -21.818  17.524  1.00  0.00    -0.365 N 
ATOM     18  HN  UNL     1     -27.672 -22.640  18.127  1.00  0.00     0.165 HD
HETATM   19  O   UNL     1     -23.527 -20.861  16.189  1.00  0.00    -0.319 OA
HETATM   20  C   UNL     1     -24.873 -20.807  14.229  1.00  0.00     0.082 C 
HETATM   21  C   UNL     1     -24.576 -19.422  14.729  1.00  0.00     0.009 C 
ENDROOT
BRANCH   6  22
HETATM   22  C   UNL     1     -25.892 -17.974  13.044  1.00  0.00     0.039 C 
BRANCH  22  23
HETATM   23  C   UNL     1     -25.050 -17.416  11.887  1.00  0.00     0.000 C 
HETATM   24  C   UNL     1     -25.635 -17.894  10.556  1.00  0.00     0.005 C 
ENDBRANCH  22  23
ENDBRANCH   6  22
BRANCH   8  25
HETATM   25  C   UNL     1     -24.841 -23.071  17.305  1.00  0.00     0.210 C 
HETATM   26  O   UNL     1     -24.908 -22.752  18.507  1.00  0.00    -0.644 OA
HETATM   27  O   UNL     1     -24.172 -24.049  16.855  1.00  0.00    -0.644 OA
ENDBRANCH   8  25
TORSDOF 3
