MODEL 1
REMARK VINA RESULT:      -8.0      0.000      0.000
REMARK  3 active torsions:
REMARK  status: ('A' for Active; 'I' for Inactive)
REMARK    1  A    between atoms: O_5  and  C_24 
REMARK    2  A    between atoms: C_7  and  N_8 
REMARK    3  A    between atoms: C_12  and  O_28 
ROOT
HETATM    1  C   UNL     1     -34.702 -19.276 -10.287  1.00  0.00     0.038 C 
HETATM    2  C   UNL     1     -36.459 -18.348 -12.230  1.00  0.00     0.018 C 
HETATM    3  N   UNL     1     -37.825 -18.316 -14.319  1.00  0.00    -0.350 N 
ATOM      4  HN  UNL     1     -38.088 -19.300 -14.261  1.00  0.00     0.166 HD
HETATM    5  C   UNL     1     -37.622 -15.546 -14.367  1.00  0.00     0.130 C 
HETATM    6  N   UNL     1     -38.130 -16.195 -15.417  1.00  0.00    -0.337 N 
ATOM      7  HN  UNL     1     -38.426 -15.700 -16.258  1.00  0.00     0.168 HD
HETATM    8  C   UNL     1     -35.538 -20.157 -10.983  1.00  0.00     0.072 C 
HETATM    9  C   UNL     1     -36.613 -19.660 -11.732  1.00  0.00    -0.015 C 
HETATM   10  C   UNL     1     -34.905 -17.896 -10.406  1.00  0.00     0.023 C 
HETATM   11  C   UNL     1     -36.902 -16.328 -13.415  1.00  0.00     0.077 C 
HETATM   12  C   UNL     1     -37.854 -20.484 -11.863  1.00  0.00     0.052 C 
HETATM   13  S   UNL     1     -35.929 -15.830 -12.056  1.00  0.00    -0.083 SA
HETATM   14  C   UNL     1     -35.636 -17.459 -11.519  1.00  0.00     0.019 C 
HETATM   15  C   UNL     1     -37.044 -17.726 -13.394  1.00  0.00     0.066 C 
HETATM   16  C   UNL     1     -38.233 -17.529 -15.314  1.00  0.00     0.182 C 
ENDROOT
BRANCH   5  17
HETATM   17  N   UNL     1     -37.848 -14.163 -14.196  1.00  0.00    -0.302 N 
HETATM   18  C   UNL     1     -37.089 -13.240 -15.070  1.00  0.00     0.138 C 
HETATM   19  C   UNL     1     -37.942 -12.275 -15.915  1.00  0.00     0.006 C 
HETATM   20  C   UNL     1     -39.313 -12.776 -16.354  1.00  0.00     0.007 C 
HETATM   21  C   UNL     1     -37.990 -10.872 -15.293  1.00  0.00     0.038 C 
HETATM   22  C   UNL     1     -40.354 -13.019 -15.276  1.00  0.00     0.014 C 
HETATM   23  C   UNL     1     -39.990 -12.842 -13.810  1.00  0.00     0.081 C 
HETATM   24  C   UNL     1     -39.683 -11.410 -13.355  1.00  0.00     0.045 C 
HETATM   25  C   UNL     1     -38.840 -13.708 -13.329  1.00  0.00     0.229 C 
HETATM   26  C   UNL     1     -39.129 -10.436 -14.385  1.00  0.00     0.119 C 
HETATM   27  O   UNL     1     -38.783 -13.940 -12.143  1.00  0.00    -0.273 OA
BRANCH  26  28
HETATM   28  O   UNL     1     -40.192  -9.850 -15.123  1.00  0.00    -0.396 OA
ATOM     29  HO  UNL     1     -41.013 -10.274 -14.903  1.00  0.00     0.210 HD
ENDBRANCH  26  28
ENDBRANCH   5  17
BRANCH   8  30
HETATM   30  O   UNL     1     -35.157 -21.449 -11.132  1.00  0.00    -0.360 OA
ATOM     31  HO  UNL     1     -35.788 -22.082 -11.455  1.00  0.00     0.217 HD
ENDBRANCH   8  30
TORSDOF 3
ENDMDL
MODEL 2
REMARK VINA RESULT:      -7.9      1.923      2.494
REMARK  3 active torsions:
REMARK  status: ('A' for Active; 'I' for Inactive)
REMARK    1  A    between atoms: O_5  and  C_24 
REMARK    2  A    between atoms: C_7  and  N_8 
REMARK    3  A    between atoms: C_12  and  O_28 
ROOT
HETATM    1  C   UNL     1     -32.818 -15.772  -9.089  1.00  0.00     0.038 C 
HETATM    2  C   UNL     1     -34.787 -16.452 -10.929  1.00  0.00     0.018 C 
HETATM    3  N   UNL     1     -36.051 -17.806 -12.602  1.00  0.00    -0.350 N 
ATOM      4  HN  UNL     1     -35.917 -18.691 -12.112  1.00  0.00     0.166 HD
HETATM    5  C   UNL     1     -36.924 -15.453 -13.793  1.00  0.00     0.130 C 
HETATM    6  N   UNL     1     -37.140 -16.624 -14.396  1.00  0.00    -0.337 N 
ATOM      7  HN  UNL     1     -37.599 -16.680 -15.305  1.00  0.00     0.168 HD
HETATM    8  C   UNL     1     -33.249 -17.096  -9.227  1.00  0.00     0.072 C 
HETATM    9  C   UNL     1     -34.429 -17.380  -9.927  1.00  0.00    -0.015 C 
HETATM   10  C   UNL     1     -33.534 -14.746  -9.719  1.00  0.00     0.023 C 
HETATM   11  C   UNL     1     -35.964 -15.441 -12.738  1.00  0.00     0.077 C 
HETATM   12  C   UNL     1     -35.259 -18.554  -9.512  1.00  0.00     0.052 C 
HETATM   13  S   UNL     1     -35.263 -14.099 -11.871  1.00  0.00    -0.083 SA
HETATM   14  C   UNL     1     -34.371 -15.119 -10.779  1.00  0.00     0.019 C 
HETATM   15  C   UNL     1     -35.560 -16.643 -12.133  1.00  0.00     0.066 C 
HETATM   16  C   UNL     1     -36.724 -17.725 -13.750  1.00  0.00     0.182 C 
ENDROOT
BRANCH   5  17
HETATM   17  N   UNL     1     -37.664 -14.308 -14.159  1.00  0.00    -0.302 N 
HETATM   18  C   UNL     1     -37.195 -13.548 -15.340  1.00  0.00     0.138 C 
HETATM   19  C   UNL     1     -38.231 -13.369 -16.467  1.00  0.00     0.006 C 
HETATM   20  C   UNL     1     -39.254 -14.484 -16.642  1.00  0.00     0.007 C 
HETATM   21  C   UNL     1     -38.870 -11.973 -16.429  1.00  0.00     0.038 C 
HETATM   22  C   UNL     1     -40.258 -14.703 -15.525  1.00  0.00     0.014 C 
HETATM   23  C   UNL     1     -40.172 -13.880 -14.249  1.00  0.00     0.081 C 
HETATM   24  C   UNL     1     -40.474 -12.383 -14.386  1.00  0.00     0.045 C 
HETATM   25  C   UNL     1     -38.854 -13.992 -13.505  1.00  0.00     0.229 C 
HETATM   26  C   UNL     1     -40.194 -11.716 -15.725  1.00  0.00     0.119 C 
HETATM   27  O   UNL     1     -38.864 -13.736 -12.323  1.00  0.00    -0.273 OA
BRANCH  26  28
HETATM   28  O   UNL     1     -41.296 -11.901 -16.602  1.00  0.00    -0.396 OA
ATOM     29  HO  UNL     1     -41.060 -12.499 -17.301  1.00  0.00     0.210 HD
ENDBRANCH  26  28
ENDBRANCH   5  17
BRANCH   8  30
HETATM   30  O   UNL     1     -32.402 -18.103  -8.903  1.00  0.00    -0.360 OA
ATOM     31  HO  UNL     1     -32.760 -18.950  -8.667  1.00  0.00     0.217 HD
ENDBRANCH   8  30
TORSDOF 3
ENDMDL
MODEL 3
REMARK VINA RESULT:      -7.6      2.558      3.888
REMARK  3 active torsions:
REMARK  status: ('A' for Active; 'I' for Inactive)
REMARK    1  A    between atoms: O_5  and  C_24 
REMARK    2  A    between atoms: C_7  and  N_8 
REMARK    3  A    between atoms: C_12  and  O_28 
ROOT
HETATM    1  C   UNL     1     -35.228 -19.835  -9.902  1.00  0.00     0.038 C 
HETATM    2  C   UNL     1     -34.970 -17.203 -10.755  1.00  0.00     0.018 C 
HETATM    3  N   UNL     1     -34.787 -14.716 -10.633  1.00  0.00    -0.350 N 
ATOM      4  HN  UNL     1     -34.202 -14.717  -9.797  1.00  0.00     0.166 HD
HETATM    5  C   UNL     1     -35.939 -14.544 -13.155  1.00  0.00     0.130 C 
HETATM    6  N   UNL     1     -35.763 -13.440 -12.426  1.00  0.00    -0.337 N 
ATOM      7  HN  UNL     1     -36.067 -12.525 -12.761  1.00  0.00     0.168 HD
HETATM    8  C   UNL     1     -34.544 -18.891  -9.129  1.00  0.00     0.072 C 
HETATM    9  C   UNL     1     -34.165 -17.665  -9.692  1.00  0.00    -0.015 C 
HETATM   10  C   UNL     1     -35.593 -19.515 -11.216  1.00  0.00     0.023 C 
HETATM   11  C   UNL     1     -35.836 -15.790 -12.468  1.00  0.00     0.077 C 
HETATM   12  C   UNL     1     -32.913 -16.999  -9.215  1.00  0.00     0.052 C 
HETATM   13  S   UNL     1     -36.204 -17.407 -13.010  1.00  0.00    -0.083 SA
HETATM   14  C   UNL     1     -35.639 -18.153 -11.543  1.00  0.00     0.019 C 
HETATM   15  C   UNL     1     -35.223 -15.855 -11.206  1.00  0.00     0.066 C 
HETATM   16  C   UNL     1     -35.169 -13.589 -11.232  1.00  0.00     0.182 C 
ENDROOT
BRANCH   5  17
HETATM   17  N   UNL     1     -36.157 -14.461 -14.547  1.00  0.00    -0.302 N 
HETATM   18  C   UNL     1     -37.285 -15.242 -15.104  1.00  0.00     0.138 C 
HETATM   19  C   UNL     1     -38.334 -14.427 -15.885  1.00  0.00     0.006 C 
HETATM   20  C   UNL     1     -38.558 -12.988 -15.436  1.00  0.00     0.007 C 
HETATM   21  C   UNL     1     -38.131 -14.554 -17.402  1.00  0.00     0.038 C 
HETATM   22  C   UNL     1     -37.415 -12.006 -15.616  1.00  0.00     0.014 C 
HETATM   23  C   UNL     1     -36.074 -12.485 -16.151  1.00  0.00     0.081 C 
HETATM   24  C   UNL     1     -36.054 -12.956 -17.609  1.00  0.00     0.045 C 
HETATM   25  C   UNL     1     -35.415 -13.579 -15.330  1.00  0.00     0.229 C 
HETATM   26  C   UNL     1     -37.338 -13.527 -18.194  1.00  0.00     0.119 C 
HETATM   27  O   UNL     1     -34.215 -13.696 -15.431  1.00  0.00    -0.273 OA
BRANCH  26  28
HETATM   28  O   UNL     1     -38.169 -12.476 -18.667  1.00  0.00    -0.396 OA
ATOM     29  HO  UNL     1     -37.655 -11.859 -19.175  1.00  0.00     0.210 HD
ENDBRANCH  26  28
ENDBRANCH   5  17
BRANCH   8  30
HETATM   30  O   UNL     1     -34.475 -19.062  -7.786  1.00  0.00    -0.360 OA
ATOM     31  HO  UNL     1     -33.624 -19.169  -7.377  1.00  0.00     0.217 HD
ENDBRANCH   8  30
TORSDOF 3
ENDMDL
MODEL 4
REMARK VINA RESULT:      -7.6      1.329      2.027
REMARK  3 active torsions:
REMARK  status: ('A' for Active; 'I' for Inactive)
REMARK    1  A    between atoms: O_5  and  C_24 
REMARK    2  A    between atoms: C_7  and  N_8 
REMARK    3  A    between atoms: C_12  and  O_28 
ROOT
HETATM    1  C   UNL     1     -35.111 -18.851 -10.664  1.00  0.00     0.038 C 
HETATM    2  C   UNL     1     -36.844 -18.433 -12.795  1.00  0.00     0.018 C 
HETATM    3  N   UNL     1     -38.081 -18.869 -14.920  1.00  0.00    -0.350 N 
ATOM      4  HN  UNL     1     -38.234 -19.859 -14.725  1.00  0.00     0.166 HD
HETATM    5  C   UNL     1     -38.187 -16.131 -15.378  1.00  0.00     0.130 C 
HETATM    6  N   UNL     1     -38.557 -16.982 -16.338  1.00  0.00    -0.337 N 
ATOM      7  HN  UNL     1     -38.857 -16.654 -17.256  1.00  0.00     0.168 HD
HETATM    8  C   UNL     1     -35.800 -19.918 -11.253  1.00  0.00     0.072 C 
HETATM    9  C   UNL     1     -36.878 -19.667 -12.111  1.00  0.00    -0.015 C 
HETATM   10  C   UNL     1     -35.461 -17.537 -10.998  1.00  0.00     0.023 C 
HETATM   11  C   UNL     1     -37.441 -16.675 -14.290  1.00  0.00     0.077 C 
HETATM   12  C   UNL     1     -38.010 -20.645 -12.167  1.00  0.00     0.052 C 
HETATM   13  S   UNL     1     -36.612 -15.871 -12.982  1.00  0.00    -0.083 SA
HETATM   14  C   UNL     1     -36.170 -17.358 -12.194  1.00  0.00     0.019 C 
HETATM   15  C   UNL     1     -37.427 -18.062 -14.063  1.00  0.00     0.066 C 
HETATM   16  C   UNL     1     -38.515 -18.290 -16.039  1.00  0.00     0.182 C 
ENDROOT
BRANCH   5  17
HETATM   17  N   UNL     1     -38.578 -14.776 -15.428  1.00  0.00    -0.302 N 
HETATM   18  C   UNL     1     -40.021 -14.481 -15.272  1.00  0.00     0.138 C 
HETATM   19  C   UNL     1     -40.381 -13.522 -14.121  1.00  0.00     0.006 C 
HETATM   20  C   UNL     1     -39.478 -13.553 -12.894  1.00  0.00     0.007 C 
HETATM   21  C   UNL     1     -40.641 -12.098 -14.634  1.00  0.00     0.038 C 
HETATM   22  C   UNL     1     -38.044 -13.085 -13.059  1.00  0.00     0.014 C 
HETATM   23  C   UNL     1     -37.526 -12.682 -14.432  1.00  0.00     0.081 C 
HETATM   24  C   UNL     1     -38.135 -11.413 -15.040  1.00  0.00     0.045 C 
HETATM   25  C   UNL     1     -37.622 -13.763 -15.492  1.00  0.00     0.229 C 
HETATM   26  C   UNL     1     -39.554 -11.035 -14.637  1.00  0.00     0.119 C 
HETATM   27  O   UNL     1     -36.870 -13.678 -16.436  1.00  0.00    -0.273 OA
BRANCH  26  28
HETATM   28  O   UNL     1     -39.535 -10.303 -13.420  1.00  0.00    -0.396 OA
ATOM     29  HO  UNL     1     -40.071 -10.739 -12.768  1.00  0.00     0.210 HD
ENDBRANCH  26  28
ENDBRANCH   5  17
BRANCH   8  30
HETATM   30  O   UNL     1     -35.269 -21.163 -11.189  1.00  0.00    -0.360 OA
ATOM     31  HO  UNL     1     -34.339 -21.260 -11.022  1.00  0.00     0.217 HD
ENDBRANCH   8  30
TORSDOF 3
ENDMDL
MODEL 5
REMARK VINA RESULT:      -7.4      4.006      5.838
REMARK  3 active torsions:
REMARK  status: ('A' for Active; 'I' for Inactive)
REMARK    1  A    between atoms: O_5  and  C_24 
REMARK    2  A    between atoms: C_7  and  N_8 
REMARK    3  A    between atoms: C_12  and  O_28 
ROOT
HETATM    1  C   UNL     1     -32.234 -14.365  -6.208  1.00  0.00     0.038 C 
HETATM    2  C   UNL     1     -33.625 -16.271  -7.677  1.00  0.00     0.018 C 
HETATM    3  N   UNL     1     -34.434 -18.513  -8.420  1.00  0.00    -0.350 N 
ATOM      4  HN  UNL     1     -34.507 -18.892  -7.475  1.00  0.00     0.166 HD
HETATM    5  C   UNL     1     -34.768 -17.502 -10.986  1.00  0.00     0.130 C 
HETATM    6  N   UNL     1     -34.876 -18.814 -10.768  1.00  0.00    -0.337 N 
ATOM      7  HN  UNL     1     -35.054 -19.470 -11.529  1.00  0.00     0.168 HD
HETATM    8  C   UNL     1     -32.693 -15.544  -5.609  1.00  0.00     0.072 C 
HETATM    9  C   UNL     1     -33.634 -16.345  -6.267  1.00  0.00    -0.015 C 
HETATM   10  C   UNL     1     -32.668 -14.035  -7.498  1.00  0.00     0.023 C 
HETATM   11  C   UNL     1     -34.157 -16.727  -9.955  1.00  0.00     0.077 C 
HETATM   12  C   UNL     1     -34.625 -17.122  -5.459  1.00  0.00     0.052 C 
HETATM   13  S   UNL     1     -33.651 -15.058  -9.953  1.00  0.00    -0.083 SA
HETATM   14  C   UNL     1     -33.184 -15.080  -8.277  1.00  0.00     0.019 C 
HETATM   15  C   UNL     1     -34.026 -17.252  -8.658  1.00  0.00     0.066 C 
HETATM   16  C   UNL     1     -34.738 -19.232  -9.499  1.00  0.00     0.182 C 
ENDROOT
BRANCH   5  17
HETATM   17  N   UNL     1     -35.293 -16.922 -12.160  1.00  0.00    -0.302 N 
HETATM   18  C   UNL     1     -36.762 -16.971 -12.342  1.00  0.00     0.138 C 
HETATM   19  C   UNL     1     -37.451 -15.607 -12.537  1.00  0.00     0.006 C 
HETATM   20  C   UNL     1     -36.814 -14.410 -11.842  1.00  0.00     0.007 C 
HETATM   21  C   UNL     1     -37.765 -15.341 -14.016  1.00  0.00     0.038 C 
HETATM   22  C   UNL     1     -35.439 -13.970 -12.311  1.00  0.00     0.014 C 
HETATM   23  C   UNL     1     -34.708 -14.766 -13.382  1.00  0.00     0.081 C 
HETATM   24  C   UNL     1     -35.324 -14.740 -14.785  1.00  0.00     0.045 C 
HETATM   25  C   UNL     1     -34.466 -16.224 -13.039  1.00  0.00     0.229 C 
HETATM   26  C   UNL     1     -36.828 -14.536 -14.903  1.00  0.00     0.119 C 
HETATM   27  O   UNL     1     -33.555 -16.781 -13.610  1.00  0.00    -0.273 OA
BRANCH  26  28
HETATM   28  O   UNL     1     -37.137 -13.150 -14.868  1.00  0.00    -0.396 OA
ATOM     29  HO  UNL     1     -36.790 -12.720 -15.642  1.00  0.00     0.210 HD
ENDBRANCH  26  28
ENDBRANCH   5  17
BRANCH   8  30
HETATM   30  O   UNL     1     -32.044 -16.027  -4.522  1.00  0.00    -0.360 OA
ATOM     31  HO  UNL     1     -31.131 -15.802  -4.391  1.00  0.00     0.217 HD
ENDBRANCH   8  30
TORSDOF 3
ENDMDL
MODEL 6
REMARK VINA RESULT:      -7.3      1.551      2.294
REMARK  3 active torsions:
REMARK  status: ('A' for Active; 'I' for Inactive)
REMARK    1  A    between atoms: O_5  and  C_24 
REMARK    2  A    between atoms: C_7  and  N_8 
REMARK    3  A    between atoms: C_12  and  O_28 
ROOT
HETATM    1  C   UNL     1     -33.797 -16.868  -9.989  1.00  0.00     0.038 C 
HETATM    2  C   UNL     1     -35.845 -17.321 -11.812  1.00  0.00     0.018 C 
HETATM    3  N   UNL     1     -37.307 -18.542 -13.426  1.00  0.00    -0.350 N 
ATOM      4  HN  UNL     1     -37.320 -19.408 -12.887  1.00  0.00     0.166 HD
HETATM    5  C   UNL     1     -37.783 -16.147 -14.751  1.00  0.00     0.130 C 
HETATM    6  N   UNL     1     -38.185 -17.299 -15.293  1.00  0.00    -0.337 N 
ATOM      7  HN  UNL     1     -38.644 -17.330 -16.203  1.00  0.00     0.168 HD
HETATM    8  C   UNL     1     -34.437 -18.111 -10.061  1.00  0.00     0.072 C 
HETATM    9  C   UNL     1     -35.645 -18.238 -10.759  1.00  0.00    -0.015 C 
HETATM   10  C   UNL     1     -34.335 -15.776 -10.681  1.00  0.00     0.023 C 
HETATM   11  C   UNL     1     -36.837 -16.233 -13.687  1.00  0.00     0.077 C 
HETATM   12  C   UNL     1     -36.656 -19.237 -10.291  1.00  0.00     0.052 C 
HETATM   13  S   UNL     1     -35.930 -14.977 -12.885  1.00  0.00    -0.083 SA
HETATM   14  C   UNL     1     -35.219 -16.067 -11.729  1.00  0.00     0.019 C 
HETATM   15  C   UNL     1     -36.636 -17.450 -13.014  1.00  0.00     0.066 C 
HETATM   16  C   UNL     1     -37.955 -18.416 -14.584  1.00  0.00     0.182 C 
ENDROOT
BRANCH   5  17
HETATM   17  N   UNL     1     -38.326 -14.919 -15.186  1.00  0.00    -0.302 N 
HETATM   18  C   UNL     1     -39.803 -14.806 -15.221  1.00  0.00     0.138 C 
HETATM   19  C   UNL     1     -40.399 -13.651 -14.395  1.00  0.00     0.006 C 
HETATM   20  C   UNL     1     -39.638 -13.241 -13.139  1.00  0.00     0.007 C 
HETATM   21  C   UNL     1     -40.771 -12.455 -15.283  1.00  0.00     0.038 C 
HETATM   22  C   UNL     1     -38.262 -12.627 -13.316  1.00  0.00     0.014 C 
HETATM   23  C   UNL     1     -37.650 -12.512 -14.704  1.00  0.00     0.081 C 
HETATM   24  C   UNL     1     -38.337 -11.540 -15.670  1.00  0.00     0.045 C 
HETATM   25  C   UNL     1     -37.498 -13.828 -15.445  1.00  0.00     0.229 C 
HETATM   26  C   UNL     1     -39.826 -11.282 -15.487  1.00  0.00     0.119 C 
HETATM   27  O   UNL     1     -36.664 -13.875 -16.320  1.00  0.00    -0.273 OA
BRANCH  26  28
HETATM   28  O   UNL     1     -40.029 -10.271 -14.509  1.00  0.00    -0.396 OA
ATOM     29  HO  UNL     1     -39.248  -9.735 -14.428  1.00  0.00     0.210 HD
ENDBRANCH  26  28
ENDBRANCH   5  17
BRANCH   8  30
HETATM   30  O   UNL     1     -33.766 -19.222  -9.674  1.00  0.00    -0.360 OA
ATOM     31  HO  UNL     1     -34.256 -20.005  -9.453  1.00  0.00     0.217 HD
ENDBRANCH   8  30
TORSDOF 3
ENDMDL
MODEL 7
REMARK VINA RESULT:      -7.3      3.464      4.955
REMARK  3 active torsions:
REMARK  status: ('A' for Active; 'I' for Inactive)
REMARK    1  A    between atoms: O_5  and  C_24 
REMARK    2  A    between atoms: C_7  and  N_8 
REMARK    3  A    between atoms: C_12  and  O_28 
ROOT
HETATM    1  C   UNL     1     -33.233 -17.122  -8.610  1.00  0.00     0.038 C 
HETATM    2  C   UNL     1     -33.967 -14.821  -9.984  1.00  0.00     0.018 C 
HETATM    3  N   UNL     1     -34.752 -12.483 -10.371  1.00  0.00    -0.350 N 
ATOM      4  HN  UNL     1     -34.244 -12.092  -9.578  1.00  0.00     0.166 HD
HETATM    5  C   UNL     1     -35.787 -13.276 -12.825  1.00  0.00     0.130 C 
HETATM    6  N   UNL     1     -36.074 -12.065 -12.340  1.00  0.00    -0.337 N 
ATOM      7  HN  UNL     1     -36.691 -11.423 -12.838  1.00  0.00     0.168 HD
HETATM    8  C   UNL     1     -32.991 -15.853  -8.072  1.00  0.00     0.072 C 
HETATM    9  C   UNL     1     -33.087 -14.717  -8.885  1.00  0.00    -0.015 C 
HETATM   10  C   UNL     1     -33.643 -17.237  -9.944  1.00  0.00     0.023 C 
HETATM   11  C   UNL     1     -35.242 -14.222 -11.907  1.00  0.00     0.077 C 
HETATM   12  C   UNL     1     -32.203 -13.542  -8.606  1.00  0.00     0.052 C 
HETATM   13  S   UNL     1     -34.945 -15.931 -12.097  1.00  0.00    -0.083 SA
HETATM   14  C   UNL     1     -34.193 -16.092 -10.535  1.00  0.00     0.019 C 
HETATM   15  C   UNL     1     -34.699 -13.792 -10.684  1.00  0.00     0.066 C 
HETATM   16  C   UNL     1     -35.513 -11.732 -11.167  1.00  0.00     0.182 C 
ENDROOT
BRANCH   5  17
HETATM   17  N   UNL     1     -35.968 -13.565 -14.194  1.00  0.00    -0.302 N 
HETATM   18  C   UNL     1     -37.001 -14.566 -14.545  1.00  0.00     0.138 C 
HETATM   19  C   UNL     1     -38.095 -14.078 -15.514  1.00  0.00     0.006 C 
HETATM   20  C   UNL     1     -38.465 -12.601 -15.443  1.00  0.00     0.007 C 
HETATM   21  C   UNL     1     -37.835 -14.560 -16.948  1.00  0.00     0.038 C 
HETATM   22  C   UNL     1     -37.413 -11.589 -15.856  1.00  0.00     0.014 C 
HETATM   23  C   UNL     1     -36.017 -12.053 -16.243  1.00  0.00     0.081 C 
HETATM   24  C   UNL     1     -35.908 -12.870 -17.536  1.00  0.00     0.045 C 
HETATM   25  C   UNL     1     -35.286 -12.838 -15.169  1.00  0.00     0.229 C 
HETATM   26  C   UNL     1     -37.115 -13.691 -17.968  1.00  0.00     0.119 C 
HETATM   27  O   UNL     1     -34.078 -12.859 -15.228  1.00  0.00    -0.273 OA
BRANCH  26  28
HETATM   28  O   UNL     1     -38.023 -12.877 -18.695  1.00  0.00    -0.396 OA
ATOM     29  HO  UNL     1     -37.889 -11.962 -18.475  1.00  0.00     0.210 HD
ENDBRANCH  26  28
ENDBRANCH   5  17
BRANCH   8  30
HETATM   30  O   UNL     1     -32.912 -15.711  -6.727  1.00  0.00    -0.360 OA
ATOM     31  HO  UNL     1     -32.134 -16.014  -6.274  1.00  0.00     0.217 HD
ENDBRANCH   8  30
TORSDOF 3
ENDMDL
MODEL 8
REMARK VINA RESULT:      -7.1      3.218      8.070
REMARK  3 active torsions:
REMARK  status: ('A' for Active; 'I' for Inactive)
REMARK    1  A    between atoms: O_5  and  C_24 
REMARK    2  A    between atoms: C_7  and  N_8 
REMARK    3  A    between atoms: C_12  and  O_28 
ROOT
HETATM    1  C   UNL     1     -36.052 -11.721 -18.462  1.00  0.00     0.038 C 
HETATM    2  C   UNL     1     -35.903 -11.479 -15.698  1.00  0.00     0.018 C 
HETATM    3  N   UNL     1     -35.396 -10.484 -13.465  1.00  0.00    -0.350 N 
ATOM      4  HN  UNL     1     -35.645  -9.533 -13.739  1.00  0.00     0.166 HD
HETATM    5  C   UNL     1     -35.153 -13.047 -12.419  1.00  0.00     0.130 C 
HETATM    6  N   UNL     1     -34.787 -11.992 -11.688  1.00  0.00    -0.337 N 
ATOM      7  HN  UNL     1     -34.391 -12.100 -10.754  1.00  0.00     0.168 HD
HETATM    8  C   UNL     1     -36.173 -10.473 -17.840  1.00  0.00     0.072 C 
HETATM    9  C   UNL     1     -36.394 -10.396 -16.459  1.00  0.00    -0.015 C 
HETATM   10  C   UNL     1     -36.080 -12.884 -17.683  1.00  0.00     0.023 C 
HETATM   11  C   UNL     1     -35.334 -12.828 -13.818  1.00  0.00     0.077 C 
HETATM   12  C   UNL     1     -37.200  -9.261 -15.911  1.00  0.00     0.052 C 
HETATM   13  S   UNL     1     -35.593 -13.970 -15.110  1.00  0.00    -0.083 SA
HETATM   14  C   UNL     1     -35.802 -12.735 -16.318  1.00  0.00     0.019 C 
HETATM   15  C   UNL     1     -35.482 -11.523 -14.318  1.00  0.00     0.066 C 
HETATM   16  C   UNL     1     -34.963 -10.780 -12.240  1.00  0.00     0.182 C 
ENDROOT
BRANCH   5  17
HETATM   17  N   UNL     1     -35.402 -14.294 -11.808  1.00  0.00    -0.302 N 
HETATM   18  C   UNL     1     -36.712 -14.931 -12.078  1.00  0.00     0.138 C 
HETATM   19  C   UNL     1     -36.648 -16.348 -12.681  1.00  0.00     0.006 C 
HETATM   20  C   UNL     1     -35.456 -16.659 -13.578  1.00  0.00     0.007 C 
HETATM   21  C   UNL     1     -36.891 -17.426 -11.615  1.00  0.00     0.038 C 
HETATM   22  C   UNL     1     -34.080 -16.688 -12.939  1.00  0.00     0.014 C 
HETATM   23  C   UNL     1     -33.913 -16.332 -11.469  1.00  0.00     0.081 C 
HETATM   24  C   UNL     1     -34.531 -17.308 -10.462  1.00  0.00     0.045 C 
HETATM   25  C   UNL     1     -34.401 -14.946 -11.090  1.00  0.00     0.229 C 
HETATM   26  C   UNL     1     -35.742 -18.119 -10.901  1.00  0.00     0.119 C 
HETATM   27  O   UNL     1     -33.927 -14.448 -10.094  1.00  0.00    -0.273 OA
BRANCH  26  28
HETATM   28  O   UNL     1     -35.321 -19.285 -11.595  1.00  0.00    -0.396 OA
ATOM     29  HO  UNL     1     -35.963 -19.978 -11.487  1.00  0.00     0.210 HD
ENDBRANCH  26  28
ENDBRANCH   5  17
BRANCH   8  30
HETATM   30  O   UNL     1     -35.828  -9.357 -18.527  1.00  0.00    -0.360 OA
ATOM     31  HO  UNL     1     -34.908  -9.162 -18.661  1.00  0.00     0.217 HD
ENDBRANCH   8  30
TORSDOF 3
ENDMDL
MODEL 9
REMARK VINA RESULT:      -7.1      2.759      4.141
REMARK  3 active torsions:
REMARK  status: ('A' for Active; 'I' for Inactive)
REMARK    1  A    between atoms: O_5  and  C_24 
REMARK    2  A    between atoms: C_7  and  N_8 
REMARK    3  A    between atoms: C_12  and  O_28 
ROOT
HETATM    1  C   UNL     1     -38.515 -19.238 -14.610  1.00  0.00     0.038 C 
HETATM    2  C   UNL     1     -36.972 -17.084 -13.774  1.00  0.00     0.018 C 
HETATM    3  N   UNL     1     -35.547 -15.669 -12.291  1.00  0.00    -0.350 N 
ATOM      4  HN  UNL     1     -35.027 -16.455 -11.900  1.00  0.00     0.166 HD
HETATM    5  C   UNL     1     -36.505 -13.407 -13.590  1.00  0.00     0.130 C 
HETATM    6  N   UNL     1     -35.776 -13.279 -12.479  1.00  0.00    -0.337 N 
ATOM      7  HN  UNL     1     -35.579 -12.364 -12.072  1.00  0.00     0.168 HD
HETATM    8  C   UNL     1     -37.430 -19.422 -13.746  1.00  0.00     0.072 C 
HETATM    9  C   UNL     1     -36.492 -18.396 -13.571  1.00  0.00    -0.015 C 
HETATM   10  C   UNL     1     -38.695 -17.999 -15.237  1.00  0.00     0.023 C 
HETATM   11  C   UNL     1     -37.035 -14.703 -13.864  1.00  0.00     0.077 C 
HETATM   12  C   UNL     1     -35.066 -18.751 -13.292  1.00  0.00     0.052 C 
HETATM   13  S   UNL     1     -38.186 -15.215 -15.071  1.00  0.00    -0.083 SA
HETATM   14  C   UNL     1     -38.048 -16.900 -14.657  1.00  0.00     0.019 C 
HETATM   15  C   UNL     1     -36.514 -15.835 -13.214  1.00  0.00     0.066 C 
HETATM   16  C   UNL     1     -35.315 -14.410 -11.921  1.00  0.00     0.182 C 
ENDROOT
BRANCH   5  17
HETATM   17  N   UNL     1     -36.679 -12.316 -14.467  1.00  0.00    -0.302 N 
HETATM   18  C   UNL     1     -37.816 -11.405 -14.198  1.00  0.00     0.138 C 
HETATM   19  C   UNL     1     -37.445  -9.922 -14.002  1.00  0.00     0.006 C 
HETATM   20  C   UNL     1     -36.080  -9.631 -13.390  1.00  0.00     0.007 C 
HETATM   21  C   UNL     1     -37.718  -9.101 -15.270  1.00  0.00     0.038 C 
HETATM   22  C   UNL     1     -34.850 -10.005 -14.196  1.00  0.00     0.014 C 
HETATM   23  C   UNL     1     -35.000 -10.722 -15.529  1.00  0.00     0.081 C 
HETATM   24  C   UNL     1     -35.643  -9.917 -16.664  1.00  0.00     0.045 C 
HETATM   25  C   UNL     1     -35.740 -12.046 -15.461  1.00  0.00     0.229 C 
HETATM   26  C   UNL     1     -36.628  -8.817 -16.292  1.00  0.00     0.119 C 
HETATM   27  O   UNL     1     -35.526 -12.843 -16.346  1.00  0.00    -0.273 OA
BRANCH  26  28
HETATM   28  O   UNL     1     -35.929  -7.617 -15.992  1.00  0.00    -0.396 OA
ATOM     29  HO  UNL     1     -35.880  -7.496 -15.051  1.00  0.00     0.210 HD
ENDBRANCH  26  28
ENDBRANCH   5  17
BRANCH   8  30
HETATM   30  O   UNL     1     -37.430 -20.482 -12.903  1.00  0.00    -0.360 OA
ATOM     31  HO  UNL     1     -37.677 -21.337 -13.235  1.00  0.00     0.217 HD
ENDBRANCH   8  30
TORSDOF 3
ENDMDL
