MODEL 1
REMARK VINA RESULT:      -4.3      0.000      0.000
REMARK  1 active torsions:
REMARK  status: ('A' for Active; 'I' for Inactive)
REMARK    1  A    between atoms: O_3  and  C_5 
ROOT
HETATM    1  C   UNL     1      -4.710 -13.961  15.497  1.00  0.00    -0.012 C 
HETATM    2  C   UNL     1      -5.802 -13.778  14.419  1.00  0.00     0.005 C 
HETATM    3  C   UNL     1      -6.180 -14.728  17.262  1.00  0.00     0.122 C 
HETATM    4  C   UNL     1      -6.846 -14.825  14.829  1.00  0.00     0.007 C 
HETATM    5  C   UNL     1      -5.295 -13.524  16.860  1.00  0.00     0.036 C 
HETATM    6  C   UNL     1      -6.191 -15.590  15.988  1.00  0.00     0.015 C 
HETATM    7  C   UNL     1      -4.700 -15.490  15.650  1.00  0.00     0.012 C 
ENDROOT
BRANCH   3   8
HETATM    8  O   UNL     1      -7.451 -14.256  17.675  1.00  0.00    -0.395 OA
ATOM      9  HO  UNL     1      -7.377 -13.348  17.943  1.00  0.00     0.210 HD
ENDBRANCH   3   8
TORSDOF 1
ENDMDL
MODEL 2
REMARK VINA RESULT:      -4.0      1.093      2.265
REMARK  1 active torsions:
REMARK  status: ('A' for Active; 'I' for Inactive)
REMARK    1  A    between atoms: O_3  and  C_5 
ROOT
HETATM    1  C   UNL     1      -5.324 -14.784  15.260  1.00  0.00    -0.012 C 
HETATM    2  C   UNL     1      -4.441 -15.805  16.013  1.00  0.00     0.005 C 
HETATM    3  C   UNL     1      -7.229 -14.904  16.749  1.00  0.00     0.122 C 
HETATM    4  C   UNL     1      -4.925 -15.651  17.461  1.00  0.00     0.007 C 
HETATM    5  C   UNL     1      -6.788 -15.276  15.313  1.00  0.00     0.036 C 
HETATM    6  C   UNL     1      -5.911 -14.475  17.417  1.00  0.00     0.015 C 
HETATM    7  C   UNL     1      -5.358 -13.624  16.267  1.00  0.00     0.012 C 
ENDROOT
BRANCH   3   8
HETATM    8  O   UNL     1      -7.865 -16.020  17.347  1.00  0.00    -0.395 OA
ATOM      9  HO  UNL     1      -8.652 -16.231  16.860  1.00  0.00     0.210 HD
ENDBRANCH   3   8
TORSDOF 1
ENDMDL
MODEL 3
REMARK VINA RESULT:      -4.0      1.225      2.103
REMARK  1 active torsions:
REMARK  status: ('A' for Active; 'I' for Inactive)
REMARK    1  A    between atoms: O_3  and  C_5 
ROOT
HETATM    1  C   UNL     1      -5.700 -15.002  17.055  1.00  0.00    -0.012 C 
HETATM    2  C   UNL     1      -5.054 -13.633  16.745  1.00  0.00     0.005 C 
HETATM    3  C   UNL     1      -7.506 -14.834  15.452  1.00  0.00     0.122 C 
HETATM    4  C   UNL     1      -5.419 -13.426  15.269  1.00  0.00     0.007 C 
HETATM    5  C   UNL     1      -7.236 -14.844  16.975  1.00  0.00     0.036 C 
HETATM    6  C   UNL     1      -6.094 -14.740  14.849  1.00  0.00     0.015 C 
HETATM    7  C   UNL     1      -5.408 -15.768  15.756  1.00  0.00     0.012 C 
ENDROOT
BRANCH   3   8
HETATM    8  O   UNL     1      -8.363 -13.750  15.136  1.00  0.00    -0.395 OA
ATOM      9  HO  UNL     1      -8.469 -13.698  14.194  1.00  0.00     0.210 HD
ENDBRANCH   3   8
TORSDOF 1
ENDMDL
MODEL 4
REMARK VINA RESULT:      -3.9      1.648      2.280
REMARK  1 active torsions:
REMARK  status: ('A' for Active; 'I' for Inactive)
REMARK    1  A    between atoms: O_3  and  C_5 
ROOT
HETATM    1  C   UNL     1      -4.422 -14.727  15.680  1.00  0.00    -0.012 C 
HETATM    2  C   UNL     1      -5.023 -13.638  16.597  1.00  0.00     0.005 C 
HETATM    3  C   UNL     1      -4.930 -16.614  17.110  1.00  0.00     0.122 C 
HETATM    4  C   UNL     1      -6.130 -14.404  17.333  1.00  0.00     0.007 C 
HETATM    5  C   UNL     1      -3.737 -15.789  16.571  1.00  0.00     0.036 C 
HETATM    6  C   UNL     1      -6.150 -15.788  16.669  1.00  0.00     0.015 C 
HETATM    7  C   UNL     1      -5.690 -15.475  15.241  1.00  0.00     0.012 C 
ENDROOT
BRANCH   3   8
HETATM    8  O   UNL     1      -4.792 -16.774  18.512  1.00  0.00    -0.395 OA
ATOM      9  HO  UNL     1      -3.946 -16.440  18.784  1.00  0.00     0.210 HD
ENDBRANCH   3   8
TORSDOF 1
ENDMDL
MODEL 5
REMARK VINA RESULT:      -3.9      1.238      1.673
REMARK  1 active torsions:
REMARK  status: ('A' for Active; 'I' for Inactive)
REMARK    1  A    between atoms: O_3  and  C_5 
ROOT
HETATM    1  C   UNL     1      -6.466 -14.230  15.061  1.00  0.00    -0.012 C 
HETATM    2  C   UNL     1      -7.884 -14.493  15.616  1.00  0.00     0.005 C 
HETATM    3  C   UNL     1      -5.255 -14.877  17.054  1.00  0.00     0.122 C 
HETATM    4  C   UNL     1      -7.633 -15.613  16.635  1.00  0.00     0.007 C 
HETATM    5  C   UNL     1      -5.601 -13.636  16.197  1.00  0.00     0.036 C 
HETATM    6  C   UNL     1      -6.151 -15.974  16.456  1.00  0.00     0.015 C 
HETATM    7  C   UNL     1      -5.912 -15.660  14.975  1.00  0.00     0.012 C 
ENDROOT
BRANCH   3   8
HETATM    8  O   UNL     1      -5.500 -14.584  18.420  1.00  0.00    -0.395 OA
ATOM      9  HO  UNL     1      -4.685 -14.646  18.904  1.00  0.00     0.210 HD
ENDBRANCH   3   8
TORSDOF 1
ENDMDL
MODEL 6
REMARK VINA RESULT:      -3.8      1.462      2.330
REMARK  1 active torsions:
REMARK  status: ('A' for Active; 'I' for Inactive)
REMARK    1  A    between atoms: O_3  and  C_5 
ROOT
HETATM    1  C   UNL     1      -4.606 -13.900  16.097  1.00  0.00    -0.012 C 
HETATM    2  C   UNL     1      -3.903 -15.276  16.093  1.00  0.00     0.005 C 
HETATM    3  C   UNL     1      -6.779 -14.689  15.380  1.00  0.00     0.122 C 
HETATM    4  C   UNL     1      -5.061 -16.236  16.393  1.00  0.00     0.007 C 
HETATM    5  C   UNL     1      -5.576 -13.846  14.895  1.00  0.00     0.036 C 
HETATM    6  C   UNL     1      -6.258 -15.320  16.683  1.00  0.00     0.015 C 
HETATM    7  C   UNL     1      -5.586 -14.073  17.268  1.00  0.00     0.012 C 
ENDROOT
BRANCH   3   8
HETATM    8  O   UNL     1      -7.138 -15.617  14.370  1.00  0.00    -0.395 OA
ATOM      9  HO  UNL     1      -6.504 -15.571  13.663  1.00  0.00     0.210 HD
ENDBRANCH   3   8
TORSDOF 1
ENDMDL
MODEL 7
REMARK VINA RESULT:      -3.7      3.422      4.508
REMARK  1 active torsions:
REMARK  status: ('A' for Active; 'I' for Inactive)
REMARK    1  A    between atoms: O_3  and  C_5 
ROOT
HETATM    1  C   UNL     1      -9.582 -15.928  17.613  1.00  0.00    -0.012 C 
HETATM    2  C   UNL     1     -10.494 -16.777  16.699  1.00  0.00     0.005 C 
HETATM    3  C   UNL     1      -8.355 -14.824  15.842  1.00  0.00     0.122 C 
HETATM    4  C   UNL     1     -10.600 -15.905  15.441  1.00  0.00     0.007 C 
HETATM    5  C   UNL     1      -8.176 -15.864  16.973  1.00  0.00     0.036 C 
HETATM    6  C   UNL     1      -9.877 -14.603  15.811  1.00  0.00     0.015 C 
HETATM    7  C   UNL     1     -10.109 -14.514  17.323  1.00  0.00     0.012 C 
ENDROOT
BRANCH   3   8
HETATM    8  O   UNL     1      -7.801 -15.337  14.643  1.00  0.00    -0.395 OA
ATOM      9  HO  UNL     1      -7.376 -16.167  14.824  1.00  0.00     0.210 HD
ENDBRANCH   3   8
TORSDOF 1
ENDMDL
MODEL 8
REMARK VINA RESULT:      -3.7      3.028      4.028
REMARK  1 active torsions:
REMARK  status: ('A' for Active; 'I' for Inactive)
REMARK    1  A    between atoms: O_3  and  C_5 
ROOT
HETATM    1  C   UNL     1      -9.724 -15.528  15.456  1.00  0.00    -0.012 C 
HETATM    2  C   UNL     1     -10.395 -14.174  15.782  1.00  0.00     0.005 C 
HETATM    3  C   UNL     1      -8.014 -15.417  17.166  1.00  0.00     0.122 C 
HETATM    4  C   UNL     1     -10.117 -14.025  17.284  1.00  0.00     0.007 C 
HETATM    5  C   UNL     1      -8.196 -15.367  15.630  1.00  0.00     0.036 C 
HETATM    6  C   UNL     1      -9.459 -15.352  17.689  1.00  0.00     0.015 C 
HETATM    7  C   UNL     1     -10.086 -16.346  16.705  1.00  0.00     0.012 C 
ENDROOT
BRANCH   3   8
HETATM    8  O   UNL     1      -7.183 -14.343  17.573  1.00  0.00    -0.395 OA
ATOM      9  HO  UNL     1      -7.199 -14.276  18.520  1.00  0.00     0.210 HD
ENDBRANCH   3   8
TORSDOF 1
ENDMDL
MODEL 9
REMARK VINA RESULT:      -3.7      6.306      7.206
REMARK  1 active torsions:
REMARK  status: ('A' for Active; 'I' for Inactive)
REMARK    1  A    between atoms: O_3  and  C_5 
ROOT
HETATM    1  C   UNL     1     -11.736 -18.002  15.111  1.00  0.00    -0.012 C 
HETATM    2  C   UNL     1     -13.230 -17.608  15.141  1.00  0.00     0.005 C 
HETATM    3  C   UNL     1     -11.316 -17.701  17.475  1.00  0.00     0.122 C 
HETATM    4  C   UNL     1     -13.647 -18.013  16.560  1.00  0.00     0.007 C 
HETATM    5  C   UNL     1     -10.972 -17.089  16.097  1.00  0.00     0.036 C 
HETATM    6  C   UNL     1     -12.415 -18.723  17.138  1.00  0.00     0.015 C 
HETATM    7  C   UNL     1     -11.765 -19.327  15.888  1.00  0.00     0.012 C 
ENDROOT
BRANCH   3   8
HETATM    8  O   UNL     1     -11.713 -16.667  18.360  1.00  0.00    -0.395 OA
ATOM      9  HO  UNL     1     -12.579 -16.860  18.699  1.00  0.00     0.210 HD
ENDBRANCH   3   8
TORSDOF 1
ENDMDL
