REMARK  1 active torsions:
REMARK  status: ('A' for Active; 'I' for Inactive)
REMARK    1  A    between atoms: C_5  and  C_7 
ROOT
HETATM    1  C   UNL     1     -56.626 -52.507 -32.759  1.00  0.00     0.007 A 
HETATM    2  C   UNL     1     -56.057 -51.926 -31.625  1.00  0.00    -0.049 A 
HETATM    3  C   UNL     1     -55.715 -50.467 -31.620  1.00  0.00     0.049 C 
HETATM    4  C   UNL     1     -56.388 -54.689 -31.773  1.00  0.00     0.001 A 
HETATM    5  C   UNL     1     -55.597 -52.748 -30.593  1.00  0.00     0.007 A 
HETATM    6  C   UNL     1     -55.757 -54.129 -30.677  1.00  0.00     0.015 A 
HETATM    7  C   UNL     1     -56.823 -53.878 -32.818  1.00  0.00     0.001 A 
ENDROOT
BRANCH   5   8
HETATM    8  C   UNL     1     -55.158 -52.123 -29.351  1.00  0.00     0.270 C 
HETATM    9  O   UNL     1     -55.556 -51.841 -28.332  1.00  0.00    -0.301 OA
ENDBRANCH   5   8
TORSDOF 1
