MODEL 1
REMARK VINA RESULT:      -5.9      0.000      0.000
REMARK  2 active torsions:
REMARK  status: ('A' for Active; 'I' for Inactive)
REMARK    1  A    between atoms: C_3  and  N_6 
REMARK       I    between atoms: C_4  and  N_6 
REMARK    2  A    between atoms: C_8  and  O_12 
ROOT
HETATM    1  C   UNL     1     -17.401  14.708  42.881  1.00  0.00     0.088 C 
HETATM    2  C   UNL     1     -14.128  11.954  40.977  1.00  0.00     0.074 C 
HETATM    3  C   UNL     1     -18.120  12.785  41.672  1.00  0.00     0.015 C 
HETATM    4  C   UNL     1     -16.427  11.267  40.842  1.00  0.00     0.052 C 
HETATM    5  C   UNL     1     -15.084  10.974  40.655  1.00  0.00     0.093 C 
HETATM    6  N   UNL     1     -16.127  14.278  42.915  1.00  0.00    -0.365 N 
ATOM      7  HN  UNL     1     -15.432  14.741  43.500  1.00  0.00     0.165 HD
HETATM    8  C   UNL     1     -15.795  13.210  42.149  1.00  0.00     0.044 C 
HETATM    9  C   UNL     1     -18.435  13.971  42.315  1.00  0.00     0.018 C 
HETATM   10  C   UNL     1     -16.792  12.366  41.616  1.00  0.00    -0.007 C 
HETATM   11  C   UNL     1     -14.444  12.872  41.973  1.00  0.00     0.063 C 
ENDROOT
BRANCH   2  12
HETATM   12  N   UNL     1     -12.991  12.098  40.164  1.00  0.00    -0.294 N 
HETATM   13  C   UNL     1     -11.763  11.338  40.404  1.00  0.00     0.163 C 
HETATM   14  C   UNL     1     -13.051  12.982  39.069  1.00  0.00     0.290 C 
HETATM   15  O   UNL     1     -14.088  13.008  38.370  1.00  0.00    -0.629 OA
HETATM   16  O   UNL     1     -12.025  13.671  38.834  1.00  0.00    -0.629 OA
ENDBRANCH   2  12
BRANCH   5  17
HETATM   17  O   UNL     1     -14.693   9.784  40.178  1.00  0.00    -0.358 OA
ATOM     18  HO  UNL     1     -15.275   9.034  40.230  1.00  0.00     0.217 HD
ENDBRANCH   5  17
TORSDOF 2
ENDMDL
MODEL 2
REMARK VINA RESULT:      -5.9      2.796      4.015
REMARK  2 active torsions:
REMARK  status: ('A' for Active; 'I' for Inactive)
REMARK    1  A    between atoms: C_3  and  N_6 
REMARK       I    between atoms: C_4  and  N_6 
REMARK    2  A    between atoms: C_8  and  O_12 
ROOT
HETATM    1  C   UNL     1     -15.583  10.770  40.097  1.00  0.00     0.088 C 
HETATM    2  C   UNL     1     -12.350  14.131  39.679  1.00  0.00     0.074 C 
HETATM    3  C   UNL     1     -15.661  12.596  41.626  1.00  0.00     0.015 C 
HETATM    4  C   UNL     1     -14.103  14.419  41.298  1.00  0.00     0.052 C 
HETATM    5  C   UNL     1     -13.022  14.947  40.608  1.00  0.00     0.093 C 
HETATM    6  N   UNL     1     -14.717  11.410  39.292  1.00  0.00    -0.365 N 
ATOM      7  HN  UNL     1     -14.493  11.046  38.366  1.00  0.00     0.165 HD
HETATM    8  C   UNL     1     -14.150  12.554  39.747  1.00  0.00     0.044 C 
HETATM    9  C   UNL     1     -16.117  11.344  41.245  1.00  0.00     0.018 C 
HETATM   10  C   UNL     1     -14.695  13.238  40.855  1.00  0.00    -0.007 C 
HETATM   11  C   UNL     1     -13.076  13.127  39.047  1.00  0.00     0.063 C 
ENDROOT
BRANCH   2  12
HETATM   12  N   UNL     1     -10.952  14.223  39.568  1.00  0.00    -0.294 N 
HETATM   13  C   UNL     1     -10.305  15.195  38.685  1.00  0.00     0.163 C 
HETATM   14  C   UNL     1     -10.155  13.369  40.354  1.00  0.00     0.290 C 
HETATM   15  O   UNL     1     -10.481  13.163  41.544  1.00  0.00    -0.629 OA
HETATM   16  O   UNL     1      -9.124  12.890  39.814  1.00  0.00    -0.629 OA
ENDBRANCH   2  12
BRANCH   5  17
HETATM   17  O   UNL     1     -12.615  16.207  40.814  1.00  0.00    -0.358 OA
ATOM     18  HO  UNL     1     -12.416  16.507  41.694  1.00  0.00     0.217 HD
ENDBRANCH   5  17
TORSDOF 2
ENDMDL
MODEL 3
REMARK VINA RESULT:      -5.9      3.187      5.297
REMARK  2 active torsions:
REMARK  status: ('A' for Active; 'I' for Inactive)
REMARK    1  A    between atoms: C_3  and  N_6 
REMARK       I    between atoms: C_4  and  N_6 
REMARK    2  A    between atoms: C_8  and  O_12 
ROOT
HETATM    1  C   UNL     1     -13.002  13.976  40.314  1.00  0.00     0.088 C 
HETATM    2  C   UNL     1     -17.233  14.097  42.315  1.00  0.00     0.074 C 
HETATM    3  C   UNL     1     -14.200  11.928  40.525  1.00  0.00     0.015 C 
HETATM    4  C   UNL     1     -16.457  12.017  41.394  1.00  0.00     0.052 C 
HETATM    5  C   UNL     1     -17.486  12.762  41.951  1.00  0.00     0.093 C 
HETATM    6  N   UNL     1     -14.091  14.708  40.610  1.00  0.00    -0.365 N 
ATOM      7  HN  UNL     1     -14.093  15.720  40.489  1.00  0.00     0.165 HD
HETATM    8  C   UNL     1     -15.187  14.059  41.073  1.00  0.00     0.044 C 
HETATM    9  C   UNL     1     -13.024  12.591  40.213  1.00  0.00     0.018 C 
HETATM   10  C   UNL     1     -15.316  12.661  40.922  1.00  0.00    -0.007 C 
HETATM   11  C   UNL     1     -16.257  14.792  41.609  1.00  0.00     0.063 C 
ENDROOT
BRANCH   2  12
HETATM   12  N   UNL     1     -17.817  14.613  43.484  1.00  0.00    -0.294 N 
HETATM   13  C   UNL     1     -19.110  15.300  43.469  1.00  0.00     0.163 C 
HETATM   14  C   UNL     1     -17.147  14.436  44.709  1.00  0.00     0.290 C 
HETATM   15  O   UNL     1     -16.605  13.333  44.948  1.00  0.00    -0.629 OA
HETATM   16  O   UNL     1     -17.170  15.398  45.519  1.00  0.00    -0.629 OA
ENDBRANCH   2  12
BRANCH   5  17
HETATM   17  O   UNL     1     -18.702  12.231  42.143  1.00  0.00    -0.358 OA
ATOM     18  HO  UNL     1     -19.481  12.744  41.962  1.00  0.00     0.217 HD
ENDBRANCH   5  17
TORSDOF 2
ENDMDL
MODEL 4
REMARK VINA RESULT:      -5.8      1.135      1.553
REMARK  2 active torsions:
REMARK  status: ('A' for Active; 'I' for Inactive)
REMARK    1  A    between atoms: C_3  and  N_6 
REMARK       I    between atoms: C_4  and  N_6 
REMARK    2  A    between atoms: C_8  and  O_12 
ROOT
HETATM    1  C   UNL     1     -17.451  14.915  42.928  1.00  0.00     0.088 C 
HETATM    2  C   UNL     1     -14.249  12.161  40.908  1.00  0.00     0.074 C 
HETATM    3  C   UNL     1     -18.208  12.958  41.800  1.00  0.00     0.015 C 
HETATM    4  C   UNL     1     -16.542  11.443  40.912  1.00  0.00     0.052 C 
HETATM    5  C   UNL     1     -15.208  11.162  40.659  1.00  0.00     0.093 C 
HETATM    6  N   UNL     1     -16.171  14.502  42.903  1.00  0.00    -0.365 N 
ATOM      7  HN  UNL     1     -15.452  14.986  43.439  1.00  0.00     0.165 HD
HETATM    8  C   UNL     1     -15.867  13.422  42.142  1.00  0.00     0.044 C 
HETATM    9  C   UNL     1     -18.504  14.154  42.434  1.00  0.00     0.018 C 
HETATM   10  C   UNL     1     -16.880  12.554  41.681  1.00  0.00    -0.007 C 
HETATM   11  C   UNL     1     -14.523  13.096  41.901  1.00  0.00     0.063 C 
ENDROOT
BRANCH   2  12
HETATM   12  N   UNL     1     -13.159  12.301  40.032  1.00  0.00    -0.294 N 
HETATM   13  C   UNL     1     -13.248  13.086  38.800  1.00  0.00     0.163 C 
HETATM   14  C   UNL     1     -11.938  11.688  40.372  1.00  0.00     0.290 C 
HETATM   15  O   UNL     1     -11.546  11.736  41.559  1.00  0.00    -0.629 OA
HETATM   16  O   UNL     1     -11.284  11.157  39.436  1.00  0.00    -0.629 OA
ENDBRANCH   2  12
BRANCH   5  17
HETATM   17  O   UNL     1     -14.827   9.967  40.186  1.00  0.00    -0.358 OA
ATOM     18  HO  UNL     1     -14.756   9.826  39.249  1.00  0.00     0.217 HD
ENDBRANCH   5  17
TORSDOF 2
ENDMDL
MODEL 5
REMARK VINA RESULT:      -5.8      3.154      4.851
REMARK  2 active torsions:
REMARK  status: ('A' for Active; 'I' for Inactive)
REMARK    1  A    between atoms: C_3  and  N_6 
REMARK       I    between atoms: C_4  and  N_6 
REMARK    2  A    between atoms: C_8  and  O_12 
ROOT
HETATM    1  C   UNL     1     -15.271  11.775  39.422  1.00  0.00     0.088 C 
HETATM    2  C   UNL     1     -16.530  14.577  42.956  1.00  0.00     0.074 C 
HETATM    3  C   UNL     1     -16.331  10.787  41.313  1.00  0.00     0.015 C 
HETATM    4  C   UNL     1     -17.142  12.255  43.058  1.00  0.00     0.052 C 
HETATM    5  C   UNL     1     -17.245  13.537  43.578  1.00  0.00     0.093 C 
HETATM    6  N   UNL     1     -15.607  13.017  39.815  1.00  0.00    -0.365 N 
ATOM      7  HN  UNL     1     -15.481  13.817  39.194  1.00  0.00     0.165 HD
HETATM    8  C   UNL     1     -16.118  13.175  41.060  1.00  0.00     0.044 C 
HETATM    9  C   UNL     1     -15.654  10.633  40.114  1.00  0.00     0.018 C 
HETATM   10  C   UNL     1     -16.609  12.068  41.784  1.00  0.00    -0.007 C 
HETATM   11  C   UNL     1     -16.265  14.465  41.595  1.00  0.00     0.063 C 
ENDROOT
BRANCH   2  12
HETATM   12  N   UNL     1     -15.945  15.579  43.749  1.00  0.00    -0.294 N 
HETATM   13  C   UNL     1     -16.728  16.681  44.310  1.00  0.00     0.163 C 
HETATM   14  C   UNL     1     -14.569  15.498  44.032  1.00  0.00     0.290 C 
HETATM   15  O   UNL     1     -14.072  14.384  44.310  1.00  0.00    -0.629 OA
HETATM   16  O   UNL     1     -13.919  16.576  44.030  1.00  0.00    -0.629 OA
ENDBRANCH   2  12
BRANCH   5  17
HETATM   17  O   UNL     1     -18.006  13.792  44.651  1.00  0.00    -0.358 OA
ATOM     18  HO  UNL     1     -18.836  14.243  44.551  1.00  0.00     0.217 HD
ENDBRANCH   5  17
TORSDOF 2
ENDMDL
MODEL 6
REMARK VINA RESULT:      -5.6      1.859      2.449
REMARK  2 active torsions:
REMARK  status: ('A' for Active; 'I' for Inactive)
REMARK    1  A    between atoms: C_3  and  N_6 
REMARK       I    between atoms: C_4  and  N_6 
REMARK    2  A    between atoms: C_8  and  O_12 
ROOT
HETATM    1  C   UNL     1     -16.895  13.027  43.320  1.00  0.00     0.088 C 
HETATM    2  C   UNL     1     -12.735  12.849  41.179  1.00  0.00     0.074 C 
HETATM    3  C   UNL     1     -16.698  11.680  41.366  1.00  0.00     0.015 C 
HETATM    4  C   UNL     1     -14.507  11.446  40.363  1.00  0.00     0.052 C 
HETATM    5  C   UNL     1     -13.169  11.808  40.338  1.00  0.00     0.093 C 
HETATM    6  N   UNL     1     -15.561  13.158  43.431  1.00  0.00    -0.365 N 
ATOM      7  HN  UNL     1     -15.140  13.563  44.267  1.00  0.00     0.165 HD
HETATM    8  C   UNL     1     -14.792  12.735  42.398  1.00  0.00     0.044 C 
HETATM    9  C   UNL     1     -17.502  12.259  42.335  1.00  0.00     0.018 C 
HETATM   10  C   UNL     1     -15.320  11.878  41.409  1.00  0.00    -0.007 C 
HETATM   11  C   UNL     1     -13.426  13.059  42.367  1.00  0.00     0.063 C 
ENDROOT
BRANCH   2  12
HETATM   12  N   UNL     1     -11.766  13.752  40.710  1.00  0.00    -0.294 N 
HETATM   13  C   UNL     1     -12.070  15.164  40.471  1.00  0.00     0.163 C 
HETATM   14  C   UNL     1     -10.456  13.284  40.493  1.00  0.00     0.290 C 
HETATM   15  O   UNL     1      -9.948  12.499  41.326  1.00  0.00    -0.629 OA
HETATM   16  O   UNL     1      -9.851  13.723  39.481  1.00  0.00    -0.629 OA
ENDBRANCH   2  12
BRANCH   5  17
HETATM   17  O   UNL     1     -12.296  11.186  39.532  1.00  0.00    -0.358 OA
ATOM     18  HO  UNL     1     -12.255  11.411  38.609  1.00  0.00     0.217 HD
ENDBRANCH   5  17
TORSDOF 2
ENDMDL
MODEL 7
REMARK VINA RESULT:      -5.5      2.254      3.002
REMARK  2 active torsions:
REMARK  status: ('A' for Active; 'I' for Inactive)
REMARK    1  A    between atoms: C_3  and  N_6 
REMARK       I    between atoms: C_4  and  N_6 
REMARK    2  A    between atoms: C_8  and  O_12 
ROOT
HETATM    1  C   UNL     1     -15.401  14.999  42.230  1.00  0.00     0.088 C 
HETATM    2  C   UNL     1     -11.454  13.051  40.635  1.00  0.00     0.074 C 
HETATM    3  C   UNL     1     -15.563  13.466  40.413  1.00  0.00     0.015 C 
HETATM    4  C   UNL     1     -13.548  12.325  39.708  1.00  0.00     0.052 C 
HETATM    5  C   UNL     1     -12.176  12.159  39.822  1.00  0.00     0.093 C 
HETATM    6  N   UNL     1     -14.133  14.637  42.495  1.00  0.00    -0.365 N 
ATOM      7  HN  UNL     1     -13.665  14.947  43.346  1.00  0.00     0.165 HD
HETATM    8  C   UNL     1     -13.497  13.846  41.597  1.00  0.00     0.044 C 
HETATM    9  C   UNL     1     -16.167  14.406  41.233  1.00  0.00     0.018 C 
HETATM   10  C   UNL     1     -14.223  13.142  40.612  1.00  0.00    -0.007 C 
HETATM   11  C   UNL     1     -12.114  13.634  41.712  1.00  0.00     0.063 C 
ENDROOT
BRANCH   2  12
HETATM   12  N   UNL     1     -10.176  13.471  40.228  1.00  0.00    -0.294 N 
HETATM   13  C   UNL     1      -8.969  12.708  40.546  1.00  0.00     0.163 C 
HETATM   14  C   UNL     1     -10.064  14.650  39.466  1.00  0.00     0.290 C 
HETATM   15  O   UNL     1     -10.899  14.866  38.559  1.00  0.00    -0.629 OA
HETATM   16  O   UNL     1      -9.091  15.406  39.721  1.00  0.00    -0.629 OA
ENDBRANCH   2  12
BRANCH   5  17
HETATM   17  O   UNL     1     -11.540  11.172  39.176  1.00  0.00    -0.358 OA
ATOM     18  HO  UNL     1     -11.249  11.299  38.280  1.00  0.00     0.217 HD
ENDBRANCH   5  17
TORSDOF 2
ENDMDL
MODEL 8
REMARK VINA RESULT:      -5.5      3.610      5.549
REMARK  2 active torsions:
REMARK  status: ('A' for Active; 'I' for Inactive)
REMARK    1  A    between atoms: C_3  and  N_6 
REMARK       I    between atoms: C_4  and  N_6 
REMARK    2  A    between atoms: C_8  and  O_12 
ROOT
HETATM    1  C   UNL     1     -14.325  11.971  40.542  1.00  0.00     0.088 C 
HETATM    2  C   UNL     1     -10.571  14.722  41.054  1.00  0.00     0.074 C 
HETATM    3  C   UNL     1     -13.522  13.138  38.627  1.00  0.00     0.015 C 
HETATM    4  C   UNL     1     -11.479  14.417  38.849  1.00  0.00     0.052 C 
HETATM    5  C   UNL     1     -10.467  14.905  39.662  1.00  0.00     0.093 C 
HETATM    6  N   UNL     1     -13.208  12.239  41.242  1.00  0.00    -0.365 N 
ATOM      7  HN  UNL     1     -13.025  11.783  42.136  1.00  0.00     0.165 HD
HETATM    8  C   UNL     1     -12.332  13.134  40.724  1.00  0.00     0.044 C 
HETATM    9  C   UNL     1     -14.502  12.358  39.220  1.00  0.00     0.018 C 
HETATM   10  C   UNL     1     -12.398  13.505  39.364  1.00  0.00    -0.007 C 
HETATM   11  C   UNL     1     -11.278  13.617  41.516  1.00  0.00     0.063 C 
ENDROOT
BRANCH   2  12
HETATM   12  N   UNL     1     -10.139  15.744  41.916  1.00  0.00    -0.294 N 
HETATM   13  C   UNL     1     -11.058  16.751  42.450  1.00  0.00     0.163 C 
HETATM   14  C   UNL     1      -8.784  15.779  42.295  1.00  0.00     0.290 C 
HETATM   15  O   UNL     1      -8.206  14.705  42.577  1.00  0.00    -0.629 OA
HETATM   16  O   UNL     1      -8.239  16.911  42.370  1.00  0.00    -0.629 OA
ENDBRANCH   2  12
BRANCH   5  17
HETATM   17  O   UNL     1      -9.406  15.540  39.145  1.00  0.00    -0.358 OA
ATOM     18  HO  UNL     1      -9.178  15.421  38.230  1.00  0.00     0.217 HD
ENDBRANCH   5  17
TORSDOF 2
ENDMDL
MODEL 9
REMARK VINA RESULT:      -5.5      2.775      3.847
REMARK  2 active torsions:
REMARK  status: ('A' for Active; 'I' for Inactive)
REMARK    1  A    between atoms: C_3  and  N_6 
REMARK       I    between atoms: C_4  and  N_6 
REMARK    2  A    between atoms: C_8  and  O_12 
ROOT
HETATM    1  C   UNL     1     -16.888  12.763  41.175  1.00  0.00     0.088 C 
HETATM    2  C   UNL     1     -12.821  15.048  40.780  1.00  0.00     0.074 C 
HETATM    3  C   UNL     1     -16.780  15.006  41.972  1.00  0.00     0.015 C 
HETATM    4  C   UNL     1     -14.734  16.245  41.606  1.00  0.00     0.052 C 
HETATM    5  C   UNL     1     -13.421  16.263  41.160  1.00  0.00     0.093 C 
HETATM    6  N   UNL     1     -15.717  12.881  40.524  1.00  0.00    -0.365 N 
ATOM      7  HN  UNL     1     -15.405  12.163  39.870  1.00  0.00     0.165 HD
HETATM    8  C   UNL     1     -14.963  13.982  40.762  1.00  0.00     0.044 C 
HETATM    9  C   UNL     1     -17.478  13.813  41.868  1.00  0.00     0.018 C 
HETATM   10  C   UNL     1     -15.523  15.119  41.382  1.00  0.00    -0.007 C 
HETATM   11  C   UNL     1     -13.642  14.039  40.290  1.00  0.00     0.063 C 
ENDROOT
BRANCH   2  12
HETATM   12  N   UNL     1     -11.467  14.825  41.085  1.00  0.00    -0.294 N 
HETATM   13  C   UNL     1     -11.037  14.326  42.392  1.00  0.00     0.163 C 
HETATM   14  C   UNL     1     -10.502  15.065  40.089  1.00  0.00     0.290 C 
HETATM   15  O   UNL     1     -10.743  14.708  38.914  1.00  0.00    -0.629 OA
HETATM   16  O   UNL     1      -9.420  15.594  40.454  1.00  0.00    -0.629 OA
ENDBRANCH   2  12
BRANCH   5  17
HETATM   17  O   UNL     1     -12.727  17.408  41.088  1.00  0.00    -0.358 OA
ATOM     18  HO  UNL     1     -12.877  18.097  41.725  1.00  0.00     0.217 HD
ENDBRANCH   5  17
TORSDOF 2
ENDMDL
