REMARK  5 active torsions:
REMARK  status: ('A' for Active; 'I' for Inactive)
REMARK    1  A    between atoms: C_2  and  C_6 
REMARK    2  A    between atoms: O_3  and  C_7 
REMARK    3  A    between atoms: C_5  and  C_16 
REMARK    4  A    between atoms: C_6  and  C_16 
REMARK    5  A    between atoms: O_9  and  C_11 
ROOT
HETATM    1  C   UNL     1     -16.291  12.712  42.489  1.00  0.00     0.050 C 
HETATM    2  C   UNL     1     -15.285  11.985  41.824  1.00  0.00     0.111 C 
HETATM    3  C   UNL     1     -17.753  12.485  42.316  1.00  0.00     0.254 C 
HETATM    4  C   UNL     1     -15.397  10.864  40.960  1.00  0.00     0.100 C 
HETATM    5  O   UNL     1     -18.550  13.438  42.257  1.00  0.00    -0.268 OA
HETATM    6  C   UNL     1     -17.627  10.241  41.520  1.00  0.00     0.094 C 
HETATM    7  N   UNL     1     -18.223  11.230  42.225  1.00  0.00    -0.333 N 
ATOM      8  HN  UNL     1     -19.087  11.008  42.720  1.00  0.00     0.168 HD
HETATM    9  C   UNL     1     -16.608  10.278  40.646  1.00  0.00     0.056 C 
ENDROOT
BRANCH   1  10
HETATM   10  C   UNL     1     -15.826  13.764  43.484  1.00  0.00     0.033 C 
HETATM   11  C   UNL     1     -15.668  15.147  42.835  1.00  0.00     0.016 C 
BRANCH  10  12
HETATM   12  C   UNL     1     -16.534  13.772  44.825  1.00  0.00     0.122 C 
BRANCH  12  13
HETATM   13  C   UNL     1     -17.640  14.800  45.005  1.00  0.00     0.173 C 
HETATM   14  O   UNL     1     -17.276  16.019  45.097  1.00  0.00    -0.648 OA
HETATM   15  O   UNL     1     -18.817  14.434  44.991  1.00  0.00    -0.648 OA
ENDBRANCH  12  13
ENDBRANCH  10  12
ENDBRANCH   1  10
BRANCH   2  16
HETATM   16  O   UNL     1     -14.026  12.487  41.915  1.00  0.00    -0.357 OA
ATOM     17  HO  UNL     1     -13.347  11.997  41.466  1.00  0.00     0.217 HD
ENDBRANCH   2  16
BRANCH   4  18
HETATM   18  O   UNL     1     -14.282  10.142  40.753  1.00  0.00    -0.358 OA
ATOM     19  HO  UNL     1     -14.357   9.392  40.175  1.00  0.00     0.217 HD
ENDBRANCH   4  18
TORSDOF 5
