REMARK  4 active torsions:
REMARK  status: ('A' for Active; 'I' for Inactive)
REMARK    1  A    between atoms: O_7  and  C_10 
REMARK    2  A    between atoms: O_7  and  C_20 
REMARK    3  A    between atoms: C_20  and  C_35 
REMARK    4  A    between atoms: C_34  and  C_35 
ROOT
HETATM    1  C   UNL     1     -24.855  -9.945  -7.448  1.00  0.00     0.048 C 
HETATM    2  C   UNL     1     -28.498 -13.108  -4.986  1.00  0.00    -0.010 C 
HETATM    3  C   UNL     1     -31.198 -17.024  -0.829  1.00  0.00     0.001 C 
HETATM    4  C   UNL     1     -28.809 -13.983  -2.725  1.00  0.00     0.029 C 
HETATM    5  C   UNL     1     -30.132 -14.310  -3.091  1.00  0.00    -0.018 C 
HETATM    6  C   UNL     1     -32.978 -14.430  -3.676  1.00  0.00     0.163 C 
HETATM    7  C   UNL     1     -30.535 -15.854  -1.188  1.00  0.00     0.013 C 
HETATM    8  C   UNL     1     -31.002 -15.105  -2.265  1.00  0.00    -0.017 C 
HETATM    9  C   UNL     1     -32.910 -16.536  -2.434  1.00  0.00     0.011 C 
HETATM   10  C   UNL     1     -26.685 -12.636  -3.586  1.00  0.00     0.194 C 
HETATM   11  C   UNL     1     -30.648 -13.782  -4.277  1.00  0.00    -0.040 C 
HETATM   12  C   UNL     1     -29.768 -13.562  -5.339  1.00  0.00     0.021 C 
HETATM   13  C   UNL     1     -25.688 -10.855  -5.244  1.00  0.00     0.023 C 
HETATM   14  C   UNL     1     -25.967 -10.236  -6.470  1.00  0.00    -0.061 C 
HETATM   15  C   UNL     1     -32.336 -15.277  -2.630  1.00  0.00    -0.018 C 
HETATM   16  C   UNL     1     -28.179 -11.168  -6.571  1.00  0.00     0.014 C 
HETATM   17  C   UNL     1     -26.667 -11.695  -4.740  1.00  0.00     0.026 C 
HETATM   18  C   UNL     1     -32.314 -17.422  -1.547  1.00  0.00     0.001 C 
HETATM   19  C   UNL     1     -28.014 -13.341  -3.674  1.00  0.00     0.027 C 
HETATM   20  C   UNL     1     -32.516 -13.192  -5.822  1.00  0.00     0.018 C 
HETATM   21  C   UNL     1     -32.089 -13.430  -4.388  1.00  0.00     0.049 C 
HETATM   22  O   UNL     1     -25.892 -12.694  -2.674  1.00  0.00    -0.287 OA
HETATM   23  C   UNL     1     -27.815 -11.994  -5.519  1.00  0.00    -0.011 C 
HETATM   24  C   UNL     1     -27.269 -10.185  -6.946  1.00  0.00     0.007 C 
ENDROOT
BRANCH   6  25
HETATM   25  O   UNL     1     -34.023 -13.639  -3.103  1.00  0.00    -0.380 OA
BRANCH  25  26
HETATM   26  C   UNL     1     -34.951 -13.798  -4.178  1.00  0.00     0.170 C 
BRANCH  26  27
HETATM   27  C   UNL     1     -36.049 -12.766  -4.032  1.00  0.00     0.059 C 
BRANCH  27  28
HETATM   28  C   UNL     1     -37.449 -13.128  -4.382  1.00  0.00     0.188 C 
HETATM   29  C   UNL     1     -37.850 -13.792  -5.669  1.00  0.00     0.035 C 
HETATM   30  C   UNL     1     -39.374 -13.744  -5.636  1.00  0.00     0.034 C 
HETATM   31  C   UNL     1     -39.744 -12.631  -4.648  1.00  0.00     0.182 C 
HETATM   32  C   UNL     1     -40.253 -11.449  -5.493  1.00  0.00     0.040 C 
HETATM   33  N   UNL     1     -38.470 -12.157  -4.115  1.00  0.00    -0.067 N 
ATOM     34  HN2 UNL     1     -38.224 -11.232  -4.468  1.00  0.00     0.278 HD
ATOM     35  HN1 UNL     1     -38.530 -11.923  -3.124  1.00  0.00     0.278 HD
ENDBRANCH  27  28
ENDBRANCH  26  27
ENDBRANCH  25  26
ENDBRANCH   6  25
TORSDOF 4
