REMARK  7 active torsions:
REMARK  status: ('A' for Active; 'I' for Inactive)
REMARK    1  A    between atoms: O_1  and  C_3 
REMARK    2  A    between atoms: C_5  and  N_29 
REMARK    3  A    between atoms: O_10  and  C_28 
REMARK    4  A    between atoms: O_17  and  C_22 
REMARK    5  A    between atoms: C_21  and  C_23 
REMARK    6  A    between atoms: C_23  and  C_24 
REMARK    7  A    between atoms: C_23  and  N_29 
ROOT
HETATM    1  C   UNL     1     -27.695 -29.426 -73.127  1.00  0.00     0.056 C 
ENDROOT
BRANCH   1   2
HETATM    2  C   UNL     1     -26.459 -29.027 -73.696  1.00  0.00    -0.009 C 
HETATM    3  C   UNL     1     -25.312 -28.968 -72.904  1.00  0.00     0.014 C 
HETATM    4  C   UNL     1     -24.249 -28.180 -73.321  1.00  0.00     0.001 C 
HETATM    5  C   UNL     1     -24.300 -27.493 -74.530  1.00  0.00     0.000 C 
HETATM    6  C   UNL     1     -25.345 -27.735 -75.407  1.00  0.00     0.001 C 
HETATM    7  C   UNL     1     -26.395 -28.543 -74.999  1.00  0.00     0.014 C 
ENDBRANCH   1   2
BRANCH   1   8
HETATM    8  C   UNL     1     -28.539 -28.335 -72.759  1.00  0.00     0.027 C 
HETATM    9  C   UNL     1     -28.828 -28.183 -71.413  1.00  0.00     0.078 C 
HETATM   10  C   UNL     1     -29.815 -27.362 -70.932  1.00  0.00     0.037 C 
HETATM   11  C   UNL     1     -30.290 -26.221 -71.467  1.00  0.00     0.005 C 
HETATM   12  C   UNL     1     -29.836 -25.529 -72.555  1.00  0.00     0.036 C 
HETATM   13  C   UNL     1     -29.292 -26.104 -73.689  1.00  0.00     0.066 C 
HETATM   14  C   UNL     1     -28.919 -27.435 -73.744  1.00  0.00     0.053 C 
BRANCH   9  15
HETATM   15  O   UNL     1     -28.070 -28.863 -70.495  1.00  0.00    -0.360 OA
ATOM     16  HO  UNL     1     -27.386 -29.432 -70.828  1.00  0.00     0.217 HD
ENDBRANCH   9  15
BRANCH  13  17
HETATM   17  O   UNL     1     -29.186 -25.357 -74.822  1.00  0.00    -0.361 OA
ATOM     18  HO  UNL     1     -28.812 -25.752 -75.601  1.00  0.00     0.217 HD
ENDBRANCH  13  17
ENDBRANCH   1   8
BRANCH   1  19
HETATM   19  N   UNL     1     -27.962 -30.690 -72.628  1.00  0.00    -0.358 N 
ATOM     20  HN  UNL     1     -28.011 -30.776 -71.613  1.00  0.00     0.166 HD
BRANCH  19  21
HETATM   21  C   UNL     1     -28.170 -31.852 -73.355  1.00  0.00     0.010 C 
HETATM   22  C   UNL     1     -27.956 -31.923 -74.722  1.00  0.00     0.027 C 
HETATM   23  C   UNL     1     -28.415 -33.009 -75.461  1.00  0.00     0.035 C 
HETATM   24  C   UNL     1     -28.812 -34.183 -74.813  1.00  0.00     0.051 C 
HETATM   25  C   UNL     1     -29.222 -34.158 -73.348  1.00  0.00     0.006 C 
HETATM   26  C   UNL     1     -30.743 -34.028 -73.292  1.00  0.00     0.022 C 
HETATM   27  C   UNL     1     -28.587 -33.010 -72.632  1.00  0.00     0.072 C 
HETATM   28  C   UNL     1     -28.766 -35.442 -72.676  1.00  0.00     0.022 C 
BRANCH  24  29
HETATM   29  O   UNL     1     -28.984 -35.262 -75.531  1.00  0.00    -0.364 OA
ATOM     30  HO  UNL     1     -28.728 -35.278 -76.446  1.00  0.00     0.217 HD
ENDBRANCH  24  29
ENDBRANCH  19  21
ENDBRANCH   1  19
TORSDOF 7
