MODEL 1
REMARK VINA RESULT:     -11.8      0.000      0.000
REMARK  3 active torsions:
REMARK  status: ('A' for Active; 'I' for Inactive)
REMARK    1  A    between atoms: C_4  and  O_8 
REMARK    2  A    between atoms: C_4  and  C_32 
REMARK    3  A    between atoms: O_18  and  C_33 
ROOT
HETATM    1  C   UNL     1      51.816  44.742  -1.717  1.00  0.00    -0.036 C 
HETATM    2  N   UNL     1      55.474  47.517  -3.351  1.00  0.00    -0.417 N 
ATOM      3  HN  UNL     1      55.918  47.982  -4.144  1.00  0.00     0.153 HD
HETATM    4  C   UNL     1      49.639  42.441  -0.941  1.00  0.00     0.030 C 
HETATM    5  C   UNL     1      56.022  47.714  -1.972  1.00  0.00     0.147 C 
HETATM    6  C   UNL     1      50.016  43.622  -0.223  1.00  0.00     0.003 C 
HETATM    7  C   UNL     1      54.189  45.403  -2.625  1.00  0.00     0.233 C 
HETATM    8  C   UNL     1      55.807  46.489  -1.039  1.00  0.00     0.204 C 
HETATM    9  C   UNL     1      51.458  44.094  -3.042  1.00  0.00     0.158 C 
HETATM   10  C   UNL     1      53.225  46.495  -0.442  1.00  0.00     0.039 C 
HETATM   11  N   UNL     1      50.981  42.719  -3.022  1.00  0.00    -0.385 N 
ATOM     12  HN  UNL     1      51.520  42.048  -3.570  1.00  0.00     0.159 HD
HETATM   13  N   UNL     1      55.493  45.253  -1.863  1.00  0.00    -0.060 N 
ATOM     14  HN1 UNL     1      56.264  45.017  -2.488  1.00  0.00     0.278 HD
ATOM     15  HN2 UNL     1      55.493  44.412  -1.286  1.00  0.00     0.278 HD
HETATM   16  C   UNL     1      54.671  46.775  -0.027  1.00  0.00     0.039 C 
HETATM   17  C   UNL     1      49.826  42.189  -2.314  1.00  0.00     0.066 C 
HETATM   18  C   UNL     1      53.004  45.560  -1.632  1.00  0.00    -0.040 C 
HETATM   19  C   UNL     1      54.283  46.645  -3.577  1.00  0.00     0.151 C 
HETATM   20  C   UNL     1      50.906  44.642  -0.580  1.00  0.00     0.009 C 
ENDROOT
BRANCH  17  21
HETATM   21  C   UNL     1      49.300  40.906  -3.106  1.00  0.00     0.201 C 
HETATM   22  N   UNL     1      49.196  41.299  -4.545  1.00  0.00    -0.359 N 
HETATM   23  C   UNL     1      48.013  41.272  -5.285  1.00  0.00     0.087 C 
ATOM     24  HN  UNL     1      50.047  41.607  -5.017  1.00  0.00     0.162 HD
HETATM   25  C   UNL     1      46.936  40.456  -4.853  1.00  0.00     0.024 C 
HETATM   26  C   UNL     1      46.899  39.934  -3.511  1.00  0.00    -0.049 C 
HETATM   27  C   UNL     1      45.666  39.265  -3.001  1.00  0.00     0.042 C 
HETATM   28  C   UNL     1      48.097  40.033  -2.642  1.00  0.00    -0.010 C 
HETATM   29  C   UNL     1      45.833  38.069  -2.081  1.00  0.00     0.042 C 
HETATM   30  C   UNL     1      47.224  37.837  -1.414  1.00  0.00     0.058 C 
HETATM   31  C   UNL     1      47.864  36.615  -2.085  1.00  0.00     0.046 C 
HETATM   32  C   UNL     1      48.188  39.053  -1.468  1.00  0.00     0.077 C 
BRANCH  21  33
HETATM   33  O   UNL     1      50.389  40.048  -3.023  1.00  0.00    -0.362 OA
ATOM     34  HO  UNL     1      50.043  39.173  -3.154  1.00  0.00     0.213 HD
ENDBRANCH  21  33
BRANCH  30  35
HETATM   35  O   UNL     1      46.990  37.565  -0.024  1.00  0.00    -0.390 OA
ATOM     36  HO  UNL     1      47.423  38.220   0.511  1.00  0.00     0.210 HD
ENDBRANCH  30  35
ENDBRANCH  17  21
TORSDOF 3
ENDMDL
MODEL 2
REMARK VINA RESULT:     -10.3      2.263      4.162
REMARK  3 active torsions:
REMARK  status: ('A' for Active; 'I' for Inactive)
REMARK    1  A    between atoms: C_4  and  O_8 
REMARK    2  A    between atoms: C_4  and  C_32 
REMARK    3  A    between atoms: O_18  and  C_33 
ROOT
HETATM    1  C   UNL     1      54.985  45.531  -2.527  1.00  0.00    -0.036 C 
HETATM    2  N   UNL     1      57.029  49.753  -1.204  1.00  0.00    -0.417 N 
ATOM      3  HN  UNL     1      57.104  50.495  -0.508  1.00  0.00     0.153 HD
HETATM    4  C   UNL     1      53.108  43.037  -3.473  1.00  0.00     0.030 C 
HETATM    5  C   UNL     1      57.922  49.767  -2.405  1.00  0.00     0.147 C 
HETATM    6  C   UNL     1      54.523  43.219  -3.609  1.00  0.00     0.003 C 
HETATM    7  C   UNL     1      55.392  48.118  -2.342  1.00  0.00     0.233 C 
HETATM    8  C   UNL     1      57.278  49.121  -3.664  1.00  0.00     0.204 C 
HETATM    9  C   UNL     1      53.746  45.635  -1.656  1.00  0.00     0.158 C 
HETATM   10  C   UNL     1      57.280  46.511  -3.203  1.00  0.00     0.039 C 
HETATM   11  N   UNL     1      52.505  45.070  -2.166  1.00  0.00    -0.385 N 
ATOM     12  HN  UNL     1      51.719  45.715  -2.250  1.00  0.00     0.159 HD
HETATM   13  N   UNL     1      55.772  49.031  -3.493  1.00  0.00    -0.060 N 
ATOM     14  HN1 UNL     1      55.354  49.956  -3.389  1.00  0.00     0.278 HD
ATOM     15  HN2 UNL     1      55.316  48.747  -4.360  1.00  0.00     0.278 HD
HETATM   16  C   UNL     1      57.884  47.719  -3.921  1.00  0.00     0.039 C 
HETATM   17  C   UNL     1      52.252  43.695  -2.569  1.00  0.00     0.066 C 
HETATM   18  C   UNL     1      55.871  46.668  -2.628  1.00  0.00    -0.040 C 
HETATM   19  C   UNL     1      56.028  48.660  -1.016  1.00  0.00     0.151 C 
HETATM   20  C   UNL     1      55.340  44.260  -3.152  1.00  0.00     0.009 C 
ENDROOT
BRANCH  17  21
HETATM   21  C   UNL     1      50.697  43.394  -2.370  1.00  0.00     0.201 C 
HETATM   22  N   UNL     1      50.325  43.919  -1.021  1.00  0.00    -0.359 N 
HETATM   23  C   UNL     1      49.810  43.136   0.014  1.00  0.00     0.087 C 
ATOM     24  HN  UNL     1      50.456  44.915  -0.845  1.00  0.00     0.162 HD
HETATM   25  C   UNL     1      49.196  41.893  -0.287  1.00  0.00     0.024 C 
HETATM   26  C   UNL     1      49.393  41.265  -1.568  1.00  0.00    -0.049 C 
HETATM   27  C   UNL     1      48.926  39.866  -1.796  1.00  0.00     0.042 C 
HETATM   28  C   UNL     1      50.035  42.017  -2.674  1.00  0.00    -0.010 C 
HETATM   29  C   UNL     1      48.358  39.518  -3.160  1.00  0.00     0.042 C 
HETATM   30  C   UNL     1      48.636  40.490  -4.348  1.00  0.00     0.058 C 
HETATM   31  C   UNL     1      47.321  41.207  -4.680  1.00  0.00     0.046 C 
HETATM   32  C   UNL     1      49.769  41.522  -4.099  1.00  0.00     0.077 C 
BRANCH  21  33
HETATM   33  O   UNL     1      50.115  44.256  -3.289  1.00  0.00    -0.362 OA
ATOM     34  HO  UNL     1      49.700  43.703  -3.940  1.00  0.00     0.213 HD
ENDBRANCH  21  33
BRANCH  30  35
HETATM   35  O   UNL     1      49.052  39.691  -5.465  1.00  0.00    -0.390 OA
ATOM     36  HO  UNL     1      48.430  38.988  -5.610  1.00  0.00     0.210 HD
ENDBRANCH  30  35
ENDBRANCH  17  21
TORSDOF 3
ENDMDL
MODEL 3
REMARK VINA RESULT:      -9.9      2.159      4.431
REMARK  3 active torsions:
REMARK  status: ('A' for Active; 'I' for Inactive)
REMARK    1  A    between atoms: C_4  and  O_8 
REMARK    2  A    between atoms: C_4  and  C_32 
REMARK    3  A    between atoms: O_18  and  C_33 
ROOT
HETATM    1  C   UNL     1      55.378  45.776  -2.627  1.00  0.00    -0.036 C 
HETATM    2  N   UNL     1      57.593  49.969  -1.502  1.00  0.00    -0.417 N 
ATOM      3  HN  UNL     1      57.719  50.726  -0.830  1.00  0.00     0.153 HD
HETATM    4  C   UNL     1      53.393  43.314  -3.427  1.00  0.00     0.030 C 
HETATM    5  C   UNL     1      58.434  49.927  -2.739  1.00  0.00     0.147 C 
HETATM    6  C   UNL     1      54.805  43.453  -3.627  1.00  0.00     0.003 C 
HETATM    7  C   UNL     1      55.864  48.354  -2.526  1.00  0.00     0.233 C 
HETATM    8  C   UNL     1      57.719  49.268  -3.953  1.00  0.00     0.204 C 
HETATM    9  C   UNL     1      54.181  45.938  -1.707  1.00  0.00     0.158 C 
HETATM   10  C   UNL     1      57.668  46.672  -3.424  1.00  0.00     0.039 C 
HETATM   11  N   UNL     1      52.903  45.397  -2.149  1.00  0.00    -0.385 N 
ATOM     12  HN  UNL     1      52.133  46.062  -2.217  1.00  0.00     0.159 HD
HETATM   13  N   UNL     1      56.220  49.227  -3.716  1.00  0.00    -0.060 N 
ATOM     14  HN1 UNL     1      55.832  50.165  -3.619  1.00  0.00     0.278 HD
ATOM     15  HN2 UNL     1      55.719  48.935  -4.556  1.00  0.00     0.278 HD
HETATM   16  C   UNL     1      58.274  47.844  -4.198  1.00  0.00     0.039 C 
HETATM   17  C   UNL     1      52.596  44.020  -2.506  1.00  0.00     0.066 C 
HETATM   18  C   UNL     1      56.290  46.884  -2.794  1.00  0.00    -0.040 C 
HETATM   19  C   UNL     1      56.571  48.911  -1.243  1.00  0.00     0.151 C 
HETATM   20  C   UNL     1      55.670  44.481  -3.233  1.00  0.00     0.009 C 
ENDROOT
BRANCH  17  21
HETATM   21  C   UNL     1      51.043  43.768  -2.233  1.00  0.00     0.201 C 
HETATM   22  N   UNL     1      50.590  44.839  -1.293  1.00  0.00    -0.359 N 
HETATM   23  C   UNL     1      50.051  44.600  -0.028  1.00  0.00     0.087 C 
ATOM     24  HN  UNL     1      50.682  45.809  -1.597  1.00  0.00     0.162 HD
HETATM   25  C   UNL     1      49.490  43.330   0.265  1.00  0.00     0.024 C 
HETATM   26  C   UNL     1      49.767  42.191  -0.571  1.00  0.00    -0.049 C 
HETATM   27  C   UNL     1      49.355  40.824  -0.137  1.00  0.00     0.042 C 
HETATM   28  C   UNL     1      50.438  42.377  -1.881  1.00  0.00    -0.010 C 
HETATM   29  C   UNL     1      48.864  39.857  -1.198  1.00  0.00     0.042 C 
HETATM   30  C   UNL     1      49.168  40.181  -2.693  1.00  0.00     0.058 C 
HETATM   31  C   UNL     1      47.849  40.597  -3.357  1.00  0.00     0.046 C 
HETATM   32  C   UNL     1      50.256  41.266  -2.920  1.00  0.00     0.077 C 
BRANCH  21  33
HETATM   33  O   UNL     1      50.479  44.078  -3.463  1.00  0.00    -0.362 OA
ATOM     34  HO  UNL     1      49.582  44.333  -3.283  1.00  0.00     0.213 HD
ENDBRANCH  21  33
BRANCH  30  35
HETATM   35  O   UNL     1      49.662  38.977  -3.299  1.00  0.00    -0.390 OA
ATOM     36  HO  UNL     1      48.935  38.433  -3.576  1.00  0.00     0.210 HD
ENDBRANCH  30  35
ENDBRANCH  17  21
TORSDOF 3
ENDMDL
