REMARK  0 active torsions:
REMARK  status: ('A' for Active; 'I' for Inactive)
ROOT
HETATM    1  C   UNL     1      37.322 177.718  -6.668  1.00  0.00     0.008 C 
HETATM    2  C   UNL     1      33.221 181.445  -4.834  1.00  0.00    -0.025 C 
HETATM    3  C   UNL     1      34.932 176.117  -5.486  1.00  0.00     0.013 C 
HETATM    4  C   UNL     1      35.037 181.921  -6.335  1.00  0.00     0.013 C 
HETATM    5  C   UNL     1      35.770 182.876  -5.669  1.00  0.00     0.001 C 
HETATM    6  C   UNL     1      37.139 175.293  -6.273  1.00  0.00     0.000 C 
HETATM    7  C   UNL     1      37.834 176.433  -6.547  1.00  0.00     0.001 C 
HETATM    8  C   UNL     1      35.385 179.321  -7.119  1.00  0.00     0.080 C 
HETATM    9  C   UNL     1      32.230 180.600  -4.350  1.00  0.00     0.012 C 
HETATM   10  C   UNL     1      33.100 182.776  -4.462  1.00  0.00     0.012 C 
HETATM   11  C   UNL     1      35.989 178.051  -6.569  1.00  0.00    -0.043 C 
HETATM   12  C   UNL     1      32.300 179.296  -3.947  1.00  0.00     0.002 C 
HETATM   13  C   UNL     1      35.094 177.487  -5.643  1.00  0.00    -0.019 C 
HETATM   14  C   UNL     1      34.213 180.994  -5.699  1.00  0.00    -0.018 C 
HETATM   15  C   UNL     1      34.018 183.767  -4.272  1.00  0.00     0.001 C 
HETATM   16  C   UNL     1      34.199 178.503  -5.207  1.00  0.00    -0.018 C 
HETATM   17  C   UNL     1      34.405 179.648  -6.003  1.00  0.00    -0.032 C 
HETATM   18  C   UNL     1      33.332 178.396  -4.137  1.00  0.00     0.013 C 
HETATM   19  C   UNL     1      35.311 183.780  -4.749  1.00  0.00     0.000 C 
HETATM   20  C   UNL     1      35.810 175.173  -5.959  1.00  0.00     0.001 C 
ENDROOT
TORSDOF 0
