REMARK  4 active torsions:
REMARK  status: ('A' for Active; 'I' for Inactive)
REMARK    1  A    between atoms: C_4  and  C_8 
REMARK    2  A    between atoms: C_8  and  C_14 
REMARK    3  A    between atoms: C_10  and  C_16 
REMARK    4  A    between atoms: C_14  and  C_15 
ROOT
HETATM    1  C   UNL     1       6.110  16.434  85.610  1.00  0.00     0.005 C 
HETATM    2  C   UNL     1       5.106  14.853  87.055  1.00  0.00     0.005 C 
HETATM    3  C   UNL     1       6.465  16.876  87.022  1.00  0.00    -0.006 C 
HETATM    4  C   UNL     1       7.084  15.387  88.939  1.00  0.00     0.023 C 
HETATM    5  C   UNL     1       8.185  16.411  88.662  1.00  0.00    -0.064 C 
HETATM    6  C   UNL     1       6.053  15.695  87.874  1.00  0.00    -0.002 C 
HETATM    7  C   UNL     1       7.870  17.260  87.443  1.00  0.00     0.040 C 
HETATM    8  C   UNL     1       4.736  15.787  85.897  1.00  0.00     0.001 C 
ENDROOT
BRANCH   4   9
HETATM    9  C   UNL     1       7.670  13.956  88.891  1.00  0.00     0.037 C 
BRANCH   9  10
HETATM   10  C   UNL     1       6.953  13.056  89.911  1.00  0.00    -0.015 C 
BRANCH  10  11
HETATM   11  C   UNL     1       7.138  11.568  90.135  1.00  0.00    -0.040 C 
HETATM   12  C   UNL     1       6.570  11.043  91.300  1.00  0.00     0.011 C 
HETATM   13  C   UNL     1       6.655   9.689  91.587  1.00  0.00     0.001 C 
HETATM   14  C   UNL     1       7.312   8.835  90.712  1.00  0.00     0.000 C 
HETATM   15  C   UNL     1       7.857   9.343  89.542  1.00  0.00     0.001 C 
HETATM   16  C   UNL     1       7.880  10.721  89.310  1.00  0.00     0.011 C 
ENDBRANCH  10  11
ENDBRANCH   9  10
ENDBRANCH   4   9
BRANCH   5  17
HETATM   17  C   UNL     1       8.968  16.949  89.782  1.00  0.00    -0.028 C 
HETATM   18  C   UNL     1       8.382  16.936  91.031  1.00  0.00     0.012 C 
HETATM   19  C   UNL     1       8.857  17.156  92.311  1.00  0.00     0.001 C 
HETATM   20  C   UNL     1      10.156  17.391  92.747  1.00  0.00     0.000 C 
HETATM   21  C   UNL     1      11.138  17.924  91.894  1.00  0.00     0.001 C 
HETATM   22  C   UNL     1      11.099  17.969  90.529  1.00  0.00     0.007 C 
HETATM   23  C   UNL     1      10.301  17.455  89.530  1.00  0.00    -0.051 C 
HETATM   24  C   UNL     1      10.908  17.378  88.142  1.00  0.00     0.049 C 
ENDBRANCH   5  17
TORSDOF 4
