MODEL 1
REMARK VINA RESULT:      -4.4      0.000      0.000
REMARK  0 active torsions:
REMARK  status: ('A' for Active; 'I' for Inactive)
ROOT
HETATM    1  O   UNL     1       6.967   0.345  33.725  1.00  0.00    -0.268 OA
HETATM    2  C   UNL     1       4.960   0.323  31.451  1.00  0.00     0.065 C 
HETATM    3  N   UNL     1       6.802   2.242  29.448  1.00  0.00    -0.353 N 
ATOM      4  HN  UNL     1       7.352   2.219  28.589  1.00  0.00     0.166 HD
HETATM    5  C   UNL     1       6.991   1.268  30.354  1.00  0.00     0.140 C 
HETATM    6  O   UNL     1       5.832   2.574  31.994  1.00  0.00    -0.358 OA
HETATM    7  C   UNL     1       6.171   1.235  31.627  1.00  0.00     0.198 C 
HETATM    8  C   UNL     1       5.912   3.257  29.620  1.00  0.00     0.088 C 
HETATM    9  N   UNL     1       8.164   0.024  31.772  1.00  0.00    -0.266 N 
ATOM     10  HN  UNL     1       8.862  -0.652  32.086  1.00  0.00     0.190 HD
HETATM   11  N   UNL     1       8.061   0.513  30.481  1.00  0.00    -0.283 N 
ATOM     12  HN  UNL     1       8.723   0.314  29.731  1.00  0.00     0.188 HD
HETATM   13  C   UNL     1       7.201   0.576  32.561  1.00  0.00     0.278 C 
HETATM   14  C   UNL     1       5.197   3.322  30.936  1.00  0.00     0.214 C 
ENDROOT
TORSDOF 0
ENDMDL
MODEL 2
REMARK VINA RESULT:      -4.3      6.414      7.555
REMARK  0 active torsions:
REMARK  status: ('A' for Active; 'I' for Inactive)
ROOT
HETATM    1  O   UNL     1       9.371   1.969  26.294  1.00  0.00    -0.268 OA
HETATM    2  C   UNL     1      10.531  -0.402  24.798  1.00  0.00     0.065 C 
HETATM    3  N   UNL     1      12.646  -1.244  27.228  1.00  0.00    -0.353 N 
ATOM      4  HN  UNL     1      12.824  -1.960  27.932  1.00  0.00     0.166 HD
HETATM    5  C   UNL     1      11.400  -0.759  27.109  1.00  0.00     0.140 C 
HETATM    6  O   UNL     1      12.239   1.073  25.815  1.00  0.00    -0.358 OA
HETATM    7  C   UNL     1      11.076   0.277  26.052  1.00  0.00     0.198 C 
HETATM    8  C   UNL     1      13.685  -0.826  26.455  1.00  0.00     0.088 C 
HETATM    9  N   UNL     1       9.537   0.229  27.811  1.00  0.00    -0.266 N 
ATOM     10  HN  UNL     1       8.675   0.358  28.341  1.00  0.00     0.190 HD
HETATM   11  N   UNL     1      10.459  -0.780  28.030  1.00  0.00    -0.283 N 
ATOM     12  HN  UNL     1      10.415  -1.447  28.799  1.00  0.00     0.188 HD
HETATM   13  C   UNL     1       9.948   1.024  26.784  1.00  0.00     0.278 C 
HETATM   14  C   UNL     1      13.417   0.300  25.503  1.00  0.00     0.214 C 
ENDROOT
TORSDOF 0
ENDMDL
MODEL 3
REMARK VINA RESULT:      -4.2      2.836      3.570
REMARK  0 active torsions:
REMARK  status: ('A' for Active; 'I' for Inactive)
ROOT
HETATM    1  O   UNL     1       9.865   0.866  27.902  1.00  0.00    -0.268 OA
HETATM    2  C   UNL     1       8.076   3.166  28.748  1.00  0.00     0.065 C 
HETATM    3  N   UNL     1       5.842   1.222  30.270  1.00  0.00    -0.353 N 
ATOM      4  HN  UNL     1       5.483   0.973  31.193  1.00  0.00     0.166 HD
HETATM    5  C   UNL     1       7.172   1.271  30.095  1.00  0.00     0.140 C 
HETATM    6  O   UNL     1       6.856   1.273  27.721  1.00  0.00    -0.358 OA
HETATM    7  C   UNL     1       7.756   1.673  28.756  1.00  0.00     0.198 C 
HETATM    8  C   UNL     1       4.949   1.488  29.279  1.00  0.00     0.088 C 
HETATM    9  N   UNL     1       9.244   0.468  30.095  1.00  0.00    -0.266 N 
ATOM     10  HN  UNL     1      10.115   0.093  30.473  1.00  0.00     0.190 HD
HETATM   11  N   UNL     1       8.083   0.659  30.823  1.00  0.00    -0.283 N 
ATOM     12  HN  UNL     1       7.950   0.365  31.791  1.00  0.00     0.188 HD
HETATM   13  C   UNL     1       9.056   0.852  28.802  1.00  0.00     0.278 C 
HETATM   14  C   UNL     1       5.506   1.746  27.912  1.00  0.00     0.214 C 
ENDROOT
TORSDOF 0
ENDMDL
MODEL 4
REMARK VINA RESULT:      -4.1      1.691      3.154
REMARK  0 active torsions:
REMARK  status: ('A' for Active; 'I' for Inactive)
ROOT
HETATM    1  O   UNL     1       3.609   0.545  31.435  1.00  0.00    -0.268 OA
HETATM    2  C   UNL     1       5.973   2.332  32.084  1.00  0.00     0.065 C 
HETATM    3  N   UNL     1       7.883   1.156  29.623  1.00  0.00    -0.353 N 
ATOM      4  HN  UNL     1       8.294   1.414  28.725  1.00  0.00     0.166 HD
HETATM    5  C   UNL     1       6.588   1.439  29.837  1.00  0.00     0.140 C 
HETATM    6  O   UNL     1       6.581  -0.040  31.722  1.00  0.00    -0.358 OA
HETATM    7  C   UNL     1       5.941   1.112  31.168  1.00  0.00     0.198 C 
HETATM    8  C   UNL     1       8.674   0.542  30.543  1.00  0.00     0.088 C 
HETATM    9  N   UNL     1       4.405   1.368  29.424  1.00  0.00    -0.266 N 
ATOM     10  HN  UNL     1       3.530   1.532  28.927  1.00  0.00     0.190 HD
HETATM   11  N   UNL     1       5.665   1.638  28.919  1.00  0.00    -0.283 N 
ATOM     12  HN  UNL     1       5.854   1.948  27.966  1.00  0.00     0.188 HD
HETATM   13  C   UNL     1       4.505   0.851  30.681  1.00  0.00     0.278 C 
HETATM   14  C   UNL     1       8.017   0.081  31.809  1.00  0.00     0.214 C 
ENDROOT
TORSDOF 0
ENDMDL
MODEL 5
REMARK VINA RESULT:      -4.0      2.934      4.336
REMARK  0 active torsions:
REMARK  status: ('A' for Active; 'I' for Inactive)
ROOT
HETATM    1  O   UNL     1       7.038   2.091  26.395  1.00  0.00    -0.268 OA
HETATM    2  C   UNL     1       7.969   3.326  29.005  1.00  0.00     0.065 C 
HETATM    3  N   UNL     1       9.120   0.465  30.260  1.00  0.00    -0.353 N 
ATOM      4  HN  UNL     1       9.984  -0.020  30.507  1.00  0.00     0.166 HD
HETATM    5  C   UNL     1       9.051   1.079  29.068  1.00  0.00     0.140 C 
HETATM    6  O   UNL     1       6.672   1.237  29.291  1.00  0.00    -0.358 OA
HETATM    7  C   UNL     1       7.806   1.845  28.670  1.00  0.00     0.198 C 
HETATM    8  C   UNL     1       8.095   0.456  31.155  1.00  0.00     0.088 C 
HETATM    9  N   UNL     1       9.129   1.210  26.851  1.00  0.00    -0.266 N 
ATOM     10  HN  UNL     1       9.533   1.186  25.914  1.00  0.00     0.190 HD
HETATM   11  N   UNL     1       9.782   0.814  28.006  1.00  0.00    -0.283 N 
ATOM     12  HN  UNL     1      10.703   0.378  28.030  1.00  0.00     0.188 HD
HETATM   13  C   UNL     1       7.869   1.635  27.148  1.00  0.00     0.278 C 
HETATM   14  C   UNL     1       6.806   1.084  30.720  1.00  0.00     0.214 C 
ENDROOT
TORSDOF 0
ENDMDL
MODEL 6
REMARK VINA RESULT:      -4.0      3.641      4.139
REMARK  0 active torsions:
REMARK  status: ('A' for Active; 'I' for Inactive)
ROOT
HETATM    1  O   UNL     1       8.920   0.749  30.265  1.00  0.00    -0.268 OA
HETATM    2  C   UNL     1       6.908   1.207  28.041  1.00  0.00     0.065 C 
HETATM    3  N   UNL     1       9.122   2.553  25.949  1.00  0.00    -0.353 N 
ATOM      4  HN  UNL     1       9.623   2.374  25.078  1.00  0.00     0.166 HD
HETATM    5  C   UNL     1       9.081   1.578  26.873  1.00  0.00     0.140 C 
HETATM    6  O   UNL     1       8.346   3.166  28.509  1.00  0.00    -0.358 OA
HETATM    7  C   UNL     1       8.318   1.779  28.166  1.00  0.00     0.198 C 
HETATM    8  C   UNL     1       8.530   3.765  26.118  1.00  0.00     0.088 C 
HETATM    9  N   UNL     1       9.936   0.097  28.291  1.00  0.00    -0.266 N 
ATOM     10  HN  UNL     1      10.445  -0.730  28.605  1.00  0.00     0.190 HD
HETATM   11  N   UNL     1       9.924   0.574  26.992  1.00  0.00    -0.283 N 
ATOM     12  HN  UNL     1      10.490   0.199  26.232  1.00  0.00     0.188 HD
HETATM   13  C   UNL     1       9.171   0.892  29.090  1.00  0.00     0.278 C 
HETATM   14  C   UNL     1       7.894   4.034  27.449  1.00  0.00     0.214 C 
ENDROOT
TORSDOF 0
ENDMDL
MODEL 7
REMARK VINA RESULT:      -3.9      2.118      2.929
REMARK  0 active torsions:
REMARK  status: ('A' for Active; 'I' for Inactive)
ROOT
HETATM    1  O   UNL     1       8.467   1.697  28.985  1.00  0.00    -0.268 OA
HETATM    2  C   UNL     1       6.390   3.019  30.757  1.00  0.00     0.065 C 
HETATM    3  N   UNL     1       4.960   0.156  31.676  1.00  0.00    -0.353 N 
ATOM      4  HN  UNL     1       4.837  -0.466  32.476  1.00  0.00     0.166 HD
HETATM    5  C   UNL     1       6.192   0.620  31.411  1.00  0.00     0.140 C 
HETATM    6  O   UNL     1       5.461   1.303  29.235  1.00  0.00    -0.358 OA
HETATM    7  C   UNL     1       6.420   1.577  30.258  1.00  0.00     0.198 C 
HETATM    8  C   UNL     1       3.867   0.474  30.932  1.00  0.00     0.088 C 
HETATM    9  N   UNL     1       8.356   0.457  30.935  1.00  0.00    -0.266 N 
ATOM     10  HN  UNL     1       9.342   0.233  31.073  1.00  0.00     0.190 HD
HETATM   11  N   UNL     1       7.331   0.078  31.785  1.00  0.00    -0.283 N 
ATOM     12  HN  UNL     1       7.444  -0.537  32.591  1.00  0.00     0.188 HD
HETATM   13  C   UNL     1       7.857   1.172  29.889  1.00  0.00     0.278 C 
HETATM   14  C   UNL     1       4.096   1.303  29.704  1.00  0.00     0.214 C 
ENDROOT
TORSDOF 0
ENDMDL
MODEL 8
REMARK VINA RESULT:      -3.8      2.302      2.730
REMARK  0 active torsions:
REMARK  status: ('A' for Active; 'I' for Inactive)
ROOT
HETATM    1  O   UNL     1       6.267   0.152  32.592  1.00  0.00    -0.268 OA
HETATM    2  C   UNL     1       5.675   2.852  31.341  1.00  0.00     0.065 C 
HETATM    3  N   UNL     1       4.639   1.583  28.442  1.00  0.00    -0.353 N 
ATOM      4  HN  UNL     1       3.804   1.450  27.871  1.00  0.00     0.166 HD
HETATM    5  C   UNL     1       4.574   1.279  29.748  1.00  0.00     0.140 C 
HETATM    6  O   UNL     1       6.965   1.331  29.876  1.00  0.00    -0.358 OA
HETATM    7  C   UNL     1       5.774   1.495  30.648  1.00  0.00     0.198 C 
HETATM    8  C   UNL     1       5.763   2.060  27.843  1.00  0.00     0.088 C 
HETATM    9  N   UNL     1       4.234  -0.039  31.505  1.00  0.00    -0.266 N 
ATOM     10  HN  UNL     1       3.720  -0.624  32.165  1.00  0.00     0.190 HD
HETATM   11  N   UNL     1       3.717   0.460  30.321  1.00  0.00    -0.283 N 
ATOM     12  HN  UNL     1       2.799   0.225  29.945  1.00  0.00     0.188 HD
HETATM   13  C   UNL     1       5.526   0.363  31.659  1.00  0.00     0.278 C 
HETATM   14  C   UNL     1       7.001   2.145  28.684  1.00  0.00     0.214 C 
ENDROOT
TORSDOF 0
ENDMDL
MODEL 9
REMARK VINA RESULT:      -3.8      8.380      9.324
REMARK  0 active torsions:
REMARK  status: ('A' for Active; 'I' for Inactive)
ROOT
HETATM    1  O   UNL     1      13.741  -0.596  22.876  1.00  0.00    -0.268 OA
HETATM    2  C   UNL     1      13.223   1.297  25.189  1.00  0.00     0.065 C 
HETATM    3  N   UNL     1      12.508  -1.123  27.361  1.00  0.00    -0.353 N 
ATOM      4  HN  UNL     1      12.865  -1.593  28.194  1.00  0.00     0.166 HD
HETATM    5  C   UNL     1      13.349  -0.915  26.335  1.00  0.00     0.140 C 
HETATM    6  O   UNL     1      11.484  -0.442  24.909  1.00  0.00    -0.358 OA
HETATM    7  C   UNL     1      12.878  -0.187  25.092  1.00  0.00     0.198 C 
HETATM    8  C   UNL     1      11.203  -0.738  27.346  1.00  0.00     0.088 C 
HETATM    9  N   UNL     1      14.775  -1.504  24.737  1.00  0.00    -0.266 N 
ATOM     10  HN  UNL     1      15.632  -1.867  24.318  1.00  0.00     0.190 HD
HETATM   11  N   UNL     1      14.456  -1.580  26.081  1.00  0.00    -0.283 N 
ATOM     12  HN  UNL     1      15.004  -2.081  26.780  1.00  0.00     0.188 HD
HETATM   13  C   UNL     1      13.779  -0.875  24.053  1.00  0.00     0.278 C 
HETATM   14  C   UNL     1      10.682  -0.146  26.072  1.00  0.00     0.214 C 
ENDROOT
TORSDOF 0
ENDMDL
