REMARK  2 active torsions:
REMARK  status: ('A' for Active; 'I' for Inactive)
REMARK    1  A    between atoms: O_3  and  C_5 
REMARK    2  A    between atoms: C_5  and  C_8 
ROOT
HETATM    1  C   UNL     1      70.045  84.472  62.445  1.00  0.00     0.025 C 
HETATM    2  C   UNL     1      69.252  82.338  61.692  1.00  0.00     0.036 C 
HETATM    3  O   UNL     1      71.136  82.478  63.153  1.00  0.00    -0.324 OA
HETATM    4  C   UNL     1      70.219  81.728  62.473  1.00  0.00     0.086 C 
HETATM    5  C   UNL     1      70.829  83.805  63.350  1.00  0.00     0.142 C 
HETATM    6  C   UNL     1      69.268  83.719  61.576  1.00  0.00     0.004 C 
ENDROOT
BRANCH   4   7
HETATM    7  C   UNL     1      70.465  80.239  62.449  1.00  0.00     0.099 C 
HETATM    8  C   UNL     1      69.369  79.574  61.636  1.00  0.00     0.053 C 
HETATM    9  C   UNL     1      71.842  79.949  61.849  1.00  0.00     0.053 C 
BRANCH   7  10
HETATM   10  O   UNL     1      70.322  79.736  63.776  1.00  0.00    -0.384 OA
ATOM     11  HO  UNL     1      71.008  80.152  64.285  1.00  0.00     0.211 HD
ENDBRANCH   7  10
ENDBRANCH   4   7
TORSDOF 2
