MODEL 1
REMARK VINA RESULT:      -5.7      0.000      0.000
REMARK  3 active torsions:
REMARK  status: ('A' for Active; 'I' for Inactive)
REMARK    1  A    between atoms: C_1  and  O_4 
REMARK    2  A    between atoms: C_2  and  O_8 
REMARK    3  A    between atoms: O_4  and  C_5 
ROOT
HETATM    1  C   UNL     1     -42.768 -14.678 -18.757  1.00  0.00     0.148 A 
HETATM    2  C   UNL     1     -42.762 -15.102 -20.101  1.00  0.00     0.168 A 
HETATM    3  C   UNL     1     -40.721 -14.862 -19.387  1.00  0.00     0.236 A 
HETATM    4  N   UNL     1     -41.448 -15.132 -20.497  1.00  0.00    -0.267 N 
HETATM    5  C   UNL     1     -40.850 -15.260 -21.708  1.00  0.00     0.105 C 
HETATM    6  C   UNL     1     -39.473 -15.223 -21.812  1.00  0.00     0.042 C 
HETATM    7  C   UNL     1     -38.737 -15.038 -20.645  1.00  0.00     0.147 C 
HETATM    8  O   UNL     1     -39.361 -14.927 -19.438  1.00  0.00    -0.291 OA
HETATM    9  N   UNL     1     -41.487 -14.583 -18.331  1.00  0.00    -0.327 N 
ATOM     10  HN  UNL     1     -41.171 -14.344 -17.391  1.00  0.00     0.169 HD
ENDROOT
BRANCH   2  11
HETATM   11  O   UNL     1     -43.837 -15.749 -20.706  1.00  0.00    -0.329 OA
BRANCH  11  12
HETATM   12  C   UNL     1     -44.003 -17.137 -20.454  1.00  0.00     0.133 C 
HETATM   13  C   UNL     1     -43.211 -18.284 -21.060  1.00  0.00     0.064 C 
HETATM   14  C   UNL     1     -44.120 -19.486 -20.929  1.00  0.00     0.120 C 
HETATM   15  C   UNL     1     -45.280 -19.191 -20.034  1.00  0.00     0.034 C 
HETATM   16  C   UNL     1     -45.294 -17.671 -19.837  1.00  0.00     0.035 C 
BRANCH  14  17
HETATM   17  O   UNL     1     -43.561 -20.728 -20.868  1.00  0.00    -0.395 OA
ATOM     18  HO  UNL     1     -43.803 -21.371 -21.524  1.00  0.00     0.210 HD
ENDBRANCH  14  17
ENDBRANCH  11  12
ENDBRANCH   2  11
TORSDOF 3
ENDMDL
MODEL 2
REMARK VINA RESULT:      -5.6      1.992      5.661
REMARK  3 active torsions:
REMARK  status: ('A' for Active; 'I' for Inactive)
REMARK    1  A    between atoms: C_1  and  O_4 
REMARK    2  A    between atoms: C_2  and  O_8 
REMARK    3  A    between atoms: O_4  and  C_5 
ROOT
HETATM    1  C   UNL     1     -44.288 -15.703 -19.680  1.00  0.00     0.148 A 
HETATM    2  C   UNL     1     -43.417 -16.392 -20.550  1.00  0.00     0.168 A 
HETATM    3  C   UNL     1     -45.043 -17.700 -19.935  1.00  0.00     0.236 A 
HETATM    4  N   UNL     1     -43.879 -17.681 -20.628  1.00  0.00    -0.267 N 
HETATM    5  C   UNL     1     -43.351 -18.824 -21.133  1.00  0.00     0.105 C 
HETATM    6  C   UNL     1     -44.047 -20.013 -21.041  1.00  0.00     0.042 C 
HETATM    7  C   UNL     1     -45.286 -19.996 -20.407  1.00  0.00     0.147 C 
HETATM    8  O   UNL     1     -45.803 -18.832 -19.921  1.00  0.00    -0.291 OA
HETATM    9  N   UNL     1     -45.309 -16.529 -19.354  1.00  0.00    -0.327 N 
ATOM     10  HN  UNL     1     -46.120 -16.302 -18.778  1.00  0.00     0.169 HD
ENDROOT
BRANCH   2  11
HETATM   11  O   UNL     1     -42.560 -15.751 -21.440  1.00  0.00    -0.329 OA
BRANCH  11  12
HETATM   12  C   UNL     1     -41.295 -15.324 -20.954  1.00  0.00     0.133 C 
HETATM   13  C   UNL     1     -40.730 -13.913 -20.972  1.00  0.00     0.064 C 
HETATM   14  C   UNL     1     -39.231 -14.102 -20.895  1.00  0.00     0.120 C 
HETATM   15  C   UNL     1     -38.881 -15.513 -20.548  1.00  0.00     0.034 C 
HETATM   16  C   UNL     1     -40.169 -16.328 -20.717  1.00  0.00     0.035 C 
BRANCH  14  17
HETATM   17  O   UNL     1     -38.470 -13.102 -20.364  1.00  0.00    -0.395 OA
ATOM     18  HO  UNL     1     -37.597 -12.959 -20.710  1.00  0.00     0.210 HD
ENDBRANCH  14  17
ENDBRANCH  11  12
ENDBRANCH   2  11
TORSDOF 3
ENDMDL
MODEL 3
REMARK VINA RESULT:      -5.3      4.087      5.393
REMARK  3 active torsions:
REMARK  status: ('A' for Active; 'I' for Inactive)
REMARK    1  A    between atoms: C_1  and  O_4 
REMARK    2  A    between atoms: C_2  and  O_8 
REMARK    3  A    between atoms: O_4  and  C_5 
ROOT
HETATM    1  C   UNL     1     -36.603 -13.975 -19.216  1.00  0.00     0.148 A 
HETATM    2  C   UNL     1     -38.000 -13.789 -19.184  1.00  0.00     0.168 A 
HETATM    3  C   UNL     1     -37.026 -11.992 -19.930  1.00  0.00     0.236 A 
HETATM    4  N   UNL     1     -38.231 -12.491 -19.567  1.00  0.00    -0.267 N 
HETATM    5  C   UNL     1     -39.331 -11.698 -19.529  1.00  0.00     0.105 C 
HETATM    6  C   UNL     1     -39.261 -10.389 -19.964  1.00  0.00     0.042 C 
HETATM    7  C   UNL     1     -38.033  -9.920 -20.423  1.00  0.00     0.147 C 
HETATM    8  O   UNL     1     -36.946 -10.741 -20.465  1.00  0.00    -0.291 OA
HETATM    9  N   UNL     1     -36.032 -12.859 -19.726  1.00  0.00    -0.327 N 
ATOM     10  HN  UNL     1     -35.041 -12.710 -19.915  1.00  0.00     0.169 HD
ENDROOT
BRANCH   2  11
HETATM   11  O   UNL     1     -38.913 -14.840 -19.181  1.00  0.00    -0.329 OA
BRANCH  11  12
HETATM   12  C   UNL     1     -39.032 -15.620 -20.362  1.00  0.00     0.133 C 
HETATM   13  C   UNL     1     -39.000 -15.126 -21.799  1.00  0.00     0.064 C 
HETATM   14  C   UNL     1     -39.719 -16.199 -22.586  1.00  0.00     0.120 C 
HETATM   15  C   UNL     1     -39.927 -17.428 -21.761  1.00  0.00     0.034 C 
HETATM   16  C   UNL     1     -39.622 -17.028 -20.313  1.00  0.00     0.035 C 
BRANCH  14  17
HETATM   17  O   UNL     1     -39.420 -16.356 -23.908  1.00  0.00    -0.395 OA
ATOM     18  HO  UNL     1     -39.100 -17.199 -24.207  1.00  0.00     0.210 HD
ENDBRANCH  14  17
ENDBRANCH  11  12
ENDBRANCH   2  11
TORSDOF 3
ENDMDL
MODEL 4
REMARK VINA RESULT:      -5.3      3.754      5.002
REMARK  3 active torsions:
REMARK  status: ('A' for Active; 'I' for Inactive)
REMARK    1  A    between atoms: C_1  and  O_4 
REMARK    2  A    between atoms: C_2  and  O_8 
REMARK    3  A    between atoms: O_4  and  C_5 
ROOT
HETATM    1  C   UNL     1     -40.871 -13.244 -19.502  1.00  0.00     0.148 A 
HETATM    2  C   UNL     1     -39.653 -13.762 -19.016  1.00  0.00     0.168 A 
HETATM    3  C   UNL     1     -41.235 -14.092 -17.561  1.00  0.00     0.236 A 
HETATM    4  N   UNL     1     -39.901 -14.222 -17.748  1.00  0.00    -0.267 N 
HETATM    5  C   UNL     1     -39.091 -14.627 -16.736  1.00  0.00     0.105 C 
HETATM    6  C   UNL     1     -39.632 -15.018 -15.527  1.00  0.00     0.042 C 
HETATM    7  C   UNL     1     -41.016 -14.967 -15.385  1.00  0.00     0.147 C 
HETATM    8  O   UNL     1     -41.808 -14.571 -16.421  1.00  0.00    -0.291 OA
HETATM    9  N   UNL     1     -41.840 -13.505 -18.595  1.00  0.00    -0.327 N 
ATOM     10  HN  UNL     1     -42.834 -13.296 -18.685  1.00  0.00     0.169 HD
ENDROOT
BRANCH   2  11
HETATM   11  O   UNL     1     -38.582 -14.101 -19.839  1.00  0.00    -0.329 OA
BRANCH  11  12
HETATM   12  C   UNL     1     -38.795 -15.096 -20.831  1.00  0.00     0.133 C 
HETATM   13  C   UNL     1     -38.835 -14.901 -22.337  1.00  0.00     0.064 C 
HETATM   14  C   UNL     1     -39.633 -16.079 -22.853  1.00  0.00     0.120 C 
HETATM   15  C   UNL     1     -39.828 -17.107 -21.786  1.00  0.00     0.034 C 
HETATM   16  C   UNL     1     -39.424 -16.440 -20.467  1.00  0.00     0.035 C 
BRANCH  14  17
HETATM   17  O   UNL     1     -39.418 -16.509 -24.129  1.00  0.00    -0.395 OA
ATOM     18  HO  UNL     1     -39.955 -17.214 -24.470  1.00  0.00     0.210 HD
ENDBRANCH  14  17
ENDBRANCH  11  12
ENDBRANCH   2  11
TORSDOF 3
ENDMDL
MODEL 5
REMARK VINA RESULT:      -5.2      4.065      5.915
REMARK  3 active torsions:
REMARK  status: ('A' for Active; 'I' for Inactive)
REMARK    1  A    between atoms: C_1  and  O_4 
REMARK    2  A    between atoms: C_2  and  O_8 
REMARK    3  A    between atoms: O_4  and  C_5 
ROOT
HETATM    1  C   UNL     1     -37.998 -14.260 -21.315  1.00  0.00     0.148 A 
HETATM    2  C   UNL     1     -37.934 -14.785 -20.007  1.00  0.00     0.168 A 
HETATM    3  C   UNL     1     -36.326 -13.352 -20.314  1.00  0.00     0.236 A 
HETATM    4  N   UNL     1     -36.814 -14.248 -19.424  1.00  0.00    -0.267 N 
HETATM    5  C   UNL     1     -36.140 -14.532 -18.281  1.00  0.00     0.105 C 
HETATM    6  C   UNL     1     -34.996 -13.830 -17.955  1.00  0.00     0.042 C 
HETATM    7  C   UNL     1     -34.561 -12.846 -18.838  1.00  0.00     0.147 C 
HETATM    8  O   UNL     1     -35.264 -12.569 -19.973  1.00  0.00    -0.291 OA
HETATM    9  N   UNL     1     -37.014 -13.342 -21.457  1.00  0.00    -0.327 N 
ATOM     10  HN  UNL     1     -36.835 -12.759 -22.275  1.00  0.00     0.169 HD
ENDROOT
BRANCH   2  11
HETATM   11  O   UNL     1     -39.022 -15.366 -19.361  1.00  0.00    -0.329 OA
BRANCH  11  12
HETATM   12  C   UNL     1     -40.030 -14.504 -18.852  1.00  0.00     0.133 C 
HETATM   13  C   UNL     1     -39.962 -13.644 -17.602  1.00  0.00     0.064 C 
HETATM   14  C   UNL     1     -41.407 -13.410 -17.220  1.00  0.00     0.120 C 
HETATM   15  C   UNL     1     -42.330 -13.834 -18.316  1.00  0.00     0.034 C 
HETATM   16  C   UNL     1     -41.484 -14.654 -19.297  1.00  0.00     0.035 C 
BRANCH  14  17
HETATM   17  O   UNL     1     -41.726 -12.291 -16.509  1.00  0.00    -0.395 OA
ATOM     18  HO  UNL     1     -41.439 -12.227 -15.605  1.00  0.00     0.210 HD
ENDBRANCH  14  17
ENDBRANCH  11  12
ENDBRANCH   2  11
TORSDOF 3
ENDMDL
MODEL 6
REMARK VINA RESULT:      -5.2      2.319      6.115
REMARK  3 active torsions:
REMARK  status: ('A' for Active; 'I' for Inactive)
REMARK    1  A    between atoms: C_1  and  O_4 
REMARK    2  A    between atoms: C_2  and  O_8 
REMARK    3  A    between atoms: O_4  and  C_5 
ROOT
HETATM    1  C   UNL     1     -41.281 -13.581 -17.786  1.00  0.00     0.148 A 
HETATM    2  C   UNL     1     -41.149 -13.721 -19.183  1.00  0.00     0.168 A 
HETATM    3  C   UNL     1     -42.893 -14.818 -18.486  1.00  0.00     0.236 A 
HETATM    4  N   UNL     1     -42.141 -14.579 -19.586  1.00  0.00    -0.267 N 
HETATM    5  C   UNL     1     -42.381 -15.233 -20.751  1.00  0.00     0.105 C 
HETATM    6  C   UNL     1     -43.468 -16.077 -20.863  1.00  0.00     0.042 C 
HETATM    7  C   UNL     1     -44.286 -16.239 -19.749  1.00  0.00     0.147 C 
HETATM    8  O   UNL     1     -44.032 -15.560 -18.594  1.00  0.00    -0.291 OA
HETATM    9  N   UNL     1     -42.398 -14.236 -17.393  1.00  0.00    -0.327 N 
ATOM     10  HN  UNL     1     -42.783 -14.276 -16.450  1.00  0.00     0.169 HD
ENDROOT
BRANCH   2  11
HETATM   11  O   UNL     1     -40.433 -12.830 -19.978  1.00  0.00    -0.329 OA
BRANCH  11  12
HETATM   12  C   UNL     1     -39.095 -13.167 -20.317  1.00  0.00     0.133 C 
HETATM   13  C   UNL     1     -37.829 -12.434 -19.908  1.00  0.00     0.064 C 
HETATM   14  C   UNL     1     -36.808 -12.826 -20.953  1.00  0.00     0.120 C 
HETATM   15  C   UNL     1     -37.300 -13.961 -21.790  1.00  0.00     0.034 C 
HETATM   16  C   UNL     1     -38.797 -14.097 -21.491  1.00  0.00     0.035 C 
BRANCH  14  17
HETATM   17  O   UNL     1     -35.485 -12.798 -20.620  1.00  0.00    -0.395 OA
ATOM     18  HO  UNL     1     -35.183 -13.341 -19.901  1.00  0.00     0.210 HD
ENDBRANCH  14  17
ENDBRANCH  11  12
ENDBRANCH   2  11
TORSDOF 3
ENDMDL
MODEL 7
REMARK VINA RESULT:      -5.2      2.970      3.865
REMARK  3 active torsions:
REMARK  status: ('A' for Active; 'I' for Inactive)
REMARK    1  A    between atoms: C_1  and  O_4 
REMARK    2  A    between atoms: C_2  and  O_8 
REMARK    3  A    between atoms: O_4  and  C_5 
ROOT
HETATM    1  C   UNL     1     -39.669 -16.582 -22.551  1.00  0.00     0.148 A 
HETATM    2  C   UNL     1     -39.886 -16.906 -21.196  1.00  0.00     0.168 A 
HETATM    3  C   UNL     1     -38.668 -15.110 -21.346  1.00  0.00     0.236 A 
HETATM    4  N   UNL     1     -39.171 -15.998 -20.456  1.00  0.00    -0.267 N 
HETATM    5  C   UNL     1     -38.837 -15.934 -19.143  1.00  0.00     0.105 C 
HETATM    6  C   UNL     1     -38.061 -14.893 -18.672  1.00  0.00     0.042 C 
HETATM    7  C   UNL     1     -37.631 -13.936 -19.586  1.00  0.00     0.147 C 
HETATM    8  O   UNL     1     -37.992 -14.014 -20.898  1.00  0.00    -0.291 OA
HETATM    9  N   UNL     1     -38.948 -15.438 -22.608  1.00  0.00    -0.327 N 
ATOM     10  HN  UNL     1     -38.674 -14.929 -23.448  1.00  0.00     0.169 HD
ENDROOT
BRANCH   2  11
HETATM   11  O   UNL     1     -40.942 -17.701 -20.758  1.00  0.00    -0.329 OA
BRANCH  11  12
HETATM   12  C   UNL     1     -40.742 -19.107 -20.713  1.00  0.00     0.133 C 
HETATM   13  C   UNL     1     -41.807 -20.190 -20.732  1.00  0.00     0.064 C 
HETATM   14  C   UNL     1     -41.139 -21.392 -20.103  1.00  0.00     0.120 C 
HETATM   15  C   UNL     1     -39.665 -21.184 -19.970  1.00  0.00     0.034 C 
HETATM   16  C   UNL     1     -39.419 -19.692 -20.224  1.00  0.00     0.035 C 
BRANCH  14  17
HETATM   17  O   UNL     1     -41.584 -22.639 -20.433  1.00  0.00    -0.395 OA
ATOM     18  HO  UNL     1     -40.987 -23.373 -20.354  1.00  0.00     0.210 HD
ENDBRANCH  14  17
ENDBRANCH  11  12
ENDBRANCH   2  11
TORSDOF 3
ENDMDL
MODEL 8
REMARK VINA RESULT:      -5.2      4.228      5.546
REMARK  3 active torsions:
REMARK  status: ('A' for Active; 'I' for Inactive)
REMARK    1  A    between atoms: C_1  and  O_4 
REMARK    2  A    between atoms: C_2  and  O_8 
REMARK    3  A    between atoms: O_4  and  C_5 
ROOT
HETATM    1  C   UNL     1     -38.527 -11.656 -20.043  1.00  0.00     0.148 A 
HETATM    2  C   UNL     1     -38.248 -13.020 -19.816  1.00  0.00     0.168 A 
HETATM    3  C   UNL     1     -36.616 -11.791 -19.067  1.00  0.00     0.236 A 
HETATM    4  N   UNL     1     -36.992 -13.077 -19.267  1.00  0.00    -0.267 N 
HETATM    5  C   UNL     1     -36.130 -14.099 -19.034  1.00  0.00     0.105 C 
HETATM    6  C   UNL     1     -34.887 -13.850 -18.485  1.00  0.00     0.042 C 
HETATM    7  C   UNL     1     -34.555 -12.529 -18.198  1.00  0.00     0.147 C 
HETATM    8  O   UNL     1     -35.443 -11.521 -18.427  1.00  0.00    -0.291 OA
HETATM    9  N   UNL     1     -37.516 -10.920 -19.526  1.00  0.00    -0.327 N 
ATOM     10  HN  UNL     1     -37.455  -9.902 -19.495  1.00  0.00     0.169 HD
ENDROOT
BRANCH   2  11
HETATM   11  O   UNL     1     -39.231 -14.005 -19.770  1.00  0.00    -0.329 OA
BRANCH  11  12
HETATM   12  C   UNL     1     -39.202 -15.018 -20.766  1.00  0.00     0.133 C 
HETATM   13  C   UNL     1     -39.199 -14.828 -22.273  1.00  0.00     0.064 C 
HETATM   14  C   UNL     1     -39.735 -16.131 -22.823  1.00  0.00     0.120 C 
HETATM   15  C   UNL     1     -39.790 -17.183 -21.763  1.00  0.00     0.034 C 
HETATM   16  C   UNL     1     -39.587 -16.457 -20.428  1.00  0.00     0.035 C 
BRANCH  14  17
HETATM   17  O   UNL     1     -39.378 -16.508 -24.084  1.00  0.00    -0.395 OA
ATOM     18  HO  UNL     1     -39.894 -17.172 -24.526  1.00  0.00     0.210 HD
ENDBRANCH  14  17
ENDBRANCH  11  12
ENDBRANCH   2  11
TORSDOF 3
ENDMDL
MODEL 9
REMARK VINA RESULT:      -5.1      1.235      2.355
REMARK  3 active torsions:
REMARK  status: ('A' for Active; 'I' for Inactive)
REMARK    1  A    between atoms: C_1  and  O_4 
REMARK    2  A    between atoms: C_2  and  O_8 
REMARK    3  A    between atoms: O_4  and  C_5 
ROOT
HETATM    1  C   UNL     1     -41.172 -14.965 -21.626  1.00  0.00     0.148 A 
HETATM    2  C   UNL     1     -42.170 -15.190 -20.656  1.00  0.00     0.168 A 
HETATM    3  C   UNL     1     -40.718 -13.750 -19.912  1.00  0.00     0.236 A 
HETATM    4  N   UNL     1     -41.809 -14.464 -19.548  1.00  0.00    -0.267 N 
HETATM    5  C   UNL     1     -42.257 -14.448 -18.267  1.00  0.00     0.105 C 
HETATM    6  C   UNL     1     -41.669 -13.616 -17.335  1.00  0.00     0.042 C 
HETATM    7  C   UNL     1     -40.608 -12.818 -17.751  1.00  0.00     0.147 C 
HETATM    8  O   UNL     1     -40.185 -12.841 -19.047  1.00  0.00    -0.291 OA
HETATM    9  N   UNL     1     -40.313 -14.034 -21.151  1.00  0.00    -0.327 N 
ATOM     10  HN  UNL     1     -39.515 -13.630 -21.642  1.00  0.00     0.169 HD
ENDROOT
BRANCH   2  11
HETATM   11  O   UNL     1     -43.433 -15.690 -20.958  1.00  0.00    -0.329 OA
BRANCH  11  12
HETATM   12  C   UNL     1     -43.721 -17.033 -20.591  1.00  0.00     0.133 C 
HETATM   13  C   UNL     1     -43.047 -18.292 -21.108  1.00  0.00     0.064 C 
HETATM   14  C   UNL     1     -44.060 -19.391 -20.870  1.00  0.00     0.120 C 
HETATM   15  C   UNL     1     -45.173 -18.919 -19.992  1.00  0.00     0.034 C 
HETATM   16  C   UNL     1     -45.045 -17.393 -19.920  1.00  0.00     0.035 C 
BRANCH  14  17
HETATM   17  O   UNL     1     -43.615 -20.671 -20.713  1.00  0.00    -0.395 OA
ATOM     18  HO  UNL     1     -42.735 -20.887 -20.998  1.00  0.00     0.210 HD
ENDBRANCH  14  17
ENDBRANCH  11  12
ENDBRANCH   2  11
TORSDOF 3
ENDMDL
