REMARK  2 active torsions:
REMARK  status: ('A' for Active; 'I' for Inactive)
REMARK    1  A    between atoms: C_5  and  C_12 
REMARK    2  A    between atoms: C_5  and  C_14 
ROOT
HETATM    1  C   UNL     1     -38.712 -13.177 -20.039  1.00  0.00     0.007 C 
HETATM    2  C   UNL     1     -39.963 -15.792 -22.330  1.00  0.00     0.044 C 
HETATM    3  C   UNL     1     -37.637 -14.612 -22.197  1.00  0.00     0.007 C 
HETATM    4  C   UNL     1     -39.456 -14.148 -20.686  1.00  0.00    -0.051 C 
HETATM    5  C   UNL     1     -37.437 -12.885 -20.523  1.00  0.00     0.001 C 
HETATM    6  C   UNL     1     -38.950 -14.820 -21.800  1.00  0.00    -0.051 C 
HETATM    7  C   UNL     1     -40.884 -15.914 -21.161  1.00  0.00     0.000 C 
HETATM    8  C   UNL     1     -36.850 -13.715 -21.477  1.00  0.00     0.001 C 
HETATM    9  C   UNL     1     -40.809 -14.679 -20.288  1.00  0.00     0.044 C 
ENDROOT
BRANCH   7  10
HETATM   10  C   UNL     1     -41.662 -17.128 -20.768  1.00  0.00     0.070 C 
BRANCH  10  11
HETATM   11  C   UNL     1     -40.887 -18.351 -20.353  1.00  0.00     0.052 C 
HETATM   12  O   UNL     1     -41.545 -19.524 -20.538  1.00  0.00    -0.327 OA
HETATM   13  C   UNL     1     -40.905 -20.694 -20.237  1.00  0.00     0.142 C 
HETATM   14  C   UNL     1     -39.983 -20.695 -19.206  1.00  0.00     0.025 C 
HETATM   15  C   UNL     1     -39.323 -19.488 -18.943  1.00  0.00     0.004 C 
HETATM   16  C   UNL     1     -39.683 -18.328 -19.648  1.00  0.00     0.033 C 
ENDBRANCH  10  11
ENDBRANCH   7  10
TORSDOF 2
