REMARK  2 active torsions:
REMARK  status: ('A' for Active; 'I' for Inactive)
REMARK    1  A    between atoms: C_4  and  C_10 
REMARK       I    between atoms: N_6  and  C_10 
REMARK    2  A    between atoms: O_12  and  C_18 
ROOT
HETATM    1  C   UNL     1       4.099 -11.235 -26.581  1.00  0.00     0.009 A 
HETATM    2  C   UNL     1       7.649 -12.093 -25.527  1.00  0.00     0.107 C 
HETATM    3  C   UNL     1       5.342 -10.626 -25.914  1.00  0.00     0.042 A 
HETATM    4  C   UNL     1       6.822 -13.782 -26.689  1.00  0.00     0.096 C 
HETATM    5  C   UNL     1       4.436 -12.653 -27.004  1.00  0.00     0.041 A 
HETATM    6  C   UNL     1       6.336 -11.761 -25.896  1.00  0.00    -0.018 A 
HETATM    7  C   UNL     1       5.821 -12.872 -26.536  1.00  0.00    -0.034 A 
HETATM    8  N   UNL     1       7.980 -13.175 -26.274  1.00  0.00    -0.360 N 
ATOM      9  HN  UNL     1       8.928 -13.485 -26.490  1.00  0.00     0.165 HD
ENDROOT
BRANCH   2  10
HETATM   10  C   UNL     1       8.454 -11.645 -24.362  1.00  0.00     0.271 C 
HETATM   11  O   UNL     1       9.602 -12.035 -24.288  1.00  0.00    -0.266 OA
HETATM   12  N   UNL     1       7.958 -10.886 -23.349  1.00  0.00    -0.344 N 
HETATM   13  C   UNL     1       8.872 -10.087 -22.540  1.00  0.00     0.157 C 
HETATM   14  C   UNL     1       6.755 -11.214 -22.605  1.00  0.00     0.129 C 
HETATM   15  C   UNL     1       8.386 -10.228 -21.147  1.00  0.00     0.137 C 
HETATM   16  C   UNL     1       7.123 -10.989 -21.156  1.00  0.00     0.053 C 
BRANCH  15  17
HETATM   17  O   UNL     1       9.187 -10.024 -20.079  1.00  0.00    -0.394 OA
ATOM     18  HO  UNL     1      10.001  -9.534 -20.073  1.00  0.00     0.210 HD
ENDBRANCH  15  17
ENDBRANCH   2  10
TORSDOF 2
