REMARK  3 active torsions:
REMARK  status: ('A' for Active; 'I' for Inactive)
REMARK    1  A    between atoms: C_2  and  C_3 
REMARK    2  A    between atoms: C_3  and  O_7 
REMARK    3  A    between atoms: O_15  and  C_20 
ROOT
HETATM    1  C   UNL     1      15.035   5.080  11.336  1.00  0.00     0.164 C 
HETATM    2  C   UNL     1      14.227   6.937  12.742  1.00  0.00     0.012 C 
HETATM    3  C   UNL     1      14.656   6.507  11.536  1.00  0.00     0.022 C 
HETATM    4  C   UNL     1      14.592   6.715  16.409  1.00  0.00     0.037 C 
HETATM    5  C   UNL     1      14.662   7.066  15.087  1.00  0.00     0.015 C 
HETATM    6  C   UNL     1      15.196   5.006  13.881  1.00  0.00     0.024 C 
HETATM    7  C   UNL     1      15.530   4.406  12.583  1.00  0.00     0.200 C 
HETATM    8  C   UNL     1      14.489   5.437  16.923  1.00  0.00     0.065 C 
HETATM    9  O   UNL     1      16.198   3.383  12.540  1.00  0.00    -0.288 OA
HETATM   10  C   UNL     1      15.349   4.188  14.986  1.00  0.00     0.019 C 
HETATM   11  C   UNL     1      15.077   4.350  16.302  1.00  0.00     0.037 C 
HETATM   12  C   UNL     1      14.687   6.287  13.935  1.00  0.00    -0.022 C 
ENDROOT
BRANCH   1  13
HETATM   13  C   UNL     1      16.086   4.982  10.235  1.00  0.00     0.151 C 
HETATM   14  N   UNL     1      15.853   3.727   9.532  1.00  0.00    -0.378 N 
HETATM   15  C   UNL     1      16.889   2.995   9.037  1.00  0.00     0.038 C 
ATOM     16  HN  UNL     1      14.898   3.391   9.409  1.00  0.00     0.160 HD
HETATM   17  C   UNL     1      18.090   3.004   9.742  1.00  0.00    -0.010 C 
HETATM   18  C   UNL     1      16.770   2.384   7.811  1.00  0.00     0.030 C 
HETATM   19  C   UNL     1      18.903   1.887   9.811  1.00  0.00     0.013 C 
HETATM   20  C   UNL     1      18.456   4.234  10.404  1.00  0.00     0.012 C 
HETATM   21  C   UNL     1      19.314   1.139   8.732  1.00  0.00     0.001 C 
HETATM   22  C   UNL     1      18.833   1.120   7.468  1.00  0.00     0.000 C 
HETATM   23  C   UNL     1      17.640   1.671   7.074  1.00  0.00     0.002 C 
HETATM   24  C   UNL     1      17.490   5.137  10.718  1.00  0.00     0.003 C 
ENDBRANCH   1  13
BRANCH   1  25
HETATM   25  O   UNL     1      13.858   4.411  10.919  1.00  0.00    -0.375 OA
ATOM     26  HO  UNL     1      13.203   4.472  11.605  1.00  0.00     0.211 HD
ENDBRANCH   1  25
BRANCH   8  27
HETATM   27  O   UNL     1      13.775   5.218  18.059  1.00  0.00    -0.361 OA
ATOM     28  HO  UNL     1      13.704   4.339  18.412  1.00  0.00     0.217 HD
ENDBRANCH   8  27
TORSDOF 3
