REMARK  7 active torsions:
REMARK  status: ('A' for Active; 'I' for Inactive)
REMARK    1  A    between atoms: C_2  and  C_7 
REMARK    2  A    between atoms: O_3  and  P_17 
REMARK    3  A    between atoms: O_3  and  C_28 
REMARK    4  A    between atoms: C_6  and  C_7 
REMARK    5  A    between atoms: O_8  and  C_30 
REMARK    6  A    between atoms: O_15  and  C_26 
REMARK    7  A    between atoms: C_24  and  C_36 
ROOT
HETATM    1  C   UNL     1       3.490   9.963 -52.122  1.00  0.00     0.081 A 
HETATM    2  C   UNL     1       5.115   8.032 -53.383  1.00  0.00     0.048 A 
HETATM    3  C   UNL     1       3.717   8.705 -51.498  1.00  0.00     0.029 A 
HETATM    4  C   UNL     1       4.548   7.724 -52.123  1.00  0.00     0.034 A 
HETATM    5  C   UNL     1       1.617  10.400 -50.802  1.00  0.00     0.091 C 
HETATM    6  N   UNL     1       2.646  10.891 -51.520  1.00  0.00    -0.363 N 
ATOM      7  HN  UNL     1       2.799  11.895 -51.618  1.00  0.00     0.165 HD
HETATM    8  C   UNL     1       4.905   9.301 -53.973  1.00  0.00     0.115 A 
HETATM    9  C   UNL     1       2.928   8.520 -50.245  1.00  0.00     0.096 C 
HETATM   10  C   UNL     1       4.088  10.242 -53.353  1.00  0.00     0.127 A 
HETATM   11  C   UNL     1       1.684   9.116 -50.256  1.00  0.00     0.055 C 
ENDROOT
BRANCH   2  12
HETATM   12  C   UNL     1       6.010   7.112 -54.203  1.00  0.00     0.174 C 
HETATM   13  O   UNL     1       7.187   7.447 -54.259  1.00  0.00    -0.291 OA
BRANCH  12  14
HETATM   14  C   UNL     1       5.559   5.940 -55.088  1.00  0.00     0.136 C 
HETATM   15  C   UNL     1       6.662   5.494 -56.062  1.00  0.00     0.025 C 
HETATM   16  C   UNL     1       7.658   4.552 -55.367  1.00  0.00     0.040 C 
HETATM   17  C   UNL     1       6.976   3.343 -54.759  1.00  0.00    -0.044 C 
HETATM   18  C   UNL     1       5.748   3.543 -54.051  1.00  0.00     0.018 C 
HETATM   19  C   UNL     1       7.434   2.034 -54.922  1.00  0.00     0.009 C 
HETATM   20  C   UNL     1       4.911   4.748 -54.380  1.00  0.00     0.171 C 
HETATM   21  C   UNL     1       5.347   2.567 -53.125  1.00  0.00     0.034 C 
HETATM   22  O   UNL     1       3.727   4.790 -54.122  1.00  0.00    -0.291 OA
HETATM   23  C   UNL     1       5.900   1.283 -53.202  1.00  0.00     0.041 C 
HETATM   24  C   UNL     1       6.878   0.991 -54.167  1.00  0.00     0.019 C 
BRANCH  23  25
HETATM   25  C   UNL     1       5.499   0.257 -52.177  1.00  0.00     0.209 C 
HETATM   26  O   UNL     1       4.410   0.408 -51.556  1.00  0.00    -0.644 OA
HETATM   27  O   UNL     1       6.258  -0.731 -51.982  1.00  0.00    -0.644 OA
ENDBRANCH  23  25
ENDBRANCH  12  14
ENDBRANCH   2  12
BRANCH   8  28
HETATM   28  O   UNL     1       5.540   9.633 -55.140  1.00  0.00    -0.357 OA
ATOM     29  HO  UNL     1       5.399  10.485 -55.536  1.00  0.00     0.217 HD
ENDBRANCH   8  28
BRANCH  10  30
HETATM   30  O   UNL     1       3.806  11.426 -53.988  1.00  0.00    -0.356 OA
ATOM     31  HO  UNL     1       4.213  11.616 -54.825  1.00  0.00     0.218 HD
ENDBRANCH  10  30
BRANCH   9  32
HETATM   32  O   UNL     1       3.425   8.205 -49.001  1.00  0.00    -0.239 OA
BRANCH  32  33
HETATM   33  P   UNL     1       4.684   8.603 -48.165  1.00  0.00     0.427 P 
HETATM   34  O   UNL     1       4.537   8.629 -46.675  1.00  0.00    -0.617 OA
HETATM   35  O   UNL     1       5.279   9.856 -48.684  1.00  0.00    -0.617 OA
HETATM   36  O   UNL     1       5.532   7.416 -48.359  1.00  0.00    -0.617 OA
ENDBRANCH  32  33
ENDBRANCH   9  32
TORSDOF 7
