MODEL 1
REMARK VINA RESULT:     -10.3      0.000      0.000
REMARK  7 active torsions:
REMARK  status: ('A' for Active; 'I' for Inactive)
REMARK    1  A    between atoms: C_1  and  C_12 
REMARK    2  A    between atoms: C_13  and  C_38 
REMARK    3  A    between atoms: C_19  and  O_32 
REMARK    4  A    between atoms: C_23  and  P_40 
REMARK    5  A    between atoms: O_25  and  C_35 
REMARK    6  A    between atoms: O_28  and  C_42 
REMARK    7  A    between atoms: C_30  and  O_36 
ROOT
HETATM    1  C   UNL     1       4.598   9.704 -52.999  1.00  0.00     0.028 C 
HETATM    2  N   UNL     1       2.893  12.698 -53.817  1.00  0.00    -0.347 N 
ATOM      3  HN  UNL     1       2.457  13.460 -53.298  1.00  0.00     0.163 HD
HETATM    4  C   UNL     1       3.922  10.037 -51.758  1.00  0.00     0.060 C 
HETATM    5  C   UNL     1       4.373  10.803 -53.871  1.00  0.00     0.003 C 
HETATM    6  N   UNL     1       3.148  11.130 -51.961  1.00  0.00    -0.341 N 
ATOM      7  HN  UNL     1       2.491  11.534 -51.294  1.00  0.00     0.167 HD
HETATM    8  C   UNL     1       3.019  12.701 -55.276  1.00  0.00     0.248 C 
HETATM    9  C   UNL     1       3.405  11.590 -53.212  1.00  0.00     0.111 C 
HETATM   10  C   UNL     1       4.520  12.665 -55.528  1.00  0.00     0.171 C 
HETATM   11  C   UNL     1       5.074  11.286 -55.116  1.00  0.00     0.079 C 
ENDROOT
BRANCH   1  12
HETATM   12  C   UNL     1       5.260   8.422 -53.285  1.00  0.00     0.048 C 
HETATM   13  N   UNL     1       4.779   7.225 -52.792  1.00  0.00    -0.335 N 
HETATM   14  C   UNL     1       5.380   6.240 -53.498  1.00  0.00     0.162 C 
ATOM     15  HN  UNL     1       4.101   7.106 -52.039  1.00  0.00     0.168 HD
HETATM   16  C   UNL     1       6.285   6.810 -54.430  1.00  0.00     0.051 C 
HETATM   17  O   UNL     1       5.100   4.897 -53.507  1.00  0.00    -0.283 OA
HETATM   18  C   UNL     1       6.350   8.199 -54.136  1.00  0.00     0.049 C 
HETATM   19  C   UNL     1       6.725   5.952 -55.504  1.00  0.00     0.083 C 
HETATM   20  C   UNL     1       6.709   4.563 -55.295  1.00  0.00     0.085 C 
HETATM   21  C   UNL     1       6.058   4.112 -54.139  1.00  0.00     0.183 C 
BRANCH  19  22
HETATM   22  O   UNL     1       6.803   6.406 -56.791  1.00  0.00    -0.360 OA
ATOM     23  HO  UNL     1       7.047   5.829 -57.505  1.00  0.00     0.217 HD
ENDBRANCH  19  22
BRANCH  21  24
HETATM   24  P   UNL     1       6.163   2.408 -53.618  1.00  0.00     0.320 P 
HETATM   25  O   UNL     1       5.362   1.591 -54.593  1.00  0.00    -0.635 OA
HETATM   26  O   UNL     1       7.602   2.010 -53.608  1.00  0.00    -0.635 OA
HETATM   27  O   UNL     1       5.552   2.373 -52.247  1.00  0.00    -0.635 OA
ENDBRANCH  21  24
ENDBRANCH   1  12
BRANCH   4  28
HETATM   28  C   UNL     1       4.204   9.486 -50.432  1.00  0.00     0.023 C 
HETATM   29  C   UNL     1       3.245   8.729 -49.776  1.00  0.00     0.109 C 
HETATM   30  N   UNL     1       3.466   8.331 -48.494  1.00  0.00    -0.304 N 
HETATM   31  C   UNL     1       4.779   8.216 -48.003  1.00  0.00     0.350 C 
ATOM     32  HN  UNL     1       2.676   8.115 -47.886  1.00  0.00     0.171 HD
HETATM   33  N   UNL     1       5.526   9.352 -48.490  1.00  0.00    -0.304 N 
HETATM   34  O   UNL     1       5.291   7.088 -48.393  1.00  0.00    -0.227 OA
HETATM   35  C   UNL     1       5.417   9.676 -49.824  1.00  0.00     0.109 C 
ATOM     36  HN  UNL     1       6.118   9.897 -47.864  1.00  0.00     0.171 HD
BRANCH  31  37
HETATM   37  O   UNL     1       4.764   8.306 -46.687  1.00  0.00    -0.306 OA
ATOM     38  HO  UNL     1       4.361   7.527 -46.322  1.00  0.00     0.224 HD
ENDBRANCH  31  37
ENDBRANCH   4  28
BRANCH  10  39
HETATM   39  O   UNL     1       4.868  13.000 -56.859  1.00  0.00    -0.391 OA
ATOM     40  HO  UNL     1       5.244  13.869 -56.938  1.00  0.00     0.210 HD
ENDBRANCH  10  39
BRANCH   8  41
HETATM   41  O   UNL     1       2.498  13.911 -55.821  1.00  0.00    -0.374 OA
ATOM     42  HO  UNL     1       2.012  14.392 -55.162  1.00  0.00     0.212 HD
ENDBRANCH   8  41
TORSDOF 7
ENDMDL
MODEL 2
REMARK VINA RESULT:      -9.6      4.108      9.415
REMARK  7 active torsions:
REMARK  status: ('A' for Active; 'I' for Inactive)
REMARK    1  A    between atoms: C_1  and  C_12 
REMARK    2  A    between atoms: C_13  and  C_38 
REMARK    3  A    between atoms: C_19  and  O_32 
REMARK    4  A    between atoms: C_23  and  P_40 
REMARK    5  A    between atoms: O_25  and  C_35 
REMARK    6  A    between atoms: O_28  and  C_42 
REMARK    7  A    between atoms: C_30  and  O_36 
ROOT
HETATM    1  C   UNL     1       4.354   2.975 -54.187  1.00  0.00     0.028 C 
HETATM    2  N   UNL     1       3.817  -0.446 -53.449  1.00  0.00    -0.347 N 
ATOM      3  HN  UNL     1       3.808  -1.318 -53.977  1.00  0.00     0.163 HD
HETATM    4  C   UNL     1       4.088   2.403 -55.495  1.00  0.00     0.060 C 
HETATM    5  C   UNL     1       4.420   1.877 -53.289  1.00  0.00     0.003 C 
HETATM    6  N   UNL     1       3.772   1.095 -55.344  1.00  0.00    -0.341 N 
ATOM      7  HN  UNL     1       3.449   0.465 -56.079  1.00  0.00     0.167 HD
HETATM    8  C   UNL     1       3.676  -0.398 -51.992  1.00  0.00     0.248 C 
HETATM    9  C   UNL     1       3.962   0.773 -54.039  1.00  0.00     0.111 C 
HETATM   10  C   UNL     1       4.978   0.223 -51.504  1.00  0.00     0.171 C 
HETATM   11  C   UNL     1       5.021   1.708 -51.916  1.00  0.00     0.079 C 
ENDROOT
BRANCH   1  12
HETATM   12  C   UNL     1       4.410   4.415 -53.888  1.00  0.00     0.048 C 
HETATM   13  N   UNL     1       4.119   4.913 -52.633  1.00  0.00    -0.335 N 
HETATM   14  C   UNL     1       4.590   6.181 -52.595  1.00  0.00     0.162 C 
ATOM     15  HN  UNL     1       3.641   4.419 -51.879  1.00  0.00     0.168 HD
HETATM   16  C   UNL     1       5.157   6.513 -53.853  1.00  0.00     0.051 C 
HETATM   17  O   UNL     1       4.705   7.022 -51.518  1.00  0.00    -0.283 OA
HETATM   18  C   UNL     1       4.846   5.442 -54.734  1.00  0.00     0.049 C 
HETATM   19  C   UNL     1       6.026   7.665 -53.880  1.00  0.00     0.083 C 
HETATM   20  C   UNL     1       5.847   8.657 -52.902  1.00  0.00     0.085 C 
HETATM   21  C   UNL     1       4.982   8.344 -51.845  1.00  0.00     0.183 C 
BRANCH  19  22
HETATM   22  O   UNL     1       7.208   7.647 -54.568  1.00  0.00    -0.360 OA
ATOM     23  HO  UNL     1       7.857   8.331 -54.452  1.00  0.00     0.217 HD
ENDBRANCH  19  22
BRANCH  21  24
HETATM   24  P   UNL     1       4.471   9.582 -50.665  1.00  0.00     0.320 P 
HETATM   25  O   UNL     1       3.311   9.015 -49.895  1.00  0.00    -0.635 OA
HETATM   26  O   UNL     1       5.632   9.888 -49.777  1.00  0.00    -0.635 OA
HETATM   27  O   UNL     1       4.053  10.767 -51.487  1.00  0.00    -0.635 OA
ENDBRANCH  21  24
ENDBRANCH   1  12
BRANCH   4  28
HETATM   28  C   UNL     1       4.365   3.020 -56.793  1.00  0.00     0.023 C 
HETATM   29  C   UNL     1       3.321   3.484 -57.578  1.00  0.00     0.109 C 
HETATM   30  N   UNL     1       3.576   3.935 -58.836  1.00  0.00    -0.304 N 
HETATM   31  C   UNL     1       4.855   4.415 -59.172  1.00  0.00     0.350 C 
ATOM     32  HN  UNL     1       2.837   3.926 -59.539  1.00  0.00     0.171 HD
HETATM   33  N   UNL     1       5.823   3.529 -58.568  1.00  0.00    -0.304 N 
HETATM   34  O   UNL     1       4.982   5.639 -58.755  1.00  0.00    -0.227 OA
HETATM   35  C   UNL     1       5.647   3.179 -57.248  1.00  0.00     0.109 C 
ATOM     36  HN  UNL     1       6.615   3.175 -59.104  1.00  0.00     0.171 HD
BRANCH  31  37
HETATM   37  O   UNL     1       5.026   4.332 -60.476  1.00  0.00    -0.306 OA
ATOM     38  HO  UNL     1       5.311   5.174 -60.811  1.00  0.00     0.224 HD
ENDBRANCH  31  37
ENDBRANCH   4  28
BRANCH  10  39
HETATM   39  O   UNL     1       5.188   0.051 -50.114  1.00  0.00    -0.391 OA
ATOM     40  HO  UNL     1       5.336   0.870 -49.656  1.00  0.00     0.210 HD
ENDBRANCH  10  39
BRANCH   8  41
HETATM   41  O   UNL     1       3.574  -1.715 -51.455  1.00  0.00    -0.374 OA
ATOM     42  HO  UNL     1       2.982  -1.727 -50.712  1.00  0.00     0.212 HD
ENDBRANCH   8  41
TORSDOF 7
ENDMDL
MODEL 3
REMARK VINA RESULT:      -9.3      4.712      9.310
REMARK  7 active torsions:
REMARK  status: ('A' for Active; 'I' for Inactive)
REMARK    1  A    between atoms: C_1  and  C_12 
REMARK    2  A    between atoms: C_13  and  C_38 
REMARK    3  A    between atoms: C_19  and  O_32 
REMARK    4  A    between atoms: C_23  and  P_40 
REMARK    5  A    between atoms: O_25  and  C_35 
REMARK    6  A    between atoms: O_28  and  C_42 
REMARK    7  A    between atoms: C_30  and  O_36 
ROOT
HETATM    1  C   UNL     1       4.104   2.234 -53.786  1.00  0.00     0.028 C 
HETATM    2  N   UNL     1       5.002  -1.029 -52.743  1.00  0.00    -0.347 N 
ATOM      3  HN  UNL     1       4.575  -1.954 -52.777  1.00  0.00     0.163 HD
HETATM    4  C   UNL     1       2.832   1.533 -53.795  1.00  0.00     0.060 C 
HETATM    5  C   UNL     1       5.089   1.247 -53.517  1.00  0.00     0.003 C 
HETATM    6  N   UNL     1       3.021   0.278 -53.321  1.00  0.00    -0.341 N 
ATOM      7  HN  UNL     1       2.292  -0.409 -53.129  1.00  0.00     0.167 HD
HETATM    8  C   UNL     1       6.363  -0.800 -52.252  1.00  0.00     0.248 C 
HETATM    9  C   UNL     1       4.355   0.099 -53.150  1.00  0.00     0.111 C 
HETATM   10  C   UNL     1       7.107  -0.222 -53.448  1.00  0.00     0.171 C 
HETATM   11  C   UNL     1       6.580   1.197 -53.741  1.00  0.00     0.079 C 
ENDROOT
BRANCH   1  12
HETATM   12  C   UNL     1       4.268   3.690 -53.911  1.00  0.00     0.048 C 
HETATM   13  N   UNL     1       4.265   4.523 -52.809  1.00  0.00    -0.335 N 
HETATM   14  C   UNL     1       4.773   5.711 -53.213  1.00  0.00     0.162 C 
ATOM     15  HN  UNL     1       3.941   4.289 -51.870  1.00  0.00     0.168 HD
HETATM   16  C   UNL     1       5.072   5.650 -54.599  1.00  0.00     0.051 C 
HETATM   17  O   UNL     1       5.140   6.791 -52.452  1.00  0.00    -0.283 OA
HETATM   18  C   UNL     1       4.548   4.417 -55.075  1.00  0.00     0.049 C 
HETATM   19  C   UNL     1       5.953   6.673 -55.110  1.00  0.00     0.083 C 
HETATM   20  C   UNL     1       6.016   7.898 -54.427  1.00  0.00     0.085 C 
HETATM   21  C   UNL     1       5.385   7.951 -53.177  1.00  0.00     0.183 C 
BRANCH  19  22
HETATM   22  O   UNL     1       6.961   6.371 -55.983  1.00  0.00    -0.360 OA
ATOM     23  HO  UNL     1       6.777   6.058 -56.861  1.00  0.00     0.217 HD
ENDBRANCH  19  22
BRANCH  21  24
HETATM   24  P   UNL     1       5.175   9.495 -52.307  1.00  0.00     0.320 P 
HETATM   25  O   UNL     1       3.721   9.868 -52.401  1.00  0.00    -0.635 OA
HETATM   26  O   UNL     1       5.607   9.296 -50.891  1.00  0.00    -0.635 OA
HETATM   27  O   UNL     1       6.039  10.483 -53.035  1.00  0.00    -0.635 OA
ENDBRANCH  21  24
ENDBRANCH   1  12
BRANCH   4  28
HETATM   28  C   UNL     1       1.595   1.970 -54.444  1.00  0.00     0.023 C 
HETATM   29  C   UNL     1       0.907   3.071 -53.957  1.00  0.00     0.109 C 
HETATM   30  N   UNL     1      -0.306   3.391 -54.483  1.00  0.00    -0.304 N 
HETATM   31  C   UNL     1      -0.642   2.986 -55.787  1.00  0.00     0.350 C 
ATOM     32  HN  UNL     1      -0.974   3.926 -53.930  1.00  0.00     0.171 HD
HETATM   33  N   UNL     1      -0.175   1.630 -55.955  1.00  0.00    -0.304 N 
HETATM   34  O   UNL     1      -0.105   3.800 -56.646  1.00  0.00    -0.227 OA
HETATM   35  C   UNL     1       1.107   1.330 -55.552  1.00  0.00     0.109 C 
ATOM     36  HN  UNL     1      -0.778   0.914 -56.362  1.00  0.00     0.171 HD
BRANCH  31  37
HETATM   37  O   UNL     1      -1.955   2.955 -55.912  1.00  0.00    -0.306 OA
ATOM     38  HO  UNL     1      -2.211   3.463 -56.673  1.00  0.00     0.224 HD
ENDBRANCH  31  37
ENDBRANCH   4  28
BRANCH  10  39
HETATM   39  O   UNL     1       8.514  -0.244 -53.290  1.00  0.00    -0.391 OA
ATOM     40  HO  UNL     1       8.917   0.607 -53.422  1.00  0.00     0.210 HD
ENDBRANCH  10  39
BRANCH   8  41
HETATM   41  O   UNL     1       6.979  -2.033 -51.889  1.00  0.00    -0.374 OA
ATOM     42  HO  UNL     1       6.637  -2.345 -51.059  1.00  0.00     0.212 HD
ENDBRANCH   8  41
TORSDOF 7
ENDMDL
MODEL 4
REMARK VINA RESULT:      -9.1      3.313      6.526
REMARK  7 active torsions:
REMARK  status: ('A' for Active; 'I' for Inactive)
REMARK    1  A    between atoms: C_1  and  C_12 
REMARK    2  A    between atoms: C_13  and  C_38 
REMARK    3  A    between atoms: C_19  and  O_32 
REMARK    4  A    between atoms: C_23  and  P_40 
REMARK    5  A    between atoms: O_25  and  C_35 
REMARK    6  A    between atoms: O_28  and  C_42 
REMARK    7  A    between atoms: C_30  and  O_36 
ROOT
HETATM    1  C   UNL     1       4.926   6.053 -52.984  1.00  0.00     0.028 C 
HETATM    2  N   UNL     1       5.252   9.450 -52.041  1.00  0.00    -0.347 N 
ATOM      3  HN  UNL     1       5.358  10.340 -52.527  1.00  0.00     0.163 HD
HETATM    4  C   UNL     1       5.447   6.672 -54.191  1.00  0.00     0.060 C 
HETATM    5  C   UNL     1       4.662   7.118 -52.084  1.00  0.00     0.003 C 
HETATM    6  N   UNL     1       5.707   7.976 -53.935  1.00  0.00    -0.341 N 
ATOM      7  HN  UNL     1       6.165   8.634 -54.567  1.00  0.00     0.167 HD
HETATM    8  C   UNL     1       5.091   9.353 -50.589  1.00  0.00     0.248 C 
HETATM    9  C   UNL     1       5.249   8.251 -52.687  1.00  0.00     0.111 C 
HETATM   10  C   UNL     1       3.726   8.706 -50.399  1.00  0.00     0.171 C 
HETATM   11  C   UNL     1       3.789   7.235 -50.859  1.00  0.00     0.079 C 
ENDROOT
BRANCH   1  12
HETATM   12  C   UNL     1       4.830   4.604 -52.751  1.00  0.00     0.048 C 
HETATM   13  N   UNL     1       3.696   3.885 -53.076  1.00  0.00    -0.335 N 
HETATM   14  C   UNL     1       4.044   2.577 -53.068  1.00  0.00     0.162 C 
ATOM     15  HN  UNL     1       2.772   4.266 -53.281  1.00  0.00     0.168 HD
HETATM   16  C   UNL     1       5.409   2.454 -52.698  1.00  0.00     0.051 C 
HETATM   17  O   UNL     1       3.322   1.494 -53.500  1.00  0.00    -0.283 OA
HETATM   18  C   UNL     1       5.840   3.747 -52.296  1.00  0.00     0.049 C 
HETATM   19  C   UNL     1       6.042   1.191 -52.997  1.00  0.00     0.083 C 
HETATM   20  C   UNL     1       5.232   0.049 -53.100  1.00  0.00     0.085 C 
HETATM   21  C   UNL     1       3.847   0.264 -53.123  1.00  0.00     0.183 C 
BRANCH  19  22
HETATM   22  O   UNL     1       7.302   1.135 -53.526  1.00  0.00    -0.360 OA
ATOM     23  HO  UNL     1       7.444   0.929 -54.442  1.00  0.00     0.217 HD
ENDBRANCH  19  22
BRANCH  21  24
HETATM   24  P   UNL     1       2.694  -1.094 -53.008  1.00  0.00     0.320 P 
HETATM   25  O   UNL     1       2.707  -1.806 -54.332  1.00  0.00    -0.635 OA
HETATM   26  O   UNL     1       3.132  -1.986 -51.893  1.00  0.00    -0.635 OA
HETATM   27  O   UNL     1       1.359  -0.461 -52.743  1.00  0.00    -0.635 OA
ENDBRANCH  21  24
ENDBRANCH   1  12
BRANCH   4  28
HETATM   28  C   UNL     1       5.452   6.099 -55.537  1.00  0.00     0.023 C 
HETATM   29  C   UNL     1       4.347   5.400 -55.999  1.00  0.00     0.109 C 
HETATM   30  N   UNL     1       4.410   4.761 -57.198  1.00  0.00    -0.304 N 
HETATM   31  C   UNL     1       5.320   5.188 -58.182  1.00  0.00     0.350 C 
ATOM     32  HN  UNL     1       3.795   3.969 -57.385  1.00  0.00     0.171 HD
HETATM   33  N   UNL     1       6.566   5.493 -57.519  1.00  0.00    -0.304 N 
HETATM   34  O   UNL     1       4.831   6.217 -58.807  1.00  0.00    -0.227 OA
HETATM   35  C   UNL     1       6.522   6.261 -56.377  1.00  0.00     0.109 C 
ATOM     36  HN  UNL     1       7.453   5.149 -57.887  1.00  0.00     0.171 HD
BRANCH  31  37
HETATM   37  O   UNL     1       5.564   4.194 -59.014  1.00  0.00    -0.306 OA
ATOM     38  HO  UNL     1       5.037   4.301 -59.797  1.00  0.00     0.224 HD
ENDBRANCH  31  37
ENDBRANCH   4  28
BRANCH  10  39
HETATM   39  O   UNL     1       3.233   8.827 -49.077  1.00  0.00    -0.391 OA
ATOM     40  HO  UNL     1       3.607   9.562 -48.606  1.00  0.00     0.210 HD
ENDBRANCH  10  39
BRANCH   8  41
HETATM   41  O   UNL     1       5.063  10.650 -49.999  1.00  0.00    -0.374 OA
ATOM     42  HO  UNL     1       4.197  11.033 -50.075  1.00  0.00     0.212 HD
ENDBRANCH   8  41
TORSDOF 7
ENDMDL
MODEL 5
REMARK VINA RESULT:      -9.0      4.351      9.036
REMARK  7 active torsions:
REMARK  status: ('A' for Active; 'I' for Inactive)
REMARK    1  A    between atoms: C_1  and  C_12 
REMARK    2  A    between atoms: C_13  and  C_38 
REMARK    3  A    between atoms: C_19  and  O_32 
REMARK    4  A    between atoms: C_23  and  P_40 
REMARK    5  A    between atoms: O_25  and  C_35 
REMARK    6  A    between atoms: O_28  and  C_42 
REMARK    7  A    between atoms: C_30  and  O_36 
ROOT
HETATM    1  C   UNL     1       4.972   2.702 -54.670  1.00  0.00     0.028 C 
HETATM    2  N   UNL     1       6.627  -0.419 -54.905  1.00  0.00    -0.347 N 
ATOM      3  HN  UNL     1       6.367  -1.370 -55.165  1.00  0.00     0.163 HD
HETATM    4  C   UNL     1       3.870   1.756 -54.694  1.00  0.00     0.060 C 
HETATM    5  C   UNL     1       6.145   1.937 -54.903  1.00  0.00     0.003 C 
HETATM    6  N   UNL     1       4.373   0.499 -54.691  1.00  0.00    -0.341 N 
ATOM      7  HN  UNL     1       3.835  -0.365 -54.613  1.00  0.00     0.167 HD
HETATM    8  C   UNL     1       8.005  -0.028 -54.600  1.00  0.00     0.248 C 
HETATM    9  C   UNL     1       5.722   0.595 -54.811  1.00  0.00     0.111 C 
HETATM   10  C   UNL     1       8.344   1.020 -55.651  1.00  0.00     0.171 C 
HETATM   11  C   UNL     1       7.531   2.302 -55.376  1.00  0.00     0.079 C 
ENDROOT
BRANCH   1  12
HETATM   12  C   UNL     1       4.853   4.131 -54.341  1.00  0.00     0.048 C 
HETATM   13  N   UNL     1       4.711   4.573 -53.040  1.00  0.00    -0.335 N 
HETATM   14  C   UNL     1       4.977   5.900 -53.045  1.00  0.00     0.162 C 
ATOM     15  HN  UNL     1       4.455   4.007 -52.231  1.00  0.00     0.168 HD
HETATM   16  C   UNL     1       5.256   6.322 -54.371  1.00  0.00     0.051 C 
HETATM   17  O   UNL     1       5.145   6.746 -51.978  1.00  0.00    -0.283 OA
HETATM   18  C   UNL     1       4.968   5.217 -55.218  1.00  0.00     0.049 C 
HETATM   19  C   UNL     1       5.916   7.597 -54.512  1.00  0.00     0.083 C 
HETATM   20  C   UNL     1       5.757   8.545 -53.488  1.00  0.00     0.085 C 
HETATM   21  C   UNL     1       5.150   8.096 -52.308  1.00  0.00     0.183 C 
BRANCH  19  22
HETATM   22  O   UNL     1       6.947   7.771 -55.393  1.00  0.00    -0.360 OA
ATOM     23  HO  UNL     1       7.632   8.409 -55.233  1.00  0.00     0.217 HD
ENDBRANCH  19  22
BRANCH  21  24
HETATM   24  P   UNL     1       4.666   9.233 -51.020  1.00  0.00     0.320 P 
HETATM   25  O   UNL     1       4.634  10.609 -51.626  1.00  0.00    -0.635 OA
HETATM   26  O   UNL     1       3.324   8.819 -50.512  1.00  0.00    -0.635 OA
HETATM   27  O   UNL     1       5.733   9.124 -49.970  1.00  0.00    -0.635 OA
ENDBRANCH  21  24
ENDBRANCH   1  12
BRANCH   4  28
HETATM   28  C   UNL     1       2.461   2.059 -54.951  1.00  0.00     0.023 C 
HETATM   29  C   UNL     1       1.811   3.027 -54.202  1.00  0.00     0.109 C 
HETATM   30  N   UNL     1       0.472   3.210 -54.358  1.00  0.00    -0.304 N 
HETATM   31  C   UNL     1      -0.159   2.837 -55.558  1.00  0.00     0.350 C 
ATOM     32  HN  UNL     1      -0.077   3.618 -53.601  1.00  0.00     0.171 HD
HETATM   33  N   UNL     1       0.396   1.568 -55.967  1.00  0.00    -0.304 N 
HETATM   34  O   UNL     1       0.025   3.764 -56.451  1.00  0.00    -0.227 OA
HETATM   35  C   UNL     1       1.766   1.423 -55.945  1.00  0.00     0.109 C 
ATOM     36  HN  UNL     1      -0.208   0.802 -56.263  1.00  0.00     0.171 HD
BRANCH  31  37
HETATM   37  O   UNL     1      -1.443   2.637 -55.335  1.00  0.00    -0.306 OA
ATOM     38  HO  UNL     1      -1.591   1.717 -55.149  1.00  0.00     0.224 HD
ENDBRANCH  31  37
ENDBRANCH   4  28
BRANCH  10  39
HETATM   39  O   UNL     1       9.733   1.283 -55.744  1.00  0.00    -0.391 OA
ATOM     40  HO  UNL     1      10.070   1.195 -56.628  1.00  0.00     0.210 HD
ENDBRANCH  10  39
BRANCH   8  41
HETATM   41  O   UNL     1       8.888  -1.135 -54.763  1.00  0.00    -0.374 OA
ATOM     42  HO  UNL     1       9.451  -1.005 -55.517  1.00  0.00     0.212 HD
ENDBRANCH   8  41
TORSDOF 7
ENDMDL
MODEL 6
REMARK VINA RESULT:      -8.5      4.635      8.775
REMARK  7 active torsions:
REMARK  status: ('A' for Active; 'I' for Inactive)
REMARK    1  A    between atoms: C_1  and  C_12 
REMARK    2  A    between atoms: C_13  and  C_38 
REMARK    3  A    between atoms: C_19  and  O_32 
REMARK    4  A    between atoms: C_23  and  P_40 
REMARK    5  A    between atoms: O_25  and  C_35 
REMARK    6  A    between atoms: O_28  and  C_42 
REMARK    7  A    between atoms: C_30  and  O_36 
ROOT
HETATM    1  C   UNL     1       4.475   2.925 -56.105  1.00  0.00     0.028 C 
HETATM    2  N   UNL     1       5.536  -0.217 -57.345  1.00  0.00    -0.347 N 
ATOM      3  HN  UNL     1       5.090  -1.107 -57.569  1.00  0.00     0.163 HD
HETATM    4  C   UNL     1       3.366   2.054 -55.760  1.00  0.00     0.060 C 
HETATM    5  C   UNL     1       5.357   2.138 -56.892  1.00  0.00     0.003 C 
HETATM    6  N   UNL     1       3.685   0.783 -56.102  1.00  0.00    -0.341 N 
ATOM      7  HN  UNL     1       3.138  -0.052 -55.895  1.00  0.00     0.167 HD
HETATM    8  C   UNL     1       6.950   0.051 -57.613  1.00  0.00     0.248 C 
HETATM    9  C   UNL     1       4.866   0.821 -56.771  1.00  0.00     0.111 C 
HETATM   10  C   UNL     1       6.937   1.217 -58.592  1.00  0.00     0.171 C 
HETATM   11  C   UNL     1       6.455   2.489 -57.866  1.00  0.00     0.079 C 
ENDROOT
BRANCH   1  12
HETATM   12  C   UNL     1       4.659   4.298 -55.610  1.00  0.00     0.048 C 
HETATM   13  N   UNL     1       4.188   4.698 -54.375  1.00  0.00    -0.335 N 
HETATM   14  C   UNL     1       4.804   5.867 -54.080  1.00  0.00     0.162 C 
ATOM     15  HN  UNL     1       3.507   4.208 -53.795  1.00  0.00     0.168 HD
HETATM   16  C   UNL     1       5.652   6.239 -55.155  1.00  0.00     0.051 C 
HETATM   17  O   UNL     1       4.808   6.560 -52.896  1.00  0.00    -0.283 OA
HETATM   18  C   UNL     1       5.388   5.330 -56.215  1.00  0.00     0.049 C 
HETATM   19  C   UNL     1       6.653   7.238 -54.865  1.00  0.00     0.083 C 
HETATM   20  C   UNL     1       6.412   8.136 -53.812  1.00  0.00     0.085 C 
HETATM   21  C   UNL     1       5.318   7.850 -52.985  1.00  0.00     0.183 C 
BRANCH  19  22
HETATM   22  O   UNL     1       7.936   7.111 -55.320  1.00  0.00    -0.360 OA
ATOM     23  HO  UNL     1       8.183   6.411 -55.912  1.00  0.00     0.217 HD
ENDBRANCH  19  22
BRANCH  21  24
HETATM   24  P   UNL     1       4.746   9.019 -51.763  1.00  0.00     0.320 P 
HETATM   25  O   UNL     1       5.600   8.842 -50.539  1.00  0.00    -0.635 OA
HETATM   26  O   UNL     1       4.872  10.393 -52.336  1.00  0.00    -0.635 OA
HETATM   27  O   UNL     1       3.318   8.643 -51.490  1.00  0.00    -0.635 OA
ENDBRANCH  21  24
ENDBRANCH   1  12
BRANCH   4  28
HETATM   28  C   UNL     1       2.019   2.466 -55.363  1.00  0.00     0.023 C 
HETATM   29  C   UNL     1       1.582   2.255 -54.065  1.00  0.00     0.109 C 
HETATM   30  N   UNL     1       0.288   2.521 -53.740  1.00  0.00    -0.304 N 
HETATM   31  C   UNL     1      -0.457   3.445 -54.494  1.00  0.00     0.350 C 
ATOM     32  HN  UNL     1      -0.144   2.048 -52.947  1.00  0.00     0.171 HD
HETATM   33  N   UNL     1      -0.147   3.220 -55.887  1.00  0.00    -0.304 N 
HETATM   34  O   UNL     1      -0.161   4.652 -54.115  1.00  0.00    -0.227 OA
HETATM   35  C   UNL     1       1.176   3.089 -56.245  1.00  0.00     0.109 C 
ATOM     36  HN  UNL     1      -0.888   3.159 -56.585  1.00  0.00     0.171 HD
BRANCH  31  37
HETATM   37  O   UNL     1      -1.743   3.198 -54.345  1.00  0.00    -0.306 OA
ATOM     38  HO  UNL     1      -1.865   2.580 -53.634  1.00  0.00     0.224 HD
ENDBRANCH  31  37
ENDBRANCH   4  28
BRANCH  10  39
HETATM   39  O   UNL     1       8.183   1.415 -59.236  1.00  0.00    -0.391 OA
ATOM     40  HO  UNL     1       8.155   1.227 -60.167  1.00  0.00     0.210 HD
ENDBRANCH  10  39
BRANCH   8  41
HETATM   41  O   UNL     1       7.561  -1.068 -58.250  1.00  0.00    -0.374 OA
ATOM     42  HO  UNL     1       7.334  -1.093 -59.171  1.00  0.00     0.212 HD
ENDBRANCH   8  41
TORSDOF 7
ENDMDL
MODEL 7
REMARK VINA RESULT:      -8.5      4.476      8.730
REMARK  7 active torsions:
REMARK  status: ('A' for Active; 'I' for Inactive)
REMARK    1  A    between atoms: C_1  and  C_12 
REMARK    2  A    between atoms: C_13  and  C_38 
REMARK    3  A    between atoms: C_19  and  O_32 
REMARK    4  A    between atoms: C_23  and  P_40 
REMARK    5  A    between atoms: O_25  and  C_35 
REMARK    6  A    between atoms: O_28  and  C_42 
REMARK    7  A    between atoms: C_30  and  O_36 
ROOT
HETATM    1  C   UNL     1       5.829   2.047 -55.477  1.00  0.00     0.028 C 
HETATM    2  N   UNL     1       7.360  -0.276 -57.668  1.00  0.00    -0.347 N 
ATOM      3  HN  UNL     1       7.470  -1.289 -57.704  1.00  0.00     0.163 HD
HETATM    4  C   UNL     1       5.930   0.851 -54.658  1.00  0.00     0.060 C 
HETATM    5  C   UNL     1       6.245   1.661 -56.779  1.00  0.00     0.003 C 
HETATM    6  N   UNL     1       6.590  -0.103 -55.356  1.00  0.00    -0.341 N 
ATOM      7  HN  UNL     1       6.887  -1.012 -55.000  1.00  0.00     0.167 HD
HETATM    8  C   UNL     1       7.808   0.610 -58.744  1.00  0.00     0.248 C 
HETATM    9  C   UNL     1       6.785   0.368 -56.614  1.00  0.00     0.111 C 
HETATM   10  C   UNL     1       6.536   1.291 -59.231  1.00  0.00     0.171 C 
HETATM   11  C   UNL     1       6.029   2.262 -58.145  1.00  0.00     0.079 C 
ENDROOT
BRANCH   1  12
HETATM   12  C   UNL     1       5.482   3.387 -54.979  1.00  0.00     0.048 C 
HETATM   13  N   UNL     1       5.314   3.646 -53.633  1.00  0.00    -0.335 N 
HETATM   14  C   UNL     1       5.350   4.991 -53.485  1.00  0.00     0.162 C 
ATOM     15  HN  UNL     1       5.188   2.956 -52.892  1.00  0.00     0.168 HD
HETATM   16  C   UNL     1       5.505   5.603 -54.756  1.00  0.00     0.051 C 
HETATM   17  O   UNL     1       5.411   5.725 -52.328  1.00  0.00    -0.283 OA
HETATM   18  C   UNL     1       5.378   4.569 -55.723  1.00  0.00     0.049 C 
HETATM   19  C   UNL     1       5.933   6.981 -54.755  1.00  0.00     0.083 C 
HETATM   20  C   UNL     1       5.653   7.764 -53.623  1.00  0.00     0.085 C 
HETATM   21  C   UNL     1       5.175   7.084 -52.495  1.00  0.00     0.183 C 
BRANCH  19  22
HETATM   22  O   UNL     1       6.887   7.430 -55.626  1.00  0.00    -0.360 OA
ATOM     23  HO  UNL     1       7.037   8.358 -55.759  1.00  0.00     0.217 HD
ENDBRANCH  19  22
BRANCH  21  24
HETATM   24  P   UNL     1       4.551   7.966 -51.074  1.00  0.00     0.320 P 
HETATM   25  O   UNL     1       3.218   8.547 -51.456  1.00  0.00    -0.635 OA
HETATM   26  O   UNL     1       4.433   7.002 -49.940  1.00  0.00    -0.635 OA
HETATM   27  O   UNL     1       5.558   9.046 -50.802  1.00  0.00    -0.635 OA
ENDBRANCH  21  24
ENDBRANCH   1  12
BRANCH   4  28
HETATM   28  C   UNL     1       5.223   0.587 -53.404  1.00  0.00     0.023 C 
HETATM   29  C   UNL     1       5.922   0.145 -52.292  1.00  0.00     0.109 C 
HETATM   30  N   UNL     1       5.241  -0.222 -51.173  1.00  0.00    -0.304 N 
HETATM   31  C   UNL     1       3.957   0.293 -50.923  1.00  0.00     0.350 C 
ATOM     32  HN  UNL     1       5.664  -0.874 -50.512  1.00  0.00     0.171 HD
HETATM   33  N   UNL     1       3.237   0.293 -52.176  1.00  0.00    -0.304 N 
HETATM   34  O   UNL     1       4.058   1.484 -50.416  1.00  0.00    -0.227 OA
HETATM   35  C   UNL     1       3.873   0.795 -53.289  1.00  0.00     0.109 C 
ATOM     36  HN  UNL     1       2.285  -0.069 -52.233  1.00  0.00     0.171 HD
BRANCH  31  37
HETATM   37  O   UNL     1       3.308  -0.520 -50.112  1.00  0.00    -0.306 OA
ATOM     38  HO  UNL     1       2.739  -0.012 -49.545  1.00  0.00     0.224 HD
ENDBRANCH  31  37
ENDBRANCH   4  28
BRANCH  10  39
HETATM   39  O   UNL     1       6.694   1.932 -60.484  1.00  0.00    -0.391 OA
ATOM     40  HO  UNL     1       6.229   1.494 -61.187  1.00  0.00     0.210 HD
ENDBRANCH  10  39
BRANCH   8  41
HETATM   41  O   UNL     1       8.356  -0.147 -59.821  1.00  0.00    -0.374 OA
ATOM     42  HO  UNL     1       9.129  -0.621 -59.536  1.00  0.00     0.212 HD
ENDBRANCH   8  41
TORSDOF 7
ENDMDL
MODEL 8
REMARK VINA RESULT:      -8.5      4.518      7.278
REMARK  7 active torsions:
REMARK  status: ('A' for Active; 'I' for Inactive)
REMARK    1  A    between atoms: C_1  and  C_12 
REMARK    2  A    between atoms: C_13  and  C_38 
REMARK    3  A    between atoms: C_19  and  O_32 
REMARK    4  A    between atoms: C_23  and  P_40 
REMARK    5  A    between atoms: O_25  and  C_35 
REMARK    6  A    between atoms: O_28  and  C_42 
REMARK    7  A    between atoms: C_30  and  O_36 
ROOT
HETATM    1  C   UNL     1       5.756   3.342 -54.024  1.00  0.00     0.028 C 
HETATM    2  N   UNL     1       5.221   6.740 -53.184  1.00  0.00    -0.347 N 
ATOM      3  HN  UNL     1       4.772   7.245 -52.421  1.00  0.00     0.163 HD
HETATM    4  C   UNL     1       4.695   3.264 -53.035  1.00  0.00     0.060 C 
HETATM    5  C   UNL     1       6.158   4.703 -54.057  1.00  0.00     0.003 C 
HETATM    6  N   UNL     1       4.326   4.521 -52.690  1.00  0.00    -0.341 N 
ATOM      7  HN  UNL     1       3.544   4.774 -52.086  1.00  0.00     0.167 HD
HETATM    8  C   UNL     1       5.961   7.411 -54.255  1.00  0.00     0.248 C 
HETATM    9  C   UNL     1       5.185   5.382 -53.293  1.00  0.00     0.111 C 
HETATM   10  C   UNL     1       7.382   6.879 -54.128  1.00  0.00     0.171 C 
HETATM   11  C   UNL     1       7.409   5.393 -54.541  1.00  0.00     0.079 C 
ENDROOT
BRANCH   1  12
HETATM   12  C   UNL     1       6.198   2.230 -54.879  1.00  0.00     0.048 C 
HETATM   13  N   UNL     1       6.362   2.376 -56.243  1.00  0.00    -0.335 N 
HETATM   14  C   UNL     1       7.089   1.316 -56.667  1.00  0.00     0.162 C 
ATOM     15  HN  UNL     1       6.004   3.137 -56.820  1.00  0.00     0.168 HD
HETATM   16  C   UNL     1       7.363   0.461 -55.569  1.00  0.00     0.051 C 
HETATM   17  O   UNL     1       7.662   1.105 -57.896  1.00  0.00    -0.283 OA
HETATM   18  C   UNL     1       6.607   0.954 -54.471  1.00  0.00     0.049 C 
HETATM   19  C   UNL     1       8.422  -0.502 -55.756  1.00  0.00     0.083 C 
HETATM   20  C   UNL     1       8.725  -0.913 -57.064  1.00  0.00     0.085 C 
HETATM   21  C   UNL     1       8.122  -0.190 -58.102  1.00  0.00     0.183 C 
BRANCH  19  22
HETATM   22  O   UNL     1       9.349  -0.738 -54.777  1.00  0.00    -0.360 OA
ATOM     23  HO  UNL     1       9.589  -1.622 -54.527  1.00  0.00     0.217 HD
ENDBRANCH  19  22
BRANCH  21  24
HETATM   24  P   UNL     1       8.220  -0.741 -59.797  1.00  0.00     0.320 P 
HETATM   25  O   UNL     1       7.564   0.310 -60.648  1.00  0.00    -0.635 OA
HETATM   26  O   UNL     1       9.660  -0.922 -60.147  1.00  0.00    -0.635 OA
HETATM   27  O   UNL     1       7.455  -2.033 -59.839  1.00  0.00    -0.635 OA
ENDBRANCH  21  24
ENDBRANCH   1  12
BRANCH   4  28
HETATM   28  C   UNL     1       4.260   2.070 -52.310  1.00  0.00     0.023 C 
HETATM   29  C   UNL     1       2.933   1.671 -52.361  1.00  0.00     0.109 C 
HETATM   30  N   UNL     1       2.512   0.639 -51.582  1.00  0.00    -0.304 N 
HETATM   31  C   UNL     1       3.426  -0.331 -51.135  1.00  0.00     0.350 C 
ATOM     32  HN  UNL     1       1.528   0.568 -51.321  1.00  0.00     0.171 HD
HETATM   33  N   UNL     1       4.633   0.357 -50.740  1.00  0.00    -0.304 N 
HETATM   34  O   UNL     1       3.641  -1.194 -52.082  1.00  0.00    -0.227 OA
HETATM   35  C   UNL     1       5.145   1.309 -51.594  1.00  0.00     0.109 C 
ATOM     36  HN  UNL     1       5.092   0.145 -49.854  1.00  0.00     0.171 HD
BRANCH  31  37
HETATM   37  O   UNL     1       2.951  -0.917 -50.053  1.00  0.00    -0.306 OA
ATOM     38  HO  UNL     1       2.033  -0.694 -49.951  1.00  0.00     0.224 HD
ENDBRANCH  31  37
ENDBRANCH   4  28
BRANCH  10  39
HETATM   39  O   UNL     1       8.329   7.647 -54.848  1.00  0.00    -0.391 OA
ATOM     40  HO  UNL     1       8.960   7.115 -55.318  1.00  0.00     0.210 HD
ENDBRANCH  10  39
BRANCH   8  41
HETATM   41  O   UNL     1       5.985   8.820 -54.040  1.00  0.00    -0.374 OA
ATOM     42  HO  UNL     1       6.551   9.245 -54.673  1.00  0.00     0.212 HD
ENDBRANCH   8  41
TORSDOF 7
ENDMDL
MODEL 9
REMARK VINA RESULT:      -8.1      4.053      9.477
REMARK  7 active torsions:
REMARK  status: ('A' for Active; 'I' for Inactive)
REMARK    1  A    between atoms: C_1  and  C_12 
REMARK    2  A    between atoms: C_13  and  C_38 
REMARK    3  A    between atoms: C_19  and  O_32 
REMARK    4  A    between atoms: C_23  and  P_40 
REMARK    5  A    between atoms: O_25  and  C_35 
REMARK    6  A    between atoms: O_28  and  C_42 
REMARK    7  A    between atoms: C_30  and  O_36 
ROOT
HETATM    1  C   UNL     1       4.607   2.990 -53.963  1.00  0.00     0.028 C 
HETATM    2  N   UNL     1       3.535  -0.335 -53.387  1.00  0.00    -0.347 N 
ATOM      3  HN  UNL     1       3.328  -1.150 -53.964  1.00  0.00     0.163 HD
HETATM    4  C   UNL     1       4.136   2.574 -55.272  1.00  0.00     0.060 C 
HETATM    5  C   UNL     1       4.551   1.832 -53.144  1.00  0.00     0.003 C 
HETATM    6  N   UNL     1       3.607   1.331 -55.172  1.00  0.00    -0.341 N 
ATOM      7  HN  UNL     1       3.118   0.824 -55.910  1.00  0.00     0.167 HD
HETATM    8  C   UNL     1       3.526  -0.376 -51.923  1.00  0.00     0.248 C 
HETATM    9  C   UNL     1       3.844   0.883 -53.913  1.00  0.00     0.111 C 
HETATM   10  C   UNL     1       4.953  -0.025 -51.524  1.00  0.00     0.171 C 
HETATM   11  C   UNL     1       5.225   1.458 -51.847  1.00  0.00     0.079 C 
ENDROOT
BRANCH   1  12
HETATM   12  C   UNL     1       4.942   4.372 -53.584  1.00  0.00     0.048 C 
HETATM   13  N   UNL     1       4.754   5.433 -54.448  1.00  0.00    -0.335 N 
HETATM   14  C   UNL     1       4.821   6.561 -53.705  1.00  0.00     0.162 C 
ATOM     15  HN  UNL     1       4.597   5.376 -55.454  1.00  0.00     0.168 HD
HETATM   16  C   UNL     1       5.091   6.222 -52.353  1.00  0.00     0.051 C 
HETATM   17  O   UNL     1       4.518   7.849 -54.070  1.00  0.00    -0.283 OA
HETATM   18  C   UNL     1       5.372   4.829 -52.332  1.00  0.00     0.049 C 
HETATM   19  C   UNL     1       4.827   7.246 -51.371  1.00  0.00     0.083 C 
HETATM   20  C   UNL     1       4.862   8.588 -51.783  1.00  0.00     0.085 C 
HETATM   21  C   UNL     1       4.933   8.817 -53.163  1.00  0.00     0.183 C 
BRANCH  19  22
HETATM   22  O   UNL     1       4.206   6.954 -50.188  1.00  0.00    -0.360 OA
ATOM     23  HO  UNL     1       4.209   6.073 -49.833  1.00  0.00     0.217 HD
ENDBRANCH  19  22
BRANCH  21  24
HETATM   24  P   UNL     1       5.227  10.451 -53.821  1.00  0.00     0.320 P 
HETATM   25  O   UNL     1       5.504  10.299 -55.291  1.00  0.00    -0.635 OA
HETATM   26  O   UNL     1       4.012  11.282 -53.566  1.00  0.00    -0.635 OA
HETATM   27  O   UNL     1       6.433  10.963 -53.089  1.00  0.00    -0.635 OA
ENDBRANCH  21  24
ENDBRANCH   1  12
BRANCH   4  28
HETATM   28  C   UNL     1       4.409   3.232 -56.551  1.00  0.00     0.023 C 
HETATM   29  C   UNL     1       3.360   3.661 -57.350  1.00  0.00     0.109 C 
HETATM   30  N   UNL     1       3.619   4.152 -58.591  1.00  0.00    -0.304 N 
HETATM   31  C   UNL     1       4.879   4.701 -58.889  1.00  0.00     0.350 C 
ATOM     32  HN  UNL     1       2.896   4.121 -59.310  1.00  0.00     0.171 HD
HETATM   33  N   UNL     1       5.877   3.852 -58.282  1.00  0.00    -0.304 N 
HETATM   34  O   UNL     1       4.936   5.920 -58.444  1.00  0.00    -0.227 OA
HETATM   35  C   UNL     1       5.691   3.464 -56.973  1.00  0.00     0.109 C 
ATOM     36  HN  UNL     1       6.697   3.548 -58.807  1.00  0.00     0.171 HD
BRANCH  31  37
HETATM   37  O   UNL     1       5.081   4.655 -60.191  1.00  0.00    -0.306 OA
ATOM     38  HO  UNL     1       4.284   4.375 -60.625  1.00  0.00     0.224 HD
ENDBRANCH  31  37
ENDBRANCH   4  28
BRANCH  10  39
HETATM   39  O   UNL     1       5.244  -0.336 -50.173  1.00  0.00    -0.391 OA
ATOM     40  HO  UNL     1       5.555  -1.226 -50.054  1.00  0.00     0.210 HD
ENDBRANCH  10  39
BRANCH   8  41
HETATM   41  O   UNL     1       3.237  -1.692 -51.460  1.00  0.00    -0.374 OA
ATOM     42  HO  UNL     1       2.502  -1.681 -50.859  1.00  0.00     0.212 HD
ENDBRANCH   8  41
TORSDOF 7
ENDMDL
