REMARK  6 active torsions:
REMARK  status: ('A' for Active; 'I' for Inactive)
REMARK    1  A    between atoms: C_5  and  C_28 
REMARK    2  A    between atoms: C_9  and  N_16 
REMARK    3  A    between atoms: C_9  and  C_38 
REMARK       I    between atoms: N_16  and  C_28 
REMARK    4  A    between atoms: N_16  and  C_29 
REMARK    5  A    between atoms: C_23  and  N_36 
REMARK    6  A    between atoms: C_29  and  N_36 
ROOT
HETATM    1  N   UNL     1     -10.965 -14.970  13.467  1.00  0.00    -0.331 N 
HETATM    2  C   UNL     1     -10.711 -16.184  14.012  1.00  0.00     0.229 C 
HETATM    3  O   UNL     1     -11.253 -17.230  13.682  1.00  0.00    -0.273 OA
ENDROOT
BRANCH   1   4
HETATM    4  C   UNL     1     -11.799 -13.991  14.166  1.00  0.00     0.166 C 
BRANCH   4   5
HETATM    5  C   UNL     1     -12.785 -13.403  13.208  1.00  0.00    -0.039 C 
HETATM    6  C   UNL     1     -12.576 -12.108  12.724  1.00  0.00     0.010 C 
HETATM    7  C   UNL     1     -13.357 -11.638  11.680  1.00  0.00     0.013 C 
HETATM    8  C   UNL     1     -14.467 -12.359  11.258  1.00  0.00    -0.026 C 
HETATM    9  C   UNL     1     -15.333 -11.836  10.295  1.00  0.00     0.012 C 
HETATM   10  C   UNL     1     -14.749 -13.607  11.839  1.00  0.00    -0.025 C 
HETATM   11  C   UNL     1     -16.547 -12.445  10.053  1.00  0.00     0.001 C 
HETATM   12  C   UNL     1     -16.835 -13.675  10.627  1.00  0.00     0.001 C 
HETATM   13  C   UNL     1     -15.922 -14.265  11.488  1.00  0.00     0.012 C 
HETATM   14  C   UNL     1     -13.870 -14.134  12.782  1.00  0.00     0.021 C 
ENDBRANCH   4   5
ENDBRANCH   1   4
BRANCH   1  15
HETATM   15  C   UNL     1     -10.345 -14.502  12.219  1.00  0.00     0.249 C 
BRANCH  15  16
HETATM   16  N   UNL     1     -10.601 -15.499  11.176  1.00  0.00    -0.374 N 
ATOM     17  HN  UNL     1     -11.306 -16.228  11.281  1.00  0.00     0.161 HD
BRANCH  16  18
HETATM   18  C   UNL     1      -9.822 -15.384  10.039  1.00  0.00     0.029 A 
HETATM   19  C   UNL     1      -8.452 -15.203  10.143  1.00  0.00     0.029 A 
HETATM   20  C   UNL     1      -7.666 -15.129   9.002  1.00  0.00     0.002 A 
HETATM   21  C   UNL     1      -8.236 -15.338   7.753  1.00  0.00     0.000 A 
HETATM   22  C   UNL     1      -9.608 -15.469   7.657  1.00  0.00     0.002 A 
HETATM   23  C   UNL     1     -10.401 -15.471   8.788  1.00  0.00     0.029 A 
ENDBRANCH  16  18
ENDBRANCH  15  16
ENDBRANCH   1  15
BRANCH   2  24
HETATM   24  C   UNL     1      -9.662 -16.174  15.090  1.00  0.00     0.120 C 
HETATM   25  C   UNL     1      -8.295 -16.450  14.456  1.00  0.00     0.089 C 
HETATM   26  C   UNL     1      -7.557 -15.265  13.839  1.00  0.00     0.021 C 
HETATM   27  C   UNL     1      -7.441 -17.317  15.334  1.00  0.00     0.222 C 
HETATM   28  N   UNL     1      -7.789 -17.452  16.633  1.00  0.00    -0.361 N 
HETATM   29  O   UNL     1      -6.473 -17.895  14.845  1.00  0.00    -0.273 OA
HETATM   30  C   UNL     1      -6.746 -17.482  17.668  1.00  0.00     0.123 C 
ATOM     31  HN  UNL     1      -8.772 -17.533  16.894  1.00  0.00     0.162 HD
HETATM   32  C   UNL     1      -7.450 -17.551  19.014  1.00  0.00     0.024 C 
HETATM   33  C   UNL     1      -7.451 -16.178  19.691  1.00  0.00     0.041 C 
HETATM   34  C   UNL     1      -8.762 -15.450  19.516  1.00  0.00    -0.049 C 
HETATM   35  C   UNL     1      -9.527 -15.218  20.652  1.00  0.00     0.008 C 
HETATM   36  C   UNL     1      -9.329 -15.059  18.286  1.00  0.00    -0.016 C 
HETATM   37  C   UNL     1     -10.876 -14.945  20.547  1.00  0.00     0.003 C 
HETATM   38  C   UNL     1     -11.489 -14.932  19.295  1.00  0.00     0.037 C 
HETATM   39  C   UNL     1     -10.702 -15.155  18.173  1.00  0.00     0.076 C 
HETATM   40  O   UNL     1     -11.054 -15.406  16.835  1.00  0.00    -0.344 OA
HETATM   41  C   UNL     1      -9.913 -14.979  16.011  1.00  0.00     0.147 C 
HETATM   42  C   UNL     1      -8.773 -14.634  16.969  1.00  0.00     0.075 C 
ENDBRANCH   2  24
TORSDOF 6
