REMARK  4 active torsions:
REMARK  status: ('A' for Active; 'I' for Inactive)
REMARK    1  A    between atoms: C_3  and  O_18 
REMARK    2  A    between atoms: C_10  and  C_13 
REMARK    3  A    between atoms: C_11  and  C_12 
REMARK    4  A    between atoms: O_16  and  C_23 
ROOT
HETATM    1  C   UNL     1      -8.314 -27.032   2.784  1.00  0.00     0.040 C 
HETATM    2  C   UNL     1      -9.706 -27.684   5.274  1.00  0.00    -0.008 C 
HETATM    3  C   UNL     1      -9.774 -26.682   3.024  1.00  0.00    -0.004 C 
HETATM    4  C   UNL     1     -11.284 -28.808   3.465  1.00  0.00     0.191 C 
HETATM    5  C   UNL     1      -7.546 -27.194   4.063  1.00  0.00    -0.069 C 
HETATM    6  C   UNL     1     -13.251 -28.982   2.069  1.00  0.00     0.219 C 
HETATM    7  C   UNL     1      -8.235 -28.075   5.085  1.00  0.00     0.039 C 
HETATM    8  C   UNL     1     -10.040 -26.408   4.507  1.00  0.00     0.010 C 
HETATM    9  C   UNL     1     -10.665 -27.807   2.532  1.00  0.00     0.020 C 
HETATM   10  C   UNL     1     -11.300 -27.713   1.160  1.00  0.00     0.009 C 
HETATM   11  C   UNL     1     -10.605 -28.839   4.823  1.00  0.00     0.038 C 
HETATM   12  N   UNL     1     -12.762 -28.698   3.439  1.00  0.00    -0.062 N 
ATOM     13  HN1 UNL     1     -13.089 -27.796   3.787  1.00  0.00     0.278 HD
ATOM     14  HN2 UNL     1     -13.206 -29.293   4.139  1.00  0.00     0.278 HD
HETATM   15  C   UNL     1     -12.821 -27.788   1.215  1.00  0.00     0.038 C 
ENDROOT
BRANCH   5  16
HETATM   16  C   UNL     1      -6.072 -27.400   3.915  1.00  0.00    -0.034 C 
HETATM   17  C   UNL     1      -5.599 -28.683   3.832  1.00  0.00     0.014 C 
HETATM   18  C   UNL     1      -4.281 -29.106   3.766  1.00  0.00     0.037 C 
HETATM   19  C   UNL     1      -3.208 -28.255   3.995  1.00  0.00     0.065 C 
HETATM   20  C   UNL     1      -3.073 -27.041   3.324  1.00  0.00     0.036 C 
HETATM   21  C   UNL     1      -4.023 -26.027   3.439  1.00  0.00     0.004 C 
HETATM   22  C   UNL     1      -5.296 -26.260   3.937  1.00  0.00     0.012 C 
BRANCH  19  23
HETATM   23  O   UNL     1      -2.301 -28.612   4.943  1.00  0.00    -0.361 OA
ATOM     24  HO  UNL     1      -2.393 -29.440   5.400  1.00  0.00     0.217 HD
ENDBRANCH  19  23
ENDBRANCH   5  16
BRANCH   6  25
HETATM   25  C   UNL     1     -14.738 -29.116   2.044  1.00  0.00    -0.025 C 
HETATM   26  C   UNL     1     -15.510 -28.952   3.210  1.00  0.00     0.009 C 
HETATM   27  C   UNL     1     -16.288 -30.077   3.537  1.00  0.00     0.003 C 
HETATM   28  C   UNL     1     -16.761 -30.879   2.494  1.00  0.00     0.036 C 
HETATM   29  C   UNL     1     -16.508 -30.442   1.182  1.00  0.00     0.066 C 
HETATM   30  C   UNL     1     -15.418 -29.599   0.922  1.00  0.00     0.045 C 
BRANCH  29  31
HETATM   31  O   UNL     1     -17.382 -30.766   0.196  1.00  0.00    -0.361 OA
ATOM     32  HO  UNL     1     -17.211 -30.471  -0.691  1.00  0.00     0.217 HD
ENDBRANCH  29  31
ENDBRANCH   6  25
TORSDOF 4
