MODEL 1
REMARK VINA RESULT:      -6.6      0.000      0.000
REMARK  2 active torsions:
REMARK  status: ('A' for Active; 'I' for Inactive)
REMARK    1  A    between atoms: N_3  and  C_13 
REMARK    2  A    between atoms: C_9  and  C_11 
ROOT
HETATM    1  N   UNL     1      15.175  35.799  30.515  1.00  0.00    -0.310 N 
ATOM      2  HN  UNL     1      15.205  35.722  31.531  1.00  0.00     0.170 HD
HETATM    3  C   UNL     1      15.053  37.277  28.628  1.00  0.00     0.086 C 
HETATM    4  C   UNL     1      16.260  36.725  28.203  1.00  0.00    -0.017 C 
HETATM    5  C   UNL     1      16.661  35.492  28.707  1.00  0.00     0.060 C 
HETATM    6  O   UNL     1      13.261  36.913  30.048  1.00  0.00    -0.268 OA
HETATM    7  C   UNL     1      15.814  34.944  29.665  1.00  0.00     0.102 C 
HETATM    8  C   UNL     1      14.488  36.773  29.839  1.00  0.00     0.247 C 
ENDROOT
BRANCH   4   9
HETATM    9  C   UNL     1      17.101  37.396  27.162  1.00  0.00    -0.026 C 
HETATM   10  C   UNL     1      17.759  36.635  26.207  1.00  0.00     0.012 C 
HETATM   11  C   UNL     1      18.721  37.211  25.391  1.00  0.00     0.001 C 
HETATM   12  C   UNL     1      18.973  38.570  25.478  1.00  0.00     0.000 C 
HETATM   13  C   UNL     1      18.365  39.317  26.465  1.00  0.00     0.001 C 
HETATM   14  C   UNL     1      17.346  38.764  27.226  1.00  0.00     0.012 C 
ENDBRANCH   4   9
BRANCH   7  15
HETATM   15  N   UNL     1      15.173  33.770  29.413  1.00  0.00    -0.385 N 
ATOM     16  HN2 UNL     1      15.334  33.282  28.532  1.00  0.00     0.157 HD
ATOM     17  HN1 UNL     1      14.266  33.654  29.863  1.00  0.00     0.157 HD
ENDBRANCH   7  15
TORSDOF 2
ENDMDL
MODEL 2
REMARK VINA RESULT:      -6.5      4.101      5.414
REMARK  2 active torsions:
REMARK  status: ('A' for Active; 'I' for Inactive)
REMARK    1  A    between atoms: N_3  and  C_13 
REMARK    2  A    between atoms: C_9  and  C_11 
ROOT
HETATM    1  N   UNL     1      19.761  33.252  24.199  1.00  0.00    -0.310 N 
ATOM      2  HN  UNL     1      20.611  32.691  24.138  1.00  0.00     0.170 HD
HETATM    3  C   UNL     1      18.175  34.321  25.649  1.00  0.00     0.086 C 
HETATM    4  C   UNL     1      18.505  35.518  25.016  1.00  0.00    -0.017 C 
HETATM    5  C   UNL     1      19.121  35.482  23.770  1.00  0.00     0.060 C 
HETATM    6  O   UNL     1      18.308  32.021  25.422  1.00  0.00    -0.268 OA
HETATM    7  C   UNL     1      19.411  34.208  23.292  1.00  0.00     0.102 C 
HETATM    8  C   UNL     1      18.835  33.135  25.203  1.00  0.00     0.247 C 
ENDROOT
BRANCH   4   9
HETATM    9  C   UNL     1      18.145  36.842  25.616  1.00  0.00    -0.026 C 
HETATM   10  C   UNL     1      18.941  37.952  25.371  1.00  0.00     0.012 C 
HETATM   11  C   UNL     1      18.763  39.118  26.100  1.00  0.00     0.001 C 
HETATM   12  C   UNL     1      17.736  39.200  27.026  1.00  0.00     0.000 C 
HETATM   13  C   UNL     1      16.983  38.081  27.314  1.00  0.00     0.001 C 
HETATM   14  C   UNL     1      17.103  36.942  26.533  1.00  0.00     0.012 C 
ENDBRANCH   4   9
BRANCH   7  15
HETATM   15  N   UNL     1      18.813  33.757  22.156  1.00  0.00    -0.385 N 
ATOM     16  HN2 UNL     1      18.116  33.015  22.209  1.00  0.00     0.157 HD
ATOM     17  HN1 UNL     1      19.367  33.831  21.303  1.00  0.00     0.157 HD
ENDBRANCH   7  15
TORSDOF 2
ENDMDL
MODEL 3
REMARK VINA RESULT:      -6.5      3.168      3.727
REMARK  2 active torsions:
REMARK  status: ('A' for Active; 'I' for Inactive)
REMARK    1  A    between atoms: N_3  and  C_13 
REMARK    2  A    between atoms: C_9  and  C_11 
ROOT
HETATM    1  N   UNL     1      13.090  35.959  30.379  1.00  0.00    -0.310 N 
ATOM      2  HN  UNL     1      12.110  36.202  30.237  1.00  0.00     0.170 HD
HETATM    3  C   UNL     1      14.760  34.240  30.254  1.00  0.00     0.086 C 
HETATM    4  C   UNL     1      15.452  35.070  29.374  1.00  0.00    -0.017 C 
HETATM    5  C   UNL     1      15.160  36.429  29.348  1.00  0.00     0.060 C 
HETATM    6  O   UNL     1      13.083  34.239  31.850  1.00  0.00    -0.268 OA
HETATM    7  C   UNL     1      14.126  36.826  30.190  1.00  0.00     0.102 C 
HETATM    8  C   UNL     1      13.525  34.724  30.783  1.00  0.00     0.247 C 
ENDROOT
BRANCH   4   9
HETATM    9  C   UNL     1      16.554  34.542  28.508  1.00  0.00    -0.026 C 
HETATM   10  C   UNL     1      16.250  33.887  27.324  1.00  0.00     0.012 C 
HETATM   11  C   UNL     1      17.231  33.190  26.635  1.00  0.00     0.001 C 
HETATM   12  C   UNL     1      18.538  33.211  27.092  1.00  0.00     0.000 C 
HETATM   13  C   UNL     1      18.832  33.811  28.299  1.00  0.00     0.001 C 
HETATM   14  C   UNL     1      17.874  34.575  28.947  1.00  0.00     0.012 C 
ENDBRANCH   4   9
BRANCH   7  15
HETATM   15  N   UNL     1      14.378  37.683  31.217  1.00  0.00    -0.385 N 
ATOM     16  HN2 UNL     1      13.673  37.833  31.938  1.00  0.00     0.157 HD
ATOM     17  HN1 UNL     1      15.019  38.448  31.010  1.00  0.00     0.157 HD
ENDBRANCH   7  15
TORSDOF 2
ENDMDL
MODEL 4
REMARK VINA RESULT:      -6.5      2.508      3.406
REMARK  2 active torsions:
REMARK  status: ('A' for Active; 'I' for Inactive)
REMARK    1  A    between atoms: N_3  and  C_13 
REMARK    2  A    between atoms: C_9  and  C_11 
ROOT
HETATM    1  N   UNL     1      13.072  36.016  30.510  1.00  0.00    -0.310 N 
ATOM      2  HN  UNL     1      12.134  36.077  30.114  1.00  0.00     0.170 HD
HETATM    3  C   UNL     1      15.122  34.771  30.603  1.00  0.00     0.086 C 
HETATM    4  C   UNL     1      15.763  35.923  30.153  1.00  0.00    -0.017 C 
HETATM    5  C   UNL     1      15.127  37.153  30.285  1.00  0.00     0.060 C 
HETATM    6  O   UNL     1      13.156  34.014  31.563  1.00  0.00    -0.268 OA
HETATM    7  C   UNL     1      13.843  37.098  30.817  1.00  0.00     0.102 C 
HETATM    8  C   UNL     1      13.708  34.836  30.797  1.00  0.00     0.247 C 
ENDROOT
BRANCH   4   9
HETATM    9  C   UNL     1      17.152  35.876  29.595  1.00  0.00    -0.026 C 
HETATM   10  C   UNL     1      17.947  34.759  29.812  1.00  0.00     0.012 C 
HETATM   11  C   UNL     1      19.300  34.792  29.512  1.00  0.00     0.001 C 
HETATM   12  C   UNL     1      19.847  35.920  28.924  1.00  0.00     0.000 C 
HETATM   13  C   UNL     1      19.074  37.052  28.763  1.00  0.00     0.001 C 
HETATM   14  C   UNL     1      17.707  36.996  28.984  1.00  0.00     0.012 C 
ENDBRANCH   4   9
BRANCH   7  15
HETATM   15  N   UNL     1      13.576  37.696  32.010  1.00  0.00    -0.385 N 
ATOM     16  HN2 UNL     1      14.305  37.760  32.721  1.00  0.00     0.157 HD
ATOM     17  HN1 UNL     1      12.607  37.650  32.323  1.00  0.00     0.157 HD
ENDBRANCH   7  15
TORSDOF 2
ENDMDL
MODEL 5
REMARK VINA RESULT:      -6.5      1.832      2.662
REMARK  2 active torsions:
REMARK  status: ('A' for Active; 'I' for Inactive)
REMARK    1  A    between atoms: N_3  and  C_13 
REMARK    2  A    between atoms: C_9  and  C_11 
ROOT
HETATM    1  N   UNL     1      13.174  35.759  30.576  1.00  0.00    -0.310 N 
ATOM      2  HN  UNL     1      12.189  35.535  30.431  1.00  0.00     0.170 HD
HETATM    3  C   UNL     1      15.442  35.281  29.956  1.00  0.00     0.086 C 
HETATM    4  C   UNL     1      15.551  36.619  29.583  1.00  0.00    -0.017 C 
HETATM    5  C   UNL     1      14.638  37.541  30.083  1.00  0.00     0.060 C 
HETATM    6  O   UNL     1      14.152  33.815  31.200  1.00  0.00    -0.268 OA
HETATM    7  C   UNL     1      13.636  37.004  30.884  1.00  0.00     0.102 C 
HETATM    8  C   UNL     1      14.190  34.844  30.487  1.00  0.00     0.247 C 
ENDROOT
BRANCH   4   9
HETATM    9  C   UNL     1      16.673  37.097  28.714  1.00  0.00    -0.026 C 
HETATM   10  C   UNL     1      17.985  36.802  29.053  1.00  0.00     0.012 C 
HETATM   11  C   UNL     1      19.037  37.429  28.402  1.00  0.00     0.001 C 
HETATM   12  C   UNL     1      18.777  38.299  27.357  1.00  0.00     0.000 C 
HETATM   13  C   UNL     1      17.474  38.640  27.057  1.00  0.00     0.001 C 
HETATM   14  C   UNL     1      16.424  37.956  27.649  1.00  0.00     0.012 C 
ENDBRANCH   4   9
BRANCH   7  15
HETATM   15  N   UNL     1      13.549  37.362  32.194  1.00  0.00    -0.385 N 
ATOM     16  HN2 UNL     1      13.181  36.702  32.878  1.00  0.00     0.157 HD
ATOM     17  HN1 UNL     1      13.420  38.358  32.374  1.00  0.00     0.157 HD
ENDBRANCH   7  15
TORSDOF 2
ENDMDL
MODEL 6
REMARK VINA RESULT:      -6.4      1.292      2.002
REMARK  2 active torsions:
REMARK  status: ('A' for Active; 'I' for Inactive)
REMARK    1  A    between atoms: N_3  and  C_13 
REMARK    2  A    between atoms: C_9  and  C_11 
ROOT
HETATM    1  N   UNL     1      14.722  35.479  29.979  1.00  0.00    -0.310 N 
ATOM      2  HN  UNL     1      14.030  34.740  30.102  1.00  0.00     0.170 HD
HETATM    3  C   UNL     1      16.967  36.024  29.331  1.00  0.00     0.086 C 
HETATM    4  C   UNL     1      16.413  36.859  28.362  1.00  0.00    -0.017 C 
HETATM    5  C   UNL     1      15.094  37.277  28.498  1.00  0.00     0.060 C 
HETATM    6  O   UNL     1      16.472  34.896  31.291  1.00  0.00    -0.268 OA
HETATM    7  C   UNL     1      14.418  36.752  29.595  1.00  0.00     0.102 C 
HETATM    8  C   UNL     1      16.067  35.312  30.182  1.00  0.00     0.247 C 
ENDROOT
BRANCH   4   9
HETATM    9  C   UNL     1      17.229  37.373  27.217  1.00  0.00    -0.026 C 
HETATM   10  C   UNL     1      17.578  36.521  26.179  1.00  0.00     0.012 C 
HETATM   11  C   UNL     1      18.521  36.909  25.239  1.00  0.00     0.001 C 
HETATM   12  C   UNL     1      19.062  38.183  25.294  1.00  0.00     0.000 C 
HETATM   13  C   UNL     1      18.762  39.009  26.357  1.00  0.00     0.001 C 
HETATM   14  C   UNL     1      17.762  38.657  27.250  1.00  0.00     0.012 C 
ENDBRANCH   4   9
BRANCH   7  15
HETATM   15  N   UNL     1      13.976  37.580  30.580  1.00  0.00    -0.385 N 
ATOM     16  HN2 UNL     1      13.757  38.553  30.367  1.00  0.00     0.157 HD
ATOM     17  HN1 UNL     1      14.297  37.359  31.523  1.00  0.00     0.157 HD
ENDBRANCH   7  15
TORSDOF 2
ENDMDL
MODEL 7
REMARK VINA RESULT:      -6.4      3.017      4.911
REMARK  2 active torsions:
REMARK  status: ('A' for Active; 'I' for Inactive)
REMARK    1  A    between atoms: N_3  and  C_13 
REMARK    2  A    between atoms: C_9  and  C_11 
ROOT
HETATM    1  N   UNL     1      16.269  34.173  26.486  1.00  0.00    -0.310 N 
ATOM      2  HN  UNL     1      16.007  33.467  25.798  1.00  0.00     0.170 HD
HETATM    3  C   UNL     1      15.898  36.398  27.305  1.00  0.00     0.086 C 
HETATM    4  C   UNL     1      15.575  35.820  28.532  1.00  0.00    -0.017 C 
HETATM    5  C   UNL     1      15.991  34.521  28.803  1.00  0.00     0.060 C 
HETATM    6  O   UNL     1      16.948  35.968  25.287  1.00  0.00    -0.268 OA
HETATM    7  C   UNL     1      16.659  33.886  27.761  1.00  0.00     0.102 C 
HETATM    8  C   UNL     1      16.271  35.521  26.241  1.00  0.00     0.247 C 
ENDROOT
BRANCH   4   9
HETATM    9  C   UNL     1      14.852  36.593  29.591  1.00  0.00    -0.026 C 
HETATM   10  C   UNL     1      15.567  37.373  30.488  1.00  0.00     0.012 C 
HETATM   11  C   UNL     1      14.946  37.900  31.610  1.00  0.00     0.001 C 
HETATM   12  C   UNL     1      13.587  37.710  31.797  1.00  0.00     0.000 C 
HETATM   13  C   UNL     1      12.887  36.886  30.940  1.00  0.00     0.001 C 
HETATM   14  C   UNL     1      13.483  36.426  29.777  1.00  0.00     0.012 C 
ENDBRANCH   4   9
BRANCH   7  15
HETATM   15  N   UNL     1      17.960  33.516  27.914  1.00  0.00    -0.385 N 
ATOM     16  HN2 UNL     1      18.187  32.567  28.210  1.00  0.00     0.157 HD
ATOM     17  HN1 UNL     1      18.607  34.262  28.168  1.00  0.00     0.157 HD
ENDBRANCH   7  15
TORSDOF 2
ENDMDL
MODEL 8
REMARK VINA RESULT:      -6.4      4.546      6.110
REMARK  2 active torsions:
REMARK  status: ('A' for Active; 'I' for Inactive)
REMARK    1  A    between atoms: N_3  and  C_13 
REMARK    2  A    between atoms: C_9  and  C_11 
ROOT
HETATM    1  N   UNL     1      20.630  34.328  22.997  1.00  0.00    -0.310 N 
ATOM      2  HN  UNL     1      21.093  34.238  22.093  1.00  0.00     0.170 HD
HETATM    3  C   UNL     1      20.546  35.501  25.089  1.00  0.00     0.086 C 
HETATM    4  C   UNL     1      19.231  35.836  24.772  1.00  0.00    -0.017 C 
HETATM    5  C   UNL     1      18.552  35.092  23.813  1.00  0.00     0.060 C 
HETATM    6  O   UNL     1      22.257  34.040  24.543  1.00  0.00    -0.268 OA
HETATM    7  C   UNL     1      19.302  34.093  23.201  1.00  0.00     0.102 C 
HETATM    8  C   UNL     1      21.267  34.699  24.152  1.00  0.00     0.247 C 
ENDROOT
BRANCH   4   9
HETATM    9  C   UNL     1      18.510  36.932  25.493  1.00  0.00    -0.026 C 
HETATM   10  C   UNL     1      19.025  38.220  25.488  1.00  0.00     0.012 C 
HETATM   11  C   UNL     1      18.507  39.186  26.337  1.00  0.00     0.001 C 
HETATM   12  C   UNL     1      17.420  38.885  27.140  1.00  0.00     0.000 C 
HETATM   13  C   UNL     1      16.944  37.591  27.192  1.00  0.00     0.001 C 
HETATM   14  C   UNL     1      17.404  36.646  26.289  1.00  0.00     0.012 C 
ENDBRANCH   4   9
BRANCH   7  15
HETATM   15  N   UNL     1      18.948  32.788  23.355  1.00  0.00    -0.385 N 
ATOM     16  HN2 UNL     1      19.060  32.334  24.261  1.00  0.00     0.157 HD
ATOM     17  HN1 UNL     1      19.016  32.208  22.519  1.00  0.00     0.157 HD
ENDBRANCH   7  15
TORSDOF 2
ENDMDL
MODEL 9
REMARK VINA RESULT:      -6.2      3.413      5.182
REMARK  2 active torsions:
REMARK  status: ('A' for Active; 'I' for Inactive)
REMARK    1  A    between atoms: N_3  and  C_13 
REMARK    2  A    between atoms: C_9  and  C_11 
ROOT
HETATM    1  N   UNL     1      18.899  34.714  29.083  1.00  0.00    -0.310 N 
ATOM      2  HN  UNL     1      19.743  34.225  29.382  1.00  0.00     0.170 HD
HETATM    3  C   UNL     1      16.505  34.653  28.930  1.00  0.00     0.086 C 
HETATM    4  C   UNL     1      16.494  35.820  29.691  1.00  0.00    -0.017 C 
HETATM    5  C   UNL     1      17.648  36.593  29.770  1.00  0.00     0.060 C 
HETATM    6  O   UNL     1      17.874  33.319  27.625  1.00  0.00    -0.268 OA
HETATM    7  C   UNL     1      18.753  36.070  29.107  1.00  0.00     0.102 C 
HETATM    8  C   UNL     1      17.777  34.087  28.608  1.00  0.00     0.247 C 
ENDROOT
BRANCH   4   9
HETATM    9  C   UNL     1      15.246  36.299  30.366  1.00  0.00    -0.026 C 
HETATM   10  C   UNL     1      14.047  35.633  30.158  1.00  0.00     0.012 C 
HETATM   11  C   UNL     1      12.851  36.194  30.578  1.00  0.00     0.001 C 
HETATM   12  C   UNL     1      12.859  37.390  31.276  1.00  0.00     0.000 C 
HETATM   13  C   UNL     1      14.042  38.083  31.432  1.00  0.00     0.001 C 
HETATM   14  C   UNL     1      15.246  37.489  31.087  1.00  0.00     0.012 C 
ENDBRANCH   4   9
BRANCH   7  15
HETATM   15  N   UNL     1      19.296  36.743  28.056  1.00  0.00    -0.385 N 
ATOM     16  HN2 UNL     1      19.144  37.748  27.963  1.00  0.00     0.157 HD
ATOM     17  HN1 UNL     1      19.433  36.201  27.204  1.00  0.00     0.157 HD
ENDBRANCH   7  15
TORSDOF 2
ENDMDL
