REMARK  2 active torsions:
REMARK  status: ('A' for Active; 'I' for Inactive)
REMARK    1  A    between atoms: C_2  and  C_3 
REMARK    2  A    between atoms: C_4  and  O_26 
ROOT
HETATM    1  C   UNL     1      10.901  18.933  -4.938  1.00  0.00     0.091 C 
HETATM    2  C   UNL     1       8.927  14.183 -13.777  1.00  0.00     0.066 C 
HETATM    3  C   UNL     1       8.985  14.664 -12.472  1.00  0.00     0.048 C 
HETATM    4  C   UNL     1      11.385  14.953 -12.685  1.00  0.00    -0.029 C 
HETATM    5  C   UNL     1      12.672  18.369  -8.224  1.00  0.00    -0.008 C 
HETATM    6  C   UNL     1       9.495  18.414  -5.265  1.00  0.00     0.016 C 
HETATM    7  C   UNL     1      11.230  18.605  -8.520  1.00  0.00    -0.002 C 
HETATM    8  C   UNL     1      12.772  15.186 -12.143  1.00  0.00    -0.009 C 
HETATM    9  C   UNL     1      13.159  16.985  -8.652  1.00  0.00     0.019 C 
HETATM   10  C   UNL     1      11.015  16.538 -10.007  1.00  0.00    -0.070 C 
HETATM   11  C   UNL     1      12.791  18.545  -6.693  1.00  0.00     0.011 C 
HETATM   12  C   UNL     1      12.463  16.135  -9.724  1.00  0.00    -0.014 C 
HETATM   13  C   UNL     1      10.078  14.178 -14.576  1.00  0.00     0.037 C 
HETATM   14  C   UNL     1      11.308  14.501 -14.004  1.00  0.00     0.014 C 
HETATM   15  C   UNL     1       9.444  18.193  -6.764  1.00  0.00     0.006 C 
HETATM   16  C   UNL     1      10.512  17.895  -9.609  1.00  0.00     0.040 C 
HETATM   17  C   UNL     1      12.443  14.699  -9.198  1.00  0.00     0.021 C 
HETATM   18  C   UNL     1      10.501  19.119  -7.319  1.00  0.00    -0.005 C 
HETATM   19  C   UNL     1      13.270  16.137 -11.061  1.00  0.00     0.017 C 
HETATM   20  C   UNL     1      11.552  19.348  -6.257  1.00  0.00     0.005 C 
HETATM   21  C   UNL     1      10.130  15.744 -10.626  1.00  0.00     0.016 C 
HETATM   22  C   UNL     1      10.195  15.112 -11.942  1.00  0.00    -0.023 C 
HETATM   23  C   UNL     1      13.363  17.555 -11.613  1.00  0.00     0.015 C 
ENDROOT
BRANCH   1  24
HETATM   24  C   UNL     1      10.759  20.065  -3.948  1.00  0.00     0.177 C 
HETATM   25  O   UNL     1      10.234  19.808  -2.839  1.00  0.00    -0.648 OA
HETATM   26  O   UNL     1      11.115  21.218  -4.315  1.00  0.00    -0.648 OA
ENDBRANCH   1  24
BRANCH   2  27
HETATM   27  O   UNL     1       7.749  13.844 -14.362  1.00  0.00    -0.361 OA
ATOM     28  HO  UNL     1       7.709  13.516 -15.253  1.00  0.00     0.217 HD
ENDBRANCH   2  27
TORSDOF 2
