MODEL 1
REMARK VINA RESULT:      -8.1      0.000      0.000
REMARK  7 active torsions:
REMARK  status: ('A' for Active; 'I' for Inactive)
REMARK    1  A    between atoms: O_2  and  P_17 
REMARK    2  A    between atoms: C_6  and  O_15 
REMARK    3  A    between atoms: C_9  and  O_10 
REMARK    4  A    between atoms: C_9  and  C_11 
REMARK    5  A    between atoms: O_10  and  P_17 
REMARK    6  A    between atoms: O_12  and  P_17 
REMARK    7  A    between atoms: P_17  and  O_18 
ROOT
HETATM    1  P   UNL     1     -16.928  -0.518 -28.234  1.00  0.00     0.406 P 
HETATM    2  O   UNL     1     -16.859   0.948 -28.639  1.00  0.00    -0.302 OA
ATOM      3  HO  UNL     1     -16.736   1.874 -28.808  1.00  0.00     0.223 HD
ENDROOT
BRANCH   1   4
HETATM    4  O   UNL     1     -17.131  -2.046 -27.955  1.00  0.00    -0.302 OA
ATOM      5  HO  UNL     1     -16.543  -2.253 -28.673  1.00  0.00     0.223 HD
ENDBRANCH   1   4
BRANCH   1   6
HETATM    6  O   UNL     1     -15.373  -0.705 -28.112  1.00  0.00    -0.213 OA
BRANCH   6   7
HETATM    7  C   UNL     1     -14.373  -0.755 -29.004  1.00  0.00     0.300 C 
HETATM    8  O   UNL     1     -14.395  -0.211 -30.073  1.00  0.00    -0.262 OA
BRANCH   7   9
HETATM    9  C   UNL     1     -13.192  -1.612 -28.564  1.00  0.00     0.262 C 
HETATM   10  O   UNL     1     -12.076  -1.335 -29.447  1.00  0.00    -0.332 OA
HETATM   11  C   UNL     1     -11.492  -2.557 -29.796  1.00  0.00     0.079 C 
HETATM   12  C   UNL     1     -12.286  -3.614 -29.397  1.00  0.00     0.007 C 
HETATM   13  C   UNL     1     -10.640  -2.696 -30.882  1.00  0.00     0.037 C 
HETATM   14  C   UNL     1     -13.509  -3.089 -28.728  1.00  0.00     0.193 C 
HETATM   15  C   UNL     1     -11.989  -4.893 -29.824  1.00  0.00     0.012 C 
HETATM   16  C   UNL     1     -11.082  -5.048 -30.863  1.00  0.00     0.001 C 
HETATM   17  C   UNL     1     -10.561  -3.940 -31.512  1.00  0.00     0.003 C 
BRANCH  14  18
HETATM   18  O   UNL     1     -14.731  -3.343 -29.370  1.00  0.00    -0.388 OA
ATOM     19  HO  UNL     1     -14.964  -4.256 -29.491  1.00  0.00     0.210 HD
ENDBRANCH  14  18
ENDBRANCH   7   9
ENDBRANCH   6   7
ENDBRANCH   1   6
BRANCH   1  20
HETATM   20  O   UNL     1     -17.871  -0.340 -27.081  1.00  0.00    -0.302 OA
ATOM     21  HO  UNL     1     -17.393  -1.070 -26.705  1.00  0.00     0.223 HD
ENDBRANCH   1  20
BRANCH   1  22
HETATM   22  O   UNL     1     -17.574  -0.786 -29.551  1.00  0.00    -0.302 OA
ATOM     23  HO  UNL     1     -18.302  -1.126 -29.044  1.00  0.00     0.223 HD
ENDBRANCH   1  22
TORSDOF 7
ENDMDL
MODEL 2
REMARK VINA RESULT:      -7.9      1.589      2.273
REMARK  7 active torsions:
REMARK  status: ('A' for Active; 'I' for Inactive)
REMARK    1  A    between atoms: O_2  and  P_17 
REMARK    2  A    between atoms: C_6  and  O_15 
REMARK    3  A    between atoms: C_9  and  O_10 
REMARK    4  A    between atoms: C_9  and  C_11 
REMARK    5  A    between atoms: O_10  and  P_17 
REMARK    6  A    between atoms: O_12  and  P_17 
REMARK    7  A    between atoms: P_17  and  O_18 
ROOT
HETATM    1  P   UNL     1     -16.829  -0.462 -28.201  1.00  0.00     0.406 P 
HETATM    2  O   UNL     1     -16.446   0.145 -29.543  1.00  0.00    -0.302 OA
ATOM      3  HO  UNL     1     -16.096   0.501 -30.352  1.00  0.00     0.223 HD
ENDROOT
BRANCH   1   4
HETATM    4  O   UNL     1     -17.405  -1.049 -26.868  1.00  0.00    -0.302 OA
ATOM      5  HO  UNL     1     -17.921  -0.260 -26.746  1.00  0.00     0.223 HD
ENDBRANCH   1   4
BRANCH   1   6
HETATM    6  O   UNL     1     -15.857  -1.691 -28.318  1.00  0.00    -0.213 OA
BRANCH   6   7
HETATM    7  C   UNL     1     -16.040  -2.997 -28.559  1.00  0.00     0.300 C 
HETATM    8  O   UNL     1     -17.116  -3.522 -28.655  1.00  0.00    -0.262 OA
BRANCH   7   9
HETATM    9  C   UNL     1     -14.746  -3.797 -28.660  1.00  0.00     0.262 C 
HETATM   10  O   UNL     1     -13.767  -3.187 -27.782  1.00  0.00    -0.332 OA
HETATM   11  C   UNL     1     -12.554  -3.119 -28.475  1.00  0.00     0.079 C 
HETATM   12  C   UNL     1     -12.733  -3.420 -29.810  1.00  0.00     0.007 C 
HETATM   13  C   UNL     1     -11.512  -2.292 -28.080  1.00  0.00     0.037 C 
HETATM   14  C   UNL     1     -14.171  -3.714 -30.062  1.00  0.00     0.193 C 
HETATM   15  C   UNL     1     -11.700  -3.212 -30.704  1.00  0.00     0.012 C 
HETATM   16  C   UNL     1     -10.618  -2.446 -30.294  1.00  0.00     0.001 C 
HETATM   17  C   UNL     1     -10.621  -1.833 -29.052  1.00  0.00     0.003 C 
BRANCH  14  18
HETATM   18  O   UNL     1     -14.852  -2.825 -30.908  1.00  0.00    -0.388 OA
ATOM     19  HO  UNL     1     -14.334  -2.129 -31.297  1.00  0.00     0.210 HD
ENDBRANCH  14  18
ENDBRANCH   7   9
ENDBRANCH   6   7
ENDBRANCH   1   6
BRANCH   1  20
HETATM   20  O   UNL     1     -16.578   0.763 -27.373  1.00  0.00    -0.302 OA
ATOM     21  HO  UNL     1     -15.664   0.579 -27.554  1.00  0.00     0.223 HD
ENDBRANCH   1  20
BRANCH   1  22
HETATM   22  O   UNL     1     -18.215  -0.601 -28.731  1.00  0.00    -0.302 OA
ATOM     23  HO  UNL     1     -17.804  -0.929 -29.523  1.00  0.00     0.223 HD
ENDBRANCH   1  22
TORSDOF 7
ENDMDL
MODEL 3
REMARK VINA RESULT:      -7.7      1.595      2.715
REMARK  7 active torsions:
REMARK  status: ('A' for Active; 'I' for Inactive)
REMARK    1  A    between atoms: O_2  and  P_17 
REMARK    2  A    between atoms: C_6  and  O_15 
REMARK    3  A    between atoms: C_9  and  O_10 
REMARK    4  A    between atoms: C_9  and  C_11 
REMARK    5  A    between atoms: O_10  and  P_17 
REMARK    6  A    between atoms: O_12  and  P_17 
REMARK    7  A    between atoms: P_17  and  O_18 
ROOT
HETATM    1  P   UNL     1     -17.083  -0.981 -28.782  1.00  0.00     0.406 P 
HETATM    2  O   UNL     1     -18.020  -1.436 -29.891  1.00  0.00    -0.302 OA
ATOM      3  HO  UNL     1     -18.513  -1.778 -30.628  1.00  0.00     0.223 HD
ENDROOT
BRANCH   1   4
HETATM    4  O   UNL     1     -16.269  -0.419 -27.567  1.00  0.00    -0.302 OA
ATOM      5  HO  UNL     1     -16.777  -0.964 -26.977  1.00  0.00     0.223 HD
ENDBRANCH   1   4
BRANCH   1   6
HETATM    6  O   UNL     1     -16.413  -2.387 -28.575  1.00  0.00    -0.213 OA
BRANCH   6   7
HETATM    7  C   UNL     1     -15.237  -2.788 -28.071  1.00  0.00     0.300 C 
HETATM    8  O   UNL     1     -15.041  -3.005 -26.907  1.00  0.00    -0.262 OA
BRANCH   7   9
HETATM    9  C   UNL     1     -14.126  -2.909 -29.107  1.00  0.00     0.262 C 
HETATM   10  O   UNL     1     -13.213  -3.948 -28.675  1.00  0.00    -0.332 OA
HETATM   11  C   UNL     1     -11.909  -3.478 -28.861  1.00  0.00     0.079 C 
HETATM   12  C   UNL     1     -11.910  -2.129 -29.159  1.00  0.00     0.007 C 
HETATM   13  C   UNL     1     -10.809  -4.053 -28.241  1.00  0.00     0.037 C 
HETATM   14  C   UNL     1     -13.312  -1.628 -29.176  1.00  0.00     0.193 C 
HETATM   15  C   UNL     1     -10.719  -1.431 -29.179  1.00  0.00     0.012 C 
HETATM   16  C   UNL     1      -9.595  -2.028 -28.625  1.00  0.00     0.001 C 
HETATM   17  C   UNL     1      -9.693  -3.255 -27.989  1.00  0.00     0.003 C 
BRANCH  14  18
HETATM   18  O   UNL     1     -13.651  -0.683 -28.195  1.00  0.00    -0.388 OA
ATOM     19  HO  UNL     1     -13.719  -1.004 -27.303  1.00  0.00     0.210 HD
ENDBRANCH  14  18
ENDBRANCH   7   9
ENDBRANCH   6   7
ENDBRANCH   1   6
BRANCH   1  20
HETATM   20  O   UNL     1     -16.470   0.168 -29.526  1.00  0.00    -0.302 OA
ATOM     21  HO  UNL     1     -16.000   0.316 -28.713  1.00  0.00     0.223 HD
ENDBRANCH   1  20
BRANCH   1  22
HETATM   22  O   UNL     1     -18.295  -0.648 -27.980  1.00  0.00    -0.302 OA
ATOM     23  HO  UNL     1     -18.182   0.236 -28.309  1.00  0.00     0.223 HD
ENDBRANCH   1  22
TORSDOF 7
ENDMDL
MODEL 4
REMARK VINA RESULT:      -7.5      1.134      2.398
REMARK  7 active torsions:
REMARK  status: ('A' for Active; 'I' for Inactive)
REMARK    1  A    between atoms: O_2  and  P_17 
REMARK    2  A    between atoms: C_6  and  O_15 
REMARK    3  A    between atoms: C_9  and  O_10 
REMARK    4  A    between atoms: C_9  and  C_11 
REMARK    5  A    between atoms: O_10  and  P_17 
REMARK    6  A    between atoms: O_12  and  P_17 
REMARK    7  A    between atoms: P_17  and  O_18 
ROOT
HETATM    1  P   UNL     1     -17.072  -0.192 -27.834  1.00  0.00     0.406 P 
HETATM    2  O   UNL     1     -17.661  -0.963 -26.662  1.00  0.00    -0.302 OA
ATOM      3  HO  UNL     1     -17.969  -1.537 -25.970  1.00  0.00     0.223 HD
ENDROOT
BRANCH   1   4
HETATM    4  O   UNL     1     -16.564   0.754 -28.974  1.00  0.00    -0.302 OA
ATOM      5  HO  UNL     1     -15.799   0.969 -28.453  1.00  0.00     0.223 HD
ENDBRANCH   1   4
BRANCH   1   6
HETATM    6  O   UNL     1     -15.619  -0.764 -27.666  1.00  0.00    -0.213 OA
BRANCH   6   7
HETATM    7  C   UNL     1     -15.070  -1.971 -27.869  1.00  0.00     0.300 C 
HETATM    8  O   UNL     1     -14.975  -2.820 -27.026  1.00  0.00    -0.262 OA
BRANCH   7   9
HETATM    9  C   UNL     1     -14.519  -2.173 -29.276  1.00  0.00     0.262 C 
HETATM   10  O   UNL     1     -14.355  -3.596 -29.499  1.00  0.00    -0.332 OA
HETATM   11  C   UNL     1     -13.113  -3.793 -30.112  1.00  0.00     0.079 C 
HETATM   12  C   UNL     1     -12.363  -2.634 -30.087  1.00  0.00     0.007 C 
HETATM   13  C   UNL     1     -12.485  -5.029 -30.149  1.00  0.00     0.037 C 
HETATM   14  C   UNL     1     -13.137  -1.559 -29.407  1.00  0.00     0.193 C 
HETATM   15  C   UNL     1     -11.033  -2.671 -30.457  1.00  0.00     0.012 C 
HETATM   16  C   UNL     1     -10.413  -3.908 -30.568  1.00  0.00     0.001 C 
HETATM   17  C   UNL     1     -11.091  -5.066 -30.226  1.00  0.00     0.003 C 
BRANCH  14  18
HETATM   18  O   UNL     1     -12.609  -1.078 -28.198  1.00  0.00    -0.388 OA
ATOM     19  HO  UNL     1     -12.868  -0.200 -27.942  1.00  0.00     0.210 HD
ENDBRANCH  14  18
ENDBRANCH   7   9
ENDBRANCH   6   7
ENDBRANCH   1   6
BRANCH   1  20
HETATM   20  O   UNL     1     -18.066  -0.642 -28.862  1.00  0.00    -0.302 OA
ATOM     21  HO  UNL     1     -18.592   0.074 -28.526  1.00  0.00     0.223 HD
ENDBRANCH   1  20
BRANCH   1  22
HETATM   22  O   UNL     1     -17.429   1.060 -27.107  1.00  0.00    -0.302 OA
ATOM     23  HO  UNL     1     -16.893   1.505 -27.754  1.00  0.00     0.223 HD
ENDBRANCH   1  22
TORSDOF 7
ENDMDL
MODEL 5
REMARK VINA RESULT:      -7.3      1.840      2.158
REMARK  7 active torsions:
REMARK  status: ('A' for Active; 'I' for Inactive)
REMARK    1  A    between atoms: O_2  and  P_17 
REMARK    2  A    between atoms: C_6  and  O_15 
REMARK    3  A    between atoms: C_9  and  O_10 
REMARK    4  A    between atoms: C_9  and  C_11 
REMARK    5  A    between atoms: O_10  and  P_17 
REMARK    6  A    between atoms: O_12  and  P_17 
REMARK    7  A    between atoms: P_17  and  O_18 
ROOT
HETATM    1  P   UNL     1     -17.460  -2.000 -29.159  1.00  0.00     0.406 P 
HETATM    2  O   UNL     1     -17.582  -1.315 -27.805  1.00  0.00    -0.302 OA
ATOM      3  HO  UNL     1     -17.543  -0.903 -26.950  1.00  0.00     0.223 HD
ENDROOT
BRANCH   1   4
HETATM    4  O   UNL     1     -17.525  -2.679 -30.569  1.00  0.00    -0.302 OA
ATOM      5  HO  UNL     1     -16.691  -2.284 -30.796  1.00  0.00     0.223 HD
ENDBRANCH   1   4
BRANCH   1   6
HETATM    6  O   UNL     1     -16.171  -1.217 -29.599  1.00  0.00    -0.213 OA
BRANCH   6   7
HETATM    7  C   UNL     1     -14.930  -1.594 -29.940  1.00  0.00     0.300 C 
HETATM    8  O   UNL     1     -14.659  -2.202 -30.938  1.00  0.00    -0.262 OA
BRANCH   7   9
HETATM    9  C   UNL     1     -13.865  -1.219 -28.915  1.00  0.00     0.262 C 
HETATM   10  O   UNL     1     -12.616  -1.003 -29.618  1.00  0.00    -0.332 OA
HETATM   11  C   UNL     1     -11.601  -1.637 -28.894  1.00  0.00     0.079 C 
HETATM   12  C   UNL     1     -12.132  -2.444 -27.907  1.00  0.00     0.007 C 
HETATM   13  C   UNL     1     -10.362  -1.931 -29.443  1.00  0.00     0.037 C 
HETATM   14  C   UNL     1     -13.618  -2.367 -27.952  1.00  0.00     0.193 C 
HETATM   15  C   UNL     1     -11.309  -3.311 -27.215  1.00  0.00     0.012 C 
HETATM   16  C   UNL     1     -10.039  -3.557 -27.717  1.00  0.00     0.001 C 
HETATM   17  C   UNL     1      -9.646  -3.014 -28.929  1.00  0.00     0.003 C 
BRANCH  14  18
HETATM   18  O   UNL     1     -14.296  -3.550 -28.287  1.00  0.00    -0.388 OA
ATOM     19  HO  UNL     1     -14.431  -4.174 -27.583  1.00  0.00     0.210 HD
ENDBRANCH  14  18
ENDBRANCH   7   9
ENDBRANCH   6   7
ENDBRANCH   1   6
BRANCH   1  20
HETATM   20  O   UNL     1     -17.485  -3.410 -28.650  1.00  0.00    -0.302 OA
ATOM     21  HO  UNL     1     -17.412  -2.999 -27.796  1.00  0.00     0.223 HD
ENDBRANCH   1  20
BRANCH   1  22
HETATM   22  O   UNL     1     -18.792  -1.422 -29.500  1.00  0.00    -0.302 OA
ATOM     23  HO  UNL     1     -19.013  -1.576 -28.589  1.00  0.00     0.223 HD
ENDBRANCH   1  22
TORSDOF 7
ENDMDL
MODEL 6
REMARK VINA RESULT:      -7.2      3.838      5.658
REMARK  7 active torsions:
REMARK  status: ('A' for Active; 'I' for Inactive)
REMARK    1  A    between atoms: O_2  and  P_17 
REMARK    2  A    between atoms: C_6  and  O_15 
REMARK    3  A    between atoms: C_9  and  O_10 
REMARK    4  A    between atoms: C_9  and  C_11 
REMARK    5  A    between atoms: O_10  and  P_17 
REMARK    6  A    between atoms: O_12  and  P_17 
REMARK    7  A    between atoms: P_17  and  O_18 
ROOT
HETATM    1  P   UNL     1     -11.399  -4.840 -30.110  1.00  0.00     0.406 P 
HETATM    2  O   UNL     1     -12.579  -5.627 -29.558  1.00  0.00    -0.302 OA
ATOM      3  HO  UNL     1     -13.239  -6.167 -29.138  1.00  0.00     0.223 HD
ENDROOT
BRANCH   1   4
HETATM    4  O   UNL     1     -10.311  -3.951 -30.801  1.00  0.00    -0.302 OA
ATOM      5  HO  UNL     1     -10.931  -3.728 -31.487  1.00  0.00     0.223 HD
ENDBRANCH   1   4
BRANCH   1   6
HETATM    6  O   UNL     1     -10.802  -4.473 -28.704  1.00  0.00    -0.213 OA
BRANCH   6   7
HETATM    7  C   UNL     1     -10.396  -3.326 -28.141  1.00  0.00     0.300 C 
HETATM    8  O   UNL     1      -9.250  -2.973 -28.078  1.00  0.00    -0.262 OA
BRANCH   7   9
HETATM    9  C   UNL     1     -11.523  -2.502 -27.530  1.00  0.00     0.262 C 
HETATM   10  O   UNL     1     -12.695  -3.349 -27.419  1.00  0.00    -0.332 OA
HETATM   11  C   UNL     1     -13.799  -2.611 -27.858  1.00  0.00     0.079 C 
HETATM   12  C   UNL     1     -13.397  -1.437 -28.464  1.00  0.00     0.007 C 
HETATM   13  C   UNL     1     -15.001  -3.204 -28.216  1.00  0.00     0.037 C 
HETATM   14  C   UNL     1     -11.911  -1.356 -28.448  1.00  0.00     0.193 C 
HETATM   15  C   UNL     1     -14.320  -0.666 -29.143  1.00  0.00     0.012 C 
HETATM   16  C   UNL     1     -15.554  -1.226 -29.443  1.00  0.00     0.001 C 
HETATM   17  C   UNL     1     -15.814  -2.554 -29.146  1.00  0.00     0.003 C 
BRANCH  14  18
HETATM   18  O   UNL     1     -11.269  -1.383 -29.696  1.00  0.00    -0.388 OA
ATOM     19  HO  UNL     1     -11.462  -2.127 -30.255  1.00  0.00     0.210 HD
ENDBRANCH  14  18
ENDBRANCH   7   9
ENDBRANCH   6   7
ENDBRANCH   1   6
BRANCH   1  20
HETATM   20  O   UNL     1     -10.878  -5.913 -31.018  1.00  0.00    -0.302 OA
ATOM     21  HO  UNL     1     -10.080  -5.397 -31.010  1.00  0.00     0.223 HD
ENDBRANCH   1  20
BRANCH   1  22
HETATM   22  O   UNL     1     -12.390  -3.910 -30.724  1.00  0.00    -0.302 OA
ATOM     23  HO  UNL     1     -12.174  -3.322 -30.010  1.00  0.00     0.223 HD
ENDBRANCH   1  22
TORSDOF 7
ENDMDL
MODEL 7
REMARK VINA RESULT:      -7.2      1.670      2.293
REMARK  7 active torsions:
REMARK  status: ('A' for Active; 'I' for Inactive)
REMARK    1  A    between atoms: O_2  and  P_17 
REMARK    2  A    between atoms: C_6  and  O_15 
REMARK    3  A    between atoms: C_9  and  O_10 
REMARK    4  A    between atoms: C_9  and  C_11 
REMARK    5  A    between atoms: O_10  and  P_17 
REMARK    6  A    between atoms: O_12  and  P_17 
REMARK    7  A    between atoms: P_17  and  O_18 
ROOT
HETATM    1  P   UNL     1     -17.274  -2.639 -29.526  1.00  0.00     0.406 P 
HETATM    2  O   UNL     1     -18.196  -1.480 -29.875  1.00  0.00    -0.302 OA
ATOM      3  HO  UNL     1     -18.764  -0.726 -29.981  1.00  0.00     0.223 HD
ENDROOT
BRANCH   1   4
HETATM    4  O   UNL     1     -16.339  -3.883 -29.351  1.00  0.00    -0.302 OA
ATOM      5  HO  UNL     1     -17.095  -4.457 -29.402  1.00  0.00     0.223 HD
ENDBRANCH   1   4
BRANCH   1   6
HETATM    6  O   UNL     1     -16.292  -1.781 -28.650  1.00  0.00    -0.213 OA
BRANCH   6   7
HETATM    7  C   UNL     1     -15.589  -0.662 -28.873  1.00  0.00     0.300 C 
HETATM    8  O   UNL     1     -16.010   0.448 -28.690  1.00  0.00    -0.262 OA
BRANCH   7   9
HETATM    9  C   UNL     1     -14.193  -0.907 -29.434  1.00  0.00     0.262 C 
HETATM   10  O   UNL     1     -14.303  -1.856 -30.525  1.00  0.00    -0.332 OA
HETATM   11  C   UNL     1     -13.275  -2.794 -30.382  1.00  0.00     0.079 C 
HETATM   12  C   UNL     1     -12.656  -2.662 -29.155  1.00  0.00     0.007 C 
HETATM   13  C   UNL     1     -13.287  -4.021 -31.028  1.00  0.00     0.037 C 
HETATM   14  C   UNL     1     -13.301  -1.558 -28.392  1.00  0.00     0.193 C 
HETATM   15  C   UNL     1     -11.754  -3.620 -28.736  1.00  0.00     0.012 C 
HETATM   16  C   UNL     1     -11.707  -4.826 -29.422  1.00  0.00     0.001 C 
HETATM   17  C   UNL     1     -12.607  -5.090 -30.442  1.00  0.00     0.003 C 
BRANCH  14  18
HETATM   18  O   UNL     1     -13.972  -1.921 -27.213  1.00  0.00    -0.388 OA
ATOM     19  HO  UNL     1     -13.634  -2.679 -26.750  1.00  0.00     0.210 HD
ENDBRANCH  14  18
ENDBRANCH   7   9
ENDBRANCH   6   7
ENDBRANCH   1   6
BRANCH   1  20
HETATM   20  O   UNL     1     -18.334  -3.555 -28.991  1.00  0.00    -0.302 OA
ATOM     21  HO  UNL     1     -18.666  -3.531 -29.881  1.00  0.00     0.223 HD
ENDBRANCH   1  20
BRANCH   1  22
HETATM   22  O   UNL     1     -16.993  -2.772 -30.984  1.00  0.00    -0.302 OA
ATOM     23  HO  UNL     1     -17.804  -3.265 -31.023  1.00  0.00     0.223 HD
ENDBRANCH   1  22
TORSDOF 7
ENDMDL
MODEL 8
REMARK VINA RESULT:      -7.1      2.320      3.292
REMARK  7 active torsions:
REMARK  status: ('A' for Active; 'I' for Inactive)
REMARK    1  A    between atoms: O_2  and  P_17 
REMARK    2  A    between atoms: C_6  and  O_15 
REMARK    3  A    between atoms: C_9  and  O_10 
REMARK    4  A    between atoms: C_9  and  C_11 
REMARK    5  A    between atoms: O_10  and  P_17 
REMARK    6  A    between atoms: O_12  and  P_17 
REMARK    7  A    between atoms: P_17  and  O_18 
ROOT
HETATM    1  P   UNL     1     -16.268  -0.495 -28.438  1.00  0.00     0.406 P 
HETATM    2  O   UNL     1     -17.044  -1.280 -27.391  1.00  0.00    -0.302 OA
ATOM      3  HO  UNL     1     -17.481  -1.866 -26.784  1.00  0.00     0.223 HD
ENDROOT
BRANCH   1   4
HETATM    4  O   UNL     1     -15.548   0.471 -29.439  1.00  0.00    -0.302 OA
ATOM      5  HO  UNL     1     -15.631   1.181 -28.811  1.00  0.00     0.223 HD
ENDBRANCH   1   4
BRANCH   1   6
HETATM    6  O   UNL     1     -14.934  -1.306 -28.266  1.00  0.00    -0.213 OA
BRANCH   6   7
HETATM    7  C   UNL     1     -13.761  -1.309 -28.915  1.00  0.00     0.300 C 
HETATM    8  O   UNL     1     -12.861  -0.549 -28.687  1.00  0.00    -0.262 OA
BRANCH   7   9
HETATM    9  C   UNL     1     -13.670  -2.350 -30.025  1.00  0.00     0.262 C 
HETATM   10  O   UNL     1     -14.943  -2.385 -30.719  1.00  0.00    -0.332 OA
HETATM   11  C   UNL     1     -15.285  -3.727 -30.917  1.00  0.00     0.079 C 
HETATM   12  C   UNL     1     -14.450  -4.559 -30.199  1.00  0.00     0.007 C 
HETATM   13  C   UNL     1     -16.575  -4.132 -31.227  1.00  0.00     0.037 C 
HETATM   14  C   UNL     1     -13.462  -3.738 -29.446  1.00  0.00     0.193 C 
HETATM   15  C   UNL     1     -14.746  -5.904 -30.097  1.00  0.00     0.012 C 
HETATM   16  C   UNL     1     -16.011  -6.332 -30.473  1.00  0.00     0.001 C 
HETATM   17  C   UNL     1     -16.978  -5.415 -30.853  1.00  0.00     0.003 C 
BRANCH  14  18
HETATM   18  O   UNL     1     -13.543  -3.790 -28.046  1.00  0.00    -0.388 OA
ATOM     19  HO  UNL     1     -12.784  -4.135 -27.590  1.00  0.00     0.210 HD
ENDBRANCH  14  18
ENDBRANCH   7   9
ENDBRANCH   6   7
ENDBRANCH   1   6
BRANCH   1  20
HETATM   20  O   UNL     1     -17.250  -0.672 -29.558  1.00  0.00    -0.302 OA
ATOM     21  HO  UNL     1     -17.756  -0.021 -29.087  1.00  0.00     0.223 HD
ENDBRANCH   1  20
BRANCH   1  22
HETATM   22  O   UNL     1     -16.477   0.716 -27.593  1.00  0.00    -0.302 OA
ATOM     23  HO  UNL     1     -15.537   0.699 -27.461  1.00  0.00     0.223 HD
ENDBRANCH   1  22
TORSDOF 7
ENDMDL
MODEL 9
REMARK VINA RESULT:      -7.1      3.349      5.727
REMARK  7 active torsions:
REMARK  status: ('A' for Active; 'I' for Inactive)
REMARK    1  A    between atoms: O_2  and  P_17 
REMARK    2  A    between atoms: C_6  and  O_15 
REMARK    3  A    between atoms: C_9  and  O_10 
REMARK    4  A    between atoms: C_9  and  C_11 
REMARK    5  A    between atoms: O_10  and  P_17 
REMARK    6  A    between atoms: O_12  and  P_17 
REMARK    7  A    between atoms: P_17  and  O_18 
ROOT
HETATM    1  P   UNL     1     -10.637  -3.514 -31.424  1.00  0.00     0.406 P 
HETATM    2  O   UNL     1      -9.180  -3.272 -31.057  1.00  0.00    -0.302 OA
ATOM      3  HO  UNL     1      -8.295  -3.007 -30.837  1.00  0.00     0.223 HD
ENDROOT
BRANCH   1   4
HETATM    4  O   UNL     1     -12.097  -3.951 -31.787  1.00  0.00    -0.302 OA
ATOM      5  HO  UNL     1     -12.100  -4.549 -31.048  1.00  0.00     0.223 HD
ENDBRANCH   1   4
BRANCH   1   6
HETATM    6  O   UNL     1     -11.210  -2.397 -30.481  1.00  0.00    -0.213 OA
BRANCH   6   7
HETATM    7  C   UNL     1     -11.054  -2.114 -29.179  1.00  0.00     0.300 C 
HETATM    8  O   UNL     1     -10.110  -1.529 -28.723  1.00  0.00    -0.262 OA
BRANCH   7   9
HETATM    9  C   UNL     1     -12.174  -2.643 -28.291  1.00  0.00     0.262 C 
HETATM   10  O   UNL     1     -12.928  -3.623 -29.048  1.00  0.00    -0.332 OA
HETATM   11  C   UNL     1     -14.288  -3.377 -28.832  1.00  0.00     0.079 C 
HETATM   12  C   UNL     1     -14.474  -2.171 -28.185  1.00  0.00     0.007 C 
HETATM   13  C   UNL     1     -15.281  -3.885 -29.658  1.00  0.00     0.037 C 
HETATM   14  C   UNL     1     -13.151  -1.534 -27.938  1.00  0.00     0.193 C 
HETATM   15  C   UNL     1     -15.746  -1.649 -28.061  1.00  0.00     0.012 C 
HETATM   16  C   UNL     1     -16.763  -2.199 -28.829  1.00  0.00     0.001 C 
HETATM   17  C   UNL     1     -16.484  -3.184 -29.763  1.00  0.00     0.003 C 
BRANCH  14  18
HETATM   18  O   UNL     1     -12.905  -0.324 -28.605  1.00  0.00    -0.388 OA
ATOM     19  HO  UNL     1     -12.638   0.411 -28.065  1.00  0.00     0.210 HD
ENDBRANCH  14  18
ENDBRANCH   7   9
ENDBRANCH   6   7
ENDBRANCH   1   6
BRANCH   1  20
HETATM   20  O   UNL     1     -10.470  -3.391 -32.909  1.00  0.00    -0.302 OA
ATOM     21  HO  UNL     1     -11.337  -3.003 -32.876  1.00  0.00     0.223 HD
ENDBRANCH   1  20
BRANCH   1  22
HETATM   22  O   UNL     1     -10.480  -4.892 -30.877  1.00  0.00    -0.302 OA
ATOM     23  HO  UNL     1      -9.871  -5.030 -31.594  1.00  0.00     0.223 HD
ENDBRANCH   1  22
TORSDOF 7
ENDMDL
