REMARK  1 active torsions:
REMARK  status: ('A' for Active; 'I' for Inactive)
REMARK    1  A    between atoms: C_7  and  C_9 
ROOT
HETATM    1  C   UNL     1      11.287  18.674  -7.804  1.00  0.00    -0.024 C 
HETATM    2  C   UNL     1      10.522  16.524  -3.046  1.00  0.00     0.000 A 
HETATM    3  C   UNL     1      10.467  19.151  -6.767  1.00  0.00     0.024 C 
HETATM    4  C   UNL     1      12.903  17.314  -9.601  1.00  0.00    -0.025 C 
HETATM    5  C   UNL     1      11.717  15.673 -11.519  1.00  0.00    -0.029 C 
HETATM    6  C   UNL     1      12.996  16.223 -11.743  1.00  0.00     0.013 C 
HETATM    7  C   UNL     1      11.087  15.934 -10.261  1.00  0.00    -0.041 C 
HETATM    8  C   UNL     1      10.710  17.982  -8.886  1.00  0.00     0.025 C 
HETATM    9  C   UNL     1      12.095  18.172  -5.285  1.00  0.00    -0.025 A 
HETATM   10  C   UNL     1       9.676  18.111  -4.756  1.00  0.00     0.012 A 
HETATM   11  C   UNL     1      13.072  18.589  -6.200  1.00  0.00     0.024 C 
HETATM   12  C   UNL     1      12.498  17.298  -4.285  1.00  0.00     0.012 A 
HETATM   13  C   UNL     1      12.649  18.502  -7.528  1.00  0.00    -0.024 C 
HETATM   14  C   UNL     1      13.600  17.023 -10.777  1.00  0.00     0.013 C 
HETATM   15  C   UNL     1      10.751  18.514  -5.549  1.00  0.00    -0.025 A 
HETATM   16  C   UNL     1       9.568  17.285  -3.695  1.00  0.00     0.001 A 
HETATM   17  C   UNL     1      11.515  17.065  -9.567  1.00  0.00    -0.018 C 
HETATM   18  C   UNL     1      13.486  17.950  -8.503  1.00  0.00     0.024 C 
HETATM   19  C   UNL     1      11.855  16.553  -3.364  1.00  0.00     0.001 A 
HETATM   20  C   UNL     1      10.180  14.947  -9.603  1.00  0.00     0.050 C 
ENDROOT
BRANCH   5  21
HETATM   21  C   UNL     1      11.153  14.832 -12.542  1.00  0.00     0.024 C 
HETATM   22  C   UNL     1       9.885  14.887 -13.192  1.00  0.00    -0.020 C 
HETATM   23  C   UNL     1       9.222  13.664 -13.345  1.00  0.00     0.013 C 
HETATM   24  C   UNL     1       9.350  16.055 -13.712  1.00  0.00     0.099 C 
HETATM   25  C   UNL     1       8.445  13.301 -14.419  1.00  0.00     0.002 C 
HETATM   26  C   UNL     1       8.108  14.074 -15.494  1.00  0.00     0.017 C 
HETATM   27  C   UNL     1       8.534  15.315 -15.793  1.00  0.00     0.087 C 
HETATM   28  N   UNL     1       8.851  16.272 -14.924  1.00  0.00    -0.374 N 
ATOM     29  HN  UNL     1       8.700  17.240 -15.209  1.00  0.00     0.164 HD
ENDBRANCH   5  21
TORSDOF 1
