MODEL 1
REMARK VINA RESULT:      -7.2      0.000      0.000
REMARK  3 active torsions:
REMARK  status: ('A' for Active; 'I' for Inactive)
REMARK    1  A    between atoms: C_4  and  C_14 
REMARK    2  A    between atoms: C_6  and  O_8 
REMARK    3  A    between atoms: O_11  and  C_17 
ROOT
HETATM    1  C   UNL     1      12.717 -29.074 -20.225  1.00  0.00     0.003 C 
HETATM    2  C   UNL     1      12.472 -29.366 -18.893  1.00  0.00     0.001 C 
HETATM    3  C   UNL     1      11.740 -28.589 -21.072  1.00  0.00     0.036 C 
HETATM    4  C   UNL     1      10.376 -28.793 -20.825  1.00  0.00     0.066 C 
HETATM    5  C   UNL     1       9.721 -28.459 -19.632  1.00  0.00     0.048 C 
HETATM    6  C   UNL     1      10.166 -28.614 -18.322  1.00  0.00    -0.023 C 
HETATM    7  C   UNL     1      11.465 -28.993 -18.058  1.00  0.00     0.012 C 
ENDROOT
BRANCH   6   8
HETATM    8  C   UNL     1       9.278 -28.372 -17.146  1.00  0.00    -0.023 C 
HETATM    9  C   UNL     1       7.914 -28.620 -17.267  1.00  0.00     0.048 C 
HETATM   10  C   UNL     1       7.156 -28.922 -16.135  1.00  0.00     0.066 C 
HETATM   11  C   UNL     1       7.700 -28.721 -14.869  1.00  0.00     0.036 C 
HETATM   12  C   UNL     1       8.992 -28.221 -14.749  1.00  0.00     0.004 C 
HETATM   13  C   UNL     1       9.798 -28.105 -15.873  1.00  0.00     0.012 C 
BRANCH  10  14
HETATM   14  O   UNL     1       5.933 -29.505 -16.289  1.00  0.00    -0.361 OA
ATOM     15  HO  UNL     1       5.873 -30.451 -16.330  1.00  0.00     0.217 HD
ENDBRANCH  10  14
ENDBRANCH   6   8
BRANCH   4  16
HETATM   16  O   UNL     1       9.701 -29.403 -21.846  1.00  0.00    -0.361 OA
ATOM     17  HO  UNL     1       9.798 -30.348 -21.873  1.00  0.00     0.217 HD
ENDBRANCH   4  16
TORSDOF 3
ENDMDL
MODEL 2
REMARK VINA RESULT:      -7.1      2.151      2.869
REMARK  3 active torsions:
REMARK  status: ('A' for Active; 'I' for Inactive)
REMARK    1  A    between atoms: C_4  and  C_14 
REMARK    2  A    between atoms: C_6  and  O_8 
REMARK    3  A    between atoms: O_11  and  C_17 
ROOT
HETATM    1  C   UNL     1      12.832 -28.487 -21.996  1.00  0.00     0.003 C 
HETATM    2  C   UNL     1      13.231 -28.885 -20.731  1.00  0.00     0.001 C 
HETATM    3  C   UNL     1      11.519 -28.185 -22.301  1.00  0.00     0.036 C 
HETATM    4  C   UNL     1      10.449 -28.688 -21.551  1.00  0.00     0.066 C 
HETATM    5  C   UNL     1      10.315 -28.558 -20.162  1.00  0.00     0.048 C 
HETATM    6  C   UNL     1      11.293 -28.673 -19.179  1.00  0.00    -0.023 C 
HETATM    7  C   UNL     1      12.625 -28.776 -19.517  1.00  0.00     0.012 C 
ENDROOT
BRANCH   6   8
HETATM    8  C   UNL     1      10.961 -28.682 -17.723  1.00  0.00    -0.023 C 
HETATM    9  C   UNL     1      11.993 -28.618 -16.793  1.00  0.00     0.048 C 
HETATM   10  C   UNL     1      11.754 -28.105 -15.518  1.00  0.00     0.066 C 
HETATM   11  C   UNL     1      10.444 -27.904 -15.092  1.00  0.00     0.036 C 
HETATM   12  C   UNL     1       9.390 -28.217 -15.943  1.00  0.00     0.004 C 
HETATM   13  C   UNL     1       9.643 -28.546 -17.268  1.00  0.00     0.012 C 
BRANCH  10  14
HETATM   14  O   UNL     1      12.810 -27.713 -14.749  1.00  0.00    -0.361 OA
ATOM     15  HO  UNL     1      13.693 -27.852 -15.069  1.00  0.00     0.217 HD
ENDBRANCH  10  14
ENDBRANCH   6   8
BRANCH   4  16
HETATM   16  O   UNL     1       9.523 -29.382 -22.281  1.00  0.00    -0.361 OA
ATOM     17  HO  UNL     1       9.891 -29.926 -22.968  1.00  0.00     0.217 HD
ENDBRANCH   4  16
TORSDOF 3
ENDMDL
MODEL 3
REMARK VINA RESULT:      -7.0      2.379      3.496
REMARK  3 active torsions:
REMARK  status: ('A' for Active; 'I' for Inactive)
REMARK    1  A    between atoms: C_4  and  C_14 
REMARK    2  A    between atoms: C_6  and  O_8 
REMARK    3  A    between atoms: O_11  and  C_17 
ROOT
HETATM    1  C   UNL     1      12.829 -28.442 -22.850  1.00  0.00     0.003 C 
HETATM    2  C   UNL     1      11.663 -28.012 -22.239  1.00  0.00     0.001 C 
HETATM    3  C   UNL     1      13.865 -29.026 -22.147  1.00  0.00     0.036 C 
HETATM    4  C   UNL     1      14.042 -28.813 -20.774  1.00  0.00     0.066 C 
HETATM    5  C   UNL     1      13.059 -29.024 -19.798  1.00  0.00     0.048 C 
HETATM    6  C   UNL     1      11.701 -28.725 -19.852  1.00  0.00    -0.023 C 
HETATM    7  C   UNL     1      11.117 -28.305 -21.028  1.00  0.00     0.012 C 
ENDROOT
BRANCH   6   8
HETATM    8  C   UNL     1      10.811 -28.849 -18.659  1.00  0.00    -0.023 C 
HETATM    9  C   UNL     1      11.362 -28.723 -17.388  1.00  0.00     0.048 C 
HETATM   10  C   UNL     1      10.566 -28.309 -16.320  1.00  0.00     0.066 C 
HETATM   11  C   UNL     1       9.182 -28.275 -16.466  1.00  0.00     0.036 C 
HETATM   12  C   UNL     1       8.610 -28.655 -17.674  1.00  0.00     0.004 C 
HETATM   13  C   UNL     1       9.416 -28.882 -18.782  1.00  0.00     0.012 C 
BRANCH  10  14
HETATM   14  O   UNL     1      11.163 -27.846 -15.185  1.00  0.00    -0.361 OA
ATOM     15  HO  UNL     1      11.175 -26.912 -15.015  1.00  0.00     0.217 HD
ENDBRANCH  10  14
ENDBRANCH   6   8
BRANCH   4  16
HETATM   16  O   UNL     1      15.273 -28.323 -20.432  1.00  0.00    -0.361 OA
ATOM     17  HO  UNL     1      15.339 -28.014 -19.536  1.00  0.00     0.217 HD
ENDBRANCH   4  16
TORSDOF 3
ENDMDL
MODEL 4
REMARK VINA RESULT:      -6.9      1.893      5.913
REMARK  3 active torsions:
REMARK  status: ('A' for Active; 'I' for Inactive)
REMARK    1  A    between atoms: C_4  and  C_14 
REMARK    2  A    between atoms: C_6  and  O_8 
REMARK    3  A    between atoms: O_11  and  C_17 
ROOT
HETATM    1  C   UNL     1       8.463 -28.213 -16.477  1.00  0.00     0.003 C 
HETATM    2  C   UNL     1       8.579 -28.704 -17.767  1.00  0.00     0.001 C 
HETATM    3  C   UNL     1       9.556 -28.012 -15.656  1.00  0.00     0.036 C 
HETATM    4  C   UNL     1      10.762 -28.698 -15.847  1.00  0.00     0.066 C 
HETATM    5  C   UNL     1      11.481 -28.734 -17.049  1.00  0.00     0.048 C 
HETATM    6  C   UNL     1      10.997 -28.856 -18.348  1.00  0.00    -0.023 C 
HETATM    7  C   UNL     1       9.645 -28.788 -18.608  1.00  0.00     0.012 C 
ENDROOT
BRANCH   6   8
HETATM    8  C   UNL     1      11.903 -29.057 -19.519  1.00  0.00    -0.023 C 
HETATM    9  C   UNL     1      11.483 -28.642 -20.779  1.00  0.00     0.048 C 
HETATM   10  C   UNL     1      12.423 -28.317 -21.756  1.00  0.00     0.066 C 
HETATM   11  C   UNL     1      13.760 -28.653 -21.564  1.00  0.00     0.036 C 
HETATM   12  C   UNL     1      14.143 -29.309 -20.399  1.00  0.00     0.004 C 
HETATM   13  C   UNL     1      13.237 -29.456 -19.358  1.00  0.00     0.012 C 
BRANCH  10  14
HETATM   14  O   UNL     1      12.032 -27.585 -22.838  1.00  0.00    -0.361 OA
ATOM     15  HO  UNL     1      12.375 -26.707 -22.952  1.00  0.00     0.217 HD
ENDBRANCH  10  14
ENDBRANCH   6   8
BRANCH   4  16
HETATM   16  O   UNL     1      11.194 -29.398 -14.753  1.00  0.00    -0.361 OA
ATOM     17  HO  UNL     1      10.526 -29.931 -14.338  1.00  0.00     0.217 HD
ENDBRANCH   4  16
TORSDOF 3
ENDMDL
MODEL 5
REMARK VINA RESULT:      -6.8      1.078      5.377
REMARK  3 active torsions:
REMARK  status: ('A' for Active; 'I' for Inactive)
REMARK    1  A    between atoms: C_4  and  C_14 
REMARK    2  A    between atoms: C_6  and  O_8 
REMARK    3  A    between atoms: O_11  and  C_17 
ROOT
HETATM    1  C   UNL     1       8.941 -28.225 -15.027  1.00  0.00     0.003 C 
HETATM    2  C   UNL     1      10.177 -27.935 -15.579  1.00  0.00     0.001 C 
HETATM    3  C   UNL     1       7.897 -28.739 -15.772  1.00  0.00     0.036 C 
HETATM    4  C   UNL     1       7.822 -28.569 -17.160  1.00  0.00     0.066 C 
HETATM    5  C   UNL     1       8.836 -28.915 -18.064  1.00  0.00     0.048 C 
HETATM    6  C   UNL     1      10.211 -28.744 -17.935  1.00  0.00    -0.023 C 
HETATM    7  C   UNL     1      10.763 -28.330 -16.742  1.00  0.00     0.012 C 
ENDROOT
BRANCH   6   8
HETATM    8  C   UNL     1      11.154 -29.003 -19.064  1.00  0.00    -0.023 C 
HETATM    9  C   UNL     1      10.740 -28.737 -20.366  1.00  0.00     0.048 C 
HETATM   10  C   UNL     1      11.683 -28.454 -21.354  1.00  0.00     0.066 C 
HETATM   11  C   UNL     1      13.032 -28.691 -21.106  1.00  0.00     0.036 C 
HETATM   12  C   UNL     1      13.423 -29.209 -19.877  1.00  0.00     0.004 C 
HETATM   13  C   UNL     1      12.503 -29.308 -18.842  1.00  0.00     0.012 C 
BRANCH  10  14
HETATM   14  O   UNL     1      11.277 -27.853 -22.509  1.00  0.00    -0.361 OA
ATOM     15  HO  UNL     1      11.860 -27.848 -23.258  1.00  0.00     0.217 HD
ENDBRANCH  10  14
ENDBRANCH   6   8
BRANCH   4  16
HETATM   16  O   UNL     1       6.667 -27.980 -17.597  1.00  0.00    -0.361 OA
ATOM     17  HO  UNL     1       6.605 -27.051 -17.412  1.00  0.00     0.217 HD
ENDBRANCH   4  16
TORSDOF 3
ENDMDL
MODEL 6
REMARK VINA RESULT:      -6.7      2.331      5.378
REMARK  3 active torsions:
REMARK  status: ('A' for Active; 'I' for Inactive)
REMARK    1  A    between atoms: C_4  and  C_14 
REMARK    2  A    between atoms: C_6  and  O_8 
REMARK    3  A    between atoms: O_11  and  C_17 
ROOT
HETATM    1  C   UNL     1       8.048 -28.297 -15.867  1.00  0.00     0.003 C 
HETATM    2  C   UNL     1       9.380 -27.957 -15.701  1.00  0.00     0.001 C 
HETATM    3  C   UNL     1       7.553 -28.808 -17.051  1.00  0.00     0.036 C 
HETATM    4  C   UNL     1       8.193 -28.591 -18.278  1.00  0.00     0.066 C 
HETATM    5  C   UNL     1       9.539 -28.879 -18.539  1.00  0.00     0.048 C 
HETATM    6  C   UNL     1      10.647 -28.680 -17.721  1.00  0.00    -0.023 C 
HETATM    7  C   UNL     1      10.493 -28.296 -16.406  1.00  0.00     0.012 C 
ENDROOT
BRANCH   6   8
HETATM    8  C   UNL     1      12.044 -28.876 -18.211  1.00  0.00    -0.023 C 
HETATM    9  C   UNL     1      12.984 -29.453 -17.363  1.00  0.00     0.048 C 
HETATM   10  C   UNL     1      14.085 -30.124 -17.895  1.00  0.00     0.066 C 
HETATM   11  C   UNL     1      14.383 -29.994 -19.249  1.00  0.00     0.036 C 
HETATM   12  C   UNL     1      13.579 -29.196 -20.054  1.00  0.00     0.004 C 
HETATM   13  C   UNL     1      12.385 -28.690 -19.557  1.00  0.00     0.012 C 
BRANCH  10  14
HETATM   14  O   UNL     1      14.792 -30.978 -17.100  1.00  0.00    -0.361 OA
ATOM     15  HO  UNL     1      15.566 -30.659 -16.651  1.00  0.00     0.217 HD
ENDBRANCH  10  14
ENDBRANCH   6   8
BRANCH   4  16
HETATM   16  O   UNL     1       7.403 -28.015 -19.234  1.00  0.00    -0.361 OA
ATOM     17  HO  UNL     1       6.956 -28.633 -19.800  1.00  0.00     0.217 HD
ENDBRANCH   4  16
TORSDOF 3
ENDMDL
MODEL 7
REMARK VINA RESULT:      -6.4      2.351      3.062
REMARK  3 active torsions:
REMARK  status: ('A' for Active; 'I' for Inactive)
REMARK    1  A    between atoms: C_4  and  C_14 
REMARK    2  A    between atoms: C_6  and  O_8 
REMARK    3  A    between atoms: O_11  and  C_17 
ROOT
HETATM    1  C   UNL     1      14.169 -29.653 -20.080  1.00  0.00     0.003 C 
HETATM    2  C   UNL     1      13.050 -28.840 -20.163  1.00  0.00     0.001 C 
HETATM    3  C   UNL     1      14.601 -30.202 -18.888  1.00  0.00     0.036 C 
HETATM    4  C   UNL     1      14.272 -29.638 -17.649  1.00  0.00     0.066 C 
HETATM    5  C   UNL     1      12.969 -29.355 -17.220  1.00  0.00     0.048 C 
HETATM    6  C   UNL     1      11.910 -28.819 -17.948  1.00  0.00    -0.023 C 
HETATM    7  C   UNL     1      12.005 -28.652 -19.312  1.00  0.00     0.012 C 
ENDROOT
BRANCH   6   8
HETATM    8  C   UNL     1      10.627 -28.410 -17.302  1.00  0.00    -0.023 C 
HETATM    9  C   UNL     1       9.451 -28.457 -18.044  1.00  0.00     0.048 C 
HETATM   10  C   UNL     1       8.224 -28.606 -17.398  1.00  0.00     0.066 C 
HETATM   11  C   UNL     1       8.149 -28.446 -16.017  1.00  0.00     0.036 C 
HETATM   12  C   UNL     1       9.298 -28.139 -15.298  1.00  0.00     0.004 C 
HETATM   13  C   UNL     1      10.538 -28.180 -15.923  1.00  0.00     0.012 C 
BRANCH  10  14
HETATM   14  O   UNL     1       7.137 -29.006 -18.118  1.00  0.00    -0.361 OA
ATOM     15  HO  UNL     1       6.296 -28.599 -17.953  1.00  0.00     0.217 HD
ENDBRANCH  10  14
ENDBRANCH   6   8
BRANCH   4  16
HETATM   16  O   UNL     1      15.350 -29.326 -16.865  1.00  0.00    -0.361 OA
ATOM     17  HO  UNL     1      15.347 -29.741 -16.011  1.00  0.00     0.217 HD
ENDBRANCH   4  16
TORSDOF 3
ENDMDL
MODEL 8
REMARK VINA RESULT:      -6.2      2.678      5.348
REMARK  3 active torsions:
REMARK  status: ('A' for Active; 'I' for Inactive)
REMARK    1  A    between atoms: C_4  and  C_14 
REMARK    2  A    between atoms: C_6  and  O_8 
REMARK    3  A    between atoms: O_11  and  C_17 
ROOT
HETATM    1  C   UNL     1      13.079 -30.564 -15.438  1.00  0.00     0.003 C 
HETATM    2  C   UNL     1      13.620 -30.574 -16.713  1.00  0.00     0.001 C 
HETATM    3  C   UNL     1      11.955 -29.830 -15.114  1.00  0.00     0.036 C 
HETATM    4  C   UNL     1      11.559 -28.710 -15.857  1.00  0.00     0.066 C 
HETATM    5  C   UNL     1      11.348 -28.704 -17.242  1.00  0.00     0.048 C 
HETATM    6  C   UNL     1      12.093 -29.328 -18.239  1.00  0.00    -0.023 C 
HETATM    7  C   UNL     1      13.099 -30.214 -17.918  1.00  0.00     0.012 C 
ENDROOT
BRANCH   6   8
HETATM    8  C   UNL     1      11.843 -29.082 -19.691  1.00  0.00    -0.023 C 
HETATM    9  C   UNL     1      10.532 -29.046 -20.154  1.00  0.00     0.048 C 
HETATM   10  C   UNL     1      10.220 -28.329 -21.309  1.00  0.00     0.066 C 
HETATM   11  C   UNL     1      11.244 -27.873 -22.135  1.00  0.00     0.036 C 
HETATM   12  C   UNL     1      12.566 -28.140 -21.798  1.00  0.00     0.004 C 
HETATM   13  C   UNL     1      12.869 -28.685 -20.558  1.00  0.00     0.012 C 
BRANCH  10  14
HETATM   14  O   UNL     1       8.920 -27.998 -21.556  1.00  0.00    -0.361 OA
ATOM     15  HO  UNL     1       8.619 -27.120 -21.355  1.00  0.00     0.217 HD
ENDBRANCH  10  14
ENDBRANCH   6   8
BRANCH   4  16
HETATM   16  O   UNL     1      11.427 -27.562 -15.124  1.00  0.00    -0.361 OA
ATOM     17  HO  UNL     1      11.827 -27.597 -14.263  1.00  0.00     0.217 HD
ENDBRANCH   4  16
TORSDOF 3
ENDMDL
MODEL 9
REMARK VINA RESULT:      -6.1      7.724      9.773
REMARK  3 active torsions:
REMARK  status: ('A' for Active; 'I' for Inactive)
REMARK    1  A    between atoms: C_4  and  C_14 
REMARK    2  A    between atoms: C_6  and  O_8 
REMARK    3  A    between atoms: O_11  and  C_17 
ROOT
HETATM    1  C   UNL     1       4.948 -29.567 -23.748  1.00  0.00     0.003 C 
HETATM    2  C   UNL     1       5.975 -28.689 -24.053  1.00  0.00     0.001 C 
HETATM    3  C   UNL     1       3.630 -29.165 -23.656  1.00  0.00     0.036 C 
HETATM    4  C   UNL     1       3.276 -27.836 -23.389  1.00  0.00     0.066 C 
HETATM    5  C   UNL     1       3.720 -26.728 -24.124  1.00  0.00     0.048 C 
HETATM    6  C   UNL     1       4.988 -26.477 -24.638  1.00  0.00    -0.023 C 
HETATM    7  C   UNL     1       5.967 -27.448 -24.610  1.00  0.00     0.012 C 
ENDROOT
BRANCH   6   8
HETATM    8  C   UNL     1       5.353 -25.164 -25.250  1.00  0.00    -0.023 C 
HETATM    9  C   UNL     1       6.127 -24.269 -24.518  1.00  0.00     0.048 C 
HETATM   10  C   UNL     1       6.912 -23.323 -25.178  1.00  0.00     0.066 C 
HETATM   11  C   UNL     1       6.725 -23.103 -26.540  1.00  0.00     0.036 C 
HETATM   12  C   UNL     1       5.757 -23.828 -27.226  1.00  0.00     0.004 C 
HETATM   13  C   UNL     1       5.118 -24.892 -26.604  1.00  0.00     0.012 C 
BRANCH  10  14
HETATM   14  O   UNL     1       7.919 -22.704 -24.499  1.00  0.00    -0.361 OA
ATOM     15  HO  UNL     1       8.779 -23.106 -24.477  1.00  0.00     0.217 HD
ENDBRANCH  10  14
ENDBRANCH   6   8
BRANCH   4  16
HETATM   16  O   UNL     1       2.471 -27.673 -22.295  1.00  0.00    -0.361 OA
ATOM     17  HO  UNL     1       2.894 -27.256 -21.555  1.00  0.00     0.217 HD
ENDBRANCH   4  16
TORSDOF 3
ENDMDL
