MODEL 1
REMARK VINA RESULT:      -6.4      0.000      0.000
REMARK  4 active torsions:
REMARK  status: ('A' for Active; 'I' for Inactive)
REMARK    1  A    between atoms: O_1  and  P_2 
REMARK    2  A    between atoms: O_1  and  C_10 
REMARK    3  A    between atoms: O_5  and  C_7 
REMARK    4  A    between atoms: C_10  and  C_15 
ROOT
HETATM    1  C   UNL     1       6.132 -23.685 -27.165  1.00  0.00     0.044 C 
HETATM    2  C   UNL     1       6.966 -22.756 -26.578  1.00  0.00     0.134 C 
HETATM    3  N   UNL     1       6.554 -23.731 -24.438  1.00  0.00    -0.322 N 
ATOM      4  HN  UNL     1       6.599 -23.672 -23.421  1.00  0.00     0.169 HD
HETATM    5  O   UNL     1       8.272 -22.225 -24.727  1.00  0.00    -0.265 OA
HETATM    6  C   UNL     1       5.555 -24.684 -26.393  1.00  0.00     0.031 C 
HETATM    7  C   UNL     1       7.326 -22.884 -25.184  1.00  0.00     0.279 C 
HETATM    8  C   UNL     1       5.716 -24.661 -25.017  1.00  0.00     0.041 C 
ENDROOT
BRANCH   8   9
HETATM    9  C   UNL     1       4.983 -25.673 -24.173  1.00  0.00     0.181 C 
HETATM   10  C   UNL     1       3.608 -25.181 -23.729  1.00  0.00     0.047 C 
BRANCH   9  11
HETATM   11  O   UNL     1       4.989 -26.941 -24.847  1.00  0.00    -0.272 OA
BRANCH  11  12
HETATM   12  P   UNL     1       5.114 -28.337 -24.048  1.00  0.00     0.422 P 
HETATM   13  O   UNL     1       5.554 -27.988 -22.652  1.00  0.00    -0.617 OA
HETATM   14  O   UNL     1       3.787 -29.006 -24.035  1.00  0.00    -0.617 OA
HETATM   15  O   UNL     1       6.159 -29.205 -24.702  1.00  0.00    -0.617 OA
ENDBRANCH  11  12
ENDBRANCH   9  11
ENDBRANCH   8   9
BRANCH   2  16
HETATM   16  O   UNL     1       7.178 -21.559 -27.187  1.00  0.00    -0.356 OA
ATOM     17  HO  UNL     1       7.845 -21.483 -27.860  1.00  0.00     0.218 HD
ENDBRANCH   2  16
TORSDOF 4
ENDMDL
MODEL 2
REMARK VINA RESULT:      -6.3      3.727      6.396
REMARK  4 active torsions:
REMARK  status: ('A' for Active; 'I' for Inactive)
REMARK    1  A    between atoms: O_1  and  P_2 
REMARK    2  A    between atoms: O_1  and  C_10 
REMARK    3  A    between atoms: O_5  and  C_7 
REMARK    4  A    between atoms: C_10  and  C_15 
ROOT
HETATM    1  C   UNL     1       2.524 -29.273 -23.745  1.00  0.00     0.044 C 
HETATM    2  C   UNL     1       3.009 -30.477 -24.213  1.00  0.00     0.134 C 
HETATM    3  N   UNL     1       5.232 -29.607 -24.159  1.00  0.00    -0.322 N 
ATOM      4  HN  UNL     1       6.212 -29.678 -24.434  1.00  0.00     0.169 HD
HETATM    5  O   UNL     1       4.864 -31.866 -24.420  1.00  0.00    -0.265 OA
HETATM    6  C   UNL     1       3.405 -28.250 -23.421  1.00  0.00     0.031 C 
HETATM    7  C   UNL     1       4.434 -30.713 -24.264  1.00  0.00     0.279 C 
HETATM    8  C   UNL     1       4.755 -28.400 -23.694  1.00  0.00     0.041 C 
ENDROOT
BRANCH   8   9
HETATM    9  C   UNL     1       5.687 -27.239 -23.459  1.00  0.00     0.181 C 
HETATM   10  C   UNL     1       6.879 -27.612 -22.581  1.00  0.00     0.047 C 
BRANCH   9  11
HETATM   11  O   UNL     1       6.022 -26.639 -24.720  1.00  0.00    -0.272 OA
BRANCH  11  12
HETATM   12  P   UNL     1       5.336 -25.271 -25.230  1.00  0.00     0.422 P 
HETATM   13  O   UNL     1       4.152 -25.031 -24.333  1.00  0.00    -0.617 OA
HETATM   14  O   UNL     1       6.321 -24.165 -25.116  1.00  0.00    -0.617 OA
HETATM   15  O   UNL     1       4.862 -25.439 -26.652  1.00  0.00    -0.617 OA
ENDBRANCH  11  12
ENDBRANCH   9  11
ENDBRANCH   8   9
BRANCH   2  16
HETATM   16  O   UNL     1       2.198 -31.299 -24.930  1.00  0.00    -0.356 OA
ATOM     17  HO  UNL     1       1.899 -32.117 -24.549  1.00  0.00     0.218 HD
ENDBRANCH   2  16
TORSDOF 4
ENDMDL
MODEL 3
REMARK VINA RESULT:      -6.1      4.136      6.124
REMARK  4 active torsions:
REMARK  status: ('A' for Active; 'I' for Inactive)
REMARK    1  A    between atoms: O_1  and  P_2 
REMARK    2  A    between atoms: O_1  and  C_10 
REMARK    3  A    between atoms: O_5  and  C_7 
REMARK    4  A    between atoms: C_10  and  C_15 
ROOT
HETATM    1  C   UNL     1       1.463 -24.559 -22.377  1.00  0.00     0.044 C 
HETATM    2  C   UNL     1       0.354 -25.151 -21.807  1.00  0.00     0.134 C 
HETATM    3  N   UNL     1       1.259 -27.310 -22.275  1.00  0.00    -0.322 N 
ATOM      4  HN  UNL     1       1.132 -28.318 -22.361  1.00  0.00     0.169 HD
HETATM    5  O   UNL     1      -0.533 -27.076 -20.848  1.00  0.00    -0.265 OA
HETATM    6  C   UNL     1       2.507 -25.348 -22.842  1.00  0.00     0.031 C 
HETATM    7  C   UNL     1       0.325 -26.580 -21.594  1.00  0.00     0.279 C 
HETATM    8  C   UNL     1       2.369 -26.726 -22.850  1.00  0.00     0.041 C 
ENDROOT
BRANCH   8   9
HETATM    9  C   UNL     1       3.451 -27.570 -23.474  1.00  0.00     0.181 C 
HETATM   10  C   UNL     1       2.974 -28.981 -23.812  1.00  0.00     0.047 C 
BRANCH   9  11
HETATM   11  O   UNL     1       4.042 -26.848 -24.565  1.00  0.00    -0.272 OA
BRANCH  11  12
HETATM   12  P   UNL     1       5.613 -26.480 -24.601  1.00  0.00     0.422 P 
HETATM   13  O   UNL     1       6.356 -27.781 -24.462  1.00  0.00    -0.617 OA
HETATM   14  O   UNL     1       5.925 -25.827 -25.899  1.00  0.00    -0.617 OA
HETATM   15  O   UNL     1       5.951 -25.581 -23.439  1.00  0.00    -0.617 OA
ENDBRANCH  11  12
ENDBRANCH   9  11
ENDBRANCH   8   9
BRANCH   2  16
HETATM   16  O   UNL     1      -0.822 -24.471 -21.753  1.00  0.00    -0.356 OA
ATOM     17  HO  UNL     1      -1.255 -24.341 -20.917  1.00  0.00     0.218 HD
ENDBRANCH   2  16
TORSDOF 4
ENDMDL
MODEL 4
REMARK VINA RESULT:      -6.0      2.332      5.793
REMARK  4 active torsions:
REMARK  status: ('A' for Active; 'I' for Inactive)
REMARK    1  A    between atoms: O_1  and  P_2 
REMARK    2  A    between atoms: O_1  and  C_10 
REMARK    3  A    between atoms: O_5  and  C_7 
REMARK    4  A    between atoms: C_10  and  C_15 
ROOT
HETATM    1  C   UNL     1       3.604 -26.412 -23.634  1.00  0.00     0.044 C 
HETATM    2  C   UNL     1       4.202 -27.648 -23.499  1.00  0.00     0.134 C 
HETATM    3  N   UNL     1       6.061 -26.895 -24.794  1.00  0.00    -0.322 N 
ATOM      4  HN  UNL     1       6.901 -27.106 -25.334  1.00  0.00     0.169 HD
HETATM    5  O   UNL     1       6.188 -28.857 -23.594  1.00  0.00    -0.265 OA
HETATM    6  C   UNL     1       4.268 -25.390 -24.299  1.00  0.00     0.031 C 
HETATM    7  C   UNL     1       5.560 -27.849 -23.953  1.00  0.00     0.279 C 
HETATM    8  C   UNL     1       5.469 -25.658 -24.937  1.00  0.00     0.041 C 
ENDROOT
BRANCH   8   9
HETATM    9  C   UNL     1       6.120 -24.579 -25.764  1.00  0.00     0.181 C 
HETATM   10  C   UNL     1       5.311 -24.226 -27.010  1.00  0.00     0.047 C 
BRANCH   9  11
HETATM   11  O   UNL     1       6.449 -23.468 -24.915  1.00  0.00    -0.272 OA
BRANCH  11  12
HETATM   12  P   UNL     1       7.382 -22.251 -25.417  1.00  0.00     0.422 P 
HETATM   13  O   UNL     1       8.337 -21.958 -24.291  1.00  0.00    -0.617 OA
HETATM   14  O   UNL     1       8.115 -22.677 -26.638  1.00  0.00    -0.617 OA
HETATM   15  O   UNL     1       6.531 -21.035 -25.683  1.00  0.00    -0.617 OA
ENDBRANCH  11  12
ENDBRANCH   9  11
ENDBRANCH   8   9
BRANCH   2  16
HETATM   16  O   UNL     1       3.437 -28.746 -23.261  1.00  0.00    -0.356 OA
ATOM     17  HO  UNL     1       2.945 -29.141 -23.971  1.00  0.00     0.218 HD
ENDBRANCH   2  16
TORSDOF 4
ENDMDL
MODEL 5
REMARK VINA RESULT:      -6.0      2.204      3.236
REMARK  4 active torsions:
REMARK  status: ('A' for Active; 'I' for Inactive)
REMARK    1  A    between atoms: O_1  and  P_2 
REMARK    2  A    between atoms: O_1  and  C_10 
REMARK    3  A    between atoms: O_5  and  C_7 
REMARK    4  A    between atoms: C_10  and  C_15 
ROOT
HETATM    1  C   UNL     1       6.245 -24.276 -24.619  1.00  0.00     0.044 C 
HETATM    2  C   UNL     1       5.844 -24.246 -25.939  1.00  0.00     0.134 C 
HETATM    3  N   UNL     1       5.154 -26.526 -25.787  1.00  0.00    -0.322 N 
ATOM      4  HN  UNL     1       4.878 -27.395 -26.245  1.00  0.00     0.169 HD
HETATM    5  O   UNL     1       4.525 -25.230 -27.584  1.00  0.00    -0.265 OA
HETATM    6  C   UNL     1       6.039 -25.420 -23.859  1.00  0.00     0.031 C 
HETATM    7  C   UNL     1       5.116 -25.361 -26.501  1.00  0.00     0.279 C 
HETATM    8  C   UNL     1       5.555 -26.566 -24.468  1.00  0.00     0.041 C 
ENDROOT
BRANCH   8   9
HETATM    9  C   UNL     1       5.455 -27.839 -23.667  1.00  0.00     0.181 C 
HETATM   10  C   UNL     1       6.800 -28.277 -23.091  1.00  0.00     0.047 C 
BRANCH   9  11
HETATM   11  O   UNL     1       4.393 -27.712 -22.709  1.00  0.00    -0.272 OA
BRANCH  11  12
HETATM   12  P   UNL     1       2.839 -27.795 -23.134  1.00  0.00     0.422 P 
HETATM   13  O   UNL     1       2.310 -26.387 -23.081  1.00  0.00    -0.617 OA
HETATM   14  O   UNL     1       2.744 -28.346 -24.510  1.00  0.00    -0.617 OA
HETATM   15  O   UNL     1       2.087 -28.651 -22.146  1.00  0.00    -0.617 OA
ENDBRANCH  11  12
ENDBRANCH   9  11
ENDBRANCH   8   9
BRANCH   2  16
HETATM   16  O   UNL     1       6.406 -23.351 -26.795  1.00  0.00    -0.356 OA
ATOM     17  HO  UNL     1       6.084 -22.458 -26.823  1.00  0.00     0.218 HD
ENDBRANCH   2  16
TORSDOF 4
ENDMDL
MODEL 6
REMARK VINA RESULT:      -6.0      1.303      1.492
REMARK  4 active torsions:
REMARK  status: ('A' for Active; 'I' for Inactive)
REMARK    1  A    between atoms: O_1  and  P_2 
REMARK    2  A    between atoms: O_1  and  C_10 
REMARK    3  A    between atoms: O_5  and  C_7 
REMARK    4  A    between atoms: C_10  and  C_15 
ROOT
HETATM    1  C   UNL     1       5.536 -24.017 -27.045  1.00  0.00     0.044 C 
HETATM    2  C   UNL     1       6.303 -23.046 -26.433  1.00  0.00     0.134 C 
HETATM    3  N   UNL     1       6.609 -24.472 -24.543  1.00  0.00    -0.322 N 
ATOM      4  HN  UNL     1       6.889 -24.596 -23.570  1.00  0.00     0.169 HD
HETATM    5  O   UNL     1       7.900 -22.583 -24.806  1.00  0.00    -0.265 OA
HETATM    6  C   UNL     1       5.358 -25.249 -26.429  1.00  0.00     0.031 C 
HETATM    7  C   UNL     1       7.008 -23.345 -25.208  1.00  0.00     0.279 C 
HETATM    8  C   UNL     1       5.841 -25.446 -25.146  1.00  0.00     0.041 C 
ENDROOT
BRANCH   8   9
HETATM    9  C   UNL     1       5.534 -26.739 -24.434  1.00  0.00     0.181 C 
HETATM   10  C   UNL     1       6.279 -26.871 -23.108  1.00  0.00     0.047 C 
BRANCH   9  11
HETATM   11  O   UNL     1       4.109 -26.905 -24.352  1.00  0.00    -0.272 OA
BRANCH  11  12
HETATM   12  P   UNL     1       3.432 -28.287 -23.868  1.00  0.00     0.422 P 
HETATM   13  O   UNL     1       2.999 -28.069 -22.443  1.00  0.00    -0.617 OA
HETATM   14  O   UNL     1       2.265 -28.583 -24.738  1.00  0.00    -0.617 OA
HETATM   15  O   UNL     1       4.450 -29.397 -23.919  1.00  0.00    -0.617 OA
ENDBRANCH  11  12
ENDBRANCH   9  11
ENDBRANCH   8   9
BRANCH   2  16
HETATM   16  O   UNL     1       6.138 -21.740 -26.775  1.00  0.00    -0.356 OA
ATOM     17  HO  UNL     1       5.326 -21.457 -27.180  1.00  0.00     0.218 HD
ENDBRANCH   2  16
TORSDOF 4
ENDMDL
MODEL 7
REMARK VINA RESULT:      -5.8      3.066      5.535
REMARK  4 active torsions:
REMARK  status: ('A' for Active; 'I' for Inactive)
REMARK    1  A    between atoms: O_1  and  P_2 
REMARK    2  A    between atoms: O_1  and  C_10 
REMARK    3  A    between atoms: O_5  and  C_7 
REMARK    4  A    between atoms: C_10  and  C_15 
ROOT
HETATM    1  C   UNL     1       2.457 -28.235 -22.807  1.00  0.00     0.044 C 
HETATM    2  C   UNL     1       1.632 -27.212 -22.383  1.00  0.00     0.134 C 
HETATM    3  N   UNL     1       3.235 -25.606 -23.124  1.00  0.00    -0.322 N 
ATOM      4  HN  UNL     1       3.587 -24.648 -23.124  1.00  0.00     0.169 HD
HETATM    5  O   UNL     1       1.097 -24.956 -22.570  1.00  0.00    -0.265 OA
HETATM    6  C   UNL     1       3.651 -27.940 -23.452  1.00  0.00     0.031 C 
HETATM    7  C   UNL     1       1.955 -25.841 -22.705  1.00  0.00     0.279 C 
HETATM    8  C   UNL     1       4.067 -26.622 -23.547  1.00  0.00     0.041 C 
ENDROOT
BRANCH   8   9
HETATM    9  C   UNL     1       5.422 -26.319 -24.133  1.00  0.00     0.181 C 
HETATM   10  C   UNL     1       5.350 -25.344 -25.306  1.00  0.00     0.047 C 
BRANCH   9  11
HETATM   11  O   UNL     1       6.318 -25.937 -23.077  1.00  0.00    -0.272 OA
BRANCH  11  12
HETATM   12  P   UNL     1       7.219 -27.014 -22.283  1.00  0.00     0.422 P 
HETATM   13  O   UNL     1       7.089 -28.311 -23.036  1.00  0.00    -0.617 OA
HETATM   14  O   UNL     1       8.630 -26.547 -22.271  1.00  0.00    -0.617 OA
HETATM   15  O   UNL     1       6.687 -27.190 -20.884  1.00  0.00    -0.617 OA
ENDBRANCH  11  12
ENDBRANCH   9  11
ENDBRANCH   8   9
BRANCH   2  16
HETATM   16  O   UNL     1       0.721 -27.442 -21.400  1.00  0.00    -0.356 OA
ATOM     17  HO  UNL     1       0.192 -28.231 -21.422  1.00  0.00     0.218 HD
ENDBRANCH   2  16
TORSDOF 4
ENDMDL
MODEL 8
REMARK VINA RESULT:      -5.7      3.377      6.034
REMARK  4 active torsions:
REMARK  status: ('A' for Active; 'I' for Inactive)
REMARK    1  A    between atoms: O_1  and  P_2 
REMARK    2  A    between atoms: O_1  and  C_10 
REMARK    3  A    between atoms: O_5  and  C_7 
REMARK    4  A    between atoms: C_10  and  C_15 
ROOT
HETATM    1  C   UNL     1       2.647 -28.748 -23.578  1.00  0.00     0.044 C 
HETATM    2  C   UNL     1       3.072 -30.000 -23.975  1.00  0.00     0.134 C 
HETATM    3  N   UNL     1       5.228 -29.111 -24.485  1.00  0.00    -0.322 N 
ATOM      4  HN  UNL     1       6.135 -29.209 -24.941  1.00  0.00     0.169 HD
HETATM    5  O   UNL     1       4.897 -31.387 -24.373  1.00  0.00    -0.265 OA
HETATM    6  C   UNL     1       3.537 -27.683 -23.574  1.00  0.00     0.031 C 
HETATM    7  C   UNL     1       4.466 -30.228 -24.283  1.00  0.00     0.279 C 
HETATM    8  C   UNL     1       4.810 -27.857 -24.094  1.00  0.00     0.041 C 
ENDROOT
BRANCH   8   9
HETATM    9  C   UNL     1       5.728 -26.666 -24.204  1.00  0.00     0.181 C 
HETATM   10  C   UNL     1       5.123 -25.532 -25.028  1.00  0.00     0.047 C 
BRANCH   9  11
HETATM   11  O   UNL     1       6.176 -26.293 -22.891  1.00  0.00    -0.272 OA
BRANCH  11  12
HETATM   12  P   UNL     1       7.300 -27.135 -22.096  1.00  0.00     0.422 P 
HETATM   13  O   UNL     1       7.426 -28.453 -22.811  1.00  0.00    -0.617 OA
HETATM   14  O   UNL     1       8.582 -26.385 -22.134  1.00  0.00    -0.617 OA
HETATM   15  O   UNL     1       6.846 -27.374 -20.678  1.00  0.00    -0.617 OA
ENDBRANCH  11  12
ENDBRANCH   9  11
ENDBRANCH   8   9
BRANCH   2  16
HETATM   16  O   UNL     1       2.164 -30.918 -24.400  1.00  0.00    -0.356 OA
ATOM     17  HO  UNL     1       1.873 -31.604 -23.810  1.00  0.00     0.218 HD
ENDBRANCH   2  16
TORSDOF 4
ENDMDL
MODEL 9
REMARK VINA RESULT:      -5.7      2.516      5.770
REMARK  4 active torsions:
REMARK  status: ('A' for Active; 'I' for Inactive)
REMARK    1  A    between atoms: O_1  and  P_2 
REMARK    2  A    between atoms: O_1  and  C_10 
REMARK    3  A    between atoms: O_5  and  C_7 
REMARK    4  A    between atoms: C_10  and  C_15 
ROOT
HETATM    1  C   UNL     1       4.832 -27.557 -24.605  1.00  0.00     0.044 C 
HETATM    2  C   UNL     1       3.887 -27.136 -23.692  1.00  0.00     0.134 C 
HETATM    3  N   UNL     1       4.441 -24.862 -24.161  1.00  0.00    -0.322 N 
ATOM      4  HN  UNL     1       4.396 -23.875 -23.907  1.00  0.00     0.169 HD
HETATM    5  O   UNL     1       2.536 -25.383 -22.975  1.00  0.00    -0.265 OA
HETATM    6  C   UNL     1       5.542 -26.623 -25.348  1.00  0.00     0.031 C 
HETATM    7  C   UNL     1       3.558 -25.733 -23.585  1.00  0.00     0.279 C 
HETATM    8  C   UNL     1       5.389 -25.274 -25.072  1.00  0.00     0.041 C 
ENDROOT
BRANCH   8   9
HETATM    9  C   UNL     1       6.256 -24.273 -25.793  1.00  0.00     0.181 C 
HETATM   10  C   UNL     1       5.700 -23.895 -27.164  1.00  0.00     0.047 C 
BRANCH   9  11
HETATM   11  O   UNL     1       6.526 -23.167 -24.919  1.00  0.00    -0.272 OA
BRANCH  11  12
HETATM   12  P   UNL     1       7.497 -21.951 -25.346  1.00  0.00     0.422 P 
HETATM   13  O   UNL     1       8.178 -21.490 -24.085  1.00  0.00    -0.617 OA
HETATM   14  O   UNL     1       8.490 -22.451 -26.332  1.00  0.00    -0.617 OA
HETATM   15  O   UNL     1       6.677 -20.822 -25.916  1.00  0.00    -0.617 OA
ENDBRANCH  11  12
ENDBRANCH   9  11
ENDBRANCH   8   9
BRANCH   2  16
HETATM   16  O   UNL     1       3.514 -27.961 -22.678  1.00  0.00    -0.356 OA
ATOM     17  HO  UNL     1       3.992 -27.946 -21.857  1.00  0.00     0.218 HD
ENDBRANCH   2  16
TORSDOF 4
ENDMDL
