REMARK  1 active torsions:
REMARK  status: ('A' for Active; 'I' for Inactive)
REMARK    1  A    between atoms: N_18  and  C_32 
ROOT
HETATM    1  O   UNL     1      51.490  44.800   0.119  1.00  0.00    -0.344 OA
HETATM    2  N   UNL     1      48.285  39.417  -4.324  1.00  0.00    -0.044 N 
ATOM      3  HN1 UNL     1      48.884  38.611  -4.144  1.00  0.00     0.279 HD
ATOM      4  HN2 UNL     1      47.727  39.002  -5.071  1.00  0.00     0.279 HD
HETATM    5  C   UNL     1      53.938  44.740  -2.519  1.00  0.00     0.018 C 
HETATM    6  C   UNL     1      51.335  43.455  -0.380  1.00  0.00     0.140 C 
HETATM    7  C   UNL     1      51.654  43.640  -1.871  1.00  0.00     0.082 C 
HETATM    8  C   UNL     1      55.884  47.132  -0.353  1.00  0.00     0.271 C 
HETATM    9  C   UNL     1      54.895  46.039  -0.684  1.00  0.00    -0.024 C 
HETATM   10  C   UNL     1      50.525  41.571  -1.474  1.00  0.00     0.026 C 
HETATM   11  C   UNL     1      49.411  41.168  -2.431  1.00  0.00     0.028 C 
HETATM   12  C   UNL     1      52.784  44.605  -1.778  1.00  0.00    -0.015 C 
HETATM   13  N   UNL     1      50.907  42.156  -3.780  1.00  0.00    -0.064 N 
ATOM     14  HN1 UNL     1      51.557  42.238  -4.562  1.00  0.00     0.278 HD
ATOM     15  HN2 UNL     1      50.336  42.963  -4.031  1.00  0.00     0.278 HD
HETATM   16  C   UNL     1      51.540  42.242  -2.442  1.00  0.00     0.202 C 
HETATM   17  C   UNL     1      50.029  42.691  -0.530  1.00  0.00     0.040 C 
HETATM   18  C   UNL     1      50.164  40.866  -3.726  1.00  0.00     0.216 C 
HETATM   19  C   UNL     1      56.368  45.296  -2.619  1.00  0.00     0.066 C 
HETATM   20  C   UNL     1      57.281  46.443  -2.236  1.00  0.00     0.237 C 
HETATM   21  C   UNL     1      49.056  40.640  -4.770  1.00  0.00     0.268 C 
HETATM   22  C   UNL     1      48.473  40.053  -2.007  1.00  0.00     0.069 C 
HETATM   23  C   UNL     1      52.700  45.177  -0.480  1.00  0.00     0.076 C 
HETATM   24  N   UNL     1      57.234  46.741  -0.801  1.00  0.00    -0.071 N 
ATOM     25  HN1 UNL     1      57.592  45.960  -0.251  1.00  0.00     0.277 HD
ATOM     26  HN2 UNL     1      57.924  47.448  -0.549  1.00  0.00     0.277 HD
HETATM   27  C   UNL     1      55.023  45.390  -1.943  1.00  0.00    -0.048 C 
HETATM   28  C   UNL     1      47.471  39.816  -3.140  1.00  0.00     0.380 C 
HETATM   29  C   UNL     1      53.783  45.810   0.122  1.00  0.00     0.046 C 
ENDROOT
BRANCH  28  30
HETATM   30  N   UNL     1      46.652  38.663  -2.764  1.00  0.00    -0.050 N 
ATOM     31  HN3 UNL     1      46.086  38.308  -3.535  1.00  0.00     0.276 HD
ATOM     32  HN2 UNL     1      47.202  37.819  -2.603  1.00  0.00     0.276 HD
ATOM     33  HN1 UNL     1      46.095  38.936  -1.954  1.00  0.00     0.276 HD
ENDBRANCH  28  30
TORSDOF 1
