REMARK  3 active torsions:
REMARK  status: ('A' for Active; 'I' for Inactive)
REMARK    1  A    between atoms: C_2  and  C_7 
REMARK    2  A    between atoms: C_3  and  C_5 
REMARK    3  A    between atoms: C_5  and  C_7 
ROOT
HETATM    1  C   UNL     1      14.099  25.085 -14.983  1.00  0.00    -0.022 C 
HETATM    2  C   UNL     1      14.842  26.309 -15.253  1.00  0.00    -0.031 C 
HETATM    3  C   UNL     1      14.511  31.994 -13.652  1.00  0.00     0.015 C 
HETATM    4  C   UNL     1      14.176  23.834 -15.592  1.00  0.00     0.012 C 
HETATM    5  C   UNL     1      13.608  22.745 -14.947  1.00  0.00     0.001 C 
HETATM    6  C   UNL     1      13.247  25.291 -13.907  1.00  0.00    -0.046 C 
HETATM    7  C   UNL     1      16.102  30.211 -13.610  1.00  0.00     0.042 C 
HETATM    8  C   UNL     1      13.964  29.877 -14.876  1.00  0.00     0.011 C 
HETATM    9  C   UNL     1      14.844  30.695 -14.049  1.00  0.00    -0.010 C 
HETATM   10  C   UNL     1      12.663  24.208 -13.275  1.00  0.00     0.008 C 
HETATM   11  C   UNL     1      13.263  26.733 -13.477  1.00  0.00     0.062 C 
HETATM   12  C   UNL     1      13.893  28.595 -15.059  1.00  0.00    -0.007 C 
HETATM   13  C   UNL     1      16.281  28.805 -13.219  1.00  0.00     0.028 C 
HETATM   14  C   UNL     1      15.502  27.775 -13.343  1.00  0.00    -0.006 C 
HETATM   15  C   UNL     1      12.924  22.930 -13.750  1.00  0.00     0.001 C 
HETATM   16  C   UNL     1      14.386  27.401 -14.284  1.00  0.00     0.027 C 
HETATM   17  C   UNL     1      16.856  32.427 -13.501  1.00  0.00     0.088 C 
HETATM   18  N   UNL     1      17.139  31.095 -13.518  1.00  0.00    -0.365 N 
ATOM     19  HN  UNL     1      18.103  30.765 -13.463  1.00  0.00     0.165 HD
HETATM   20  C   UNL     1      15.559  32.907 -13.487  1.00  0.00     0.018 C 
ENDROOT
BRANCH   2  21
HETATM   21  C   UNL     1      15.825  26.453 -16.202  1.00  0.00     0.010 C 
BRANCH  21  22
HETATM   22  C   UNL     1      16.690  25.856 -17.002  1.00  0.00     0.012 C 
BRANCH  22  23
HETATM   23  C   UNL     1      17.013  26.303 -18.365  1.00  0.00    -0.036 C 
HETATM   24  C   UNL     1      16.031  26.327 -19.347  1.00  0.00     0.011 C 
HETATM   25  C   UNL     1      16.289  26.892 -20.591  1.00  0.00     0.001 C 
HETATM   26  C   UNL     1      17.468  27.588 -20.791  1.00  0.00     0.000 C 
HETATM   27  C   UNL     1      18.503  27.459 -19.868  1.00  0.00     0.001 C 
HETATM   28  C   UNL     1      18.290  26.752 -18.678  1.00  0.00     0.011 C 
ENDBRANCH  22  23
ENDBRANCH  21  22
ENDBRANCH   2  21
TORSDOF 3
