REMARK  5 active torsions:
REMARK  status: ('A' for Active; 'I' for Inactive)
REMARK    1  A    between atoms: C_1  and  C_10 
REMARK    2  A    between atoms: C_5  and  C_7 
REMARK    3  A    between atoms: C_6  and  C_15 
REMARK    4  A    between atoms: C_7  and  C_27 
REMARK    5  A    between atoms: C_10  and  C_18 
ROOT
HETATM    1  C   UNL     1      15.261  25.884 -15.565  1.00  0.00     0.041 C 
HETATM    2  C   UNL     1      14.447  24.794 -15.342  1.00  0.00     0.032 C 
HETATM    3  C   UNL     1      13.715  25.041 -14.179  1.00  0.00     0.032 C 
HETATM    4  C   UNL     1      14.256  26.965 -12.535  1.00  0.00     0.032 C 
HETATM    5  C   UNL     1      14.805  28.188 -12.885  1.00  0.00     0.032 C 
HETATM    6  C   UNL     1      15.176  28.116 -14.216  1.00  0.00     0.042 C 
HETATM    7  N   UNL     1      14.915  26.841 -14.640  1.00  0.00    -0.312 N 
HETATM    8  C   UNL     1      14.178  26.232 -13.672  1.00  0.00     0.040 C 
HETATM    9  C   UNL     1      15.573  29.194 -15.061  1.00  0.00     0.059 C 
ENDROOT
BRANCH   9  10
HETATM   10  C   UNL     1      15.044  30.501 -14.857  1.00  0.00     0.038 C 
HETATM   11  N   UNL     1      13.788  30.705 -15.023  1.00  0.00    -0.398 N 
ATOM     12  HN2 UNL     1      13.409  31.641 -14.877  1.00  0.00     0.156 HD
ATOM     13  HN1 UNL     1      13.176  29.973 -15.384  1.00  0.00     0.156 HD
BRANCH  10  14
HETATM   14  C   UNL     1      15.949  31.584 -14.323  1.00  0.00    -0.010 C 
HETATM   15  C   UNL     1      17.330  31.424 -14.304  1.00  0.00     0.013 C 
HETATM   16  C   UNL     1      18.140  32.356 -13.668  1.00  0.00     0.001 C 
HETATM   17  C   UNL     1      17.569  33.432 -13.020  1.00  0.00     0.000 C 
HETATM   18  C   UNL     1      16.199  33.623 -13.076  1.00  0.00     0.001 C 
HETATM   19  C   UNL     1      15.407  32.768 -13.832  1.00  0.00     0.013 C 
ENDBRANCH  10  14
ENDBRANCH   9  10
BRANCH   1  20
HETATM   20  C   UNL     1      16.508  25.891 -16.396  1.00  0.00     0.041 C 
BRANCH  20  21
HETATM   21  C   UNL     1      16.475  25.751 -17.886  1.00  0.00    -0.033 C 
HETATM   22  C   UNL     1      15.364  25.348 -18.619  1.00  0.00     0.011 C 
HETATM   23  C   UNL     1      15.344  25.542 -19.996  1.00  0.00     0.002 C 
HETATM   24  C   UNL     1      16.356  26.277 -20.600  1.00  0.00     0.015 C 
HETATM   25  C   UNL     1      17.523  26.537 -19.875  1.00  0.00     0.010 C 
HETATM   26  C   UNL     1      17.635  26.090 -18.572  1.00  0.00     0.026 C 
BRANCH  25  27
HETATM   27  C   UNL     1      18.567  27.463 -20.432  1.00  0.00     0.155 C 
HETATM   28  C   UNL     1      18.093  28.628 -21.253  1.00  0.00     0.096 C 
HETATM   29  O   UNL     1      19.730  27.091 -20.512  1.00  0.00    -0.293 OA
ENDBRANCH  25  27
ENDBRANCH  20  21
ENDBRANCH   1  20
TORSDOF 5
