MODEL 1
REMARK VINA RESULT:      -7.4      0.000      0.000
REMARK  4 active torsions:
REMARK  status: ('A' for Active; 'I' for Inactive)
REMARK    1  A    between atoms: O_1  and  C_5 
REMARK    2  A    between atoms: O_3  and  C_18 
REMARK    3  A    between atoms: O_7  and  C_17 
REMARK    4  A    between atoms: O_11  and  C_17 
ROOT
HETATM    1  C   UNL     1      -5.318  13.913 -18.073  1.00  0.00     0.122 C 
HETATM    2  C   UNL     1      -4.339  11.944 -19.340  1.00  0.00     0.051 C 
HETATM    3  N   UNL     1      -1.928  14.964 -17.650  1.00  0.00    -0.363 N 
ATOM      4  HN  UNL     1      -0.931  14.874 -17.847  1.00  0.00     0.165 HD
HETATM    5  C   UNL     1      -3.921  15.909 -17.509  1.00  0.00     0.033 C 
HETATM    6  C   UNL     1      -3.275  11.737 -18.593  1.00  0.00     0.040 C 
HETATM    7  C   UNL     1      -2.858  13.971 -17.711  1.00  0.00     0.078 C 
HETATM    8  C   UNL     1      -4.094  14.553 -17.824  1.00  0.00     0.030 C 
HETATM    9  C   UNL     1      -5.519  12.773 -19.051  1.00  0.00     0.231 C 
HETATM   10  C   UNL     1      -2.544  12.635 -17.836  1.00  0.00     0.093 C 
HETATM   11  C   UNL     1      -2.585  16.109 -17.272  1.00  0.00     0.089 C 
ENDROOT
BRANCH   9  12
HETATM   12  O   UNL     1      -6.018  13.309 -20.240  1.00  0.00    -0.357 OA
ATOM     13  HO  UNL     1      -5.477  14.055 -20.474  1.00  0.00     0.213 HD
ENDBRANCH   9  12
BRANCH   9  14
HETATM   14  O   UNL     1      -6.563  11.967 -18.547  1.00  0.00    -0.357 OA
ATOM     15  HO  UNL     1      -6.173  11.154 -18.248  1.00  0.00     0.213 HD
ENDBRANCH   9  14
BRANCH   1  16
HETATM   16  O   UNL     1      -6.469  14.484 -17.628  1.00  0.00    -0.358 OA
ATOM     17  HO  UNL     1      -6.765  15.297 -18.020  1.00  0.00     0.217 HD
ENDBRANCH   1  16
BRANCH  10  18
HETATM   18  O   UNL     1      -1.412  12.193 -17.266  1.00  0.00    -0.358 OA
ATOM     19  HO  UNL     1      -1.168  12.564 -16.427  1.00  0.00     0.217 HD
ENDBRANCH  10  18
TORSDOF 4
ENDMDL
MODEL 2
REMARK VINA RESULT:      -7.3      1.484      1.813
REMARK  4 active torsions:
REMARK  status: ('A' for Active; 'I' for Inactive)
REMARK    1  A    between atoms: O_1  and  C_5 
REMARK    2  A    between atoms: O_3  and  C_18 
REMARK    3  A    between atoms: O_7  and  C_17 
REMARK    4  A    between atoms: O_11  and  C_17 
ROOT
HETATM    1  C   UNL     1      -4.973  14.039 -17.732  1.00  0.00     0.122 C 
HETATM    2  C   UNL     1      -2.899  12.587 -17.900  1.00  0.00     0.051 C 
HETATM    3  N   UNL     1      -2.705  16.706 -17.010  1.00  0.00    -0.363 N 
ATOM      4  HN  UNL     1      -1.760  17.081 -16.934  1.00  0.00     0.165 HD
HETATM    5  C   UNL     1      -4.803  16.533 -17.684  1.00  0.00     0.033 C 
HETATM    6  C   UNL     1      -2.204  13.119 -16.917  1.00  0.00     0.040 C 
HETATM    7  C   UNL     1      -3.069  15.399 -16.890  1.00  0.00     0.078 C 
HETATM    8  C   UNL     1      -4.294  15.242 -17.485  1.00  0.00     0.030 C 
HETATM    9  C   UNL     1      -4.325  12.758 -18.218  1.00  0.00     0.231 C 
HETATM   10  C   UNL     1      -2.231  14.411 -16.421  1.00  0.00     0.093 C 
HETATM   11  C   UNL     1      -3.850  17.422 -17.254  1.00  0.00     0.089 C 
ENDROOT
BRANCH   9  12
HETATM   12  O   UNL     1      -4.511  12.679 -19.600  1.00  0.00    -0.357 OA
ATOM     13  HO  UNL     1      -4.530  13.565 -19.943  1.00  0.00     0.213 HD
ENDBRANCH   9  12
BRANCH   9  14
HETATM   14  O   UNL     1      -5.070  11.684 -17.686  1.00  0.00    -0.357 OA
ATOM     15  HO  UNL     1      -4.697  11.473 -16.838  1.00  0.00     0.213 HD
ENDBRANCH   9  14
BRANCH   1  16
HETATM   16  O   UNL     1      -6.332  14.047 -17.805  1.00  0.00    -0.358 OA
ATOM     17  HO  UNL     1      -6.762  14.675 -18.372  1.00  0.00     0.217 HD
ENDBRANCH   1  16
BRANCH  10  18
HETATM   18  O   UNL     1      -1.319  14.739 -15.492  1.00  0.00    -0.358 OA
ATOM     19  HO  UNL     1      -0.434  14.417 -15.610  1.00  0.00     0.217 HD
ENDBRANCH  10  18
TORSDOF 4
ENDMDL
MODEL 3
REMARK VINA RESULT:      -6.9      2.326      4.758
REMARK  4 active torsions:
REMARK  status: ('A' for Active; 'I' for Inactive)
REMARK    1  A    between atoms: O_1  and  C_5 
REMARK    2  A    between atoms: O_3  and  C_18 
REMARK    3  A    between atoms: O_7  and  C_17 
REMARK    4  A    between atoms: O_11  and  C_17 
ROOT
HETATM    1  C   UNL     1      -2.103  14.686 -16.202  1.00  0.00     0.122 C 
HETATM    2  C   UNL     1      -3.193  16.470 -17.639  1.00  0.00     0.051 C 
HETATM    3  N   UNL     1      -4.565  12.482 -17.567  1.00  0.00    -0.363 N 
ATOM      4  HN  UNL     1      -5.322  12.280 -18.220  1.00  0.00     0.165 HD
HETATM    5  C   UNL     1      -2.620  12.262 -16.539  1.00  0.00     0.033 C 
HETATM    6  C   UNL     1      -4.450  16.102 -17.495  1.00  0.00     0.040 C 
HETATM    7  C   UNL     1      -4.210  13.708 -17.094  1.00  0.00     0.078 C 
HETATM    8  C   UNL     1      -2.922  13.629 -16.630  1.00  0.00     0.030 C 
HETATM    9  C   UNL     1      -2.014  16.042 -16.871  1.00  0.00     0.231 C 
HETATM   10  C   UNL     1      -4.974  14.844 -17.258  1.00  0.00     0.093 C 
HETATM   11  C   UNL     1      -3.710  11.569 -17.001  1.00  0.00     0.089 C 
ENDROOT
BRANCH   9  12
HETATM   12  O   UNL     1      -0.891  16.040 -17.700  1.00  0.00    -0.357 OA
ATOM     13  HO  UNL     1      -0.472  16.890 -17.628  1.00  0.00     0.213 HD
ENDBRANCH   9  12
BRANCH   9  14
HETATM   14  O   UNL     1      -1.725  16.988 -15.864  1.00  0.00    -0.357 OA
ATOM     15  HO  UNL     1      -1.793  16.541 -15.029  1.00  0.00     0.213 HD
ENDBRANCH   9  14
BRANCH   1  16
HETATM   16  O   UNL     1      -1.121  14.439 -15.294  1.00  0.00    -0.358 OA
ATOM     17  HO  UNL     1      -0.707  13.584 -15.280  1.00  0.00     0.217 HD
ENDBRANCH   1  16
BRANCH  10  18
HETATM   18  O   UNL     1      -6.309  14.711 -17.285  1.00  0.00    -0.358 OA
ATOM     19  HO  UNL     1      -6.828  15.498 -17.398  1.00  0.00     0.217 HD
ENDBRANCH  10  18
TORSDOF 4
ENDMDL
MODEL 4
REMARK VINA RESULT:      -6.7      1.409      3.161
REMARK  4 active torsions:
REMARK  status: ('A' for Active; 'I' for Inactive)
REMARK    1  A    between atoms: O_1  and  C_5 
REMARK    2  A    between atoms: O_3  and  C_18 
REMARK    3  A    between atoms: O_7  and  C_17 
REMARK    4  A    between atoms: O_11  and  C_17 
ROOT
HETATM    1  C   UNL     1      -5.006  13.687 -18.832  1.00  0.00     0.122 C 
HETATM    2  C   UNL     1      -4.690  15.775 -17.425  1.00  0.00     0.051 C 
HETATM    3  N   UNL     1      -1.986  12.540 -17.301  1.00  0.00    -0.363 N 
ATOM      4  HN  UNL     1      -1.237  12.638 -16.615  1.00  0.00     0.165 HD
HETATM    5  C   UNL     1      -3.676  11.617 -18.387  1.00  0.00     0.033 C 
HETATM    6  C   UNL     1      -3.380  15.877 -17.512  1.00  0.00     0.040 C 
HETATM    7  C   UNL     1      -2.733  13.548 -17.831  1.00  0.00     0.078 C 
HETATM    8  C   UNL     1      -3.885  13.003 -18.337  1.00  0.00     0.030 C 
HETATM    9  C   UNL     1      -5.603  14.937 -18.217  1.00  0.00     0.231 C 
HETATM   10  C   UNL     1      -2.431  14.885 -17.683  1.00  0.00     0.093 C 
HETATM   11  C   UNL     1      -2.432  11.369 -17.862  1.00  0.00     0.089 C 
ENDROOT
BRANCH   9  12
HETATM   12  O   UNL     1      -6.689  14.552 -17.428  1.00  0.00    -0.357 OA
ATOM     13  HO  UNL     1      -7.131  15.340 -17.135  1.00  0.00     0.213 HD
ENDBRANCH   9  12
BRANCH   9  14
HETATM   14  O   UNL     1      -6.164  15.694 -19.268  1.00  0.00    -0.357 OA
ATOM     15  HO  UNL     1      -6.892  15.195 -19.619  1.00  0.00     0.213 HD
ENDBRANCH   9  14
BRANCH   1  16
HETATM   16  O   UNL     1      -5.793  13.085 -19.764  1.00  0.00    -0.358 OA
ATOM     17  HO  UNL     1      -6.190  12.246 -19.563  1.00  0.00     0.217 HD
ENDBRANCH   1  16
BRANCH  10  18
HETATM   18  O   UNL     1      -1.139  15.239 -17.606  1.00  0.00    -0.358 OA
ATOM     19  HO  UNL     1      -0.731  15.589 -18.389  1.00  0.00     0.217 HD
ENDBRANCH  10  18
TORSDOF 4
ENDMDL
MODEL 5
REMARK VINA RESULT:      -6.7      2.121      2.844
REMARK  4 active torsions:
REMARK  status: ('A' for Active; 'I' for Inactive)
REMARK    1  A    between atoms: O_1  and  C_5 
REMARK    2  A    between atoms: O_3  and  C_18 
REMARK    3  A    between atoms: O_7  and  C_17 
REMARK    4  A    between atoms: O_11  and  C_17 
ROOT
HETATM    1  C   UNL     1      -4.840  14.171 -17.900  1.00  0.00     0.122 C 
HETATM    2  C   UNL     1      -2.335  13.919 -18.214  1.00  0.00     0.051 C 
HETATM    3  N   UNL     1      -4.168  17.671 -17.615  1.00  0.00    -0.363 N 
ATOM      4  HN  UNL     1      -3.535  18.468 -17.673  1.00  0.00     0.165 HD
HETATM    5  C   UNL     1      -5.939  16.414 -18.030  1.00  0.00     0.033 C 
HETATM    6  C   UNL     1      -1.934  14.831 -17.352  1.00  0.00     0.040 C 
HETATM    7  C   UNL     1      -3.820  16.377 -17.371  1.00  0.00     0.078 C 
HETATM    8  C   UNL     1      -4.839  15.571 -17.810  1.00  0.00     0.030 C 
HETATM    9  C   UNL     1      -3.673  13.330 -18.375  1.00  0.00     0.231 C 
HETATM   10  C   UNL     1      -2.570  15.989 -16.940  1.00  0.00     0.093 C 
HETATM   11  C   UNL     1      -5.532  17.698 -17.770  1.00  0.00     0.089 C 
ENDROOT
BRANCH   9  12
HETATM   12  O   UNL     1      -3.888  13.015 -19.718  1.00  0.00    -0.357 OA
ATOM     13  HO  UNL     1      -3.086  13.201 -20.194  1.00  0.00     0.213 HD
ENDBRANCH   9  12
BRANCH   9  14
HETATM   14  O   UNL     1      -3.742  12.095 -17.693  1.00  0.00    -0.357 OA
ATOM     15  HO  UNL     1      -3.635  11.408 -18.341  1.00  0.00     0.213 HD
ENDBRANCH   9  14
BRANCH   1  16
HETATM   16  O   UNL     1      -6.021  13.501 -17.816  1.00  0.00    -0.358 OA
ATOM     17  HO  UNL     1      -6.186  12.946 -17.063  1.00  0.00     0.217 HD
ENDBRANCH   1  16
BRANCH  10  18
HETATM   18  O   UNL     1      -1.884  16.825 -16.145  1.00  0.00    -0.358 OA
ATOM     19  HO  UNL     1      -2.360  17.256 -15.445  1.00  0.00     0.217 HD
ENDBRANCH  10  18
TORSDOF 4
ENDMDL
MODEL 6
REMARK VINA RESULT:      -6.6      2.212      3.553
REMARK  4 active torsions:
REMARK  status: ('A' for Active; 'I' for Inactive)
REMARK    1  A    between atoms: O_1  and  C_5 
REMARK    2  A    between atoms: O_3  and  C_18 
REMARK    3  A    between atoms: O_7  and  C_17 
REMARK    4  A    between atoms: O_11  and  C_17 
ROOT
HETATM    1  C   UNL     1      -5.390  14.541 -17.562  1.00  0.00     0.122 C 
HETATM    2  C   UNL     1      -5.291  17.070 -17.374  1.00  0.00     0.051 C 
HETATM    3  N   UNL     1      -2.281  14.570 -15.798  1.00  0.00    -0.363 N 
ATOM      4  HN  UNL     1      -1.549  15.058 -15.282  1.00  0.00     0.165 HD
HETATM    5  C   UNL     1      -3.864  13.085 -16.218  1.00  0.00     0.033 C 
HETATM    6  C   UNL     1      -3.997  17.232 -17.556  1.00  0.00     0.040 C 
HETATM    7  C   UNL     1      -3.120  15.115 -16.721  1.00  0.00     0.078 C 
HETATM    8  C   UNL     1      -4.210  14.292 -16.844  1.00  0.00     0.030 C 
HETATM    9  C   UNL     1      -6.111  15.873 -17.613  1.00  0.00     0.231 C 
HETATM   10  C   UNL     1      -2.954  16.373 -17.260  1.00  0.00     0.093 C 
HETATM   11  C   UNL     1      -2.606  13.240 -15.694  1.00  0.00     0.089 C 
ENDROOT
BRANCH   9  12
HETATM   12  O   UNL     1      -7.159  15.831 -16.690  1.00  0.00    -0.357 OA
ATOM     13  HO  UNL     1      -7.576  14.980 -16.761  1.00  0.00     0.213 HD
ENDBRANCH   9  12
BRANCH   9  14
HETATM   14  O   UNL     1      -6.739  15.962 -18.874  1.00  0.00    -0.357 OA
ATOM     15  HO  UNL     1      -6.076  16.225 -19.502  1.00  0.00     0.213 HD
ENDBRANCH   9  14
BRANCH   1  16
HETATM   16  O   UNL     1      -6.109  13.491 -18.044  1.00  0.00    -0.358 OA
ATOM     17  HO  UNL     1      -6.487  12.869 -17.434  1.00  0.00     0.217 HD
ENDBRANCH   1  16
BRANCH  10  18
HETATM   18  O   UNL     1      -1.703  16.832 -17.423  1.00  0.00    -0.358 OA
ATOM     19  HO  UNL     1      -1.412  17.528 -16.846  1.00  0.00     0.217 HD
ENDBRANCH  10  18
TORSDOF 4
ENDMDL
MODEL 7
REMARK VINA RESULT:      -6.5      1.980      4.410
REMARK  4 active torsions:
REMARK  status: ('A' for Active; 'I' for Inactive)
REMARK    1  A    between atoms: O_1  and  C_5 
REMARK    2  A    between atoms: O_3  and  C_18 
REMARK    3  A    between atoms: O_7  and  C_17 
REMARK    4  A    between atoms: O_11  and  C_17 
ROOT
HETATM    1  C   UNL     1      -3.604  11.710 -17.272  1.00  0.00     0.122 C 
HETATM    2  C   UNL     1      -3.589  14.230 -16.980  1.00  0.00     0.051 C 
HETATM    3  N   UNL     1      -4.398  12.393 -20.690  1.00  0.00    -0.363 N 
ATOM      4  HN  UNL     1      -4.520  13.040 -21.468  1.00  0.00     0.165 HD
HETATM    5  C   UNL     1      -3.608  10.673 -19.547  1.00  0.00     0.033 C 
HETATM    6  C   UNL     1      -4.599  14.528 -17.770  1.00  0.00     0.040 C 
HETATM    7  C   UNL     1      -4.526  12.685 -19.366  1.00  0.00     0.078 C 
HETATM    8  C   UNL     1      -3.864  11.721 -18.650  1.00  0.00     0.030 C 
HETATM    9  C   UNL     1      -3.186  12.917 -16.456  1.00  0.00     0.231 C 
HETATM   10  C   UNL     1      -5.064  13.862 -18.890  1.00  0.00     0.093 C 
HETATM   11  C   UNL     1      -4.072  11.062 -20.778  1.00  0.00     0.089 C 
ENDROOT
BRANCH   9  12
HETATM   12  O   UNL     1      -1.798  12.876 -16.309  1.00  0.00    -0.357 OA
ATOM     13  HO  UNL     1      -1.528  13.670 -15.863  1.00  0.00     0.213 HD
ENDBRANCH   9  12
BRANCH   9  14
HETATM   14  O   UNL     1      -3.697  12.739 -15.152  1.00  0.00    -0.357 OA
ATOM     15  HO  UNL     1      -4.463  13.296 -15.070  1.00  0.00     0.213 HD
ENDBRANCH   9  14
BRANCH   1  16
HETATM   16  O   UNL     1      -3.453  10.518 -16.634  1.00  0.00    -0.358 OA
ATOM     17  HO  UNL     1      -3.737  10.436 -15.731  1.00  0.00     0.217 HD
ENDBRANCH   1  16
BRANCH  10  18
HETATM   18  O   UNL     1      -6.037  14.449 -19.605  1.00  0.00    -0.358 OA
ATOM     19  HO  UNL     1      -6.639  15.019 -19.143  1.00  0.00     0.217 HD
ENDBRANCH  10  18
TORSDOF 4
ENDMDL
MODEL 8
REMARK VINA RESULT:      -6.5      1.534      3.237
REMARK  4 active torsions:
REMARK  status: ('A' for Active; 'I' for Inactive)
REMARK    1  A    between atoms: O_1  and  C_5 
REMARK    2  A    between atoms: O_3  and  C_18 
REMARK    3  A    between atoms: O_7  and  C_17 
REMARK    4  A    between atoms: O_11  and  C_17 
ROOT
HETATM    1  C   UNL     1      -2.770  12.682 -17.861  1.00  0.00     0.122 C 
HETATM    2  C   UNL     1      -5.250  12.178 -18.044  1.00  0.00     0.051 C 
HETATM    3  N   UNL     1      -3.792  15.999 -17.009  1.00  0.00    -0.363 N 
ATOM      4  HN  UNL     1      -4.514  16.681 -16.776  1.00  0.00     0.165 HD
HETATM    5  C   UNL     1      -1.954  14.790 -16.792  1.00  0.00     0.033 C 
HETATM    6  C   UNL     1      -5.643  13.313 -18.584  1.00  0.00     0.040 C 
HETATM    7  C   UNL     1      -3.960  14.862 -17.739  1.00  0.00     0.078 C 
HETATM    8  C   UNL     1      -2.918  14.017 -17.457  1.00  0.00     0.030 C 
HETATM    9  C   UNL     1      -3.884  11.655 -17.895  1.00  0.00     0.231 C 
HETATM   10  C   UNL     1      -5.097  14.578 -18.465  1.00  0.00     0.093 C 
HETATM   11  C   UNL     1      -2.469  16.054 -16.647  1.00  0.00     0.089 C 
ENDROOT
BRANCH   9  12
HETATM   12  O   UNL     1      -3.799  10.890 -16.729  1.00  0.00    -0.357 OA
ATOM     13  HO  UNL     1      -3.050  11.197 -16.232  1.00  0.00     0.213 HD
ENDBRANCH   9  12
BRANCH   9  14
HETATM   14  O   UNL     1      -3.594  10.756 -18.944  1.00  0.00    -0.357 OA
ATOM     15  HO  UNL     1      -4.415  10.360 -19.212  1.00  0.00     0.213 HD
ENDBRANCH   9  14
BRANCH   1  16
HETATM   16  O   UNL     1      -1.519  12.162 -17.991  1.00  0.00    -0.358 OA
ATOM     17  HO  UNL     1      -1.414  11.292 -18.359  1.00  0.00     0.217 HD
ENDBRANCH   1  16
BRANCH  10  18
HETATM   18  O   UNL     1      -5.771  15.601 -19.014  1.00  0.00    -0.358 OA
ATOM     19  HO  UNL     1      -6.659  15.754 -18.715  1.00  0.00     0.217 HD
ENDBRANCH  10  18
TORSDOF 4
ENDMDL
MODEL 9
REMARK VINA RESULT:      -6.4      1.793      3.389
REMARK  4 active torsions:
REMARK  status: ('A' for Active; 'I' for Inactive)
REMARK    1  A    between atoms: O_1  and  C_5 
REMARK    2  A    between atoms: O_3  and  C_18 
REMARK    3  A    between atoms: O_7  and  C_17 
REMARK    4  A    between atoms: O_11  and  C_17 
ROOT
HETATM    1  C   UNL     1      -3.769  14.021 -18.478  1.00  0.00     0.122 C 
HETATM    2  C   UNL     1      -6.082  14.746 -17.730  1.00  0.00     0.051 C 
HETATM    3  N   UNL     1      -2.587  16.798 -16.564  1.00  0.00    -0.363 N 
ATOM      4  HN  UNL     1      -2.741  17.564 -15.908  1.00  0.00     0.165 HD
HETATM    5  C   UNL     1      -1.713  14.947 -17.398  1.00  0.00     0.033 C 
HETATM    6  C   UNL     1      -5.911  16.050 -17.792  1.00  0.00     0.040 C 
HETATM    7  C   UNL     1      -3.513  16.244 -17.393  1.00  0.00     0.078 C 
HETATM    8  C   UNL     1      -3.066  15.002 -17.762  1.00  0.00     0.030 C 
HETATM    9  C   UNL     1      -5.232  13.679 -18.278  1.00  0.00     0.231 C 
HETATM   10  C   UNL     1      -4.755  16.793 -17.629  1.00  0.00     0.093 C 
HETATM   11  C   UNL     1      -1.405  16.131 -16.776  1.00  0.00     0.089 C 
ENDROOT
BRANCH   9  12
HETATM   12  O   UNL     1      -5.302  12.554 -17.454  1.00  0.00    -0.357 OA
ATOM     13  HO  UNL     1      -5.135  12.834 -16.562  1.00  0.00     0.213 HD
ENDBRANCH   9  12
BRANCH   9  14
HETATM   14  O   UNL     1      -5.737  13.251 -19.525  1.00  0.00    -0.357 OA
ATOM     15  HO  UNL     1      -6.431  13.852 -19.770  1.00  0.00     0.213 HD
ENDBRANCH   9  14
BRANCH   1  16
HETATM   16  O   UNL     1      -3.076  13.118 -19.224  1.00  0.00    -0.358 OA
ATOM     17  HO  UNL     1      -3.501  12.706 -19.967  1.00  0.00     0.217 HD
ENDBRANCH   1  16
BRANCH  10  18
HETATM   18  O   UNL     1      -4.873  18.130 -17.609  1.00  0.00    -0.358 OA
ATOM     19  HO  UNL     1      -4.090  18.643 -17.770  1.00  0.00     0.217 HD
ENDBRANCH  10  18
TORSDOF 4
ENDMDL
