REMARK  1 active torsions:
REMARK  status: ('A' for Active; 'I' for Inactive)
REMARK       I    between atoms: N_1  and  C_12 
REMARK    1  A    between atoms: O_3  and  C_5 
ROOT
HETATM    1  N   UNL     1      -3.677  13.237 -16.736  1.00  0.00    -0.319 N 
HETATM    2  C   UNL     1      -3.699  17.436 -16.602  1.00  0.00     0.010 C 
HETATM    3  C   UNL     1      -2.369  15.293 -16.739  1.00  0.00     0.169 C 
HETATM    4  C   UNL     1      -4.967  13.916 -16.639  1.00  0.00     0.168 C 
HETATM    5  C   UNL     1      -4.827  15.359 -17.058  1.00  0.00    -0.031 C 
HETATM    6  C   UNL     1      -6.031  17.430 -17.174  1.00  0.00     0.001 C 
HETATM    7  O   UNL     1      -4.291  11.050 -16.718  1.00  0.00    -0.630 OA
HETATM    8  C   UNL     1      -4.897  18.118 -16.779  1.00  0.00     0.001 C 
HETATM    9  C   UNL     1      -5.961  16.063 -17.436  1.00  0.00     0.009 C 
HETATM   10  C   UNL     1      -3.598  11.966 -17.223  1.00  0.00     0.286 C 
HETATM   11  C   UNL     1      -3.669  16.053 -16.703  1.00  0.00    -0.020 C 
HETATM   12  O   UNL     1      -2.869  11.755 -18.213  1.00  0.00    -0.630 OA
HETATM   13  C   UNL     1      -2.532  13.908 -16.127  1.00  0.00     0.165 C 
ENDROOT
BRANCH   3  14
HETATM   14  O   UNL     1      -1.285  16.033 -16.213  1.00  0.00    -0.389 OA
ATOM     15  HO  UNL     1      -0.465  15.554 -16.236  1.00  0.00     0.210 HD
ENDBRANCH   3  14
TORSDOF 1
