MODEL 1
REMARK VINA RESULT:     -10.3      0.000      0.000
REMARK  1 active torsions:
REMARK  status: ('A' for Active; 'I' for Inactive)
REMARK    1  A    between atoms: O_4  and  C_24 
ROOT
HETATM    1  C   UNL     1      15.763   4.957  17.034  1.00  0.00     0.059 C 
HETATM    2  C   UNL     1      19.339   0.913   9.253  1.00  0.00     0.002 C 
HETATM    3  C   UNL     1      15.790   5.443  15.866  1.00  0.00     0.018 C 
HETATM    4  C   UNL     1      16.169   5.293  12.103  1.00  0.00     0.038 C 
HETATM    5  C   UNL     1      18.879   0.519  10.652  1.00  0.00     0.020 C 
HETATM    6  O   UNL     1      16.377   2.902  19.536  1.00  0.00    -0.287 OA
HETATM    7  C   UNL     1      18.494   0.220  15.562  1.00  0.00     0.123 C 
HETATM    8  C   UNL     1      19.319   0.940  13.104  1.00  0.00     0.037 C 
HETATM    9  C   UNL     1      19.057   2.872  11.413  1.00  0.00    -0.055 C 
HETATM   10  O   UNL     1      13.869   4.256  18.229  1.00  0.00    -0.284 OA
HETATM   11  C   UNL     1      17.678   4.578  14.565  1.00  0.00     0.015 C 
HETATM   12  C   UNL     1      19.457   3.421  10.042  1.00  0.00     0.036 C 
HETATM   13  C   UNL     1      21.075   1.371  11.483  1.00  0.00     0.027 C 
HETATM   14  C   UNL     1      19.227   1.400  15.392  1.00  0.00     0.124 C 
HETATM   15  C   UNL     1      18.220   3.851  12.210  1.00  0.00    -0.033 C 
HETATM   16  C   UNL     1      15.754   2.850  18.431  1.00  0.00     0.223 C 
HETATM   17  O   UNL     1      17.153  -0.902  17.206  1.00  0.00    -0.258 OA
HETATM   18  C   UNL     1      16.390   5.115  14.591  1.00  0.00    -0.003 C 
HETATM   19  N   UNL     1      18.618  -0.767  14.623  1.00  0.00    -0.358 N 
ATOM     20  HN  UNL     1      18.456  -1.747  14.860  1.00  0.00     0.165 HD
HETATM   21  C   UNL     1      18.514   4.182  13.535  1.00  0.00     0.012 C 
HETATM   22  C   UNL     1      15.650   5.402  13.392  1.00  0.00     0.075 C 
HETATM   23  O   UNL     1      17.269   1.362  17.265  1.00  0.00    -0.308 OA
HETATM   24  C   UNL     1      17.534   0.131  16.700  1.00  0.00     0.311 C 
HETATM   25  C   UNL     1      15.041   4.075  17.903  1.00  0.00     0.219 C 
HETATM   26  C   UNL     1      18.962  -0.396  13.372  1.00  0.00     0.114 C 
HETATM   27  N   UNL     1      19.661   1.726  14.161  1.00  0.00    -0.365 N 
ATOM     28  HN  UNL     1      20.241   2.553  14.021  1.00  0.00     0.165 HD
HETATM   29  C   UNL     1      19.551   1.439  11.686  1.00  0.00     0.024 C 
HETATM   30  C   UNL     1      19.603   2.373   8.960  1.00  0.00     0.004 C 
HETATM   31  C   UNL     1      17.212   4.575  11.547  1.00  0.00     0.014 C 
HETATM   32  C   UNL     1      15.892   1.609  17.580  1.00  0.00     0.266 C 
ENDROOT
BRANCH  22  33
HETATM   33  O   UNL     1      14.412   5.952  13.542  1.00  0.00    -0.360 OA
ATOM     34  HO  UNL     1      13.664   5.369  13.581  1.00  0.00     0.217 HD
ENDBRANCH  22  33
TORSDOF 1
ENDMDL
MODEL 2
REMARK VINA RESULT:     -10.1      1.405      2.049
REMARK  1 active torsions:
REMARK  status: ('A' for Active; 'I' for Inactive)
REMARK    1  A    between atoms: O_4  and  C_24 
ROOT
HETATM    1  C   UNL     1      15.092   6.583  15.698  1.00  0.00     0.059 C 
HETATM    2  C   UNL     1      19.611  -0.536  11.386  1.00  0.00     0.002 C 
HETATM    3  C   UNL     1      15.293   6.449  14.456  1.00  0.00     0.018 C 
HETATM    4  C   UNL     1      16.185   4.525  11.320  1.00  0.00     0.038 C 
HETATM    5  C   UNL     1      18.952  -0.229  12.726  1.00  0.00     0.020 C 
HETATM    6  O   UNL     1      15.304   6.015  18.936  1.00  0.00    -0.287 OA
HETATM    7  C   UNL     1      17.884   1.852  17.071  1.00  0.00     0.123 C 
HETATM    8  C   UNL     1      19.058   1.339  14.705  1.00  0.00     0.037 C 
HETATM    9  C   UNL     1      19.080   2.205  12.274  1.00  0.00    -0.055 C 
HETATM   10  O   UNL     1      13.035   6.458  16.819  1.00  0.00    -0.284 OA
HETATM   11  C   UNL     1      17.321   5.152  13.997  1.00  0.00     0.015 C 
HETATM   12  C   UNL     1      19.680   2.046  10.875  1.00  0.00     0.036 C 
HETATM   13  C   UNL     1      21.032   1.016  13.327  1.00  0.00     0.027 C 
HETATM   14  C   UNL     1      18.662   2.837  16.452  1.00  0.00     0.124 C 
HETATM   15  C   UNL     1      18.166   3.408  12.380  1.00  0.00    -0.033 C 
HETATM   16  C   UNL     1      14.839   5.410  17.923  1.00  0.00     0.223 C 
HETATM   17  O   UNL     1      16.302   1.599  18.857  1.00  0.00    -0.258 OA
HETATM   18  C   UNL     1      16.055   5.576  13.589  1.00  0.00    -0.003 C 
HETATM   19  N   UNL     1      18.112   0.542  16.751  1.00  0.00    -0.358 N 
ATOM     20  HN  UNL     1      17.896  -0.209  17.406  1.00  0.00     0.165 HD
HETATM   21  C   UNL     1      18.282   4.348  13.408  1.00  0.00     0.012 C 
HETATM   22  C   UNL     1      15.496   5.216  12.314  1.00  0.00     0.075 C 
HETATM   23  O   UNL     1      16.463   3.615  17.831  1.00  0.00    -0.308 OA
HETATM   24  C   UNL     1      16.774   2.277  17.972  1.00  0.00     0.311 C 
HETATM   25  C   UNL     1      14.236   6.196  16.779  1.00  0.00     0.219 C 
HETATM   26  C   UNL     1      18.635   0.282  15.534  1.00  0.00     0.114 C 
HETATM   27  N   UNL     1      19.270   2.550  15.286  1.00  0.00    -0.365 N 
ATOM     28  HN  UNL     1      19.884   3.234  14.843  1.00  0.00     0.165 HD
HETATM   29  C   UNL     1      19.497   1.105  13.267  1.00  0.00     0.024 C 
HETATM   30  C   UNL     1      19.949   0.614  10.463  1.00  0.00     0.004 C 
HETATM   31  C   UNL     1      17.277   3.677  11.323  1.00  0.00     0.014 C 
HETATM   32  C   UNL     1      15.063   3.920  17.802  1.00  0.00     0.266 C 
ENDROOT
BRANCH  22  33
HETATM   33  O   UNL     1      14.263   5.715  12.014  1.00  0.00    -0.360 OA
ATOM     34  HO  UNL     1      14.214   6.506  11.490  1.00  0.00     0.217 HD
ENDBRANCH  22  33
TORSDOF 1
ENDMDL
MODEL 3
REMARK VINA RESULT:      -9.3      2.249      3.318
REMARK  1 active torsions:
REMARK  status: ('A' for Active; 'I' for Inactive)
REMARK    1  A    between atoms: O_4  and  C_24 
ROOT
HETATM    1  C   UNL     1      16.603   4.326  16.933  1.00  0.00     0.059 C 
HETATM    2  C   UNL     1      21.770  -2.496  12.877  1.00  0.00     0.002 C 
HETATM    3  C   UNL     1      17.048   4.310  15.749  1.00  0.00     0.018 C 
HETATM    4  C   UNL     1      18.521   2.677  12.668  1.00  0.00     0.038 C 
HETATM    5  C   UNL     1      20.859  -2.299  14.084  1.00  0.00     0.020 C 
HETATM    6  O   UNL     1      16.145   3.428  20.070  1.00  0.00    -0.287 OA
HETATM    7  C   UNL     1      18.973  -0.625  18.325  1.00  0.00     0.123 C 
HETATM    8  C   UNL     1      20.592  -0.943  16.199  1.00  0.00     0.037 C 
HETATM    9  C   UNL     1      21.121   0.161  13.927  1.00  0.00    -0.055 C 
HETATM   10  O   UNL     1      14.360   4.171  17.602  1.00  0.00    -0.284 OA
HETATM   11  C   UNL     1      19.103   2.987  15.569  1.00  0.00     0.015 C 
HETATM   12  C   UNL     1      21.988   0.119  12.668  1.00  0.00     0.036 C 
HETATM   13  C   UNL     1      22.797  -1.203  15.216  1.00  0.00     0.027 C 
HETATM   14  C   UNL     1      19.878   0.387  17.981  1.00  0.00     0.124 C 
HETATM   15  C   UNL     1      20.225   1.382  13.977  1.00  0.00    -0.033 C 
HETATM   16  C   UNL     1      15.884   2.946  18.926  1.00  0.00     0.223 C 
HETATM   17  O   UNL     1      17.057  -0.993  19.722  1.00  0.00    -0.258 OA
HETATM   18  C   UNL     1      17.954   3.499  14.964  1.00  0.00    -0.003 C 
HETATM   19  N   UNL     1      19.237  -1.904  17.919  1.00  0.00    -0.358 N 
ATOM     20  HN  UNL     1      18.879  -2.708  18.435  1.00  0.00     0.165 HD
HETATM   21  C   UNL     1      20.148   2.209  15.101  1.00  0.00     0.012 C 
HETATM   22  C   UNL     1      17.657   3.292  13.573  1.00  0.00     0.075 C 
HETATM   23  O   UNL     1      17.460   1.108  18.970  1.00  0.00    -0.308 OA
HETATM   24  C   UNL     1      17.711  -0.249  19.026  1.00  0.00     0.311 C 
HETATM   25  C   UNL     1      15.538   3.867  17.775  1.00  0.00     0.219 C 
HETATM   26  C   UNL     1      19.990  -2.061  16.810  1.00  0.00     0.114 C 
HETATM   27  N   UNL     1      20.703   0.194  16.936  1.00  0.00    -0.365 N 
ATOM     28  HN  UNL     1      21.406   0.895  16.699  1.00  0.00     0.165 HD
HETATM   29  C   UNL     1      21.307  -1.049  14.861  1.00  0.00     0.024 C 
HETATM   30  C   UNL     1      22.308  -1.273  12.167  1.00  0.00     0.004 C 
HETATM   31  C   UNL     1      19.574   1.791  12.798  1.00  0.00     0.014 C 
HETATM   32  C   UNL     1      16.100   1.469  18.695  1.00  0.00     0.266 C 
ENDROOT
BRANCH  22  33
HETATM   33  O   UNL     1      16.520   3.866  13.087  1.00  0.00    -0.360 OA
ATOM     34  HO  UNL     1      15.718   3.357  13.108  1.00  0.00     0.217 HD
ENDBRANCH  22  33
TORSDOF 1
ENDMDL
MODEL 4
REMARK VINA RESULT:      -9.1      2.515      3.929
REMARK  1 active torsions:
REMARK  status: ('A' for Active; 'I' for Inactive)
REMARK    1  A    between atoms: O_4  and  C_24 
ROOT
HETATM    1  C   UNL     1      18.662   0.678  19.006  1.00  0.00     0.059 C 
HETATM    2  C   UNL     1      19.145   1.256   9.566  1.00  0.00     0.002 C 
HETATM    3  C   UNL     1      18.117   1.549  18.267  1.00  0.00     0.018 C 
HETATM    4  C   UNL     1      16.875   2.957  14.980  1.00  0.00     0.038 C 
HETATM    5  C   UNL     1      19.388   0.239  10.675  1.00  0.00     0.020 C 
HETATM    6  O   UNL     1      20.581  -1.847  19.899  1.00  0.00    -0.287 OA
HETATM    7  C   UNL     1      21.179  -1.993  14.695  1.00  0.00     0.123 C 
HETATM    8  C   UNL     1      20.762  -0.176  12.755  1.00  0.00     0.037 C 
HETATM    9  C   UNL     1      19.520   2.052  12.360  1.00  0.00    -0.055 C 
HETATM   10  O   UNL     1      17.584  -0.993  20.251  1.00  0.00    -0.284 OA
HETATM   11  C   UNL     1      19.377   1.900  16.195  1.00  0.00     0.015 C 
HETATM   12  C   UNL     1      19.212   3.175  11.367  1.00  0.00     0.036 C 
HETATM   13  C   UNL     1      21.575   1.378  11.074  1.00  0.00     0.027 C 
HETATM   14  C   UNL     1      21.585  -0.667  14.884  1.00  0.00     0.124 C 
HETATM   15  C   UNL     1      18.966   2.331  13.742  1.00  0.00    -0.033 C 
HETATM   16  C   UNL     1      19.563  -1.679  19.160  1.00  0.00     0.223 C 
HETATM   17  O   UNL     1      20.849  -4.020  15.936  1.00  0.00    -0.258 OA
HETATM   18  C   UNL     1      18.158   1.938  16.874  1.00  0.00    -0.003 C 
HETATM   19  N   UNL     1      21.037  -2.457  13.416  1.00  0.00    -0.358 N 
ATOM     20  HN  UNL     1      21.139  -3.448  13.197  1.00  0.00     0.165 HD
HETATM   21  C   UNL     1      19.744   2.215  14.898  1.00  0.00     0.012 C 
HETATM   22  C   UNL     1      16.944   2.398  16.255  1.00  0.00     0.075 C 
HETATM   23  O   UNL     1      20.640  -2.040  17.021  1.00  0.00    -0.308 OA
HETATM   24  C   UNL     1      20.820  -2.810  15.890  1.00  0.00     0.311 C 
HETATM   25  C   UNL     1      18.518  -0.648  19.530  1.00  0.00     0.219 C 
HETATM   26  C   UNL     1      20.756  -1.552  12.454  1.00  0.00     0.114 C 
HETATM   27  N   UNL     1      21.399   0.220  13.889  1.00  0.00    -0.365 N 
ATOM     28  HN  UNL     1      21.734   1.179  13.985  1.00  0.00     0.165 HD
HETATM   29  C   UNL     1      20.291   0.867  11.751  1.00  0.00     0.024 C 
HETATM   30  C   UNL     1      19.038   2.720   9.934  1.00  0.00     0.004 C 
HETATM   31  C   UNL     1      17.676   2.882  13.856  1.00  0.00     0.014 C 
HETATM   32  C   UNL     1      19.509  -2.391  17.828  1.00  0.00     0.266 C 
ENDROOT
BRANCH  22  33
HETATM   33  O   UNL     1      15.821   2.418  17.027  1.00  0.00    -0.360 OA
ATOM     34  HO  UNL     1      15.526   1.600  17.409  1.00  0.00     0.217 HD
ENDBRANCH  22  33
TORSDOF 1
ENDMDL
MODEL 5
REMARK VINA RESULT:      -9.1      3.024      5.367
REMARK  1 active torsions:
REMARK  status: ('A' for Active; 'I' for Inactive)
REMARK    1  A    between atoms: O_4  and  C_24 
ROOT
HETATM    1  C   UNL     1      19.890  -1.285  17.851  1.00  0.00     0.059 C 
HETATM    2  C   UNL     1      18.020   2.827   9.527  1.00  0.00     0.002 C 
HETATM    3  C   UNL     1      19.012  -0.404  17.616  1.00  0.00     0.018 C 
HETATM    4  C   UNL     1      16.764   1.683  15.399  1.00  0.00     0.038 C 
HETATM    5  C   UNL     1      18.729   1.592  10.072  1.00  0.00     0.020 C 
HETATM    6  O   UNL     1      22.463  -3.284  17.363  1.00  0.00    -0.287 OA
HETATM    7  C   UNL     1      21.847  -1.331  12.538  1.00  0.00     0.123 C 
HETATM    8  C   UNL     1      20.606   0.864  11.599  1.00  0.00     0.037 C 
HETATM    9  C   UNL     1      18.856   2.615  12.327  1.00  0.00    -0.055 C 
HETATM   10  O   UNL     1      19.520  -3.532  18.414  1.00  0.00    -0.284 OA
HETATM   11  C   UNL     1      19.648   1.033  15.735  1.00  0.00     0.015 C 
HETATM   12  C   UNL     1      18.089   3.881  11.938  1.00  0.00     0.036 C 
HETATM   13  C   UNL     1      20.649   3.090  10.627  1.00  0.00     0.027 C 
HETATM   14  C   UNL     1      21.990  -0.110  13.208  1.00  0.00     0.124 C 
HETATM   15  C   UNL     1      18.593   2.194  13.758  1.00  0.00    -0.033 C 
HETATM   16  C   UNL     1      21.289  -3.161  16.896  1.00  0.00     0.223 C 
HETATM   17  O   UNL     1      22.261  -3.673  12.855  1.00  0.00    -0.258 OA
HETATM   18  C   UNL     1      18.642   0.463  16.518  1.00  0.00    -0.003 C 
HETATM   19  N   UNL     1      21.514  -1.313  11.211  1.00  0.00    -0.358 N 
ATOM     20  HN  UNL     1      21.774  -2.079  10.589  1.00  0.00     0.165 HD
HETATM   21  C   UNL     1      19.625   1.894  14.652  1.00  0.00     0.012 C 
HETATM   22  C   UNL     1      17.248   0.743  16.306  1.00  0.00     0.075 C 
HETATM   23  O   UNL     1      21.889  -2.382  14.683  1.00  0.00    -0.308 OA
HETATM   24  C   UNL     1      21.962  -2.596  13.320  1.00  0.00     0.311 C 
HETATM   25  C   UNL     1      20.162  -2.690  17.790  1.00  0.00     0.219 C 
HETATM   26  C   UNL     1      20.828  -0.243  10.757  1.00  0.00     0.114 C 
HETATM   27  N   UNL     1      21.390   0.983  12.704  1.00  0.00    -0.365 N 
ATOM     28  HN  UNL     1      21.522   1.893  13.146  1.00  0.00     0.165 HD
HETATM   29  C   UNL     1      19.701   2.016  11.188  1.00  0.00     0.024 C 
HETATM   30  C   UNL     1      17.688   3.954  10.480  1.00  0.00     0.004 C 
HETATM   31  C   UNL     1      17.278   2.263  14.253  1.00  0.00     0.014 C 
HETATM   32  C   UNL     1      21.081  -3.318  15.407  1.00  0.00     0.266 C 
ENDROOT
BRANCH  22  33
HETATM   33  O   UNL     1      16.359   0.150  17.153  1.00  0.00    -0.360 OA
ATOM     34  HO  UNL     1      16.659  -0.585  17.674  1.00  0.00     0.217 HD
ENDBRANCH  22  33
TORSDOF 1
ENDMDL
MODEL 6
REMARK VINA RESULT:      -9.1      4.308      6.048
REMARK  1 active torsions:
REMARK  status: ('A' for Active; 'I' for Inactive)
REMARK    1  A    between atoms: O_4  and  C_24 
ROOT
HETATM    1  C   UNL     1      19.698   1.521  16.140  1.00  0.00     0.059 C 
HETATM    2  C   UNL     1      23.642  -5.093  10.627  1.00  0.00     0.002 C 
HETATM    3  C   UNL     1      20.006   1.633  14.918  1.00  0.00     0.018 C 
HETATM    4  C   UNL     1      20.951   0.327  11.493  1.00  0.00     0.038 C 
HETATM    5  C   UNL     1      22.895  -4.988  11.952  1.00  0.00     0.020 C 
HETATM    6  O   UNL     1      19.496   0.234  19.166  1.00  0.00    -0.287 OA
HETATM    7  C   UNL     1      21.673  -3.768  16.574  1.00  0.00     0.123 C 
HETATM    8  C   UNL     1      23.006  -3.926  14.242  1.00  0.00     0.037 C 
HETATM    9  C   UNL     1      23.395  -2.564  12.085  1.00  0.00    -0.055 C 
HETATM   10  O   UNL     1      17.538   1.473  17.054  1.00  0.00    -0.284 OA
HETATM   11  C   UNL     1      21.879   0.170  14.316  1.00  0.00     0.015 C 
HETATM   12  C   UNL     1      24.109  -2.504  10.734  1.00  0.00     0.036 C 
HETATM   13  C   UNL     1      25.051  -4.240  12.969  1.00  0.00     0.027 C 
HETATM   14  C   UNL     1      22.636  -2.803  16.256  1.00  0.00     0.124 C 
HETATM   15  C   UNL     1      22.644  -1.287  12.403  1.00  0.00    -0.033 C 
HETATM   16  C   UNL     1      19.061  -0.057  18.010  1.00  0.00     0.223 C 
HETATM   17  O   UNL     1      19.895  -4.158  18.138  1.00  0.00    -0.258 OA
HETATM   18  C   UNL     1      20.730   0.863  13.929  1.00  0.00    -0.003 C 
HETATM   19  N   UNL     1      21.755  -4.996  15.977  1.00  0.00    -0.358 N 
ATOM     20  HN  UNL     1      21.373  -5.829  16.424  1.00  0.00     0.165 HD
HETATM   21  C   UNL     1      22.778  -0.623  13.625  1.00  0.00     0.012 C 
HETATM   22  C   UNL     1      20.262   0.882  12.570  1.00  0.00     0.075 C 
HETATM   23  O   UNL     1      20.431  -2.016  17.620  1.00  0.00    -0.308 OA
HETATM   24  C   UNL     1      20.543  -3.384  17.469  1.00  0.00     0.311 C 
HETATM   25  C   UNL     1      18.690   1.044  17.040  1.00  0.00     0.219 C 
HETATM   26  C   UNL     1      22.361  -5.061  14.772  1.00  0.00     0.114 C 
HETATM   27  N   UNL     1      23.317  -2.919  15.101  1.00  0.00    -0.365 N 
ATOM     28  HN  UNL     1      24.059  -2.257  14.873  1.00  0.00     0.165 HD
HETATM   29  C   UNL     1      23.555  -3.905  12.824  1.00  0.00     0.024 C 
HETATM   30  C   UNL     1      24.225  -3.835  10.021  1.00  0.00     0.004 C 
HETATM   31  C   UNL     1      21.914  -0.659  11.377  1.00  0.00     0.014 C 
HETATM   32  C   UNL     1      19.095  -1.500  17.564  1.00  0.00     0.266 C 
ENDROOT
BRANCH  22  33
HETATM   33  O   UNL     1      19.145   1.618  12.307  1.00  0.00    -0.360 OA
ATOM     34  HO  UNL     1      18.383   1.488  12.859  1.00  0.00     0.217 HD
ENDBRANCH  22  33
TORSDOF 1
ENDMDL
MODEL 7
REMARK VINA RESULT:      -9.0      5.437      9.492
REMARK  1 active torsions:
REMARK  status: ('A' for Active; 'I' for Inactive)
REMARK    1  A    between atoms: O_4  and  C_24 
ROOT
HETATM    1  C   UNL     1      24.238  -5.373  14.867  1.00  0.00     0.059 C 
HETATM    2  C   UNL     1      17.262   1.026  15.127  1.00  0.00     0.002 C 
HETATM    3  C   UNL     1      23.281  -5.323  15.692  1.00  0.00     0.018 C 
HETATM    4  C   UNL     1      19.895  -4.183  16.943  1.00  0.00     0.038 C 
HETATM    5  C   UNL     1      18.318   0.507  14.158  1.00  0.00     0.020 C 
HETATM    6  O   UNL     1      26.270  -4.461  12.439  1.00  0.00    -0.287 OA
HETATM    7  C   UNL     1      22.657  -0.676  12.128  1.00  0.00     0.123 C 
HETATM    8  C   UNL     1      20.813   0.237  13.862  1.00  0.00     0.037 C 
HETATM    9  C   UNL     1      19.611  -0.472  16.033  1.00  0.00    -0.055 C 
HETATM   10  O   UNL     1      24.588  -6.993  13.206  1.00  0.00    -0.284 OA
HETATM   11  C   UNL     1      22.475  -3.031  16.011  1.00  0.00     0.015 C 
HETATM   12  C   UNL     1      18.597  -0.078  17.109  1.00  0.00     0.036 C 
HETATM   13  C   UNL     1      19.965   1.932  15.381  1.00  0.00     0.027 C 
HETATM   14  C   UNL     1      22.999  -0.488  13.473  1.00  0.00     0.124 C 
HETATM   15  C   UNL     1      20.307  -1.782  16.342  1.00  0.00    -0.033 C 
HETATM   16  C   UNL     1      25.044  -4.772  12.547  1.00  0.00     0.223 C 
HETATM   17  O   UNL     1      23.498  -1.717  10.137  1.00  0.00    -0.258 OA
HETATM   18  C   UNL     1      22.217  -4.403  16.034  1.00  0.00    -0.003 C 
HETATM   19  N   UNL     1      21.606   0.033  11.616  1.00  0.00    -0.358 N 
ATOM     20  HN  UNL     1      21.550   0.254  10.622  1.00  0.00     0.165 HD
HETATM   21  C   UNL     1      21.697  -1.921  16.292  1.00  0.00     0.012 C 
HETATM   22  C   UNL     1      20.946  -4.942  16.432  1.00  0.00     0.075 C 
HETATM   23  O   UNL     1      24.104  -2.577  12.147  1.00  0.00    -0.308 OA
HETATM   24  C   UNL     1      23.386  -1.713  11.343  1.00  0.00     0.311 C 
HETATM   25  C   UNL     1      24.613  -5.815  13.556  1.00  0.00     0.219 C 
HETATM   26  C   UNL     1      20.644   0.428  12.477  1.00  0.00     0.114 C 
HETATM   27  N   UNL     1      22.073   0.002  14.318  1.00  0.00    -0.365 N 
ATOM     28  HN  UNL     1      22.313   0.196  15.290  1.00  0.00     0.165 HD
HETATM   29  C   UNL     1      19.691   0.513  14.852  1.00  0.00     0.024 C 
HETATM   30  C   UNL     1      17.406   0.705  16.599  1.00  0.00     0.004 C 
HETATM   31  C   UNL     1      19.545  -2.848  16.854  1.00  0.00     0.014 C 
HETATM   32  C   UNL     1      24.020  -3.962  11.787  1.00  0.00     0.266 C 
ENDROOT
BRANCH  22  33
HETATM   33  O   UNL     1      20.822  -6.300  16.443  1.00  0.00    -0.360 OA
ATOM     34  HO  UNL     1      19.954  -6.671  16.343  1.00  0.00     0.217 HD
ENDBRANCH  22  33
TORSDOF 1
ENDMDL
MODEL 8
REMARK VINA RESULT:      -8.9      4.224      7.633
REMARK  1 active torsions:
REMARK  status: ('A' for Active; 'I' for Inactive)
REMARK    1  A    between atoms: O_4  and  C_24 
ROOT
HETATM    1  C   UNL     1      23.022  -4.051  13.490  1.00  0.00     0.059 C 
HETATM    2  C   UNL     1      18.395   4.117  14.745  1.00  0.00     0.002 C 
HETATM    3  C   UNL     1      22.749  -3.186  12.608  1.00  0.00     0.018 C 
HETATM    4  C   UNL     1      21.709   0.239  11.377  1.00  0.00     0.038 C 
HETATM    5  C   UNL     1      19.128   3.065  15.571  1.00  0.00     0.020 C 
HETATM    6  O   UNL     1      23.017  -5.598  16.399  1.00  0.00    -0.287 OA
HETATM    7  C   UNL     1      20.413  -1.223  17.645  1.00  0.00     0.123 C 
HETATM    8  C   UNL     1      19.109   0.610  16.170  1.00  0.00     0.037 C 
HETATM    9  C   UNL     1      18.923   1.421  13.727  1.00  0.00    -0.055 C 
HETATM   10  O   UNL     1      25.145  -4.597  14.325  1.00  0.00    -0.284 OA
HETATM   11  C   UNL     1      20.723  -1.925  13.166  1.00  0.00     0.015 C 
HETATM   12  C   UNL     1      18.244   2.393  12.761  1.00  0.00     0.036 C 
HETATM   13  C   UNL     1      17.062   1.670  15.403  1.00  0.00     0.027 C 
HETATM   14  C   UNL     1      19.579  -1.636  16.599  1.00  0.00     0.124 C 
HETATM   15  C   UNL     1      19.818   0.426  13.017  1.00  0.00    -0.033 C 
HETATM   16  C   UNL     1      23.432  -4.487  15.946  1.00  0.00     0.223 C 
HETATM   17  O   UNL     1      22.105  -2.087  19.111  1.00  0.00    -0.258 OA
HETATM   18  C   UNL     1      21.954  -1.981  12.509  1.00  0.00    -0.003 C 
HETATM   19  N   UNL     1      20.193   0.002  18.212  1.00  0.00    -0.358 N 
ATOM     20  HN  UNL     1      20.463   0.196  19.177  1.00  0.00     0.165 HD
HETATM   21  C   UNL     1      19.745  -0.949  13.254  1.00  0.00     0.012 C 
HETATM   22  C   UNL     1      22.442  -0.903  11.693  1.00  0.00     0.075 C 
HETATM   23  O   UNL     1      21.842  -3.051  17.075  1.00  0.00    -0.308 OA
HETATM   24  C   UNL     1      21.567  -2.089  18.026  1.00  0.00     0.311 C 
HETATM   25  C   UNL     1      23.950  -4.392  14.527  1.00  0.00     0.219 C 
HETATM   26  C   UNL     1      19.603   0.944  17.446  1.00  0.00     0.114 C 
HETATM   27  N   UNL     1      18.909  -0.706  15.895  1.00  0.00    -0.365 N 
ATOM     28  HN  UNL     1      18.256  -0.986  15.163  1.00  0.00     0.165 HD
HETATM   29  C   UNL     1      18.589   1.669  15.209  1.00  0.00     0.024 C 
HETATM   30  C   UNL     1      17.979   3.770  13.332  1.00  0.00     0.004 C 
HETATM   31  C   UNL     1      20.636   0.882  11.966  1.00  0.00     0.014 C 
HETATM   32  C   UNL     1      23.231  -3.244  16.781  1.00  0.00     0.266 C 
ENDROOT
BRANCH  22  33
HETATM   33  O   UNL     1      23.645  -1.085  11.077  1.00  0.00    -0.360 OA
ATOM     34  HO  UNL     1      24.081  -1.921  11.185  1.00  0.00     0.217 HD
ENDBRANCH  22  33
TORSDOF 1
ENDMDL
MODEL 9
REMARK VINA RESULT:      -8.7      2.362      4.988
REMARK  1 active torsions:
REMARK  status: ('A' for Active; 'I' for Inactive)
REMARK    1  A    between atoms: O_4  and  C_24 
ROOT
HETATM    1  C   UNL     1      17.065   5.046  10.591  1.00  0.00     0.059 C 
HETATM    2  C   UNL     1      21.561  -2.745  13.552  1.00  0.00     0.002 C 
HETATM    3  C   UNL     1      17.712   4.223   9.880  1.00  0.00     0.018 C 
HETATM    4  C   UNL     1      19.409   0.918   9.158  1.00  0.00     0.038 C 
HETATM    5  C   UNL     1      20.493  -1.773  14.039  1.00  0.00     0.020 C 
HETATM    6  O   UNL     1      15.874   6.531  13.280  1.00  0.00    -0.287 OA
HETATM    7  C   UNL     1      18.188   2.357  15.446  1.00  0.00     0.123 C 
HETATM    8  C   UNL     1      20.089   0.664  14.574  1.00  0.00     0.037 C 
HETATM    9  C   UNL     1      21.225  -0.081  12.380  1.00  0.00    -0.055 C 
HETATM   10  O   UNL     1      14.746   5.403  10.581  1.00  0.00    -0.284 OA
HETATM   11  C   UNL     1      19.487   3.118  11.158  1.00  0.00     0.015 C 
HETATM   12  C   UNL     1      22.288  -0.977  11.742  1.00  0.00     0.036 C 
HETATM   13  C   UNL     1      22.354  -0.212  14.625  1.00  0.00     0.027 C 
HETATM   14  C   UNL     1      19.311   2.856  14.775  1.00  0.00     0.124 C 
HETATM   15  C   UNL     1      20.574   0.851  11.379  1.00  0.00    -0.033 C 
HETATM   16  C   UNL     1      15.747   5.400  12.719  1.00  0.00     0.223 C 
HETATM   17  O   UNL     1      16.012   3.054  16.177  1.00  0.00    -0.258 OA
HETATM   18  C   UNL     1      18.584   3.088  10.094  1.00  0.00    -0.003 C 
HETATM   19  N   UNL     1      18.285   1.143  16.068  1.00  0.00    -0.358 N 
ATOM     20  HN  UNL     1      17.697   0.909  16.868  1.00  0.00     0.165 HD
HETATM   21  C   UNL     1      20.442   2.223  11.610  1.00  0.00     0.012 C 
HETATM   22  C   UNL     1      18.519   1.990   9.169  1.00  0.00     0.075 C 
HETATM   23  O   UNL     1      16.924   4.075  14.369  1.00  0.00    -0.308 OA
HETATM   24  C   UNL     1      16.909   3.119  15.366  1.00  0.00     0.311 C 
HETATM   25  C   UNL     1      15.796   5.291  11.211  1.00  0.00     0.219 C 
HETATM   26  C   UNL     1      19.190   0.267  15.584  1.00  0.00     0.114 C 
HETATM   27  N   UNL     1      20.267   1.997  14.377  1.00  0.00    -0.365 N 
ATOM     28  HN  UNL     1      21.118   2.343  13.933  1.00  0.00     0.165 HD
HETATM   29  C   UNL     1      21.010  -0.331  13.884  1.00  0.00     0.024 C 
HETATM   30  C   UNL     1      22.437  -2.339  12.386  1.00  0.00     0.004 C 
HETATM   31  C   UNL     1      20.239   0.351  10.107  1.00  0.00     0.014 C 
HETATM   32  C   UNL     1      15.729   4.160  13.583  1.00  0.00     0.266 C 
ENDROOT
BRANCH  22  33
HETATM   33  O   UNL     1      17.616   2.087   8.152  1.00  0.00    -0.360 OA
ATOM     34  HO  UNL     1      17.231   2.937   7.974  1.00  0.00     0.217 HD
ENDBRANCH  22  33
TORSDOF 1
ENDMDL
