REMARK  1 active torsions:
REMARK  status: ('A' for Active; 'I' for Inactive)
REMARK    1  A    between atoms: O_10  and  C_12 
ROOT
HETATM    1  C   UNL     1      21.885   0.564  14.138  1.00  0.00     0.010 C 
HETATM    2  C   UNL     1      20.195   3.228  10.737  1.00  0.00     0.034 C 
HETATM    3  C   UNL     1      13.889   6.596  11.900  1.00  0.00     0.037 A 
HETATM    4  C   UNL     1      16.108   4.944  12.223  1.00  0.00     0.029 A 
HETATM    5  C   UNL     1      18.690   0.377  16.095  1.00  0.00     0.019 C 
HETATM    6  O   UNL     1      19.370  -0.232  10.817  1.00  0.00    -0.268 OA
HETATM    7  C   UNL     1      19.785  -0.045  15.314  1.00  0.00     0.014 C 
HETATM    8  C   UNL     1      20.579   0.911  14.664  1.00  0.00    -0.020 C 
HETATM    9  C   UNL     1      15.472   5.033  10.966  1.00  0.00    -0.019 A 
HETATM   10  C   UNL     1      14.585   6.597  13.097  1.00  0.00     0.066 A 
HETATM   11  C   UNL     1      22.104  -0.306  11.811  1.00  0.00     0.150 C 
HETATM   12  C   UNL     1      17.391   3.981   9.964  1.00  0.00     0.041 C 
HETATM   13  C   UNL     1      14.326   5.817  10.841  1.00  0.00     0.015 A 
HETATM   14  C   UNL     1      18.336   1.719  16.099  1.00  0.00     0.101 C 
HETATM   15  C   UNL     1      19.392   4.228  11.227  1.00  0.00     0.100 C 
HETATM   16  C   UNL     1      17.829   3.086   8.985  1.00  0.00     0.031 C 
HETATM   17  C   UNL     1      22.301  -0.336  13.298  1.00  0.00    -0.006 C 
HETATM   18  N   UNL     1      18.801   2.519  15.050  1.00  0.00    -0.278 N 
HETATM   19  N   UNL     1      18.037   4.112  11.168  1.00  0.00    -0.302 N 
HETATM   20  N   UNL     1      21.273   0.825  11.450  1.00  0.00    -0.353 N 
ATOM     21  HN  UNL     1      21.640   1.753  11.663  1.00  0.00     0.163 HD
HETATM   22  C   UNL     1      20.067   0.770  10.863  1.00  0.00     0.251 C 
HETATM   23  C   UNL     1      17.976   3.499  14.524  1.00  0.00     0.377 C 
HETATM   24  C   UNL     1      18.778   2.104   9.149  1.00  0.00     0.019 C 
HETATM   25  O   UNL     1      17.487   3.264  13.286  1.00  0.00    -0.242 OA
HETATM   26  C   UNL     1      19.637   2.046  10.227  1.00  0.00     0.033 C 
HETATM   27  C   UNL     1      20.085   2.217  14.530  1.00  0.00     0.113 C 
HETATM   28  O   UNL     1      17.623   4.459  15.199  1.00  0.00    -0.237 OA
HETATM   29  C   UNL     1      15.661   5.737  13.278  1.00  0.00     0.053 A 
HETATM   30  C   UNL     1      16.170   4.633   9.824  1.00  0.00     0.042 C 
HETATM   31  C   UNL     1      17.263   4.121  12.304  1.00  0.00     0.171 C 
ENDROOT
BRANCH  10  32
HETATM   32  O   UNL     1      14.094   7.349  14.119  1.00  0.00    -0.361 OA
ATOM     33  HO  UNL     1      14.572   7.350  14.940  1.00  0.00     0.217 HD
ENDBRANCH  10  32
TORSDOF 1
