MODEL 1
REMARK VINA RESULT:     -12.3      0.000      0.000
REMARK  2 active torsions:
REMARK  status: ('A' for Active; 'I' for Inactive)
REMARK    1  A    between atoms: C_23  and  O_33 
REMARK    2  A    between atoms: N_27  and  C_38 
ROOT
HETATM    1  N   UNL     1      15.362   5.490  13.704  1.00  0.00    -0.380 N 
ATOM      2  HN  UNL     1      14.888   5.213  14.564  1.00  0.00     0.156 HD
HETATM    3  C   UNL     1      21.361  -0.549  15.103  1.00  0.00     0.136 C 
HETATM    4  C   UNL     1      14.995   5.859  11.300  1.00  0.00     0.027 C 
HETATM    5  C   UNL     1      19.190  -0.459  14.105  1.00  0.00     0.101 C 
HETATM    6  C   UNL     1      21.918  -0.538  12.705  1.00  0.00     0.049 C 
HETATM    7  C   UNL     1      16.167   5.220  11.049  1.00  0.00     0.010 C 
HETATM    8  C   UNL     1      18.062   3.814  12.158  1.00  0.00     0.010 C 
HETATM    9  C   UNL     1      17.293   4.096  14.307  1.00  0.00     0.012 C 
HETATM   10  N   UNL     1      18.042   2.834  16.151  1.00  0.00    -0.347 N 
ATOM     11  HN  UNL     1      17.954   2.528  17.120  1.00  0.00     0.167 HD
HETATM   12  C   UNL     1      19.457  -0.762  12.812  1.00  0.00     0.029 C 
HETATM   13  O   UNL     1      19.960   0.997  17.060  1.00  0.00    -0.263 OA
HETATM   14  C   UNL     1      19.749   1.122  15.871  1.00  0.00     0.295 C 
HETATM   15  C   UNL     1      19.022   2.326  15.345  1.00  0.00     0.175 C 
HETATM   16  C   UNL     1      19.340   1.264   9.096  1.00  0.00     0.011 C 
HETATM   17  C   UNL     1      20.549   0.123  10.852  1.00  0.00     0.023 C 
HETATM   18  N   UNL     1      20.138   0.103  14.969  1.00  0.00    -0.294 N 
HETATM   19  N   UNL     1      19.341   2.834  14.133  1.00  0.00    -0.337 N 
ATOM     20  HN  UNL     1      20.260   2.713  13.708  1.00  0.00     0.167 HD
HETATM   21  C   UNL     1      20.647  -0.378  12.143  1.00  0.00    -0.031 C 
HETATM   22  C   UNL     1      18.650   3.168  11.002  1.00  0.00    -0.022 C 
HETATM   23  C   UNL     1      22.243  -0.706  14.048  1.00  0.00     0.082 C 
HETATM   24  C   UNL     1      16.926   4.687  12.108  1.00  0.00    -0.018 C 
HETATM   25  C   UNL     1      16.676   5.114  13.452  1.00  0.00     0.150 C 
HETATM   26  C   UNL     1      19.939   1.272  10.364  1.00  0.00    -0.035 C 
HETATM   27  C   UNL     1      19.837   2.439  11.142  1.00  0.00     0.024 C 
HETATM   28  C   UNL     1      18.336   3.519  13.528  1.00  0.00     0.055 C 
HETATM   29  C   UNL     1      17.199   3.746  15.639  1.00  0.00     0.101 C 
HETATM   30  C   UNL     1      18.435   2.271   8.770  1.00  0.00     0.002 C 
HETATM   31  C   UNL     1      18.041   3.181   9.744  1.00  0.00     0.012 C 
HETATM   32  C   UNL     1      14.678   6.303  12.683  1.00  0.00     0.302 C 
ENDROOT
BRANCH  32  33
HETATM   33  N   UNL     1      13.249   6.012  12.844  1.00  0.00    -0.055 N 
ATOM     34  HN3 UNL     1      12.700   6.810  13.165  1.00  0.00     0.277 HD
ATOM     35  HN2 UNL     1      12.755   5.875  11.962  1.00  0.00     0.277 HD
ATOM     36  HN1 UNL     1      13.205   5.207  13.469  1.00  0.00     0.277 HD
ENDBRANCH  32  33
BRANCH  23  37
HETATM   37  O   UNL     1      23.542  -1.049  14.353  1.00  0.00    -0.359 OA
ATOM     38  HO  UNL     1      23.683  -1.878  14.795  1.00  0.00     0.217 HD
ENDBRANCH  23  37
TORSDOF 2
ENDMDL
MODEL 2
REMARK VINA RESULT:     -12.0      1.097      1.347
REMARK  2 active torsions:
REMARK  status: ('A' for Active; 'I' for Inactive)
REMARK    1  A    between atoms: C_23  and  O_33 
REMARK    2  A    between atoms: N_27  and  C_38 
ROOT
HETATM    1  N   UNL     1      15.360   5.628  12.486  1.00  0.00    -0.380 N 
ATOM      2  HN  UNL     1      14.670   5.564  13.236  1.00  0.00     0.156 HD
HETATM    3  C   UNL     1      20.345  -0.061  16.633  1.00  0.00     0.136 C 
HETATM    4  C   UNL     1      15.621   5.450  10.048  1.00  0.00     0.027 C 
HETATM    5  C   UNL     1      18.498  -0.154  15.118  1.00  0.00     0.101 C 
HETATM    6  C   UNL     1      21.471  -0.605  14.513  1.00  0.00     0.049 C 
HETATM    7  C   UNL     1      16.765   4.745  10.248  1.00  0.00     0.010 C 
HETATM    8  C   UNL     1      18.216   3.588  12.079  1.00  0.00     0.010 C 
HETATM    9  C   UNL     1      16.970   4.368  13.848  1.00  0.00     0.012 C 
HETATM   10  N   UNL     1      17.145   3.542  16.048  1.00  0.00    -0.347 N 
ATOM     11  HN  UNL     1      16.799   3.465  17.005  1.00  0.00     0.167 HD
HETATM   12  C   UNL     1      19.048  -0.748  14.032  1.00  0.00     0.029 C 
HETATM   13  O   UNL     1      18.634   1.919  17.789  1.00  0.00    -0.263 OA
HETATM   14  C   UNL     1      18.730   1.775  16.587  1.00  0.00     0.295 C 
HETATM   15  C   UNL     1      18.250   2.843  15.648  1.00  0.00     0.175 C 
HETATM   16  C   UNL     1      20.001   0.383  10.066  1.00  0.00     0.011 C 
HETATM   17  C   UNL     1      20.652  -0.354  12.275  1.00  0.00     0.023 C 
HETATM   18  N   UNL     1      19.247   0.570  16.055  1.00  0.00    -0.294 N 
HETATM   19  N   UNL     1      18.894   3.056  14.477  1.00  0.00    -0.337 N 
ATOM     20  HN  UNL     1      19.877   2.823  14.338  1.00  0.00     0.167 HD
HETATM   21  C   UNL     1      20.392  -0.551  13.624  1.00  0.00    -0.031 C 
HETATM   22  C   UNL     1      19.017   2.684  11.278  1.00  0.00    -0.022 C 
HETATM   23  C   UNL     1      21.444  -0.471  15.898  1.00  0.00     0.082 C 
HETATM   24  C   UNL     1      17.198   4.451  11.554  1.00  0.00    -0.018 C 
HETATM   25  C   UNL     1      16.662   5.177  12.666  1.00  0.00     0.150 C 
HETATM   26  C   UNL     1      20.271   0.667  11.412  1.00  0.00    -0.035 C 
HETATM   27  C   UNL     1      20.074   1.982  11.869  1.00  0.00     0.024 C 
HETATM   28  C   UNL     1      18.124   3.606  13.503  1.00  0.00     0.055 C 
HETATM   29  C   UNL     1      16.526   4.331  15.155  1.00  0.00     0.101 C 
HETATM   30  C   UNL     1      19.285   1.309   9.311  1.00  0.00     0.002 C 
HETATM   31  C   UNL     1      18.737   2.425   9.933  1.00  0.00     0.012 C 
HETATM   32  C   UNL     1      15.011   6.203  11.175  1.00  0.00     0.302 C 
ENDROOT
BRANCH  32  33
HETATM   33  N   UNL     1      13.568   5.986  11.024  1.00  0.00    -0.055 N 
ATOM     34  HN3 UNL     1      13.131   6.591  10.329  1.00  0.00     0.277 HD
ATOM     35  HN2 UNL     1      13.330   5.100  10.577  1.00  0.00     0.277 HD
ATOM     36  HN1 UNL     1      13.178   6.090  11.961  1.00  0.00     0.277 HD
ENDBRANCH  32  33
BRANCH  23  37
HETATM   37  O   UNL     1      22.598  -0.763  16.591  1.00  0.00    -0.359 OA
ATOM     38  HO  UNL     1      22.505  -1.181  17.440  1.00  0.00     0.217 HD
ENDBRANCH  23  37
TORSDOF 2
ENDMDL
MODEL 3
REMARK VINA RESULT:     -11.8      1.329      1.761
REMARK  2 active torsions:
REMARK  status: ('A' for Active; 'I' for Inactive)
REMARK    1  A    between atoms: C_23  and  O_33 
REMARK    2  A    between atoms: N_27  and  C_38 
ROOT
HETATM    1  N   UNL     1      15.904   5.071  15.871  1.00  0.00    -0.380 N 
ATOM      2  HN  UNL     1      15.645   4.499  16.675  1.00  0.00     0.156 HD
HETATM    3  C   UNL     1      21.415  -1.060  13.329  1.00  0.00     0.136 C 
HETATM    4  C   UNL     1      14.964   6.291  13.955  1.00  0.00     0.027 C 
HETATM    5  C   UNL     1      19.080  -0.613  13.075  1.00  0.00     0.101 C 
HETATM    6  C   UNL     1      21.327  -0.174  11.035  1.00  0.00     0.049 C 
HETATM    7  C   UNL     1      15.959   5.788  13.179  1.00  0.00     0.010 C 
HETATM    8  C   UNL     1      17.924   4.075  13.148  1.00  0.00     0.010 C 
HETATM    9  C   UNL     1      17.774   3.554  15.383  1.00  0.00     0.012 C 
HETATM   10  N   UNL     1      18.845   1.706  16.380  1.00  0.00    -0.347 N 
ATOM     11  HN  UNL     1      18.981   1.067  17.163  1.00  0.00     0.167 HD
HETATM   12  C   UNL     1      18.969  -0.422  11.739  1.00  0.00     0.029 C 
HETATM   13  O   UNL     1      20.736  -0.336  16.012  1.00  0.00    -0.263 OA
HETATM   14  C   UNL     1      20.237   0.215  15.052  1.00  0.00     0.295 C 
HETATM   15  C   UNL     1      19.524   1.528  15.207  1.00  0.00     0.175 C 
HETATM   16  C   UNL     1      18.096   2.819   9.160  1.00  0.00     0.011 C 
HETATM   17  C   UNL     1      19.598   1.117   9.992  1.00  0.00     0.023 C 
HETATM   18  N   UNL     1      20.272  -0.405  13.780  1.00  0.00    -0.294 N 
HETATM   19  N   UNL     1      19.567   2.443  14.212  1.00  0.00    -0.337 N 
ATOM     20  HN  UNL     1      20.327   2.486  13.534  1.00  0.00     0.167 HD
HETATM   21  C   UNL     1      19.977   0.180  10.943  1.00  0.00    -0.031 C 
HETATM   22  C   UNL     1      18.123   3.896  11.724  1.00  0.00    -0.022 C 
HETATM   23  C   UNL     1      21.972  -0.820  12.085  1.00  0.00     0.082 C 
HETATM   24  C   UNL     1      16.909   4.906  13.727  1.00  0.00    -0.018 C 
HETATM   25  C   UNL     1      17.063   4.813  15.147  1.00  0.00     0.150 C 
HETATM   26  C   UNL     1      19.002   2.365  10.129  1.00  0.00    -0.035 C 
HETATM   27  C   UNL     1      19.225   3.167  11.262  1.00  0.00     0.024 C 
HETATM   28  C   UNL     1      18.514   3.301  14.192  1.00  0.00     0.055 C 
HETATM   29  C   UNL     1      17.994   2.741  16.477  1.00  0.00     0.101 C 
HETATM   30  C   UNL     1      17.245   3.876   9.475  1.00  0.00     0.002 C 
HETATM   31  C   UNL     1      17.212   4.368  10.774  1.00  0.00     0.012 C 
HETATM   32  C   UNL     1      15.064   6.200  15.435  1.00  0.00     0.302 C 
ENDROOT
BRANCH  32  33
HETATM   33  N   UNL     1      13.704   5.869  15.876  1.00  0.00    -0.055 N 
ATOM     34  HN3 UNL     1      13.140   6.685  16.114  1.00  0.00     0.277 HD
ATOM     35  HN2 UNL     1      13.103   5.522  15.129  1.00  0.00     0.277 HD
ATOM     36  HN1 UNL     1      13.822   5.213  16.648  1.00  0.00     0.277 HD
ENDBRANCH  32  33
BRANCH  23  37
HETATM   37  O   UNL     1      23.264  -1.250  11.875  1.00  0.00    -0.359 OA
ATOM     38  HO  UNL     1      23.839  -1.290  12.630  1.00  0.00     0.217 HD
ENDBRANCH  23  37
TORSDOF 2
ENDMDL
MODEL 4
REMARK VINA RESULT:     -10.4      2.547      5.261
REMARK  2 active torsions:
REMARK  status: ('A' for Active; 'I' for Inactive)
REMARK    1  A    between atoms: C_23  and  O_33 
REMARK    2  A    between atoms: N_27  and  C_38 
ROOT
HETATM    1  N   UNL     1      18.058   3.573  10.165  1.00  0.00    -0.380 N 
ATOM      2  HN  UNL     1      17.185   4.094  10.080  1.00  0.00     0.156 HD
HETATM    3  C   UNL     1      16.733   2.818  18.656  1.00  0.00     0.136 C 
HETATM    4  C   UNL     1      19.276   1.636   9.265  1.00  0.00     0.027 C 
HETATM    5  C   UNL     1      16.060   1.645  16.684  1.00  0.00     0.101 C 
HETATM    6  C   UNL     1      18.231   0.866  18.706  1.00  0.00     0.049 C 
HETATM    7  C   UNL     1      19.634   1.305  10.533  1.00  0.00     0.010 C 
HETATM    8  C   UNL     1      19.222   1.882  13.042  1.00  0.00     0.010 C 
HETATM    9  C   UNL     1      17.923   3.731  12.614  1.00  0.00     0.012 C 
HETATM   10  N   UNL     1      16.600   4.816  14.235  1.00  0.00    -0.347 N 
ATOM     11  HN  UNL     1      15.871   5.481  14.495  1.00  0.00     0.167 HD
HETATM   12  C   UNL     1      16.644   0.435  16.858  1.00  0.00     0.029 C 
HETATM   13  O   UNL     1      16.012   5.015  16.972  1.00  0.00    -0.263 OA
HETATM   14  C   UNL     1      16.560   4.023  16.536  1.00  0.00     0.295 C 
HETATM   15  C   UNL     1      17.209   4.042  15.181  1.00  0.00     0.175 C 
HETATM   16  C   UNL     1      19.748  -1.772  15.011  1.00  0.00     0.011 C 
HETATM   17  C   UNL     1      18.809  -0.626  16.922  1.00  0.00     0.023 C 
HETATM   18  N   UNL     1      16.543   2.818  17.276  1.00  0.00    -0.294 N 
HETATM   19  N   UNL     1      18.322   3.307  14.954  1.00  0.00    -0.337 N 
ATOM     20  HN  UNL     1      18.968   3.038  15.696  1.00  0.00     0.167 HD
HETATM   21  C   UNL     1      17.898   0.250  17.495  1.00  0.00    -0.031 C 
HETATM   22  C   UNL     1      19.691   0.675  13.692  1.00  0.00    -0.022 C 
HETATM   23  C   UNL     1      17.643   1.986  19.285  1.00  0.00     0.082 C 
HETATM   24  C   UNL     1      19.188   2.077  11.622  1.00  0.00    -0.018 C 
HETATM   25  C   UNL     1      18.671   3.394  11.400  1.00  0.00     0.150 C 
HETATM   26  C   UNL     1      19.469  -0.583  15.699  1.00  0.00    -0.035 C 
HETATM   27  C   UNL     1      19.806   0.637  15.087  1.00  0.00     0.024 C 
HETATM   28  C   UNL     1      18.508   2.956  13.655  1.00  0.00     0.055 C 
HETATM   29  C   UNL     1      16.983   4.683  12.954  1.00  0.00     0.101 C 
HETATM   30  C   UNL     1      20.069  -1.710  13.657  1.00  0.00     0.002 C 
HETATM   31  C   UNL     1      19.975  -0.497  12.985  1.00  0.00     0.012 C 
HETATM   32  C   UNL     1      18.715   2.984   8.985  1.00  0.00     0.302 C 
ENDROOT
BRANCH  32  33
HETATM   33  N   UNL     1      17.637   2.740   8.020  1.00  0.00    -0.055 N 
ATOM     34  HN3 UNL     1      17.371   3.566   7.483  1.00  0.00     0.277 HD
ATOM     35  HN2 UNL     1      17.921   2.167   7.224  1.00  0.00     0.277 HD
ATOM     36  HN1 UNL     1      16.872   2.340   8.562  1.00  0.00     0.277 HD
ENDBRANCH  32  33
BRANCH  23  37
HETATM   37  O   UNL     1      17.997   2.298  20.580  1.00  0.00    -0.359 OA
ATOM     38  HO  UNL     1      18.807   1.928  20.913  1.00  0.00     0.217 HD
ENDBRANCH  23  37
TORSDOF 2
ENDMDL
MODEL 5
REMARK VINA RESULT:     -10.1      2.809      6.020
REMARK  2 active torsions:
REMARK  status: ('A' for Active; 'I' for Inactive)
REMARK    1  A    between atoms: C_23  and  O_33 
REMARK    2  A    between atoms: N_27  and  C_38 
ROOT
HETATM    1  N   UNL     1      18.514   1.722  18.133  1.00  0.00    -0.380 N 
ATOM      2  HN  UNL     1      18.426   2.695  18.426  1.00  0.00     0.156 HD
HETATM    3  C   UNL     1      17.542   4.147   9.911  1.00  0.00     0.136 C 
HETATM    4  C   UNL     1      19.961  -0.257  18.326  1.00  0.00     0.027 C 
HETATM    5  C   UNL     1      19.347   3.989  11.471  1.00  0.00     0.101 C 
HETATM    6  C   UNL     1      18.649   2.074   9.179  1.00  0.00     0.049 C 
HETATM    7  C   UNL     1      19.787  -0.482  16.998  1.00  0.00     0.010 C 
HETATM    8  C   UNL     1      18.803   0.545  14.813  1.00  0.00     0.010 C 
HETATM    9  C   UNL     1      17.805   2.332  15.861  1.00  0.00     0.012 C 
HETATM   10  N   UNL     1      16.965   4.222  14.730  1.00  0.00    -0.347 N 
ATOM     11  HN  UNL     1      16.605   5.177  14.729  1.00  0.00     0.167 HD
HETATM   12  C   UNL     1      20.134   3.044  10.903  1.00  0.00     0.029 C 
HETATM   13  O   UNL     1      16.326   5.312  12.223  1.00  0.00    -0.263 OA
HETATM   14  C   UNL     1      17.091   4.373  12.304  1.00  0.00     0.295 C 
HETATM   15  C   UNL     1      17.161   3.548  13.557  1.00  0.00     0.175 C 
HETATM   16  C   UNL     1      21.307  -0.924  11.799  1.00  0.00     0.011 C 
HETATM   17  C   UNL     1      20.186   0.688  10.387  1.00  0.00     0.023 C 
HETATM   18  N   UNL     1      17.970   4.079  11.235  1.00  0.00    -0.294 N 
HETATM   19  N   UNL     1      17.421   2.223  13.482  1.00  0.00    -0.337 N 
ATOM     20  HN  UNL     1      17.210   1.665  12.655  1.00  0.00     0.167 HD
HETATM   21  C   UNL     1      19.633   1.942  10.164  1.00  0.00    -0.031 C 
HETATM   22  C   UNL     1      19.512  -0.210  13.799  1.00  0.00    -0.022 C 
HETATM   23  C   UNL     1      17.750   3.122   9.005  1.00  0.00     0.082 C 
HETATM   24  C   UNL     1      19.008   0.398  16.225  1.00  0.00    -0.018 C 
HETATM   25  C   UNL     1      18.112   1.312  16.866  1.00  0.00     0.150 C 
HETATM   26  C   UNL     1      20.196  -0.114  11.522  1.00  0.00    -0.035 C 
HETATM   27  C   UNL     1      19.143  -0.085  12.455  1.00  0.00     0.024 C 
HETATM   28  C   UNL     1      17.987   1.697  14.599  1.00  0.00     0.055 C 
HETATM   29  C   UNL     1      17.256   3.599  15.884  1.00  0.00     0.101 C 
HETATM   30  C   UNL     1      21.469  -1.431  13.086  1.00  0.00     0.002 C 
HETATM   31  C   UNL     1      20.610  -1.021  14.099  1.00  0.00     0.012 C 
HETATM   32  C   UNL     1      19.072   0.699  19.035  1.00  0.00     0.302 C 
ENDROOT
BRANCH  32  33
HETATM   33  N   UNL     1      19.964   1.426  19.946  1.00  0.00    -0.055 N 
ATOM     34  HN3 UNL     1      19.929   2.440  19.832  1.00  0.00     0.277 HD
ATOM     35  HN2 UNL     1      19.662   1.405  20.920  1.00  0.00     0.277 HD
ATOM     36  HN1 UNL     1      20.890   1.028  19.793  1.00  0.00     0.277 HD
ENDBRANCH  32  33
BRANCH  23  37
HETATM   37  O   UNL     1      17.004   3.139   7.847  1.00  0.00    -0.359 OA
ATOM     38  HO  UNL     1      17.431   2.852   7.047  1.00  0.00     0.217 HD
ENDBRANCH  23  37
TORSDOF 2
ENDMDL
MODEL 6
REMARK VINA RESULT:     -10.0      2.526      4.104
REMARK  2 active torsions:
REMARK  status: ('A' for Active; 'I' for Inactive)
REMARK    1  A    between atoms: C_23  and  O_33 
REMARK    2  A    between atoms: N_27  and  C_38 
ROOT
HETATM    1  N   UNL     1      15.438   3.549  19.398  1.00  0.00    -0.380 N 
ATOM      2  HN  UNL     1      15.186   2.739  19.963  1.00  0.00     0.156 HD
HETATM    3  C   UNL     1      21.196  -1.262  15.141  1.00  0.00     0.136 C 
HETATM    4  C   UNL     1      14.489   5.304  17.961  1.00  0.00     0.027 C 
HETATM    5  C   UNL     1      18.852  -0.819  14.985  1.00  0.00     0.101 C 
HETATM    6  C   UNL     1      21.116   0.324  13.260  1.00  0.00     0.049 C 
HETATM    7  C   UNL     1      15.513   5.110  17.090  1.00  0.00     0.010 C 
HETATM    8  C   UNL     1      17.536   3.554  16.554  1.00  0.00     0.010 C 
HETATM    9  C   UNL     1      17.367   2.326  18.491  1.00  0.00     0.012 C 
HETATM   10  N   UNL     1      18.483   0.283  18.857  1.00  0.00    -0.347 N 
ATOM     11  HN  UNL     1      18.628  -0.573  19.393  1.00  0.00     0.167 HD
HETATM   12  C   UNL     1      18.756  -0.204  13.781  1.00  0.00     0.029 C 
HETATM   13  O   UNL     1      20.449  -1.474  17.894  1.00  0.00    -0.263 OA
HETATM   14  C   UNL     1      19.947  -0.653  17.153  1.00  0.00     0.295 C 
HETATM   15  C   UNL     1      19.188   0.517  17.710  1.00  0.00     0.175 C 
HETATM   16  C   UNL     1      17.816   3.678  12.380  1.00  0.00     0.011 C 
HETATM   17  C   UNL     1      19.362   1.838  12.650  1.00  0.00     0.023 C 
HETATM   18  N   UNL     1      20.024  -0.821  15.750  1.00  0.00    -0.294 N 
HETATM   19  N   UNL     1      19.215   1.709  17.070  1.00  0.00    -0.337 N 
ATOM     20  HN  UNL     1      19.984   1.992  16.463  1.00  0.00     0.167 HD
HETATM   21  C   UNL     1      19.756   0.652  13.253  1.00  0.00    -0.031 C 
HETATM   22  C   UNL     1      17.764   3.857  15.155  1.00  0.00    -0.022 C 
HETATM   23  C   UNL     1      21.765  -0.613  14.058  1.00  0.00     0.082 C 
HETATM   24  C   UNL     1      16.483   4.123  17.345  1.00  0.00    -0.018 C 
HETATM   25  C   UNL     1      16.617   3.574  18.660  1.00  0.00     0.150 C 
HETATM   26  C   UNL     1      18.721   2.956  13.171  1.00  0.00    -0.035 C 
HETATM   27  C   UNL     1      18.898   3.349  14.510  1.00  0.00     0.024 C 
HETATM   28  C   UNL     1      18.134   2.497  17.303  1.00  0.00     0.055 C 
HETATM   29  C   UNL     1      17.596   1.206  19.265  1.00  0.00     0.101 C 
HETATM   30  C   UNL     1      16.924   4.550  12.999  1.00  0.00     0.002 C 
HETATM   31  C   UNL     1      16.853   4.589  14.387  1.00  0.00     0.012 C 
HETATM   32  C   UNL     1      14.568   4.736  19.332  1.00  0.00     0.302 C 
ENDROOT
BRANCH  32  33
HETATM   33  N   UNL     1      13.213   4.243  19.604  1.00  0.00    -0.055 N 
ATOM     34  HN3 UNL     1      12.502   4.629  18.983  1.00  0.00     0.277 HD
ATOM     35  HN2 UNL     1      13.074   3.264  19.351  1.00  0.00     0.277 HD
ATOM     36  HN1 UNL     1      13.045   4.441  20.591  1.00  0.00     0.277 HD
ENDBRANCH  32  33
BRANCH  23  37
HETATM   37  O   UNL     1      23.074  -0.916  13.754  1.00  0.00    -0.359 OA
ATOM     38  HO  UNL     1      23.752  -0.430  14.209  1.00  0.00     0.217 HD
ENDBRANCH  23  37
TORSDOF 2
ENDMDL
MODEL 7
REMARK VINA RESULT:      -9.4      3.007      6.884
REMARK  2 active torsions:
REMARK  status: ('A' for Active; 'I' for Inactive)
REMARK    1  A    between atoms: C_23  and  O_33 
REMARK    2  A    between atoms: N_27  and  C_38 
ROOT
HETATM    1  N   UNL     1      23.153  -2.912  13.143  1.00  0.00    -0.380 N 
ATOM      2  HN  UNL     1      23.658  -3.124  14.004  1.00  0.00     0.156 HD
HETATM    3  C   UNL     1      17.426   1.678  17.676  1.00  0.00     0.136 C 
HETATM    4  C   UNL     1      23.444  -2.007  10.876  1.00  0.00     0.027 C 
HETATM    5  C   UNL     1      19.565   2.068  16.683  1.00  0.00     0.101 C 
HETATM    6  C   UNL     1      16.808   2.905  15.634  1.00  0.00     0.049 C 
HETATM    7  C   UNL     1      22.292  -1.307  11.035  1.00  0.00     0.010 C 
HETATM    8  C   UNL     1      20.480  -0.629  12.783  1.00  0.00     0.010 C 
HETATM    9  C   UNL     1      21.292  -1.986  14.453  1.00  0.00     0.012 C 
HETATM   10  N   UNL     1      20.638  -1.830  16.712  1.00  0.00    -0.347 N 
ATOM     11  HN  UNL     1      20.763  -2.064  17.697  1.00  0.00     0.167 HD
HETATM   12  C   UNL     1      19.277   2.995  15.738  1.00  0.00     0.029 C 
HETATM   13  O   UNL     1      18.815  -0.679  18.510  1.00  0.00    -0.263 OA
HETATM   14  C   UNL     1      18.991  -0.182  17.416  1.00  0.00     0.295 C 
HETATM   15  C   UNL     1      19.659  -0.962  16.319  1.00  0.00     0.175 C 
HETATM   16  C   UNL     1      19.222   3.153  11.508  1.00  0.00     0.011 C 
HETATM   17  C   UNL     1      18.102   3.259  13.648  1.00  0.00     0.023 C 
HETATM   18  N   UNL     1      18.619   1.162  17.178  1.00  0.00    -0.294 N 
HETATM   19  N   UNL     1      19.290  -0.772  15.032  1.00  0.00    -0.337 N 
ATOM     20  HN  UNL     1      18.365  -0.433  14.767  1.00  0.00     0.167 HD
HETATM   21  C   UNL     1      18.057   3.031  15.016  1.00  0.00    -0.031 C 
HETATM   22  C   UNL     1      19.888   0.529  12.144  1.00  0.00    -0.022 C 
HETATM   23  C   UNL     1      16.523   2.370  16.886  1.00  0.00     0.082 C 
HETATM   24  C   UNL     1      21.581  -1.376  12.247  1.00  0.00    -0.018 C 
HETATM   25  C   UNL     1      21.848  -2.434  13.173  1.00  0.00     0.150 C 
HETATM   26  C   UNL     1      18.656   2.509  12.617  1.00  0.00    -0.035 C 
HETATM   27  C   UNL     1      18.733   1.107  12.685  1.00  0.00     0.024 C 
HETATM   28  C   UNL     1      20.252  -1.070  14.121  1.00  0.00     0.055 C 
HETATM   29  C   UNL     1      21.433  -2.368  15.772  1.00  0.00     0.101 C 
HETATM   30  C   UNL     1      20.080   2.437  10.676  1.00  0.00     0.002 C 
HETATM   31  C   UNL     1      20.463   1.149  11.032  1.00  0.00     0.012 C 
HETATM   32  C   UNL     1      23.779  -3.102  11.823  1.00  0.00     0.302 C 
ENDROOT
BRANCH  32  33
HETATM   33  N   UNL     1      25.222  -2.963  12.052  1.00  0.00    -0.055 N 
ATOM     34  HN3 UNL     1      25.796  -3.306  11.281  1.00  0.00     0.277 HD
ATOM     35  HN2 UNL     1      25.551  -1.997  12.023  1.00  0.00     0.277 HD
ATOM     36  HN1 UNL     1      25.403  -3.433  12.938  1.00  0.00     0.277 HD
ENDBRANCH  32  33
BRANCH  23  37
HETATM   37  O   UNL     1      15.246   2.533  17.377  1.00  0.00    -0.359 OA
ATOM     38  HO  UNL     1      14.971   1.956  18.080  1.00  0.00     0.217 HD
ENDBRANCH  23  37
TORSDOF 2
ENDMDL
MODEL 8
REMARK VINA RESULT:      -9.4      2.426      3.943
REMARK  2 active torsions:
REMARK  status: ('A' for Active; 'I' for Inactive)
REMARK    1  A    between atoms: C_23  and  O_33 
REMARK    2  A    between atoms: N_27  and  C_38 
ROOT
HETATM    1  N   UNL     1      14.849   5.954  13.183  1.00  0.00    -0.380 N 
ATOM      2  HN  UNL     1      13.954   5.995  13.670  1.00  0.00     0.156 HD
HETATM    3  C   UNL     1      18.159   1.398  19.718  1.00  0.00     0.136 C 
HETATM    4  C   UNL     1      15.883   5.340  11.039  1.00  0.00     0.027 C 
HETATM    5  C   UNL     1      16.900   0.931  17.740  1.00  0.00     0.101 C 
HETATM    6  C   UNL     1      19.903   0.528  18.215  1.00  0.00     0.049 C 
HETATM    7  C   UNL     1      16.892   4.745  11.725  1.00  0.00     0.010 C 
HETATM    8  C   UNL     1      17.660   4.024  14.110  1.00  0.00     0.010 C 
HETATM    9  C   UNL     1      15.918   5.053  15.203  1.00  0.00     0.012 C 
HETATM   10  N   UNL     1      15.362   4.660  17.460  1.00  0.00    -0.347 N 
ATOM     11  HN  UNL     1      14.724   4.745  18.251  1.00  0.00     0.167 HD
HETATM   12  C   UNL     1      17.765   0.175  17.022  1.00  0.00     0.029 C 
HETATM   13  O   UNL     1      16.189   3.467  19.863  1.00  0.00    -0.263 OA
HETATM   14  C   UNL     1      16.667   3.108  18.806  1.00  0.00     0.295 C 
HETATM   15  C   UNL     1      16.529   3.957  17.575  1.00  0.00     0.175 C 
HETATM   16  C   UNL     1      19.963   0.597  13.429  1.00  0.00     0.011 C 
HETATM   17  C   UNL     1      19.855   0.316  15.829  1.00  0.00     0.023 C 
HETATM   18  N   UNL     1      17.314   1.853  18.709  1.00  0.00    -0.294 N 
HETATM   19  N   UNL     1      17.519   3.982  16.655  1.00  0.00    -0.337 N 
ATOM     20  HN  UNL     1      18.492   3.777  16.884  1.00  0.00     0.167 HD
HETATM   21  C   UNL     1      19.171   0.361  17.035  1.00  0.00    -0.031 C 
HETATM   22  C   UNL     1      18.666   3.029  13.797  1.00  0.00    -0.022 C 
HETATM   23  C   UNL     1      19.431   0.915  19.466  1.00  0.00     0.082 C 
HETATM   24  C   UNL     1      16.876   4.721  13.132  1.00  0.00    -0.018 C 
HETATM   25  C   UNL     1      16.018   5.612  13.853  1.00  0.00     0.150 C 
HETATM   26  C   UNL     1      19.786   1.139  14.710  1.00  0.00    -0.035 C 
HETATM   27  C   UNL     1      19.466   2.504  14.818  1.00  0.00     0.024 C 
HETATM   28  C   UNL     1      17.112   4.301  15.399  1.00  0.00     0.055 C 
HETATM   29  C   UNL     1      15.075   5.236  16.281  1.00  0.00     0.101 C 
HETATM   30  C   UNL     1      19.539   1.328  12.322  1.00  0.00     0.002 C 
HETATM   31  C   UNL     1      18.833   2.510  12.510  1.00  0.00     0.012 C 
HETATM   32  C   UNL     1      14.950   6.257  11.744  1.00  0.00     0.302 C 
ENDROOT
BRANCH  32  33
HETATM   33  N   UNL     1      13.631   5.942  11.185  1.00  0.00    -0.055 N 
ATOM     34  HN3 UNL     1      12.868   6.473  11.606  1.00  0.00     0.277 HD
ATOM     35  HN2 UNL     1      13.498   6.278  10.231  1.00  0.00     0.277 HD
ATOM     36  HN1 UNL     1      13.528   4.931  11.283  1.00  0.00     0.277 HD
ENDBRANCH  32  33
BRANCH  23  37
HETATM   37  O   UNL     1      20.296   0.817  20.534  1.00  0.00    -0.359 OA
ATOM     38  HO  UNL     1      21.226   0.784  20.342  1.00  0.00     0.217 HD
ENDBRANCH  23  37
TORSDOF 2
ENDMDL
