MODEL 1
REMARK VINA RESULT:     -12.2      0.000      0.000
REMARK  4 active torsions:
REMARK  status: ('A' for Active; 'I' for Inactive)
REMARK    1  A    between atoms: C_3  and  O_7 
REMARK    2  A    between atoms: C_11  and  C_31 
REMARK    3  A    between atoms: C_23  and  C_29 
REMARK    4  A    between atoms: C_32  and  C_33 
ROOT
HETATM    1  C   UNL     1      15.008  28.797 -15.670  1.00  0.00     0.273 C 
HETATM    2  C   UNL     1      15.808  28.619 -14.453  1.00  0.00     0.111 C 
HETATM    3  O   UNL     1      14.607  29.913 -15.960  1.00  0.00    -0.266 OA
HETATM    4  N   UNL     1      14.721  27.699 -16.442  1.00  0.00    -0.320 N 
ATOM      5  HN  UNL     1      13.904  27.711 -17.053  1.00  0.00     0.169 HD
HETATM    6  N   UNL     1      15.659  27.534 -13.683  1.00  0.00    -0.360 N 
ATOM      7  HN  UNL     1      15.368  27.697 -12.719  1.00  0.00     0.165 HD
HETATM    8  C   UNL     1      15.851  26.247 -14.044  1.00  0.00     0.103 C 
HETATM    9  C   UNL     1      15.533  26.568 -16.401  1.00  0.00     0.062 C 
HETATM   10  C   UNL     1      15.496  25.730 -15.283  1.00  0.00     0.017 C 
ENDROOT
BRANCH   2  11
HETATM   11  C   UNL     1      16.679  29.653 -14.053  1.00  0.00     0.003 C 
HETATM   12  C   UNL     1      17.671  30.216 -14.831  1.00  0.00     0.014 C 
HETATM   13  C   UNL     1      18.458  31.297 -14.548  1.00  0.00     0.001 C 
HETATM   14  C   UNL     1      18.460  32.279 -13.614  1.00  0.00     0.001 C 
HETATM   15  C   UNL     1      17.586  32.355 -12.543  1.00  0.00     0.007 C 
HETATM   16  C   UNL     1      16.703  31.325 -12.304  1.00  0.00    -0.051 C 
HETATM   17  C   UNL     1      15.714  31.070 -11.287  1.00  0.00     0.043 C 
HETATM   18  C   UNL     1      16.512  30.123 -12.795  1.00  0.00    -0.039 C 
HETATM   19  C   UNL     1      15.780  29.585 -11.650  1.00  0.00     0.044 C 
ENDBRANCH   2  11
BRANCH   9  20
HETATM   20  C   UNL     1      16.373  26.262 -17.504  1.00  0.00     0.040 C 
HETATM   21  C   UNL     1      15.815  25.892 -18.735  1.00  0.00     0.080 C 
HETATM   22  C   UNL     1      16.601  25.869 -19.879  1.00  0.00     0.054 C 
HETATM   23  C   UNL     1      17.966  26.019 -19.741  1.00  0.00     0.090 C 
HETATM   24  N   UNL     1      18.532  26.189 -18.537  1.00  0.00    -0.374 N 
HETATM   25  C   UNL     1      17.765  26.318 -17.429  1.00  0.00     0.104 C 
ATOM     26  HN  UNL     1      19.548  26.222 -18.456  1.00  0.00     0.164 HD
BRANCH  21  27
HETATM   27  O   UNL     1      14.517  25.548 -18.797  1.00  0.00    -0.360 OA
ATOM     28  HO  UNL     1      13.841  26.211 -18.724  1.00  0.00     0.217 HD
ENDBRANCH  21  27
ENDBRANCH   9  20
BRANCH  10  29
HETATM   29  C   UNL     1      15.191  24.359 -15.428  1.00  0.00    -0.022 A 
HETATM   30  C   UNL     1      13.921  23.953 -15.829  1.00  0.00     0.012 A 
HETATM   31  C   UNL     1      13.615  22.598 -15.957  1.00  0.00     0.001 A 
HETATM   32  C   UNL     1      14.570  21.646 -15.687  1.00  0.00     0.000 A 
HETATM   33  C   UNL     1      15.832  22.035 -15.271  1.00  0.00     0.001 A 
HETATM   34  C   UNL     1      16.151  23.381 -15.171  1.00  0.00     0.012 A 
ENDBRANCH  10  29
TORSDOF 4
ENDMDL
MODEL 2
REMARK VINA RESULT:     -11.7      1.028      1.511
REMARK  4 active torsions:
REMARK  status: ('A' for Active; 'I' for Inactive)
REMARK    1  A    between atoms: C_3  and  O_7 
REMARK    2  A    between atoms: C_11  and  C_31 
REMARK    3  A    between atoms: C_23  and  C_29 
REMARK    4  A    between atoms: C_32  and  C_33 
ROOT
HETATM    1  C   UNL     1      14.806  28.888 -15.363  1.00  0.00     0.273 C 
HETATM    2  C   UNL     1      15.766  28.663 -14.276  1.00  0.00     0.111 C 
HETATM    3  O   UNL     1      14.359  30.010 -15.539  1.00  0.00    -0.266 OA
HETATM    4  N   UNL     1      14.427  27.825 -16.145  1.00  0.00    -0.320 N 
ATOM      5  HN  UNL     1      13.534  27.853 -16.638  1.00  0.00     0.169 HD
HETATM    6  N   UNL     1      15.734  27.539 -13.550  1.00  0.00    -0.360 N 
ATOM      7  HN  UNL     1      15.576  27.649 -12.548  1.00  0.00     0.165 HD
HETATM    8  C   UNL     1      15.888  26.275 -14.000  1.00  0.00     0.103 C 
HETATM    9  C   UNL     1      15.249  26.707 -16.272  1.00  0.00     0.062 C 
HETATM   10  C   UNL     1      15.373  25.814 -15.203  1.00  0.00     0.017 C 
ENDROOT
BRANCH   2  11
HETATM   11  C   UNL     1      16.674  29.690 -13.946  1.00  0.00     0.003 C 
HETATM   12  C   UNL     1      17.680  30.169 -14.761  1.00  0.00     0.014 C 
HETATM   13  C   UNL     1      18.504  31.239 -14.550  1.00  0.00     0.001 C 
HETATM   14  C   UNL     1      18.544  32.277 -13.680  1.00  0.00     0.001 C 
HETATM   15  C   UNL     1      17.678  32.451 -12.614  1.00  0.00     0.007 C 
HETATM   16  C   UNL     1      16.762  31.468 -12.307  1.00  0.00    -0.051 C 
HETATM   17  C   UNL     1      15.770  31.313 -11.274  1.00  0.00     0.043 C 
HETATM   18  C   UNL     1      16.528  30.245 -12.720  1.00  0.00    -0.039 C 
HETATM   19  C   UNL     1      15.784  29.806 -11.540  1.00  0.00     0.044 C 
ENDBRANCH   2  11
BRANCH   9  20
HETATM   20  C   UNL     1      15.933  26.470 -17.493  1.00  0.00     0.040 C 
HETATM   21  C   UNL     1      17.331  26.556 -17.547  1.00  0.00     0.080 C 
HETATM   22  C   UNL     1      18.019  26.056 -18.644  1.00  0.00     0.054 C 
HETATM   23  C   UNL     1      17.294  25.663 -19.751  1.00  0.00     0.090 C 
HETATM   24  N   UNL     1      15.956  25.752 -19.777  1.00  0.00    -0.374 N 
HETATM   25  C   UNL     1      15.272  26.140 -18.676  1.00  0.00     0.104 C 
ATOM     26  HN  UNL     1      15.451  25.527 -20.634  1.00  0.00     0.164 HD
BRANCH  21  27
HETATM   27  O   UNL     1      17.998  27.137 -16.535  1.00  0.00    -0.360 OA
ATOM     28  HO  UNL     1      18.946  27.093 -16.498  1.00  0.00     0.217 HD
ENDBRANCH  21  27
ENDBRANCH   9  20
BRANCH  10  29
HETATM   29  C   UNL     1      15.064  24.447 -15.377  1.00  0.00    -0.022 A 
HETATM   30  C   UNL     1      16.044  23.471 -15.210  1.00  0.00     0.012 A 
HETATM   31  C   UNL     1      15.743  22.122 -15.397  1.00  0.00     0.001 A 
HETATM   32  C   UNL     1      14.469  21.741 -15.749  1.00  0.00     0.000 A 
HETATM   33  C   UNL     1      13.490  22.702 -15.935  1.00  0.00     0.001 A 
HETATM   34  C   UNL     1      13.775  24.042 -15.721  1.00  0.00     0.012 A 
ENDBRANCH  10  29
TORSDOF 4
ENDMDL
MODEL 3
REMARK VINA RESULT:     -11.5      0.626      1.937
REMARK  4 active torsions:
REMARK  status: ('A' for Active; 'I' for Inactive)
REMARK    1  A    between atoms: C_3  and  O_7 
REMARK    2  A    between atoms: C_11  and  C_31 
REMARK    3  A    between atoms: C_23  and  C_29 
REMARK    4  A    between atoms: C_32  and  C_33 
ROOT
HETATM    1  C   UNL     1      14.406  28.742 -15.731  1.00  0.00     0.273 C 
HETATM    2  C   UNL     1      15.113  28.722 -14.445  1.00  0.00     0.111 C 
HETATM    3  O   UNL     1      13.888  29.781 -16.108  1.00  0.00    -0.266 OA
HETATM    4  N   UNL     1      14.338  27.587 -16.470  1.00  0.00    -0.320 N 
ATOM      5  HN  UNL     1      13.584  27.463 -17.146  1.00  0.00     0.169 HD
HETATM    6  N   UNL     1      15.043  27.657 -13.637  1.00  0.00    -0.360 N 
ATOM      7  HN  UNL     1      14.650  27.814 -12.710  1.00  0.00     0.165 HD
HETATM    8  C   UNL     1      15.437  26.395 -13.918  1.00  0.00     0.103 C 
HETATM    9  C   UNL     1      15.289  26.581 -16.306  1.00  0.00     0.062 C 
HETATM   10  C   UNL     1      15.266  25.789 -15.155  1.00  0.00     0.017 C 
ENDROOT
BRANCH   2  11
HETATM   11  C   UNL     1      15.800  29.880 -14.027  1.00  0.00     0.003 C 
HETATM   12  C   UNL     1      15.605  30.546 -12.833  1.00  0.00     0.014 C 
HETATM   13  C   UNL     1      16.320  31.590 -12.318  1.00  0.00     0.001 C 
HETATM   14  C   UNL     1      17.496  32.198 -12.608  1.00  0.00     0.001 C 
HETATM   15  C   UNL     1      18.296  31.897 -13.698  1.00  0.00     0.007 C 
HETATM   16  C   UNL     1      17.854  31.000 -14.646  1.00  0.00    -0.051 C 
HETATM   17  C   UNL     1      18.398  30.504 -15.884  1.00  0.00     0.043 C 
HETATM   18  C   UNL     1      16.730  30.365 -14.882  1.00  0.00    -0.039 C 
HETATM   19  C   UNL     1      16.984  30.090 -16.295  1.00  0.00     0.044 C 
ENDBRANCH   2  11
BRANCH   9  20
HETATM   20  C   UNL     1      16.255  26.352 -17.320  1.00  0.00     0.040 C 
HETATM   21  C   UNL     1      15.856  25.918 -18.591  1.00  0.00     0.080 C 
HETATM   22  C   UNL     1      16.746  25.965 -19.656  1.00  0.00     0.054 C 
HETATM   23  C   UNL     1      18.070  26.253 -19.394  1.00  0.00     0.090 C 
HETATM   24  N   UNL     1      18.499  26.489 -18.145  1.00  0.00    -0.374 N 
HETATM   25  C   UNL     1      17.621  26.549 -17.116  1.00  0.00     0.104 C 
ATOM     26  HN  UNL     1      19.494  26.625 -17.969  1.00  0.00     0.164 HD
BRANCH  21  27
HETATM   27  O   UNL     1      14.611  25.444 -18.768  1.00  0.00    -0.360 OA
ATOM     28  HO  UNL     1      14.240  25.385 -19.640  1.00  0.00     0.217 HD
ENDBRANCH  21  27
ENDBRANCH   9  20
BRANCH  10  29
HETATM   29  C   UNL     1      15.161  24.384 -15.257  1.00  0.00    -0.022 A 
HETATM   30  C   UNL     1      16.256  23.569 -14.983  1.00  0.00     0.012 A 
HETATM   31  C   UNL     1      16.158  22.182 -15.099  1.00  0.00     0.001 A 
HETATM   32  C   UNL     1      14.972  21.605 -15.488  1.00  0.00     0.000 A 
HETATM   33  C   UNL     1      13.880  22.405 -15.781  1.00  0.00     0.001 A 
HETATM   34  C   UNL     1      13.963  23.781 -15.638  1.00  0.00     0.012 A 
ENDBRANCH  10  29
TORSDOF 4
ENDMDL
