REMARK  2 active torsions:
REMARK  status: ('A' for Active; 'I' for Inactive)
REMARK    1  A    between atoms: N_17  and  C_23 
REMARK    2  A    between atoms: C_18  and  O_19 
ROOT
HETATM    1  C   UNL     1      77.075  52.157  40.916  1.00  0.00     0.059 C 
HETATM    2  C   UNL     1      78.387  51.291  45.055  1.00  0.00    -0.054 C 
HETATM    3  C   UNL     1      76.130  52.191  44.583  1.00  0.00     0.012 C 
HETATM    4  C   UNL     1      75.072  53.012  42.630  1.00  0.00     0.264 C 
HETATM    5  C   UNL     1      76.464  50.778  46.554  1.00  0.00     0.032 C 
HETATM    6  C   UNL     1      79.290  50.349  45.683  1.00  0.00     0.046 C 
HETATM    7  C   UNL     1      77.106  51.802  45.633  1.00  0.00     0.052 C 
HETATM    8  F   UNL     1      77.102  53.207  47.658  1.00  0.00    -0.210 F 
HETATM    9  C   UNL     1      77.529  53.017  46.421  1.00  0.00     0.106 C 
HETATM   10  C   UNL     1      78.853  52.178  44.109  1.00  0.00    -0.000 C 
HETATM   11 CL   UNL     1      75.460  52.786  38.853  1.00  0.00    -0.064 Cl
HETATM   12  C   UNL     1      75.956  52.850  40.515  1.00  0.00     0.113 C 
HETATM   13  C   UNL     1      77.269  52.096  42.300  1.00  0.00     0.033 C 
HETATM   14  C   UNL     1      78.612  51.803  42.785  1.00  0.00     0.190 C 
HETATM   15  O   UNL     1      79.338  50.974  42.227  1.00  0.00    -0.287 OA
HETATM   16  N   UNL     1      75.290  53.635  41.406  1.00  0.00    -0.276 N 
HETATM   17  O   UNL     1      73.985  53.050  43.191  1.00  0.00    -0.267 OA
HETATM   18  C   UNL     1      79.009  53.584  44.497  1.00  0.00     0.073 C 
HETATM   19  C   UNL     1      78.546  53.860  45.904  1.00  0.00     0.017 C 
HETATM   20  C   UNL     1      76.245  52.423  43.203  1.00  0.00     0.044 C 
ENDROOT
BRANCH  16  21
HETATM   21  C   UNL     1      74.933  55.014  41.271  1.00  0.00     0.001 C 
HETATM   22  C   UNL     1      75.032  55.797  40.019  1.00  0.00     0.056 C 
HETATM   23  C   UNL     1      75.041  57.246  40.456  1.00  0.00     0.037 C 
HETATM   24  C   UNL     1      75.063  57.276  41.969  1.00  0.00     0.123 C 
HETATM   25  C   UNL     1      74.673  55.891  42.461  1.00  0.00     0.084 C 
BRANCH  24  26
HETATM   26  O   UNL     1      74.137  58.238  42.456  1.00  0.00    -0.395 OA
ATOM     27  HO  UNL     1      74.151  58.257  43.406  1.00  0.00     0.210 HD
ENDBRANCH  24  26
ENDBRANCH  16  21
TORSDOF 2
