MODEL 1
REMARK VINA RESULT:      -8.6      0.000      0.000
REMARK  5 active torsions:
REMARK  status: ('A' for Active; 'I' for Inactive)
REMARK    1  A    between atoms: N_7  and  C_31 
REMARK    2  A    between atoms: C_11  and  C_20 
REMARK    3  A    between atoms: C_11  and  C_22 
REMARK    4  A    between atoms: C_23  and  N_26 
REMARK    5  A    between atoms: C_31  and  O_33 
ROOT
HETATM    1  N   UNL     1      13.650  25.541 -14.082  1.00  0.00    -0.358 N 
ATOM      2  HN  UNL     1      14.440  24.947 -14.332  1.00  0.00     0.162 HD
HETATM    3  O   UNL     1      14.344  27.431 -15.396  1.00  0.00    -0.302 OA
HETATM    4  C   UNL     1      11.706  22.134 -10.173  1.00  0.00     0.007 C 
HETATM    5  C   UNL     1      13.351  26.725 -14.680  1.00  0.00     0.147 C 
HETATM    6  C   UNL     1      12.956  24.188 -11.999  1.00  0.00    -0.020 C 
HETATM    7  C   UNL     1      12.646  24.255  -9.466  1.00  0.00     0.012 C 
HETATM    8  C   UNL     1      11.924  27.591 -12.957  1.00  0.00     0.021 C 
HETATM    9  C   UNL     1      12.704  25.247 -13.057  1.00  0.00     0.151 C 
HETATM   10  C   UNL     1      11.999  23.059  -9.187  1.00  0.00     0.001 C 
HETATM   11  C   UNL     1      12.946  22.811 -12.176  1.00  0.00     0.017 C 
HETATM   12  C   UNL     1      12.467  21.828 -11.284  1.00  0.00    -0.057 C 
HETATM   13  C   UNL     1      13.556  28.439 -16.106  1.00  0.00     0.330 C 
HETATM   14  C   UNL     1      12.721  24.860 -10.722  1.00  0.00    -0.027 C 
HETATM   15  C   UNL     1      12.346  27.649 -14.267  1.00  0.00    -0.003 C 
HETATM   16  C   UNL     1      12.448  26.488 -12.254  1.00  0.00    -0.029 C 
HETATM   17  C   UNL     1      12.588  28.944 -15.026  1.00  0.00     0.104 C 
HETATM   18  C   UNL     1      12.578  26.271 -10.894  1.00  0.00     0.021 C 
ENDROOT
BRANCH  12  19
HETATM   19  C   UNL     1      12.682  20.353 -11.580  1.00  0.00     0.050 C 
BRANCH  19  20
HETATM   20  C   UNL     1      11.409  19.739 -12.178  1.00  0.00     0.085 C 
HETATM   21  C   UNL     1      11.144  20.283 -13.576  1.00  0.00     0.039 C 
HETATM   22  C   UNL     1      11.280  19.107 -14.523  1.00  0.00     0.239 C 
HETATM   23  N   UNL     1      11.908  18.031 -13.767  1.00  0.00    -0.016 N 
HETATM   24  C   UNL     1      11.569  18.207 -12.362  1.00  0.00     0.392 C 
ATOM     25  HN2 UNL     1      12.914  17.974 -13.926  1.00  0.00     0.283 HD
ATOM     26  HN1 UNL     1      11.661  17.106 -14.119  1.00  0.00     0.283 HD
BRANCH  24  27
HETATM   27  N   UNL     1      12.568  17.593 -11.499  1.00  0.00    -0.020 N 
ATOM     28  HN3 UNL     1      12.293  17.633 -10.518  1.00  0.00     0.280 HD
ATOM     29  HN2 UNL     1      12.591  16.580 -11.613  1.00  0.00     0.280 HD
ATOM     30  HN1 UNL     1      13.488  18.007 -11.648  1.00  0.00     0.280 HD
ENDBRANCH  24  27
BRANCH  24  31
HETATM   31  O   UNL     1      10.369  17.606 -12.070  1.00  0.00    -0.343 OA
ATOM     32  HO  UNL     1      10.503  16.724 -11.740  1.00  0.00     0.214 HD
ENDBRANCH  24  31
ENDBRANCH  19  20
ENDBRANCH  12  19
BRANCH  13  33
HETATM   33  N   UNL     1      14.482  29.534 -16.440  1.00  0.00    -0.052 N 
ATOM     34  HN3 UNL     1      15.149  29.290 -17.171  1.00  0.00     0.277 HD
ATOM     35  HN2 UNL     1      14.032  30.307 -16.930  1.00  0.00     0.277 HD
ATOM     36  HN1 UNL     1      14.926  29.815 -15.566  1.00  0.00     0.277 HD
ENDBRANCH  13  33
TORSDOF 5
ENDMDL
MODEL 2
REMARK VINA RESULT:      -8.4      3.246      5.026
REMARK  5 active torsions:
REMARK  status: ('A' for Active; 'I' for Inactive)
REMARK    1  A    between atoms: N_7  and  C_31 
REMARK    2  A    between atoms: C_11  and  C_20 
REMARK    3  A    between atoms: C_11  and  C_22 
REMARK    4  A    between atoms: C_23  and  N_26 
REMARK    5  A    between atoms: C_31  and  O_33 
ROOT
HETATM    1  N   UNL     1      12.112  22.610 -10.837  1.00  0.00    -0.358 N 
ATOM      2  HN  UNL     1      11.662  22.080 -10.090  1.00  0.00     0.162 HD
HETATM    3  O   UNL     1      12.176  24.697  -9.645  1.00  0.00    -0.302 OA
HETATM    4  C   UNL     1      11.660  18.590 -14.618  1.00  0.00     0.007 C 
HETATM    5  C   UNL     1      12.615  23.866 -10.700  1.00  0.00     0.147 C 
HETATM    6  C   UNL     1      11.561  20.932 -12.716  1.00  0.00    -0.020 C 
HETATM    7  C   UNL     1      10.331  20.595 -14.928  1.00  0.00     0.012 C 
HETATM    8  C   UNL     1      12.702  24.419 -13.033  1.00  0.00     0.021 C 
HETATM    9  C   UNL     1      12.303  22.138 -12.168  1.00  0.00     0.151 C 
HETATM   10  C   UNL     1      10.781  19.355 -15.362  1.00  0.00     0.001 C 
HETATM   11  C   UNL     1      11.774  19.600 -12.387  1.00  0.00     0.017 C 
HETATM   12  C   UNL     1      11.715  18.479 -13.243  1.00  0.00    -0.057 C 
HETATM   13  C   UNL     1      13.152  25.786  -9.682  1.00  0.00     0.330 C 
HETATM   14  C   UNL     1      10.957  21.390 -13.966  1.00  0.00    -0.027 C 
HETATM   15  C   UNL     1      13.120  24.691 -11.749  1.00  0.00    -0.003 C 
HETATM   16  C   UNL     1      11.950  23.231 -13.132  1.00  0.00    -0.029 C 
HETATM   17  C   UNL     1      13.270  26.094 -11.182  1.00  0.00     0.104 C 
HETATM   18  C   UNL     1      11.069  22.808 -14.110  1.00  0.00     0.021 C 
ENDROOT
BRANCH  12  19
HETATM   19  C   UNL     1      11.822  17.073 -12.674  1.00  0.00     0.050 C 
BRANCH  19  20
HETATM   20  C   UNL     1      11.860  16.042 -13.810  1.00  0.00     0.085 C 
HETATM   21  C   UNL     1      13.004  15.055 -13.614  1.00  0.00     0.039 C 
HETATM   22  C   UNL     1      12.363  13.700 -13.388  1.00  0.00     0.239 C 
HETATM   23  N   UNL     1      10.949  13.943 -13.136  1.00  0.00    -0.016 N 
HETATM   24  C   UNL     1      10.574  15.176 -13.813  1.00  0.00     0.392 C 
ATOM     25  HN2 UNL     1      10.723  13.955 -12.141  1.00  0.00     0.283 HD
ATOM     26  HN1 UNL     1      10.360  13.153 -13.401  1.00  0.00     0.283 HD
BRANCH  24  27
HETATM   27  N   UNL     1       9.422  15.798 -13.173  1.00  0.00    -0.020 N 
ATOM     28  HN3 UNL     1       9.706  16.493 -12.483  1.00  0.00     0.280 HD
ATOM     29  HN2 UNL     1       8.922  16.411 -13.816  1.00  0.00     0.280 HD
ATOM     30  HN1 UNL     1       8.803  15.096 -12.767  1.00  0.00     0.280 HD
ENDBRANCH  24  27
BRANCH  24  31
HETATM   31  O   UNL     1      10.217  14.929 -15.116  1.00  0.00    -0.343 OA
ATOM     32  HO  UNL     1      10.838  15.324 -15.718  1.00  0.00     0.214 HD
ENDBRANCH  24  31
ENDBRANCH  19  20
ENDBRANCH  12  19
BRANCH  13  33
HETATM   33  N   UNL     1      12.517  26.941  -9.026  1.00  0.00    -0.052 N 
ATOM     34  HN3 UNL     1      11.642  26.708  -8.557  1.00  0.00     0.277 HD
ATOM     35  HN2 UNL     1      13.022  27.265  -8.201  1.00  0.00     0.277 HD
ATOM     36  HN1 UNL     1      12.411  27.659  -9.743  1.00  0.00     0.277 HD
ENDBRANCH  13  33
TORSDOF 5
ENDMDL
MODEL 3
REMARK VINA RESULT:      -8.1      3.080      8.545
REMARK  5 active torsions:
REMARK  status: ('A' for Active; 'I' for Inactive)
REMARK    1  A    between atoms: N_7  and  C_31 
REMARK    2  A    between atoms: C_11  and  C_20 
REMARK    3  A    between atoms: C_11  and  C_22 
REMARK    4  A    between atoms: C_23  and  N_26 
REMARK    5  A    between atoms: C_31  and  O_33 
ROOT
HETATM    1  N   UNL     1      12.120  18.355 -12.416  1.00  0.00    -0.358 N 
ATOM      2  HN  UNL     1      12.943  18.615 -11.873  1.00  0.00     0.162 HD
HETATM    3  O   UNL     1      12.809  16.090 -12.830  1.00  0.00    -0.302 OA
HETATM    4  C   UNL     1      10.109  23.506 -12.730  1.00  0.00     0.007 C 
HETATM    5  C   UNL     1      11.808  17.086 -12.791  1.00  0.00     0.147 C 
HETATM    6  C   UNL     1      11.372  20.771 -12.925  1.00  0.00    -0.020 C 
HETATM    7  C   UNL     1      10.933  22.482 -14.769  1.00  0.00     0.012 C 
HETATM    8  C   UNL     1      10.265  17.651 -14.540  1.00  0.00     0.021 C 
HETATM    9  C   UNL     1      11.135  19.271 -12.888  1.00  0.00     0.151 C 
HETATM   10  C   UNL     1      10.317  23.529 -14.097  1.00  0.00     0.001 C 
HETATM   11  C   UNL     1      11.422  21.636 -11.841  1.00  0.00     0.017 C 
HETATM   12  C   UNL     1      10.935  22.959 -11.768  1.00  0.00    -0.057 C 
HETATM   13  C   UNL     1      12.022  14.865 -12.974  1.00  0.00     0.330 C 
HETATM   14  C   UNL     1      11.049  21.174 -14.293  1.00  0.00    -0.027 C 
HETATM   15  C   UNL     1      10.750  16.701 -13.668  1.00  0.00    -0.003 C 
HETATM   16  C   UNL     1      10.793  18.937 -14.309  1.00  0.00    -0.029 C 
HETATM   17  C   UNL     1      10.983  15.245 -14.038  1.00  0.00     0.104 C 
HETATM   18  C   UNL     1      10.863  20.039 -15.142  1.00  0.00     0.021 C 
ENDROOT
BRANCH  12  19
HETATM   19  C   UNL     1      11.219  23.814 -10.544  1.00  0.00     0.050 C 
BRANCH  19  20
HETATM   20  C   UNL     1      12.451  24.697 -10.787  1.00  0.00     0.085 C 
HETATM   21  C   UNL     1      12.067  25.989 -11.498  1.00  0.00     0.039 C 
HETATM   22  C   UNL     1      12.359  27.113 -10.524  1.00  0.00     0.239 C 
HETATM   23  N   UNL     1      12.580  26.493  -9.224  1.00  0.00    -0.016 N 
HETATM   24  C   UNL     1      13.083  25.145  -9.444  1.00  0.00     0.392 C 
ATOM     25  HN2 UNL     1      11.748  26.512  -8.632  1.00  0.00     0.283 HD
ATOM     26  HN1 UNL     1      13.189  27.047  -8.621  1.00  0.00     0.283 HD
BRANCH  24  27
HETATM   27  N   UNL     1      12.780  24.279  -8.312  1.00  0.00    -0.020 N 
ATOM     28  HN3 UNL     1      12.090  23.569  -8.557  1.00  0.00     0.280 HD
ATOM     29  HN2 UNL     1      13.563  23.665  -8.090  1.00  0.00     0.280 HD
ATOM     30  HN1 UNL     1      12.488  24.822  -7.500  1.00  0.00     0.280 HD
ENDBRANCH  24  27
BRANCH  24  31
HETATM   31  O   UNL     1      14.449  25.150  -9.585  1.00  0.00    -0.343 OA
ATOM     32  HO  UNL     1      14.764  24.296  -9.859  1.00  0.00     0.214 HD
ENDBRANCH  24  31
ENDBRANCH  19  20
ENDBRANCH  12  19
BRANCH  13  33
HETATM   33  N   UNL     1      12.922  13.854 -13.552  1.00  0.00    -0.052 N 
ATOM     34  HN3 UNL     1      13.814  14.238 -13.864  1.00  0.00     0.277 HD
ATOM     35  HN2 UNL     1      13.297  13.204 -12.861  1.00  0.00     0.277 HD
ATOM     36  HN1 UNL     1      12.399  13.393 -14.297  1.00  0.00     0.277 HD
ENDBRANCH  13  33
TORSDOF 5
ENDMDL
MODEL 4
REMARK VINA RESULT:      -8.1      1.081      1.131
REMARK  5 active torsions:
REMARK  status: ('A' for Active; 'I' for Inactive)
REMARK    1  A    between atoms: N_7  and  C_31 
REMARK    2  A    between atoms: C_11  and  C_20 
REMARK    3  A    between atoms: C_11  and  C_22 
REMARK    4  A    between atoms: C_23  and  N_26 
REMARK    5  A    between atoms: C_31  and  O_33 
ROOT
HETATM    1  N   UNL     1      13.298  25.459 -14.035  1.00  0.00    -0.358 N 
ATOM      2  HN  UNL     1      14.015  24.814 -14.367  1.00  0.00     0.162 HD
HETATM    3  O   UNL     1      14.016  27.326 -15.369  1.00  0.00    -0.302 OA
HETATM    4  C   UNL     1      11.452  22.103 -10.035  1.00  0.00     0.007 C 
HETATM    5  C   UNL     1      13.039  26.678 -14.581  1.00  0.00     0.147 C 
HETATM    6  C   UNL     1      12.689  24.106 -11.926  1.00  0.00    -0.020 C 
HETATM    7  C   UNL     1      12.611  24.129  -9.374  1.00  0.00     0.012 C 
HETATM    8  C   UNL     1      11.841  27.601 -12.719  1.00  0.00     0.021 C 
HETATM    9  C   UNL     1      12.427  25.210 -12.935  1.00  0.00     0.151 C 
HETATM   10  C   UNL     1      11.901  22.977  -9.062  1.00  0.00     0.001 C 
HETATM   11  C   UNL     1      12.558  22.739 -12.129  1.00  0.00     0.017 C 
HETATM   12  C   UNL     1      12.086  21.771 -11.217  1.00  0.00    -0.057 C 
HETATM   13  C   UNL     1      13.248  28.409 -15.984  1.00  0.00     0.330 C 
HETATM   14  C   UNL     1      12.620  24.760 -10.619  1.00  0.00    -0.027 C 
HETATM   15  C   UNL     1      12.148  27.663 -14.060  1.00  0.00    -0.003 C 
HETATM   16  C   UNL     1      12.338  26.444 -12.088  1.00  0.00    -0.029 C 
HETATM   17  C   UNL     1      12.421  28.956 -14.812  1.00  0.00     0.104 C 
HETATM   18  C   UNL     1      12.571  26.182 -10.750  1.00  0.00     0.021 C 
ENDROOT
BRANCH  12  19
HETATM   19  C   UNL     1      12.161  20.293 -11.560  1.00  0.00     0.050 C 
BRANCH  19  20
HETATM   20  C   UNL     1      11.094  19.934 -12.604  1.00  0.00     0.085 C 
HETATM   21  C   UNL     1      11.672  19.039 -13.691  1.00  0.00     0.039 C 
HETATM   22  C   UNL     1      10.956  17.708 -13.572  1.00  0.00     0.239 C 
HETATM   23  N   UNL     1      10.255  17.723 -12.295  1.00  0.00    -0.016 N 
HETATM   24  C   UNL     1       9.950  19.107 -11.962  1.00  0.00     0.392 C 
ATOM     25  HN2 UNL     1      10.772  17.245 -11.557  1.00  0.00     0.283 HD
ATOM     26  HN1 UNL     1       9.428  17.125 -12.292  1.00  0.00     0.283 HD
BRANCH  24  27
HETATM   27  N   UNL     1       9.807  19.283 -10.523  1.00  0.00    -0.020 N 
ATOM     28  HN3 UNL     1      10.595  19.795 -10.127  1.00  0.00     0.280 HD
ATOM     29  HN2 UNL     1       9.063  19.943 -10.298  1.00  0.00     0.280 HD
ATOM     30  HN1 UNL     1       9.667  18.388 -10.054  1.00  0.00     0.280 HD
ENDBRANCH  24  27
BRANCH  24  31
HETATM   31  O   UNL     1       8.761  19.495 -12.529  1.00  0.00    -0.343 OA
ATOM     32  HO  UNL     1       8.135  18.779 -12.528  1.00  0.00     0.214 HD
ENDBRANCH  24  31
ENDBRANCH  19  20
ENDBRANCH  12  19
BRANCH  13  33
HETATM   33  N   UNL     1      14.222  29.441 -16.379  1.00  0.00    -0.052 N 
ATOM     34  HN3 UNL     1      15.186  29.190 -16.162  1.00  0.00     0.277 HD
ATOM     35  HN2 UNL     1      14.335  29.523 -17.389  1.00  0.00     0.277 HD
ATOM     36  HN1 UNL     1      13.921  30.308 -15.934  1.00  0.00     0.277 HD
ENDBRANCH  13  33
TORSDOF 5
ENDMDL
MODEL 5
REMARK VINA RESULT:      -7.9      2.194      8.482
REMARK  5 active torsions:
REMARK  status: ('A' for Active; 'I' for Inactive)
REMARK    1  A    between atoms: N_7  and  C_31 
REMARK    2  A    between atoms: C_11  and  C_20 
REMARK    3  A    between atoms: C_11  and  C_22 
REMARK    4  A    between atoms: C_23  and  N_26 
REMARK    5  A    between atoms: C_31  and  O_33 
ROOT
HETATM    1  N   UNL     1       9.946  19.403 -13.918  1.00  0.00    -0.358 N 
ATOM      2  HN  UNL     1       9.100  19.972 -13.947  1.00  0.00     0.162 HD
HETATM    3  O   UNL     1       8.815  17.284 -14.009  1.00  0.00    -0.302 OA
HETATM    4  C   UNL     1      13.338  23.644 -12.835  1.00  0.00     0.007 C 
HETATM    5  C   UNL     1       9.986  18.062 -14.142  1.00  0.00     0.147 C 
HETATM    6  C   UNL     1      11.483  21.269 -13.021  1.00  0.00    -0.020 C 
HETATM    7  C   UNL     1      12.991  21.994 -11.092  1.00  0.00     0.012 C 
HETATM    8  C   UNL     1      12.120  17.644 -13.130  1.00  0.00     0.021 C 
HETATM    9  C   UNL     1      11.251  19.901 -13.638  1.00  0.00     0.151 C 
HETATM   10  C   UNL     1      13.618  23.131 -11.582  1.00  0.00     0.001 C 
HETATM   11  C   UNL     1      11.323  22.502 -13.639  1.00  0.00     0.017 C 
HETATM   12  C   UNL     1      12.116  23.659 -13.478  1.00  0.00    -0.057 C 
HETATM   13  C   UNL     1       9.216  16.014 -14.616  1.00  0.00     0.330 C 
HETATM   14  C   UNL     1      12.351  21.027 -11.869  1.00  0.00    -0.027 C 
HETATM   15  C   UNL     1      11.119  17.212 -13.971  1.00  0.00    -0.003 C 
HETATM   16  C   UNL     1      11.940  18.969 -12.687  1.00  0.00    -0.029 C 
HETATM   17  C   UNL     1      10.615  15.778 -14.030  1.00  0.00     0.104 C 
HETATM   18  C   UNL     1      12.476  19.630 -11.596  1.00  0.00     0.021 C 
ENDROOT
BRANCH  12  19
HETATM   19  C   UNL     1      11.696  24.972 -14.118  1.00  0.00     0.050 C 
BRANCH  19  20
HETATM   20  C   UNL     1      12.636  26.103 -13.677  1.00  0.00     0.085 C 
HETATM   21  C   UNL     1      13.022  26.984 -14.858  1.00  0.00     0.039 C 
HETATM   22  C   UNL     1      12.433  28.352 -14.578  1.00  0.00     0.239 C 
HETATM   23  N   UNL     1      11.490  28.185 -13.480  1.00  0.00    -0.016 N 
HETATM   24  C   UNL     1      11.926  27.052 -12.677  1.00  0.00     0.392 C 
ATOM     25  HN2 UNL     1      10.525  28.093 -13.800  1.00  0.00     0.283 HD
ATOM     26  HN1 UNL     1      11.371  29.036 -12.929  1.00  0.00     0.283 HD
BRANCH  24  27
HETATM   27  N   UNL     1      10.808  26.453 -11.961  1.00  0.00    -0.020 N 
ATOM     28  HN3 UNL     1      10.673  26.885 -11.047  1.00  0.00     0.280 HD
ATOM     29  HN2 UNL     1       9.914  26.702 -12.384  1.00  0.00     0.280 HD
ATOM     30  HN1 UNL     1      10.917  25.442 -11.885  1.00  0.00     0.280 HD
ENDBRANCH  24  27
BRANCH  24  31
HETATM   31  O   UNL     1      12.838  27.447 -11.729  1.00  0.00    -0.343 OA
ATOM     32  HO  UNL     1      12.457  28.085 -11.137  1.00  0.00     0.214 HD
ENDBRANCH  24  31
ENDBRANCH  19  20
ENDBRANCH  12  19
BRANCH  13  33
HETATM   33  N   UNL     1       8.313  14.986 -14.073  1.00  0.00    -0.052 N 
ATOM     34  HN3 UNL     1       7.326  15.199 -14.216  1.00  0.00     0.277 HD
ATOM     35  HN2 UNL     1       8.333  14.113 -14.599  1.00  0.00     0.277 HD
ATOM     36  HN1 UNL     1       8.562  14.872 -13.090  1.00  0.00     0.277 HD
ENDBRANCH  13  33
TORSDOF 5
ENDMDL
MODEL 6
REMARK VINA RESULT:      -7.6      3.780      5.852
REMARK  5 active torsions:
REMARK  status: ('A' for Active; 'I' for Inactive)
REMARK    1  A    between atoms: N_7  and  C_31 
REMARK    2  A    between atoms: C_11  and  C_20 
REMARK    3  A    between atoms: C_11  and  C_22 
REMARK    4  A    between atoms: C_23  and  N_26 
REMARK    5  A    between atoms: C_31  and  O_33 
ROOT
HETATM    1  N   UNL     1      11.222  21.600 -11.528  1.00  0.00    -0.358 N 
ATOM      2  HN  UNL     1      10.445  21.111 -11.083  1.00  0.00     0.162 HD
HETATM    3  O   UNL     1      11.783  22.950  -9.620  1.00  0.00    -0.302 OA
HETATM    4  C   UNL     1      10.192  19.617 -16.595  1.00  0.00     0.007 C 
HETATM    5  C   UNL     1      12.112  22.395 -10.877  1.00  0.00     0.147 C 
HETATM    6  C   UNL     1      10.537  21.025 -13.947  1.00  0.00    -0.020 C 
HETATM    7  C   UNL     1       9.824  21.982 -16.205  1.00  0.00     0.012 C 
HETATM    8  C   UNL     1      12.943  23.566 -12.799  1.00  0.00     0.021 C 
HETATM    9  C   UNL     1      11.527  21.544 -12.919  1.00  0.00     0.151 C 
HETATM   10  C   UNL     1       9.864  20.881 -17.049  1.00  0.00     0.001 C 
HETATM   11  C   UNL     1      10.152  19.706 -14.146  1.00  0.00     0.017 C 
HETATM   12  C   UNL     1       9.878  19.061 -15.371  1.00  0.00    -0.057 C 
HETATM   13  C   UNL     1      13.076  23.453  -9.156  1.00  0.00     0.330 C 
HETATM   14  C   UNL     1      10.460  22.073 -14.965  1.00  0.00    -0.027 C 
HETATM   15  C   UNL     1      13.119  23.204 -11.482  1.00  0.00    -0.003 C 
HETATM   16  C   UNL     1      11.846  22.925 -13.408  1.00  0.00    -0.029 C 
HETATM   17  C   UNL     1      13.647  24.140 -10.405  1.00  0.00     0.104 C 
HETATM   18  C   UNL     1      11.125  23.264 -14.539  1.00  0.00     0.021 C 
ENDROOT
BRANCH  12  19
HETATM   19  C   UNL     1       9.314  17.650 -15.385  1.00  0.00     0.050 C 
BRANCH  19  20
HETATM   20  C   UNL     1       8.231  17.499 -14.308  1.00  0.00     0.085 C 
HETATM   21  C   UNL     1       6.916  17.029 -14.916  1.00  0.00     0.039 C 
HETATM   22  C   UNL     1       6.650  15.652 -14.341  1.00  0.00     0.239 C 
HETATM   23  N   UNL     1       7.887  15.217 -13.706  1.00  0.00    -0.016 N 
HETATM   24  C   UNL     1       8.620  16.402 -13.284  1.00  0.00     0.392 C 
ATOM     25  HN2 UNL     1       8.441  14.603 -14.304  1.00  0.00     0.283 HD
ATOM     26  HN1 UNL     1       7.729  14.559 -12.943  1.00  0.00     0.283 HD
BRANCH  24  27
HETATM   27  N   UNL     1      10.049  16.132 -13.196  1.00  0.00    -0.020 N 
ATOM     28  HN3 UNL     1      10.566  16.605 -13.937  1.00  0.00     0.280 HD
ATOM     29  HN2 UNL     1      10.470  16.598 -12.392  1.00  0.00     0.280 HD
ATOM     30  HN1 UNL     1      10.236  15.130 -13.187  1.00  0.00     0.280 HD
ENDBRANCH  24  27
BRANCH  24  31
HETATM   31  O   UNL     1       8.216  16.807 -12.036  1.00  0.00    -0.343 OA
ATOM     32  HO  UNL     1       8.849  16.551 -11.374  1.00  0.00     0.214 HD
ENDBRANCH  24  31
ENDBRANCH  19  20
ENDBRANCH  12  19
BRANCH  13  33
HETATM   33  N   UNL     1      12.786  24.493  -8.155  1.00  0.00    -0.052 N 
ATOM     34  HN3 UNL     1      12.381  25.339  -8.557  1.00  0.00     0.277 HD
ATOM     35  HN2 UNL     1      12.005  24.256  -7.542  1.00  0.00     0.277 HD
ATOM     36  HN1 UNL     1      13.657  24.662  -7.652  1.00  0.00     0.277 HD
ENDBRANCH  13  33
TORSDOF 5
ENDMDL
MODEL 7
REMARK VINA RESULT:      -7.6      4.127      6.910
REMARK  5 active torsions:
REMARK  status: ('A' for Active; 'I' for Inactive)
REMARK    1  A    between atoms: N_7  and  C_31 
REMARK    2  A    between atoms: C_11  and  C_20 
REMARK    3  A    between atoms: C_11  and  C_22 
REMARK    4  A    between atoms: C_23  and  N_26 
REMARK    5  A    between atoms: C_31  and  O_33 
ROOT
HETATM    1  N   UNL     1      15.732  28.972 -17.102  1.00  0.00    -0.358 N 
ATOM      2  HN  UNL     1      16.246  28.812 -16.236  1.00  0.00     0.162 HD
HETATM    3  O   UNL     1      17.532  30.078 -18.250  1.00  0.00    -0.302 OA
HETATM    4  C   UNL     1      10.843  27.358 -15.063  1.00  0.00     0.007 C 
HETATM    5  C   UNL     1      16.289  29.406 -18.264  1.00  0.00     0.147 C 
HETATM    6  C   UNL     1      13.389  28.619 -16.083  1.00  0.00    -0.020 C 
HETATM    7  C   UNL     1      11.130  29.706 -15.602  1.00  0.00     0.012 C 
HETATM    8  C   UNL     1      14.264  30.142 -19.320  1.00  0.00     0.021 C 
HETATM    9  C   UNL     1      14.331  28.770 -17.265  1.00  0.00     0.151 C 
HETATM   10  C   UNL     1      10.343  28.642 -15.181  1.00  0.00     0.001 C 
HETATM   11  C   UNL     1      13.282  27.525 -15.235  1.00  0.00     0.017 C 
HETATM   12  C   UNL     1      12.111  26.989 -14.658  1.00  0.00    -0.057 C 
HETATM   13  C   UNL     1      17.894  30.090 -19.667  1.00  0.00     0.330 C 
HETATM   14  C   UNL     1      12.324  29.594 -16.315  1.00  0.00    -0.027 C 
HETATM   15  C   UNL     1      15.586  29.777 -19.449  1.00  0.00    -0.003 C 
HETATM   16  C   UNL     1      13.752  29.926 -18.025  1.00  0.00    -0.029 C 
HETATM   17  C   UNL     1      16.580  30.486 -20.356  1.00  0.00     0.104 C 
HETATM   18  C   UNL     1      12.649  30.472 -17.395  1.00  0.00     0.021 C 
ENDROOT
BRANCH  12  19
HETATM   19  C   UNL     1      12.202  25.880 -13.624  1.00  0.00     0.050 C 
BRANCH  19  20
HETATM   20  C   UNL     1      12.859  26.404 -12.339  1.00  0.00     0.085 C 
HETATM   21  C   UNL     1      12.109  27.612 -11.794  1.00  0.00     0.039 C 
HETATM   22  C   UNL     1      11.534  27.188 -10.458  1.00  0.00     0.239 C 
HETATM   23  N   UNL     1      11.657  25.738 -10.390  1.00  0.00    -0.016 N 
HETATM   24  C   UNL     1      12.791  25.341 -11.212  1.00  0.00     0.392 C 
ATOM     25  HN2 UNL     1      10.795  25.257 -10.649  1.00  0.00     0.283 HD
ATOM     26  HN1 UNL     1      11.724  25.392  -9.433  1.00  0.00     0.283 HD
BRANCH  24  27
HETATM   27  N   UNL     1      12.649  23.968 -11.679  1.00  0.00    -0.020 N 
ATOM     28  HN3 UNL     1      12.213  23.929 -12.600  1.00  0.00     0.280 HD
ATOM     29  HN2 UNL     1      13.551  23.557 -11.915  1.00  0.00     0.280 HD
ATOM     30  HN1 UNL     1      12.144  23.399 -11.000  1.00  0.00     0.280 HD
ENDBRANCH  24  27
BRANCH  24  31
HETATM   31  O   UNL     1      13.959  25.395 -10.491  1.00  0.00    -0.343 OA
ATOM     32  HO  UNL     1      14.652  24.916 -10.932  1.00  0.00     0.214 HD
ENDBRANCH  24  31
ENDBRANCH  19  20
ENDBRANCH  12  19
BRANCH  13  33
HETATM   33  N   UNL     1      18.854  31.191 -19.845  1.00  0.00    -0.052 N 
ATOM     34  HN3 UNL     1      19.730  30.898 -20.278  1.00  0.00     0.277 HD
ATOM     35  HN2 UNL     1      18.574  31.859 -20.563  1.00  0.00     0.277 HD
ATOM     36  HN1 UNL     1      18.981  31.616 -18.926  1.00  0.00     0.277 HD
ENDBRANCH  13  33
TORSDOF 5
ENDMDL
MODEL 8
REMARK VINA RESULT:      -7.5      2.705      8.530
REMARK  5 active torsions:
REMARK  status: ('A' for Active; 'I' for Inactive)
REMARK    1  A    between atoms: N_7  and  C_31 
REMARK    2  A    between atoms: C_11  and  C_20 
REMARK    3  A    between atoms: C_11  and  C_22 
REMARK    4  A    between atoms: C_23  and  N_26 
REMARK    5  A    between atoms: C_31  and  O_33 
ROOT
HETATM    1  N   UNL     1       9.582  19.397 -12.912  1.00  0.00    -0.358 N 
ATOM      2  HN  UNL     1       8.760  19.869 -12.536  1.00  0.00     0.162 HD
HETATM    3  O   UNL     1       8.630  17.190 -12.881  1.00  0.00    -0.302 OA
HETATM    4  C   UNL     1      12.876  23.837 -12.573  1.00  0.00     0.007 C 
HETATM    5  C   UNL     1       9.610  18.103 -13.329  1.00  0.00     0.147 C 
HETATM    6  C   UNL     1      11.236  21.308 -12.395  1.00  0.00    -0.020 C 
HETATM    7  C   UNL     1      13.328  21.971 -11.090  1.00  0.00     0.012 C 
HETATM    8  C   UNL     1      11.990  17.811 -13.268  1.00  0.00     0.021 C 
HETATM    9  C   UNL     1      10.863  20.002 -13.073  1.00  0.00     0.151 C 
HETATM   10  C   UNL     1      13.649  23.219 -11.607  1.00  0.00     0.001 C 
HETATM   11  C   UNL     1      10.777  22.578 -12.718  1.00  0.00     0.017 C 
HETATM   12  C   UNL     1      11.501  23.789 -12.699  1.00  0.00    -0.057 C 
HETATM   13  C   UNL     1       8.837  16.050 -13.774  1.00  0.00     0.330 C 
HETATM   14  C   UNL     1      12.494  21.033 -11.702  1.00  0.00    -0.027 C 
HETATM   15  C   UNL     1      10.768  17.369 -13.724  1.00  0.00    -0.003 C 
HETATM   16  C   UNL     1      11.919  19.049 -12.599  1.00  0.00    -0.029 C 
HETATM   17  C   UNL     1      10.366  15.905 -13.799  1.00  0.00     0.104 C 
HETATM   18  C   UNL     1      12.796  19.637 -11.705  1.00  0.00     0.021 C 
ENDROOT
BRANCH  12  19
HETATM   19  C   UNL     1      10.790  25.112 -12.933  1.00  0.00     0.050 C 
BRANCH  19  20
HETATM   20  C   UNL     1      11.560  26.256 -12.258  1.00  0.00     0.085 C 
HETATM   21  C   UNL     1      11.814  27.395 -13.235  1.00  0.00     0.039 C 
HETATM   22  C   UNL     1      11.036  28.586 -12.712  1.00  0.00     0.239 C 
HETATM   23  N   UNL     1      10.128  28.078 -11.692  1.00  0.00    -0.016 N 
HETATM   24  C   UNL     1      10.723  26.883 -11.112  1.00  0.00     0.392 C 
ATOM     25  HN2 UNL     1       9.186  27.916 -12.049  1.00  0.00     0.283 HD
ATOM     26  HN1 UNL     1       9.890  28.779 -10.991  1.00  0.00     0.283 HD
BRANCH  24  27
HETATM   27  N   UNL     1       9.703  26.004 -10.555  1.00  0.00    -0.020 N 
ATOM     28  HN3 UNL     1      10.110  25.296  -9.945  1.00  0.00     0.280 HD
ATOM     29  HN2 UNL     1       9.127  26.489  -9.867  1.00  0.00     0.280 HD
ATOM     30  HN1 UNL     1       9.135  25.585 -11.290  1.00  0.00     0.280 HD
ENDBRANCH  24  27
BRANCH  24  31
HETATM   31  O   UNL     1      11.571  27.209 -10.082  1.00  0.00    -0.343 OA
ATOM     32  HO  UNL     1      11.250  26.864  -9.257  1.00  0.00     0.214 HD
ENDBRANCH  24  31
ENDBRANCH  19  20
ENDBRANCH  12  19
BRANCH  13  33
HETATM   33  N   UNL     1       8.277  14.874 -13.089  1.00  0.00    -0.052 N 
ATOM     34  HN3 UNL     1       7.991  15.064 -12.129  1.00  0.00     0.277 HD
ATOM     35  HN2 UNL     1       7.360  14.599 -13.443  1.00  0.00     0.277 HD
ATOM     36  HN1 UNL     1       8.976  14.135 -13.163  1.00  0.00     0.277 HD
ENDBRANCH  13  33
TORSDOF 5
ENDMDL
MODEL 9
REMARK VINA RESULT:      -7.4      3.147      5.157
REMARK  5 active torsions:
REMARK  status: ('A' for Active; 'I' for Inactive)
REMARK    1  A    between atoms: N_7  and  C_31 
REMARK    2  A    between atoms: C_11  and  C_20 
REMARK    3  A    between atoms: C_11  and  C_22 
REMARK    4  A    between atoms: C_23  and  N_26 
REMARK    5  A    between atoms: C_31  and  O_33 
ROOT
HETATM    1  N   UNL     1      13.904  28.840 -15.682  1.00  0.00    -0.358 N 
ATOM      2  HN  UNL     1      14.685  28.957 -15.037  1.00  0.00     0.162 HD
HETATM    3  O   UNL     1      14.978  29.896 -17.556  1.00  0.00    -0.302 OA
HETATM    4  C   UNL     1      10.356  27.065 -11.818  1.00  0.00     0.007 C 
HETATM    5  C   UNL     1      13.963  29.071 -17.020  1.00  0.00     0.147 C 
HETATM    6  C   UNL     1      12.129  28.404 -13.862  1.00  0.00    -0.020 C 
HETATM    7  C   UNL     1       9.959  29.243 -12.810  1.00  0.00     0.012 C 
HETATM    8  C   UNL     1      11.603  29.251 -17.408  1.00  0.00     0.021 C 
HETATM    9  C   UNL     1      12.598  28.411 -15.307  1.00  0.00     0.151 C 
HETATM   10  C   UNL     1       9.586  28.204 -11.968  1.00  0.00     0.001 C 
HETATM   11  C   UNL     1      12.526  27.530 -12.859  1.00  0.00     0.017 C 
HETATM   12  C   UNL     1      11.734  26.981 -11.828  1.00  0.00    -0.057 C 
HETATM   13  C   UNL     1      14.866  29.633 -18.991  1.00  0.00     0.330 C 
HETATM   14  C   UNL     1      10.865  29.139 -13.868  1.00  0.00    -0.027 C 
HETATM   15  C   UNL     1      12.863  29.057 -17.928  1.00  0.00    -0.003 C 
HETATM   16  C   UNL     1      11.581  29.269 -15.999  1.00  0.00    -0.029 C 
HETATM   17  C   UNL     1      13.350  29.672 -19.231  1.00  0.00     0.104 C 
HETATM   18  C   UNL     1      10.642  29.784 -15.124  1.00  0.00     0.021 C 
ENDROOT
BRANCH  12  19
HETATM   19  C   UNL     1      12.377  26.163 -10.720  1.00  0.00     0.050 C 
BRANCH  19  20
HETATM   20  C   UNL     1      11.995  24.683 -10.862  1.00  0.00     0.085 C 
HETATM   21  C   UNL     1      12.570  24.090 -12.141  1.00  0.00     0.039 C 
HETATM   22  C   UNL     1      13.570  23.037 -11.710  1.00  0.00     0.239 C 
HETATM   23  N   UNL     1      13.804  23.240 -10.287  1.00  0.00    -0.016 N 
HETATM   24  C   UNL     1      12.610  23.842  -9.713  1.00  0.00     0.392 C 
ATOM     25  HN2 UNL     1      14.648  23.782 -10.100  1.00  0.00     0.283 HD
ATOM     26  HN1 UNL     1      14.083  22.383  -9.807  1.00  0.00     0.283 HD
BRANCH  24  27
HETATM   27  N   UNL     1      12.929  24.599  -8.509  1.00  0.00    -0.020 N 
ATOM     28  HN3 UNL     1      13.916  24.520  -8.267  1.00  0.00     0.280 HD
ATOM     29  HN2 UNL     1      12.890  25.604  -8.677  1.00  0.00     0.280 HD
ATOM     30  HN1 UNL     1      12.328  24.326  -7.732  1.00  0.00     0.280 HD
ENDBRANCH  24  27
BRANCH  24  31
HETATM   31  O   UNL     1      11.704  22.878  -9.346  1.00  0.00    -0.343 OA
ATOM     32  HO  UNL     1      11.163  22.622 -10.084  1.00  0.00     0.214 HD
ENDBRANCH  24  31
ENDBRANCH  19  20
ENDBRANCH  12  19
BRANCH  13  33
HETATM   33  N   UNL     1      15.468  30.788 -19.676  1.00  0.00    -0.052 N 
ATOM     34  HN3 UNL     1      16.001  31.395 -19.053  1.00  0.00     0.277 HD
ATOM     35  HN2 UNL     1      16.237  30.534 -20.296  1.00  0.00     0.277 HD
ATOM     36  HN1 UNL     1      14.706  31.271 -20.154  1.00  0.00     0.277 HD
ENDBRANCH  13  33
TORSDOF 5
ENDMDL
