MODEL 1
REMARK VINA RESULT:      -7.9      0.000      0.000
REMARK  3 active torsions:
REMARK  status: ('A' for Active; 'I' for Inactive)
REMARK    1  A    between atoms: C_12  and  C_21 
REMARK    2  A    between atoms: C_16  and  C_26 
REMARK    3  A    between atoms: C_21  and  C_25 
ROOT
HETATM    1  C   UNL     1      12.228  23.567 -13.654  1.00  0.00     0.081 C 
HETATM    2  C   UNL     1      13.039  24.769 -10.253  1.00  0.00     0.149 C 
HETATM    3  C   UNL     1      12.358  24.590 -12.566  1.00  0.00    -0.041 C 
HETATM    4  N   UNL     1      11.944  21.406 -10.788  1.00  0.00    -0.357 N 
ATOM      5  HN  UNL     1      12.158  21.191  -9.813  1.00  0.00     0.166 HD
HETATM    6  C   UNL     1      12.378  26.684 -11.391  1.00  0.00     0.202 C 
HETATM    7  O   UNL     1      13.342  26.093 -10.533  1.00  0.00    -0.358 OA
HETATM    8  C   UNL     1      11.237  21.224 -12.946  1.00  0.00     0.006 C 
HETATM    9  C   UNL     1      12.313  25.982 -12.637  1.00  0.00     0.008 C 
HETATM   10  C   UNL     1      12.595  23.985 -11.305  1.00  0.00     0.019 C 
HETATM   11  C   UNL     1      12.323  22.547 -11.473  1.00  0.00     0.052 C 
HETATM   12  C   UNL     1      11.225  20.607 -11.659  1.00  0.00     0.025 C 
HETATM   13  C   UNL     1      11.991  22.359 -12.816  1.00  0.00    -0.013 C 
ENDROOT
BRANCH  12  14
HETATM   14  C   UNL     1      10.424  19.369 -11.363  1.00  0.00     0.096 C 
BRANCH  14  15
HETATM   15  C   UNL     1      10.766  18.116 -12.121  1.00  0.00    -0.053 C 
HETATM   16  C   UNL     1      12.075  17.631 -12.039  1.00  0.00     0.007 C 
HETATM   17  C   UNL     1      12.639  16.532 -12.653  1.00  0.00     0.001 C 
HETATM   18  C   UNL     1      12.117  15.472 -13.369  1.00  0.00     0.000 C 
HETATM   19  C   UNL     1      10.818  15.392 -13.886  1.00  0.00     0.000 C 
HETATM   20  C   UNL     1       9.881  16.411 -13.746  1.00  0.00     0.001 C 
HETATM   21  C   UNL     1       9.838  17.549 -12.984  1.00  0.00     0.007 C 
ENDBRANCH  14  15
ENDBRANCH  12  14
BRANCH   8  22
HETATM   22  C   UNL     1      10.522  20.925 -14.205  1.00  0.00    -0.023 A 
HETATM   23  C   UNL     1      11.125  20.169 -15.192  1.00  0.00     0.012 A 
HETATM   24  C   UNL     1      10.370  19.679 -16.249  1.00  0.00     0.001 A 
HETATM   25  C   UNL     1       9.022  19.989 -16.337  1.00  0.00     0.000 A 
HETATM   26  C   UNL     1       8.436  20.822 -15.395  1.00  0.00     0.001 A 
HETATM   27  C   UNL     1       9.190  21.298 -14.330  1.00  0.00     0.012 A 
ENDBRANCH   8  22
TORSDOF 3
ENDMDL
MODEL 2
REMARK VINA RESULT:      -7.7      2.293      4.145
REMARK  3 active torsions:
REMARK  status: ('A' for Active; 'I' for Inactive)
REMARK    1  A    between atoms: C_12  and  C_21 
REMARK    2  A    between atoms: C_16  and  C_26 
REMARK    3  A    between atoms: C_21  and  C_25 
ROOT
HETATM    1  C   UNL     1      13.286  24.237 -13.205  1.00  0.00     0.081 C 
HETATM    2  C   UNL     1      12.251  27.595 -12.056  1.00  0.00     0.149 C 
HETATM    3  C   UNL     1      12.848  25.661 -13.376  1.00  0.00    -0.041 C 
HETATM    4  N   UNL     1      11.558  24.694 -10.079  1.00  0.00    -0.357 N 
ATOM      5  HN  UNL     1      11.240  25.299  -9.321  1.00  0.00     0.166 HD
HETATM    6  C   UNL     1      12.281  27.771 -14.372  1.00  0.00     0.202 C 
HETATM    7  O   UNL     1      12.665  28.357 -13.137  1.00  0.00    -0.358 OA
HETATM    8  C   UNL     1      12.054  22.852 -11.324  1.00  0.00     0.006 C 
HETATM    9  C   UNL     1      12.857  26.468 -14.514  1.00  0.00     0.008 C 
HETATM   10  C   UNL     1      12.402  26.221 -12.153  1.00  0.00     0.019 C 
HETATM   11  C   UNL     1      12.243  25.099 -11.212  1.00  0.00     0.052 C 
HETATM   12  C   UNL     1      11.379  23.325 -10.158  1.00  0.00     0.025 C 
HETATM   13  C   UNL     1      12.644  23.949 -11.893  1.00  0.00    -0.013 C 
ENDROOT
BRANCH  12  14
HETATM   14  C   UNL     1      10.530  22.431  -9.297  1.00  0.00     0.096 C 
BRANCH  14  15
HETATM   15  C   UNL     1       9.321  21.796  -9.928  1.00  0.00    -0.053 C 
HETATM   16  C   UNL     1       9.284  20.402 -10.028  1.00  0.00     0.007 C 
HETATM   17  C   UNL     1       8.314  19.591 -10.581  1.00  0.00     0.001 C 
HETATM   18  C   UNL     1       7.030  19.821 -11.034  1.00  0.00     0.000 C 
HETATM   19  C   UNL     1       6.459  21.076 -11.281  1.00  0.00     0.000 C 
HETATM   20  C   UNL     1       7.150  22.271 -11.108  1.00  0.00     0.001 C 
HETATM   21  C   UNL     1       8.344  22.588 -10.514  1.00  0.00     0.007 C 
ENDBRANCH  14  15
ENDBRANCH  12  14
BRANCH   8  22
HETATM   22  C   UNL     1      12.081  21.537 -11.999  1.00  0.00    -0.023 A 
HETATM   23  C   UNL     1      12.798  20.486 -11.459  1.00  0.00     0.012 A 
HETATM   24  C   UNL     1      12.616  19.200 -11.948  1.00  0.00     0.001 A 
HETATM   25  C   UNL     1      11.752  18.978 -13.008  1.00  0.00     0.000 A 
HETATM   26  C   UNL     1      11.101  20.046 -13.609  1.00  0.00     0.001 A 
HETATM   27  C   UNL     1      11.271  21.330 -13.108  1.00  0.00     0.012 A 
ENDBRANCH   8  22
TORSDOF 3
ENDMDL
MODEL 3
REMARK VINA RESULT:      -7.4      1.725      3.222
REMARK  3 active torsions:
REMARK  status: ('A' for Active; 'I' for Inactive)
REMARK    1  A    between atoms: C_12  and  C_21 
REMARK    2  A    between atoms: C_16  and  C_26 
REMARK    3  A    between atoms: C_21  and  C_25 
ROOT
HETATM    1  C   UNL     1      13.361  22.476 -11.813  1.00  0.00     0.081 C 
HETATM    2  C   UNL     1      11.933  25.576 -10.389  1.00  0.00     0.149 C 
HETATM    3  C   UNL     1      13.054  23.944 -11.776  1.00  0.00    -0.041 C 
HETATM    4  N   UNL     1      10.410  22.402  -9.751  1.00  0.00    -0.357 N 
ATOM      5  HN  UNL     1       9.786  22.847  -9.077  1.00  0.00     0.166 HD
HETATM    6  C   UNL     1      13.007  26.281 -12.325  1.00  0.00     0.202 C 
HETATM    7  O   UNL     1      12.794  26.512 -10.940  1.00  0.00    -0.358 OA
HETATM    8  C   UNL     1      11.406  20.854 -11.093  1.00  0.00     0.006 C 
HETATM    9  C   UNL     1      13.579  24.986 -12.540  1.00  0.00     0.008 C 
HETATM   10  C   UNL     1      12.106  24.255 -10.769  1.00  0.00     0.019 C 
HETATM   11  C   UNL     1      11.534  22.972 -10.322  1.00  0.00     0.052 C 
HETATM   12  C   UNL     1      10.280  21.121 -10.257  1.00  0.00     0.025 C 
HETATM   13  C   UNL     1      12.194  21.972 -11.037  1.00  0.00    -0.013 C 
ENDROOT
BRANCH  12  14
HETATM   14  C   UNL     1       9.129  20.163 -10.120  1.00  0.00     0.096 C 
BRANCH  14  15
HETATM   15  C   UNL     1       8.532  19.603 -11.381  1.00  0.00    -0.053 C 
HETATM   16  C   UNL     1       7.910  20.488 -12.268  1.00  0.00     0.007 C 
HETATM   17  C   UNL     1       7.271  20.224 -13.461  1.00  0.00     0.001 C 
HETATM   18  C   UNL     1       7.181  19.102 -14.263  1.00  0.00     0.000 C 
HETATM   19  C   UNL     1       7.544  17.800 -13.895  1.00  0.00     0.000 C 
HETATM   20  C   UNL     1       8.038  17.478 -12.635  1.00  0.00     0.001 C 
HETATM   21  C   UNL     1       8.482  18.230 -11.579  1.00  0.00     0.007 C 
ENDBRANCH  14  15
ENDBRANCH  12  14
BRANCH   8  22
HETATM   22  C   UNL     1      11.730  19.739 -12.008  1.00  0.00    -0.023 A 
HETATM   23  C   UNL     1      12.201  18.538 -11.512  1.00  0.00     0.012 A 
HETATM   24  C   UNL     1      12.259  17.422 -12.336  1.00  0.00     0.001 A 
HETATM   25  C   UNL     1      11.888  17.526 -13.667  1.00  0.00     0.000 A 
HETATM   26  C   UNL     1      11.501  18.752 -14.188  1.00  0.00     0.001 A 
HETATM   27  C   UNL     1      11.428  19.863 -13.358  1.00  0.00     0.012 A 
ENDBRANCH   8  22
TORSDOF 3
ENDMDL
MODEL 4
REMARK VINA RESULT:      -7.4      1.513      3.766
REMARK  3 active torsions:
REMARK  status: ('A' for Active; 'I' for Inactive)
REMARK    1  A    between atoms: C_12  and  C_21 
REMARK    2  A    between atoms: C_16  and  C_26 
REMARK    3  A    between atoms: C_21  and  C_25 
ROOT
HETATM    1  C   UNL     1      11.725  22.080 -10.576  1.00  0.00     0.081 C 
HETATM    2  C   UNL     1      13.096  25.417 -11.389  1.00  0.00     0.149 C 
HETATM    3  C   UNL     1      12.693  23.220 -10.463  1.00  0.00    -0.041 C 
HETATM    4  N   UNL     1      11.291  23.538 -13.840  1.00  0.00    -0.357 N 
ATOM      5  HN  UNL     1      11.307  24.349 -14.459  1.00  0.00     0.166 HD
HETATM    6  C   UNL     1      14.505  24.612  -9.726  1.00  0.00     0.202 C 
HETATM    7  O   UNL     1      13.737  25.710 -10.195  1.00  0.00    -0.358 OA
HETATM    8  C   UNL     1      10.951  21.441 -13.019  1.00  0.00     0.006 C 
HETATM    9  C   UNL     1      13.671  23.471  -9.500  1.00  0.00     0.008 C 
HETATM   10  C   UNL     1      12.510  24.167 -11.503  1.00  0.00     0.019 C 
HETATM   11  C   UNL     1      11.630  23.530 -12.498  1.00  0.00     0.052 C 
HETATM   12  C   UNL     1      10.928  22.251 -14.194  1.00  0.00     0.025 C 
HETATM   13  C   UNL     1      11.297  22.275 -11.989  1.00  0.00    -0.013 C 
ENDROOT
BRANCH  12  14
HETATM   14  C   UNL     1      10.675  21.682 -15.563  1.00  0.00     0.096 C 
BRANCH  14  15
HETATM   15  C   UNL     1       9.628  20.611 -15.692  1.00  0.00    -0.053 C 
HETATM   16  C   UNL     1      10.019  19.360 -16.180  1.00  0.00     0.007 C 
HETATM   17  C   UNL     1       9.255  18.236 -16.414  1.00  0.00     0.001 C 
HETATM   18  C   UNL     1       7.956  17.888 -16.098  1.00  0.00     0.000 C 
HETATM   19  C   UNL     1       6.959  18.762 -15.646  1.00  0.00     0.000 C 
HETATM   20  C   UNL     1       7.168  20.126 -15.473  1.00  0.00     0.001 C 
HETATM   21  C   UNL     1       8.292  20.911 -15.464  1.00  0.00     0.007 C 
ENDBRANCH  14  15
ENDBRANCH  12  14
BRANCH   8  22
HETATM   22  C   UNL     1      10.815  19.984 -12.805  1.00  0.00    -0.023 A 
HETATM   23  C   UNL     1       9.600  19.442 -12.430  1.00  0.00     0.012 A 
HETATM   24  C   UNL     1       9.410  18.067 -12.481  1.00  0.00     0.001 A 
HETATM   25  C   UNL     1      10.453  17.239 -12.861  1.00  0.00     0.000 A 
HETATM   26  C   UNL     1      11.699  17.776 -13.151  1.00  0.00     0.001 A 
HETATM   27  C   UNL     1      11.882  19.152 -13.116  1.00  0.00     0.012 A 
ENDBRANCH   8  22
TORSDOF 3
ENDMDL
MODEL 5
REMARK VINA RESULT:      -7.2      2.977      5.970
REMARK  3 active torsions:
REMARK  status: ('A' for Active; 'I' for Inactive)
REMARK    1  A    between atoms: C_12  and  C_21 
REMARK    2  A    between atoms: C_16  and  C_26 
REMARK    3  A    between atoms: C_21  and  C_25 
ROOT
HETATM    1  C   UNL     1       9.780  21.105  -9.915  1.00  0.00     0.081 C 
HETATM    2  C   UNL     1       6.832  18.876 -10.032  1.00  0.00     0.149 C 
HETATM    3  C   UNL     1       8.344  20.733  -9.700  1.00  0.00    -0.041 C 
HETATM    4  N   UNL     1       9.445  18.577 -12.458  1.00  0.00    -0.357 N 
ATOM      5  HN  UNL     1       9.007  17.725 -12.810  1.00  0.00     0.166 HD
HETATM    6  C   UNL     1       6.044  20.810  -9.014  1.00  0.00     0.202 C 
HETATM    7  O   UNL     1       6.100  19.392  -8.974  1.00  0.00    -0.358 OA
HETATM    8  C   UNL     1      10.852  20.351 -12.208  1.00  0.00     0.006 C 
HETATM    9  C   UNL     1       7.359  21.370  -8.943  1.00  0.00     0.008 C 
HETATM   10  C   UNL     1       8.010  19.525 -10.363  1.00  0.00     0.019 C 
HETATM   11  C   UNL     1       9.125  19.231 -11.280  1.00  0.00     0.052 C 
HETATM   12  C   UNL     1      10.463  19.283 -13.072  1.00  0.00     0.025 C 
HETATM   13  C   UNL     1      10.075  20.234 -11.086  1.00  0.00    -0.013 C 
ENDROOT
BRANCH  12  14
HETATM   14  C   UNL     1      11.028  19.116 -14.456  1.00  0.00     0.096 C 
BRANCH  14  15
HETATM   15  C   UNL     1      10.409  19.921 -15.565  1.00  0.00    -0.053 C 
HETATM   16  C   UNL     1       9.056  20.258 -15.461  1.00  0.00     0.007 C 
HETATM   17  C   UNL     1       8.260  20.956 -16.346  1.00  0.00     0.001 C 
HETATM   18  C   UNL     1       8.524  21.693 -17.484  1.00  0.00     0.000 C 
HETATM   19  C   UNL     1       9.729  21.697 -18.197  1.00  0.00     0.000 C 
HETATM   20  C   UNL     1      10.827  20.923 -17.835  1.00  0.00     0.001 C 
HETATM   21  C   UNL     1      11.135  20.193 -16.717  1.00  0.00     0.007 C 
ENDBRANCH  14  15
ENDBRANCH  12  14
BRANCH   8  22
HETATM   22  C   UNL     1      11.757  21.506 -12.391  1.00  0.00    -0.023 A 
HETATM   23  C   UNL     1      11.436  22.514 -13.280  1.00  0.00     0.012 A 
HETATM   24  C   UNL     1      12.147  23.706 -13.262  1.00  0.00     0.001 A 
HETATM   25  C   UNL     1      13.207  23.865 -12.385  1.00  0.00     0.000 A 
HETATM   26  C   UNL     1      13.587  22.820 -11.555  1.00  0.00     0.001 A 
HETATM   27  C   UNL     1      12.864  21.634 -11.563  1.00  0.00     0.012 A 
ENDBRANCH   8  22
TORSDOF 3
ENDMDL
MODEL 6
REMARK VINA RESULT:      -7.1      2.808      7.543
REMARK  3 active torsions:
REMARK  status: ('A' for Active; 'I' for Inactive)
REMARK    1  A    between atoms: C_12  and  C_21 
REMARK    2  A    between atoms: C_16  and  C_26 
REMARK    3  A    between atoms: C_21  and  C_25 
ROOT
HETATM    1  C   UNL     1      11.961  19.277 -13.092  1.00  0.00     0.081 C 
HETATM    2  C   UNL     1       9.292  17.851 -15.217  1.00  0.00     0.149 C 
HETATM    3  C   UNL     1      11.014  18.212 -13.560  1.00  0.00    -0.041 C 
HETATM    4  N   UNL     1       9.410  21.363 -14.544  1.00  0.00    -0.357 N 
ATOM      5  HN  UNL     1       8.664  21.509 -15.224  1.00  0.00     0.166 HD
HETATM    6  C   UNL     1       9.888  16.106 -13.804  1.00  0.00     0.202 C 
HETATM    7  O   UNL     1       9.617  16.506 -15.139  1.00  0.00    -0.358 OA
HETATM    8  C   UNL     1      10.984  21.726 -12.938  1.00  0.00     0.006 C 
HETATM    9  C   UNL     1      10.988  16.848 -13.267  1.00  0.00     0.008 C 
HETATM   10  C   UNL     1      10.047  18.730 -14.457  1.00  0.00     0.019 C 
HETATM   11  C   UNL     1      10.137  20.198 -14.368  1.00  0.00     0.052 C 
HETATM   12  C   UNL     1       9.876  22.295 -13.634  1.00  0.00     0.025 C 
HETATM   13  C   UNL     1      11.170  20.480 -13.474  1.00  0.00    -0.013 C 
ENDROOT
BRANCH  12  14
HETATM   14  C   UNL     1       9.298  23.636 -13.274  1.00  0.00     0.096 C 
BRANCH  14  15
HETATM   15  C   UNL     1      10.257  24.742 -12.930  1.00  0.00    -0.053 C 
HETATM   16  C   UNL     1      10.141  25.350 -11.676  1.00  0.00     0.007 C 
HETATM   17  C   UNL     1      10.872  26.390 -11.140  1.00  0.00     0.001 C 
HETATM   18  C   UNL     1      12.026  27.041 -11.530  1.00  0.00     0.000 C 
HETATM   19  C   UNL     1      12.634  26.949 -12.789  1.00  0.00     0.000 C 
HETATM   20  C   UNL     1      12.117  26.180 -13.826  1.00  0.00     0.001 C 
HETATM   21  C   UNL     1      11.134  25.227 -13.890  1.00  0.00     0.007 C 
ENDBRANCH  14  15
ENDBRANCH  12  14
BRANCH   8  22
HETATM   22  C   UNL     1      11.769  22.176 -11.768  1.00  0.00    -0.023 A 
HETATM   23  C   UNL     1      13.007  22.765 -11.940  1.00  0.00     0.012 A 
HETATM   24  C   UNL     1      13.620  23.412 -10.875  1.00  0.00     0.001 A 
HETATM   25  C   UNL     1      13.011  23.425  -9.631  1.00  0.00     0.000 A 
HETATM   26  C   UNL     1      11.811  22.755  -9.436  1.00  0.00     0.001 A 
HETATM   27  C   UNL     1      11.192  22.123 -10.506  1.00  0.00     0.012 A 
ENDBRANCH   8  22
TORSDOF 3
ENDMDL
MODEL 7
REMARK VINA RESULT:      -7.0      1.935      3.299
REMARK  3 active torsions:
REMARK  status: ('A' for Active; 'I' for Inactive)
REMARK    1  A    between atoms: C_12  and  C_21 
REMARK    2  A    between atoms: C_16  and  C_26 
REMARK    3  A    between atoms: C_21  and  C_25 
ROOT
HETATM    1  C   UNL     1       9.928  24.310 -11.317  1.00  0.00     0.081 C 
HETATM    2  C   UNL     1      12.994  26.142 -12.274  1.00  0.00     0.149 C 
HETATM    3  C   UNL     1      10.895  25.456 -11.291  1.00  0.00    -0.041 C 
HETATM    4  N   UNL     1      12.925  22.565 -12.288  1.00  0.00    -0.357 N 
ATOM      5  HN  UNL     1      13.844  22.559 -12.731  1.00  0.00     0.166 HD
HETATM    6  C   UNL     1      11.899  27.586 -10.821  1.00  0.00     0.202 C 
HETATM    7  O   UNL     1      12.570  27.445 -12.063  1.00  0.00    -0.358 OA
HETATM    8  C   UNL     1      10.983  21.889 -11.308  1.00  0.00     0.006 C 
HETATM    9  C   UNL     1      10.744  26.742 -10.771  1.00  0.00     0.008 C 
HETATM   10  C   UNL     1      12.114  25.127 -11.937  1.00  0.00     0.019 C 
HETATM   11  C   UNL     1      12.102  23.667 -12.135  1.00  0.00     0.052 C 
HETATM   12  C   UNL     1      12.281  21.474 -11.733  1.00  0.00     0.025 C 
HETATM   13  C   UNL     1      10.875  23.210 -11.651  1.00  0.00    -0.013 C 
ENDROOT
BRANCH  12  14
HETATM   14  C   UNL     1      12.820  20.098 -11.457  1.00  0.00     0.096 C 
BRANCH  14  15
HETATM   15  C   UNL     1      12.255  18.953 -12.252  1.00  0.00    -0.053 C 
HETATM   16  C   UNL     1      12.612  17.652 -11.881  1.00  0.00     0.007 C 
HETATM   17  C   UNL     1      12.254  16.451 -12.458  1.00  0.00     0.001 C 
HETATM   18  C   UNL     1      11.329  16.098 -13.421  1.00  0.00     0.000 C 
HETATM   19  C   UNL     1      10.659  16.980 -14.277  1.00  0.00     0.000 C 
HETATM   20  C   UNL     1      10.868  18.356 -14.264  1.00  0.00     0.001 C 
HETATM   21  C   UNL     1      11.516  19.199 -13.400  1.00  0.00     0.007 C 
ENDBRANCH  14  15
ENDBRANCH  12  14
BRANCH   8  22
HETATM   22  C   UNL     1       9.927  21.218 -10.520  1.00  0.00    -0.023 A 
HETATM   23  C   UNL     1       9.759  21.512  -9.180  1.00  0.00     0.012 A 
HETATM   24  C   UNL     1       8.620  21.081  -8.513  1.00  0.00     0.001 A 
HETATM   25  C   UNL     1       7.676  20.317  -9.181  1.00  0.00     0.000 A 
HETATM   26  C   UNL     1       7.888  19.946 -10.501  1.00  0.00     0.001 A 
HETATM   27  C   UNL     1       9.019  20.392 -11.170  1.00  0.00     0.012 A 
ENDBRANCH   8  22
TORSDOF 3
ENDMDL
MODEL 8
REMARK VINA RESULT:      -6.9      2.662      7.940
REMARK  3 active torsions:
REMARK  status: ('A' for Active; 'I' for Inactive)
REMARK    1  A    between atoms: C_12  and  C_21 
REMARK    2  A    between atoms: C_16  and  C_26 
REMARK    3  A    between atoms: C_21  and  C_25 
ROOT
HETATM    1  C   UNL     1      12.666  20.513 -11.956  1.00  0.00     0.081 C 
HETATM    2  C   UNL     1      10.358  18.995 -14.413  1.00  0.00     0.149 C 
HETATM    3  C   UNL     1      11.801  19.427 -12.523  1.00  0.00    -0.041 C 
HETATM    4  N   UNL     1      10.377  22.531 -13.869  1.00  0.00    -0.357 N 
ATOM      5  HN  UNL     1       9.746  22.647 -14.662  1.00  0.00     0.166 HD
HETATM    6  C   UNL     1      10.722  17.309 -12.858  1.00  0.00     0.202 C 
HETATM    7  O   UNL     1      10.663  17.655 -14.233  1.00  0.00    -0.358 OA
HETATM    8  C   UNL     1      11.682  22.962 -12.052  1.00  0.00     0.006 C 
HETATM    9  C   UNL     1      11.727  18.076 -12.185  1.00  0.00     0.008 C 
HETATM   10  C   UNL     1      10.987  19.906 -13.580  1.00  0.00     0.019 C 
HETATM   11  C   UNL     1      11.065  21.377 -13.536  1.00  0.00     0.052 C 
HETATM   12  C   UNL     1      10.697  23.500 -12.935  1.00  0.00     0.025 C 
HETATM   13  C   UNL     1      11.947  21.697 -12.504  1.00  0.00    -0.013 C 
ENDROOT
BRANCH  12  14
HETATM   14  C   UNL     1      10.073  24.851 -12.723  1.00  0.00     0.096 C 
BRANCH  14  15
HETATM   15  C   UNL     1      10.846  26.058 -13.178  1.00  0.00    -0.053 C 
HETATM   16  C   UNL     1      11.791  25.892 -14.195  1.00  0.00     0.007 C 
HETATM   17  C   UNL     1      12.636  26.823 -14.763  1.00  0.00     0.001 C 
HETATM   18  C   UNL     1      12.724  28.200 -14.681  1.00  0.00     0.000 C 
HETATM   19  C   UNL     1      12.080  29.009 -13.738  1.00  0.00     0.000 C 
HETATM   20  C   UNL     1      11.263  28.499 -12.733  1.00  0.00     0.001 C 
HETATM   21  C   UNL     1      10.716  27.264 -12.503  1.00  0.00     0.007 C 
ENDBRANCH  14  15
ENDBRANCH  12  14
BRANCH   8  22
HETATM   22  C   UNL     1      12.276  23.461 -10.793  1.00  0.00    -0.023 A 
HETATM   23  C   UNL     1      11.643  23.239  -9.584  1.00  0.00     0.012 A 
HETATM   24  C   UNL     1      12.319  23.478  -8.395  1.00  0.00     0.001 A 
HETATM   25  C   UNL     1      13.609  23.983  -8.422  1.00  0.00     0.000 A 
HETATM   26  C   UNL     1      14.210  24.292  -9.634  1.00  0.00     0.001 A 
HETATM   27  C   UNL     1      13.539  24.036 -10.822  1.00  0.00     0.012 A 
ENDBRANCH   8  22
TORSDOF 3
ENDMDL
MODEL 9
REMARK VINA RESULT:      -6.9      3.189      7.014
REMARK  3 active torsions:
REMARK  status: ('A' for Active; 'I' for Inactive)
REMARK    1  A    between atoms: C_12  and  C_21 
REMARK    2  A    between atoms: C_16  and  C_26 
REMARK    3  A    between atoms: C_21  and  C_25 
ROOT
HETATM    1  C   UNL     1       8.743  18.225 -14.564  1.00  0.00     0.081 C 
HETATM    2  C   UNL     1      10.050  14.804 -14.051  1.00  0.00     0.149 C 
HETATM    3  C   UNL     1       9.093  16.825 -14.970  1.00  0.00    -0.041 C 
HETATM    4  N   UNL     1      11.346  17.555 -12.167  1.00  0.00    -0.357 N 
ATOM      5  HN  UNL     1      11.876  16.900 -11.593  1.00  0.00     0.166 HD
HETATM    6  C   UNL     1       9.305  14.805 -16.252  1.00  0.00     0.202 C 
HETATM    7  O   UNL     1       9.315  14.121 -15.008  1.00  0.00    -0.358 OA
HETATM    8  C   UNL     1      10.509  19.480 -13.053  1.00  0.00     0.006 C 
HETATM    9  C   UNL     1       8.726  16.106 -16.109  1.00  0.00     0.008 C 
HETATM   10  C   UNL     1       9.889  16.179 -13.991  1.00  0.00     0.019 C 
HETATM   11  C   UNL     1      10.341  17.228 -13.061  1.00  0.00     0.052 C 
HETATM   12  C   UNL     1      11.505  18.930 -12.192  1.00  0.00     0.025 C 
HETATM   13  C   UNL     1       9.761  18.421 -13.495  1.00  0.00    -0.013 C 
ENDROOT
BRANCH  12  14
HETATM   14  C   UNL     1      12.587  19.767 -11.568  1.00  0.00     0.096 C 
BRANCH  14  15
HETATM   15  C   UNL     1      12.236  21.171 -11.159  1.00  0.00    -0.053 C 
HETATM   16  C   UNL     1      13.038  22.216 -11.629  1.00  0.00     0.007 C 
HETATM   17  C   UNL     1      12.943  23.569 -11.379  1.00  0.00     0.001 C 
HETATM   18  C   UNL     1      11.984  24.359 -10.775  1.00  0.00     0.000 C 
HETATM   19  C   UNL     1      10.913  23.899  -9.998  1.00  0.00     0.000 C 
HETATM   20  C   UNL     1      10.697  22.552  -9.726  1.00  0.00     0.001 C 
HETATM   21  C   UNL     1      11.231  21.394 -10.229  1.00  0.00     0.007 C 
ENDBRANCH  14  15
ENDBRANCH  12  14
BRANCH   8  22
HETATM   22  C   UNL     1      10.287  20.842 -13.584  1.00  0.00    -0.023 A 
HETATM   23  C   UNL     1       9.316  21.659 -13.035  1.00  0.00     0.012 A 
HETATM   24  C   UNL     1       9.283  23.009 -13.357  1.00  0.00     0.001 A 
HETATM   25  C   UNL     1      10.194  23.525 -14.265  1.00  0.00     0.000 A 
HETATM   26  C   UNL     1      11.111  22.688 -14.884  1.00  0.00     0.001 A 
HETATM   27  C   UNL     1      11.153  21.341 -14.548  1.00  0.00     0.012 A 
ENDBRANCH   8  22
TORSDOF 3
ENDMDL
