REMARK  5 active torsions:
REMARK  status: ('A' for Active; 'I' for Inactive)
REMARK    1  A    between atoms: C_5  and  C_10 
REMARK    2  A    between atoms: C_10  and  C_14 
REMARK    3  A    between atoms: C_11  and  C_18 
REMARK    4  A    between atoms: N_19  and  C_25 
REMARK    5  A    between atoms: C_20  and  O_23 
ROOT
HETATM    1  O   UNL     1      11.121  22.565 -13.213  1.00  0.00    -0.267 OA
HETATM    2  C   UNL     1      12.819  23.898 -12.219  1.00  0.00     0.038 C 
HETATM    3  C   UNL     1      12.022  22.573  -9.877  1.00  0.00     0.095 C 
HETATM    4  C   UNL     1      11.853  22.776 -12.249  1.00  0.00     0.258 C 
HETATM    5  C   UNL     1      12.870  23.665  -9.793  1.00  0.00     0.018 C 
HETATM    6  N   UNL     1      11.855  21.964 -11.106  1.00  0.00    -0.317 N 
HETATM    7  C   UNL     1      13.257  24.335 -10.977  1.00  0.00     0.019 C 
ENDROOT
BRANCH   2   8
HETATM    8  C   UNL     1      13.297  24.556 -13.478  1.00  0.00    -0.046 C 
HETATM    9  C   UNL     1      14.226  23.778 -14.371  1.00  0.00     0.049 C 
BRANCH   8  10
HETATM   10  C   UNL     1      12.544  25.675 -14.025  1.00  0.00     0.009 C 
HETATM   11  C   UNL     1      12.691  26.491 -15.036  1.00  0.00     0.013 C 
BRANCH  11  12
HETATM   12  C   UNL     1      13.332  27.747 -15.407  1.00  0.00    -0.021 C 
HETATM   13  C   UNL     1      12.521  28.813 -15.810  1.00  0.00     0.099 C 
HETATM   14  N   UNL     1      12.937  29.665 -16.757  1.00  0.00    -0.374 N 
HETATM   15  C   UNL     1      14.105  29.424 -17.379  1.00  0.00     0.087 C 
ATOM     16  HN  UNL     1      12.378  30.482 -17.002  1.00  0.00     0.164 HD
HETATM   17  C   UNL     1      15.060  28.619 -16.768  1.00  0.00     0.018 C 
HETATM   18  C   UNL     1      14.711  27.901 -15.612  1.00  0.00     0.014 C 
ENDBRANCH  11  12
ENDBRANCH   8  10
ENDBRANCH   2   8
BRANCH   6  19
HETATM   19  C   UNL     1      11.637  20.515 -11.099  1.00  0.00     0.122 C 
HETATM   20  C   UNL     1      10.460  20.097 -11.969  1.00  0.00     0.146 C 
HETATM   21  C   UNL     1      10.741  18.645 -12.304  1.00  0.00     0.020 C 
HETATM   22  C   UNL     1      12.189  18.343 -11.999  1.00  0.00    -0.006 C 
HETATM   23  C   UNL     1      10.461  18.359 -13.759  1.00  0.00     0.007 C 
HETATM   24  C   UNL     1      12.778  17.802 -13.293  1.00  0.00     0.005 C 
HETATM   25  C   UNL     1      12.821  19.655 -11.540  1.00  0.00     0.033 C 
HETATM   26  C   UNL     1      11.650  17.592 -14.270  1.00  0.00     0.001 C 
BRANCH  20  27
HETATM   27  O   UNL     1       9.224  20.245 -11.296  1.00  0.00    -0.393 OA
ATOM     28  HO  UNL     1       9.048  21.155 -11.086  1.00  0.00     0.210 HD
ENDBRANCH  20  27
ENDBRANCH   6  19
TORSDOF 5
