REMARK  10 active torsions:
REMARK  status: ('A' for Active; 'I' for Inactive)
REMARK    1  A    between atoms: C_1  and  C_21 
REMARK    2  A    between atoms: C_1  and  C_29 
REMARK    3  A    between atoms: C_2  and  O_9 
REMARK    4  A    between atoms: C_2  and  C_34 
REMARK    5  A    between atoms: C_11  and  O_26 
REMARK    6  A    between atoms: C_13  and  C_36 
REMARK    7  A    between atoms: C_15  and  N_30 
REMARK       I    between atoms: C_17  and  N_30 
REMARK    8  A    between atoms: C_21  and  C_24 
REMARK    9  A    between atoms: O_22  and  C_34 
REMARK       I    between atoms: N_30  and  C_32 
REMARK   10  A    between atoms: C_32  and  C_34 
ROOT
HETATM    1  C   UNL     1     -26.899  92.133 -59.745  1.00  0.00     0.050 C 
HETATM    2  C   UNL     1     -27.924  92.568 -60.583  1.00  0.00     0.119 C 
HETATM    3  N   UNL     1     -27.816  93.689 -61.352  1.00  0.00    -0.352 N 
ATOM      4  HN  UNL     1     -28.607  94.324 -61.458  1.00  0.00     0.166 HD
HETATM    5  C   UNL     1     -25.589  91.856 -60.036  1.00  0.00     0.015 C 
HETATM    6  C   UNL     1     -25.468  93.274 -61.987  1.00  0.00     0.028 C 
HETATM    7  C   UNL     1     -26.656  93.941 -61.963  1.00  0.00     0.090 C 
HETATM    8  C   UNL     1     -24.907  92.296 -61.166  1.00  0.00    -0.035 C 
ENDROOT
BRANCH   8   9
HETATM    9  C   UNL     1     -23.620  91.765 -61.521  1.00  0.00     0.007 C 
HETATM   10  C   UNL     1     -22.852  90.740 -61.251  1.00  0.00    -0.025 C 
BRANCH  10  11
HETATM   11  C   UNL     1     -23.205  89.431 -60.631  1.00  0.00     0.035 C 
BRANCH  11  12
HETATM   12  C   UNL     1     -23.832  88.508 -61.672  1.00  0.00     0.088 C 
BRANCH  12  13
HETATM   13  C   UNL     1     -22.742  87.852 -62.500  1.00  0.00     0.127 C 
HETATM   14  N   UNL     1     -22.897  87.550 -63.783  1.00  0.00    -0.324 N 
HETATM   15  C   UNL     1     -21.710  87.328 -64.400  1.00  0.00     0.142 C 
ATOM     16  HN  UNL     1     -23.802  87.492 -64.250  1.00  0.00     0.169 HD
HETATM   17  C   UNL     1     -21.299  86.118 -64.986  1.00  0.00     0.110 C 
HETATM   18  N   UNL     1     -20.708  88.156 -63.916  1.00  0.00    -0.320 N 
HETATM   19  C   UNL     1     -19.959  85.743 -65.029  1.00  0.00     0.040 C 
HETATM   20  C   UNL     1     -19.205  85.736 -63.858  1.00  0.00     0.007 C 
HETATM   21  C   UNL     1     -19.604  86.412 -62.718  1.00  0.00     0.057 C 
HETATM   22  C   UNL     1     -20.488  87.502 -62.739  1.00  0.00     0.151 C 
HETATM   23  O   UNL     1     -21.579  87.490 -61.884  1.00  0.00    -0.281 OA
ATOM     24  HN  UNL     1     -20.274  88.989 -64.314  1.00  0.00     0.169 HD
BRANCH  17  25
HETATM   25  O   UNL     1     -22.164  85.103 -65.187  1.00  0.00    -0.357 OA
ATOM     26  HO  UNL     1     -21.886  84.285 -65.583  1.00  0.00     0.218 HD
ENDBRANCH  17  25
ENDBRANCH  12  13
ENDBRANCH  11  12
ENDBRANCH  10  11
ENDBRANCH   8   9
BRANCH   2  27
HETATM   27  N   UNL     1     -29.065  91.744 -60.726  1.00  0.00    -0.208 N 
HETATM   28  C   UNL     1     -28.909  90.533 -61.369  1.00  0.00     0.299 C 
HETATM   29  O   UNL     1     -28.620  90.595 -62.586  1.00  0.00    -0.629 OA
HETATM   30  O   UNL     1     -29.055  89.458 -60.755  1.00  0.00    -0.629 OA
HETATM   31  C   UNL     1     -30.350  92.103 -60.226  1.00  0.00     0.265 C 
HETATM   32  O   UNL     1     -30.857  91.552 -59.276  1.00  0.00    -0.269 OA
BRANCH  31  33
HETATM   33  C   UNL     1     -31.062  93.259 -60.899  1.00  0.00     0.234 C 
BRANCH  33  34
HETATM   34  C   UNL     1     -31.229  93.279 -62.403  1.00  0.00     0.205 C 
BRANCH  34  35
HETATM   35  O   UNL     1     -31.320  92.005 -63.026  1.00  0.00    -0.398 OA
ATOM     36  HO  UNL     1     -31.425  92.018 -63.970  1.00  0.00     0.209 HD
ENDBRANCH  34  35
ENDBRANCH  33  34
BRANCH  33  37
HETATM   37  O   UNL     1     -32.301  93.582 -60.295  1.00  0.00    -0.384 OA
ATOM     38  HO  UNL     1     -32.196  93.569 -59.351  1.00  0.00     0.210 HD
ENDBRANCH  33  37
ENDBRANCH  31  33
ENDBRANCH   2  27
TORSDOF 10
