REMARK  2 active torsions:
REMARK  status: ('A' for Active; 'I' for Inactive)
REMARK    1  A    between atoms: C_6  and  C_9 
REMARK    2  A    between atoms: C_9  and  C_10 
ROOT
HETATM    1  C   UNL     1     -14.825 -14.941   0.131  1.00  0.00     0.001 C 
HETATM    2  C   UNL     1     -14.873 -10.365  -0.166  1.00  0.00     0.044 C 
HETATM    3  C   UNL     1     -14.806 -11.848   0.147  1.00  0.00    -0.045 C 
HETATM    4  C   UNL     1     -12.684 -10.970   0.846  1.00  0.00     0.044 C 
HETATM    5  C   UNL     1     -13.431  -9.870   0.060  1.00  0.00    -0.006 C 
HETATM    6  C   UNL     1     -13.622 -12.157   0.789  1.00  0.00    -0.051 C 
HETATM    7  C   UNL     1     -15.872 -12.742   0.057  1.00  0.00    -0.055 C 
HETATM    8  C   UNL     1     -15.715 -14.042  -0.444  1.00  0.00     0.007 C 
HETATM    9  C   UNL     1     -17.219 -12.367   0.656  1.00  0.00     0.049 C 
HETATM   10  C   UNL     1     -13.429 -13.357   1.462  1.00  0.00     0.007 C 
HETATM   11  C   UNL     1     -13.991 -14.578   1.179  1.00  0.00     0.001 C 
ENDROOT
BRANCH   5  12
HETATM   12  C   UNL     1     -13.392  -8.643   0.972  1.00  0.00     0.010 C 
BRANCH  12  13
HETATM   13  C   UNL     1     -14.225  -7.375   0.958  1.00  0.00    -0.013 C 
HETATM   14  C   UNL     1     -15.690  -7.606   0.583  1.00  0.00     0.009 C 
HETATM   15  C   UNL     1     -16.007  -6.513  -0.407  1.00  0.00    -0.010 C 
HETATM   16  C   UNL     1     -14.826  -5.635  -0.695  1.00  0.00    -0.010 C 
HETATM   17  C   UNL     1     -16.963  -6.515  -1.565  1.00  0.00     0.005 C 
HETATM   18  C   UNL     1     -15.010  -5.373  -2.198  1.00  0.00     0.005 C 
HETATM   19  C   UNL     1     -13.641  -6.334  -0.019  1.00  0.00     0.009 C 
HETATM   20  C   UNL     1     -16.542  -5.213  -2.265  1.00  0.00     0.001 C 
ENDBRANCH  12  13
ENDBRANCH   5  12
TORSDOF 2
