MODEL 1
REMARK VINA RESULT:     -11.8      0.000      0.000
REMARK  9 active torsions:
REMARK  status: ('A' for Active; 'I' for Inactive)
REMARK    1  A    between atoms: C_3  and  O_13 
REMARK    2  A    between atoms: O_6  and  C_22 
REMARK    3  A    between atoms: C_8  and  C_15 
REMARK    4  A    between atoms: C_8  and  O_19 
REMARK    5  A    between atoms: C_17  and  C_24 
REMARK    6  A    between atoms: C_18  and  O_25 
REMARK    7  A    between atoms: O_19  and  C_36 
REMARK    8  A    between atoms: C_24  and  C_27 
REMARK    9  A    between atoms: C_29  and  C_33 
ROOT
HETATM    1  C   UNL     1       9.686  14.407  13.540  1.00  0.00     0.020 C 
HETATM    2  C   UNL     1      11.186  14.157  13.716  1.00  0.00     0.090 C 
HETATM    3  C   UNL     1      10.843  12.523  15.348  1.00  0.00     0.053 C 
HETATM    4  C   UNL     1      11.698  14.758  15.022  1.00  0.00     0.163 C 
HETATM    5  C   UNL     1       9.319  12.594  15.216  1.00  0.00     0.017 C 
HETATM    6  C   UNL     1       8.861  13.145  13.849  1.00  0.00    -0.009 C 
HETATM    7  C   UNL     1      11.438  12.672  13.927  1.00  0.00     0.138 C 
HETATM    8  O   UNL     1      12.251  15.824  15.159  1.00  0.00    -0.292 OA
HETATM    9  C   UNL     1      11.534  13.686  16.073  1.00  0.00     0.005 C 
ENDROOT
BRANCH   6  10
HETATM   10  C   UNL     1       7.377  13.518  13.863  1.00  0.00     0.043 C 
BRANCH  10  11
HETATM   11  C   UNL     1       6.568  12.317  14.224  1.00  0.00    -0.055 C 
HETATM   12  C   UNL     1       6.499  11.214  13.363  1.00  0.00     0.010 C 
HETATM   13  C   UNL     1       6.359   9.936  13.929  1.00  0.00     0.041 C 
HETATM   14  C   UNL     1       6.286   9.854  15.330  1.00  0.00     0.112 C 
HETATM   15  C   UNL     1       5.770  10.955  16.037  1.00  0.00     0.100 C 
HETATM   16  C   UNL     1       5.926  12.235  15.473  1.00  0.00     0.046 C 
BRANCH  14  17
HETATM   17  O   UNL     1       6.871   8.812  16.001  1.00  0.00    -0.268 OA
BRANCH  17  18
HETATM   18  C   UNL     1       6.145   7.698  16.329  1.00  0.00     0.369 C 
HETATM   19  O   UNL     1       5.062   7.737  16.846  1.00  0.00    -0.253 OA
BRANCH  18  20
HETATM   20  C   UNL     1       6.714   6.468  15.671  1.00  0.00     0.396 C 
HETATM   21  F   UNL     1       7.030   5.502  16.513  1.00  0.00    -0.153 F 
HETATM   22  O   UNL     1       7.133   6.499  14.520  1.00  0.00    -0.248 OA
ENDBRANCH  18  20
ENDBRANCH  17  18
ENDBRANCH  14  17
BRANCH  15  23
HETATM   23  O   UNL     1       5.096  10.810  17.168  1.00  0.00    -0.358 OA
ATOM     24  HO  UNL     1       5.410  11.223  17.963  1.00  0.00     0.217 HD
ENDBRANCH  15  23
ENDBRANCH  10  11
ENDBRANCH   6  10
BRANCH   7  25
HETATM   25  O   UNL     1      12.826  12.353  13.958  1.00  0.00    -0.394 OA
ATOM     26  HO  UNL     1      13.256  12.521  13.127  1.00  0.00     0.210 HD
ENDBRANCH   7  25
BRANCH   9  27
HETATM   27  C   UNL     1      11.192  14.020  17.494  1.00  0.00    -0.025 C 
HETATM   28  C   UNL     1      11.386  15.279  18.062  1.00  0.00     0.019 C 
HETATM   29  C   UNL     1      10.656  15.891  19.100  1.00  0.00    -0.059 C 
HETATM   30  C   UNL     1       9.639  15.262  19.808  1.00  0.00     0.043 C 
HETATM   31  C   UNL     1      11.046  17.312  19.440  1.00  0.00     0.048 C 
HETATM   32  C   UNL     1       9.649  13.920  20.238  1.00  0.00     0.066 C 
HETATM   33  C   UNL     1      10.202  12.876  19.523  1.00  0.00     0.037 C 
HETATM   34  C   UNL     1      10.807  12.945  18.283  1.00  0.00     0.015 C 
BRANCH  32  35
HETATM   35  O   UNL     1       9.138  13.616  21.448  1.00  0.00    -0.361 OA
ATOM     36  HO  UNL     1       9.592  12.944  21.943  1.00  0.00     0.217 HD
ENDBRANCH  32  35
ENDBRANCH   9  27
TORSDOF 9
ENDMDL
MODEL 2
REMARK VINA RESULT:     -10.2      1.056      1.693
REMARK  9 active torsions:
REMARK  status: ('A' for Active; 'I' for Inactive)
REMARK    1  A    between atoms: C_3  and  O_13 
REMARK    2  A    between atoms: O_6  and  C_22 
REMARK    3  A    between atoms: C_8  and  C_15 
REMARK    4  A    between atoms: C_8  and  O_19 
REMARK    5  A    between atoms: C_17  and  C_24 
REMARK    6  A    between atoms: C_18  and  O_25 
REMARK    7  A    between atoms: O_19  and  C_36 
REMARK    8  A    between atoms: C_24  and  C_27 
REMARK    9  A    between atoms: C_29  and  C_33 
ROOT
HETATM    1  C   UNL     1       9.949  13.926  13.412  1.00  0.00     0.020 C 
HETATM    2  C   UNL     1      11.413  13.702  13.795  1.00  0.00     0.090 C 
HETATM    3  C   UNL     1      10.850  12.575  15.760  1.00  0.00     0.053 C 
HETATM    4  C   UNL     1      11.832  14.623  14.938  1.00  0.00     0.163 C 
HETATM    5  C   UNL     1       9.350  12.639  15.464  1.00  0.00     0.017 C 
HETATM    6  C   UNL     1       9.042  12.810  13.961  1.00  0.00    -0.009 C 
HETATM    7  C   UNL     1      11.577  12.324  14.418  1.00  0.00     0.138 C 
HETATM    8  O   UNL     1      12.419  15.675  14.841  1.00  0.00    -0.292 OA
HETATM    9  C   UNL     1      11.525  13.877  16.215  1.00  0.00     0.005 C 
ENDROOT
BRANCH   6  10
HETATM   10  C   UNL     1       7.582  13.203  13.729  1.00  0.00     0.043 C 
BRANCH  10  11
HETATM   11  C   UNL     1       6.696  12.062  14.107  1.00  0.00    -0.055 C 
HETATM   12  C   UNL     1       6.601  10.927  13.293  1.00  0.00     0.010 C 
HETATM   13  C   UNL     1       6.371   9.685  13.908  1.00  0.00     0.041 C 
HETATM   14  C   UNL     1       6.240   9.670  15.307  1.00  0.00     0.112 C 
HETATM   15  C   UNL     1       5.757  10.828  15.944  1.00  0.00     0.100 C 
HETATM   16  C   UNL     1       6.004  12.071  15.332  1.00  0.00     0.046 C 
BRANCH  14  17
HETATM   17  O   UNL     1       6.743   8.631  16.045  1.00  0.00    -0.268 OA
BRANCH  17  18
HETATM   18  C   UNL     1       5.959   7.549  16.349  1.00  0.00     0.369 C 
HETATM   19  O   UNL     1       4.986   7.607  17.049  1.00  0.00    -0.253 OA
BRANCH  18  20
HETATM   20  C   UNL     1       6.275   6.383  15.449  1.00  0.00     0.396 C 
HETATM   21  F   UNL     1       5.466   5.351  15.596  1.00  0.00    -0.153 F 
HETATM   22  O   UNL     1       7.357   6.293  14.881  1.00  0.00    -0.248 OA
ENDBRANCH  18  20
ENDBRANCH  17  18
ENDBRANCH  14  17
BRANCH  15  23
HETATM   23  O   UNL     1       5.034  10.769  17.051  1.00  0.00    -0.358 OA
ATOM     24  HO  UNL     1       5.066   9.993  17.598  1.00  0.00     0.217 HD
ENDBRANCH  15  23
ENDBRANCH  10  11
ENDBRANCH   6  10
BRANCH   7  25
HETATM   25  O   UNL     1      12.941  11.998  14.669  1.00  0.00    -0.394 OA
ATOM     26  HO  UNL     1      13.532  12.405  14.048  1.00  0.00     0.210 HD
ENDBRANCH   7  25
BRANCH   9  27
HETATM   27  C   UNL     1      11.072  14.587  17.455  1.00  0.00    -0.025 C 
HETATM   28  C   UNL     1      10.375  13.967  18.492  1.00  0.00     0.019 C 
HETATM   29  C   UNL     1      10.379  14.292  19.863  1.00  0.00    -0.059 C 
HETATM   30  C   UNL     1      11.040  15.391  20.398  1.00  0.00     0.043 C 
HETATM   31  C   UNL     1       9.591  13.371  20.767  1.00  0.00     0.048 C 
HETATM   32  C   UNL     1      11.102  16.673  19.814  1.00  0.00     0.066 C 
HETATM   33  C   UNL     1      11.185  16.909  18.456  1.00  0.00     0.037 C 
HETATM   34  C   UNL     1      11.245  15.964  17.450  1.00  0.00     0.015 C 
BRANCH  32  35
HETATM   35  O   UNL     1      11.024  17.760  20.609  1.00  0.00    -0.361 OA
ATOM     36  HO  UNL     1      11.806  17.982  21.101  1.00  0.00     0.217 HD
ENDBRANCH  32  35
ENDBRANCH   9  27
TORSDOF 9
ENDMDL
MODEL 3
REMARK VINA RESULT:      -9.5      2.477      4.921
REMARK  9 active torsions:
REMARK  status: ('A' for Active; 'I' for Inactive)
REMARK    1  A    between atoms: C_3  and  O_13 
REMARK    2  A    between atoms: O_6  and  C_22 
REMARK    3  A    between atoms: C_8  and  C_15 
REMARK    4  A    between atoms: C_8  and  O_19 
REMARK    5  A    between atoms: C_17  and  C_24 
REMARK    6  A    between atoms: C_18  and  O_25 
REMARK    7  A    between atoms: O_19  and  C_36 
REMARK    8  A    between atoms: C_24  and  C_27 
REMARK    9  A    between atoms: C_29  and  C_33 
ROOT
HETATM    1  C   UNL     1       6.922   9.958  15.923  1.00  0.00     0.020 C 
HETATM    2  C   UNL     1       6.784  11.056  16.980  1.00  0.00     0.090 C 
HETATM    3  C   UNL     1       7.186  12.759  15.434  1.00  0.00     0.053 C 
HETATM    4  C   UNL     1       8.143  11.642  17.350  1.00  0.00     0.163 C 
HETATM    5  C   UNL     1       7.258  11.784  14.256  1.00  0.00     0.017 C 
HETATM    6  C   UNL     1       6.513  10.460  14.527  1.00  0.00    -0.009 C 
HETATM    7  C   UNL     1       6.069  12.259  16.382  1.00  0.00     0.138 C 
HETATM    8  O   UNL     1       8.824  11.344  18.304  1.00  0.00    -0.292 OA
HETATM    9  C   UNL     1       8.386  12.784  16.391  1.00  0.00     0.005 C 
ENDROOT
BRANCH   6  10
HETATM   10  C   UNL     1       6.875   9.391  13.493  1.00  0.00     0.043 C 
BRANCH  10  11
HETATM   11  C   UNL     1       6.432   8.055  13.988  1.00  0.00    -0.055 C 
HETATM   12  C   UNL     1       5.801   7.145  13.131  1.00  0.00     0.010 C 
HETATM   13  C   UNL     1       6.005   5.773  13.350  1.00  0.00     0.041 C 
HETATM   14  C   UNL     1       6.825   5.406  14.431  1.00  0.00     0.112 C 
HETATM   15  C   UNL     1       6.904   6.275  15.534  1.00  0.00     0.100 C 
HETATM   16  C   UNL     1       6.714   7.651  15.306  1.00  0.00     0.046 C 
BRANCH  14  17
HETATM   17  O   UNL     1       7.667   4.329  14.336  1.00  0.00    -0.268 OA
BRANCH  17  18
HETATM   18  C   UNL     1       7.165   3.054  14.279  1.00  0.00     0.369 C 
HETATM   19  O   UNL     1       7.242   2.351  13.309  1.00  0.00    -0.253 OA
BRANCH  18  20
HETATM   20  C   UNL     1       6.818   2.549  15.655  1.00  0.00     0.396 C 
HETATM   21  F   UNL     1       5.536   2.289  15.828  1.00  0.00    -0.153 F 
HETATM   22  O   UNL     1       7.594   2.678  16.595  1.00  0.00    -0.248 OA
ENDBRANCH  18  20
ENDBRANCH  17  18
ENDBRANCH  14  17
BRANCH  15  23
HETATM   23  O   UNL     1       7.084   5.829  16.768  1.00  0.00    -0.358 OA
ATOM     24  HO  UNL     1       7.565   6.354  17.396  1.00  0.00     0.217 HD
ENDBRANCH  15  23
ENDBRANCH  10  11
ENDBRANCH   6  10
BRANCH   7  25
HETATM   25  O   UNL     1       5.784  13.262  17.351  1.00  0.00    -0.394 OA
ATOM     26  HO  UNL     1       6.032  12.999  18.230  1.00  0.00     0.210 HD
ENDBRANCH   7  25
BRANCH   9  27
HETATM   27  C   UNL     1       9.760  13.118  15.894  1.00  0.00    -0.025 C 
HETATM   28  C   UNL     1      10.009  13.968  14.816  1.00  0.00     0.019 C 
HETATM   29  C   UNL     1      11.131  14.789  14.592  1.00  0.00    -0.059 C 
HETATM   30  C   UNL     1      12.255  14.807  15.410  1.00  0.00     0.043 C 
HETATM   31  C   UNL     1      11.073  15.677  13.370  1.00  0.00     0.048 C 
HETATM   32  C   UNL     1      12.858  13.676  15.996  1.00  0.00     0.066 C 
HETATM   33  C   UNL     1      12.165  12.579  16.468  1.00  0.00     0.037 C 
HETATM   34  C   UNL     1      10.796  12.400  16.475  1.00  0.00     0.015 C 
BRANCH  32  35
HETATM   35  O   UNL     1      14.204  13.613  16.066  1.00  0.00    -0.361 OA
ATOM     36  HO  UNL     1      14.567  13.080  16.763  1.00  0.00     0.217 HD
ENDBRANCH  32  35
ENDBRANCH   9  27
TORSDOF 9
ENDMDL
