REMARK  5 active torsions:
REMARK  status: ('A' for Active; 'I' for Inactive)
REMARK    1  A    between atoms: C_1  and  O_8 
REMARK    2  A    between atoms: C_1  and  C_14 
REMARK    3  A    between atoms: C_3  and  C_14 
REMARK    4  A    between atoms: N_5  and  C_12 
REMARK    5  A    between atoms: O_10  and  C_16 
ROOT
HETATM    1  C   UNL     1      12.912  -5.838 -19.180  1.00  0.00    -0.029 C 
HETATM    2  C   UNL     1      10.468  -7.025 -17.639  1.00  0.00     0.036 C 
HETATM    3  C   UNL     1      13.473  -6.295 -17.999  1.00  0.00     0.034 C 
HETATM    4  C   UNL     1      12.738  -6.696 -16.908  1.00  0.00     0.066 C 
HETATM    5  C   UNL     1      11.567  -5.632 -19.347  1.00  0.00     0.009 C 
HETATM    6  C   UNL     1      11.615  -7.476 -17.001  1.00  0.00     0.067 C 
HETATM    7  C   UNL     1      10.506  -6.166 -18.705  1.00  0.00     0.003 C 
ENDROOT
BRANCH   1   8
HETATM    8  C   UNL     1      13.814  -5.410 -20.311  1.00  0.00     0.072 C 
BRANCH   8   9
HETATM    9  C   UNL     1      14.037  -3.902 -20.245  1.00  0.00     0.118 C 
HETATM   10  C   UNL     1      14.894  -3.434 -21.401  1.00  0.00     0.039 C 
BRANCH   9  11
HETATM   11  O   UNL     1      12.746  -3.301 -20.324  1.00  0.00    -0.396 OA
ATOM     12  HO  UNL     1      12.208  -3.595 -19.598  1.00  0.00     0.210 HD
ENDBRANCH   9  11
ENDBRANCH   8   9
ENDBRANCH   1   8
BRANCH   3  13
HETATM   13  N   UNL     1      14.789  -6.616 -17.992  1.00  0.00    -0.399 N 
ATOM     14  HN2 UNL     1      15.334  -6.319 -18.801  1.00  0.00     0.156 HD
ATOM     15  HN1 UNL     1      15.202  -6.953 -17.122  1.00  0.00     0.156 HD
ENDBRANCH   3  13
BRANCH   6  16
HETATM   16  O   UNL     1      11.630  -8.756 -16.499  1.00  0.00    -0.361 OA
ATOM     17  HO  UNL     1      12.415  -9.065 -16.062  1.00  0.00     0.217 HD
ENDBRANCH   6  16
TORSDOF 5
