REMARK  8 active torsions:
REMARK  status: ('A' for Active; 'I' for Inactive)
REMARK    1  A    between atoms: C_1  and  C_33 
REMARK    2  A    between atoms: N_3  and  C_20 
REMARK    3  A    between atoms: N_3  and  C_21 
REMARK    4  A    between atoms: C_14  and  O_17 
REMARK    5  A    between atoms: C_14  and  O_25 
REMARK    6  A    between atoms: O_15  and  C_37 
REMARK    7  A    between atoms: C_20  and  C_30 
REMARK    8  A    between atoms: C_28  and  O_31 
ROOT
HETATM    1  C   UNL     1      18.833  33.188  16.433  1.00  0.00     0.271 C 
ENDROOT
BRANCH   1   2
HETATM    2  N   UNL     1      19.844  32.139  16.652  1.00  0.00    -0.065 N 
ATOM      3  HN2 UNL     1      20.779  32.505  16.473  1.00  0.00     0.278 HD
ATOM      4  HN1 UNL     1      19.925  31.927  17.647  1.00  0.00     0.278 HD
BRANCH   2   5
HETATM    5  C   UNL     1      19.623  30.902  15.882  1.00  0.00     0.206 C 
HETATM    6  C   UNL     1      20.457  29.754  16.477  1.00  0.00     0.062 C 
HETATM    7  C   UNL     1      19.566  28.510  16.551  1.00  0.00     0.124 C 
HETATM    8  N   UNL     1      18.243  29.074  16.446  1.00  0.00    -0.338 N 
HETATM    9  C   UNL     1      19.499  27.848  17.931  1.00  0.00     0.213 C 
HETATM   10  C   UNL     1      17.307  28.240  17.063  1.00  0.00     0.285 C 
HETATM   11  C   UNL     1      18.157  30.444  15.967  1.00  0.00     0.159 C 
HETATM   12  O   UNL     1      16.175  28.687  17.294  1.00  0.00    -0.267 OA
HETATM   13  C   UNL     1      18.038  27.392  18.101  1.00  0.00     0.272 C 
BRANCH  13  14
HETATM   14  O   UNL     1      17.603  27.664  19.408  1.00  0.00    -0.356 OA
ATOM     15  HO  UNL     1      18.058  27.136  20.054  1.00  0.00     0.213 HD
ENDBRANCH  13  14
BRANCH  13  16
HETATM   16  O   UNL     1      17.844  26.031  17.815  1.00  0.00    -0.356 OA
ATOM     17  HO  UNL     1      18.299  25.503  18.461  1.00  0.00     0.213 HD
ENDBRANCH  13  16
BRANCH   9  18
HETATM   18  O   UNL     1      20.445  26.784  18.035  1.00  0.00    -0.387 OA
ATOM     19  HO  UNL     1      21.346  27.065  17.930  1.00  0.00     0.210 HD
ENDBRANCH   9  18
ENDBRANCH   2   5
ENDBRANCH   1   2
BRANCH   1  20
HETATM   20  C   UNL     1      19.427  34.555  16.722  1.00  0.00    -0.030 C 
HETATM   21  C   UNL     1      19.110  35.258  17.870  1.00  0.00     0.045 C 
HETATM   22  C   UNL     1      19.381  36.624  18.027  1.00  0.00     0.066 C 
HETATM   23  C   UNL     1      20.673  37.136  17.870  1.00  0.00     0.044 C 
HETATM   24  C   UNL     1      21.332  37.117  16.659  1.00  0.00    -0.047 C 
HETATM   25  C   UNL     1      20.927  36.254  15.677  1.00  0.00     0.008 C 
HETATM   26  C   UNL     1      20.162  35.135  15.715  1.00  0.00     0.009 C 
BRANCH  22  27
HETATM   27  O   UNL     1      18.369  37.507  18.149  1.00  0.00    -0.361 OA
ATOM     28  HO  UNL     1      18.553  38.433  18.255  1.00  0.00     0.217 HD
ENDBRANCH  22  27
BRANCH  24  29
HETATM   29  C   UNL     1      22.559  37.983  16.402  1.00  0.00    -0.013 C 
HETATM   30  C   UNL     1      23.606  37.543  17.408  1.00  0.00     0.014 C 
HETATM   31  C   UNL     1      24.855  38.379  17.562  1.00  0.00     0.001 C 
HETATM   32  C   UNL     1      25.455  38.903  16.274  1.00  0.00     0.005 C 
HETATM   33  C   UNL     1      24.514  39.743  15.413  1.00  0.00    -0.014 C 
HETATM   34  C   UNL     1      23.874  38.843  14.364  1.00  0.00     0.005 C 
HETATM   35  C   UNL     1      23.423  40.369  16.271  1.00  0.00     0.005 C 
HETATM   36  C   UNL     1      23.015  37.751  14.961  1.00  0.00     0.015 C 
HETATM   37  C   UNL     1      22.236  39.463  16.569  1.00  0.00     0.015 C 
ENDBRANCH  24  29
ENDBRANCH   1  20
TORSDOF 8
