MODEL 1
REMARK VINA RESULT:      -6.1      0.000      0.000
REMARK  1 active torsions:
REMARK  status: ('A' for Active; 'I' for Inactive)
REMARK    1  A    between atoms: C_1  and  C_10 
ROOT
HETATM    1  N   UNL     1     -23.651 -25.250 -22.387  1.00  0.00    -0.266 N 
ATOM      2  HN  UNL     1     -24.593 -25.635 -22.311  1.00  0.00     0.190 HD
HETATM    3  C   UNL     1     -21.072 -24.454 -22.870  1.00  0.00     0.043 C 
HETATM    4  O   UNL     1     -22.968 -26.335 -20.521  1.00  0.00    -0.267 OA
HETATM    5  C   UNL     1     -22.646 -25.683 -21.524  1.00  0.00     0.259 C 
HETATM    6  C   UNL     1     -21.340 -25.210 -21.736  1.00  0.00     0.078 C 
HETATM    7  C   UNL     1     -22.132 -23.741 -23.437  1.00  0.00     0.125 C 
HETATM    8  N   UNL     1     -23.363 -24.285 -23.357  1.00  0.00    -0.292 N 
ATOM      9  HN  UNL     1     -24.090 -23.990 -24.008  1.00  0.00     0.187 HD
ENDROOT
BRANCH   7  10
HETATM   10  C   UNL     1     -21.933 -22.313 -23.894  1.00  0.00     0.228 C 
HETATM   11  O   UNL     1     -22.865 -21.493 -23.747  1.00  0.00    -0.643 OA
HETATM   12  O   UNL     1     -20.863 -21.998 -24.418  1.00  0.00    -0.643 OA
ENDBRANCH   7  10
TORSDOF 1
ENDMDL
MODEL 2
REMARK VINA RESULT:      -5.9      2.342      2.661
REMARK  1 active torsions:
REMARK  status: ('A' for Active; 'I' for Inactive)
REMARK    1  A    between atoms: C_1  and  C_10 
ROOT
HETATM    1  N   UNL     1     -19.818 -23.529 -22.211  1.00  0.00    -0.266 N 
ATOM      2  HN  UNL     1     -19.022 -23.407 -21.584  1.00  0.00     0.190 HD
HETATM    3  C   UNL     1     -22.151 -23.661 -23.646  1.00  0.00     0.043 C 
HETATM    4  O   UNL     1     -20.051 -25.704 -21.628  1.00  0.00    -0.267 OA
HETATM    5  C   UNL     1     -20.538 -24.722 -22.205  1.00  0.00     0.259 C 
HETATM    6  C   UNL     1     -21.692 -24.804 -23.003  1.00  0.00     0.078 C 
HETATM    7  C   UNL     1     -21.215 -22.666 -23.940  1.00  0.00     0.125 C 
HETATM    8  N   UNL     1     -20.191 -22.499 -23.080  1.00  0.00    -0.292 N 
ATOM      9  HN  UNL     1     -19.683 -21.614 -23.063  1.00  0.00     0.187 HD
ENDROOT
BRANCH   7  10
HETATM   10  C   UNL     1     -21.225 -21.985 -25.290  1.00  0.00     0.228 C 
HETATM   11  O   UNL     1     -20.835 -22.621 -26.294  1.00  0.00    -0.643 OA
HETATM   12  O   UNL     1     -21.599 -20.813 -25.365  1.00  0.00    -0.643 OA
ENDBRANCH   7  10
TORSDOF 1
ENDMDL
MODEL 3
REMARK VINA RESULT:      -5.8      1.672      4.177
REMARK  1 active torsions:
REMARK  status: ('A' for Active; 'I' for Inactive)
REMARK    1  A    between atoms: C_1  and  C_10 
ROOT
HETATM    1  N   UNL     1     -20.328 -23.203 -23.318  1.00  0.00    -0.266 N 
ATOM      2  HN  UNL     1     -19.421 -22.778 -23.125  1.00  0.00     0.190 HD
HETATM    3  C   UNL     1     -22.578 -24.600 -24.032  1.00  0.00     0.043 C 
HETATM    4  O   UNL     1     -20.868 -21.576 -24.797  1.00  0.00    -0.267 OA
HETATM    5  C   UNL     1     -21.142 -22.688 -24.327  1.00  0.00     0.259 C 
HETATM    6  C   UNL     1     -22.331 -23.372 -24.633  1.00  0.00     0.078 C 
HETATM    7  C   UNL     1     -21.975 -24.846 -22.796  1.00  0.00     0.125 C 
HETATM    8  N   UNL     1     -20.761 -24.305 -22.574  1.00  0.00    -0.292 N 
ATOM      9  HN  UNL     1     -20.154 -24.701 -21.857  1.00  0.00     0.187 HD
ENDROOT
BRANCH   7  10
HETATM   10  C   UNL     1     -22.767 -25.484 -21.676  1.00  0.00     0.228 C 
HETATM   11  O   UNL     1     -23.993 -25.676 -21.832  1.00  0.00    -0.643 OA
HETATM   12  O   UNL     1     -22.189 -25.779 -20.629  1.00  0.00    -0.643 OA
ENDBRANCH   7  10
TORSDOF 1
ENDMDL
MODEL 4
REMARK VINA RESULT:      -5.6      0.997      1.233
REMARK  1 active torsions:
REMARK  status: ('A' for Active; 'I' for Inactive)
REMARK    1  A    between atoms: C_1  and  C_10 
ROOT
HETATM    1  N   UNL     1     -23.777 -25.168 -23.110  1.00  0.00    -0.266 N 
ATOM      2  HN  UNL     1     -24.765 -25.388 -23.240  1.00  0.00     0.190 HD
HETATM    3  C   UNL     1     -21.054 -24.882 -22.963  1.00  0.00     0.043 C 
HETATM    4  O   UNL     1     -23.822 -25.864 -20.956  1.00  0.00    -0.267 OA
HETATM    5  C   UNL     1     -23.132 -25.522 -21.926  1.00  0.00     0.259 C 
HETATM    6  C   UNL     1     -21.747 -25.301 -21.834  1.00  0.00     0.078 C 
HETATM    7  C   UNL     1     -21.770 -24.182 -23.937  1.00  0.00     0.125 C 
HETATM    8  N   UNL     1     -23.064 -24.512 -24.118  1.00  0.00    -0.292 N 
ATOM      9  HN  UNL     1     -23.528 -24.281 -24.997  1.00  0.00     0.187 HD
ENDROOT
BRANCH   7  10
HETATM   10  C   UNL     1     -21.178 -22.946 -24.578  1.00  0.00     0.228 C 
HETATM   11  O   UNL     1     -21.035 -22.916 -25.820  1.00  0.00    -0.643 OA
HETATM   12  O   UNL     1     -20.833 -22.008 -23.858  1.00  0.00    -0.643 OA
ENDBRANCH   7  10
TORSDOF 1
ENDMDL
MODEL 5
REMARK VINA RESULT:      -5.6      1.893      2.414
REMARK  1 active torsions:
REMARK  status: ('A' for Active; 'I' for Inactive)
REMARK    1  A    between atoms: C_1  and  C_10 
ROOT
HETATM    1  N   UNL     1     -23.464 -24.871 -24.082  1.00  0.00    -0.266 N 
ATOM      2  HN  UNL     1     -23.991 -24.800 -24.952  1.00  0.00     0.190 HD
HETATM    3  C   UNL     1     -21.900 -25.373 -21.886  1.00  0.00     0.043 C 
HETATM    4  O   UNL     1     -25.301 -25.509 -22.923  1.00  0.00    -0.267 OA
HETATM    5  C   UNL     1     -24.068 -25.385 -22.936  1.00  0.00     0.259 C 
HETATM    6  C   UNL     1     -23.273 -25.568 -21.792  1.00  0.00     0.078 C 
HETATM    7  C   UNL     1     -21.438 -24.505 -22.878  1.00  0.00     0.125 C 
HETATM    8  N   UNL     1     -22.130 -24.453 -24.033  1.00  0.00    -0.292 N 
ATOM      9  HN  UNL     1     -21.678 -24.106 -24.879  1.00  0.00     0.187 HD
ENDROOT
BRANCH   7  10
HETATM   10  C   UNL     1     -20.357 -23.495 -22.564  1.00  0.00     0.228 C 
HETATM   11  O   UNL     1     -19.343 -23.867 -21.932  1.00  0.00    -0.643 OA
HETATM   12  O   UNL     1     -20.511 -22.326 -22.921  1.00  0.00    -0.643 OA
ENDBRANCH   7  10
TORSDOF 1
ENDMDL
MODEL 6
REMARK VINA RESULT:      -5.4      2.357      3.031
REMARK  1 active torsions:
REMARK  status: ('A' for Active; 'I' for Inactive)
REMARK    1  A    between atoms: C_1  and  C_10 
ROOT
HETATM    1  N   UNL     1     -24.428 -25.556 -22.407  1.00  0.00    -0.266 N 
ATOM      2  HN  UNL     1     -25.043 -25.927 -21.683  1.00  0.00     0.190 HD
HETATM    3  C   UNL     1     -22.904 -24.223 -24.257  1.00  0.00     0.043 C 
HETATM    4  O   UNL     1     -25.791 -26.293 -24.058  1.00  0.00    -0.267 OA
HETATM    5  C   UNL     1     -24.822 -25.589 -23.744  1.00  0.00     0.259 C 
HETATM    6  C   UNL     1     -23.994 -24.967 -24.695  1.00  0.00     0.078 C 
HETATM    7  C   UNL     1     -22.352 -24.556 -23.018  1.00  0.00     0.125 C 
HETATM    8  N   UNL     1     -23.187 -25.011 -22.064  1.00  0.00    -0.292 N 
ATOM      9  HN  UNL     1     -22.912 -24.959 -21.083  1.00  0.00     0.187 HD
ENDROOT
BRANCH   7  10
HETATM   10  C   UNL     1     -20.850 -24.634 -22.850  1.00  0.00     0.228 C 
HETATM   11  O   UNL     1     -20.382 -25.193 -21.834  1.00  0.00    -0.643 OA
HETATM   12  O   UNL     1     -20.126 -24.126 -23.708  1.00  0.00    -0.643 OA
ENDBRANCH   7  10
TORSDOF 1
ENDMDL
MODEL 7
REMARK VINA RESULT:      -5.4      2.342      3.719
REMARK  1 active torsions:
REMARK  status: ('A' for Active; 'I' for Inactive)
REMARK    1  A    between atoms: C_1  and  C_10 
ROOT
HETATM    1  N   UNL     1     -20.159 -24.906 -21.257  1.00  0.00    -0.266 N 
ATOM      2  HN  UNL     1     -19.484 -25.298 -20.601  1.00  0.00     0.190 HD
HETATM    3  C   UNL     1     -21.806 -24.057 -23.278  1.00  0.00     0.043 C 
HETATM    4  O   UNL     1     -19.108 -22.901 -21.268  1.00  0.00    -0.267 OA
HETATM    5  C   UNL     1     -19.960 -23.633 -21.789  1.00  0.00     0.259 C 
HETATM    6  C   UNL     1     -20.856 -23.178 -22.772  1.00  0.00     0.078 C 
HETATM    7  C   UNL     1     -22.208 -25.115 -22.460  1.00  0.00     0.125 C 
HETATM    8  N   UNL     1     -21.289 -25.642 -21.626  1.00  0.00    -0.292 N 
ATOM      9  HN  UNL     1     -21.420 -26.585 -21.260  1.00  0.00     0.187 HD
ENDROOT
BRANCH   7  10
HETATM   10  C   UNL     1     -23.672 -25.477 -22.345  1.00  0.00     0.228 C 
HETATM   11  O   UNL     1     -24.466 -25.080 -23.226  1.00  0.00    -0.643 OA
HETATM   12  O   UNL     1     -24.049 -26.137 -21.376  1.00  0.00    -0.643 OA
ENDBRANCH   7  10
TORSDOF 1
ENDMDL
MODEL 8
REMARK VINA RESULT:      -5.0      1.876      2.309
REMARK  1 active torsions:
REMARK  status: ('A' for Active; 'I' for Inactive)
REMARK    1  A    between atoms: C_1  and  C_10 
ROOT
HETATM    1  N   UNL     1     -21.506 -25.458 -21.209  1.00  0.00    -0.266 N 
ATOM      2  HN  UNL     1     -20.767 -25.604 -20.521  1.00  0.00     0.190 HD
HETATM    3  C   UNL     1     -23.549 -24.739 -22.891  1.00  0.00     0.043 C 
HETATM    4  O   UNL     1     -22.870 -26.946 -20.185  1.00  0.00    -0.267 OA
HETATM    5  C   UNL     1     -22.754 -26.051 -21.033  1.00  0.00     0.259 C 
HETATM    6  C   UNL     1     -23.774 -25.733 -21.946  1.00  0.00     0.078 C 
HETATM    7  C   UNL     1     -22.226 -24.496 -23.269  1.00  0.00     0.125 C 
HETATM    8  N   UNL     1     -21.270 -24.661 -22.334  1.00  0.00    -0.292 N 
ATOM      9  HN  UNL     1     -20.366 -24.202 -22.447  1.00  0.00     0.187 HD
ENDROOT
BRANCH   7  10
HETATM   10  C   UNL     1     -21.873 -24.300 -24.727  1.00  0.00     0.228 C 
HETATM   11  O   UNL     1     -21.183 -25.167 -25.306  1.00  0.00    -0.643 OA
HETATM   12  O   UNL     1     -22.257 -23.280 -25.302  1.00  0.00    -0.643 OA
ENDBRANCH   7  10
TORSDOF 1
ENDMDL
MODEL 9
REMARK VINA RESULT:      -5.0      1.862      4.132
REMARK  1 active torsions:
REMARK  status: ('A' for Active; 'I' for Inactive)
REMARK    1  A    between atoms: C_1  and  C_10 
ROOT
HETATM    1  N   UNL     1     -22.455 -24.192 -25.171  1.00  0.00    -0.266 N 
ATOM      2  HN  UNL     1     -23.100 -24.585 -25.855  1.00  0.00     0.190 HD
HETATM    3  C   UNL     1     -21.007 -22.930 -23.213  1.00  0.00     0.043 C 
HETATM    4  O   UNL     1     -21.415 -22.942 -26.747  1.00  0.00    -0.267 OA
HETATM    5  C   UNL     1     -21.576 -23.175 -25.541  1.00  0.00     0.259 C 
HETATM    6  C   UNL     1     -20.784 -22.586 -24.541  1.00  0.00     0.078 C 
HETATM    7  C   UNL     1     -21.569 -24.183 -22.957  1.00  0.00     0.125 C 
HETATM    8  N   UNL     1     -22.447 -24.669 -23.857  1.00  0.00    -0.292 N 
ATOM      9  HN  UNL     1     -23.110 -25.392 -23.578  1.00  0.00     0.187 HD
ENDROOT
BRANCH   7  10
HETATM   10  C   UNL     1     -21.021 -25.052 -21.846  1.00  0.00     0.228 C 
HETATM   11  O   UNL     1     -19.783 -25.127 -21.689  1.00  0.00    -0.643 OA
HETATM   12  O   UNL     1     -21.809 -25.680 -21.136  1.00  0.00    -0.643 OA
ENDBRANCH   7  10
TORSDOF 1
ENDMDL
