REMARK  9 active torsions:
REMARK  status: ('A' for Active; 'I' for Inactive)
REMARK    1  A    between atoms: C_1  and  N_5 
REMARK    2  A    between atoms: C_4  and  C_15 
REMARK    3  A    between atoms: O_9  and  C_13 
REMARK    4  A    between atoms: C_13  and  C_32 
REMARK    5  A    between atoms: C_15  and  C_29 
REMARK    6  A    between atoms: N_18  and  N_33 
REMARK    7  A    between atoms: C_23  and  C_29 
REMARK    8  A    between atoms: C_23  and  C_32 
REMARK    9  A    between atoms: C_27  and  N_33 
ROOT
HETATM    1  C   UNL     1      12.296  15.851 -11.343  1.00  0.00     0.014 C 
HETATM    2  O   UNL     1      12.281  18.824  -5.641  1.00  0.00    -0.287 OA
HETATM    3  C   UNL     1      14.549  18.774  -6.159  1.00  0.00    -0.000 C 
HETATM    4  C   UNL     1      13.169  18.499  -6.458  1.00  0.00     0.189 C 
HETATM    5  C   UNL     1      11.074  15.248 -11.605  1.00  0.00     0.032 C 
HETATM    6  C   UNL     1      11.392  16.708  -9.257  1.00  0.00    -0.023 C 
HETATM    7  C   UNL     1      15.426  18.999  -7.224  1.00  0.00     0.012 C 
HETATM    8  C   UNL     1      11.582  17.429  -8.067  1.00  0.00     0.028 C 
HETATM    9  C   UNL     1      13.632  17.324  -9.972  1.00  0.00     0.024 C 
HETATM   10  C   UNL     1      15.091  18.593  -8.509  1.00  0.00     0.013 C 
HETATM   11  C   UNL     1      12.411  16.720 -10.253  1.00  0.00    -0.025 C 
HETATM   12  C   UNL     1       9.950  15.573 -10.833  1.00  0.00     0.050 C 
HETATM   13  C   UNL     1      13.853  17.977  -8.755  1.00  0.00    -0.021 C 
HETATM   14  C   UNL     1      10.131  16.232  -9.615  1.00  0.00     0.043 C 
HETATM   15  C   UNL     1      12.839  17.961  -7.763  1.00  0.00     0.026 C 
ENDROOT
BRANCH  12  16
HETATM   16  N   UNL     1       8.670  15.381 -11.352  1.00  0.00    -0.280 N 
ATOM     17  HN  UNL     1       7.872  15.315 -10.720  1.00  0.00     0.188 HD
BRANCH  16  18
HETATM   18  N   UNL     1       8.473  15.278 -12.737  1.00  0.00    -0.096 N 
HETATM   19  C   UNL     1       7.604  14.436 -13.359  1.00  0.00     0.696 A 
HETATM   20  N   UNL     1       7.697  14.574 -14.677  1.00  0.00    -0.199 N 
HETATM   21  C   UNL     1       8.527  15.616 -14.918  1.00  0.00     0.126 A 
ATOM     22  HN  UNL     1       7.229  14.000 -15.379  1.00  0.00     0.183 HD
HETATM   23  C   UNL     1       9.027  16.069 -13.719  1.00  0.00     0.152 A 
BRANCH  19  24
HETATM   24  N   UNL     1       6.727  13.659 -12.732  1.00  0.00    -0.233 N 
ATOM     25  HN2 UNL     1       6.656  13.553 -11.720  1.00  0.00     0.174 HD
ATOM     26  HN1 UNL     1       6.075  13.028 -13.198  1.00  0.00     0.174 HD
ENDBRANCH  19  24
ENDBRANCH  16  18
ENDBRANCH  12  16
BRANCH   3  27
HETATM   27  C   UNL     1      14.956  18.797  -4.718  1.00  0.00     0.120 C 
BRANCH  27  28
HETATM   28  C   UNL     1      16.393  18.434  -4.405  1.00  0.00     0.131 C 
HETATM   29  O   UNL     1      16.986  18.994  -3.488  1.00  0.00    -0.298 OA
BRANCH  28  30
HETATM   30  C   UNL     1      17.056  17.339  -5.213  1.00  0.00     0.080 C 
BRANCH  30  31
HETATM   31  C   UNL     1      18.253  17.764  -6.051  1.00  0.00     0.033 C 
BRANCH  31  32
HETATM   32  C   UNL     1      19.230  18.757  -5.409  1.00  0.00     0.164 C 
BRANCH  32  33
HETATM   33  O   UNL     1      18.804  20.103  -5.572  1.00  0.00    -0.401 OA
ATOM     34  HO  UNL     1      19.409  20.718  -5.174  1.00  0.00     0.209 HD
ENDBRANCH  32  33
ENDBRANCH  31  32
ENDBRANCH  30  31
ENDBRANCH  28  30
ENDBRANCH  27  28
ENDBRANCH   3  27
TORSDOF 9
