REMARK  3 active torsions:
REMARK  status: ('A' for Active; 'I' for Inactive)
REMARK    1  A    between atoms: N_7  and  C_9 
REMARK    2  A    between atoms: N_7  and  C_30 
REMARK    3  A    between atoms: C_23  and  O_27 
ROOT
HETATM    1  C   UNL     1      13.850  19.957  -4.375  1.00  0.00    -0.014 C 
HETATM    2  C   UNL     1      12.116  18.702  -6.191  1.00  0.00    -0.006 C 
HETATM    3  C   UNL     1      13.580  17.120  -9.718  1.00  0.00     0.022 C 
HETATM    4  C   UNL     1      13.364  20.754  -5.583  1.00  0.00     0.009 C 
HETATM    5  C   UNL     1      11.401  20.061  -4.328  1.00  0.00     0.005 C 
HETATM    6  C   UNL     1      13.348  17.884  -5.875  1.00  0.00    -0.009 C 
HETATM    7  C   UNL     1      11.970  20.140  -5.748  1.00  0.00    -0.010 C 
HETATM    8  C   UNL     1      12.321  16.509 -10.239  1.00  0.00    -0.012 C 
HETATM    9  C   UNL     1      14.107  17.579  -7.183  1.00  0.00     0.011 C 
HETATM   10  C   UNL     1      13.166  17.677  -8.365  1.00  0.00     0.003 C 
HETATM   11  C   UNL     1      12.623  19.738  -3.471  1.00  0.00     0.005 C 
HETATM   12  C   UNL     1      14.132  18.202 -10.637  1.00  0.00     0.015 C 
HETATM   13  C   UNL     1      11.807  17.063  -8.027  1.00  0.00     0.024 C 
HETATM   14  C   UNL     1      11.230  16.656  -9.356  1.00  0.00    -0.044 C 
HETATM   15  C   UNL     1      12.188  15.699 -11.368  1.00  0.00     0.099 C 
HETATM   16  C   UNL     1      14.259  18.572  -4.866  1.00  0.00     0.009 C 
HETATM   17  C   UNL     1       9.984  15.058 -10.660  1.00  0.00     0.033 C 
HETATM   18  C   UNL     1      11.112  18.073  -7.135  1.00  0.00     0.015 C 
HETATM   19  C   UNL     1      10.937  15.141 -11.679  1.00  0.00     0.066 C 
HETATM   20  C   UNL     1      10.152  15.780  -9.480  1.00  0.00     0.010 C 
ENDROOT
BRANCH  19  21
HETATM   21  N   UNL     1      10.716  14.739 -13.008  1.00  0.00    -0.354 N 
ATOM     22  HN  UNL     1      11.558  14.495 -13.530  1.00  0.00     0.166 HD
BRANCH  21  23
HETATM   23  C   UNL     1       9.524  14.622 -13.723  1.00  0.00     0.032 C 
HETATM   24  C   UNL     1       9.258  15.492 -14.774  1.00  0.00     0.029 C 
HETATM   25  C   UNL     1       8.468  15.415 -15.877  1.00  0.00     0.002 C 
HETATM   26  C   UNL     1       7.595  14.392 -16.251  1.00  0.00     0.000 C 
HETATM   27  C   UNL     1       7.106  13.458 -15.356  1.00  0.00     0.000 C 
HETATM   28  C   UNL     1       7.543  13.192 -14.083  1.00  0.00     0.002 C 
HETATM   29  C   UNL     1       8.641  13.604 -13.353  1.00  0.00     0.029 C 
ENDBRANCH  21  23
ENDBRANCH  19  21
BRANCH  15  30
HETATM   30  O   UNL     1      13.230  15.427 -12.130  1.00  0.00    -0.358 OA
ATOM     31  HO  UNL     1      13.139  14.876 -12.898  1.00  0.00     0.217 HD
ENDBRANCH  15  30
TORSDOF 3
