MODEL 1
REMARK VINA RESULT:      -7.2      0.000      0.000
REMARK  12 active torsions:
REMARK  status: ('A' for Active; 'I' for Inactive)
REMARK    1  A    between atoms: O_1  and  C_9 
REMARK    2  A    between atoms: C_4  and  C_9 
REMARK    3  A    between atoms: C_8  and  C_14 
REMARK    4  A    between atoms: C_9  and  O_12 
REMARK    5  A    between atoms: C_9  and  O_30 
REMARK    6  A    between atoms: O_10  and  P_17 
REMARK    7  A    between atoms: C_14  and  O_34 
REMARK    8  A    between atoms: S_16  and  N_27 
REMARK    9  A    between atoms: S_16  and  O_34 
REMARK   10  A    between atoms: P_17  and  C_18 
REMARK   11  A    between atoms: P_17  and  O_32 
REMARK   12  A    between atoms: C_21  and  N_27 
ROOT
HETATM    1  S   UNL     1      73.760  47.120  26.044  1.00  0.00     0.360 S 
HETATM    2  O   UNL     1      72.909  47.463  27.179  1.00  0.00    -0.176 OA
HETATM    3  O   UNL     1      74.279  48.348  25.477  1.00  0.00    -0.176 OA
ENDROOT
BRANCH   1   4
HETATM    4  N   UNL     1      73.149  46.215  24.859  1.00  0.00    -0.268 N 
ATOM      5  HN  UNL     1      73.671  45.868  24.053  1.00  0.00     0.177 HD
BRANCH   4   6
HETATM    6  C   UNL     1      71.763  45.974  25.111  1.00  0.00     0.256 C 
HETATM    7  C   UNL     1      71.410  44.632  25.663  1.00  0.00     0.154 C 
HETATM    8  C   UNL     1      69.988  44.533  25.297  1.00  0.00    -0.008 C 
HETATM    9  C   UNL     1      69.761  45.342  24.213  1.00  0.00     0.079 C 
HETATM   10  C   UNL     1      69.024  44.082  26.170  1.00  0.00     0.011 C 
HETATM   11  C   UNL     1      68.719  45.346  23.318  1.00  0.00     0.037 C 
HETATM   12  O   UNL     1      70.868  46.178  24.012  1.00  0.00    -0.324 OA
HETATM   13  C   UNL     1      67.465  44.826  23.586  1.00  0.00     0.003 C 
HETATM   14  C   UNL     1      67.026  44.343  24.775  1.00  0.00     0.000 C 
HETATM   15  C   UNL     1      67.680  44.002  25.919  1.00  0.00     0.001 C 
BRANCH   7  16
HETATM   16  P   UNL     1      72.430  43.300  25.437  1.00  0.00     0.176 P 
BRANCH  16  17
HETATM   17  O   UNL     1      71.813  42.079  25.891  1.00  0.00    -0.349 OA
ATOM     18  HO  UNL     1      72.084  41.860  26.776  1.00  0.00     0.217 HD
ENDBRANCH  16  17
BRANCH  16  19
HETATM   19  O   UNL     1      73.776  43.614  25.101  1.00  0.00    -0.349 OA
ATOM     20  HO  UNL     1      74.581  43.570  25.604  1.00  0.00     0.217 HD
ENDBRANCH  16  19
ENDBRANCH   7  16
ENDBRANCH   4   6
ENDBRANCH   1   4
BRANCH   1  21
HETATM   21  O   UNL     1      74.765  46.152  26.649  1.00  0.00    -0.255 OA
BRANCH  21  22
HETATM   22  C   UNL     1      74.972  46.100  28.039  1.00  0.00     0.236 C 
BRANCH  22  23
HETATM   23  C   UNL     1      74.583  44.727  28.501  1.00  0.00     0.036 C 
HETATM   24  C   UNL     1      75.362  43.589  28.166  1.00  0.00     0.253 C 
HETATM   25  O   UNL     1      76.517  43.620  27.707  1.00  0.00    -0.268 OA
HETATM   26  N   UNL     1      74.798  42.371  28.370  1.00  0.00    -0.332 N 
HETATM   27  C   UNL     1      73.525  42.225  28.805  1.00  0.00     0.106 C 
ATOM     28  HN  UNL     1      75.354  41.535  28.187  1.00  0.00     0.168 HD
HETATM   29  C   UNL     1      72.828  43.325  29.234  1.00  0.00     0.049 C 
HETATM   30  C   UNL     1      73.416  44.571  29.213  1.00  0.00     0.031 C 
BRANCH  29  31
HETATM   31  C   UNL     1      71.377  43.217  29.592  1.00  0.00     0.308 C 
BRANCH  31  32
HETATM   32  O   UNL     1      70.880  44.517  29.616  1.00  0.00    -0.339 OA
ATOM     33  HO  UNL     1      71.509  45.037  30.101  1.00  0.00     0.216 HD
ENDBRANCH  31  32
BRANCH  31  34
HETATM   34  O   UNL     1      70.762  42.435  28.638  1.00  0.00    -0.339 OA
ATOM     35  HO  UNL     1      70.986  42.699  27.753  1.00  0.00     0.216 HD
ENDBRANCH  31  34
BRANCH  31  36
HETATM   36  O   UNL     1      71.206  42.645  30.837  1.00  0.00    -0.339 OA
ATOM     37  HO  UNL     1      71.753  41.872  30.901  1.00  0.00     0.216 HD
ENDBRANCH  31  36
ENDBRANCH  29  31
ENDBRANCH  22  23
ENDBRANCH  21  22
ENDBRANCH   1  21
TORSDOF 12
ENDMDL
MODEL 2
REMARK VINA RESULT:      -7.1      3.541      4.839
REMARK  12 active torsions:
REMARK  status: ('A' for Active; 'I' for Inactive)
REMARK    1  A    between atoms: O_1  and  C_9 
REMARK    2  A    between atoms: C_4  and  C_9 
REMARK    3  A    between atoms: C_8  and  C_14 
REMARK    4  A    between atoms: C_9  and  O_12 
REMARK    5  A    between atoms: C_9  and  O_30 
REMARK    6  A    between atoms: O_10  and  P_17 
REMARK    7  A    between atoms: C_14  and  O_34 
REMARK    8  A    between atoms: S_16  and  N_27 
REMARK    9  A    between atoms: S_16  and  O_34 
REMARK   10  A    between atoms: P_17  and  C_18 
REMARK   11  A    between atoms: P_17  and  O_32 
REMARK   12  A    between atoms: C_21  and  N_27 
ROOT
HETATM    1  S   UNL     1      70.851  45.162  23.979  1.00  0.00     0.360 S 
HETATM    2  O   UNL     1      71.709  46.246  24.449  1.00  0.00    -0.176 OA
HETATM    3  O   UNL     1      71.521  44.493  22.882  1.00  0.00    -0.176 OA
ENDROOT
BRANCH   1   4
HETATM    4  N   UNL     1      69.339  45.504  23.535  1.00  0.00    -0.268 N 
ATOM      5  HN  UNL     1      68.734  44.893  22.986  1.00  0.00     0.177 HD
BRANCH   4   6
HETATM    6  C   UNL     1      68.979  46.795  24.032  1.00  0.00     0.256 C 
HETATM    7  C   UNL     1      68.044  46.824  25.196  1.00  0.00     0.154 C 
HETATM    8  C   UNL     1      67.491  48.184  25.091  1.00  0.00    -0.008 C 
HETATM    9  C   UNL     1      67.596  48.595  23.787  1.00  0.00     0.079 C 
HETATM   10  C   UNL     1      67.345  49.014  26.178  1.00  0.00     0.011 C 
HETATM   11  C   UNL     1      66.946  49.610  23.127  1.00  0.00     0.037 C 
HETATM   12  O   UNL     1      68.428  47.714  23.082  1.00  0.00    -0.324 OA
HETATM   13  C   UNL     1      66.384  50.708  23.755  1.00  0.00     0.003 C 
HETATM   14  C   UNL     1      66.473  51.020  25.072  1.00  0.00     0.000 C 
HETATM   15  C   UNL     1      66.881  50.302  26.155  1.00  0.00     0.001 C 
BRANCH   7  16
HETATM   16  P   UNL     1      67.013  45.521  25.519  1.00  0.00     0.176 P 
BRANCH  16  17
HETATM   17  O   UNL     1      65.649  45.956  25.686  1.00  0.00    -0.349 OA
ATOM     18  HO  UNL     1      65.033  45.291  25.398  1.00  0.00     0.217 HD
ENDBRANCH  16  17
BRANCH  16  19
HETATM   19  O   UNL     1      67.661  44.293  25.829  1.00  0.00    -0.349 OA
ATOM     20  HO  UNL     1      68.573  44.082  25.991  1.00  0.00     0.217 HD
ENDBRANCH  16  19
ENDBRANCH   7  16
ENDBRANCH   4   6
ENDBRANCH   1   4
BRANCH   1  21
HETATM   21  O   UNL     1      70.598  44.352  25.242  1.00  0.00    -0.255 OA
BRANCH  21  22
HETATM   22  C   UNL     1      70.879  42.975  25.284  1.00  0.00     0.236 C 
BRANCH  22  23
HETATM   23  C   UNL     1      71.339  42.652  26.675  1.00  0.00     0.036 C 
HETATM   24  C   UNL     1      70.442  42.685  27.774  1.00  0.00     0.253 C 
HETATM   25  O   UNL     1      69.202  42.725  27.687  1.00  0.00    -0.268 OA
HETATM   26  N   UNL     1      70.985  42.668  29.018  1.00  0.00    -0.332 N 
HETATM   27  C   UNL     1      72.323  42.688  29.224  1.00  0.00     0.106 C 
ATOM     28  HN  UNL     1      70.363  42.638  29.826  1.00  0.00     0.168 HD
HETATM   29  C   UNL     1      73.173  42.538  28.160  1.00  0.00     0.049 C 
HETATM   30  C   UNL     1      72.670  42.377  26.887  1.00  0.00     0.031 C 
BRANCH  29  31
HETATM   31  C   UNL     1      74.653  42.694  28.337  1.00  0.00     0.308 C 
BRANCH  31  32
HETATM   32  O   UNL     1      75.104  43.433  27.248  1.00  0.00    -0.339 OA
ATOM     33  HO  UNL     1      75.450  42.807  26.622  1.00  0.00     0.216 HD
ENDBRANCH  31  32
BRANCH  31  34
HETATM   34  O   UNL     1      74.872  43.336  29.536  1.00  0.00    -0.339 OA
ATOM     35  HO  UNL     1      74.189  43.159  30.172  1.00  0.00     0.216 HD
ENDBRANCH  31  34
BRANCH  31  36
HETATM   36  O   UNL     1      75.291  41.469  28.347  1.00  0.00    -0.339 OA
ATOM     37  HO  UNL     1      74.640  40.780  28.407  1.00  0.00     0.216 HD
ENDBRANCH  31  36
ENDBRANCH  29  31
ENDBRANCH  22  23
ENDBRANCH  21  22
ENDBRANCH   1  21
TORSDOF 12
ENDMDL
MODEL 3
REMARK VINA RESULT:      -7.0      4.533      6.312
REMARK  12 active torsions:
REMARK  status: ('A' for Active; 'I' for Inactive)
REMARK    1  A    between atoms: O_1  and  C_9 
REMARK    2  A    between atoms: C_4  and  C_9 
REMARK    3  A    between atoms: C_8  and  C_14 
REMARK    4  A    between atoms: C_9  and  O_12 
REMARK    5  A    between atoms: C_9  and  O_30 
REMARK    6  A    between atoms: O_10  and  P_17 
REMARK    7  A    between atoms: C_14  and  O_34 
REMARK    8  A    between atoms: S_16  and  N_27 
REMARK    9  A    between atoms: S_16  and  O_34 
REMARK   10  A    between atoms: P_17  and  C_18 
REMARK   11  A    between atoms: P_17  and  O_32 
REMARK   12  A    between atoms: C_21  and  N_27 
ROOT
HETATM    1  S   UNL     1      69.420  46.154  23.680  1.00  0.00     0.360 S 
HETATM    2  O   UNL     1      70.577  46.335  24.552  1.00  0.00    -0.176 OA
HETATM    3  O   UNL     1      69.685  46.831  22.427  1.00  0.00    -0.176 OA
ENDROOT
BRANCH   1   4
HETATM    4  N   UNL     1      67.966  46.598  24.215  1.00  0.00    -0.268 N 
ATOM      5  HN  UNL     1      67.265  45.969  24.607  1.00  0.00     0.177 HD
BRANCH   4   6
HETATM    6  C   UNL     1      67.812  48.010  24.057  1.00  0.00     0.256 C 
HETATM    7  C   UNL     1      67.089  48.728  25.149  1.00  0.00     0.154 C 
HETATM    8  C   UNL     1      66.652  49.950  24.454  1.00  0.00    -0.008 C 
HETATM    9  C   UNL     1      66.576  49.681  23.111  1.00  0.00     0.079 C 
HETATM   10  C   UNL     1      66.764  51.203  25.010  1.00  0.00     0.011 C 
HETATM   11  C   UNL     1      65.922  50.360  22.112  1.00  0.00     0.037 C 
HETATM   12  O   UNL     1      67.197  48.453  22.842  1.00  0.00    -0.324 OA
HETATM   13  C   UNL     1      65.573  51.697  22.181  1.00  0.00     0.003 C 
HETATM   14  C   UNL     1      65.907  52.570  23.165  1.00  0.00     0.000 C 
HETATM   15  C   UNL     1      66.422  52.387  24.412  1.00  0.00     0.001 C 
BRANCH   7  16
HETATM   16  P   UNL     1      66.011  47.910  26.166  1.00  0.00     0.176 P 
BRANCH  16  17
HETATM   17  O   UNL     1      65.334  46.844  25.471  1.00  0.00    -0.349 OA
ATOM     18  HO  UNL     1      64.637  46.472  25.998  1.00  0.00     0.217 HD
ENDBRANCH  16  17
BRANCH  16  19
HETATM   19  O   UNL     1      65.753  48.542  27.414  1.00  0.00    -0.349 OA
ATOM     20  HO  UNL     1      66.153  49.292  27.840  1.00  0.00     0.217 HD
ENDBRANCH  16  19
ENDBRANCH   7  16
ENDBRANCH   4   6
ENDBRANCH   1   4
BRANCH   1  21
HETATM   21  O   UNL     1      69.256  44.642  23.637  1.00  0.00    -0.255 OA
BRANCH  21  22
HETATM   22  C   UNL     1      68.315  43.995  24.457  1.00  0.00     0.236 C 
BRANCH  22  23
HETATM   23  C   UNL     1      69.075  43.268  25.527  1.00  0.00     0.036 C 
HETATM   24  C   UNL     1      68.495  43.007  26.795  1.00  0.00     0.253 C 
HETATM   25  O   UNL     1      67.285  43.106  27.064  1.00  0.00    -0.268 OA
HETATM   26  N   UNL     1      69.330  42.613  27.790  1.00  0.00    -0.332 N 
HETATM   27  C   UNL     1      70.671  42.534  27.621  1.00  0.00     0.106 C 
ATOM     28  HN  UNL     1      68.933  42.368  28.697  1.00  0.00     0.168 HD
HETATM   29  C   UNL     1      71.203  42.675  26.366  1.00  0.00     0.049 C 
HETATM   30  C   UNL     1      70.380  42.905  25.285  1.00  0.00     0.031 C 
BRANCH  29  31
HETATM   31  C   UNL     1      72.687  42.730  26.168  1.00  0.00     0.308 C 
BRANCH  31  32
HETATM   32  O   UNL     1      73.143  41.417  26.239  1.00  0.00    -0.339 OA
ATOM     33  HO  UNL     1      72.464  40.920  26.681  1.00  0.00     0.216 HD
ENDBRANCH  31  32
BRANCH  31  34
HETATM   34  O   UNL     1      72.931  43.306  24.940  1.00  0.00    -0.339 OA
ATOM     35  HO  UNL     1      73.859  43.384  24.753  1.00  0.00     0.216 HD
ENDBRANCH  31  34
BRANCH  31  36
HETATM   36  O   UNL     1      73.301  43.475  27.155  1.00  0.00    -0.339 OA
ATOM     37  HO  UNL     1      73.722  42.887  27.771  1.00  0.00     0.216 HD
ENDBRANCH  31  36
ENDBRANCH  29  31
ENDBRANCH  22  23
ENDBRANCH  21  22
ENDBRANCH   1  21
TORSDOF 12
ENDMDL
MODEL 4
REMARK VINA RESULT:      -6.9      3.091      7.394
REMARK  12 active torsions:
REMARK  status: ('A' for Active; 'I' for Inactive)
REMARK    1  A    between atoms: O_1  and  C_9 
REMARK    2  A    between atoms: C_4  and  C_9 
REMARK    3  A    between atoms: C_8  and  C_14 
REMARK    4  A    between atoms: C_9  and  O_12 
REMARK    5  A    between atoms: C_9  and  O_30 
REMARK    6  A    between atoms: O_10  and  P_17 
REMARK    7  A    between atoms: C_14  and  O_34 
REMARK    8  A    between atoms: S_16  and  N_27 
REMARK    9  A    between atoms: S_16  and  O_34 
REMARK   10  A    between atoms: P_17  and  C_18 
REMARK   11  A    between atoms: P_17  and  O_32 
REMARK   12  A    between atoms: C_21  and  N_27 
ROOT
HETATM    1  S   UNL     1      74.478  42.710  28.388  1.00  0.00     0.360 S 
HETATM    2  O   UNL     1      74.533  43.238  29.748  1.00  0.00    -0.176 OA
HETATM    3  O   UNL     1      75.207  41.459  28.354  1.00  0.00    -0.176 OA
ENDROOT
BRANCH   1   4
HETATM    4  N   UNL     1      74.981  43.641  27.172  1.00  0.00    -0.268 N 
ATOM      5  HN  UNL     1      74.455  43.832  26.319  1.00  0.00     0.177 HD
BRANCH   4   6
HETATM    6  C   UNL     1      76.279  44.157  27.474  1.00  0.00     0.256 C 
HETATM    7  C   UNL     1      76.406  45.643  27.540  1.00  0.00     0.154 C 
HETATM    8  C   UNL     1      77.851  45.821  27.325  1.00  0.00    -0.008 C 
HETATM    9  C   UNL     1      78.326  44.731  26.640  1.00  0.00     0.079 C 
HETATM   10  C   UNL     1      78.615  46.682  28.078  1.00  0.00     0.011 C 
HETATM   11  C   UNL     1      79.492  44.574  25.931  1.00  0.00     0.037 C 
HETATM   12  O   UNL     1      77.352  43.722  26.632  1.00  0.00    -0.324 OA
HETATM   13  C   UNL     1      80.630  45.335  26.132  1.00  0.00     0.003 C 
HETATM   14  C   UNL     1      80.825  46.257  27.107  1.00  0.00     0.000 C 
HETATM   15  C   UNL     1      79.968  46.870  27.969  1.00  0.00     0.001 C 
BRANCH   7  16
HETATM   16  P   UNL     1      75.309  46.649  26.734  1.00  0.00     0.176 P 
BRANCH  16  17
HETATM   17  O   UNL     1      74.774  46.011  25.557  1.00  0.00    -0.349 OA
ATOM     18  HO  UNL     1      74.294  45.221  25.776  1.00  0.00     0.217 HD
ENDBRANCH  16  17
BRANCH  16  19
HETATM   19  O   UNL     1      75.288  48.002  27.171  1.00  0.00    -0.349 OA
ATOM     20  HO  UNL     1      75.316  48.388  28.039  1.00  0.00     0.217 HD
ENDBRANCH  16  19
ENDBRANCH   7  16
ENDBRANCH   4   6
ENDBRANCH   1   4
BRANCH   1  21
HETATM   21  O   UNL     1      72.984  42.655  28.102  1.00  0.00    -0.255 OA
BRANCH  21  22
HETATM   22  C   UNL     1      72.170  43.785  28.296  1.00  0.00     0.236 C 
BRANCH  22  23
HETATM   23  C   UNL     1      71.178  43.824  27.171  1.00  0.00     0.036 C 
HETATM   24  C   UNL     1      70.069  42.941  27.135  1.00  0.00     0.253 C 
HETATM   25  O   UNL     1      69.665  42.258  28.093  1.00  0.00    -0.268 OA
HETATM   26  N   UNL     1      69.393  42.841  25.962  1.00  0.00    -0.332 N 
HETATM   27  C   UNL     1      69.786  43.492  24.842  1.00  0.00     0.106 C 
ATOM     28  HN  UNL     1      68.560  42.253  25.923  1.00  0.00     0.168 HD
HETATM   29  C   UNL     1      70.785  44.427  24.920  1.00  0.00     0.049 C 
HETATM   30  C   UNL     1      71.391  44.697  26.128  1.00  0.00     0.031 C 
BRANCH  29  31
HETATM   31  C   UNL     1      71.334  45.063  23.680  1.00  0.00     0.308 C 
BRANCH  31  32
HETATM   32  O   UNL     1      71.396  44.060  22.717  1.00  0.00    -0.339 OA
ATOM     33  HO  UNL     1      71.293  43.236  23.180  1.00  0.00     0.216 HD
ENDBRANCH  31  32
BRANCH  31  34
HETATM   34  O   UNL     1      70.488  46.088  23.318  1.00  0.00    -0.339 OA
ATOM     35  HO  UNL     1      69.699  46.111  23.846  1.00  0.00     0.216 HD
ENDBRANCH  31  34
BRANCH  31  36
HETATM   36  O   UNL     1      72.603  45.565  23.890  1.00  0.00    -0.339 OA
ATOM     37  HO  UNL     1      73.213  44.842  23.977  1.00  0.00     0.216 HD
ENDBRANCH  31  36
ENDBRANCH  29  31
ENDBRANCH  22  23
ENDBRANCH  21  22
ENDBRANCH   1  21
TORSDOF 12
ENDMDL
MODEL 5
REMARK VINA RESULT:      -6.8      2.145      3.267
REMARK  12 active torsions:
REMARK  status: ('A' for Active; 'I' for Inactive)
REMARK    1  A    between atoms: O_1  and  C_9 
REMARK    2  A    between atoms: C_4  and  C_9 
REMARK    3  A    between atoms: C_8  and  C_14 
REMARK    4  A    between atoms: C_9  and  O_12 
REMARK    5  A    between atoms: C_9  and  O_30 
REMARK    6  A    between atoms: O_10  and  P_17 
REMARK    7  A    between atoms: C_14  and  O_34 
REMARK    8  A    between atoms: S_16  and  N_27 
REMARK    9  A    between atoms: S_16  and  O_34 
REMARK   10  A    between atoms: P_17  and  C_18 
REMARK   11  A    between atoms: P_17  and  O_32 
REMARK   12  A    between atoms: C_21  and  N_27 
ROOT
HETATM    1  S   UNL     1      71.693  46.724  29.069  1.00  0.00     0.360 S 
HETATM    2  O   UNL     1      71.384  47.320  30.365  1.00  0.00    -0.176 OA
HETATM    3  O   UNL     1      71.301  47.657  28.033  1.00  0.00    -0.176 OA
ENDROOT
BRANCH   1   4
HETATM    4  N   UNL     1      71.091  45.271  28.718  1.00  0.00    -0.268 N 
ATOM      5  HN  UNL     1      71.354  44.398  29.175  1.00  0.00     0.177 HD
BRANCH   4   6
HETATM    6  C   UNL     1      70.130  45.396  27.667  1.00  0.00     0.256 C 
HETATM    7  C   UNL     1      69.045  44.370  27.630  1.00  0.00     0.154 C 
HETATM    8  C   UNL     1      68.612  44.456  26.226  1.00  0.00    -0.008 C 
HETATM    9  C   UNL     1      69.653  44.946  25.480  1.00  0.00     0.079 C 
HETATM   10  C   UNL     1      67.287  44.479  25.856  1.00  0.00     0.011 C 
HETATM   11  C   UNL     1      69.864  44.900  24.123  1.00  0.00     0.037 C 
HETATM   12  O   UNL     1      70.646  45.449  26.332  1.00  0.00    -0.324 OA
HETATM   13  C   UNL     1      68.858  44.742  23.187  1.00  0.00     0.003 C 
HETATM   14  C   UNL     1      67.523  44.721  23.429  1.00  0.00     0.000 C 
HETATM   15  C   UNL     1      66.806  44.601  24.580  1.00  0.00     0.001 C 
BRANCH   7  16
HETATM   16  P   UNL     1      69.254  42.854  28.353  1.00  0.00     0.176 P 
BRANCH  16  17
HETATM   17  O   UNL     1      70.305  42.103  27.711  1.00  0.00    -0.349 OA
ATOM     18  HO  UNL     1      70.169  42.047  26.772  1.00  0.00     0.217 HD
ENDBRANCH  16  17
BRANCH  16  19
HETATM   19  O   UNL     1      68.231  42.466  29.261  1.00  0.00    -0.349 OA
ATOM     20  HO  UNL     1      67.827  41.624  29.438  1.00  0.00     0.217 HD
ENDBRANCH  16  19
ENDBRANCH   7  16
ENDBRANCH   4   6
ENDBRANCH   1   4
BRANCH   1  21
HETATM   21  O   UNL     1      73.174  46.394  29.188  1.00  0.00    -0.255 OA
BRANCH  21  22
HETATM   22  C   UNL     1      74.051  46.611  28.111  1.00  0.00     0.236 C 
BRANCH  22  23
HETATM   23  C   UNL     1      74.010  45.387  27.244  1.00  0.00     0.036 C 
HETATM   24  C   UNL     1      73.613  45.459  25.884  1.00  0.00     0.253 C 
HETATM   25  O   UNL     1      73.512  46.507  25.222  1.00  0.00    -0.268 OA
HETATM   26  N   UNL     1      73.325  44.289  25.259  1.00  0.00    -0.332 N 
HETATM   27  C   UNL     1      73.342  43.100  25.905  1.00  0.00     0.106 C 
ATOM     28  HN  UNL     1      73.088  44.307  24.267  1.00  0.00     0.168 HD
HETATM   29  C   UNL     1      73.839  43.031  27.180  1.00  0.00     0.049 C 
HETATM   30  C   UNL     1      74.308  44.166  27.805  1.00  0.00     0.031 C 
BRANCH  29  31
HETATM   31  C   UNL     1      73.744  41.760  27.969  1.00  0.00     0.308 C 
BRANCH  31  32
HETATM   32  O   UNL     1      73.176  40.813  27.122  1.00  0.00    -0.339 OA
ATOM     33  HO  UNL     1      73.631  40.886  26.292  1.00  0.00     0.216 HD
ENDBRANCH  31  32
BRANCH  31  34
HETATM   34  O   UNL     1      75.016  41.413  28.368  1.00  0.00    -0.339 OA
ATOM     35  HO  UNL     1      75.385  42.036  28.984  1.00  0.00     0.216 HD
ENDBRANCH  31  34
BRANCH  31  36
HETATM   36  O   UNL     1      72.938  41.914  29.079  1.00  0.00    -0.339 OA
ATOM     37  HO  UNL     1      72.343  41.176  29.135  1.00  0.00     0.216 HD
ENDBRANCH  31  36
ENDBRANCH  29  31
ENDBRANCH  22  23
ENDBRANCH  21  22
ENDBRANCH   1  21
TORSDOF 12
ENDMDL
MODEL 6
REMARK VINA RESULT:      -6.8      2.437      4.404
REMARK  12 active torsions:
REMARK  status: ('A' for Active; 'I' for Inactive)
REMARK    1  A    between atoms: O_1  and  C_9 
REMARK    2  A    between atoms: C_4  and  C_9 
REMARK    3  A    between atoms: C_8  and  C_14 
REMARK    4  A    between atoms: C_9  and  O_12 
REMARK    5  A    between atoms: C_9  and  O_30 
REMARK    6  A    between atoms: O_10  and  P_17 
REMARK    7  A    between atoms: C_14  and  O_34 
REMARK    8  A    between atoms: S_16  and  N_27 
REMARK    9  A    between atoms: S_16  and  O_34 
REMARK   10  A    between atoms: P_17  and  C_18 
REMARK   11  A    between atoms: P_17  and  O_32 
REMARK   12  A    between atoms: C_21  and  N_27 
ROOT
HETATM    1  S   UNL     1      73.078  41.956  28.272  1.00  0.00     0.360 S 
HETATM    2  O   UNL     1      74.001  40.843  28.468  1.00  0.00    -0.176 OA
HETATM    3  O   UNL     1      72.609  42.395  29.570  1.00  0.00    -0.176 OA
ENDROOT
BRANCH   1   4
HETATM    4  N   UNL     1      71.808  41.751  27.300  1.00  0.00    -0.268 N 
ATOM      5  HN  UNL     1      71.308  40.873  27.161  1.00  0.00     0.177 HD
BRANCH   4   6
HETATM    6  C   UNL     1      71.492  42.991  26.663  1.00  0.00     0.256 C 
HETATM    7  C   UNL     1      70.357  43.768  27.246  1.00  0.00     0.154 C 
HETATM    8  C   UNL     1      69.976  44.622  26.109  1.00  0.00    -0.008 C 
HETATM    9  C   UNL     1      70.373  44.004  24.951  1.00  0.00     0.079 C 
HETATM   10  C   UNL     1      69.707  45.964  26.244  1.00  0.00     0.011 C 
HETATM   11  C   UNL     1      69.970  44.218  23.655  1.00  0.00     0.037 C 
HETATM   12  O   UNL     1      71.232  42.939  25.257  1.00  0.00    -0.324 OA
HETATM   13  C   UNL     1      69.411  45.400  23.201  1.00  0.00     0.003 C 
HETATM   14  C   UNL     1      69.274  46.552  23.904  1.00  0.00     0.000 C 
HETATM   15  C   UNL     1      69.390  46.831  25.232  1.00  0.00     0.001 C 
BRANCH   7  16
HETATM   16  P   UNL     1      69.156  43.004  28.161  1.00  0.00     0.176 P 
BRANCH  16  17
HETATM   17  O   UNL     1      69.519  42.929  29.554  1.00  0.00    -0.349 OA
ATOM     18  HO  UNL     1      70.318  43.414  29.732  1.00  0.00     0.217 HD
ENDBRANCH  16  17
BRANCH  16  19
HETATM   19  O   UNL     1      68.145  42.344  27.409  1.00  0.00    -0.349 OA
ATOM     20  HO  UNL     1      68.033  42.215  26.474  1.00  0.00     0.217 HD
ENDBRANCH  16  19
ENDBRANCH   7  16
ENDBRANCH   4   6
ENDBRANCH   1   4
BRANCH   1  21
HETATM   21  O   UNL     1      73.901  42.944  27.456  1.00  0.00    -0.255 OA
BRANCH  21  22
HETATM   22  C   UNL     1      75.263  43.150  27.734  1.00  0.00     0.236 C 
BRANCH  22  23
HETATM   23  C   UNL     1      75.638  44.491  27.176  1.00  0.00     0.036 C 
HETATM   24  C   UNL     1      76.913  45.063  27.425  1.00  0.00     0.253 C 
HETATM   25  O   UNL     1      77.896  44.452  27.880  1.00  0.00    -0.268 OA
HETATM   26  N   UNL     1      77.068  46.380  27.138  1.00  0.00    -0.332 N 
HETATM   27  C   UNL     1      76.046  47.151  26.698  1.00  0.00     0.106 C 
ATOM     28  HN  UNL     1      77.988  46.804  27.258  1.00  0.00     0.168 HD
HETATM   29  C   UNL     1      74.857  46.563  26.352  1.00  0.00     0.049 C 
HETATM   30  C   UNL     1      74.700  45.199  26.460  1.00  0.00     0.031 C 
BRANCH  29  31
HETATM   31  C   UNL     1      73.667  47.401  25.994  1.00  0.00     0.308 C 
BRANCH  31  32
HETATM   32  O   UNL     1      74.165  48.582  25.453  1.00  0.00    -0.339 OA
ATOM     33  HO  UNL     1      74.771  48.329  24.766  1.00  0.00     0.216 HD
ENDBRANCH  31  32
BRANCH  31  34
HETATM   34  O   UNL     1      72.904  46.690  25.094  1.00  0.00    -0.339 OA
ATOM     35  HO  UNL     1      73.169  46.840  24.195  1.00  0.00     0.216 HD
ENDBRANCH  31  34
BRANCH  31  36
HETATM   36  O   UNL     1      72.908  47.700  27.108  1.00  0.00    -0.339 OA
ATOM     37  HO  UNL     1      73.397  48.290  27.668  1.00  0.00     0.216 HD
ENDBRANCH  31  36
ENDBRANCH  29  31
ENDBRANCH  22  23
ENDBRANCH  21  22
ENDBRANCH   1  21
TORSDOF 12
ENDMDL
MODEL 7
REMARK VINA RESULT:      -6.7      3.186      6.867
REMARK  12 active torsions:
REMARK  status: ('A' for Active; 'I' for Inactive)
REMARK    1  A    between atoms: O_1  and  C_9 
REMARK    2  A    between atoms: C_4  and  C_9 
REMARK    3  A    between atoms: C_8  and  C_14 
REMARK    4  A    between atoms: C_9  and  O_12 
REMARK    5  A    between atoms: C_9  and  O_30 
REMARK    6  A    between atoms: O_10  and  P_17 
REMARK    7  A    between atoms: C_14  and  O_34 
REMARK    8  A    between atoms: S_16  and  N_27 
REMARK    9  A    between atoms: S_16  and  O_34 
REMARK   10  A    between atoms: P_17  and  C_18 
REMARK   11  A    between atoms: P_17  and  O_32 
REMARK   12  A    between atoms: C_21  and  N_27 
ROOT
HETATM    1  S   UNL     1      74.526  42.641  27.873  1.00  0.00     0.360 S 
HETATM    2  O   UNL     1      74.638  41.204  28.104  1.00  0.00    -0.176 OA
HETATM    3  O   UNL     1      75.859  43.183  27.708  1.00  0.00    -0.176 OA
ENDROOT
BRANCH   1   4
HETATM    4  N   UNL     1      73.726  43.541  28.945  1.00  0.00    -0.268 N 
ATOM      5  HN  UNL     1      73.385  44.489  28.781  1.00  0.00     0.177 HD
BRANCH   4   6
HETATM    6  C   UNL     1      73.568  42.805  30.160  1.00  0.00     0.256 C 
HETATM    7  C   UNL     1      72.180  42.707  30.703  1.00  0.00     0.154 C 
HETATM    8  C   UNL     1      72.444  42.402  32.119  1.00  0.00    -0.008 C 
HETATM    9  C   UNL     1      73.693  42.870  32.438  1.00  0.00     0.079 C 
HETATM   10  C   UNL     1      71.755  41.433  32.812  1.00  0.00     0.011 C 
HETATM   11  C   UNL     1      74.252  43.123  33.667  1.00  0.00     0.037 C 
HETATM   12  O   UNL     1      74.379  43.214  31.265  1.00  0.00    -0.324 OA
HETATM   13  C   UNL     1      73.827  42.540  34.848  1.00  0.00     0.003 C 
HETATM   14  C   UNL     1      72.895  41.564  34.978  1.00  0.00     0.000 C 
HETATM   15  C   UNL     1      71.971  41.062  34.112  1.00  0.00     0.001 C 
BRANCH   7  16
HETATM   16  P   UNL     1      71.002  43.853  30.298  1.00  0.00     0.176 P 
BRANCH  16  17
HETATM   17  O   UNL     1      69.677  43.287  30.342  1.00  0.00    -0.349 OA
ATOM     18  HO  UNL     1      69.366  43.196  31.236  1.00  0.00     0.217 HD
ENDBRANCH  16  17
BRANCH  16  19
HETATM   19  O   UNL     1      71.497  45.064  29.741  1.00  0.00    -0.349 OA
ATOM     20  HO  UNL     1      71.317  45.503  28.917  1.00  0.00     0.217 HD
ENDBRANCH  16  19
ENDBRANCH   7  16
ENDBRANCH   4   6
ENDBRANCH   1   4
BRANCH   1  21
HETATM   21  O   UNL     1      73.586  42.723  26.679  1.00  0.00    -0.255 OA
BRANCH  21  22
HETATM   22  C   UNL     1      72.908  43.916  26.375  1.00  0.00     0.236 C 
BRANCH  22  23
HETATM   23  C   UNL     1      71.587  43.542  25.768  1.00  0.00     0.036 C 
HETATM   24  C   UNL     1      71.279  43.860  24.420  1.00  0.00     0.253 C 
HETATM   25  O   UNL     1      72.103  44.223  23.563  1.00  0.00    -0.268 OA
HETATM   26  N   UNL     1      69.981  43.752  24.039  1.00  0.00    -0.332 N 
HETATM   27  C   UNL     1      68.996  43.426  24.909  1.00  0.00     0.106 C 
ATOM     28  HN  UNL     1      69.739  43.923  23.063  1.00  0.00     0.168 HD
HETATM   29  C   UNL     1      69.321  43.010  26.174  1.00  0.00     0.049 C 
HETATM   30  C   UNL     1      70.641  42.933  26.561  1.00  0.00     0.031 C 
BRANCH  29  31
HETATM   31  C   UNL     1      68.254  42.775  27.198  1.00  0.00     0.308 C 
BRANCH  31  32
HETATM   32  O   UNL     1      68.777  41.863  28.110  1.00  0.00    -0.339 OA
ATOM     33  HO  UNL     1      69.355  41.292  27.618  1.00  0.00     0.216 HD
ENDBRANCH  31  32
BRANCH  31  34
HETATM   34  O   UNL     1      67.950  43.986  27.780  1.00  0.00    -0.339 OA
ATOM     35  HO  UNL     1      68.342  44.719  27.319  1.00  0.00     0.216 HD
ENDBRANCH  31  34
BRANCH  31  36
HETATM   36  O   UNL     1      67.116  42.240  26.627  1.00  0.00    -0.339 OA
ATOM     37  HO  UNL     1      66.383  42.368  27.217  1.00  0.00     0.216 HD
ENDBRANCH  31  36
ENDBRANCH  29  31
ENDBRANCH  22  23
ENDBRANCH  21  22
ENDBRANCH   1  21
TORSDOF 12
ENDMDL
MODEL 8
REMARK VINA RESULT:      -6.7      3.224      7.091
REMARK  12 active torsions:
REMARK  status: ('A' for Active; 'I' for Inactive)
REMARK    1  A    between atoms: O_1  and  C_9 
REMARK    2  A    between atoms: C_4  and  C_9 
REMARK    3  A    between atoms: C_8  and  C_14 
REMARK    4  A    between atoms: C_9  and  O_12 
REMARK    5  A    between atoms: C_9  and  O_30 
REMARK    6  A    between atoms: O_10  and  P_17 
REMARK    7  A    between atoms: C_14  and  O_34 
REMARK    8  A    between atoms: S_16  and  N_27 
REMARK    9  A    between atoms: S_16  and  O_34 
REMARK   10  A    between atoms: P_17  and  C_18 
REMARK   11  A    between atoms: P_17  and  O_32 
REMARK   12  A    between atoms: C_21  and  N_27 
ROOT
HETATM    1  S   UNL     1      74.549  42.664  28.397  1.00  0.00     0.360 S 
HETATM    2  O   UNL     1      74.687  43.209  29.744  1.00  0.00    -0.176 OA
HETATM    3  O   UNL     1      75.240  41.392  28.346  1.00  0.00    -0.176 OA
ENDROOT
BRANCH   1   4
HETATM    4  N   UNL     1      75.018  43.563  27.143  1.00  0.00    -0.268 N 
ATOM      5  HN  UNL     1      74.495  43.683  26.276  1.00  0.00     0.177 HD
BRANCH   4   6
HETATM    6  C   UNL     1      76.280  44.165  27.437  1.00  0.00     0.256 C 
HETATM    7  C   UNL     1      76.327  45.658  27.412  1.00  0.00     0.154 C 
HETATM    8  C   UNL     1      77.766  45.900  27.213  1.00  0.00    -0.008 C 
HETATM    9  C   UNL     1      78.311  44.797  26.606  1.00  0.00     0.079 C 
HETATM   10  C   UNL     1      78.467  46.846  27.925  1.00  0.00     0.011 C 
HETATM   11  C   UNL     1      79.499  44.660  25.930  1.00  0.00     0.037 C 
HETATM   12  O   UNL     1      77.392  43.739  26.643  1.00  0.00    -0.324 OA
HETATM   13  C   UNL     1      80.591  45.492  26.103  1.00  0.00     0.003 C 
HETATM   14  C   UNL     1      80.716  46.481  27.022  1.00  0.00     0.000 C 
HETATM   15  C   UNL     1      79.809  47.099  27.829  1.00  0.00     0.001 C 
BRANCH   7  16
HETATM   16  P   UNL     1      75.196  46.552  26.525  1.00  0.00     0.176 P 
BRANCH  16  17
HETATM   17  O   UNL     1      74.939  47.833  27.135  1.00  0.00    -0.349 OA
ATOM     18  HO  UNL     1      74.015  48.053  27.107  1.00  0.00     0.217 HD
ENDBRANCH  16  17
BRANCH  16  19
HETATM   19  O   UNL     1      74.505  45.827  25.515  1.00  0.00    -0.349 OA
ATOM     20  HO  UNL     1      74.346  44.898  25.398  1.00  0.00     0.217 HD
ENDBRANCH  16  19
ENDBRANCH   7  16
ENDBRANCH   4   6
ENDBRANCH   1   4
BRANCH   1  21
HETATM   21  O   UNL     1      73.042  42.649  28.185  1.00  0.00    -0.255 OA
BRANCH  21  22
HETATM   22  C   UNL     1      72.362  43.803  27.757  1.00  0.00     0.236 C 
BRANCH  22  23
HETATM   23  C   UNL     1      71.395  43.385  26.689  1.00  0.00     0.036 C 
HETATM   24  C   UNL     1      71.786  43.315  25.327  1.00  0.00     0.253 C 
HETATM   25  O   UNL     1      72.960  43.332  24.916  1.00  0.00    -0.268 OA
HETATM   26  N   UNL     1      70.797  43.215  24.402  1.00  0.00    -0.332 N 
HETATM   27  C   UNL     1      69.486  43.250  24.737  1.00  0.00     0.106 C 
ATOM     28  HN  UNL     1      71.051  43.110  23.420  1.00  0.00     0.168 HD
HETATM   29  C   UNL     1      69.125  43.201  26.059  1.00  0.00     0.049 C 
HETATM   30  C   UNL     1      70.090  43.125  27.040  1.00  0.00     0.031 C 
BRANCH  29  31
HETATM   31  C   UNL     1      67.694  43.377  26.466  1.00  0.00     0.308 C 
BRANCH  31  32
HETATM   32  O   UNL     1      67.031  43.898  25.360  1.00  0.00    -0.339 OA
ATOM     33  HO  UNL     1      66.849  43.165  24.784  1.00  0.00     0.216 HD
ENDBRANCH  31  32
BRANCH  31  34
HETATM   34  O   UNL     1      67.205  42.144  26.840  1.00  0.00    -0.339 OA
ATOM     35  HO  UNL     1      66.591  42.201  27.563  1.00  0.00     0.216 HD
ENDBRANCH  31  34
BRANCH  31  36
HETATM   36  O   UNL     1      67.575  44.259  27.521  1.00  0.00    -0.339 OA
ATOM     37  HO  UNL     1      66.716  44.665  27.491  1.00  0.00     0.216 HD
ENDBRANCH  31  36
ENDBRANCH  29  31
ENDBRANCH  22  23
ENDBRANCH  21  22
ENDBRANCH   1  21
TORSDOF 12
ENDMDL
MODEL 9
REMARK VINA RESULT:      -6.6      2.756      5.182
REMARK  12 active torsions:
REMARK  status: ('A' for Active; 'I' for Inactive)
REMARK    1  A    between atoms: O_1  and  C_9 
REMARK    2  A    between atoms: C_4  and  C_9 
REMARK    3  A    between atoms: C_8  and  C_14 
REMARK    4  A    between atoms: C_9  and  O_12 
REMARK    5  A    between atoms: C_9  and  O_30 
REMARK    6  A    between atoms: O_10  and  P_17 
REMARK    7  A    between atoms: C_14  and  O_34 
REMARK    8  A    between atoms: S_16  and  N_27 
REMARK    9  A    between atoms: S_16  and  O_34 
REMARK   10  A    between atoms: P_17  and  C_18 
REMARK   11  A    between atoms: P_17  and  O_32 
REMARK   12  A    between atoms: C_21  and  N_27 
ROOT
HETATM    1  S   UNL     1      73.867  41.560  28.266  1.00  0.00     0.360 S 
HETATM    2  O   UNL     1      74.015  40.119  28.084  1.00  0.00    -0.176 OA
HETATM    3  O   UNL     1      75.140  42.099  28.697  1.00  0.00    -0.176 OA
ENDROOT
BRANCH   1   4
HETATM    4  N   UNL     1      72.711  42.105  29.248  1.00  0.00    -0.268 N 
ATOM      5  HN  UNL     1      72.456  41.691  30.145  1.00  0.00     0.177 HD
BRANCH   4   6
HETATM    6  C   UNL     1      72.098  43.258  28.666  1.00  0.00     0.256 C 
HETATM    7  C   UNL     1      72.548  44.585  29.185  1.00  0.00     0.154 C 
HETATM    8  C   UNL     1      71.412  45.442  28.812  1.00  0.00    -0.008 C 
HETATM    9  C   UNL     1      70.293  44.657  28.698  1.00  0.00     0.079 C 
HETATM   10  C   UNL     1      71.573  46.685  28.244  1.00  0.00     0.011 C 
HETATM   11  C   UNL     1      68.965  45.008  28.700  1.00  0.00     0.037 C 
HETATM   12  O   UNL     1      70.667  43.306  28.698  1.00  0.00    -0.324 OA
HETATM   13  C   UNL     1      68.495  46.267  28.371  1.00  0.00     0.003 C 
HETATM   14  C   UNL     1      69.227  47.305  27.895  1.00  0.00     0.000 C 
HETATM   15  C   UNL     1      70.570  47.522  27.831  1.00  0.00     0.001 C 
BRANCH   7  16
HETATM   16  P   UNL     1      73.241  44.731  30.722  1.00  0.00     0.176 P 
BRANCH  16  17
HETATM   17  O   UNL     1      74.553  44.134  30.770  1.00  0.00    -0.349 OA
ATOM     18  HO  UNL     1      74.943  44.081  29.905  1.00  0.00     0.217 HD
ENDBRANCH  16  17
BRANCH  16  19
HETATM   19  O   UNL     1      72.356  45.157  31.751  1.00  0.00    -0.349 OA
ATOM     20  HO  UNL     1      71.538  44.796  32.073  1.00  0.00     0.217 HD
ENDBRANCH  16  19
ENDBRANCH   7  16
ENDBRANCH   4   6
ENDBRANCH   1   4
BRANCH   1  21
HETATM   21  O   UNL     1      73.333  42.022  26.918  1.00  0.00    -0.255 OA
BRANCH  21  22
HETATM   22  C   UNL     1      73.969  43.053  26.205  1.00  0.00     0.236 C 
BRANCH  22  23
HETATM   23  C   UNL     1      72.904  43.828  25.486  1.00  0.00     0.036 C 
HETATM   24  C   UNL     1      73.076  45.201  25.172  1.00  0.00     0.253 C 
HETATM   25  O   UNL     1      74.156  45.816  25.213  1.00  0.00    -0.268 OA
HETATM   26  N   UNL     1      71.972  45.893  24.791  1.00  0.00    -0.332 N 
HETATM   27  C   UNL     1      70.739  45.336  24.773  1.00  0.00     0.106 C 
ATOM     28  HN  UNL     1      72.076  46.867  24.508  1.00  0.00     0.168 HD
HETATM   29  C   UNL     1      70.605  43.985  24.965  1.00  0.00     0.049 C 
HETATM   30  C   UNL     1      71.716  43.202  25.184  1.00  0.00     0.031 C 
BRANCH  29  31
HETATM   31  C   UNL     1      69.247  43.363  25.087  1.00  0.00     0.308 C 
BRANCH  31  32
HETATM   32  O   UNL     1      68.342  44.413  25.206  1.00  0.00    -0.339 OA
ATOM     33  HO  UNL     1      67.612  44.205  24.635  1.00  0.00     0.216 HD
ENDBRANCH  31  32
BRANCH  31  34
HETATM   34  O   UNL     1      69.026  42.602  23.959  1.00  0.00    -0.339 OA
ATOM     35  HO  UNL     1      69.796  42.111  23.697  1.00  0.00     0.216 HD
ENDBRANCH  31  34
BRANCH  31  36
HETATM   36  O   UNL     1      69.159  42.561  26.208  1.00  0.00    -0.339 OA
ATOM     37  HO  UNL     1      69.598  42.991  26.932  1.00  0.00     0.216 HD
ENDBRANCH  31  36
ENDBRANCH  29  31
ENDBRANCH  22  23
ENDBRANCH  21  22
ENDBRANCH   1  21
TORSDOF 12
ENDMDL
