MODEL 1
REMARK VINA RESULT:      -7.2      0.000      0.000
REMARK  4 active torsions:
REMARK  status: ('A' for Active; 'I' for Inactive)
REMARK    1  A    between atoms: O_1  and  C_11 
REMARK    2  A    between atoms: C_10  and  C_11 
REMARK    3  A    between atoms: C_11  and  O_15 
REMARK    4  A    between atoms: C_11  and  C_18 
ROOT
HETATM    1  C   UNL     1       2.114  15.629  14.742  1.00  0.00     0.242 C 
ENDROOT
BRANCH   1   2
HETATM    2  O   UNL     1       3.053  16.193  15.621  1.00  0.00    -0.356 OA
ATOM      3  HO  UNL     1       3.347  17.028  15.274  1.00  0.00     0.214 HD
ENDBRANCH   1   2
BRANCH   1   4
HETATM    4  C   UNL     1       1.001  16.602  14.515  1.00  0.00     0.123 C 
HETATM    5  O   UNL     1       0.080  16.294  13.559  1.00  0.00    -0.283 OA
HETATM    6  C   UNL     1      -1.235  16.484  13.874  1.00  0.00     0.230 C 
HETATM    7  C   UNL     1      -1.761  17.740  14.068  1.00  0.00     0.069 C 
HETATM    8  F   UNL     1      -1.999  15.415  13.966  1.00  0.00    -0.178 F 
HETATM    9  C   UNL     1      -1.268  18.737  14.896  1.00  0.00     0.005 C 
HETATM   10  C   UNL     1      -0.028  18.667  15.483  1.00  0.00     0.003 C 
HETATM   11  C   UNL     1       0.946  17.736  15.274  1.00  0.00     0.039 C 
ENDBRANCH   1   4
BRANCH   1  12
HETATM   12  O   UNL     1       2.811  15.380  13.555  1.00  0.00    -0.356 OA
ATOM     13  HO  UNL     1       3.555  15.971  13.566  1.00  0.00     0.214 HD
ENDBRANCH   1  12
BRANCH   1  14
HETATM   14  C   UNL     1       1.512  14.382  15.335  1.00  0.00     0.025 C 
HETATM   15  C   UNL     1       1.261  14.326  16.689  1.00  0.00     0.014 C 
HETATM   16  C   UNL     1       0.124  13.728  17.213  1.00  0.00     0.002 C 
HETATM   17  C   UNL     1      -0.738  12.926  16.494  1.00  0.00     0.017 C 
HETATM   18  C   UNL     1      -0.765  12.610  15.191  1.00  0.00     0.087 C 
HETATM   19  N   UNL     1       0.206  12.697  14.269  1.00  0.00    -0.375 N 
HETATM   20  C   UNL     1       1.399  13.251  14.546  1.00  0.00     0.100 C 
ATOM     21  HN  UNL     1       0.034  12.332  13.331  1.00  0.00     0.164 HD
ENDBRANCH   1  14
TORSDOF 4
ENDMDL
MODEL 2
REMARK VINA RESULT:      -7.2      1.796      2.763
REMARK  4 active torsions:
REMARK  status: ('A' for Active; 'I' for Inactive)
REMARK    1  A    between atoms: O_1  and  C_11 
REMARK    2  A    between atoms: C_10  and  C_11 
REMARK    3  A    between atoms: C_11  and  O_15 
REMARK    4  A    between atoms: C_11  and  C_18 
ROOT
HETATM    1  C   UNL     1       1.510  14.657  14.247  1.00  0.00     0.242 C 
ENDROOT
BRANCH   1   2
HETATM    2  O   UNL     1       2.875  14.603  13.923  1.00  0.00    -0.356 OA
ATOM      3  HO  UNL     1       2.988  14.806  13.001  1.00  0.00     0.214 HD
ENDBRANCH   1   2
BRANCH   1   4
HETATM    4  C   UNL     1       1.331  15.451  15.503  1.00  0.00     0.123 C 
HETATM    5  O   UNL     1       0.764  16.685  15.391  1.00  0.00    -0.283 OA
HETATM    6  C   UNL     1      -0.199  17.014  16.302  1.00  0.00     0.230 C 
HETATM    7  C   UNL     1       0.093  17.197  17.634  1.00  0.00     0.069 C 
HETATM    8  F   UNL     1      -1.428  17.175  15.857  1.00  0.00    -0.178 F 
HETATM    9  C   UNL     1       0.790  16.334  18.465  1.00  0.00     0.005 C 
HETATM   10  C   UNL     1       1.486  15.249  17.991  1.00  0.00     0.003 C 
HETATM   11  C   UNL     1       1.724  14.908  16.692  1.00  0.00     0.039 C 
ENDBRANCH   1   4
BRANCH   1  12
HETATM   12  O   UNL     1       0.889  15.288  13.164  1.00  0.00    -0.356 OA
ATOM     13  HO  UNL     1       0.202  15.825  13.540  1.00  0.00     0.214 HD
ENDBRANCH   1  12
BRANCH   1  14
HETATM   14  C   UNL     1       0.968  13.275  14.504  1.00  0.00     0.025 C 
HETATM   15  C   UNL     1       1.842  12.222  14.663  1.00  0.00     0.014 C 
HETATM   16  C   UNL     1       1.635  11.215  15.596  1.00  0.00     0.002 C 
HETATM   17  C   UNL     1       0.453  11.015  16.279  1.00  0.00     0.017 C 
HETATM   18  C   UNL     1      -0.683  11.725  16.297  1.00  0.00     0.087 C 
HETATM   19  N   UNL     1      -1.137  12.639  15.425  1.00  0.00    -0.375 N 
HETATM   20  C   UNL     1      -0.393  13.055  14.385  1.00  0.00     0.100 C 
ATOM     21  HN  UNL     1      -2.071  13.028  15.554  1.00  0.00     0.164 HD
ENDBRANCH   1  14
TORSDOF 4
ENDMDL
MODEL 3
REMARK VINA RESULT:      -7.0      2.410      4.546
REMARK  4 active torsions:
REMARK  status: ('A' for Active; 'I' for Inactive)
REMARK    1  A    between atoms: O_1  and  C_11 
REMARK    2  A    between atoms: C_10  and  C_11 
REMARK    3  A    between atoms: C_11  and  O_15 
REMARK    4  A    between atoms: C_11  and  C_18 
ROOT
HETATM    1  C   UNL     1       1.474  15.287  14.188  1.00  0.00     0.242 C 
ENDROOT
BRANCH   1   2
HETATM    2  O   UNL     1       0.735  15.826  13.122  1.00  0.00    -0.356 OA
ATOM      3  HO  UNL     1       0.086  16.431  13.463  1.00  0.00     0.214 HD
ENDBRANCH   1   2
BRANCH   1   4
HETATM    4  C   UNL     1       0.886  13.969  14.581  1.00  0.00     0.123 C 
HETATM    5  O   UNL     1       1.616  12.849  14.315  1.00  0.00    -0.283 OA
HETATM    6  C   UNL     1       1.700  11.910  15.303  1.00  0.00     0.230 C 
HETATM    7  C   UNL     1       0.606  11.179  15.706  1.00  0.00     0.069 C 
HETATM    8  F   UNL     1       2.881  11.706  15.851  1.00  0.00    -0.178 F 
HETATM    9  C   UNL     1      -0.638  11.667  16.074  1.00  0.00     0.005 C 
HETATM   10  C   UNL     1      -1.012  12.973  15.871  1.00  0.00     0.003 C 
HETATM   11  C   UNL     1      -0.334  13.942  15.193  1.00  0.00     0.039 C 
ENDBRANCH   1   4
BRANCH   1  12
HETATM   12  O   UNL     1       2.777  15.128  13.702  1.00  0.00    -0.356 OA
ATOM     13  HO  UNL     1       3.171  14.454  14.242  1.00  0.00     0.214 HD
ENDBRANCH   1  12
BRANCH   1  14
HETATM   14  C   UNL     1       1.408  16.189  15.392  1.00  0.00     0.025 C 
HETATM   15  C   UNL     1       0.685  17.359  15.325  1.00  0.00     0.014 C 
HETATM   16  C   UNL     1      -0.086  17.822  16.383  1.00  0.00     0.002 C 
HETATM   17  C   UNL     1      -0.027  17.323  17.668  1.00  0.00     0.017 C 
HETATM   18  C   UNL     1       0.657  16.289  18.179  1.00  0.00     0.087 C 
HETATM   19  N   UNL     1       1.728  15.645  17.691  1.00  0.00    -0.375 N 
HETATM   20  C   UNL     1       2.228  15.924  16.474  1.00  0.00     0.100 C 
ATOM     21  HN  UNL     1       2.174  14.923  18.258  1.00  0.00     0.164 HD
ENDBRANCH   1  14
TORSDOF 4
ENDMDL
MODEL 4
REMARK VINA RESULT:      -6.8      2.443      4.265
REMARK  4 active torsions:
REMARK  status: ('A' for Active; 'I' for Inactive)
REMARK    1  A    between atoms: O_1  and  C_11 
REMARK    2  A    between atoms: C_10  and  C_11 
REMARK    3  A    between atoms: C_11  and  O_15 
REMARK    4  A    between atoms: C_11  and  C_18 
ROOT
HETATM    1  C   UNL     1      -0.038  17.249  14.536  1.00  0.00     0.242 C 
ENDROOT
BRANCH   1   2
HETATM    2  O   UNL     1      -1.127  17.929  13.966  1.00  0.00    -0.356 OA
ATOM      3  HO  UNL     1      -1.245  17.637  13.069  1.00  0.00     0.214 HD
ENDBRANCH   1   2
BRANCH   1   4
HETATM    4  C   UNL     1      -0.222  15.776  14.351  1.00  0.00     0.123 C 
HETATM    5  O   UNL     1       0.900  15.006  14.272  1.00  0.00    -0.283 OA
HETATM    6  C   UNL     1       0.911  13.844  14.989  1.00  0.00     0.230 C 
HETATM    7  C   UNL     1       0.086  12.789  14.676  1.00  0.00     0.069 C 
HETATM    8  F   UNL     1       1.763  13.755  15.990  1.00  0.00    -0.178 F 
HETATM    9  C   UNL     1      -1.286  12.827  14.483  1.00  0.00     0.005 C 
HETATM   10  C   UNL     1      -1.986  14.003  14.364  1.00  0.00     0.003 C 
HETATM   11  C   UNL     1      -1.488  15.269  14.285  1.00  0.00     0.039 C 
ENDBRANCH   1   4
BRANCH   1  12
HETATM   12  O   UNL     1       1.092  17.702  13.846  1.00  0.00    -0.356 OA
ATOM     13  HO  UNL     1       0.831  17.756  12.934  1.00  0.00     0.214 HD
ENDBRANCH   1  12
BRANCH   1  14
HETATM   14  C   UNL     1       0.040  17.514  16.017  1.00  0.00     0.025 C 
HETATM   15  C   UNL     1      -1.079  17.957  16.687  1.00  0.00     0.014 C 
HETATM   16  C   UNL     1      -1.410  17.514  17.960  1.00  0.00     0.002 C 
HETATM   17  C   UNL     1      -0.564  16.797  18.782  1.00  0.00     0.017 C 
HETATM   18  C   UNL     1       0.660  16.299  18.562  1.00  0.00     0.087 C 
HETATM   19  N   UNL     1       1.560  16.620  17.620  1.00  0.00    -0.375 N 
HETATM   20  C   UNL     1       1.276  17.493  16.638  1.00  0.00     0.100 C 
ATOM     21  HN  UNL     1       2.485  16.190  17.650  1.00  0.00     0.164 HD
ENDBRANCH   1  14
TORSDOF 4
ENDMDL
MODEL 5
REMARK VINA RESULT:      -6.8      2.370      4.546
REMARK  4 active torsions:
REMARK  status: ('A' for Active; 'I' for Inactive)
REMARK    1  A    between atoms: O_1  and  C_11 
REMARK    2  A    between atoms: C_10  and  C_11 
REMARK    3  A    between atoms: C_11  and  O_15 
REMARK    4  A    between atoms: C_11  and  C_18 
ROOT
HETATM    1  C   UNL     1      -0.430  16.240  14.067  1.00  0.00     0.242 C 
ENDROOT
BRANCH   1   2
HETATM    2  O   UNL     1      -1.563  16.656  13.349  1.00  0.00    -0.356 OA
ATOM      3  HO  UNL     1      -2.242  16.920  13.959  1.00  0.00     0.214 HD
ENDBRANCH   1   2
BRANCH   1   4
HETATM    4  C   UNL     1      -0.570  14.792  14.416  1.00  0.00     0.123 C 
HETATM    5  O   UNL     1       0.566  14.038  14.444  1.00  0.00    -0.283 OA
HETATM    6  C   UNL     1       0.726  13.189  15.501  1.00  0.00     0.230 C 
HETATM    7  C   UNL     1      -0.084  12.092  15.681  1.00  0.00     0.069 C 
HETATM    8  F   UNL     1       1.707  13.443  16.343  1.00  0.00    -0.178 F 
HETATM    9  C   UNL     1      -1.470  12.064  15.681  1.00  0.00     0.005 C 
HETATM   10  C   UNL     1      -2.233  13.132  15.274  1.00  0.00     0.003 C 
HETATM   11  C   UNL     1      -1.809  14.295  14.703  1.00  0.00     0.039 C 
ENDBRANCH   1   4
BRANCH   1  12
HETATM   12  O   UNL     1       0.656  16.445  13.209  1.00  0.00    -0.356 OA
ATOM     13  HO  UNL     1       0.459  17.242  12.732  1.00  0.00     0.214 HD
ENDBRANCH   1  12
BRANCH   1  14
HETATM   14  C   UNL     1      -0.305  17.007  15.357  1.00  0.00     0.025 C 
HETATM   15  C   UNL     1      -1.351  17.799  15.780  1.00  0.00     0.014 C 
HETATM   16  C   UNL     1      -1.726  17.889  17.113  1.00  0.00     0.002 C 
HETATM   17  C   UNL     1      -0.976  17.415  18.169  1.00  0.00     0.017 C 
HETATM   18  C   UNL     1       0.171  16.721  18.191  1.00  0.00     0.087 C 
HETATM   19  N   UNL     1       1.097  16.565  17.233  1.00  0.00    -0.375 N 
HETATM   20  C   UNL     1       0.922  17.055  15.993  1.00  0.00     0.100 C 
ATOM     21  HN  UNL     1       1.958  16.062  17.451  1.00  0.00     0.164 HD
ENDBRANCH   1  14
TORSDOF 4
ENDMDL
MODEL 6
REMARK VINA RESULT:      -6.7      2.195      2.693
REMARK  4 active torsions:
REMARK  status: ('A' for Active; 'I' for Inactive)
REMARK    1  A    between atoms: O_1  and  C_11 
REMARK    2  A    between atoms: C_10  and  C_11 
REMARK    3  A    between atoms: C_11  and  O_15 
REMARK    4  A    between atoms: C_11  and  C_18 
ROOT
HETATM    1  C   UNL     1       1.087  15.014  14.476  1.00  0.00     0.242 C 
ENDROOT
BRANCH   1   2
HETATM    2  O   UNL     1       2.444  15.211  14.777  1.00  0.00    -0.356 OA
ATOM      3  HO  UNL     1       2.523  15.874  15.454  1.00  0.00     0.214 HD
ENDBRANCH   1   2
BRANCH   1   4
HETATM    4  C   UNL     1       0.248  15.785  15.444  1.00  0.00     0.123 C 
HETATM    5  O   UNL     1       0.289  15.408  16.754  1.00  0.00    -0.283 OA
HETATM    6  C   UNL     1       0.398  16.400  17.686  1.00  0.00     0.230 C 
HETATM    7  C   UNL     1      -0.617  17.302  17.910  1.00  0.00     0.069 C 
HETATM    8  F   UNL     1       1.511  16.456  18.388  1.00  0.00    -0.178 F 
HETATM    9  C   UNL     1      -1.286  18.063  16.964  1.00  0.00     0.005 C 
HETATM   10  C   UNL     1      -1.159  17.848  15.614  1.00  0.00     0.003 C 
HETATM   11  C   UNL     1      -0.504  16.830  14.986  1.00  0.00     0.039 C 
ENDBRANCH   1   4
BRANCH   1  12
HETATM   12  O   UNL     1       0.916  15.494  13.173  1.00  0.00    -0.356 OA
ATOM     13  HO  UNL     1       1.729  15.933  12.953  1.00  0.00     0.214 HD
ENDBRANCH   1  12
BRANCH   1  14
HETATM   14  C   UNL     1       0.716  13.560  14.613  1.00  0.00     0.025 C 
HETATM   15  C   UNL     1       1.710  12.609  14.670  1.00  0.00     0.014 C 
HETATM   16  C   UNL     1       1.641  11.507  15.512  1.00  0.00     0.002 C 
HETATM   17  C   UNL     1       0.504  11.109  16.184  1.00  0.00     0.017 C 
HETATM   18  C   UNL     1      -0.707  11.675  16.275  1.00  0.00     0.087 C 
HETATM   19  N   UNL     1      -1.282  12.600  15.490  1.00  0.00    -0.375 N 
HETATM   20  C   UNL     1      -0.611  13.191  14.486  1.00  0.00     0.100 C 
ATOM     21  HN  UNL     1      -2.253  12.863  15.662  1.00  0.00     0.164 HD
ENDBRANCH   1  14
TORSDOF 4
ENDMDL
MODEL 7
REMARK VINA RESULT:      -6.7      2.364      4.650
REMARK  4 active torsions:
REMARK  status: ('A' for Active; 'I' for Inactive)
REMARK    1  A    between atoms: O_1  and  C_11 
REMARK    2  A    between atoms: C_10  and  C_11 
REMARK    3  A    between atoms: C_11  and  O_15 
REMARK    4  A    between atoms: C_11  and  C_18 
ROOT
HETATM    1  C   UNL     1       1.230  14.023  14.875  1.00  0.00     0.242 C 
ENDROOT
BRANCH   1   2
HETATM    2  O   UNL     1       0.147  13.398  14.236  1.00  0.00    -0.356 OA
ATOM      3  HO  UNL     1      -0.270  14.017  13.647  1.00  0.00     0.214 HD
ENDBRANCH   1   2
BRANCH   1   4
HETATM    4  C   UNL     1       0.965  14.093  16.345  1.00  0.00     0.123 C 
HETATM    5  O   UNL     1       1.825  14.827  17.106  1.00  0.00    -0.283 OA
HETATM    6  C   UNL     1       1.277  15.659  18.040  1.00  0.00     0.230 C 
HETATM    7  C   UNL     1       0.611  15.176  19.143  1.00  0.00     0.069 C 
HETATM    8  F   UNL     1       1.427  16.956  17.862  1.00  0.00    -0.178 F 
HETATM    9  C   UNL     1      -0.414  14.243  19.161  1.00  0.00     0.005 C 
HETATM   10  C   UNL     1      -0.759  13.500  18.059  1.00  0.00     0.003 C 
HETATM   11  C   UNL     1      -0.120  13.440  16.855  1.00  0.00     0.039 C 
ENDBRANCH   1   4
BRANCH   1  12
HETATM   12  O   UNL     1       2.343  13.218  14.605  1.00  0.00    -0.356 OA
ATOM     13  HO  UNL     1       2.327  12.531  15.260  1.00  0.00     0.214 HD
ENDBRANCH   1  12
BRANCH   1  14
HETATM   14  C   UNL     1       1.400  15.435  14.377  1.00  0.00     0.025 C 
HETATM   15  C   UNL     1       0.289  16.230  14.197  1.00  0.00     0.014 C 
HETATM   16  C   UNL     1       0.277  17.579  14.521  1.00  0.00     0.002 C 
HETATM   17  C   UNL     1       1.402  18.322  14.815  1.00  0.00     0.017 C 
HETATM   18  C   UNL     1       2.685  17.958  14.948  1.00  0.00     0.087 C 
HETATM   19  N   UNL     1       3.312  16.852  14.516  1.00  0.00    -0.375 N 
HETATM   20  C   UNL     1       2.644  15.844  13.930  1.00  0.00     0.100 C 
ATOM     21  HN  UNL     1       4.322  16.775  14.638  1.00  0.00     0.164 HD
ENDBRANCH   1  14
TORSDOF 4
ENDMDL
MODEL 8
REMARK VINA RESULT:      -6.5      1.969      4.458
REMARK  4 active torsions:
REMARK  status: ('A' for Active; 'I' for Inactive)
REMARK    1  A    between atoms: O_1  and  C_11 
REMARK    2  A    between atoms: C_10  and  C_11 
REMARK    3  A    between atoms: C_11  and  O_15 
REMARK    4  A    between atoms: C_11  and  C_18 
ROOT
HETATM    1  C   UNL     1       0.919  16.192  14.327  1.00  0.00     0.242 C 
ENDROOT
BRANCH   1   2
HETATM    2  O   UNL     1       0.182  16.289  13.135  1.00  0.00    -0.356 OA
ATOM      3  HO  UNL     1      -0.464  16.981  13.221  1.00  0.00     0.214 HD
ENDBRANCH   1   2
BRANCH   1   4
HETATM    4  C   UNL     1       0.750  14.822  14.903  1.00  0.00     0.123 C 
HETATM    5  O   UNL     1      -0.357  14.591  15.665  1.00  0.00    -0.283 OA
HETATM    6  C   UNL     1      -1.038  13.430  15.440  1.00  0.00     0.230 C 
HETATM    7  C   UNL     1      -0.498  12.200  15.737  1.00  0.00     0.069 C 
HETATM    8  F   UNL     1      -2.255  13.525  14.943  1.00  0.00    -0.178 F 
HETATM    9  C   UNL     1       0.744  11.717  15.355  1.00  0.00     0.005 C 
HETATM   10  C   UNL     1       1.710  12.514  14.792  1.00  0.00     0.003 C 
HETATM   11  C   UNL     1       1.690  13.869  14.634  1.00  0.00     0.039 C 
ENDBRANCH   1   4
BRANCH   1  12
HETATM   12  O   UNL     1       2.251  16.422  13.965  1.00  0.00    -0.356 OA
ATOM     13  HO  UNL     1       2.598  15.575  13.712  1.00  0.00     0.214 HD
ENDBRANCH   1  12
BRANCH   1  14
HETATM   14  C   UNL     1       0.415  17.179  15.347  1.00  0.00     0.025 C 
HETATM   15  C   UNL     1      -0.551  18.093  14.989  1.00  0.00     0.014 C 
HETATM   16  C   UNL     1      -1.591  18.451  15.836  1.00  0.00     0.002 C 
HETATM   17  C   UNL     1      -1.645  18.141  17.179  1.00  0.00     0.017 C 
HETATM   18  C   UNL     1      -0.831  17.399  17.944  1.00  0.00     0.087 C 
HETATM   19  N   UNL     1       0.436  17.015  17.725  1.00  0.00    -0.375 N 
HETATM   20  C   UNL     1       1.064  17.275  16.565  1.00  0.00     0.100 C 
ATOM     21  HN  UNL     1       0.936  16.513  18.460  1.00  0.00     0.164 HD
ENDBRANCH   1  14
TORSDOF 4
ENDMDL
MODEL 9
REMARK VINA RESULT:      -6.5      2.642      4.948
REMARK  4 active torsions:
REMARK  status: ('A' for Active; 'I' for Inactive)
REMARK    1  A    between atoms: O_1  and  C_11 
REMARK    2  A    between atoms: C_10  and  C_11 
REMARK    3  A    between atoms: C_11  and  O_15 
REMARK    4  A    between atoms: C_11  and  C_18 
ROOT
HETATM    1  C   UNL     1      -0.106  16.441  14.098  1.00  0.00     0.242 C 
ENDROOT
BRANCH   1   2
HETATM    2  O   UNL     1      -1.257  16.767  13.362  1.00  0.00    -0.356 OA
ATOM      3  HO  UNL     1      -2.012  16.345  13.756  1.00  0.00     0.214 HD
ENDBRANCH   1   2
BRANCH   1   4
HETATM    4  C   UNL     1      -0.474  15.498  15.199  1.00  0.00     0.123 C 
HETATM    5  O   UNL     1       0.061  14.244  15.160  1.00  0.00    -0.283 OA
HETATM    6  C   UNL     1       0.559  13.741  16.327  1.00  0.00     0.230 C 
HETATM    7  C   UNL     1      -0.255  13.431  17.391  1.00  0.00     0.069 C 
HETATM    8  F   UNL     1       1.859  13.539  16.397  1.00  0.00    -0.178 F 
HETATM    9  C   UNL     1      -1.212  14.244  17.980  1.00  0.00     0.005 C 
HETATM   10  C   UNL     1      -1.628  15.425  17.417  1.00  0.00     0.003 C 
HETATM   11  C   UNL     1      -1.306  15.929  16.192  1.00  0.00     0.039 C 
ENDBRANCH   1   4
BRANCH   1  12
HETATM   12  O   UNL     1       0.764  15.831  13.187  1.00  0.00    -0.356 OA
ATOM     13  HO  UNL     1       1.064  15.037  13.612  1.00  0.00     0.214 HD
ENDBRANCH   1  12
BRANCH   1  14
HETATM   14  C   UNL     1       0.487  17.671  14.733  1.00  0.00     0.025 C 
HETATM   15  C   UNL     1       1.586  17.549  15.554  1.00  0.00     0.014 C 
HETATM   16  C   UNL     1       2.628  18.466  15.548  1.00  0.00     0.002 C 
HETATM   17  C   UNL     1       2.579  19.698  14.928  1.00  0.00     0.017 C 
HETATM   18  C   UNL     1       1.636  20.257  14.156  1.00  0.00     0.087 C 
HETATM   19  N   UNL     1       0.338  19.942  14.025  1.00  0.00    -0.375 N 
HETATM   20  C   UNL     1      -0.196  18.871  14.637  1.00  0.00     0.100 C 
ATOM     21  HN  UNL     1      -0.259  20.531  13.444  1.00  0.00     0.164 HD
ENDBRANCH   1  14
TORSDOF 4
ENDMDL
