MODEL 1
REMARK VINA RESULT:      -6.2      0.000      0.000
REMARK  5 active torsions:
REMARK  status: ('A' for Active; 'I' for Inactive)
REMARK    1  A    between atoms: C_1  and  C_5 
REMARK    2  A    between atoms: C_1  and  C_10 
REMARK    3  A    between atoms: C_2  and  O_6 
REMARK    4  A    between atoms: C_2  and  C_10 
REMARK    5  A    between atoms: C_2  and  C_11 
ROOT
HETATM    1  C   UNL     1      -3.126  30.196 -14.237  1.00  0.00     0.219 C 
ENDROOT
BRANCH   1   2
HETATM    2  O   UNL     1      -4.321  30.663 -13.748  1.00  0.00    -0.385 OA
ATOM      3  HO  UNL     1      -5.143  30.273 -14.020  1.00  0.00     0.210 HD
ENDBRANCH   1   2
BRANCH   1   4
HETATM    4  C   UNL     1      -3.067  29.452 -15.543  1.00  0.00     0.053 C 
BRANCH   4   5
HETATM    5  C   UNL     1      -3.750  28.113 -15.587  1.00  0.00     0.116 C 
BRANCH   5   6
HETATM    6  C   UNL     1      -3.012  26.903 -15.072  1.00  0.00     0.172 C 
HETATM    7  O   UNL     1      -1.863  27.030 -14.583  1.00  0.00    -0.648 OA
HETATM    8  O   UNL     1      -3.670  25.844 -15.114  1.00  0.00    -0.648 OA
ENDBRANCH   5   6
ENDBRANCH   4   5
ENDBRANCH   1   4
BRANCH   1   9
HETATM    9  C   UNL     1      -1.929  31.092 -13.893  1.00  0.00     0.203 C 
HETATM   10  O   UNL     1      -0.819  30.717 -14.330  1.00  0.00    -0.646 OA
HETATM   11  O   UNL     1      -2.135  32.084 -13.157  1.00  0.00    -0.646 OA
ENDBRANCH   1   9
TORSDOF 5
ENDMDL
MODEL 2
REMARK VINA RESULT:      -6.1      1.916      2.405
REMARK  5 active torsions:
REMARK  status: ('A' for Active; 'I' for Inactive)
REMARK    1  A    between atoms: C_1  and  C_5 
REMARK    2  A    between atoms: C_1  and  C_10 
REMARK    3  A    between atoms: C_2  and  O_6 
REMARK    4  A    between atoms: C_2  and  C_10 
REMARK    5  A    between atoms: C_2  and  C_11 
ROOT
HETATM    1  C   UNL     1      -3.077  30.158 -14.245  1.00  0.00     0.219 C 
ENDROOT
BRANCH   1   2
HETATM    2  O   UNL     1      -4.277  30.614 -13.757  1.00  0.00    -0.385 OA
ATOM      3  HO  UNL     1      -5.020  30.028 -13.668  1.00  0.00     0.210 HD
ENDBRANCH   1   2
BRANCH   1   4
HETATM    4  C   UNL     1      -3.012  29.406 -15.546  1.00  0.00     0.053 C 
BRANCH   4   5
HETATM    5  C   UNL     1      -4.151  28.470 -15.842  1.00  0.00     0.116 C 
BRANCH   5   6
HETATM    6  C   UNL     1      -5.346  28.995 -16.599  1.00  0.00     0.172 C 
HETATM    7  O   UNL     1      -6.041  29.919 -16.111  1.00  0.00    -0.648 OA
HETATM    8  O   UNL     1      -5.501  28.490 -17.728  1.00  0.00    -0.648 OA
ENDBRANCH   5   6
ENDBRANCH   4   5
ENDBRANCH   1   4
BRANCH   1   9
HETATM    9  C   UNL     1      -1.890  31.069 -13.908  1.00  0.00     0.203 C 
HETATM   10  O   UNL     1      -0.781  30.718 -14.368  1.00  0.00    -0.646 OA
HETATM   11  O   UNL     1      -2.100  32.047 -13.155  1.00  0.00    -0.646 OA
ENDBRANCH   1   9
TORSDOF 5
ENDMDL
MODEL 3
REMARK VINA RESULT:      -6.0      0.956      4.608
REMARK  5 active torsions:
REMARK  status: ('A' for Active; 'I' for Inactive)
REMARK    1  A    between atoms: C_1  and  C_5 
REMARK    2  A    between atoms: C_1  and  C_10 
REMARK    3  A    between atoms: C_2  and  O_6 
REMARK    4  A    between atoms: C_2  and  C_10 
REMARK    5  A    between atoms: C_2  and  C_11 
ROOT
HETATM    1  C   UNL     1      -3.118  27.754 -14.767  1.00  0.00     0.219 C 
ENDROOT
BRANCH   1   2
HETATM    2  O   UNL     1      -2.098  27.317 -13.958  1.00  0.00    -0.385 OA
ATOM      3  HO  UNL     1      -1.838  27.815 -13.192  1.00  0.00     0.210 HD
ENDBRANCH   1   2
BRANCH   1   4
HETATM    4  C   UNL     1      -3.056  29.106 -15.422  1.00  0.00     0.053 C 
BRANCH   4   5
HETATM    5  C   UNL     1      -3.258  30.298 -14.528  1.00  0.00     0.116 C 
BRANCH   5   6
HETATM    6  C   UNL     1      -2.047  30.995 -13.961  1.00  0.00     0.172 C 
HETATM    7  O   UNL     1      -0.897  30.664 -14.340  1.00  0.00    -0.648 OA
HETATM    8  O   UNL     1      -2.312  31.932 -13.181  1.00  0.00    -0.648 OA
ENDBRANCH   5   6
ENDBRANCH   4   5
ENDBRANCH   1   4
BRANCH   1   9
HETATM    9  C   UNL     1      -3.801  26.629 -15.556  1.00  0.00     0.203 C 
HETATM   10  O   UNL     1      -4.083  25.597 -14.908  1.00  0.00    -0.646 OA
HETATM   11  O   UNL     1      -3.966  26.795 -16.786  1.00  0.00    -0.646 OA
ENDBRANCH   1   9
TORSDOF 5
ENDMDL
MODEL 4
REMARK VINA RESULT:      -6.0      1.370      2.433
REMARK  5 active torsions:
REMARK  status: ('A' for Active; 'I' for Inactive)
REMARK    1  A    between atoms: C_1  and  C_5 
REMARK    2  A    between atoms: C_1  and  C_10 
REMARK    3  A    between atoms: C_2  and  O_6 
REMARK    4  A    between atoms: C_2  and  C_10 
REMARK    5  A    between atoms: C_2  and  C_11 
ROOT
HETATM    1  C   UNL     1      -2.704  28.581 -14.666  1.00  0.00     0.219 C 
ENDROOT
BRANCH   1   2
HETATM    2  O   UNL     1      -2.416  27.590 -13.759  1.00  0.00    -0.385 OA
ATOM      3  HO  UNL     1      -1.544  27.218 -13.708  1.00  0.00     0.210 HD
ENDBRANCH   1   2
BRANCH   1   4
HETATM    4  C   UNL     1      -3.827  28.416 -15.654  1.00  0.00     0.053 C 
BRANCH   4   5
HETATM    5  C   UNL     1      -4.054  27.031 -16.192  1.00  0.00     0.116 C 
BRANCH   5   6
HETATM    6  C   UNL     1      -4.974  26.101 -15.440  1.00  0.00     0.172 C 
HETATM    7  O   UNL     1      -6.213  26.153 -15.632  1.00  0.00    -0.648 OA
HETATM    8  O   UNL     1      -4.387  25.275 -14.713  1.00  0.00    -0.648 OA
ENDBRANCH   5   6
ENDBRANCH   4   5
ENDBRANCH   1   4
BRANCH   1   9
HETATM    9  C   UNL     1      -2.449  29.996 -14.132  1.00  0.00     0.203 C 
HETATM   10  O   UNL     1      -3.430  30.571 -13.611  1.00  0.00    -0.646 OA
HETATM   11  O   UNL     1      -1.313  30.492 -14.310  1.00  0.00    -0.646 OA
ENDBRANCH   1   9
TORSDOF 5
ENDMDL
MODEL 5
REMARK VINA RESULT:      -5.9      2.663      4.373
REMARK  5 active torsions:
REMARK  status: ('A' for Active; 'I' for Inactive)
REMARK    1  A    between atoms: C_1  and  C_5 
REMARK    2  A    between atoms: C_1  and  C_10 
REMARK    3  A    between atoms: C_2  and  O_6 
REMARK    4  A    between atoms: C_2  and  C_10 
REMARK    5  A    between atoms: C_2  and  C_11 
ROOT
HETATM    1  C   UNL     1      -5.190  28.240 -16.793  1.00  0.00     0.219 C 
ENDROOT
BRANCH   1   2
HETATM    2  O   UNL     1      -5.588  28.823 -17.971  1.00  0.00    -0.385 OA
ATOM      3  HO  UNL     1      -6.393  28.554 -18.398  1.00  0.00     0.210 HD
ENDBRANCH   1   2
BRANCH   1   4
HETATM    4  C   UNL     1      -4.245  28.951 -15.863  1.00  0.00     0.053 C 
BRANCH   4   5
HETATM    5  C   UNL     1      -2.827  28.455 -15.834  1.00  0.00     0.116 C 
BRANCH   5   6
HETATM    6  C   UNL     1      -2.498  27.239 -15.005  1.00  0.00     0.172 C 
HETATM    7  O   UNL     1      -2.454  26.106 -15.543  1.00  0.00    -0.648 OA
HETATM    8  O   UNL     1      -2.217  27.488 -13.816  1.00  0.00    -0.648 OA
ENDBRANCH   5   6
ENDBRANCH   4   5
ENDBRANCH   1   4
BRANCH   1   9
HETATM    9  C   UNL     1      -6.267  27.358 -16.148  1.00  0.00     0.203 C 
HETATM   10  O   UNL     1      -5.853  26.398 -15.463  1.00  0.00    -0.646 OA
HETATM   11  O   UNL     1      -7.465  27.619 -16.403  1.00  0.00    -0.646 OA
ENDBRANCH   1   9
TORSDOF 5
ENDMDL
MODEL 6
REMARK VINA RESULT:      -5.8      1.955      4.380
REMARK  5 active torsions:
REMARK  status: ('A' for Active; 'I' for Inactive)
REMARK    1  A    between atoms: C_1  and  C_5 
REMARK    2  A    between atoms: C_1  and  C_10 
REMARK    3  A    between atoms: C_2  and  O_6 
REMARK    4  A    between atoms: C_2  and  C_10 
REMARK    5  A    between atoms: C_2  and  C_11 
ROOT
HETATM    1  C   UNL     1      -4.619  29.515 -15.836  1.00  0.00     0.219 C 
ENDROOT
BRANCH   1   2
HETATM    2  O   UNL     1      -5.284  30.269 -14.900  1.00  0.00    -0.385 OA
ATOM      3  HO  UNL     1      -5.166  31.211 -14.861  1.00  0.00     0.210 HD
ENDBRANCH   1   2
BRANCH   1   4
HETATM    4  C   UNL     1      -3.164  29.175 -15.657  1.00  0.00     0.053 C 
BRANCH   4   5
HETATM    5  C   UNL     1      -2.587  29.383 -14.284  1.00  0.00     0.116 C 
BRANCH   5   6
HETATM    6  C   UNL     1      -2.065  30.749 -13.914  1.00  0.00     0.172 C 
HETATM    7  O   UNL     1      -0.848  31.017 -14.065  1.00  0.00    -0.648 OA
HETATM    8  O   UNL     1      -2.943  31.551 -13.540  1.00  0.00    -0.648 OA
ENDBRANCH   5   6
ENDBRANCH   4   5
ENDBRANCH   1   4
BRANCH   1   9
HETATM    9  C   UNL     1      -5.501  28.461 -16.516  1.00  0.00     0.203 C 
HETATM   10  O   UNL     1      -5.658  27.390 -15.890  1.00  0.00    -0.646 OA
HETATM   11  O   UNL     1      -5.941  28.717 -17.661  1.00  0.00    -0.646 OA
ENDBRANCH   1   9
TORSDOF 5
ENDMDL
MODEL 7
REMARK VINA RESULT:      -5.8      2.756      4.103
REMARK  5 active torsions:
REMARK  status: ('A' for Active; 'I' for Inactive)
REMARK    1  A    between atoms: C_1  and  C_5 
REMARK    2  A    between atoms: C_1  and  C_10 
REMARK    3  A    between atoms: C_2  and  O_6 
REMARK    4  A    between atoms: C_2  and  C_10 
REMARK    5  A    between atoms: C_2  and  C_11 
ROOT
HETATM    1  C   UNL     1      -5.139  28.552 -17.071  1.00  0.00     0.219 C 
ENDROOT
BRANCH   1   2
HETATM    2  O   UNL     1      -5.079  28.653 -18.440  1.00  0.00    -0.385 OA
ATOM      3  HO  UNL     1      -4.744  27.937 -18.966  1.00  0.00     0.210 HD
ENDBRANCH   1   2
BRANCH   1   4
HETATM    4  C   UNL     1      -3.892  28.660 -16.236  1.00  0.00     0.053 C 
BRANCH   4   5
HETATM    5  C   UNL     1      -2.889  27.549 -16.375  1.00  0.00     0.116 C 
BRANCH   5   6
HETATM    6  C   UNL     1      -2.062  27.162 -15.174  1.00  0.00     0.172 C 
HETATM    7  O   UNL     1      -2.420  27.517 -14.025  1.00  0.00    -0.648 OA
HETATM    8  O   UNL     1      -1.089  26.428 -15.436  1.00  0.00    -0.648 OA
ENDBRANCH   5   6
ENDBRANCH   4   5
ENDBRANCH   1   4
BRANCH   1   9
HETATM    9  C   UNL     1      -6.431  29.118 -16.469  1.00  0.00     0.203 C 
HETATM   10  O   UNL     1      -7.456  28.414 -16.608  1.00  0.00    -0.646 OA
HETATM   11  O   UNL     1      -6.383  30.255 -15.946  1.00  0.00    -0.646 OA
ENDBRANCH   1   9
TORSDOF 5
ENDMDL
MODEL 8
REMARK VINA RESULT:      -5.7      2.127      4.451
REMARK  5 active torsions:
REMARK  status: ('A' for Active; 'I' for Inactive)
REMARK    1  A    between atoms: C_1  and  C_5 
REMARK    2  A    between atoms: C_1  and  C_10 
REMARK    3  A    between atoms: C_2  and  O_6 
REMARK    4  A    between atoms: C_2  and  C_10 
REMARK    5  A    between atoms: C_2  and  C_11 
ROOT
HETATM    1  C   UNL     1      -5.229  28.174 -16.339  1.00  0.00     0.219 C 
ENDROOT
BRANCH   1   2
HETATM    2  O   UNL     1      -5.572  29.318 -15.661  1.00  0.00    -0.385 OA
ATOM      3  HO  UNL     1      -4.968  30.049 -15.604  1.00  0.00     0.210 HD
ENDBRANCH   1   2
BRANCH   1   4
HETATM    4  C   UNL     1      -3.793  27.884 -16.681  1.00  0.00     0.053 C 
BRANCH   4   5
HETATM    5  C   UNL     1      -2.751  28.681 -15.947  1.00  0.00     0.116 C 
BRANCH   5   6
HETATM    6  C   UNL     1      -2.651  28.540 -14.448  1.00  0.00     0.172 C 
HETATM    7  O   UNL     1      -2.231  27.470 -13.945  1.00  0.00    -0.648 OA
HETATM    8  O   UNL     1      -2.941  29.575 -13.815  1.00  0.00    -0.648 OA
ENDBRANCH   5   6
ENDBRANCH   4   5
ENDBRANCH   1   4
BRANCH   1   9
HETATM    9  C   UNL     1      -6.121  26.971 -16.006  1.00  0.00     0.203 C 
HETATM   10  O   UNL     1      -7.316  27.060 -16.362  1.00  0.00    -0.646 OA
HETATM   11  O   UNL     1      -5.613  26.029 -15.355  1.00  0.00    -0.646 OA
ENDBRANCH   1   9
TORSDOF 5
ENDMDL
MODEL 9
REMARK VINA RESULT:      -5.6      2.374      3.791
REMARK  5 active torsions:
REMARK  status: ('A' for Active; 'I' for Inactive)
REMARK    1  A    between atoms: C_1  and  C_5 
REMARK    2  A    between atoms: C_1  and  C_10 
REMARK    3  A    between atoms: C_2  and  O_6 
REMARK    4  A    between atoms: C_2  and  C_10 
REMARK    5  A    between atoms: C_2  and  C_11 
ROOT
HETATM    1  C   UNL     1      -2.825  26.950 -16.042  1.00  0.00     0.219 C 
ENDROOT
BRANCH   1   2
HETATM    2  O   UNL     1      -2.772  25.613 -15.730  1.00  0.00    -0.385 OA
ATOM      3  HO  UNL     1      -2.592  24.965 -16.400  1.00  0.00     0.210 HD
ENDBRANCH   1   2
BRANCH   1   4
HETATM    4  C   UNL     1      -3.908  27.489 -16.937  1.00  0.00     0.053 C 
BRANCH   4   5
HETATM    5  C   UNL     1      -5.203  27.868 -16.275  1.00  0.00     0.116 C 
BRANCH   5   6
HETATM    6  C   UNL     1      -6.220  26.789 -15.995  1.00  0.00     0.172 C 
HETATM    7  O   UNL     1      -7.388  26.897 -16.440  1.00  0.00    -0.648 OA
HETATM    8  O   UNL     1      -5.767  25.805 -15.378  1.00  0.00    -0.648 OA
ENDBRANCH   5   6
ENDBRANCH   4   5
ENDBRANCH   1   4
BRANCH   1   9
HETATM    9  C   UNL     1      -2.339  27.865 -14.910  1.00  0.00     0.203 C 
HETATM   10  O   UNL     1      -1.984  29.015 -15.248  1.00  0.00    -0.646 OA
HETATM   11  O   UNL     1      -2.272  27.381 -13.756  1.00  0.00    -0.646 OA
ENDBRANCH   1   9
TORSDOF 5
ENDMDL
