REMARK  1 active torsions:
REMARK  status: ('A' for Active; 'I' for Inactive)
REMARK    1  A    between atoms: C_5  and  C_15 
ROOT
HETATM    1  N   UNL     1      24.089  14.939  39.629  1.00  0.00    -0.386 N 
ATOM      2  HN1 UNL     1      23.416  14.898  40.395  1.00  0.00     0.157 HD
ATOM      3  HN2 UNL     1      24.625  14.125  39.330  1.00  0.00     0.157 HD
HETATM    4  C   UNL     1      23.700  18.421  38.776  1.00  0.00    -0.035 C 
HETATM    5  N   UNL     1      25.022  16.122  37.884  1.00  0.00    -0.376 N 
ATOM      6  HN  UNL     1      25.608  15.317  37.663  1.00  0.00     0.161 HD
HETATM    7  C   UNL     1      26.194  18.740  38.873  1.00  0.00     0.021 C 
HETATM    8  C   UNL     1      24.983  18.605  37.980  1.00  0.00    -0.004 C 
HETATM    9  C   UNL     1      25.130  17.348  37.116  1.00  0.00     0.135 C 
HETATM   10  C   UNL     1      23.393  17.186  39.310  1.00  0.00     0.056 C 
HETATM   11  C   UNL     1      24.130  16.067  38.899  1.00  0.00     0.095 C 
HETATM   12  C   UNL     1      24.919  19.826  37.071  1.00  0.00     0.021 C 
ENDROOT
BRANCH   4  13
HETATM   13  C   UNL     1      22.828  19.559  39.036  1.00  0.00    -0.028 C 
HETATM   14  C   UNL     1      23.008  20.275  40.197  1.00  0.00     0.029 C 
HETATM   15  C   UNL     1      22.209  21.177  40.822  1.00  0.00     0.090 C 
HETATM   16  N   UNL     1      21.027  21.733  40.518  1.00  0.00    -0.353 N 
HETATM   17  C   UNL     1      20.470  21.696  39.288  1.00  0.00     0.098 C 
ATOM     18  HN  UNL     1      20.518  22.213  41.260  1.00  0.00     0.166 HD
HETATM   19  N   UNL     1      19.608  22.672  38.980  1.00  0.00    -0.385 N 
HETATM   20  C   UNL     1      20.708  20.674  38.386  1.00  0.00     0.049 C 
ATOM     21  HN2 UNL     1      19.433  23.425  39.645  1.00  0.00     0.157 HD
ATOM     22  HN1 UNL     1      19.187  22.644  38.051  1.00  0.00     0.157 HD
HETATM   23  C   UNL     1      21.822  19.910  38.132  1.00  0.00     0.016 C 
ENDBRANCH   4  13
TORSDOF 1
