MODEL 1
REMARK VINA RESULT:     -10.2      0.000      0.000
REMARK  0 active torsions:
REMARK  status: ('A' for Active; 'I' for Inactive)
ROOT
HETATM    1  C   UNL     1       1.320   1.727  37.586  1.00  0.00     0.001 C 
HETATM    2  C   UNL     1       0.736   6.148  37.007  1.00  0.00     0.157 C 
HETATM    3  C   UNL     1      -4.054   4.514  34.110  1.00  0.00     0.018 A 
HETATM    4  C   UNL     1      -1.139   5.479  35.499  1.00  0.00     0.226 C 
HETATM    5  C   UNL     1      -5.275   5.206  32.044  1.00  0.00     0.010 C 
HETATM    6  C   UNL     1      -5.323   6.569  32.739  1.00  0.00    -0.009 C 
HETATM    7  C   UNL     1       0.557   3.722  36.271  1.00  0.00     0.023 C 
HETATM    8  C   UNL     1       2.254   2.228  38.460  1.00  0.00     0.000 C 
HETATM    9  C   UNL     1      -1.831   5.915  34.216  1.00  0.00     0.193 C 
HETATM   10  C   UNL     1      -6.534   4.908  34.009  1.00  0.00     0.010 C 
HETATM   11  C   UNL     1       2.845   3.477  38.396  1.00  0.00     0.001 C 
HETATM   12  C   UNL     1      -4.140   5.569  35.193  1.00  0.00    -0.004 A 
HETATM   13  O   UNL     1      -1.155   6.288  33.271  1.00  0.00    -0.292 OA
HETATM   14  N   UNL     1      -2.077   5.350  36.627  1.00  0.00    -0.384 N 
ATOM     15  HN  UNL     1      -1.694   5.427  37.570  1.00  0.00     0.156 HD
HETATM   16  C   UNL     1      -6.155   6.396  34.033  1.00  0.00    -0.009 C 
HETATM   17  C   UNL     1      -3.514   5.120  36.499  1.00  0.00     0.128 C 
HETATM   18  C   UNL     1      -5.344   4.330  33.294  1.00  0.00    -0.008 C 
HETATM   19  C   UNL     1      -0.470   4.117  35.287  1.00  0.00     0.216 C 
HETATM   20  C   UNL     1      -3.320   5.810  34.043  1.00  0.00     0.040 A 
HETATM   21  C   UNL     1       0.676   2.372  36.555  1.00  0.00     0.016 C 
HETATM   22  C   UNL     1       2.496   4.518  37.563  1.00  0.00     0.010 C 
HETATM   23  N   UNL     1      -0.166   6.511  35.915  1.00  0.00    -0.381 N 
ATOM     24  HN  UNL     1      -0.126   7.426  35.466  1.00  0.00     0.156 HD
HETATM   25  C   UNL     1      -3.856   6.848  33.059  1.00  0.00     0.023 C 
HETATM   26  O   UNL     1      -0.775   3.414  34.348  1.00  0.00    -0.287 OA
HETATM   27  C   UNL     1       1.277   4.737  36.946  1.00  0.00    -0.027 C 
HETATM   28  C   UNL     1      -5.323   6.510  35.340  1.00  0.00     0.018 C 
ENDROOT
TORSDOF 0
ENDMDL
MODEL 2
REMARK VINA RESULT:      -9.6      2.820      4.581
REMARK  0 active torsions:
REMARK  status: ('A' for Active; 'I' for Inactive)
ROOT
HETATM    1  C   UNL     1       0.662   7.718  31.038  1.00  0.00     0.001 C 
HETATM    2  C   UNL     1       0.714   4.022  33.600  1.00  0.00     0.157 C 
HETATM    3  C   UNL     1      -4.507   5.921  35.372  1.00  0.00     0.018 A 
HETATM    4  C   UNL     1      -1.367   4.961  34.611  1.00  0.00     0.226 C 
HETATM    5  C   UNL     1      -5.786   6.042  37.514  1.00  0.00     0.010 C 
HETATM    6  C   UNL     1      -5.562   4.528  37.531  1.00  0.00    -0.009 C 
HETATM    7  C   UNL     1       0.101   6.442  33.124  1.00  0.00     0.023 C 
HETATM    8  C   UNL     1       1.735   7.047  30.504  1.00  0.00     0.000 C 
HETATM    9  C   UNL     1      -2.095   5.044  35.945  1.00  0.00     0.193 C 
HETATM   10  C   UNL     1      -6.896   5.183  35.626  1.00  0.00     0.010 C 
HETATM   11  C   UNL     1       2.503   6.091  31.144  1.00  0.00     0.001 C 
HETATM   12  C   UNL     1      -4.334   4.491  34.902  1.00  0.00    -0.004 A 
HETATM   13  O   UNL     1      -1.456   5.268  36.959  1.00  0.00    -0.292 OA
HETATM   14  N   UNL     1      -2.210   4.393  33.545  1.00  0.00    -0.384 N 
ATOM     15  HN  UNL     1      -1.738   3.964  32.749  1.00  0.00     0.156 HD
HETATM   16  C   UNL     1      -6.293   3.942  36.298  1.00  0.00    -0.009 C 
HETATM   17  C   UNL     1      -3.671   4.398  33.541  1.00  0.00     0.128 C 
HETATM   18  C   UNL     1      -5.877   6.224  35.999  1.00  0.00    -0.008 C 
HETATM   19  C   UNL     1      -0.937   6.364  34.171  1.00  0.00     0.216 C 
HETATM   20  C   UNL     1      -3.591   4.950  36.038  1.00  0.00     0.040 A 
HETATM   21  C   UNL     1       0.036   7.511  32.246  1.00  0.00     0.016 C 
HETATM   22  C   UNL     1       2.246   5.502  32.364  1.00  0.00     0.010 C 
HETATM   23  N   UNL     1      -0.214   4.043  34.729  1.00  0.00    -0.381 N 
ATOM     24  HN  UNL     1      -0.074   3.457  35.551  1.00  0.00     0.156 HD
HETATM   25  C   UNL     1      -4.047   4.399  37.388  1.00  0.00     0.023 C 
HETATM   26  O   UNL     1      -1.428   7.351  34.674  1.00  0.00    -0.287 OA
HETATM   27  C   UNL     1       1.025   5.376  33.002  1.00  0.00    -0.027 C 
HETATM   28  C   UNL     1      -5.341   3.394  35.200  1.00  0.00     0.018 C 
ENDROOT
TORSDOF 0
ENDMDL
MODEL 3
REMARK VINA RESULT:      -9.3      0.960      1.197
REMARK  0 active torsions:
REMARK  status: ('A' for Active; 'I' for Inactive)
ROOT
HETATM    1  C   UNL     1       1.304   1.868  38.081  1.00  0.00     0.001 C 
HETATM    2  C   UNL     1       0.917   6.156  36.783  1.00  0.00     0.157 C 
HETATM    3  C   UNL     1      -4.609   4.673  35.654  1.00  0.00     0.018 A 
HETATM    4  C   UNL     1      -1.355   5.481  35.994  1.00  0.00     0.226 C 
HETATM    5  C   UNL     1      -6.311   5.143  33.888  1.00  0.00     0.010 C 
HETATM    6  C   UNL     1      -6.056   6.602  34.275  1.00  0.00    -0.009 C 
HETATM    7  C   UNL     1       0.353   3.682  36.634  1.00  0.00     0.023 C 
HETATM    8  C   UNL     1       2.484   2.390  38.555  1.00  0.00     0.000 C 
HETATM    9  C   UNL     1      -2.348   5.770  34.879  1.00  0.00     0.193 C 
HETATM   10  C   UNL     1      -6.978   5.362  36.134  1.00  0.00     0.010 C 
HETATM   11  C   UNL     1       3.125   3.521  38.083  1.00  0.00     0.001 C 
HETATM   12  C   UNL     1      -4.303   5.904  36.480  1.00  0.00    -0.004 A 
HETATM   13  O   UNL     1      -1.943   5.880  33.733  1.00  0.00    -0.292 OA
HETATM   14  N   UNL     1      -1.940   5.675  37.332  1.00  0.00    -0.384 N 
ATOM     15  HN  UNL     1      -1.300   5.867  38.103  1.00  0.00     0.156 HD
HETATM   16  C   UNL     1      -6.496   6.769  35.751  1.00  0.00    -0.009 C 
HETATM   17  C   UNL     1      -3.367   5.615  37.638  1.00  0.00     0.128 C 
HETATM   18  C   UNL     1      -6.088   4.517  35.264  1.00  0.00    -0.008 C 
HETATM   19  C   UNL     1      -0.879   4.028  35.897  1.00  0.00     0.216 C 
HETATM   20  C   UNL     1      -3.828   5.831  35.131  1.00  0.00     0.040 A 
HETATM   21  C   UNL     1       0.444   2.399  37.147  1.00  0.00     0.016 C 
HETATM   22  C   UNL     1       2.634   4.435  37.175  1.00  0.00     0.010 C 
HETATM   23  N   UNL     1      -0.228   6.435  35.917  1.00  0.00    -0.381 N 
ATOM     24  HN  UNL     1      -0.249   7.244  35.296  1.00  0.00     0.156 HD
HETATM   25  C   UNL     1      -4.542   6.739  34.132  1.00  0.00     0.023 C 
HETATM   26  O   UNL     1      -1.491   3.216  35.238  1.00  0.00    -0.287 OA
HETATM   27  C   UNL     1       1.310   4.698  36.872  1.00  0.00    -0.027 C 
HETATM   28  C   UNL     1      -5.320   7.002  36.739  1.00  0.00     0.018 C 
ENDROOT
TORSDOF 0
ENDMDL
MODEL 4
REMARK VINA RESULT:      -8.8      2.786      4.379
REMARK  0 active torsions:
REMARK  status: ('A' for Active; 'I' for Inactive)
ROOT
HETATM    1  C   UNL     1       0.506   7.516  31.930  1.00  0.00     0.001 C 
HETATM    2  C   UNL     1      -0.029   3.530  33.942  1.00  0.00     0.157 C 
HETATM    3  C   UNL     1      -5.335   5.581  35.224  1.00  0.00     0.018 A 
HETATM    4  C   UNL     1      -2.178   4.489  34.777  1.00  0.00     0.226 C 
HETATM    5  C   UNL     1      -6.905   5.525  37.166  1.00  0.00     0.010 C 
HETATM    6  C   UNL     1      -6.773   4.008  37.006  1.00  0.00    -0.009 C 
HETATM    7  C   UNL     1      -0.426   6.031  33.723  1.00  0.00     0.023 C 
HETATM    8  C   UNL     1       1.606   6.839  31.460  1.00  0.00     0.000 C 
HETATM    9  C   UNL     1      -3.088   4.456  35.997  1.00  0.00     0.193 C 
HETATM   10  C   UNL     1      -7.774   5.001  35.044  1.00  0.00     0.010 C 
HETATM   11  C   UNL     1       2.216   5.754  32.063  1.00  0.00     0.001 C 
HETATM   12  C   UNL     1      -5.177   4.214  34.591  1.00  0.00    -0.004 A 
HETATM   13  O   UNL     1      -2.593   4.499  37.111  1.00  0.00    -0.292 OA
HETATM   14  N   UNL     1      -2.887   4.128  33.537  1.00  0.00    -0.384 N 
ATOM     15  HN  UNL     1      -2.329   3.769  32.763  1.00  0.00     0.156 HD
HETATM   16  C   UNL     1      -7.349   3.642  35.615  1.00  0.00    -0.009 C 
HETATM   17  C   UNL     1      -4.329   4.245  33.334  1.00  0.00     0.128 C 
HETATM   18  C   UNL     1      -6.763   5.905  35.693  1.00  0.00    -0.008 C 
HETATM   19  C   UNL     1      -1.608   5.899  34.598  1.00  0.00     0.216 C 
HETATM   20  C   UNL     1      -4.584   4.465  35.870  1.00  0.00     0.040 A 
HETATM   21  C   UNL     1      -0.301   7.206  33.000  1.00  0.00     0.016 C 
HETATM   22  C   UNL     1       1.750   5.035  33.143  1.00  0.00     0.010 C 
HETATM   23  N   UNL     1      -1.110   3.478  34.925  1.00  0.00    -0.381 N 
ATOM     24  HN  UNL     1      -1.126   2.783  35.671  1.00  0.00     0.156 HD
HETATM   25  C   UNL     1      -5.264   3.783  37.056  1.00  0.00     0.023 C 
HETATM   26  O   UNL     1      -2.110   6.849  35.159  1.00  0.00    -0.287 OA
HETATM   27  C   UNL     1       0.444   4.922  33.585  1.00  0.00    -0.027 C 
HETATM   28  C   UNL     1      -6.279   3.168  34.594  1.00  0.00     0.018 C 
ENDROOT
TORSDOF 0
ENDMDL
MODEL 5
REMARK VINA RESULT:      -8.8      0.949      1.083
REMARK  0 active torsions:
REMARK  status: ('A' for Active; 'I' for Inactive)
ROOT
HETATM    1  C   UNL     1       1.675   2.442  36.860  1.00  0.00     0.001 C 
HETATM    2  C   UNL     1      -0.025   6.605  36.857  1.00  0.00     0.157 C 
HETATM    3  C   UNL     1      -4.643   4.056  34.371  1.00  0.00     0.018 A 
HETATM    4  C   UNL     1      -1.878   5.609  35.512  1.00  0.00     0.226 C 
HETATM    5  C   UNL     1      -6.274   4.583  32.554  1.00  0.00     0.010 C 
HETATM    6  C   UNL     1      -6.548   5.829  33.399  1.00  0.00    -0.009 C 
HETATM    7  C   UNL     1       0.280   4.280  35.877  1.00  0.00     0.023 C 
HETATM    8  C   UNL     1       2.576   3.091  37.671  1.00  0.00     0.000 C 
HETATM    9  C   UNL     1      -2.829   5.959  34.375  1.00  0.00     0.193 C 
HETATM   10  C   UNL     1      -7.135   3.820  34.606  1.00  0.00     0.010 C 
HETATM   11  C   UNL     1       2.836   4.449  37.680  1.00  0.00     0.001 C 
HETATM   12  C   UNL     1      -4.826   4.965  35.569  1.00  0.00    -0.004 A 
HETATM   13  O   UNL     1      -2.402   6.565  33.407  1.00  0.00    -0.292 OA
HETATM   14  N   UNL     1      -2.590   5.157  36.720  1.00  0.00    -0.384 N 
ATOM     15  HN  UNL     1      -2.108   5.252  37.614  1.00  0.00     0.156 HD
HETATM   16  C   UNL     1      -7.124   5.347  34.754  1.00  0.00    -0.009 C 
HETATM   17  C   UNL     1      -3.933   4.584  36.734  1.00  0.00     0.128 C 
HETATM   18  C   UNL     1      -5.954   3.620  33.696  1.00  0.00    -0.008 C 
HETATM   19  C   UNL     1      -0.940   4.482  35.070  1.00  0.00     0.216 C 
HETATM   20  C   UNL     1      -4.258   5.497  34.367  1.00  0.00     0.040 A 
HETATM   21  C   UNL     1       0.757   2.985  35.991  1.00  0.00     0.016 C 
HETATM   22  C   UNL     1       2.134   5.432  37.016  1.00  0.00     0.010 C 
HETATM   23  N   UNL     1      -1.132   6.817  35.926  1.00  0.00    -0.381 N 
ATOM     24  HN  UNL     1      -1.376   7.745  35.582  1.00  0.00     0.156 HD
HETATM   25  C   UNL     1      -5.160   6.442  33.575  1.00  0.00     0.023 C 
HETATM   26  O   UNL     1      -1.197   3.802  34.100  1.00  0.00    -0.287 OA
HETATM   27  C   UNL     1       0.824   5.386  36.574  1.00  0.00    -0.027 C 
HETATM   28  C   UNL     1      -6.167   5.561  35.959  1.00  0.00     0.018 C 
ENDROOT
TORSDOF 0
ENDMDL
MODEL 6
REMARK VINA RESULT:      -8.8      3.821      6.845
REMARK  0 active torsions:
REMARK  status: ('A' for Active; 'I' for Inactive)
ROOT
HETATM    1  C   UNL     1      -4.363  11.673  38.313  1.00  0.00     0.001 C 
HETATM    2  C   UNL     1      -3.276   7.991  40.655  1.00  0.00     0.157 C 
HETATM    3  C   UNL     1      -1.161   6.119  35.553  1.00  0.00     0.018 A 
HETATM    4  C   UNL     1      -2.650   7.034  38.435  1.00  0.00     0.226 C 
HETATM    5  C   UNL     1      -1.087   3.977  34.271  1.00  0.00     0.010 C 
HETATM    6  C   UNL     1      -0.405   3.447  35.535  1.00  0.00    -0.009 C 
HETATM    7  C   UNL     1      -4.010   9.201  38.544  1.00  0.00     0.023 C 
HETATM    8  C   UNL     1      -4.577  12.111  39.599  1.00  0.00     0.000 C 
HETATM    9  C   UNL     1      -2.658   5.714  37.676  1.00  0.00     0.193 C 
HETATM   10  C   UNL     1       0.920   5.182  34.500  1.00  0.00     0.010 C 
HETATM   11  C   UNL     1      -4.843  11.316  40.699  1.00  0.00     0.001 C 
HETATM   12  C   UNL     1      -0.308   6.055  36.802  1.00  0.00    -0.004 A 
HETATM   13  O   UNL     1      -3.634   4.987  37.756  1.00  0.00    -0.292 OA
HETATM   14  N   UNL     1      -1.310   7.645  38.485  1.00  0.00    -0.384 N 
ATOM     15  HN  UNL     1      -1.119   8.299  39.243  1.00  0.00     0.156 HD
HETATM   16  C   UNL     1       0.925   4.224  35.699  1.00  0.00    -0.009 C 
HETATM   17  C   UNL     1      -0.235   7.384  37.531  1.00  0.00     0.128 C 
HETATM   18  C   UNL     1      -0.557   5.409  34.331  1.00  0.00    -0.008 C 
HETATM   19  C   UNL     1      -3.593   8.027  37.750  1.00  0.00     0.216 C 
HETATM   20  C   UNL     1      -1.537   5.322  36.756  1.00  0.00     0.040 A 
HETATM   21  C   UNL     1      -4.237  10.381  37.856  1.00  0.00     0.016 C 
HETATM   22  C   UNL     1      -4.777   9.940  40.763  1.00  0.00     0.010 C 
HETATM   23  N   UNL     1      -3.026   6.799  39.845  1.00  0.00    -0.381 N 
ATOM     24  HN  UNL     1      -3.105   5.859  40.232  1.00  0.00     0.156 HD
HETATM   25  C   UNL     1      -1.395   3.806  36.641  1.00  0.00     0.023 C 
HETATM   26  O   UNL     1      -3.975   7.842  36.615  1.00  0.00    -0.287 OA
HETATM   27  C   UNL     1      -4.045   9.089  39.955  1.00  0.00    -0.027 C 
HETATM   28  C   UNL     1       0.942   5.198  36.909  1.00  0.00     0.018 C 
ENDROOT
TORSDOF 0
ENDMDL
MODEL 7
REMARK VINA RESULT:      -8.8      2.610      4.369
REMARK  0 active torsions:
REMARK  status: ('A' for Active; 'I' for Inactive)
ROOT
HETATM    1  C   UNL     1       1.064   7.196  31.962  1.00  0.00     0.001 C 
HETATM    2  C   UNL     1      -0.037   3.609  34.441  1.00  0.00     0.157 C 
HETATM    3  C   UNL     1      -4.531   6.921  36.126  1.00  0.00     0.018 A 
HETATM    4  C   UNL     1      -1.784   5.099  35.422  1.00  0.00     0.226 C 
HETATM    5  C   UNL     1      -5.782   7.379  38.239  1.00  0.00     0.010 C 
HETATM    6  C   UNL     1      -6.009   5.865  38.228  1.00  0.00    -0.009 C 
HETATM    7  C   UNL     1       0.095   6.109  34.004  1.00  0.00     0.023 C 
HETATM    8  C   UNL     1       1.912   6.249  31.439  1.00  0.00     0.000 C 
HETATM    9  C   UNL     1      -2.496   5.371  36.738  1.00  0.00     0.193 C 
HETATM   10  C   UNL     1      -7.038   6.908  36.305  1.00  0.00     0.010 C 
HETATM   11  C   UNL     1       2.350   5.102  32.077  1.00  0.00     0.001 C 
HETATM   12  C   UNL     1      -4.767   5.510  35.629  1.00  0.00    -0.004 A 
HETATM   13  O   UNL     1      -1.851   5.385  37.773  1.00  0.00    -0.292 OA
HETATM   14  N   UNL     1      -2.723   4.817  34.322  1.00  0.00    -0.384 N 
ATOM     15  HN  UNL     1      -2.373   4.280  33.529  1.00  0.00     0.156 HD
HETATM   16  C   UNL     1      -6.842   5.535  36.964  1.00  0.00    -0.009 C 
HETATM   17  C   UNL     1      -4.119   5.247  34.283  1.00  0.00     0.128 C 
HETATM   18  C   UNL     1      -5.771   7.601  36.727  1.00  0.00    -0.008 C 
HETATM   19  C   UNL     1      -0.952   6.322  35.024  1.00  0.00     0.216 C 
HETATM   20  C   UNL     1      -3.958   5.716  36.793  1.00  0.00     0.040 A 
HETATM   21  C   UNL     1       0.370   7.164  33.150  1.00  0.00     0.016 C 
HETATM   22  C   UNL     1       1.896   4.596  33.276  1.00  0.00     0.010 C 
HETATM   23  N   UNL     1      -0.952   3.883  35.547  1.00  0.00    -0.381 N 
ATOM     24  HN  UNL     1      -1.014   3.270  36.359  1.00  0.00     0.156 HD
HETATM   25  C   UNL     1      -4.594   5.303  38.119  1.00  0.00     0.023 C 
HETATM   26  O   UNL     1      -1.149   7.402  35.536  1.00  0.00    -0.287 OA
HETATM   27  C   UNL     1       0.673   4.822  33.882  1.00  0.00    -0.027 C 
HETATM   28  C   UNL     1      -6.058   4.749  35.878  1.00  0.00     0.018 C 
ENDROOT
TORSDOF 0
ENDMDL
MODEL 8
REMARK VINA RESULT:      -8.6      1.895      6.895
REMARK  0 active torsions:
REMARK  status: ('A' for Active; 'I' for Inactive)
ROOT
HETATM    1  C   UNL     1      -7.088   2.483  33.800  1.00  0.00     0.001 C 
HETATM    2  C   UNL     1      -4.556   6.015  32.644  1.00  0.00     0.157 C 
HETATM    3  C   UNL     1      -0.721   3.710  36.384  1.00  0.00     0.018 A 
HETATM    4  C   UNL     1      -3.031   5.236  34.462  1.00  0.00     0.226 C 
HETATM    5  C   UNL     1       0.879   4.538  38.115  1.00  0.00     0.010 C 
HETATM    6  C   UNL     1       1.455   5.343  36.948  1.00  0.00    -0.009 C 
HETATM    7  C   UNL     1      -5.396   4.269  34.289  1.00  0.00     0.023 C 
HETATM    8  C   UNL     1      -7.786   2.958  32.716  1.00  0.00     0.000 C 
HETATM    9  C   UNL     1      -2.094   5.783  35.528  1.00  0.00     0.193 C 
HETATM   10  C   UNL     1       1.674   2.969  36.552  1.00  0.00     0.010 C 
HETATM   11  C   UNL     1      -7.755   4.252  32.227  1.00  0.00     0.001 C 
HETATM   12  C   UNL     1      -0.286   4.099  34.987  1.00  0.00    -0.004 A 
HETATM   13  O   UNL     1      -2.438   6.754  36.182  1.00  0.00    -0.292 OA
HETATM   14  N   UNL     1      -2.364   4.273  33.568  1.00  0.00    -0.384 N 
ATOM     15  HN  UNL     1      -2.764   4.136  32.640  1.00  0.00     0.156 HD
HETATM   16  C   UNL     1       1.992   4.326  35.910  1.00  0.00    -0.009 C 
HETATM   17  C   UNL     1      -1.172   3.501  33.910  1.00  0.00     0.128 C 
HETATM   18  C   UNL     1       0.429   3.310  37.323  1.00  0.00    -0.008 C 
HETATM   19  C   UNL     1      -4.208   4.518  35.129  1.00  0.00     0.216 C 
HETATM   20  C   UNL     1      -0.796   5.107  35.866  1.00  0.00     0.040 A 
HETATM   21  C   UNL     1      -6.127   3.122  34.549  1.00  0.00     0.016 C 
HETATM   22  C   UNL     1      -6.901   5.263  32.613  1.00  0.00     0.010 C 
HETATM   23  N   UNL     1      -3.483   6.336  33.584  1.00  0.00    -0.381 N 
ATOM     24  HN  UNL     1      -3.070   7.267  33.630  1.00  0.00     0.156 HD
HETATM   25  C   UNL     1       0.238   6.092  36.408  1.00  0.00     0.023 C 
HETATM   26  O   UNL     1      -4.154   4.184  36.293  1.00  0.00    -0.287 OA
HETATM   27  C   UNL     1      -5.657   5.141  33.204  1.00  0.00    -0.027 C 
HETATM   28  C   UNL     1       1.171   4.274  34.592  1.00  0.00     0.018 C 
ENDROOT
TORSDOF 0
ENDMDL
MODEL 9
REMARK VINA RESULT:      -8.5      1.540      6.950
REMARK  0 active torsions:
REMARK  status: ('A' for Active; 'I' for Inactive)
ROOT
HETATM    1  C   UNL     1      -6.719   6.722  35.793  1.00  0.00     0.001 C 
HETATM    2  C   UNL     1      -4.241   4.251  32.968  1.00  0.00     0.157 C 
HETATM    3  C   UNL     1      -0.136   4.785  37.075  1.00  0.00     0.018 A 
HETATM    4  C   UNL     1      -2.367   4.723  34.550  1.00  0.00     0.226 C 
HETATM    5  C   UNL     1       2.334   5.146  37.166  1.00  0.00     0.010 C 
HETATM    6  C   UNL     1       2.375   3.876  36.312  1.00  0.00    -0.009 C 
HETATM    7  C   UNL     1      -4.546   6.056  34.731  1.00  0.00     0.023 C 
HETATM    8  C   UNL     1      -7.678   6.309  34.900  1.00  0.00     0.000 C 
HETATM    9  C   UNL     1      -0.867   4.976  34.557  1.00  0.00     0.193 C 
HETATM   10  C   UNL     1       1.432   3.423  38.490  1.00  0.00     0.010 C 
HETATM   11  C   UNL     1      -7.461   5.911  33.594  1.00  0.00     0.001 C 
HETATM   12  C   UNL     1      -0.484   3.421  36.516  1.00  0.00    -0.004 A 
HETATM   13  O   UNL     1      -0.382   5.704  33.707  1.00  0.00    -0.292 OA
HETATM   14  N   UNL     1      -2.752   3.605  35.429  1.00  0.00    -0.384 N 
ATOM     15  HN  UNL     1      -3.631   3.128  35.227  1.00  0.00     0.156 HD
HETATM   16  C   UNL     1       1.792   2.727  37.171  1.00  0.00    -0.009 C 
HETATM   17  C   UNL     1      -1.971   3.128  36.567  1.00  0.00     0.128 C 
HETATM   18  C   UNL     1       1.096   4.803  37.994  1.00  0.00    -0.008 C 
HETATM   19  C   UNL     1      -3.103   5.975  35.035  1.00  0.00     0.216 C 
HETATM   20  C   UNL     1       0.024   4.430  35.636  1.00  0.00     0.040 A 
HETATM   21  C   UNL     1      -5.350   6.712  35.648  1.00  0.00     0.016 C 
HETATM   22  C   UNL     1      -6.244   5.684  32.987  1.00  0.00     0.010 C 
HETATM   23  N   UNL     1      -2.799   4.320  33.194  1.00  0.00    -0.381 N 
ATOM     24  HN  UNL     1      -2.127   4.102  32.458  1.00  0.00     0.156 HD
HETATM   25  C   UNL     1       1.454   4.214  35.142  1.00  0.00     0.023 C 
HETATM   26  O   UNL     1      -2.515   6.851  35.630  1.00  0.00    -0.287 OA
HETATM   27  C   UNL     1      -5.041   5.372  33.594  1.00  0.00    -0.027 C 
HETATM   28  C   UNL     1       0.414   2.206  36.678  1.00  0.00     0.018 C 
ENDROOT
TORSDOF 0
ENDMDL
