REMARK  0 active torsions:
REMARK  status: ('A' for Active; 'I' for Inactive)
ROOT
HETATM    1  N   UNL     1      89.150  30.211  48.441  1.00  0.00    -0.388 N 
ATOM      2  HN  UNL     1      88.262  30.173  48.941  1.00  0.00     0.159 HD
HETATM    3  C   UNL     1      90.036  28.395  45.393  1.00  0.00    -0.004 C 
HETATM    4  C   UNL     1      88.766  27.655  45.864  1.00  0.00    -0.003 C 
HETATM    5  C   UNL     1      88.798  27.894  47.374  1.00  0.00     0.031 C 
HETATM    6  C   UNL     1      89.756  28.494  43.888  1.00  0.00     0.010 C 
HETATM    7  C   UNL     1      89.832  29.713  46.159  1.00  0.00     0.013 C 
HETATM    8  N   UNL     1      91.563  33.709  48.403  1.00  0.00    -0.398 N 
ATOM      9  HN  UNL     1      92.148  34.545  48.425  1.00  0.00     0.158 HD
HETATM   10  C   UNL     1      90.051  31.343  48.454  1.00  0.00     0.012 C 
HETATM   11  C   UNL     1      89.694  29.111  47.601  1.00  0.00     0.086 C 
HETATM   12 CL   UNL     1      88.223  24.983  43.138  1.00  0.00    -0.094 Cl
HETATM   13  C   UNL     1      91.701  32.787  47.320  1.00  0.00     0.129 C 
HETATM   14  C   UNL     1      89.868  32.359  49.478  1.00  0.00     0.041 C 
HETATM   15  C   UNL     1      90.074  27.111  43.319  1.00  0.00     0.047 C 
HETATM   16  C   UNL     1      90.658  33.494  49.418  1.00  0.00     0.084 C 
HETATM   17  C   UNL     1      89.067  26.198  45.506  1.00  0.00     0.052 C 
HETATM   18  C   UNL     1      90.548  31.829  47.104  1.00  0.00     0.053 C 
HETATM   19  C   UNL     1      89.206  26.078  44.002  1.00  0.00    -0.010 C 
HETATM   20  C   UNL     1      91.082  30.594  46.345  1.00  0.00     0.019 C 
ENDROOT
TORSDOF 0
