REMARK  5 active torsions:
REMARK  status: ('A' for Active; 'I' for Inactive)
REMARK    1  A    between atoms: C_9  and  C_17 
REMARK    2  A    between atoms: C_17  and  C_18 
REMARK    3  A    between atoms: C_17  and  C_23 
REMARK    4  A    between atoms: C_17  and  N_24 
REMARK    5  A    between atoms: C_21  and  C_35 
ROOT
HETATM    1  C   UNL     1      13.709  26.713 -15.015  1.00  0.00     0.182 C 
ENDROOT
BRANCH   1   2
HETATM    2  C   UNL     1      14.169  27.739 -13.986  1.00  0.00    -0.011 C 
HETATM    3  C   UNL     1      14.319  27.397 -12.646  1.00  0.00     0.011 C 
HETATM    4  C   UNL     1      14.817  28.329 -11.746  1.00  0.00     0.002 C 
HETATM    5  C   UNL     1      15.341  29.538 -12.196  1.00  0.00     0.013 C 
HETATM    6  C   UNL     1      15.229  29.883 -13.544  1.00  0.00    -0.019 C 
HETATM    7  C   UNL     1      14.434  29.066 -14.366  1.00  0.00    -0.042 C 
HETATM    8  C   UNL     1      13.859  29.675 -15.634  1.00  0.00     0.049 C 
BRANCH   6   9
HETATM    9  C   UNL     1      15.911  31.120 -14.066  1.00  0.00    -0.025 C 
HETATM   10  C   UNL     1      15.412  32.371 -13.692  1.00  0.00     0.012 C 
HETATM   11  C   UNL     1      16.107  33.452 -13.178  1.00  0.00     0.001 C 
HETATM   12  C   UNL     1      17.461  33.732 -13.323  1.00  0.00     0.000 C 
HETATM   13  C   UNL     1      18.312  33.060 -14.169  1.00  0.00     0.000 C 
HETATM   14  C   UNL     1      18.007  32.018 -14.995  1.00  0.00     0.001 C 
HETATM   15  C   UNL     1      17.011  31.046 -14.911  1.00  0.00     0.012 C 
ENDBRANCH   6   9
ENDBRANCH   1   2
BRANCH   1  16
HETATM   16  C   UNL     1      13.433  25.292 -14.560  1.00  0.00    -0.017 C 
HETATM   17  C   UNL     1      14.439  24.323 -14.579  1.00  0.00     0.013 C 
HETATM   18  C   UNL     1      14.075  22.983 -14.730  1.00  0.00     0.043 C 
HETATM   19  C   UNL     1      12.758  22.605 -14.518  1.00  0.00     0.116 C 
HETATM   20  C   UNL     1      11.790  23.558 -14.243  1.00  0.00     0.043 C 
HETATM   21  F   UNL     1      12.465  21.292 -14.448  1.00  0.00    -0.206 F 
HETATM   22  C   UNL     1      12.132  24.906 -14.239  1.00  0.00     0.013 C 
ENDBRANCH   1  16
BRANCH   1  23
HETATM   23  C   UNL     1      14.709  26.597 -16.112  1.00  0.00     0.040 C 
HETATM   24  C   UNL     1      14.364  26.221 -17.508  1.00  0.00     0.047 C 
HETATM   25  C   UNL     1      15.691  26.318 -18.177  1.00  0.00    -0.051 C 
HETATM   26  C   UNL     1      16.690  26.606 -17.280  1.00  0.00    -0.051 C 
HETATM   27  C   UNL     1      15.937  26.251 -19.543  1.00  0.00     0.007 C 
HETATM   28  C   UNL     1      16.162  26.709 -15.891  1.00  0.00     0.047 C 
HETATM   29  C   UNL     1      17.999  26.792 -17.699  1.00  0.00     0.007 C 
HETATM   30  C   UNL     1      18.223  26.888 -19.076  1.00  0.00     0.001 C 
HETATM   31  C   UNL     1      17.215  26.590 -19.992  1.00  0.00     0.001 C 
ENDBRANCH   1  23
BRANCH   1  32
HETATM   32  N   UNL     1      12.478  27.273 -15.639  1.00  0.00    -0.061 N 
ATOM     33  HN3 UNL     1      11.756  27.520 -14.962  1.00  0.00     0.276 HD
ATOM     34  HN2 UNL     1      12.609  28.207 -16.028  1.00  0.00     0.276 HD
ATOM     35  HN1 UNL     1      12.170  26.586 -16.328  1.00  0.00     0.276 HD
ENDBRANCH   1  32
TORSDOF 5
