REMARK  1 active torsions:
REMARK  status: ('A' for Active; 'I' for Inactive)
REMARK    1  A    between atoms: C_12  and  C_20 
ROOT
HETATM    1  C   UNL     1     -28.399  22.369 -19.503  1.00  0.00     0.044 C 
HETATM    2  C   UNL     1     -28.309  16.703 -21.286  1.00  0.00     0.036 C 
HETATM    3  C   UNL     1     -28.103  18.672 -19.851  1.00  0.00     0.033 C 
HETATM    4  C   UNL     1     -28.497  22.572 -21.017  1.00  0.00     0.008 C 
HETATM    5  O   UNL     1     -27.230  20.360 -21.236  1.00  0.00    -0.320 OA
HETATM    6  C   UNL     1     -27.998  17.865 -18.711  1.00  0.00     0.068 C 
HETATM    7  C   UNL     1     -28.340  20.304 -22.098  1.00  0.00     0.272 C 
HETATM    8  C   UNL     1     -28.444  18.075 -21.100  1.00  0.00     0.082 C 
HETATM    9  C   UNL     1     -27.708  21.122 -18.970  1.00  0.00     0.227 C 
HETATM   10  C   UNL     1     -29.263  21.483 -21.778  1.00  0.00     0.062 C 
HETATM   11  C   UNL     1     -26.060  15.924 -20.623  1.00  0.00     0.037 C 
HETATM   12  O   UNL     1     -27.318  15.809 -17.892  1.00  0.00    -0.292 OA
HETATM   13  C   UNL     1     -27.604  19.991 -19.966  1.00  0.00     0.096 C 
HETATM   14  F   UNL     1     -28.386  20.675 -17.855  1.00  0.00    -0.242 F 
HETATM   15  O   UNL     1     -28.999  19.007 -22.001  1.00  0.00    -0.319 OA
HETATM   16  C   UNL     1     -27.686  16.500 -18.860  1.00  0.00     0.169 C 
HETATM   17  C   UNL     1     -27.544  15.910 -20.261  1.00  0.00     0.101 C 
ENDROOT
BRANCH  17  18
HETATM   18  C   UNL     1     -28.069  14.472 -20.292  1.00  0.00     0.142 C 
HETATM   19  C   UNL     1     -27.792  13.586 -21.487  1.00  0.00     0.092 C 
HETATM   20  O   UNL     1     -28.725  14.016 -19.398  1.00  0.00    -0.297 OA
ENDBRANCH  17  18
TORSDOF 1
