REMARK  14 active torsions:
REMARK  status: ('A' for Active; 'I' for Inactive)
REMARK    1  A    between atoms: C_1  and  O_8 
REMARK    2  A    between atoms: C_3  and  O_30 
REMARK    3  A    between atoms: C_4  and  C_28 
REMARK    4  A    between atoms: C_6  and  C_24 
REMARK    5  A    between atoms: C_6  and  C_26 
REMARK    6  A    between atoms: N_11  and  C_19 
REMARK    7  A    between atoms: N_11  and  C_24 
REMARK    8  A    between atoms: O_15  and  C_25 
REMARK    9  A    between atoms: C_17  and  C_20 
REMARK   10  A    between atoms: C_19  and  C_34 
REMARK   11  A    between atoms: C_20  and  C_26 
REMARK   12  A    between atoms: C_27  and  C_31 
REMARK   13  A    between atoms: C_27  and  C_34 
REMARK   14  A    between atoms: C_28  and  C_35 
ROOT
HETATM    1  C   UNL     1      -4.070  20.573  14.653  1.00  0.00    -0.047 C 
HETATM    2  C   UNL     1      -3.664  19.123  16.496  1.00  0.00     0.070 C 
HETATM    3  C   UNL     1      -3.916  19.283  14.105  1.00  0.00     0.008 C 
HETATM    4  C   UNL     1      -3.568  20.576  16.073  1.00  0.00     0.151 C 
HETATM    5  C   UNL     1      -3.724  18.399  15.182  1.00  0.00    -0.077 C 
ENDROOT
BRANCH   5   6
HETATM    6  C   UNL     1      -3.660  16.904  15.179  1.00  0.00     0.036 C 
BRANCH   6   7
HETATM    7  C   UNL     1      -3.349  16.234  13.866  1.00  0.00     0.032 C 
BRANCH   7   8
HETATM    8  C   UNL     1      -1.879  16.268  13.498  1.00  0.00     0.232 C 
BRANCH   8   9
HETATM    9  N   UNL     1      -1.265  14.949  13.745  1.00  0.00    -0.075 N 
ATOM     10  HN2 UNL     1      -1.690  14.497  14.555  1.00  0.00     0.277 HD
ATOM     11  HN1 UNL     1      -1.534  14.283  13.021  1.00  0.00     0.277 HD
BRANCH   9  12
HETATM   12  C   UNL     1       0.192  15.006  13.885  1.00  0.00     0.232 C 
BRANCH  12  13
HETATM   13  C   UNL     1       0.834  16.242  13.268  1.00  0.00     0.027 C 
BRANCH  13  14
HETATM   14  C   UNL     1       1.692  17.038  14.264  1.00  0.00     0.002 C 
BRANCH  14  15
HETATM   15  C   UNL     1       2.430  18.175  13.578  1.00  0.00     0.005 C 
BRANCH  15  16
HETATM   16  C   UNL     1       2.251  19.579  14.183  1.00  0.00    -0.005 C 
HETATM   17  C   UNL     1       2.407  20.494  12.950  1.00  0.00     0.045 C 
HETATM   18  C   UNL     1       3.420  21.519  13.305  1.00  0.00    -0.034 C 
HETATM   19  C   UNL     1       4.428  22.158  12.587  1.00  0.00     0.026 C 
HETATM   20  C   UNL     1       3.920  21.273  14.618  1.00  0.00     0.015 C 
HETATM   21  C   UNL     1       5.435  22.461  13.502  1.00  0.00     0.088 C 
HETATM   22  N   UNL     1       5.128  21.915  14.728  1.00  0.00    -0.369 N 
ATOM     23  HN  UNL     1       5.699  21.977  15.571  1.00  0.00     0.165 HD
HETATM   24  C   UNL     1       3.484  19.895  15.047  1.00  0.00     0.062 C 
ENDBRANCH  15  16
ENDBRANCH  14  15
ENDBRANCH  13  14
ENDBRANCH  12  13
ENDBRANCH   9  12
ENDBRANCH   8   9
ENDBRANCH   7   8
ENDBRANCH   6   7
ENDBRANCH   5   6
BRANCH   4  25
HETATM   25  O   UNL     1      -4.234  21.481  16.927  1.00  0.00    -0.391 OA
ATOM     26  HO  UNL     1      -3.917  21.483  17.823  1.00  0.00     0.210 HD
ENDBRANCH   4  25
BRANCH   1  27
HETATM   27  C   UNL     1      -4.193  21.860  13.924  1.00  0.00     0.075 C 
BRANCH  27  28
HETATM   28  C   UNL     1      -5.352  22.076  12.991  1.00  0.00    -0.051 C 
HETATM   29  C   UNL     1      -6.425  21.196  12.998  1.00  0.00     0.010 C 
HETATM   30  C   UNL     1      -7.409  20.975  12.056  1.00  0.00     0.037 C 
HETATM   31  C   UNL     1      -7.651  21.697  10.865  1.00  0.00     0.070 C 
HETATM   32  C   UNL     1      -7.021  22.870  10.452  1.00  0.00     0.073 C 
HETATM   33  C   UNL     1      -6.150  23.663  11.232  1.00  0.00     0.068 C 
HETATM   34  C   UNL     1      -5.280  23.226  12.211  1.00  0.00     0.044 C 
BRANCH  31  35
HETATM   35  O   UNL     1      -8.347  21.073   9.949  1.00  0.00    -0.356 OA
HETATM   36  C   UNL     1      -9.166  20.646   8.991  1.00  0.00     0.210 C 
ENDBRANCH  31  35
BRANCH  33  37
HETATM   37  O   UNL     1      -6.241  25.019  11.066  1.00  0.00    -0.361 OA
ATOM     38  HO  UNL     1      -5.655  25.552  11.591  1.00  0.00     0.217 HD
ENDBRANCH  33  37
ENDBRANCH  27  28
ENDBRANCH   1  27
TORSDOF 14
