REMARK  4 active torsions:
REMARK  status: ('A' for Active; 'I' for Inactive)
REMARK    1  A    between atoms: C_12  and  N_21 
REMARK    2  A    between atoms: C_17  and  C_22 
REMARK    3  A    between atoms: C_17  and  C_34 
REMARK    4  A    between atoms: C_19  and  O_37 
ROOT
HETATM    1  C   UNL     1     142.659 -25.582  69.603  1.00  0.00     0.010 C 
HETATM    2  C   UNL     1     142.793 -25.474  72.189  1.00  0.00     0.070 C 
HETATM    3  N   UNL     1     140.560 -26.330  70.425  1.00  0.00    -0.201 N 
ATOM      4  HN  UNL     1     139.582 -26.461  70.167  1.00  0.00     0.183 HD
HETATM    5  C   UNL     1     144.612 -25.268  70.778  1.00  0.00     0.026 C 
HETATM    6  C   UNL     1     140.810 -26.571  71.724  1.00  0.00     0.688 C 
HETATM    7  C   UNL     1     145.159 -25.173  72.181  1.00  0.00     0.100 C 
HETATM    8  C   UNL     1     141.337 -25.953  69.401  1.00  0.00     0.120 C 
HETATM    9  C   UNL     1     143.247 -25.540  70.869  1.00  0.00     0.028 C 
HETATM   10  N   UNL     1     141.491 -25.685  72.487  1.00  0.00    -0.190 N 
ATOM     11  HN  UNL     1     141.039 -25.194  73.259  1.00  0.00     0.184 HD
HETATM   12  C   UNL     1     143.714 -25.358  68.697  1.00  0.00     0.102 C 
HETATM   13  C   UNL     1     143.887 -25.162  73.003  1.00  0.00    -0.013 C 
HETATM   14  N   UNL     1     144.853 -24.987  69.459  1.00  0.00    -0.367 N 
ATOM     15  HN  UNL     1     145.710 -24.578  69.086  1.00  0.00     0.165 HD
ENDROOT
BRANCH  13  16
HETATM   16  C   UNL     1     143.809 -24.675  74.364  1.00  0.00    -0.014 C 
HETATM   17  C   UNL     1     143.406 -23.361  74.469  1.00  0.00    -0.068 C 
HETATM   18  C   UNL     1     142.060 -22.801  74.764  1.00  0.00     0.035 C 
HETATM   19  C   UNL     1     144.335 -22.218  74.214  1.00  0.00     0.039 C 
HETATM   20  C   UNL     1     142.262 -21.307  74.967  1.00  0.00     0.009 C 
HETATM   21  C   UNL     1     143.762 -21.079  75.021  1.00  0.00    -0.014 C 
HETATM   22  C   UNL     1     144.166 -19.708  74.520  1.00  0.00     0.010 C 
BRANCH  16  23
HETATM   23  C   UNL     1     143.847 -25.645  75.518  1.00  0.00    -0.016 C 
HETATM   24  C   UNL     1     143.664 -27.018  75.306  1.00  0.00     0.013 C 
HETATM   25  C   UNL     1     144.087 -27.931  76.260  1.00  0.00     0.004 C 
HETATM   26  C   UNL     1     144.674 -27.497  77.444  1.00  0.00     0.037 C 
HETATM   27  C   UNL     1     144.760 -26.127  77.690  1.00  0.00     0.072 C 
HETATM   28  C   UNL     1     144.083 -25.237  76.846  1.00  0.00    -0.018 C 
HETATM   29  C   UNL     1     143.603 -23.934  77.424  1.00  0.00     0.052 C 
BRANCH  27  30
HETATM   30  O   UNL     1     145.502 -25.630  78.720  1.00  0.00    -0.360 OA
ATOM     31  HO  UNL     1     145.961 -26.234  79.292  1.00  0.00     0.217 HD
ENDBRANCH  27  30
ENDBRANCH  16  23
ENDBRANCH  13  16
BRANCH   6  32
HETATM   32  N   UNL     1     140.305 -27.690  72.375  1.00  0.00    -0.141 N 
HETATM   33  C   UNL     1     139.870 -28.873  71.754  1.00  0.00     0.289 C 
HETATM   34  C   UNL     1     140.320 -29.937  72.663  1.00  0.00     0.109 C 
HETATM   35  O   UNL     1     139.194 -28.960  70.772  1.00  0.00    -0.265 OA
HETATM   36  N   UNL     1     140.642 -31.251  72.664  1.00  0.00    -0.361 N 
HETATM   37  C   UNL     1     140.684 -29.379  73.890  1.00  0.00    -0.006 C 
HETATM   38  C   UNL     1     141.436 -31.458  73.758  1.00  0.00     0.089 C 
ATOM     39  HN  UNL     1     140.350 -31.951  71.982  1.00  0.00     0.165 HD
HETATM   40  C   UNL     1     141.489 -30.319  74.529  1.00  0.00     0.028 C 
HETATM   41  C   UNL     1     140.447 -27.915  73.837  1.00  0.00     0.192 C 
ENDBRANCH   6  32
TORSDOF 4
