REMARK  4 active torsions:
REMARK  status: ('A' for Active; 'I' for Inactive)
REMARK    1  A    between atoms: O_1  and  C_7 
REMARK    2  A    between atoms: O_4  and  C_7 
REMARK    3  A    between atoms: C_7  and  O_8 
REMARK    4  A    between atoms: C_7  and  C_10 
ROOT
HETATM    1  C   UNL     1      -3.369  -8.418  16.423  1.00  0.00     0.005 C 
HETATM    2  C   UNL     1      -4.117  -8.596  17.747  1.00  0.00    -0.002 C 
HETATM    3  C   UNL     1      -4.539 -10.046  17.656  1.00  0.00     0.086 C 
HETATM    4  C   UNL     1      -4.187  -9.225  15.432  1.00  0.00     0.005 C 
HETATM    5  C   UNL     1      -5.496  -7.926  17.630  1.00  0.00     0.005 C 
HETATM    6  C   UNL     1      -5.245  -9.918  16.292  1.00  0.00    -0.002 C 
HETATM    7  C   UNL     1      -6.258  -8.810  16.646  1.00  0.00     0.005 C 
ENDROOT
BRANCH   3   8
HETATM    8  C   UNL     1      -3.440 -11.062  18.107  1.00  0.00     0.280 C 
BRANCH   8   9
HETATM    9  O   UNL     1      -3.893 -11.859  19.119  1.00  0.00    -0.343 OA
ATOM     10  HO  UNL     1      -4.688 -12.297  18.839  1.00  0.00     0.215 HD
ENDBRANCH   8   9
BRANCH   8  11
HETATM   11  O   UNL     1      -2.321 -10.445  18.501  1.00  0.00    -0.343 OA
ATOM     12  HO  UNL     1      -2.006  -9.891  17.797  1.00  0.00     0.215 HD
ENDBRANCH   8  11
BRANCH   8  13
HETATM   13  O   UNL     1      -2.968 -11.817  17.087  1.00  0.00    -0.343 OA
ATOM     14  HO  UNL     1      -2.653 -11.263  16.383  1.00  0.00     0.215 HD
ENDBRANCH   8  13
ENDBRANCH   3   8
TORSDOF 4
