MODEL 1
REMARK VINA RESULT:      -3.8      0.000      0.000
REMARK  0 active torsions:
REMARK  status: ('A' for Active; 'I' for Inactive)
ROOT
HETATM    1  C   UNL     1      16.793  18.221  17.622  1.00  0.00     0.007 C 
HETATM    2  C   UNL     1      17.242  17.065  15.496  1.00  0.00     0.000 C 
HETATM    3  C   UNL     1      14.768  19.498  18.335  1.00  0.00     0.048 C 
HETATM    4  C   UNL     1      17.582  17.664  16.670  1.00  0.00     0.001 C 
HETATM    5  C   UNL     1      14.654  17.343  17.110  1.00  0.00     0.007 C 
HETATM    6  C   UNL     1      15.428  18.340  17.657  1.00  0.00    -0.062 C 
HETATM    7  C   UNL     1      14.983  16.470  16.130  1.00  0.00     0.001 C 
HETATM    8  C   UNL     1      16.012  16.517  15.234  1.00  0.00     0.000 C 
ENDROOT
TORSDOF 0
ENDMDL
MODEL 2
REMARK VINA RESULT:      -3.7      0.677      3.459
REMARK  0 active torsions:
REMARK  status: ('A' for Active; 'I' for Inactive)
ROOT
HETATM    1  C   UNL     1      16.265  16.521  15.265  1.00  0.00     0.007 C 
HETATM    2  C   UNL     1      14.757  17.351  17.024  1.00  0.00     0.000 C 
HETATM    3  C   UNL     1      18.141  17.692  14.103  1.00  0.00     0.048 C 
HETATM    4  C   UNL     1      15.132  16.525  16.011  1.00  0.00     0.001 C 
HETATM    5  C   UNL     1      17.738  17.863  16.546  1.00  0.00     0.007 C 
HETATM    6  C   UNL     1      17.346  17.363  15.326  1.00  0.00    -0.062 C 
HETATM    7  C   UNL     1      16.987  18.051  17.655  1.00  0.00     0.001 C 
HETATM    8  C   UNL     1      15.629  18.085  17.789  1.00  0.00     0.000 C 
ENDROOT
TORSDOF 0
ENDMDL
MODEL 3
REMARK VINA RESULT:      -3.7      0.790      2.824
REMARK  0 active torsions:
REMARK  status: ('A' for Active; 'I' for Inactive)
ROOT
HETATM    1  C   UNL     1      16.371  16.835  15.008  1.00  0.00     0.007 C 
HETATM    2  C   UNL     1      17.738  17.941  16.730  1.00  0.00     0.000 C 
HETATM    3  C   UNL     1      14.610  15.081  15.266  1.00  0.00     0.048 C 
HETATM    4  C   UNL     1      17.439  17.534  15.467  1.00  0.00     0.001 C 
HETATM    5  C   UNL     1      14.813  17.037  16.780  1.00  0.00     0.007 C 
HETATM    6  C   UNL     1      15.299  16.336  15.701  1.00  0.00    -0.062 C 
HETATM    7  C   UNL     1      15.472  17.907  17.580  1.00  0.00     0.001 C 
HETATM    8  C   UNL     1      16.815  18.100  17.733  1.00  0.00     0.000 C 
ENDROOT
TORSDOF 0
ENDMDL
MODEL 4
REMARK VINA RESULT:      -3.6      0.932      2.481
REMARK  0 active torsions:
REMARK  status: ('A' for Active; 'I' for Inactive)
ROOT
HETATM    1  C   UNL     1      15.194  17.483  17.300  1.00  0.00     0.007 C 
HETATM    2  C   UNL     1      17.444  18.464  17.110  1.00  0.00     0.000 C 
HETATM    3  C   UNL     1      13.546  16.939  15.503  1.00  0.00     0.048 C 
HETATM    4  C   UNL     1      16.294  18.132  17.757  1.00  0.00     0.001 C 
HETATM    5  C   UNL     1      15.975  16.474  15.304  1.00  0.00     0.007 C 
HETATM    6  C   UNL     1      14.938  16.988  16.047  1.00  0.00    -0.062 C 
HETATM    7  C   UNL     1      17.292  16.773  15.385  1.00  0.00     0.001 C 
HETATM    8  C   UNL     1      17.907  17.836  15.982  1.00  0.00     0.000 C 
ENDROOT
TORSDOF 0
ENDMDL
MODEL 5
REMARK VINA RESULT:      -3.6      0.855      2.970
REMARK  0 active torsions:
REMARK  status: ('A' for Active; 'I' for Inactive)
ROOT
HETATM    1  C   UNL     1      17.537  18.409  16.406  1.00  0.00     0.007 C 
HETATM    2  C   UNL     1      15.608  17.904  17.850  1.00  0.00     0.000 C 
HETATM    3  C   UNL     1      18.683  16.958  14.726  1.00  0.00     0.048 C 
HETATM    4  C   UNL     1      16.726  18.586  17.479  1.00  0.00     0.001 C 
HETATM    5  C   UNL     1      16.216  17.073  14.965  1.00  0.00     0.007 C 
HETATM    6  C   UNL     1      17.454  17.482  15.400  1.00  0.00    -0.062 C 
HETATM    7  C   UNL     1      15.047  17.068  15.648  1.00  0.00     0.001 C 
HETATM    8  C   UNL     1      14.825  17.174  16.991  1.00  0.00     0.000 C 
ENDROOT
TORSDOF 0
ENDMDL
MODEL 6
REMARK VINA RESULT:      -3.4      1.527      2.180
REMARK  0 active torsions:
REMARK  status: ('A' for Active; 'I' for Inactive)
ROOT
HETATM    1  C   UNL     1      15.646  18.135  17.871  1.00  0.00     0.007 C 
HETATM    2  C   UNL     1      17.658  18.298  16.462  1.00  0.00     0.000 C 
HETATM    3  C   UNL     1      14.249  19.956  18.857  1.00  0.00     0.048 C 
HETATM    4  C   UNL     1      16.794  17.678  17.311  1.00  0.00     0.001 C 
HETATM    5  C   UNL     1      15.127  20.022  16.537  1.00  0.00     0.007 C 
HETATM    6  C   UNL     1      15.045  19.360  17.739  1.00  0.00    -0.062 C 
HETATM    7  C   UNL     1      16.078  19.907  15.581  1.00  0.00     0.001 C 
HETATM    8  C   UNL     1      17.327  19.361  15.659  1.00  0.00     0.000 C 
ENDROOT
TORSDOF 0
ENDMDL
MODEL 7
REMARK VINA RESULT:      -3.2      1.445      3.434
REMARK  0 active torsions:
REMARK  status: ('A' for Active; 'I' for Inactive)
ROOT
HETATM    1  C   UNL     1      16.252  19.572  15.778  1.00  0.00     0.007 C 
HETATM    2  C   UNL     1      14.855  20.680  17.475  1.00  0.00     0.000 C 
HETATM    3  C   UNL     1      18.107  17.926  16.082  1.00  0.00     0.048 C 
HETATM    4  C   UNL     1      15.420  20.536  16.246  1.00  0.00     0.001 C 
HETATM    5  C   UNL     1      15.987  17.837  17.369  1.00  0.00     0.007 C 
HETATM    6  C   UNL     1      16.759  18.476  16.427  1.00  0.00    -0.062 C 
HETATM    7  C   UNL     1      14.984  18.350  18.118  1.00  0.00     0.001 C 
HETATM    8  C   UNL     1      14.664  19.654  18.366  1.00  0.00     0.000 C 
ENDROOT
TORSDOF 0
ENDMDL
MODEL 8
REMARK VINA RESULT:      -3.2      1.804      3.421
REMARK  0 active torsions:
REMARK  status: ('A' for Active; 'I' for Inactive)
ROOT
HETATM    1  C   UNL     1      18.067  18.200  15.908  1.00  0.00     0.007 C 
HETATM    2  C   UNL     1      16.288  17.955  17.592  1.00  0.00     0.000 C 
HETATM    3  C   UNL     1      17.886  18.760  13.480  1.00  0.00     0.048 C 
HETATM    4  C   UNL     1      17.535  17.770  17.079  1.00  0.00     0.001 C 
HETATM    5  C   UNL     1      16.559  19.899  15.241  1.00  0.00     0.007 C 
HETATM    6  C   UNL     1      17.485  18.938  14.910  1.00  0.00    -0.062 C 
HETATM    7  C   UNL     1      15.764  19.957  16.334  1.00  0.00     0.001 C 
HETATM    8  C   UNL     1      15.445  18.976  17.229  1.00  0.00     0.000 C 
ENDROOT
TORSDOF 0
ENDMDL
MODEL 9
REMARK VINA RESULT:      -3.1      1.842      2.721
REMARK  0 active torsions:
REMARK  status: ('A' for Active; 'I' for Inactive)
ROOT
HETATM    1  C   UNL     1      16.469  19.515  15.944  1.00  0.00     0.007 C 
HETATM    2  C   UNL     1      17.328  19.024  13.690  1.00  0.00     0.000 C 
HETATM    3  C   UNL     1      15.713  17.940  17.729  1.00  0.00     0.048 C 
HETATM    4  C   UNL     1      16.767  19.805  14.652  1.00  0.00     0.001 C 
HETATM    5  C   UNL     1      17.737  17.555  16.346  1.00  0.00     0.007 C 
HETATM    6  C   UNL     1      16.646  18.343  16.632  1.00  0.00    -0.062 C 
HETATM    7  C   UNL     1      18.438  17.483  15.191  1.00  0.00     0.001 C 
HETATM    8  C   UNL     1      18.102  17.919  13.942  1.00  0.00     0.000 C 
ENDROOT
TORSDOF 0
ENDMDL
