REMARK  0 active torsions:
REMARK  status: ('A' for Active; 'I' for Inactive)
ROOT
HETATM    1  C   UNL     1       5.365 -11.938 -10.708  1.00  0.00     0.057 C 
HETATM    2  C   UNL     1       6.586 -12.376  -9.965  1.00  0.00     0.170 C 
HETATM    3  O   UNL     1       7.235 -13.553 -10.314  1.00  0.00    -0.391 OA
HETATM    4  N   UNL     1       2.246 -12.861 -13.139  1.00  0.00    -0.323 N 
ATOM      5  HN  UNL     1       1.347 -12.927 -13.616  1.00  0.00     0.169 HD
HETATM    6  C   UNL     1       4.691 -12.821 -11.738  1.00  0.00     0.043 C 
HETATM    7  C   UNL     1       2.327 -13.235 -11.840  1.00  0.00     0.179 C 
HETATM    8  O   UNL     1       3.315 -12.248 -15.052  1.00  0.00    -0.273 OA
HETATM    9  C   UNL     1       3.325 -12.400 -13.828  1.00  0.00     0.224 C 
HETATM   10  C   UNL     1       5.474 -14.092 -12.043  1.00  0.00     0.057 C 
HETATM   11  N   UNL     1       3.405 -13.224 -11.130  1.00  0.00    -0.376 N 
ATOM     12  HN  UNL     1       3.370 -13.494 -10.147  1.00  0.00     0.161 HD
HETATM   13  C   UNL     1       4.533 -12.005 -13.014  1.00  0.00     0.134 C 
HETATM   14  C   UNL     1       6.638 -14.472 -11.168  1.00  0.00     0.170 C 
ENDROOT
TORSDOF 0
