MODEL 1
REMARK VINA RESULT:      -6.4      0.000      0.000
REMARK  0 active torsions:
REMARK  status: ('A' for Active; 'I' for Inactive)
ROOT
HETATM    1  C   UNL     1       6.570   3.362  10.674  1.00  0.00     0.017 C 
HETATM    2  C   UNL     1       6.543   2.078  11.509  1.00  0.00    -0.013 C 
HETATM    3  C   UNL     1       4.199   2.993   9.978  1.00  0.00     0.017 C 
HETATM    4  C   UNL     1       5.857   0.791   8.860  1.00  0.00     0.056 C 
HETATM    5  C   UNL     1       7.053   0.242   9.646  1.00  0.00     0.013 C 
HETATM    6  C   UNL     1       4.515   0.565   9.546  1.00  0.00     0.017 C 
HETATM    7  C   UNL     1       5.614   3.307   9.498  1.00  0.00     0.056 C 
HETATM    8  O   UNL     1       6.945   2.552   7.688  1.00  0.00    -0.297 OA
HETATM    9  C   UNL     1       5.137   1.572  11.819  1.00  0.00     0.009 C 
HETATM   10  C   UNL     1       6.097   2.248   8.520  1.00  0.00     0.135 C 
HETATM   11  C   UNL     1       7.430   0.947  10.951  1.00  0.00     0.005 C 
HETATM   12  C   UNL     1       4.181   1.600  10.620  1.00  0.00    -0.013 C 
ENDROOT
TORSDOF 0
ENDMDL
MODEL 2
REMARK VINA RESULT:      -6.3      1.222      2.654
REMARK  0 active torsions:
REMARK  status: ('A' for Active; 'I' for Inactive)
ROOT
HETATM    1  C   UNL     1       6.568   2.561   8.784  1.00  0.00     0.017 C 
HETATM    2  C   UNL     1       6.593   1.076   9.163  1.00  0.00    -0.013 C 
HETATM    3  C   UNL     1       6.719   3.208  11.192  1.00  0.00     0.017 C 
HETATM    4  C   UNL     1       4.131   1.807  10.760  1.00  0.00     0.056 C 
HETATM    5  C   UNL     1       4.030   0.653   9.756  1.00  0.00     0.013 C 
HETATM    6  C   UNL     1       5.055   1.519  11.937  1.00  0.00     0.017 C 
HETATM    7  C   UNL     1       5.974   3.427   9.878  1.00  0.00     0.056 C 
HETATM    8  O   UNL     1       3.685   3.628   9.296  1.00  0.00    -0.297 OA
HETATM    9  C   UNL     1       7.107   0.808  10.575  1.00  0.00     0.009 C 
HETATM   10  C   UNL     1       4.501   3.084  10.032  1.00  0.00     0.135 C 
HETATM   11  C   UNL     1       5.263   0.340   8.907  1.00  0.00     0.005 C 
HETATM   12  C   UNL     1       6.536   1.753  11.641  1.00  0.00    -0.013 C 
ENDROOT
TORSDOF 0
ENDMDL
MODEL 3
REMARK VINA RESULT:      -6.2      1.244      2.667
REMARK  0 active torsions:
REMARK  status: ('A' for Active; 'I' for Inactive)
ROOT
HETATM    1  C   UNL     1       5.206   1.494  11.837  1.00  0.00     0.017 C 
HETATM    2  C   UNL     1       4.172   1.623  10.714  1.00  0.00    -0.013 C 
HETATM    3  C   UNL     1       6.505   3.411  10.900  1.00  0.00     0.017 C 
HETATM    4  C   UNL     1       6.574   1.182   8.932  1.00  0.00     0.056 C 
HETATM    5  C   UNL     1       5.362   0.260   8.759  1.00  0.00     0.013 C 
HETATM    6  C   UNL     1       6.305   2.631   8.548  1.00  0.00     0.017 C 
HETATM    7  C   UNL     1       6.581   1.976  11.415  1.00  0.00     0.056 C 
HETATM    8  O   UNL     1       7.694   0.017  10.678  1.00  0.00    -0.297 OA
HETATM    9  C   UNL     1       4.212   2.966   9.989  1.00  0.00     0.009 C 
HETATM   10  C   UNL     1       7.120   1.046  10.339  1.00  0.00     0.135 C 
HETATM   11  C   UNL     1       4.182   0.451   9.713  1.00  0.00     0.005 C 
HETATM   12  C   UNL     1       5.626   3.452   9.644  1.00  0.00    -0.013 C 
ENDROOT
TORSDOF 0
ENDMDL
MODEL 4
REMARK VINA RESULT:      -6.2      1.298      2.638
REMARK  0 active torsions:
REMARK  status: ('A' for Active; 'I' for Inactive)
ROOT
HETATM    1  C   UNL     1       7.230   0.884  10.731  1.00  0.00     0.017 C 
HETATM    2  C   UNL     1       6.557   1.829  11.732  1.00  0.00    -0.013 C 
HETATM    3  C   UNL     1       6.866   2.530   8.888  1.00  0.00     0.017 C 
HETATM    4  C   UNL     1       4.210   1.588   9.841  1.00  0.00     0.056 C 
HETATM    5  C   UNL     1       3.985   1.266  11.322  1.00  0.00     0.013 C 
HETATM    6  C   UNL     1       4.534   3.053   9.572  1.00  0.00     0.017 C 
HETATM    7  C   UNL     1       6.712   1.073   9.318  1.00  0.00     0.056 C 
HETATM    8  O   UNL     1       4.984  -0.536   9.101  1.00  0.00    -0.297 OA
HETATM    9  C   UNL     1       6.461   3.274  11.248  1.00  0.00     0.009 C 
HETATM   10  C   UNL     1       5.252   0.649   9.268  1.00  0.00     0.135 C 
HETATM   11  C   UNL     1       5.197   1.326  12.254  1.00  0.00     0.005 C 
HETATM   12  C   UNL     1       6.001   3.418   9.791  1.00  0.00    -0.013 C 
ENDROOT
TORSDOF 0
ENDMDL
MODEL 5
REMARK VINA RESULT:      -6.1      1.279      2.709
REMARK  0 active torsions:
REMARK  status: ('A' for Active; 'I' for Inactive)
ROOT
HETATM    1  C   UNL     1       4.184   2.655   9.982  1.00  0.00     0.017 C 
HETATM    2  C   UNL     1       5.524   3.322   9.653  1.00  0.00    -0.013 C 
HETATM    3  C   UNL     1       5.180   1.593  12.012  1.00  0.00     0.017 C 
HETATM    4  C   UNL     1       6.529   0.471   9.611  1.00  0.00     0.056 C 
HETATM    5  C   UNL     1       6.782   1.348   8.380  1.00  0.00     0.013 C 
HETATM    6  C   UNL     1       7.278   0.928  10.857  1.00  0.00     0.017 C 
HETATM    7  C   UNL     1       4.357   1.357  10.748  1.00  0.00     0.056 C 
HETATM    8  O   UNL     1       4.351  -0.322   9.075  1.00  0.00    -0.297 OA
HETATM    9  C   UNL     1       6.496   3.369  10.829  1.00  0.00     0.009 C 
HETATM   10  C   UNL     1       5.038   0.340   9.846  1.00  0.00     0.135 C 
HETATM   11  C   UNL     1       6.208   2.766   8.388  1.00  0.00     0.005 C 
HETATM   12  C   UNL     1       6.588   2.058  11.620  1.00  0.00    -0.013 C 
ENDROOT
TORSDOF 0
ENDMDL
MODEL 6
REMARK VINA RESULT:      -6.1      1.598      3.120
REMARK  0 active torsions:
REMARK  status: ('A' for Active; 'I' for Inactive)
ROOT
HETATM    1  C   UNL     1       4.713   0.549   9.289  1.00  0.00     0.017 C 
HETATM    2  C   UNL     1       6.075   0.932   8.699  1.00  0.00    -0.013 C 
HETATM    3  C   UNL     1       4.237   2.945   9.816  1.00  0.00     0.017 C 
HETATM    4  C   UNL     1       6.555   2.068  11.460  1.00  0.00     0.056 C 
HETATM    5  C   UNL     1       7.570   1.066  10.900  1.00  0.00     0.013 C 
HETATM    6  C   UNL     1       6.515   3.390  10.704  1.00  0.00     0.017 C 
HETATM    7  C   UNL     1       4.255   1.519  10.362  1.00  0.00     0.056 C 
HETATM    8  O   UNL     1       4.987   0.543  12.394  1.00  0.00    -0.297 OA
HETATM    9  C   UNL     1       6.204   2.414   8.355  1.00  0.00     0.009 C 
HETATM   10  C   UNL     1       5.192   1.413  11.555  1.00  0.00     0.135 C 
HETATM   11  C   UNL     1       7.279   0.448   9.532  1.00  0.00     0.005 C 
HETATM   12  C   UNL     1       5.663   3.359   9.436  1.00  0.00    -0.013 C 
ENDROOT
TORSDOF 0
ENDMDL
MODEL 7
REMARK VINA RESULT:      -6.0      0.628      2.921
REMARK  0 active torsions:
REMARK  status: ('A' for Active; 'I' for Inactive)
ROOT
HETATM    1  C   UNL     1       5.660   0.177   9.428  1.00  0.00     0.017 C 
HETATM    2  C   UNL     1       4.721   0.750  10.494  1.00  0.00    -0.013 C 
HETATM    3  C   UNL     1       7.643   1.083  10.649  1.00  0.00     0.017 C 
HETATM    4  C   UNL     1       5.998   3.374   9.705  1.00  0.00     0.056 C 
HETATM    5  C   UNL     1       4.470   3.268   9.661  1.00  0.00     0.013 C 
HETATM    6  C   UNL     1       6.581   3.283  11.110  1.00  0.00     0.017 C 
HETATM    7  C   UNL     1       6.942   0.979   9.297  1.00  0.00     0.056 C 
HETATM    8  O   UNL     1       6.503   2.514   7.545  1.00  0.00    -0.297 OA
HETATM    9  C   UNL     1       5.418   1.107  11.804  1.00  0.00     0.009 C 
HETATM   10  C   UNL     1       6.606   2.360   8.757  1.00  0.00     0.135 C 
HETATM   11  C   UNL     1       3.841   1.914   9.997  1.00  0.00     0.005 C 
HETATM   12  C   UNL     1       6.746   1.854  11.626  1.00  0.00    -0.013 C 
ENDROOT
TORSDOF 0
ENDMDL
MODEL 8
REMARK VINA RESULT:      -6.0      1.851      3.207
REMARK  0 active torsions:
REMARK  status: ('A' for Active; 'I' for Inactive)
ROOT
HETATM    1  C   UNL     1       5.511   1.093  12.542  1.00  0.00     0.017 C 
HETATM    2  C   UNL     1       6.527   1.911  11.739  1.00  0.00    -0.013 C 
HETATM    3  C   UNL     1       5.811  -0.848  10.997  1.00  0.00     0.017 C 
HETATM    4  C   UNL     1       4.610   1.396   9.458  1.00  0.00     0.056 C 
HETATM    5  C   UNL     1       4.996   2.847   9.770  1.00  0.00     0.013 C 
HETATM    6  C   UNL     1       5.766   0.549   8.942  1.00  0.00     0.017 C 
HETATM    7  C   UNL     1       4.797   0.060  11.689  1.00  0.00     0.056 C 
HETATM    8  O   UNL     1       2.808   1.143  10.990  1.00  0.00    -0.297 OA
HETATM    9  C   UNL     1       7.419   1.068  10.831  1.00  0.00     0.009 C 
HETATM   10  C   UNL     1       3.933   0.779  10.666  1.00  0.00     0.135 C 
HETATM   11  C   UNL     1       5.912   3.096  10.969  1.00  0.00     0.005 C 
HETATM   12  C   UNL     1       6.669  -0.012  10.040  1.00  0.00    -0.013 C 
ENDROOT
TORSDOF 0
ENDMDL
MODEL 9
REMARK VINA RESULT:      -5.9      0.997      2.473
REMARK  0 active torsions:
REMARK  status: ('A' for Active; 'I' for Inactive)
ROOT
HETATM    1  C   UNL     1       4.446   1.983   9.785  1.00  0.00     0.017 C 
HETATM    2  C   UNL     1       5.165   2.449  11.056  1.00  0.00    -0.013 C 
HETATM    3  C   UNL     1       5.748  -0.149   9.797  1.00  0.00     0.017 C 
HETATM    4  C   UNL     1       7.642   2.101   9.358  1.00  0.00     0.056 C 
HETATM    5  C   UNL     1       7.412   3.455  10.038  1.00  0.00     0.013 C 
HETATM    6  C   UNL     1       7.907   0.960  10.332  1.00  0.00     0.017 C 
HETATM    7  C   UNL     1       5.295   1.040   8.953  1.00  0.00     0.056 C 
HETATM    8  O   UNL     1       6.371   2.447   7.377  1.00  0.00    -0.297 OA
HETATM    9  C   UNL     1       5.854   1.323  11.823  1.00  0.00     0.009 C 
HETATM   10  C   UNL     1       6.495   1.804   8.414  1.00  0.00     0.135 C 
HETATM   11  C   UNL     1       6.121   3.638  10.837  1.00  0.00     0.005 C 
HETATM   12  C   UNL     1       6.643   0.350  10.937  1.00  0.00    -0.013 C 
ENDROOT
TORSDOF 0
ENDMDL
