MODEL 1
REMARK VINA RESULT:      -6.0      0.000      0.000
REMARK  7 active torsions:
REMARK  status: ('A' for Active; 'I' for Inactive)
REMARK    1  A    between atoms: C_1  and  C_12 
REMARK    2  A    between atoms: C_1  and  C_15 
REMARK    3  A    between atoms: C_3  and  C_11 
REMARK    4  A    between atoms: C_3  and  C_15 
REMARK    5  A    between atoms: N_5  and  C_12 
REMARK    6  A    between atoms: O_9  and  C_12 
REMARK    7  A    between atoms: C_12  and  O_13 
ROOT
HETATM    1  C   UNL     1      -3.698  11.710 -16.989  1.00  0.00     0.331 C 
ENDROOT
BRANCH   1   2
HETATM    2  C   UNL     1      -3.684  12.911 -16.000  1.00  0.00     0.101 C 
BRANCH   2   3
HETATM    3  C   UNL     1      -2.374  13.678 -15.785  1.00  0.00     0.018 C 
BRANCH   3   4
HETATM    4  C   UNL     1      -2.561  15.155 -16.177  1.00  0.00     0.113 C 
BRANCH   4   5
HETATM    5  C   UNL     1      -1.714  15.549 -17.383  1.00  0.00     0.172 C 
HETATM    6  O   UNL     1      -1.211  16.674 -17.502  1.00  0.00    -0.648 OA
HETATM    7  O   UNL     1      -1.477  14.642 -18.226  1.00  0.00    -0.648 OA
ENDBRANCH   4   5
ENDBRANCH   3   4
ENDBRANCH   2   3
ENDBRANCH   1   2
BRANCH   1   8
HETATM    8  N   UNL     1      -2.684  11.880 -17.984  1.00  0.00    -0.021 N 
ATOM      9  HN3 UNL     1      -1.839  11.353 -17.763  1.00  0.00     0.280 HD
ATOM     10  HN2 UNL     1      -2.926  11.416 -18.860  1.00  0.00     0.280 HD
ATOM     11  HN1 UNL     1      -2.489  12.873 -18.120  1.00  0.00     0.280 HD
ENDBRANCH   1   8
BRANCH   1  12
HETATM   12  O   UNL     1      -3.525  10.564 -16.311  1.00  0.00    -0.344 OA
ATOM     13  HO  UNL     1      -3.510   9.833 -16.918  1.00  0.00     0.215 HD
ENDBRANCH   1  12
BRANCH   1  14
HETATM   14  O   UNL     1      -4.959  11.639 -17.553  1.00  0.00    -0.344 OA
ATOM     15  HO  UNL     1      -4.958  10.926 -18.180  1.00  0.00     0.215 HD
ENDBRANCH   1  14
TORSDOF 7
ENDMDL
MODEL 2
REMARK VINA RESULT:      -5.5      0.935      1.539
REMARK  7 active torsions:
REMARK  status: ('A' for Active; 'I' for Inactive)
REMARK    1  A    between atoms: C_1  and  C_12 
REMARK    2  A    between atoms: C_1  and  C_15 
REMARK    3  A    between atoms: C_3  and  C_11 
REMARK    4  A    between atoms: C_3  and  C_15 
REMARK    5  A    between atoms: N_5  and  C_12 
REMARK    6  A    between atoms: O_9  and  C_12 
REMARK    7  A    between atoms: C_12  and  O_13 
ROOT
HETATM    1  C   UNL     1      -3.006  11.726 -16.870  1.00  0.00     0.331 C 
ENDROOT
BRANCH   1   2
HETATM    2  C   UNL     1      -3.399  12.801 -15.815  1.00  0.00     0.101 C 
BRANCH   2   3
HETATM    3  C   UNL     1      -3.658  14.238 -16.284  1.00  0.00     0.018 C 
BRANCH   3   4
HETATM    4  C   UNL     1      -2.397  15.094 -16.073  1.00  0.00     0.113 C 
BRANCH   4   5
HETATM    5  C   UNL     1      -1.641  15.348 -17.374  1.00  0.00     0.172 C 
HETATM    6  O   UNL     1      -1.569  14.503 -18.275  1.00  0.00    -0.648 OA
HETATM    7  O   UNL     1      -1.157  16.502 -17.527  1.00  0.00    -0.648 OA
ENDBRANCH   4   5
ENDBRANCH   3   4
ENDBRANCH   2   3
ENDBRANCH   1   2
BRANCH   1   8
HETATM    8  N   UNL     1      -3.636  12.013 -18.122  1.00  0.00    -0.021 N 
ATOM      9  HN3 UNL     1      -4.541  12.468 -17.999  1.00  0.00     0.280 HD
ATOM     10  HN2 UNL     1      -3.159  12.761 -18.627  1.00  0.00     0.280 HD
ATOM     11  HN1 UNL     1      -3.710  11.162 -18.680  1.00  0.00     0.280 HD
ENDBRANCH   1   8
BRANCH   1  12
HETATM   12  O   UNL     1      -1.670  11.684 -16.996  1.00  0.00    -0.344 OA
ATOM     13  HO  UNL     1      -1.267  11.700 -16.136  1.00  0.00     0.215 HD
ENDBRANCH   1  12
BRANCH   1  14
HETATM   14  O   UNL     1      -3.388  10.490 -16.378  1.00  0.00    -0.344 OA
ATOM     15  HO  UNL     1      -2.790  10.259 -15.677  1.00  0.00     0.215 HD
ENDBRANCH   1  14
TORSDOF 7
ENDMDL
MODEL 3
REMARK VINA RESULT:      -5.3      1.645      4.306
REMARK  7 active torsions:
REMARK  status: ('A' for Active; 'I' for Inactive)
REMARK    1  A    between atoms: C_1  and  C_12 
REMARK    2  A    between atoms: C_1  and  C_15 
REMARK    3  A    between atoms: C_3  and  C_11 
REMARK    4  A    between atoms: C_3  and  C_15 
REMARK    5  A    between atoms: N_5  and  C_12 
REMARK    6  A    between atoms: O_9  and  C_12 
REMARK    7  A    between atoms: C_12  and  O_13 
ROOT
HETATM    1  C   UNL     1      -2.031  15.803 -17.368  1.00  0.00     0.331 C 
ENDROOT
BRANCH   1   2
HETATM    2  C   UNL     1      -2.083  15.376 -15.872  1.00  0.00     0.101 C 
BRANCH   2   3
HETATM    3  C   UNL     1      -1.840  13.905 -15.514  1.00  0.00     0.018 C 
BRANCH   3   4
HETATM    4  C   UNL     1      -3.082  13.067 -15.868  1.00  0.00     0.113 C 
BRANCH   4   5
HETATM    5  C   UNL     1      -2.726  11.789 -16.622  1.00  0.00     0.172 C 
HETATM    6  O   UNL     1      -3.293  10.711 -16.406  1.00  0.00    -0.648 OA
HETATM    7  O   UNL     1      -1.875  11.899 -17.546  1.00  0.00    -0.648 OA
ENDBRANCH   4   5
ENDBRANCH   3   4
ENDBRANCH   2   3
ENDBRANCH   1   2
BRANCH   1   8
HETATM    8  N   UNL     1      -3.346  16.120 -17.834  1.00  0.00    -0.021 N 
ATOM      9  HN3 UNL     1      -4.062  15.565 -17.364  1.00  0.00     0.280 HD
ATOM     10  HN2 UNL     1      -3.648  17.045 -17.527  1.00  0.00     0.280 HD
ATOM     11  HN1 UNL     1      -3.392  16.021 -18.849  1.00  0.00     0.280 HD
ENDBRANCH   1   8
BRANCH   1  12
HETATM   12  O   UNL     1      -1.201  16.848 -17.511  1.00  0.00    -0.344 OA
ATOM     13  HO  UNL     1      -0.522  16.633 -18.140  1.00  0.00     0.215 HD
ENDBRANCH   1  12
BRANCH   1  14
HETATM   14  O   UNL     1      -1.472  14.762 -18.087  1.00  0.00    -0.344 OA
ATOM     15  HO  UNL     1      -1.136  14.126 -17.466  1.00  0.00     0.215 HD
ENDBRANCH   1  14
TORSDOF 7
ENDMDL
MODEL 4
REMARK VINA RESULT:      -5.3      1.819      4.233
REMARK  7 active torsions:
REMARK  status: ('A' for Active; 'I' for Inactive)
REMARK    1  A    between atoms: C_1  and  C_12 
REMARK    2  A    between atoms: C_1  and  C_15 
REMARK    3  A    between atoms: C_3  and  C_11 
REMARK    4  A    between atoms: C_3  and  C_15 
REMARK    5  A    between atoms: N_5  and  C_12 
REMARK    6  A    between atoms: O_9  and  C_12 
REMARK    7  A    between atoms: C_12  and  O_13 
ROOT
HETATM    1  C   UNL     1      -1.981  15.424 -16.466  1.00  0.00     0.331 C 
ENDROOT
BRANCH   1   2
HETATM    2  C   UNL     1      -3.490  15.074 -16.617  1.00  0.00     0.101 C 
BRANCH   2   3
HETATM    3  C   UNL     1      -3.889  13.872 -17.482  1.00  0.00     0.018 C 
BRANCH   3   4
HETATM    4  C   UNL     1      -4.020  12.616 -16.603  1.00  0.00     0.113 C 
BRANCH   4   5
HETATM    5  C   UNL     1      -2.827  11.676 -16.747  1.00  0.00     0.172 C 
HETATM    6  O   UNL     1      -1.771  12.024 -17.291  1.00  0.00    -0.648 OA
HETATM    7  O   UNL     1      -2.934  10.542 -16.207  1.00  0.00    -0.648 OA
ENDBRANCH   4   5
ENDBRANCH   3   4
ENDBRANCH   2   3
ENDBRANCH   1   2
BRANCH   1   8
HETATM    8  N   UNL     1      -1.423  14.724 -15.350  1.00  0.00    -0.021 N 
ATOM      9  HN3 UNL     1      -1.960  14.877 -14.496  1.00  0.00     0.280 HD
ATOM     10  HN2 UNL     1      -1.552  13.714 -15.429  1.00  0.00     0.280 HD
ATOM     11  HN1 UNL     1      -0.441  14.975 -15.233  1.00  0.00     0.280 HD
ENDBRANCH   1   8
BRANCH   1  12
HETATM   12  O   UNL     1      -1.331  15.123 -17.602  1.00  0.00    -0.344 OA
ATOM     13  HO  UNL     1      -1.129  14.195 -17.619  1.00  0.00     0.215 HD
ENDBRANCH   1  12
BRANCH   1  14
HETATM   14  O   UNL     1      -1.876  16.795 -16.312  1.00  0.00    -0.344 OA
ATOM     15  HO  UNL     1      -1.656  17.167 -17.158  1.00  0.00     0.215 HD
ENDBRANCH   1  14
TORSDOF 7
ENDMDL
MODEL 5
REMARK VINA RESULT:      -5.3      2.569      3.045
REMARK  7 active torsions:
REMARK  status: ('A' for Active; 'I' for Inactive)
REMARK    1  A    between atoms: C_1  and  C_12 
REMARK    2  A    between atoms: C_1  and  C_15 
REMARK    3  A    between atoms: C_3  and  C_11 
REMARK    4  A    between atoms: C_3  and  C_15 
REMARK    5  A    between atoms: N_5  and  C_12 
REMARK    6  A    between atoms: O_9  and  C_12 
REMARK    7  A    between atoms: C_12  and  O_13 
ROOT
HETATM    1  C   UNL     1      -2.922  11.095 -17.407  1.00  0.00     0.331 C 
ENDROOT
BRANCH   1   2
HETATM    2  C   UNL     1      -2.800  12.573 -16.936  1.00  0.00     0.101 C 
BRANCH   2   3
HETATM    3  C   UNL     1      -4.011  13.242 -16.274  1.00  0.00     0.018 C 
BRANCH   3   4
HETATM    4  C   UNL     1      -4.442  14.471 -17.093  1.00  0.00     0.113 C 
BRANCH   4   5
HETATM    5  C   UNL     1      -5.411  14.113 -18.216  1.00  0.00     0.172 C 
HETATM    6  O   UNL     1      -5.026  13.715 -19.322  1.00  0.00    -0.648 OA
HETATM    7  O   UNL     1      -6.639  14.162 -17.936  1.00  0.00    -0.648 OA
ENDBRANCH   4   5
ENDBRANCH   3   4
ENDBRANCH   2   3
ENDBRANCH   1   2
BRANCH   1   8
HETATM    8  N   UNL     1      -3.650  11.030 -18.637  1.00  0.00    -0.021 N 
ATOM      9  HN3 UNL     1      -3.402  11.793 -19.268  1.00  0.00     0.280 HD
ATOM     10  HN2 UNL     1      -3.346  10.249 -19.220  1.00  0.00     0.280 HD
ATOM     11  HN1 UNL     1      -4.652  10.999 -18.450  1.00  0.00     0.280 HD
ENDBRANCH   1   8
BRANCH   1  12
HETATM   12  O   UNL     1      -1.698  10.559 -17.539  1.00  0.00    -0.344 OA
ATOM     13  HO  UNL     1      -1.401  10.231 -16.698  1.00  0.00     0.215 HD
ENDBRANCH   1  12
BRANCH   1  14
HETATM   14  O   UNL     1      -3.551  10.380 -16.403  1.00  0.00    -0.344 OA
ATOM     15  HO  UNL     1      -4.070   9.697 -16.813  1.00  0.00     0.215 HD
ENDBRANCH   1  14
TORSDOF 7
ENDMDL
MODEL 6
REMARK VINA RESULT:      -5.2      1.288      1.564
REMARK  7 active torsions:
REMARK  status: ('A' for Active; 'I' for Inactive)
REMARK    1  A    between atoms: C_1  and  C_12 
REMARK    2  A    between atoms: C_1  and  C_15 
REMARK    3  A    between atoms: C_3  and  C_11 
REMARK    4  A    between atoms: C_3  and  C_15 
REMARK    5  A    between atoms: N_5  and  C_12 
REMARK    6  A    between atoms: O_9  and  C_12 
REMARK    7  A    between atoms: C_12  and  O_13 
ROOT
HETATM    1  C   UNL     1      -3.869  11.552 -17.443  1.00  0.00     0.331 C 
ENDROOT
BRANCH   1   2
HETATM    2  C   UNL     1      -3.196  12.797 -16.796  1.00  0.00     0.101 C 
BRANCH   2   3
HETATM    3  C   UNL     1      -2.837  13.992 -17.688  1.00  0.00     0.018 C 
BRANCH   3   4
HETATM    4  C   UNL     1      -3.623  15.236 -17.237  1.00  0.00     0.113 C 
BRANCH   4   5
HETATM    5  C   UNL     1      -2.776  16.504 -17.273  1.00  0.00     0.172 C 
HETATM    6  O   UNL     1      -1.544  16.477 -17.381  1.00  0.00    -0.648 OA
HETATM    7  O   UNL     1      -3.401  17.599 -17.270  1.00  0.00    -0.648 OA
ENDBRANCH   4   5
ENDBRANCH   3   4
ENDBRANCH   2   3
ENDBRANCH   1   2
BRANCH   1   8
HETATM    8  N   UNL     1      -3.327  11.322 -18.747  1.00  0.00    -0.021 N 
ATOM      9  HN3 UNL     1      -3.999  10.866 -19.365  1.00  0.00     0.280 HD
ATOM     10  HN2 UNL     1      -3.208  12.190 -19.269  1.00  0.00     0.280 HD
ATOM     11  HN1 UNL     1      -2.456  10.796 -18.677  1.00  0.00     0.280 HD
ENDBRANCH   1   8
BRANCH   1  12
HETATM   12  O   UNL     1      -3.697  10.482 -16.650  1.00  0.00    -0.344 OA
ATOM     13  HO  UNL     1      -4.270  10.548 -15.895  1.00  0.00     0.215 HD
ENDBRANCH   1  12
BRANCH   1  14
HETATM   14  O   UNL     1      -5.233  11.784 -17.490  1.00  0.00    -0.344 OA
ATOM     15  HO  UNL     1      -5.366  12.666 -17.816  1.00  0.00     0.215 HD
ENDBRANCH   1  14
TORSDOF 7
ENDMDL
MODEL 7
REMARK VINA RESULT:      -5.2      3.378      4.719
REMARK  7 active torsions:
REMARK  status: ('A' for Active; 'I' for Inactive)
REMARK    1  A    between atoms: C_1  and  C_12 
REMARK    2  A    between atoms: C_1  and  C_15 
REMARK    3  A    between atoms: C_3  and  C_11 
REMARK    4  A    between atoms: C_3  and  C_15 
REMARK    5  A    between atoms: N_5  and  C_12 
REMARK    6  A    between atoms: O_9  and  C_12 
REMARK    7  A    between atoms: C_12  and  O_13 
ROOT
HETATM    1  C   UNL     1      -4.279  10.773 -21.290  1.00  0.00     0.331 C 
ENDROOT
BRANCH   1   2
HETATM    2  C   UNL     1      -4.857  11.872 -20.352  1.00  0.00     0.101 C 
BRANCH   2   3
HETATM    3  C   UNL     1      -3.946  12.489 -19.284  1.00  0.00     0.018 C 
BRANCH   3   4
HETATM    4  C   UNL     1      -4.316  11.936 -17.896  1.00  0.00     0.113 C 
BRANCH   4   5
HETATM    5  C   UNL     1      -3.177  11.145 -17.261  1.00  0.00     0.172 C 
HETATM    6  O   UNL     1      -3.275  10.620 -16.145  1.00  0.00    -0.648 OA
HETATM    7  O   UNL     1      -2.146  10.977 -17.968  1.00  0.00    -0.648 OA
ENDBRANCH   4   5
ENDBRANCH   3   4
ENDBRANCH   2   3
ENDBRANCH   1   2
BRANCH   1   8
HETATM    8  N   UNL     1      -3.541   9.814 -20.526  1.00  0.00    -0.021 N 
ATOM      9  HN3 UNL     1      -2.757   9.428 -21.053  1.00  0.00     0.280 HD
ATOM     10  HN2 UNL     1      -3.013  10.252 -19.771  1.00  0.00     0.280 HD
ATOM     11  HN1 UNL     1      -4.165   9.084 -20.182  1.00  0.00     0.280 HD
ENDBRANCH   1   8
BRANCH   1  12
HETATM   12  O   UNL     1      -5.277  10.187 -21.970  1.00  0.00    -0.344 OA
ATOM     13  HO  UNL     1      -5.977  10.814 -22.114  1.00  0.00     0.215 HD
ENDBRANCH   1  12
BRANCH   1  14
HETATM   14  O   UNL     1      -3.482  11.397 -22.233  1.00  0.00    -0.344 OA
ATOM     15  HO  UNL     1      -3.821  11.176 -23.092  1.00  0.00     0.215 HD
ENDBRANCH   1  14
TORSDOF 7
ENDMDL
MODEL 8
REMARK VINA RESULT:      -5.1      2.360      3.572
REMARK  7 active torsions:
REMARK  status: ('A' for Active; 'I' for Inactive)
REMARK    1  A    between atoms: C_1  and  C_12 
REMARK    2  A    between atoms: C_1  and  C_15 
REMARK    3  A    between atoms: C_3  and  C_11 
REMARK    4  A    between atoms: C_3  and  C_15 
REMARK    5  A    between atoms: N_5  and  C_12 
REMARK    6  A    between atoms: O_9  and  C_12 
REMARK    7  A    between atoms: C_12  and  O_13 
ROOT
HETATM    1  C   UNL     1      -5.382  13.370 -18.824  1.00  0.00     0.331 C 
ENDROOT
BRANCH   1   2
HETATM    2  C   UNL     1      -5.008  14.097 -17.500  1.00  0.00     0.101 C 
BRANCH   2   3
HETATM    3  C   UNL     1      -3.563  14.017 -16.993  1.00  0.00     0.018 C 
BRANCH   3   4
HETATM    4  C   UNL     1      -3.437  12.894 -15.948  1.00  0.00     0.113 C 
BRANCH   4   5
HETATM    5  C   UNL     1      -2.895  11.599 -16.546  1.00  0.00     0.172 C 
HETATM    6  O   UNL     1      -3.176  10.486 -16.084  1.00  0.00    -0.648 OA
HETATM    7  O   UNL     1      -2.206  11.709 -17.596  1.00  0.00    -0.648 OA
ENDBRANCH   4   5
ENDBRANCH   3   4
ENDBRANCH   2   3
ENDBRANCH   1   2
BRANCH   1   8
HETATM    8  N   UNL     1      -4.197  13.019 -19.544  1.00  0.00    -0.021 N 
ATOM      9  HN3 UNL     1      -3.672  12.279 -19.078  1.00  0.00     0.280 HD
ATOM     10  HN2 UNL     1      -4.409  12.528 -20.413  1.00  0.00     0.280 HD
ATOM     11  HN1 UNL     1      -3.626  13.850 -19.704  1.00  0.00     0.280 HD
ENDBRANCH   1   8
BRANCH   1  12
HETATM   12  O   UNL     1      -6.122  12.284 -18.549  1.00  0.00    -0.344 OA
ATOM     13  HO  UNL     1      -5.988  12.026 -17.645  1.00  0.00     0.215 HD
ENDBRANCH   1  12
BRANCH   1  14
HETATM   14  O   UNL     1      -6.194  14.216 -19.558  1.00  0.00    -0.344 OA
ATOM     15  HO  UNL     1      -5.799  14.327 -20.415  1.00  0.00     0.215 HD
ENDBRANCH   1  14
TORSDOF 7
ENDMDL
MODEL 9
REMARK VINA RESULT:      -5.1      2.072      2.547
REMARK  7 active torsions:
REMARK  status: ('A' for Active; 'I' for Inactive)
REMARK    1  A    between atoms: C_1  and  C_12 
REMARK    2  A    between atoms: C_1  and  C_15 
REMARK    3  A    between atoms: C_3  and  C_11 
REMARK    4  A    between atoms: C_3  and  C_15 
REMARK    5  A    between atoms: N_5  and  C_12 
REMARK    6  A    between atoms: O_9  and  C_12 
REMARK    7  A    between atoms: C_12  and  O_13 
ROOT
HETATM    1  C   UNL     1      -5.293  13.252 -18.969  1.00  0.00     0.331 C 
ENDROOT
BRANCH   1   2
HETATM    2  C   UNL     1      -5.408  14.488 -18.031  1.00  0.00     0.101 C 
BRANCH   2   3
HETATM    3  C   UNL     1      -4.314  14.726 -16.983  1.00  0.00     0.018 C 
BRANCH   3   4
HETATM    4  C   UNL     1      -3.507  15.985 -17.345  1.00  0.00     0.113 C 
BRANCH   4   5
HETATM    5  C   UNL     1      -2.035  15.678 -17.606  1.00  0.00     0.172 C 
HETATM    6  O   UNL     1      -1.655  14.592 -18.061  1.00  0.00    -0.648 OA
HETATM    7  O   UNL     1      -1.220  16.621 -17.414  1.00  0.00    -0.648 OA
ENDBRANCH   4   5
ENDBRANCH   3   4
ENDBRANCH   2   3
ENDBRANCH   1   2
BRANCH   1   8
HETATM    8  N   UNL     1      -3.934  13.070 -19.379  1.00  0.00    -0.021 N 
ATOM      9  HN3 UNL     1      -3.868  12.622 -20.293  1.00  0.00     0.280 HD
ATOM     10  HN2 UNL     1      -3.484  13.955 -19.613  1.00  0.00     0.280 HD
ATOM     11  HN1 UNL     1      -3.418  12.557 -18.664  1.00  0.00     0.280 HD
ENDBRANCH   1   8
BRANCH   1  12
HETATM   12  O   UNL     1      -5.761  12.162 -18.340  1.00  0.00    -0.344 OA
ATOM     13  HO  UNL     1      -6.710  12.197 -18.304  1.00  0.00     0.215 HD
ENDBRANCH   1  12
BRANCH   1  14
HETATM   14  O   UNL     1      -6.128  13.463 -20.053  1.00  0.00    -0.344 OA
ATOM     15  HO  UNL     1      -5.991  14.352 -20.357  1.00  0.00     0.215 HD
ENDBRANCH   1  14
TORSDOF 7
ENDMDL
