MODEL 1
REMARK VINA RESULT:      -6.2      0.000      0.000
REMARK  0 active torsions:
REMARK  status: ('A' for Active; 'I' for Inactive)
ROOT
HETATM    1  C   UNL     1      -2.669  13.094 -16.694  1.00  0.00     0.065 C 
HETATM    2  C   UNL     1      -3.426  11.856 -16.790  1.00  0.00     0.258 C 
HETATM    3  O   UNL     1      -1.739  16.347 -16.100  1.00  0.00    -0.268 OA
HETATM    4  O   UNL     1      -3.070  10.846 -16.156  1.00  0.00    -0.267 OA
HETATM    5  N   UNL     1      -3.799  11.765 -18.108  1.00  0.00    -0.331 N 
ATOM      6  HN  UNL     1      -4.208  10.933 -18.531  1.00  0.00     0.168 HD
HETATM    7  N   UNL     1      -2.221  14.966 -17.858  1.00  0.00    -0.322 N 
ATOM      8  HN  UNL     1      -2.043  15.602 -18.636  1.00  0.00     0.169 HD
HETATM    9  C   UNL     1      -2.290  14.037 -15.736  1.00  0.00     0.093 C 
HETATM   10  C   UNL     1      -1.926  15.192 -16.513  1.00  0.00     0.246 C 
HETATM   11  C   UNL     1      -2.790  13.737 -17.931  1.00  0.00     0.066 C 
HETATM   12  C   UNL     1      -3.546  12.957 -18.800  1.00  0.00     0.122 C 
ENDROOT
TORSDOF 0
ENDMDL
MODEL 2
REMARK VINA RESULT:      -6.1      1.703      2.169
REMARK  0 active torsions:
REMARK  status: ('A' for Active; 'I' for Inactive)
ROOT
HETATM    1  C   UNL     1      -3.043  14.215 -17.803  1.00  0.00     0.065 C 
HETATM    2  C   UNL     1      -3.284  13.200 -18.817  1.00  0.00     0.258 C 
HETATM    3  O   UNL     1      -1.636  16.723 -15.925  1.00  0.00    -0.268 OA
HETATM    4  O   UNL     1      -4.256  13.295 -19.587  1.00  0.00    -0.267 OA
HETATM    5  N   UNL     1      -2.980  12.007 -18.211  1.00  0.00    -0.331 N 
ATOM      6  HN  UNL     1      -3.194  11.092 -18.607  1.00  0.00     0.168 HD
HETATM    7  N   UNL     1      -2.070  14.481 -15.792  1.00  0.00    -0.322 N 
ATOM      8  HN  UNL     1      -1.735  14.292 -14.847  1.00  0.00     0.169 HD
HETATM    9  C   UNL     1      -2.766  15.581 -17.710  1.00  0.00     0.093 C 
HETATM   10  C   UNL     1      -2.230  15.735 -16.384  1.00  0.00     0.246 C 
HETATM   11  C   UNL     1      -2.448  13.563 -16.716  1.00  0.00     0.066 C 
HETATM   12  C   UNL     1      -2.339  12.202 -16.980  1.00  0.00     0.122 C 
ENDROOT
TORSDOF 0
ENDMDL
MODEL 3
REMARK VINA RESULT:      -5.9      2.138      3.850
REMARK  0 active torsions:
REMARK  status: ('A' for Active; 'I' for Inactive)
ROOT
HETATM    1  C   UNL     1      -2.630  14.660 -17.392  1.00  0.00     0.065 C 
HETATM    2  C   UNL     1      -1.774  15.591 -16.674  1.00  0.00     0.258 C 
HETATM    3  O   UNL     1      -4.078  12.740 -19.845  1.00  0.00    -0.268 OA
HETATM    4  O   UNL     1      -1.057  15.195 -15.737  1.00  0.00    -0.267 OA
HETATM    5  N   UNL     1      -2.512  16.741 -16.558  1.00  0.00    -0.331 N 
ATOM      6  HN  UNL     1      -2.253  17.531 -15.968  1.00  0.00     0.168 HD
HETATM    7  N   UNL     1      -4.528  14.604 -18.599  1.00  0.00    -0.322 N 
ATOM      8  HN  UNL     1      -5.468  14.816 -18.933  1.00  0.00     0.169 HD
HETATM    9  C   UNL     1      -2.527  13.511 -18.181  1.00  0.00     0.093 C 
HETATM   10  C   UNL     1      -3.787  13.453 -18.872  1.00  0.00     0.246 C 
HETATM   11  C   UNL     1      -3.756  15.383 -17.802  1.00  0.00     0.066 C 
HETATM   12  C   UNL     1      -3.668  16.696 -17.350  1.00  0.00     0.122 C 
ENDROOT
TORSDOF 0
ENDMDL
MODEL 4
REMARK VINA RESULT:      -5.9      1.640      3.837
REMARK  0 active torsions:
REMARK  status: ('A' for Active; 'I' for Inactive)
ROOT
HETATM    1  C   UNL     1      -2.930  14.884 -16.333  1.00  0.00     0.065 C 
HETATM    2  C   UNL     1      -2.317  16.167 -16.641  1.00  0.00     0.258 C 
HETATM    3  O   UNL     1      -3.802  11.562 -16.354  1.00  0.00    -0.268 OA
HETATM    4  O   UNL     1      -1.621  16.754 -15.794  1.00  0.00    -0.267 OA
HETATM    5  N   UNL     1      -3.257  16.847 -17.374  1.00  0.00    -0.331 N 
ATOM      6  HN  UNL     1      -3.193  17.837 -17.609  1.00  0.00     0.168 HD
HETATM    7  N   UNL     1      -4.681  13.597 -16.915  1.00  0.00    -0.322 N 
ATOM      8  HN  UNL     1      -5.613  13.310 -17.215  1.00  0.00     0.169 HD
HETATM    9  C   UNL     1      -2.558  13.583 -15.985  1.00  0.00     0.093 C 
HETATM   10  C   UNL     1      -3.726  12.798 -16.285  1.00  0.00     0.246 C 
HETATM   11  C   UNL     1      -4.130  14.829 -17.051  1.00  0.00     0.066 C 
HETATM   12  C   UNL     1      -4.316  16.013 -17.757  1.00  0.00     0.122 C 
ENDROOT
TORSDOF 0
ENDMDL
MODEL 5
REMARK VINA RESULT:      -5.9      2.321      4.055
REMARK  0 active torsions:
REMARK  status: ('A' for Active; 'I' for Inactive)
ROOT
HETATM    1  C   UNL     1      -3.383  15.310 -17.285  1.00  0.00     0.065 C 
HETATM    2  C   UNL     1      -2.277  16.019 -16.659  1.00  0.00     0.258 C 
HETATM    3  O   UNL     1      -6.505  14.104 -18.056  1.00  0.00    -0.268 OA
HETATM    4  O   UNL     1      -1.614  16.851 -17.304  1.00  0.00    -0.267 OA
HETATM    5  N   UNL     1      -1.657  15.087 -15.866  1.00  0.00    -0.331 N 
ATOM      6  HN  UNL     1      -0.754  15.228 -15.414  1.00  0.00     0.168 HD
HETATM    7  N   UNL     1      -4.541  13.388 -17.128  1.00  0.00    -0.322 N 
ATOM      8  HN  UNL     1      -4.770  12.407 -16.967  1.00  0.00     0.169 HD
HETATM    9  C   UNL     1      -4.617  15.579 -17.881  1.00  0.00     0.093 C 
HETATM   10  C   UNL     1      -5.301  14.313 -17.846  1.00  0.00     0.246 C 
HETATM   11  C   UNL     1      -3.442  14.046 -16.685  1.00  0.00     0.066 C 
HETATM   12  C   UNL     1      -2.419  13.915 -15.752  1.00  0.00     0.122 C 
ENDROOT
TORSDOF 0
ENDMDL
MODEL 6
REMARK VINA RESULT:      -5.8      2.311      2.564
REMARK  0 active torsions:
REMARK  status: ('A' for Active; 'I' for Inactive)
ROOT
HETATM    1  C   UNL     1      -4.371  14.721 -17.997  1.00  0.00     0.065 C 
HETATM    2  C   UNL     1      -5.545  14.135 -18.626  1.00  0.00     0.258 C 
HETATM    3  O   UNL     1      -1.644  16.693 -17.308  1.00  0.00    -0.268 OA
HETATM    4  O   UNL     1      -6.644  14.145 -18.043  1.00  0.00    -0.267 OA
HETATM    5  N   UNL     1      -5.090  13.002 -19.251  1.00  0.00    -0.331 N 
ATOM      6  HN  UNL     1      -5.695  12.286 -19.650  1.00  0.00     0.168 HD
HETATM    7  N   UNL     1      -2.127  14.566 -17.997  1.00  0.00    -0.322 N 
ATOM      8  HN  UNL     1      -1.183  14.180 -18.051  1.00  0.00     0.169 HD
HETATM    9  C   UNL     1      -3.920  15.957 -17.529  1.00  0.00     0.093 C 
HETATM   10  C   UNL     1      -2.492  15.799 -17.455  1.00  0.00     0.246 C 
HETATM   11  C   UNL     1      -3.267  13.981 -18.438  1.00  0.00     0.066 C 
HETATM   12  C   UNL     1      -3.689  12.951 -19.272  1.00  0.00     0.122 C 
ENDROOT
TORSDOF 0
ENDMDL
MODEL 7
REMARK VINA RESULT:      -5.6      1.555      1.718
REMARK  0 active torsions:
REMARK  status: ('A' for Active; 'I' for Inactive)
ROOT
HETATM    1  C   UNL     1      -2.722  14.011 -17.624  1.00  0.00     0.065 C 
HETATM    2  C   UNL     1      -2.578  12.575 -17.443  1.00  0.00     0.258 C 
HETATM    3  O   UNL     1      -3.183  17.369 -17.071  1.00  0.00    -0.268 OA
HETATM    4  O   UNL     1      -1.515  12.003 -17.742  1.00  0.00    -0.267 OA
HETATM    5  N   UNL     1      -3.790  12.044 -17.808  1.00  0.00    -0.331 N 
ATOM      6  HN  UNL     1      -3.962  11.048 -17.941  1.00  0.00     0.168 HD
HETATM    7  N   UNL     1      -4.295  15.582 -17.966  1.00  0.00    -0.322 N 
ATOM      8  HN  UNL     1      -5.144  16.047 -18.289  1.00  0.00     0.169 HD
HETATM    9  C   UNL     1      -2.151  15.202 -17.171  1.00  0.00     0.093 C 
HETATM   10  C   UNL     1      -3.140  16.200 -17.483  1.00  0.00     0.246 C 
HETATM   11  C   UNL     1      -4.069  14.246 -17.924  1.00  0.00     0.066 C 
HETATM   12  C   UNL     1      -4.761  13.041 -17.975  1.00  0.00     0.122 C 
ENDROOT
TORSDOF 0
ENDMDL
MODEL 8
REMARK VINA RESULT:      -5.5      2.092      3.592
REMARK  0 active torsions:
REMARK  status: ('A' for Active; 'I' for Inactive)
ROOT
HETATM    1  C   UNL     1      -4.214  13.107 -17.121  1.00  0.00     0.065 C 
HETATM    2  C   UNL     1      -4.604  14.394 -17.675  1.00  0.00     0.258 C 
HETATM    3  O   UNL     1      -2.417  10.331 -16.192  1.00  0.00    -0.268 OA
HETATM    4  O   UNL     1      -5.022  15.301 -16.932  1.00  0.00    -0.267 OA
HETATM    5  N   UNL     1      -5.243  14.099 -18.853  1.00  0.00    -0.331 N 
ATOM      6  HN  UNL     1      -5.772  14.775 -19.403  1.00  0.00     0.168 HD
HETATM    7  N   UNL     1      -4.029  10.939 -17.695  1.00  0.00    -0.322 N 
ATOM      8  HN  UNL     1      -4.208  10.037 -18.137  1.00  0.00     0.169 HD
HETATM    9  C   UNL     1      -3.283  12.571 -16.228  1.00  0.00     0.093 C 
HETATM   10  C   UNL     1      -3.252  11.171 -16.559  1.00  0.00     0.246 C 
HETATM   11  C   UNL     1      -4.501  12.145 -18.098  1.00  0.00     0.066 C 
HETATM   12  C   UNL     1      -5.078  12.753 -19.207  1.00  0.00     0.122 C 
ENDROOT
TORSDOF 0
ENDMDL
MODEL 9
REMARK VINA RESULT:      -5.5      2.856      3.367
REMARK  0 active torsions:
REMARK  status: ('A' for Active; 'I' for Inactive)
ROOT
HETATM    1  C   UNL     1      -4.155  15.229 -17.134  1.00  0.00     0.065 C 
HETATM    2  C   UNL     1      -5.593  15.296 -17.345  1.00  0.00     0.258 C 
HETATM    3  O   UNL     1      -1.035  15.218 -15.698  1.00  0.00    -0.268 OA
HETATM    4  O   UNL     1      -6.210  14.319 -17.805  1.00  0.00    -0.267 OA
HETATM    5  N   UNL     1      -5.827  16.563 -17.817  1.00  0.00    -0.331 N 
ATOM      6  HN  UNL     1      -6.716  16.873 -18.208  1.00  0.00     0.168 HD
HETATM    7  N   UNL     1      -2.341  16.554 -17.017  1.00  0.00    -0.322 N 
ATOM      8  HN  UNL     1      -1.690  17.321 -17.189  1.00  0.00     0.169 HD
HETATM    9  C   UNL     1      -3.222  14.504 -16.390  1.00  0.00     0.093 C 
HETATM   10  C   UNL     1      -2.046  15.334 -16.407  1.00  0.00     0.246 C 
HETATM   11  C   UNL     1      -3.658  16.522 -17.337  1.00  0.00     0.066 C 
HETATM   12  C   UNL     1      -4.694  17.378 -17.695  1.00  0.00     0.122 C 
ENDROOT
TORSDOF 0
ENDMDL
