ATOM      1  N   LYS A  15     -20.327   7.550  -3.133  1.00  4.08    -0.067 N 
ATOM      2  HN1 LYS A  15     -20.775   7.661  -2.223  1.00  0.00     0.275 HD
ATOM      3  HN2 LYS A  15     -21.003   7.403  -3.883  1.00  0.00     0.275 HD
ATOM      4  HN3 LYS A  15     -19.921   8.421  -3.474  1.00  0.00     0.275 HD
ATOM      5  CA  LYS A  15     -19.349   6.480  -3.054  1.00  5.01     0.274 C 
ATOM      6  C   LYS A  15     -18.679   6.314  -4.414  1.00  7.59     0.249 C 
ATOM      7  O   LYS A  15     -19.362   6.275  -5.432  1.00  7.19    -0.271 OA
ATOM      8  CB  LYS A  15     -20.069   5.195  -2.636  1.00  8.11     0.042 C 
ATOM      9  CG  LYS A  15     -19.264   3.938  -2.811  1.00 25.85     0.004 C 
ATOM     10  CD  LYS A  15     -19.828   2.820  -1.953  1.00 28.09     0.027 C 
ATOM     11  CE  LYS A  15     -18.756   1.772  -1.739  1.00 33.28     0.229 C 
ATOM     12  NZ  LYS A  15     -17.428   2.389  -1.461  1.00 39.48    -0.079 N 
ATOM     13  HZ1 LYS A  15     -16.706   1.683  -1.317  1.00  0.00     0.274 HD
ATOM     14  HZ2 LYS A  15     -17.477   3.037  -0.675  1.00  0.00     0.274 HD
ATOM     15  HZ3 LYS A  15     -17.163   3.047  -2.194  1.00  0.00     0.274 HD
ATOM     16  N   LYS A  15     -22.935  -7.348  -3.100  1.00  4.08    -0.069 N 
ATOM     17  HN1 LYS A  15     -22.488  -7.454  -2.189  1.00  0.00     0.275 HD
ATOM     18  HN2 LYS A  15     -22.258  -7.205  -3.850  1.00  0.00     0.275 HD
ATOM     19  HN3 LYS A  15     -23.340  -8.221  -3.438  1.00  0.00     0.275 HD
ATOM     20  CA  LYS A  15     -23.913  -6.277  -3.027  1.00  5.01     0.244 C 
ATOM     21  C   LYS A  15     -24.581  -6.118  -4.389  1.00  7.59     0.263 C 
ATOM     22  O   LYS A  15     -23.897  -6.083  -5.407  1.00  7.19    -0.305 OA
ATOM     23  CB  LYS A  15     -23.193  -4.991  -2.615  1.00  8.11     0.040 C 
ATOM     24  CG  LYS A  15     -23.998  -3.734  -2.796  1.00 25.85     0.004 C 
ATOM     25  CD  LYS A  15     -23.436  -2.613  -1.942  1.00 28.09     0.027 C 
ATOM     26  CE  LYS A  15     -24.508  -1.563  -1.736  1.00 33.28     0.229 C 
ATOM     27  NZ  LYS A  15     -25.836  -2.179  -1.456  1.00 39.48    -0.079 N 
ATOM     28  HZ1 LYS A  15     -26.558  -1.472  -1.317  1.00  0.00     0.274 HD
ATOM     29  HZ2 LYS A  15     -25.789  -2.822  -0.666  1.00  0.00     0.274 HD
ATOM     30  HZ3 LYS A  15     -26.100  -2.842  -2.185  1.00  0.00     0.274 HD
ATOM     31  N   VAL A  16     -17.348   6.212  -4.435  1.00  2.82    -0.346 N 
ATOM     32  HN  VAL A  16     -16.837   6.153  -3.554  1.00  0.00     0.163 HD
ATOM     33  CA  VAL A  16     -16.610   6.183  -5.693  1.00  2.39     0.180 C 
ATOM     34  C   VAL A  16     -15.642   5.004  -5.708  1.00  3.03     0.241 C 
ATOM     35  O   VAL A  16     -14.872   4.810  -4.755  1.00  3.99    -0.271 OA
ATOM     36  CB  VAL A  16     -15.818   7.494  -5.900  1.00  2.14     0.009 C 
ATOM     37  CG1 VAL A  16     -15.277   7.575  -7.332  1.00  3.48     0.012 C 
ATOM     38  CG2 VAL A  16     -16.713   8.730  -5.654  1.00  4.26     0.012 C 
ATOM     39  N   VAL A  16     -25.912  -6.016  -4.412  1.00  2.82    -0.069 N 
ATOM     40  HN1 VAL A  16     -25.265  -6.805  -4.397  1.00  0.00     0.275 HD
ATOM     41  HN2 VAL A  16     -26.537  -6.020  -3.606  1.00  0.00     0.275 HD
ATOM     42  HN3 VAL A  16     -25.438  -5.131  -4.231  1.00  0.00     0.275 HD
ATOM     43  CA  VAL A  16     -26.648  -5.993  -5.672  1.00  2.39     0.247 C 
ATOM     44  C   VAL A  16     -27.615  -4.814  -5.695  1.00  3.03     0.264 C 
ATOM     45  O   VAL A  16     -28.387  -4.615  -4.744  1.00  3.99    -0.305 OA
ATOM     46  CB  VAL A  16     -27.439  -7.305  -5.873  1.00  2.14     0.015 C 
ATOM     47  CG1 VAL A  16     -27.978  -7.393  -7.307  1.00  3.48     0.012 C 
ATOM     48  CG2 VAL A  16     -26.545  -8.539  -5.621  1.00  4.26     0.012 C 
ATOM     49  N   LEU A  17     -15.706   4.204  -6.769  1.00  3.22    -0.348 N 
ATOM     50  HN  LEU A  17     -16.383   4.413  -7.503  1.00  0.00     0.163 HD
ATOM     51  CA  LEU A  17     -14.840   3.035  -6.920  1.00  3.25     0.146 C 
ATOM     52  C   LEU A  17     -13.924   3.188  -8.139  1.00  1.96     0.256 C 
ATOM     53  O   LEU A  17     -14.291   3.810  -9.142  1.00  5.26    -0.305 OA
ATOM     54  CB  LEU A  17     -15.697   1.764  -7.062  1.00  2.19     0.036 C 
ATOM     55  CG  LEU A  17     -16.641   1.461  -5.895  1.00  7.59    -0.020 C 
ATOM     56  CD1 LEU A  17     -17.403   0.166  -6.138  1.00 12.10     0.009 C 
ATOM     57  CD2 LEU A  17     -15.853   1.362  -4.593  1.00 12.04     0.009 C 
ATOM     58  N   LEU A  17     -27.550  -4.020  -6.758  1.00  3.22    -0.069 N 
ATOM     59  HN1 LEU A  17     -26.941  -3.915  -5.946  1.00  0.00     0.275 HD
ATOM     60  HN2 LEU A  17     -27.017  -4.212  -7.606  1.00  0.00     0.275 HD
ATOM     61  HN3 LEU A  17     -28.089  -4.885  -6.715  1.00  0.00     0.275 HD
ATOM     62  CA  LEU A  17     -28.416  -2.851  -6.917  1.00  3.25     0.244 C 
ATOM     63  C   LEU A  17     -29.330  -3.009  -8.136  1.00  1.96     0.263 C 
ATOM     64  O   LEU A  17     -28.961  -3.636  -9.135  1.00  5.26    -0.305 OA
ATOM     65  CB  LEU A  17     -27.558  -1.581  -7.063  1.00  2.19     0.044 C 
ATOM     66  CG  LEU A  17     -26.617  -1.272  -5.896  1.00  7.59    -0.020 C 
ATOM     67  CD1 LEU A  17     -25.854   0.021  -6.145  1.00 12.10     0.009 C 
ATOM     68  CD2 LEU A  17     -27.407  -1.167  -4.596  1.00 12.04     0.009 C 
ATOM     69  N  AILE A 107     -25.255   8.269  -4.100  0.70  5.87    -0.066 N 
ATOM     70  H  A1ILE A 107     -26.100   8.837  -4.041  1.00  0.00     0.275 HD
ATOM     71  H  A2ILE A 107     -24.541   8.544  -3.425  1.00  0.00     0.275 HD
ATOM     72  H  A3ILE A 107     -25.391   7.315  -3.767  1.00  0.00     0.275 HD
ATOM     73  CA AILE A 107     -24.791   8.331  -5.476  0.70  5.83     0.278 C 
ATOM     74  C  AILE A 107     -23.527   7.482  -5.564  0.70  5.48     0.249 C 
ATOM     75  O  AILE A 107     -22.578   7.703  -4.819  0.70  7.39    -0.271 OA
ATOM     76  CB AILE A 107     -24.504   9.782  -5.869  0.70  6.41     0.021 C 
ATOM     77  CG1AILE A 107     -25.793  10.600  -5.783  0.70 10.36     0.002 C 
ATOM     78  CG2AILE A 107     -23.910   9.878  -7.272  0.70  7.99     0.012 C 
ATOM     79  CD1AILE A 107     -25.590  12.072  -6.012  0.70 12.50     0.005 C 
ATOM     80  N  AILE A 107     -18.005  -8.071  -4.055  0.70  5.87    -0.069 N 
ATOM     81  H  A1ILE A 107     -17.160  -8.639  -3.992  1.00  0.00     0.275 HD
ATOM     82  H  A2ILE A 107     -18.720  -8.342  -3.379  1.00  0.00     0.275 HD
ATOM     83  H  A3ILE A 107     -17.870  -7.115  -3.726  1.00  0.00     0.275 HD
ATOM     84  CA AILE A 107     -18.467  -8.140  -5.431  0.70  5.83     0.247 C 
ATOM     85  C  AILE A 107     -19.731  -7.291  -5.525  0.70  5.48     0.264 C 
ATOM     86  O  AILE A 107     -20.681  -7.509  -4.782  0.70  7.39    -0.305 OA
ATOM     87  CB AILE A 107     -18.753  -9.593  -5.818  0.70  6.41     0.018 C 
ATOM     88  CG1AILE A 107     -17.465 -10.410  -5.726  0.70 10.36     0.002 C 
ATOM     89  CG2AILE A 107     -19.345  -9.696  -7.221  0.70  7.99     0.012 C 
ATOM     90  CD1AILE A 107     -17.668 -11.883  -5.949  0.70 12.50     0.005 C 
ATOM     91  N   ALA A 108     -23.518   6.496  -6.454  1.00  4.52    -0.346 N 
ATOM     92  HN  ALA A 108     -24.339   6.339  -7.038  1.00  0.00     0.163 HD
ATOM     93  CA  ALA A 108     -22.345   5.629  -6.609  1.00  6.85     0.172 C 
ATOM     94  C   ALA A 108     -21.723   5.891  -7.959  1.00  8.73     0.240 C 
ATOM     95  O   ALA A 108     -22.429   5.955  -8.955  1.00 12.19    -0.271 OA
ATOM     96  CB  ALA A 108     -22.735   4.173  -6.506  1.00 11.78     0.042 C 
ATOM     97  N   ALA A 108     -19.739  -6.309  -6.421  1.00  4.52    -0.069 N 
ATOM     98  HN1 ALA A 108     -19.320  -6.128  -5.509  1.00  0.00     0.275 HD
ATOM     99  HN2 ALA A 108     -19.070  -6.206  -7.184  1.00  0.00     0.275 HD
ATOM    100  HN3 ALA A 108     -19.960  -7.295  -6.559  1.00  0.00     0.275 HD
ATOM    101  CA  ALA A 108     -20.911  -5.444  -6.582  1.00  6.85     0.240 C 
ATOM    102  C   ALA A 108     -21.531  -5.712  -7.932  1.00  8.73     0.263 C 
ATOM    103  O   ALA A 108     -20.824  -5.781  -8.926  1.00 12.19    -0.305 OA
ATOM    104  CB  ALA A 108     -20.521  -3.987  -6.485  1.00 11.78     0.047 C 
ATOM    105  N   ALA A 109     -20.401   6.032  -7.997  1.00  5.59    -0.346 N 
ATOM    106  HN  ALA A 109     -19.863   5.988  -7.131  1.00  0.00     0.163 HD
ATOM    107  CA  ALA A 109     -19.714   6.248  -9.261  1.00  5.58     0.172 C 
ATOM    108  C   ALA A 109     -18.618   5.198  -9.417  1.00  8.68     0.240 C 
ATOM    109  O   ALA A 109     -17.841   4.962  -8.495  1.00  6.49    -0.271 OA
ATOM    110  CB  ALA A 109     -19.111   7.645  -9.297  1.00  5.71     0.042 C 
ATOM    111  N   ALA A 109     -22.853  -5.853  -7.970  1.00  5.59    -0.069 N 
ATOM    112  HN1 ALA A 109     -22.120  -6.554  -7.860  1.00  0.00     0.275 HD
ATOM    113  HN2 ALA A 109     -23.496  -5.836  -7.178  1.00  0.00     0.275 HD
ATOM    114  HN3 ALA A 109     -22.495  -4.902  -7.884  1.00  0.00     0.275 HD
ATOM    115  CA  ALA A 109     -23.538  -6.075  -9.234  1.00  5.58     0.240 C 
ATOM    116  C   ALA A 109     -24.634  -5.026  -9.398  1.00  8.68     0.263 C 
ATOM    117  O   ALA A 109     -25.412  -4.786  -8.478  1.00  6.49    -0.305 OA
ATOM    118  CB  ALA A 109     -24.141  -7.472  -9.264  1.00  5.71     0.047 C 
ATOM    119  N   LEU A 110     -18.541   4.591 -10.594  1.00  4.94    -0.346 N 
ATOM    120  HN  LEU A 110     -19.228   4.817 -11.314  1.00  0.00     0.163 HD
ATOM    121  CA  LEU A 110     -17.498   3.605 -10.890  1.00  2.68     0.177 C 
ATOM    122  C   LEU A 110     -16.625   4.178 -11.995  1.00  5.45     0.241 C 
ATOM    123  O   LEU A 110     -17.132   4.510 -13.075  1.00  5.33    -0.271 OA
ATOM    124  CB  LEU A 110     -18.152   2.308 -11.371  1.00  6.57     0.038 C 
ATOM    125  CG  LEU A 110     -17.185   1.219 -11.825  1.00  7.77    -0.020 C 
ATOM    126  CD1 LEU A 110     -16.295   0.818 -10.668  1.00  7.40     0.009 C 
ATOM    127  CD2 LEU A 110     -17.974   0.029 -12.343  1.00 11.79     0.009 C 
ATOM    128  N   LEU A 110     -24.709  -4.424 -10.577  1.00  4.94    -0.069 N 
ATOM    129  HN1 LEU A 110     -24.125  -4.036  -9.836  1.00  0.00     0.275 HD
ATOM    130  HN2 LEU A 110     -24.174  -4.701 -11.400  1.00  0.00     0.275 HD
ATOM    131  HN3 LEU A 110     -25.085  -5.343 -10.346  1.00  0.00     0.275 HD
ATOM    132  CA  LEU A 110     -25.752  -3.440 -10.879  1.00  2.68     0.244 C 
ATOM    133  C   LEU A 110     -26.623  -4.018 -11.984  1.00  5.45     0.263 C 
ATOM    134  O   LEU A 110     -26.114  -4.355 -13.061  1.00  5.33    -0.305 OA
ATOM    135  CB  LEU A 110     -25.096  -2.146 -11.366  1.00  6.57     0.044 C 
ATOM    136  CG  LEU A 110     -26.063  -1.059 -11.826  1.00  7.77    -0.020 C 
ATOM    137  CD1 LEU A 110     -26.955  -0.652 -10.673  1.00  7.40     0.009 C 
ATOM    138  CD2 LEU A 110     -25.273   0.130 -12.349  1.00 11.79     0.009 C 
ATOM    139  N   LEU A 111     -15.319   4.275 -11.744  1.00  1.63    -0.348 N 
ATOM    140  HN  LEU A 111     -14.935   3.826 -10.913  1.00  0.00     0.163 HD
ATOM    141  CA  LEU A 111     -14.426   5.014 -12.638  1.00  2.61     0.146 C 
ATOM    142  C   LEU A 111     -13.420   4.160 -13.411  1.00  4.77     0.256 C 
ATOM    143  O   LEU A 111     -12.696   3.352 -12.823  1.00  3.11    -0.305 OA
ATOM    144  CB  LEU A 111     -13.633   6.049 -11.841  1.00  2.55     0.036 C 
ATOM    145  CG  LEU A 111     -14.414   6.970 -10.920  1.00  4.09    -0.020 C 
ATOM    146  CD1 LEU A 111     -13.433   7.969 -10.295  1.00  5.05     0.009 C 
ATOM    147  CD2 LEU A 111     -15.539   7.682 -11.680  1.00  4.33     0.009 C 
ATOM    148  N   LEU A 111     -27.929  -4.114 -11.734  1.00  1.63    -0.069 N 
ATOM    149  HN1 LEU A 111     -27.259  -4.681 -11.214  1.00  0.00     0.275 HD
ATOM    150  HN2 LEU A 111     -28.475  -3.540 -11.091  1.00  0.00     0.275 HD
ATOM    151  HN3 LEU A 111     -27.441  -3.386 -12.255  1.00  0.00     0.275 HD
ATOM    152  CA  LEU A 111     -28.821  -4.857 -12.625  1.00  2.61     0.244 C 
ATOM    153  C   LEU A 111     -29.825  -4.007 -13.404  1.00  4.77     0.263 C 
ATOM    154  O   LEU A 111     -30.550  -3.196 -12.822  1.00  3.11    -0.305 OA
ATOM    155  CB  LEU A 111     -29.615  -5.889 -11.826  1.00  2.55     0.044 C 
ATOM    156  CG  LEU A 111     -28.835  -6.805 -10.899  1.00  4.09    -0.020 C 
ATOM    157  CD1 LEU A 111     -29.818  -7.801 -10.270  1.00  5.05     0.009 C 
ATOM    158  CD2 LEU A 111     -27.709  -7.521 -11.653  1.00  4.33     0.009 C 
ATOM    159  N   TYR A 116     -17.209   5.957 -17.297  1.00  4.37    -0.066 N 
ATOM    160  HN1 TYR A 116     -16.215   6.186 -17.323  1.00  0.00     0.275 HD
ATOM    161  HN2 TYR A 116     -17.762   6.599 -17.864  1.00  0.00     0.275 HD
ATOM    162  HN3 TYR A 116     -17.414   5.095 -17.802  1.00  0.00     0.275 HD
ATOM    163  CA  TYR A 116     -17.681   5.905 -15.918  1.00  5.26     0.278 C 
ATOM    164  C   TYR A 116     -19.154   5.566 -15.880  1.00  5.59     0.249 C 
ATOM    165  O   TYR A 116     -19.875   5.756 -16.854  1.00  3.40    -0.271 OA
ATOM    166  CB  TYR A 116     -17.384   7.201 -15.160  1.00  8.04     0.081 C 
ATOM    167  CG  TYR A 116     -18.194   8.390 -15.605  1.00  8.20    -0.056 A 
ATOM    168  CD1 TYR A 116     -19.468   8.624 -15.097  1.00  7.19     0.010 A 
ATOM    169  CD2 TYR A 116     -17.675   9.293 -16.521  1.00  9.10     0.010 A 
ATOM    170  CE1 TYR A 116     -20.210   9.725 -15.505  1.00 11.68     0.037 A 
ATOM    171  CE2 TYR A 116     -18.402  10.396 -16.925  1.00 12.56     0.037 A 
ATOM    172  CZ  TYR A 116     -19.661  10.604 -16.418  1.00 14.97     0.065 A 
ATOM    173  OH  TYR A 116     -20.370  11.702 -16.833  1.00 22.91    -0.361 OA
ATOM    174  HH  TYR A 116     -19.992  12.307 -17.461  1.00  0.00     0.217 HD
ATOM    175  N   TYR A 116     -26.030  -5.823 -17.276  1.00  4.37    -0.069 N 
ATOM    176  HN1 TYR A 116     -27.024  -6.052 -17.303  1.00  0.00     0.275 HD
ATOM    177  HN2 TYR A 116     -25.476  -6.468 -17.839  1.00  0.00     0.275 HD
ATOM    178  HN3 TYR A 116     -25.824  -4.963 -17.785  1.00  0.00     0.275 HD
ATOM    179  CA  TYR A 116     -25.560  -5.764 -15.897  1.00  5.26     0.248 C 
ATOM    180  C   TYR A 116     -24.087  -5.425 -15.857  1.00  5.59     0.264 C 
ATOM    181  O   TYR A 116     -23.365  -5.620 -16.829  1.00  3.40    -0.305 OA
ATOM    182  CB  TYR A 116     -25.859  -7.056 -15.133  1.00  8.04     0.078 C 
ATOM    183  CG  TYR A 116     -25.048  -8.247 -15.570  1.00  8.20    -0.056 A 
ATOM    184  CD1 TYR A 116     -23.775  -8.479 -15.060  1.00  7.19     0.010 A 
ATOM    185  CD2 TYR A 116     -25.566  -9.155 -16.484  1.00  9.10     0.010 A 
ATOM    186  CE1 TYR A 116     -23.032  -9.582 -15.461  1.00 11.68     0.037 A 
ATOM    187  CE2 TYR A 116     -24.838 -10.260 -16.880  1.00 12.56     0.037 A 
ATOM    188  CZ  TYR A 116     -23.580 -10.466 -16.371  1.00 14.97     0.065 A 
ATOM    189  OH  TYR A 116     -22.870 -11.565 -16.780  1.00 22.91    -0.361 OA
ATOM    190  HH  TYR A 116     -23.247 -12.173 -17.406  1.00  0.00     0.217 HD
ATOM    191  N   SER A 117     -19.615   5.056 -14.748  1.00  3.30    -0.344 N 
ATOM    192  HN  SER A 117     -18.975   4.817 -13.991  1.00  0.00     0.163 HD
ATOM    193  CA  SER A 117     -21.032   4.843 -14.600  1.00  6.17     0.200 C 
ATOM    194  C   SER A 117     -21.456   5.507 -13.308  1.00  6.23     0.243 C 
ATOM    195  O   SER A 117     -20.633   5.721 -12.397  1.00  7.31    -0.271 OA
ATOM    196  CB  SER A 117     -21.377   3.352 -14.606  1.00 13.16     0.199 C 
ATOM    197  OG  SER A 117     -20.756   2.682 -13.537  1.00 21.89    -0.398 OA
ATOM    198  HG  SER A 117     -20.970   1.756 -13.541  1.00  0.00     0.209 HD
ATOM    199  N   SER A 117     -23.628  -4.909 -14.727  1.00  3.30    -0.067 N 
ATOM    200  HN1 SER A 117     -23.912  -4.466 -15.601  1.00  0.00     0.275 HD
ATOM    201  HN2 SER A 117     -24.166  -4.586 -13.923  1.00  0.00     0.275 HD
ATOM    202  HN3 SER A 117     -23.891  -5.893 -14.675  1.00  0.00     0.275 HD
ATOM    203  CA  SER A 117     -22.211  -4.696 -14.579  1.00  6.17     0.267 C 
ATOM    204  C   SER A 117     -21.790  -5.353 -13.283  1.00  6.23     0.266 C 
ATOM    205  O   SER A 117     -22.614  -5.563 -12.372  1.00  7.31    -0.305 OA
ATOM    206  CB  SER A 117     -21.867  -3.205 -14.591  1.00 13.16     0.204 C 
ATOM    207  OG  SER A 117     -22.489  -2.530 -13.526  1.00 21.89    -0.398 OA
ATOM    208  HG  SER A 117     -22.275  -1.604 -13.533  1.00  0.00     0.209 HD
ATOM    209  N   THR A 118     -22.717   5.887 -13.241  1.00  6.49    -0.344 N 
ATOM    210  HN  THR A 118     -23.334   5.772 -14.045  1.00  0.00     0.163 HD
ATOM    211  CA  THR A 118     -23.216   6.470 -12.013  1.00  5.63     0.205 C 
ATOM    212  C   THR A 118     -24.588   5.910 -11.753  1.00  8.40     0.243 C 
ATOM    213  O   THR A 118     -25.404   5.801 -12.660  1.00  8.49    -0.271 OA
ATOM    214  CB  THR A 118     -23.225   8.017 -12.018  1.00 13.36     0.146 C 
ATOM    215  OG1 THR A 118     -23.709   8.483 -10.753  1.00 16.71    -0.393 OA
ATOM    216  HG1 THR A 118     -23.715   9.433 -10.756  1.00  0.00     0.210 HD
ATOM    217  CG2 THR A 118     -24.107   8.599 -13.137  1.00  8.23     0.042 C 
ATOM    218  N   THR A 118     -20.528  -5.733 -13.212  1.00  6.49    -0.066 N 
ATOM    219  HN1 THR A 118     -21.458  -6.114 -13.388  1.00  0.00     0.275 HD
ATOM    220  HN2 THR A 118     -19.891  -5.871 -13.996  1.00  0.00     0.275 HD
ATOM    221  HN3 THR A 118     -20.515  -4.713 -13.202  1.00  0.00     0.275 HD
ATOM    222  CA  THR A 118     -20.031  -6.310 -11.980  1.00  5.63     0.272 C 
ATOM    223  C   THR A 118     -18.661  -5.749 -11.720  1.00  8.40     0.266 C 
ATOM    224  O   THR A 118     -17.843  -5.644 -12.627  1.00  8.49    -0.305 OA
ATOM    225  CB  THR A 118     -20.023  -7.858 -11.977  1.00 13.36     0.151 C 
ATOM    226  OG1 THR A 118     -19.541  -8.317 -10.710  1.00 16.71    -0.393 OA
ATOM    227  HG1 THR A 118     -19.536  -9.267 -10.708  1.00  0.00     0.210 HD
ATOM    228  CG2 THR A 118     -19.139  -8.445 -13.092  1.00  8.23     0.042 C 
ATOM    229  N   THR A 119     -24.838   5.529 -10.512  1.00  8.07    -0.344 N 
ATOM    230  HN  THR A 119     -24.106   5.614  -9.806  1.00  0.00     0.163 HD
ATOM    231  CA ATHR A 119     -26.132   4.993 -10.133  0.50  6.06     0.205 C 
ATOM    232  C   THR A 119     -26.620   5.732  -8.896  1.00  7.40     0.243 C 
ATOM    233  O   THR A 119     -25.820   6.277  -8.145  1.00  6.04    -0.271 OA
ATOM    234  CB ATHR A 119     -26.030   3.483  -9.860  0.50  9.12     0.146 C 
ATOM    235  OG1ATHR A 119     -25.359   2.865 -10.958  0.50  5.30    -0.393 OA
ATOM    236  HG1ATHR A 119     -25.296   1.932 -10.789  1.00  0.00     0.210 HD
ATOM    237  CG2ATHR A 119     -27.413   2.851  -9.695  0.50 10.20     0.042 C 
ATOM    238  N   THR A 119     -18.412  -5.362 -10.481  1.00  8.07    -0.066 N 
ATOM    239  HN1 THR A 119     -18.738  -4.870 -11.313  1.00  0.00     0.275 HD
ATOM    240  HN2 THR A 119     -19.088  -5.329  -9.718  1.00  0.00     0.275 HD
ATOM    241  HN3 THR A 119     -18.393  -6.374 -10.608  1.00  0.00     0.275 HD
ATOM    242  CA ATHR A 119     -17.118  -4.824 -10.102  0.50  6.06     0.272 C 
ATOM    243  C   THR A 119     -16.632  -5.558  -8.861  1.00  7.40     0.266 C 
ATOM    244  O   THR A 119     -17.434  -6.099  -8.108  1.00  6.04    -0.305 OA
ATOM    245  CB ATHR A 119     -17.221  -3.313  -9.837  0.50  9.12     0.151 C 
ATOM    246  OG1ATHR A 119     -17.890  -2.700 -10.939  0.50  5.30    -0.393 OA
ATOM    247  HG1ATHR A 119     -17.954  -1.766 -10.775  1.00  0.00     0.210 HD
ATOM    248  CG2ATHR A 119     -15.839  -2.680  -9.672  0.50 10.20     0.042 C 
ATOM    249  N   ALA A 120     -27.928   5.768  -8.705  1.00  6.36    -0.349 N 
ATOM    250  HN  ALA A 120     -28.552   5.356  -9.398  1.00  0.00     0.163 HD
ATOM    251  CA  ALA A 120     -28.481   6.389  -7.518  1.00  9.29     0.142 C 
ATOM    252  C   ALA A 120     -29.261   5.333  -6.780  1.00  4.88     0.255 C 
ATOM    253  O   ALA A 120     -29.990   4.542  -7.393  1.00  6.91    -0.305 OA
ATOM    254  CB  ALA A 120     -29.395   7.537  -7.901  1.00  8.28     0.039 C 
ATOM    255  N   ALA A 120     -15.325  -5.592  -8.668  1.00  6.36    -0.069 N 
ATOM    256  HN1 ALA A 120     -15.853  -6.309  -9.165  1.00  0.00     0.275 HD
ATOM    257  HN2 ALA A 120     -14.616  -5.144  -9.249  1.00  0.00     0.275 HD
ATOM    258  HN3 ALA A 120     -15.878  -4.759  -8.467  1.00  0.00     0.275 HD
ATOM    259  CA  ALA A 120     -14.774  -6.207  -7.477  1.00  9.29     0.240 C 
ATOM    260  C   ALA A 120     -13.995  -5.148  -6.743  1.00  4.88     0.263 C 
ATOM    261  O   ALA A 120     -13.265  -4.360  -7.358  1.00  6.91    -0.305 OA
ATOM    262  CB  ALA A 120     -13.859  -7.358  -7.853  1.00  8.28     0.047 C 
ATOM    263  N   THR A 106     -27.983   7.922  -2.133  1.00  5.70    -0.066 N 
ATOM    264  HN1 THR A 106     -28.208   7.901  -1.138  1.00  0.00     0.275 HD
ATOM    265  HN2 THR A 106     -28.638   7.388  -2.704  1.00  0.00     0.275 HD
ATOM    266  HN3 THR A 106     -28.149   8.832  -2.563  1.00  0.00     0.275 HD
ATOM    267  CA  THR A 106     -26.613   7.471  -2.266  1.00  7.19     0.272 C 
ATOM    268  C   THR A 106     -26.277   7.502  -3.748  1.00  7.36     0.266 C 
ATOM    269  O   THR A 106     -26.948   6.862  -4.561  1.00  6.67    -0.305 OA
ATOM    270  CB  THR A 106     -26.406   6.052  -1.730  1.00 13.34     0.151 C 
ATOM    271  OG1 THR A 106     -26.736   6.017  -0.334  1.00 14.35    -0.393 OA
ATOM    272  HG1 THR A 106     -26.608   5.136  -0.001  1.00  0.00     0.210 HD
ATOM    273  CG2 THR A 106     -24.945   5.645  -1.898  1.00 13.11     0.042 C 
ATOM    274  N   THR A 106     -15.281  -7.715  -2.086  1.00  5.70    -0.066 N 
ATOM    275  HN1 THR A 106     -15.057  -7.689  -1.091  1.00  0.00     0.275 HD
ATOM    276  HN2 THR A 106     -14.625  -7.183  -2.658  1.00  0.00     0.275 HD
ATOM    277  HN3 THR A 106     -15.114  -8.627  -2.511  1.00  0.00     0.275 HD
ATOM    278  CA  THR A 106     -16.650  -7.265  -2.223  1.00  7.19     0.272 C 
ATOM    279  C   THR A 106     -16.983  -7.303  -3.705  1.00  7.36     0.266 C 
ATOM    280  O   THR A 106     -16.311  -6.666  -4.520  1.00  6.67    -0.305 OA
ATOM    281  CB  THR A 106     -16.858  -5.843  -1.693  1.00 13.34     0.151 C 
ATOM    282  OG1 THR A 106     -16.531  -5.801  -0.297  1.00 14.35    -0.393 OA
ATOM    283  HG1 THR A 106     -16.660  -4.919   0.032  1.00  0.00     0.210 HD
ATOM    284  CG2 THR A 106     -18.319  -5.437  -1.867  1.00 13.11     0.042 C 
ATOM    285  N   ALA A  19     -12.228   1.158 -11.045  1.00  2.11    -0.069 N 
ATOM    286  HN1 ALA A  19     -13.101   1.519 -10.661  1.00  0.00     0.275 HD
ATOM    287  HN2 ALA A  19     -11.783   1.857 -11.640  1.00  0.00     0.275 HD
ATOM    288  HN3 ALA A  19     -11.521   1.079 -10.314  1.00  0.00     0.275 HD
ATOM    289  CA  ALA A  19     -12.372  -0.109 -11.760  1.00  3.46     0.240 C 
ATOM    290  C   ALA A  19     -11.055  -0.653 -12.339  1.00  4.56     0.263 C 
ATOM    291  O   ALA A  19     -11.031  -1.766 -12.885  1.00  4.64    -0.305 OA
ATOM    292  CB  ALA A  19     -13.427   0.014 -12.865  1.00  5.88     0.047 C 
ATOM    293  N   ALA A  19     -31.021  -0.994 -11.054  1.00  2.11    -0.069 N 
ATOM    294  HN1 ALA A  19     -30.148  -1.353 -10.666  1.00  0.00     0.275 HD
ATOM    295  HN2 ALA A  19     -31.465  -1.696 -11.647  1.00  0.00     0.275 HD
ATOM    296  HN3 ALA A  19     -31.730  -0.911 -10.325  1.00  0.00     0.275 HD
ATOM    297  CA  ALA A  19     -30.876   0.270 -11.775  1.00  3.46     0.240 C 
ATOM    298  C   ALA A  19     -32.192   0.811 -12.360  1.00  4.56     0.263 C 
ATOM    299  O   ALA A  19     -32.215   1.921 -12.910  1.00  4.64    -0.305 OA
ATOM    300  CB  ALA A  19     -29.819   0.142 -12.878  1.00  5.88     0.047 C 
ATOM    301  N   VAL A 121     -14.180  -5.103  -5.431  1.00  3.62    -0.069 N 
ATOM    302  HN1 VAL A 121     -14.714  -4.441  -5.994  1.00  0.00     0.275 HD
ATOM    303  HN2 VAL A 121     -14.764  -5.769  -4.925  1.00  0.00     0.275 HD
ATOM    304  HN3 VAL A 121     -13.665  -5.786  -5.987  1.00  0.00     0.275 HD
ATOM    305  CA  VAL A 121     -13.328  -4.302  -4.562  1.00  7.07     0.247 C 
ATOM    306  C   VAL A 121     -12.529  -5.291  -3.720  1.00  9.74     0.264 C 
ATOM    307  O   VAL A 121     -13.107  -6.119  -3.005  1.00  9.48    -0.305 OA
ATOM    308  CB  VAL A 121     -14.171  -3.397  -3.668  1.00 12.69     0.015 C 
ATOM    309  CG1 VAL A 121     -13.279  -2.527  -2.787  1.00 18.15     0.012 C 
ATOM    310  CG2 VAL A 121     -15.078  -2.525  -4.528  1.00 19.28     0.012 C 
ATOM    311  N   VAL A 121     -29.078   5.294  -5.468  1.00  3.62    -0.069 N 
ATOM    312  HN1 VAL A 121     -28.542   4.630  -6.027  1.00  0.00     0.275 HD
ATOM    313  HN2 VAL A 121     -28.496   5.963  -4.964  1.00  0.00     0.275 HD
ATOM    314  HN3 VAL A 121     -29.592   5.974  -6.028  1.00  0.00     0.275 HD
ATOM    315  CA  VAL A 121     -29.931   4.497  -4.597  1.00  7.07     0.247 C 
ATOM    316  C   VAL A 121     -30.732   5.490  -3.761  1.00  9.74     0.264 C 
ATOM    317  O   VAL A 121     -30.155   6.322  -3.048  1.00  9.48    -0.305 OA
ATOM    318  CB  VAL A 121     -29.090   3.597  -3.697  1.00 12.69     0.015 C 
ATOM    319  CG1 VAL A 121     -29.983   2.731  -2.812  1.00 18.15     0.012 C 
ATOM    320  CG2 VAL A 121     -28.181   2.721  -4.551  1.00 19.28     0.012 C 
ATOM    321  N   VAL A  14     -21.300  -9.795  -1.133  1.00  5.41    -0.069 N 
ATOM    322  HN1 VAL A  14     -20.585 -10.510  -1.267  1.00  0.00     0.275 HD
ATOM    323  HN2 VAL A  14     -22.018 -10.087  -0.470  1.00  0.00     0.275 HD
ATOM    324  HN3 VAL A  14     -20.946  -8.988  -0.619  1.00  0.00     0.275 HD
ATOM    325  CA  VAL A  14     -21.865  -9.419  -2.431  1.00  7.10     0.247 C 
ATOM    326  C   VAL A  14     -22.931  -8.352  -2.231  1.00  8.37     0.264 C 
ATOM    327  O   VAL A  14     -23.727  -8.427  -1.294  1.00  8.77    -0.305 OA
ATOM    328  CB  VAL A  14     -22.462 -10.641  -3.161  1.00  5.20     0.015 C 
ATOM    329  CG1 VAL A  14     -22.953 -10.258  -4.563  1.00  3.53     0.012 C 
ATOM    330  CG2 VAL A  14     -21.422 -11.737  -3.269  1.00  6.72     0.012 C 
ATOM    331  N   VAL A  14     -21.965  10.006  -1.180  1.00  5.41    -0.069 N 
ATOM    332  HN1 VAL A  14     -22.680  10.720  -1.318  1.00  0.00     0.275 HD
ATOM    333  HN2 VAL A  14     -21.248  10.302  -0.518  1.00  0.00     0.275 HD
ATOM    334  HN3 VAL A  14     -22.319   9.202  -0.662  1.00  0.00     0.275 HD
ATOM    335  CA  VAL A  14     -21.398   9.624  -2.476  1.00  7.10     0.247 C 
ATOM    336  C   VAL A  14     -20.332   8.559  -2.270  1.00  8.37     0.264 C 
ATOM    337  O   VAL A  14     -19.537   8.638  -1.331  1.00  8.77    -0.305 OA
ATOM    338  CB  VAL A  14     -20.800  10.843  -3.212  1.00  5.20     0.015 C 
ATOM    339  CG1 VAL A  14     -20.307  10.453  -4.610  1.00  3.53     0.012 C 
ATOM    340  CG2 VAL A  14     -21.840  11.938  -3.326  1.00  6.72     0.012 C 
ATOM    341  N   SER A 115     -29.056  -5.570 -19.184  1.00  2.31    -0.067 N 
ATOM    342  HN1 SER A 115     -29.304  -5.401 -20.159  1.00  0.00     0.275 HD
ATOM    343  HN2 SER A 115     -29.675  -5.085 -18.535  1.00  0.00     0.275 HD
ATOM    344  HN3 SER A 115     -29.262  -6.525 -18.890  1.00  0.00     0.275 HD
ATOM    345  CA  SER A 115     -27.654  -5.216 -18.986  1.00  3.97     0.267 C 
ATOM    346  C   SER A 115     -27.285  -5.467 -17.537  1.00  7.89     0.266 C 
ATOM    347  O   SER A 115     -28.134  -5.356 -16.661  1.00 11.30    -0.305 OA
ATOM    348  CB  SER A 115     -27.421  -3.745 -19.335  1.00  6.98     0.204 C 
ATOM    349  OG  SER A 115     -26.058  -3.371 -19.165  1.00 13.42    -0.398 OA
ATOM    350  HG  SER A 115     -25.913  -2.457 -19.382  1.00  0.00     0.209 HD
ATOM    351  N   GLY A  53     -13.602   5.302   0.145  1.00  6.63    -0.073 N 
ATOM    352  HN1 GLY A  53     -12.712   4.820   0.020  1.00  0.00     0.274 HD
ATOM    353  HN2 GLY A  53     -14.279   4.712   0.629  1.00  0.00     0.274 HD
ATOM    354  HN3 GLY A  53     -13.524   6.052   0.832  1.00  0.00     0.274 HD
ATOM    355  CA  GLY A  53     -14.136   5.794  -1.117  1.00  8.61     0.298 C 
ATOM    356  C   GLY A  53     -15.459   6.511  -0.931  1.00 10.76     0.258 C 
ATOM    357  O   GLY A  53     -16.177   6.792  -1.899  1.00  4.99    -0.305 OA
ATOM    358  N   GLY A  53     -29.665  -5.084   0.156  1.00  6.63    -0.073 N 
ATOM    359  HN1 GLY A  53     -30.555  -4.602   0.027  1.00  0.00     0.274 HD
ATOM    360  HN2 GLY A  53     -28.989  -4.491   0.638  1.00  0.00     0.274 HD
ATOM    361  HN3 GLY A  53     -29.745  -5.830   0.847  1.00  0.00     0.274 HD
ATOM    362  CA  GLY A  53     -29.129  -5.583  -1.102  1.00  8.61     0.298 C 
ATOM    363  C   GLY A  53     -27.807  -6.299  -0.910  1.00 10.76     0.258 C 
ATOM    364  O   GLY A  53     -27.087  -6.584  -1.876  1.00  4.99    -0.305 OA
ATOM    365  N   PRO A  24     -11.577   1.222  -3.501  1.00  5.12    -0.065 N 
ATOM    366  HN1 PRO A  24     -10.731   1.303  -4.064  1.00  0.00     0.278 HD
ATOM    367  HN2 PRO A  24     -12.106   0.573  -4.084  1.00  0.00     0.278 HD
ATOM    368  CA  PRO A  24     -12.261   2.508  -3.404  1.00  6.96     0.246 C 
ATOM    369  C   PRO A  24     -11.385   3.571  -4.050  1.00  4.33     0.264 C 
ATOM    370  O   PRO A  24     -10.147   3.445  -4.107  1.00  7.08    -0.305 OA
ATOM    371  CB  PRO A  24     -12.375   2.743  -1.889  1.00  8.51     0.042 C 
ATOM    372  CG  PRO A  24     -11.365   1.799  -1.253  1.00 18.33     0.030 C 
ATOM    373  CD  PRO A  24     -11.277   0.621  -2.188  1.00  5.87     0.233 C 
ATOM    374  N   PRO A  24     -31.684  -1.021  -3.512  1.00  5.12    -0.065 N 
ATOM    375  HN1 PRO A  24     -32.529  -1.104  -4.077  1.00  0.00     0.278 HD
ATOM    376  HN2 PRO A  24     -31.153  -0.376  -4.097  1.00  0.00     0.278 HD
ATOM    377  CA  PRO A  24     -31.001  -2.308  -3.407  1.00  6.96     0.246 C 
ATOM    378  C   PRO A  24     -31.875  -3.373  -4.049  1.00  4.33     0.264 C 
ATOM    379  O   PRO A  24     -33.113  -3.247  -4.110  1.00  7.08    -0.305 OA
ATOM    380  CB  PRO A  24     -30.889  -2.535  -1.892  1.00  8.51     0.042 C 
ATOM    381  CG  PRO A  24     -31.900  -1.587  -1.262  1.00 18.33     0.030 C 
ATOM    382  CD  PRO A  24     -31.986  -0.414  -2.203  1.00  5.87     0.233 C 
ATOM    383  N   GLU A  54     -15.782   6.821   0.322  1.00  7.39    -0.069 N 
ATOM    384  HN1 GLU A  54     -15.861   5.850   0.019  1.00  0.00     0.275 HD
ATOM    385  HN2 GLU A  54     -15.139   6.909   1.109  1.00  0.00     0.275 HD
ATOM    386  HN3 GLU A  54     -15.277   7.381  -0.365  1.00  0.00     0.275 HD
ATOM    387  CA  GLU A  54     -17.075   7.413   0.633  1.00  6.46     0.244 C 
ATOM    388  C   GLU A  54     -16.957   8.866   1.087  1.00 10.59     0.263 C 
ATOM    389  O   GLU A  54     -15.962   9.272   1.698  1.00  7.26    -0.305 OA
ATOM    390  CB  GLU A  54     -17.801   6.573   1.693  1.00  9.50     0.050 C 
ATOM    391  CG  GLU A  54     -18.156   5.165   1.213  1.00 14.59     0.115 C 
ATOM    392  CD  GLU A  54     -18.906   4.366   2.260  1.00 28.92     0.172 C 
ATOM    393  OE1 GLU A  54     -18.786   4.697   3.457  1.00 29.83    -0.648 OA
ATOM    394  OE2 GLU A  54     -19.614   3.408   1.885  1.00 31.94    -0.648 OA
ATOM    395  N   GLU A  54     -27.485  -6.602   0.345  1.00  7.39    -0.069 N 
ATOM    396  HN1 GLU A  54     -27.406  -5.633   0.036  1.00  0.00     0.275 HD
ATOM    397  HN2 GLU A  54     -28.129  -6.685   1.132  1.00  0.00     0.275 HD
ATOM    398  HN3 GLU A  54     -27.990  -7.165  -0.340  1.00  0.00     0.275 HD
ATOM    399  CA  GLU A  54     -26.193  -7.193   0.660  1.00  6.46     0.244 C 
ATOM    400  C   GLU A  54     -26.312  -8.644   1.122  1.00 10.59     0.263 C 
ATOM    401  O   GLU A  54     -27.307  -9.047   1.733  1.00  7.26    -0.305 OA
ATOM    402  CB  GLU A  54     -25.468  -6.348   1.718  1.00  9.50     0.050 C 
ATOM    403  CG  GLU A  54     -25.113  -4.942   1.232  1.00 14.59     0.115 C 
ATOM    404  CD  GLU A  54     -24.365  -4.138   2.275  1.00 28.92     0.172 C 
ATOM    405  OE1 GLU A  54     -24.487  -4.464   3.474  1.00 29.83    -0.648 OA
ATOM    406  OE2 GLU A  54     -23.655  -3.182   1.898  1.00 31.94    -0.648 OA
ATOM    407  N   MET A  13     -18.169 -10.719   0.342  1.00  5.03    -0.069 N 
ATOM    408  HN1 MET A  13     -17.832 -10.991   1.265  1.00  0.00     0.275 HD
ATOM    409  HN2 MET A  13     -17.510 -10.113  -0.147  1.00  0.00     0.275 HD
ATOM    410  HN3 MET A  13     -18.164 -11.498  -0.316  1.00  0.00     0.275 HD
ATOM    411  CA  MET A  13     -19.491 -10.111   0.469  1.00  4.12     0.244 C 
ATOM    412  C   MET A  13     -19.996  -9.704  -0.914  1.00  5.18     0.263 C 
ATOM    413  O   MET A  13     -19.206  -9.355  -1.780  1.00  4.69    -0.305 OA
ATOM    414  CB  MET A  13     -19.436  -8.900   1.404  1.00  6.60     0.050 C 
ATOM    415  CG  MET A  13     -20.813  -8.317   1.758  1.00 17.91     0.076 C 
ATOM    416  SD  MET A  13     -21.318  -6.911   0.719  1.00 33.03    -0.173 SA
ATOM    417  CE  MET A  13     -20.401  -5.576   1.499  1.00 29.53     0.089 C 
ATOM    418  N   MET A  13     -25.098  10.937   0.285  1.00  5.03    -0.069 N 
ATOM    419  HN1 MET A  13     -25.437  11.213   1.207  1.00  0.00     0.275 HD
ATOM    420  HN2 MET A  13     -25.756  10.328  -0.202  1.00  0.00     0.275 HD
ATOM    421  HN3 MET A  13     -25.102  11.714  -0.376  1.00  0.00     0.275 HD
ATOM    422  CA  MET A  13     -23.777  10.330   0.416  1.00  4.12     0.244 C 
ATOM    423  C   MET A  13     -23.270   9.917  -0.963  1.00  5.18     0.263 C 
ATOM    424  O   MET A  13     -24.058   9.564  -1.829  1.00  4.69    -0.305 OA
ATOM    425  CB  MET A  13     -23.833   9.124   1.357  1.00  6.60     0.050 C 
ATOM    426  CG  MET A  13     -22.457   8.543   1.717  1.00 17.91     0.076 C 
ATOM    427  SD  MET A  13     -21.950   7.132   0.684  1.00 33.03    -0.173 SA
ATOM    428  CE  MET A  13     -22.868   5.800   1.470  1.00 29.53     0.089 C 
ATOM    429  N   SER A  52     -30.897  -4.522   2.420  1.00 10.90    -0.067 N 
ATOM    430  HN1 SER A  52     -31.355  -4.236   3.285  1.00  0.00     0.275 HD
ATOM    431  HN2 SER A  52     -30.484  -5.451   2.501  1.00  0.00     0.275 HD
ATOM    432  HN3 SER A  52     -31.573  -4.718   1.682  1.00  0.00     0.275 HD
ATOM    433  CA  SER A  52     -29.912  -3.526   2.001  1.00 12.87     0.267 C 
ATOM    434  C   SER A  52     -29.230  -3.953   0.711  1.00  9.15     0.266 C 
ATOM    435  O   SER A  52     -28.330  -3.267   0.218  1.00  9.92    -0.305 OA
ATOM    436  CB  SER A  52     -28.871  -3.292   3.093  1.00 19.80     0.204 C 
ATOM    437  OG  SER A  52     -28.033  -4.421   3.231  1.00 18.72    -0.398 OA
ATOM    438  HG  SER A  52     -27.385  -4.275   3.910  1.00  0.00     0.209 HD
ATOM    439  N   SER A  23     -32.791   1.128  -6.177  1.00  4.11    -0.347 N 
ATOM    440  HN  SER A  23     -32.567   0.530  -6.972  1.00  0.00     0.163 HD
ATOM    441  CA  SER A  23     -32.946   0.544  -4.864  1.00  5.94     0.169 C 
ATOM    442  C   SER A  23     -31.958  -0.593  -4.748  1.00  5.74     0.258 C 
ATOM    443  O   SER A  23     -31.440  -1.080  -5.763  1.00  6.42    -0.305 OA
ATOM    444  CB  SER A  23     -34.363  -0.015  -4.718  1.00 13.56     0.196 C 
ATOM    445  OG  SER A  23     -34.556  -1.108  -5.598  1.00 17.92    -0.398 OA
ATOM    446  HG  SER A  23     -35.436  -1.455  -5.507  1.00  0.00     0.209 HD
ATOM    447  N   GLY A  22     -33.767   2.147  -8.664  1.00  2.67    -0.071 N 
ATOM    448  HN1 GLY A  22     -33.720   2.464  -9.632  1.00  0.00     0.274 HD
ATOM    449  HN2 GLY A  22     -34.724   2.169  -8.312  1.00  0.00     0.274 HD
ATOM    450  HN3 GLY A  22     -33.594   1.144  -8.593  1.00  0.00     0.274 HD
ATOM    451  CA  GLY A  22     -32.867   2.904  -7.802  1.00  3.03     0.332 C 
ATOM    452  C   GLY A  22     -32.937   2.432  -6.359  1.00  6.68     0.243 C 
ATOM    453  O   GLY A  22     -33.105   3.215  -5.417  1.00  6.51    -0.272 OA
TER     454      GLY A  22 
ATOM    454  N   SER B 115     -29.554   4.942 -13.484  1.00  1.86    -0.064 N 
ATOM    455  HN1 SER B 115     -29.778   4.728 -12.512  1.00  0.00     0.275 HD
ATOM    456  HN2 SER B 115     -30.129   4.408 -14.136  1.00  0.00     0.275 HD
ATOM    457  HN3 SER B 115     -29.859   5.878 -13.750  1.00  0.00     0.275 HD
ATOM    458  CA  SER B 115     -28.132   4.743 -13.719  1.00  4.51     0.297 C 
ATOM    459  C   SER B 115     -27.801   5.060 -15.158  1.00  6.94     0.251 C 
ATOM    460  O   SER B 115     -28.614   4.820 -16.051  1.00  7.67    -0.271 OA
ATOM    461  CB  SER B 115     -27.752   3.280 -13.437  1.00  6.59     0.206 C 
ATOM    462  OG  SER B 115     -26.347   3.081 -13.593  1.00 11.16    -0.398 OA
ATOM    463  HG  SER B 115     -26.112   2.177 -13.419  1.00  0.00     0.209 HD
ATOM    464  N   SER B 115     -13.691  -4.789 -13.448  1.00  1.86    -0.067 N 
ATOM    465  HN1 SER B 115     -13.470  -4.570 -12.477  1.00  0.00     0.275 HD
ATOM    466  HN2 SER B 115     -13.116  -4.258 -14.101  1.00  0.00     0.275 HD
ATOM    467  HN3 SER B 115     -13.385  -5.726 -13.710  1.00  0.00     0.275 HD
ATOM    468  CA  SER B 115     -15.113  -4.592 -13.686  1.00  4.51     0.267 C 
ATOM    469  C   SER B 115     -15.441  -4.916 -15.125  1.00  6.94     0.266 C 
ATOM    470  O   SER B 115     -14.627  -4.680 -16.018  1.00  7.67    -0.305 OA
ATOM    471  CB  SER B 115     -15.493  -3.127 -13.412  1.00  6.59     0.204 C 
ATOM    472  OG  SER B 115     -16.898  -2.929 -13.571  1.00 11.16    -0.398 OA
ATOM    473  HG  SER B 115     -17.133  -2.024 -13.402  1.00  0.00     0.209 HD
ATOM    474  N   TYR B 116     -26.614   5.604 -15.399  1.00  5.66    -0.346 N 
ATOM    475  HN  TYR B 116     -26.065   6.011 -14.642  1.00  0.00     0.163 HD
ATOM    476  CA  TYR B 116     -26.111   5.608 -16.768  1.00  7.68     0.180 C 
ATOM    477  C   TYR B 116     -24.612   5.360 -16.806  1.00  4.78     0.241 C 
ATOM    478  O   TYR B 116     -23.902   5.616 -15.845  1.00  2.78    -0.271 OA
ATOM    479  CB  TYR B 116     -26.500   6.884 -17.528  1.00  7.70     0.073 C 
ATOM    480  CG  TYR B 116     -25.780   8.147 -17.120  1.00  6.52    -0.056 A 
ATOM    481  CD1 TYR B 116     -24.549   8.486 -17.675  1.00  8.78     0.010 A 
ATOM    482  CD2 TYR B 116     -26.356   9.035 -16.221  1.00 12.13     0.010 A 
ATOM    483  CE1 TYR B 116     -23.906   9.648 -17.321  1.00 13.75     0.037 A 
ATOM    484  CE2 TYR B 116     -25.714  10.207 -15.864  1.00 12.52     0.037 A 
ATOM    485  CZ  TYR B 116     -24.495  10.504 -16.416  1.00 13.74     0.065 A 
ATOM    486  OH  TYR B 116     -23.848  11.672 -16.064  1.00 27.86    -0.361 OA
ATOM    487  HH  TYR B 116     -24.254  12.262 -15.440  1.00  0.00     0.217 HD
ATOM    488  N   TYR B 116     -16.628  -5.460 -15.364  1.00  5.66    -0.069 N 
ATOM    489  HN1 TYR B 116     -15.622  -5.626 -15.336  1.00  0.00     0.275 HD
ATOM    490  HN2 TYR B 116     -17.133  -6.122 -14.775  1.00  0.00     0.275 HD
ATOM    491  HN3 TYR B 116     -16.878  -4.597 -14.881  1.00  0.00     0.275 HD
ATOM    492  CA  TYR B 116     -17.129  -5.471 -16.735  1.00  7.68     0.248 C 
ATOM    493  C   TYR B 116     -18.628  -5.223 -16.776  1.00  4.78     0.264 C 
ATOM    494  O   TYR B 116     -19.339  -5.474 -15.814  1.00  2.78    -0.305 OA
ATOM    495  CB  TYR B 116     -16.739  -6.750 -17.487  1.00  7.70     0.078 C 
ATOM    496  CG  TYR B 116     -17.460  -8.012 -17.075  1.00  6.52    -0.056 A 
ATOM    497  CD1 TYR B 116     -18.690  -8.354 -17.630  1.00  8.78     0.010 A 
ATOM    498  CD2 TYR B 116     -16.885  -8.895 -16.170  1.00 12.13     0.010 A 
ATOM    499  CE1 TYR B 116     -19.333  -9.514 -17.272  1.00 13.75     0.037 A 
ATOM    500  CE2 TYR B 116     -17.527 -10.065 -15.809  1.00 12.52     0.037 A 
ATOM    501  CZ  TYR B 116     -18.746 -10.365 -16.361  1.00 13.74     0.065 A 
ATOM    502  OH  TYR B 116     -19.393 -11.532 -16.005  1.00 27.86    -0.361 OA
ATOM    503  HH  TYR B 116     -18.988 -12.119 -15.377  1.00  0.00     0.217 HD
ATOM    504  N   SER B 117     -24.138   4.836 -17.929  1.00  4.53    -0.346 N 
ATOM    505  HN  SER B 117     -24.796   4.561 -18.658  1.00  0.00     0.163 HD
ATOM    506  CA ASER B 117     -22.718   4.639 -18.160  0.50  7.58     0.169 C 
ATOM    507  C   SER B 117     -22.358   5.364 -19.445  1.00  6.53     0.258 C 
ATOM    508  O   SER B 117     -23.170   5.403 -20.372  1.00  5.09    -0.305 OA
ATOM    509  CB ASER B 117     -22.398   3.150 -18.323  0.50 11.15     0.196 C 
ATOM    510  OG ASER B 117     -22.852   2.390 -17.214  0.50 14.72    -0.398 OA
ATOM    511  HG ASER B 117     -22.654   1.466 -17.315  1.00  0.00     0.209 HD
ATOM    512  N   SER B 117     -19.100  -4.704 -17.902  1.00  4.53    -0.067 N 
ATOM    513  HN1 SER B 117     -18.860  -4.213 -17.041  1.00  0.00     0.275 HD
ATOM    514  HN2 SER B 117     -18.524  -4.421 -18.695  1.00  0.00     0.275 HD
ATOM    515  HN3 SER B 117     -18.832  -5.688 -17.886  1.00  0.00     0.275 HD
ATOM    516  CA ASER B 117     -20.520  -4.509 -18.137  0.50  7.58     0.267 C 
ATOM    517  C   SER B 117     -20.877  -5.240 -19.418  1.00  6.53     0.266 C 
ATOM    518  O   SER B 117     -20.064  -5.283 -20.344  1.00  5.09    -0.305 OA
ATOM    519  CB ASER B 117     -20.839  -3.020 -18.307  0.50 11.15     0.204 C 
ATOM    520  OG ASER B 117     -20.387  -2.255 -17.201  0.50 14.72    -0.398 OA
ATOM    521  HG ASER B 117     -20.585  -1.332 -17.306  1.00  0.00     0.209 HD
TER     522      SER B 117 
