MODEL 1
REMARK VINA RESULT:      -6.1      0.000      0.000
REMARK  1 active torsions:
REMARK  status: ('A' for Active; 'I' for Inactive)
REMARK    1  A    between atoms: O_3  and  C_10 
ROOT
HETATM    1  C   UNL     1      59.615  42.617  12.676  1.00  0.00     0.009 C 
HETATM    2  C   UNL     1      60.305  44.762  13.521  1.00  0.00     0.009 C 
HETATM    3  C   UNL     1      60.402  43.756  12.555  1.00  0.00     0.001 C 
HETATM    4  C   UNL     1      59.597  44.476  14.702  1.00  0.00    -0.028 C 
HETATM    5  C   UNL     1      57.495  41.575  13.474  1.00  0.00     0.051 C 
HETATM    6  C   UNL     1      58.579  42.589  13.610  1.00  0.00    -0.028 C 
HETATM    7  C   UNL     1      60.194  44.744  16.058  1.00  0.00     0.051 C 
HETATM    8  C   UNL     1      58.518  43.594  14.578  1.00  0.00     0.077 C 
ENDROOT
BRANCH   8   9
HETATM    9  O   UNL     1      57.560  43.523  15.549  1.00  0.00    -0.360 OA
ATOM     10  HO  UNL     1      56.638  43.521  15.322  1.00  0.00     0.217 HD
ENDBRANCH   8   9
TORSDOF 1
ENDMDL
MODEL 2
REMARK VINA RESULT:      -5.4      0.940      2.957
REMARK  1 active torsions:
REMARK  status: ('A' for Active; 'I' for Inactive)
REMARK    1  A    between atoms: O_3  and  C_10 
ROOT
HETATM    1  C   UNL     1      60.283  44.223  13.149  1.00  0.00     0.009 C 
HETATM    2  C   UNL     1      59.678  42.258  11.900  1.00  0.00     0.009 C 
HETATM    3  C   UNL     1      60.480  43.392  12.054  1.00  0.00     0.001 C 
HETATM    4  C   UNL     1      58.546  42.134  12.725  1.00  0.00    -0.028 C 
HETATM    5  C   UNL     1      59.565  44.473  15.525  1.00  0.00     0.051 C 
HETATM    6  C   UNL     1      59.463  43.802  14.197  1.00  0.00    -0.028 C 
HETATM    7  C   UNL     1      57.187  41.832  12.152  1.00  0.00     0.051 C 
HETATM    8  C   UNL     1      58.654  42.679  14.009  1.00  0.00     0.077 C 
ENDROOT
BRANCH   8   9
HETATM    9  O   UNL     1      57.783  42.316  14.997  1.00  0.00    -0.360 OA
ATOM     10  HO  UNL     1      56.971  41.871  14.787  1.00  0.00     0.217 HD
ENDBRANCH   8   9
TORSDOF 1
ENDMDL
MODEL 3
REMARK VINA RESULT:      -5.3      1.640      2.733
REMARK  1 active torsions:
REMARK  status: ('A' for Active; 'I' for Inactive)
REMARK    1  A    between atoms: O_3  and  C_10 
ROOT
HETATM    1  C   UNL     1      58.872  43.952  14.905  1.00  0.00     0.009 C 
HETATM    2  C   UNL     1      60.908  44.716  13.875  1.00  0.00     0.009 C 
HETATM    3  C   UNL     1      59.994  44.771  14.931  1.00  0.00     0.001 C 
HETATM    4  C   UNL     1      60.535  44.014  12.716  1.00  0.00    -0.028 C 
HETATM    5  C   UNL     1      57.821  41.811  14.175  1.00  0.00     0.051 C 
HETATM    6  C   UNL     1      58.787  42.927  13.962  1.00  0.00    -0.028 C 
HETATM    7  C   UNL     1      60.658  44.635  11.349  1.00  0.00     0.051 C 
HETATM    8  C   UNL     1      59.699  42.908  12.904  1.00  0.00     0.077 C 
ENDROOT
BRANCH   8   9
HETATM    9  O   UNL     1      59.565  41.960  11.929  1.00  0.00    -0.360 OA
ATOM     10  HO  UNL     1      60.206  41.888  11.231  1.00  0.00     0.217 HD
ENDBRANCH   8   9
TORSDOF 1
ENDMDL
MODEL 4
REMARK VINA RESULT:      -5.1      2.275      3.183
REMARK  1 active torsions:
REMARK  status: ('A' for Active; 'I' for Inactive)
REMARK    1  A    between atoms: O_3  and  C_10 
ROOT
HETATM    1  C   UNL     1      57.354  41.972  13.207  1.00  0.00     0.009 C 
HETATM    2  C   UNL     1      59.353  42.934  14.138  1.00  0.00     0.009 C 
HETATM    3  C   UNL     1      58.056  42.444  14.309  1.00  0.00     0.001 C 
HETATM    4  C   UNL     1      59.807  43.154  12.825  1.00  0.00    -0.028 C 
HETATM    5  C   UNL     1      57.405  40.900  10.956  1.00  0.00     0.051 C 
HETATM    6  C   UNL     1      58.021  41.770  11.998  1.00  0.00    -0.028 C 
HETATM    7  C   UNL     1      60.431  44.464  12.421  1.00  0.00     0.051 C 
HETATM    8  C   UNL     1      59.308  42.290  11.845  1.00  0.00     0.077 C 
ENDROOT
BRANCH   8   9
HETATM    9  O   UNL     1      59.930  42.175  10.634  1.00  0.00    -0.360 OA
ATOM     10  HO  UNL     1      59.576  42.605   9.864  1.00  0.00     0.217 HD
ENDBRANCH   8   9
TORSDOF 1
ENDMDL
MODEL 5
REMARK VINA RESULT:      -5.1      1.260      2.879
REMARK  1 active torsions:
REMARK  status: ('A' for Active; 'I' for Inactive)
REMARK    1  A    between atoms: O_3  and  C_10 
ROOT
HETATM    1  C   UNL     1      60.429  43.672  12.212  1.00  0.00     0.009 C 
HETATM    2  C   UNL     1      58.891  42.083  13.161  1.00  0.00     0.009 C 
HETATM    3  C   UNL     1      59.675  42.512  12.087  1.00  0.00     0.001 C 
HETATM    4  C   UNL     1      58.708  42.969  14.238  1.00  0.00    -0.028 C 
HETATM    5  C   UNL     1      61.693  45.234  13.689  1.00  0.00     0.051 C 
HETATM    6  C   UNL     1      60.585  44.262  13.467  1.00  0.00    -0.028 C 
HETATM    7  C   UNL     1      57.335  43.277  14.775  1.00  0.00     0.051 C 
HETATM    8  C   UNL     1      59.774  43.830  14.519  1.00  0.00     0.077 C 
ENDROOT
BRANCH   8   9
HETATM    9  O   UNL     1      59.859  44.465  15.726  1.00  0.00    -0.360 OA
ATOM     10  HO  UNL     1      60.705  44.678  16.103  1.00  0.00     0.217 HD
ENDBRANCH   8   9
TORSDOF 1
ENDMDL
MODEL 6
REMARK VINA RESULT:      -5.0      4.963      6.350
REMARK  1 active torsions:
REMARK  status: ('A' for Active; 'I' for Inactive)
REMARK    1  A    between atoms: O_3  and  C_10 
ROOT
HETATM    1  C   UNL     1      56.872  40.495  11.646  1.00  0.00     0.009 C 
HETATM    2  C   UNL     1      58.738  40.283  10.142  1.00  0.00     0.009 C 
HETATM    3  C   UNL     1      57.962  41.065  11.001  1.00  0.00     0.001 C 
HETATM    4  C   UNL     1      58.246  39.017   9.777  1.00  0.00    -0.028 C 
HETATM    5  C   UNL     1      55.808  38.461  12.621  1.00  0.00     0.051 C 
HETATM    6  C   UNL     1      56.703  39.109  11.621  1.00  0.00    -0.028 C 
HETATM    7  C   UNL     1      58.177  38.588   8.335  1.00  0.00     0.051 C 
HETATM    8  C   UNL     1      57.476  38.353  10.738  1.00  0.00     0.077 C 
ENDROOT
BRANCH   8   9
HETATM    9  O   UNL     1      57.251  37.008  10.644  1.00  0.00    -0.360 OA
ATOM     10  HO  UNL     1      57.911  36.386  10.927  1.00  0.00     0.217 HD
ENDBRANCH   8   9
TORSDOF 1
ENDMDL
MODEL 7
REMARK VINA RESULT:      -4.8      2.210      4.008
REMARK  1 active torsions:
REMARK  status: ('A' for Active; 'I' for Inactive)
REMARK    1  A    between atoms: O_3  and  C_10 
ROOT
HETATM    1  C   UNL     1      59.476  43.344  14.086  1.00  0.00     0.009 C 
HETATM    2  C   UNL     1      57.398  42.245  13.572  1.00  0.00     0.009 C 
HETATM    3  C   UNL     1      58.179  43.003  14.449  1.00  0.00     0.001 C 
HETATM    4  C   UNL     1      58.034  41.655  12.466  1.00  0.00    -0.028 C 
HETATM    5  C   UNL     1      61.108  43.858  12.272  1.00  0.00     0.051 C 
HETATM    6  C   UNL     1      59.903  43.139  12.773  1.00  0.00    -0.028 C 
HETATM    7  C   UNL     1      57.859  40.193  12.149  1.00  0.00     0.051 C 
HETATM    8  C   UNL     1      59.114  42.360  11.924  1.00  0.00     0.077 C 
ENDROOT
BRANCH   8   9
HETATM    9  O   UNL     1      59.570  42.080  10.667  1.00  0.00    -0.360 OA
ATOM     10  HO  UNL     1      60.066  41.288  10.496  1.00  0.00     0.217 HD
ENDBRANCH   8   9
TORSDOF 1
ENDMDL
MODEL 8
REMARK VINA RESULT:      -4.8      2.238      3.956
REMARK  1 active torsions:
REMARK  status: ('A' for Active; 'I' for Inactive)
REMARK    1  A    between atoms: O_3  and  C_10 
ROOT
HETATM    1  C   UNL     1      59.330  42.837  12.622  1.00  0.00     0.009 C 
HETATM    2  C   UNL     1      59.042  41.440  10.684  1.00  0.00     0.009 C 
HETATM    3  C   UNL     1      59.822  42.333  11.424  1.00  0.00     0.001 C 
HETATM    4  C   UNL     1      57.696  41.276  11.056  1.00  0.00    -0.028 C 
HETATM    5  C   UNL     1      57.888  42.513  14.630  1.00  0.00     0.051 C 
HETATM    6  C   UNL     1      58.185  42.277  13.189  1.00  0.00    -0.028 C 
HETATM    7  C   UNL     1      56.584  41.381  10.045  1.00  0.00     0.051 C 
HETATM    8  C   UNL     1      57.411  41.405  12.419  1.00  0.00     0.077 C 
ENDROOT
BRANCH   8   9
HETATM    9  O   UNL     1      56.241  40.925  12.936  1.00  0.00    -0.360 OA
ATOM     10  HO  UNL     1      55.911  40.072  12.679  1.00  0.00     0.217 HD
ENDBRANCH   8   9
TORSDOF 1
ENDMDL
MODEL 9
REMARK VINA RESULT:      -4.8      2.716      4.033
REMARK  1 active torsions:
REMARK  status: ('A' for Active; 'I' for Inactive)
REMARK    1  A    between atoms: O_3  and  C_10 
ROOT
HETATM    1  C   UNL     1      57.710  39.231  10.824  1.00  0.00     0.009 C 
HETATM    2  C   UNL     1      58.546  41.486  10.893  1.00  0.00     0.009 C 
HETATM    3  C   UNL     1      58.406  40.269  10.219  1.00  0.00     0.001 C 
HETATM    4  C   UNL     1      58.188  41.532  12.252  1.00  0.00    -0.028 C 
HETATM    5  C   UNL     1      55.908  38.511  12.391  1.00  0.00     0.051 C 
HETATM    6  C   UNL     1      56.963  39.479  11.977  1.00  0.00    -0.028 C 
HETATM    7  C   UNL     1      59.119  42.100  13.290  1.00  0.00     0.051 C 
HETATM    8  C   UNL     1      57.138  40.694  12.644  1.00  0.00     0.077 C 
ENDROOT
BRANCH   8   9
HETATM    9  O   UNL     1      56.478  40.906  13.821  1.00  0.00    -0.360 OA
ATOM     10  HO  UNL     1      56.925  41.294  14.564  1.00  0.00     0.217 HD
ENDBRANCH   8   9
TORSDOF 1
ENDMDL
