MODEL 1
REMARK VINA RESULT:      -5.8      0.000      0.000
REMARK  1 active torsions:
REMARK  status: ('A' for Active; 'I' for Inactive)
REMARK    1  A    between atoms: O_6  and  C_8 
ROOT
HETATM    1  C   UNL     1      59.783  42.823  12.030  1.00  0.00     0.001 C 
HETATM    2  C   UNL     1      59.314  43.630  14.361  1.00  0.00    -0.029 C 
HETATM    3  C   UNL     1      57.727  41.788  13.946  1.00  0.00     0.037 C 
HETATM    4  C   UNL     1      60.053  43.491  13.201  1.00  0.00     0.009 C 
HETATM    5  C   UNL     1      58.690  42.054  11.713  1.00  0.00     0.000 C 
HETATM    6  C   UNL     1      58.115  42.930  14.618  1.00  0.00     0.071 C 
HETATM    7  C   UNL     1      59.764  44.658  15.374  1.00  0.00     0.051 C 
HETATM    8  C   UNL     1      57.782  41.543  12.608  1.00  0.00     0.003 C 
ENDROOT
BRANCH   6   9
HETATM    9  O   UNL     1      57.214  43.513  15.458  1.00  0.00    -0.360 OA
ATOM     10  HO  UNL     1      56.769  42.952  16.081  1.00  0.00     0.217 HD
ENDBRANCH   6   9
TORSDOF 1
ENDMDL
MODEL 2
REMARK VINA RESULT:      -5.6      1.482      3.310
REMARK  1 active torsions:
REMARK  status: ('A' for Active; 'I' for Inactive)
REMARK    1  A    between atoms: O_6  and  C_8 
ROOT
HETATM    1  C   UNL     1      61.594  44.814  13.466  1.00  0.00     0.001 C 
HETATM    2  C   UNL     1      59.881  43.195  12.601  1.00  0.00    -0.029 C 
HETATM    3  C   UNL     1      59.097  43.889  14.834  1.00  0.00     0.037 C 
HETATM    4  C   UNL     1      60.944  44.073  12.507  1.00  0.00     0.009 C 
HETATM    5  C   UNL     1      61.317  44.913  14.807  1.00  0.00     0.000 C 
HETATM    6  C   UNL     1      59.123  43.002  13.776  1.00  0.00     0.071 C 
HETATM    7  C   UNL     1      59.569  42.323  11.406  1.00  0.00     0.051 C 
HETATM    8  C   UNL     1      60.146  44.531  15.415  1.00  0.00     0.003 C 
ENDROOT
BRANCH   6   9
HETATM    9  O   UNL     1      58.518  41.792  13.942  1.00  0.00    -0.360 OA
ATOM     10  HO  UNL     1      59.037  41.016  13.771  1.00  0.00     0.217 HD
ENDBRANCH   6   9
TORSDOF 1
ENDMDL
MODEL 3
REMARK VINA RESULT:      -5.5      2.320      4.194
REMARK  1 active torsions:
REMARK  status: ('A' for Active; 'I' for Inactive)
REMARK    1  A    between atoms: O_6  and  C_8 
ROOT
HETATM    1  C   UNL     1      59.194  43.607  14.667  1.00  0.00     0.001 C 
HETATM    2  C   UNL     1      59.796  42.993  12.308  1.00  0.00    -0.029 C 
HETATM    3  C   UNL     1      61.550  44.548  13.077  1.00  0.00     0.037 C 
HETATM    4  C   UNL     1      59.142  42.854  13.517  1.00  0.00     0.009 C 
HETATM    5  C   UNL     1      59.972  44.706  14.939  1.00  0.00     0.000 C 
HETATM    6  C   UNL     1      60.828  43.928  12.076  1.00  0.00     0.071 C 
HETATM    7  C   UNL     1      59.320  42.160  11.140  1.00  0.00     0.051 C 
HETATM    8  C   UNL     1      61.081  45.098  14.230  1.00  0.00     0.003 C 
ENDROOT
BRANCH   6   9
HETATM    9  O   UNL     1      61.003  44.367  10.797  1.00  0.00    -0.360 OA
ATOM     10  HO  UNL     1      61.835  44.772  10.583  1.00  0.00     0.217 HD
ENDBRANCH   6   9
TORSDOF 1
ENDMDL
MODEL 4
REMARK VINA RESULT:      -5.5      2.100      3.858
REMARK  1 active torsions:
REMARK  status: ('A' for Active; 'I' for Inactive)
REMARK    1  A    between atoms: O_6  and  C_8 
ROOT
HETATM    1  C   UNL     1      59.437  44.198  14.693  1.00  0.00     0.001 C 
HETATM    2  C   UNL     1      59.087  42.400  12.975  1.00  0.00    -0.029 C 
HETATM    3  C   UNL     1      61.086  43.653  12.254  1.00  0.00     0.037 C 
HETATM    4  C   UNL     1      58.920  43.024  14.197  1.00  0.00     0.009 C 
HETATM    5  C   UNL     1      60.321  45.064  14.099  1.00  0.00     0.000 C 
HETATM    6  C   UNL     1      60.011  42.825  11.996  1.00  0.00     0.071 C 
HETATM    7  C   UNL     1      58.166  41.253  12.628  1.00  0.00     0.051 C 
HETATM    8  C   UNL     1      61.110  44.784  13.010  1.00  0.00     0.003 C 
ENDROOT
BRANCH   6   9
HETATM    9  O   UNL     1      59.725  42.539  10.694  1.00  0.00    -0.360 OA
ATOM     10  HO  UNL     1      59.781  41.630  10.423  1.00  0.00     0.217 HD
ENDBRANCH   6   9
TORSDOF 1
ENDMDL
MODEL 5
REMARK VINA RESULT:      -5.3      1.398      2.920
REMARK  1 active torsions:
REMARK  status: ('A' for Active; 'I' for Inactive)
REMARK    1  A    between atoms: O_6  and  C_8 
ROOT
HETATM    1  C   UNL     1      60.593  42.964  12.021  1.00  0.00     0.001 C 
HETATM    2  C   UNL     1      58.900  43.222  13.858  1.00  0.00    -0.029 C 
HETATM    3  C   UNL     1      60.352  45.212  13.984  1.00  0.00     0.037 C 
HETATM    4  C   UNL     1      59.421  42.698  12.689  1.00  0.00     0.009 C 
HETATM    5  C   UNL     1      61.565  43.884  12.327  1.00  0.00     0.000 C 
HETATM    6  C   UNL     1      59.464  44.317  14.547  1.00  0.00     0.071 C 
HETATM    7  C   UNL     1      57.713  42.527  14.484  1.00  0.00     0.051 C 
HETATM    8  C   UNL     1      61.425  44.941  13.192  1.00  0.00     0.003 C 
ENDROOT
BRANCH   6   9
HETATM    9  O   UNL     1      59.249  44.392  15.891  1.00  0.00    -0.360 OA
ATOM     10  HO  UNL     1      58.675  43.742  16.280  1.00  0.00     0.217 HD
ENDBRANCH   6   9
TORSDOF 1
ENDMDL
MODEL 6
REMARK VINA RESULT:      -5.3      1.887      2.743
REMARK  1 active torsions:
REMARK  status: ('A' for Active; 'I' for Inactive)
REMARK    1  A    between atoms: O_6  and  C_8 
ROOT
HETATM    1  C   UNL     1      58.523  42.143  13.416  1.00  0.00     0.001 C 
HETATM    2  C   UNL     1      59.745  44.070  14.462  1.00  0.00    -0.029 C 
HETATM    3  C   UNL     1      60.370  44.082  12.076  1.00  0.00     0.037 C 
HETATM    4  C   UNL     1      58.784  43.079  14.388  1.00  0.00     0.009 C 
HETATM    5  C   UNL     1      59.141  41.971  12.201  1.00  0.00     0.000 C 
HETATM    6  C   UNL     1      60.605  44.413  13.396  1.00  0.00     0.071 C 
HETATM    7  C   UNL     1      59.951  44.766  15.789  1.00  0.00     0.051 C 
HETATM    8  C   UNL     1      59.947  42.890  11.574  1.00  0.00     0.003 C 
ENDROOT
BRANCH   6   9
HETATM    9  O   UNL     1      61.816  44.952  13.713  1.00  0.00    -0.360 OA
ATOM     10  HO  UNL     1      62.373  45.229  12.996  1.00  0.00     0.217 HD
ENDBRANCH   6   9
TORSDOF 1
ENDMDL
MODEL 7
REMARK VINA RESULT:      -5.2      1.988      2.758
REMARK  1 active torsions:
REMARK  status: ('A' for Active; 'I' for Inactive)
REMARK    1  A    between atoms: O_6  and  C_8 
ROOT
HETATM    1  C   UNL     1      57.963  42.597  14.505  1.00  0.00     0.001 C 
HETATM    2  C   UNL     1      59.862  43.942  13.560  1.00  0.00    -0.029 C 
HETATM    3  C   UNL     1      59.191  42.367  11.783  1.00  0.00     0.037 C 
HETATM    4  C   UNL     1      58.838  43.656  14.443  1.00  0.00     0.009 C 
HETATM    5  C   UNL     1      57.844  41.532  13.646  1.00  0.00     0.000 C 
HETATM    6  C   UNL     1      60.112  43.203  12.382  1.00  0.00     0.071 C 
HETATM    7  C   UNL     1      60.825  45.049  13.918  1.00  0.00     0.051 C 
HETATM    8  C   UNL     1      58.370  41.459  12.380  1.00  0.00     0.003 C 
ENDROOT
BRANCH   6   9
HETATM    9  O   UNL     1      61.390  43.187  11.910  1.00  0.00    -0.360 OA
ATOM     10  HO  UNL     1      62.085  43.014  12.534  1.00  0.00     0.217 HD
ENDBRANCH   6   9
TORSDOF 1
ENDMDL
MODEL 8
REMARK VINA RESULT:      -5.2      1.953      3.804
REMARK  1 active torsions:
REMARK  status: ('A' for Active; 'I' for Inactive)
REMARK    1  A    between atoms: O_6  and  C_8 
ROOT
HETATM    1  C   UNL     1      57.916  42.519  14.307  1.00  0.00     0.001 C 
HETATM    2  C   UNL     1      59.161  42.292  12.139  1.00  0.00    -0.029 C 
HETATM    3  C   UNL     1      60.389  43.978  13.456  1.00  0.00     0.037 C 
HETATM    4  C   UNL     1      58.269  41.913  13.125  1.00  0.00     0.009 C 
HETATM    5  C   UNL     1      58.408  43.677  14.859  1.00  0.00     0.000 C 
HETATM    6  C   UNL     1      60.044  43.387  12.256  1.00  0.00     0.071 C 
HETATM    7  C   UNL     1      59.127  41.548  10.823  1.00  0.00     0.051 C 
HETATM    8  C   UNL     1      59.571  44.309  14.492  1.00  0.00     0.003 C 
ENDROOT
BRANCH   6   9
HETATM    9  O   UNL     1      60.442  44.000  11.106  1.00  0.00    -0.360 OA
ATOM     10  HO  UNL     1      60.599  43.450  10.348  1.00  0.00     0.217 HD
ENDBRANCH   6   9
TORSDOF 1
ENDMDL
MODEL 9
REMARK VINA RESULT:      -5.1      1.552      2.605
REMARK  1 active torsions:
REMARK  status: ('A' for Active; 'I' for Inactive)
REMARK    1  A    between atoms: O_6  and  C_8 
ROOT
HETATM    1  C   UNL     1      58.444  41.841  12.619  1.00  0.00     0.001 C 
HETATM    2  C   UNL     1      60.293  43.530  12.795  1.00  0.00    -0.029 C 
HETATM    3  C   UNL     1      58.954  43.768  14.854  1.00  0.00     0.037 C 
HETATM    4  C   UNL     1      59.653  42.411  12.298  1.00  0.00     0.009 C 
HETATM    5  C   UNL     1      57.545  42.222  13.585  1.00  0.00     0.000 C 
HETATM    6  C   UNL     1      59.842  44.259  13.917  1.00  0.00     0.071 C 
HETATM    7  C   UNL     1      61.493  44.059  12.044  1.00  0.00     0.051 C 
HETATM    8  C   UNL     1      57.807  43.069  14.635  1.00  0.00     0.003 C 
ENDROOT
BRANCH   6   9
HETATM    9  O   UNL     1      60.171  45.581  13.982  1.00  0.00    -0.360 OA
ATOM     10  HO  UNL     1      60.997  45.846  13.597  1.00  0.00     0.217 HD
ENDBRANCH   6   9
TORSDOF 1
ENDMDL
