MODEL 1
REMARK VINA RESULT:      -9.4      0.000      0.000
REMARK  3 active torsions:
REMARK  status: ('A' for Active; 'I' for Inactive)
REMARK    1  A    between atoms: N_2  and  C_9 
REMARK    2  A    between atoms: C_6  and  C_10 
REMARK    3  A    between atoms: C_8  and  O_15 
ROOT
HETATM    1  C   UNL     1      24.262   7.807  16.047  1.00  0.00     0.037 C 
HETATM    2  C   UNL     1      23.792   8.201  14.821  1.00  0.00     0.003 C 
HETATM    3  C   UNL     1      22.639   8.860  17.550  1.00  0.00     0.007 C 
HETATM    4  C   UNL     1      23.523   7.852  17.216  1.00  0.00     0.076 C 
HETATM    5  C   UNL     1      22.663   8.939  14.640  1.00  0.00     0.000 C 
HETATM    6  C   UNL     1      22.591  10.030  16.788  1.00  0.00     0.015 C 
HETATM    7  C   UNL     1      22.265   9.973  15.442  1.00  0.00     0.001 C 
ENDROOT
BRANCH   3   8
HETATM    8  C   UNL     1      21.681   8.685  18.566  1.00  0.00    -0.023 C 
HETATM    9  C   UNL     1      20.482   9.403  18.521  1.00  0.00     0.014 C 
HETATM   10  C   UNL     1      20.024  10.015  19.681  1.00  0.00     0.030 C 
HETATM   11  C   UNL     1      20.547   9.620  20.915  1.00  0.00     0.025 C 
HETATM   12  C   UNL     1      21.480   8.593  20.966  1.00  0.00     0.030 C 
HETATM   13  C   UNL     1      22.038   8.107  19.786  1.00  0.00     0.014 C 
BRANCH  11  14
HETATM   14  N   UNL     1      20.208  10.318  22.036  1.00  0.00    -0.399 N 
ATOM     15  HN2 UNL     1      19.511  11.060  21.969  1.00  0.00     0.156 HD
ATOM     16  HN1 UNL     1      20.693  10.163  22.919  1.00  0.00     0.156 HD
ENDBRANCH  11  14
ENDBRANCH   3   8
BRANCH   4  17
HETATM   17  O   UNL     1      23.700   6.830  18.085  1.00  0.00    -0.360 OA
ATOM     18  HO  UNL     1      24.590   6.518  18.200  1.00  0.00     0.217 HD
ENDBRANCH   4  17
TORSDOF 3
ENDMDL
MODEL 2
REMARK VINA RESULT:      -8.5      2.558      3.872
REMARK  3 active torsions:
REMARK  status: ('A' for Active; 'I' for Inactive)
REMARK    1  A    between atoms: N_2  and  C_9 
REMARK    2  A    between atoms: C_6  and  C_10 
REMARK    3  A    between atoms: C_8  and  O_15 
ROOT
HETATM    1  C   UNL     1      19.818  10.831  18.157  1.00  0.00     0.037 C 
HETATM    2  C   UNL     1      20.715  11.011  17.137  1.00  0.00     0.003 C 
HETATM    3  C   UNL     1      20.935   9.103  19.487  1.00  0.00     0.007 C 
HETATM    4  C   UNL     1      20.116  10.208  19.356  1.00  0.00     0.076 C 
HETATM    5  C   UNL     1      21.911  10.367  17.052  1.00  0.00     0.000 C 
HETATM    6  C   UNL     1      21.363   8.411  18.351  1.00  0.00     0.015 C 
HETATM    7  C   UNL     1      22.119   9.056  17.384  1.00  0.00     0.001 C 
ENDROOT
BRANCH   3   8
HETATM    8  C   UNL     1      21.467   8.731  20.735  1.00  0.00    -0.023 C 
HETATM    9  C   UNL     1      22.385   7.678  20.814  1.00  0.00     0.014 C 
HETATM   10  C   UNL     1      22.221   6.720  21.807  1.00  0.00     0.030 C 
HETATM   11  C   UNL     1      21.397   7.002  22.900  1.00  0.00     0.025 C 
HETATM   12  C   UNL     1      20.792   8.248  22.999  1.00  0.00     0.030 C 
HETATM   13  C   UNL     1      20.842   9.127  21.920  1.00  0.00     0.014 C 
BRANCH  11  14
HETATM   14  N   UNL     1      21.121   6.013  23.797  1.00  0.00    -0.399 N 
ATOM     15  HN2 UNL     1      20.262   5.473  23.693  1.00  0.00     0.156 HD
ATOM     16  HN1 UNL     1      21.717   5.857  24.609  1.00  0.00     0.156 HD
ENDBRANCH  11  14
ENDBRANCH   3   8
BRANCH   4  17
HETATM   17  O   UNL     1      19.547  10.728  20.468  1.00  0.00    -0.360 OA
ATOM     18  HO  UNL     1      18.967  11.470  20.343  1.00  0.00     0.217 HD
ENDBRANCH   4  17
TORSDOF 3
ENDMDL
MODEL 3
REMARK VINA RESULT:      -7.9      2.565      5.034
REMARK  3 active torsions:
REMARK  status: ('A' for Active; 'I' for Inactive)
REMARK    1  A    between atoms: N_2  and  C_9 
REMARK    2  A    between atoms: C_6  and  C_10 
REMARK    3  A    between atoms: C_8  and  O_15 
ROOT
HETATM    1  C   UNL     1      22.304   6.694  20.572  1.00  0.00     0.037 C 
HETATM    2  C   UNL     1      21.894   7.626  21.491  1.00  0.00     0.003 C 
HETATM    3  C   UNL     1      22.248   8.001  18.500  1.00  0.00     0.007 C 
HETATM    4  C   UNL     1      22.763   7.001  19.304  1.00  0.00     0.076 C 
HETATM    5  C   UNL     1      21.620   8.924  21.189  1.00  0.00     0.000 C 
HETATM    6  C   UNL     1      21.063   8.646  18.860  1.00  0.00     0.015 C 
HETATM    7  C   UNL     1      20.984   9.347  20.054  1.00  0.00     0.001 C 
ENDROOT
BRANCH   3   8
HETATM    8  C   UNL     1      22.961   8.485  17.387  1.00  0.00    -0.023 C 
HETATM    9  C   UNL     1      22.527   9.642  16.734  1.00  0.00     0.014 C 
HETATM   10  C   UNL     1      22.474   9.647  15.346  1.00  0.00     0.030 C 
HETATM   11  C   UNL     1      23.174   8.672  14.631  1.00  0.00     0.025 C 
HETATM   12  C   UNL     1      23.945   7.742  15.316  1.00  0.00     0.030 C 
HETATM   13  C   UNL     1      23.855   7.658  16.703  1.00  0.00     0.014 C 
BRANCH  11  14
HETATM   14  N   UNL     1      23.005   8.587  13.281  1.00  0.00    -0.399 N 
ATOM     15  HN2 UNL     1      23.540   9.206  12.672  1.00  0.00     0.156 HD
ATOM     16  HN1 UNL     1      22.301   7.970  12.876  1.00  0.00     0.156 HD
ENDBRANCH  11  14
ENDBRANCH   3   8
BRANCH   4  17
HETATM   17  O   UNL     1      23.786   6.252  18.831  1.00  0.00    -0.360 OA
ATOM     18  HO  UNL     1      24.653   6.458  19.162  1.00  0.00     0.217 HD
ENDBRANCH   4  17
TORSDOF 3
ENDMDL
MODEL 4
REMARK VINA RESULT:      -7.6      1.916      2.484
REMARK  3 active torsions:
REMARK  status: ('A' for Active; 'I' for Inactive)
REMARK    1  A    between atoms: N_2  and  C_9 
REMARK    2  A    between atoms: C_6  and  C_10 
REMARK    3  A    between atoms: C_8  and  O_15 
ROOT
HETATM    1  C   UNL     1      24.116   7.929  15.050  1.00  0.00     0.037 C 
HETATM    2  C   UNL     1      23.279   8.871  14.513  1.00  0.00     0.003 C 
HETATM    3  C   UNL     1      23.358   7.879  17.379  1.00  0.00     0.007 C 
HETATM    4  C   UNL     1      23.892   7.283  16.252  1.00  0.00     0.076 C 
HETATM    5  C   UNL     1      22.286   9.492  15.206  1.00  0.00     0.000 C 
HETATM    6  C   UNL     1      23.196   9.266  17.427  1.00  0.00     0.015 C 
HETATM    7  C   UNL     1      22.378   9.905  16.507  1.00  0.00     0.001 C 
ENDROOT
BRANCH   3   8
HETATM    8  C   UNL     1      22.843   7.110  18.439  1.00  0.00    -0.023 C 
HETATM    9  C   UNL     1      21.872   7.654  19.284  1.00  0.00     0.014 C 
HETATM   10  C   UNL     1      22.011   7.491  20.657  1.00  0.00     0.030 C 
HETATM   11  C   UNL     1      22.880   6.512  21.145  1.00  0.00     0.025 C 
HETATM   12  C   UNL     1      23.556   5.690  20.252  1.00  0.00     0.030 C 
HETATM   13  C   UNL     1      23.524   5.977  18.890  1.00  0.00     0.014 C 
BRANCH  11  14
HETATM   14  N   UNL     1      23.127   6.449  22.484  1.00  0.00    -0.399 N 
ATOM     15  HN2 UNL     1      24.060   6.675  22.829  1.00  0.00     0.156 HD
ATOM     16  HN1 UNL     1      22.420   6.106  23.134  1.00  0.00     0.156 HD
ENDBRANCH  11  14
ENDBRANCH   3   8
BRANCH   4  17
HETATM   17  O   UNL     1      24.234   5.975  16.312  1.00  0.00    -0.360 OA
ATOM     18  HO  UNL     1      23.700   5.372  15.806  1.00  0.00     0.217 HD
ENDBRANCH   4  17
TORSDOF 3
ENDMDL
MODEL 5
REMARK VINA RESULT:      -7.6      3.313      4.992
REMARK  3 active torsions:
REMARK  status: ('A' for Active; 'I' for Inactive)
REMARK    1  A    between atoms: N_2  and  C_9 
REMARK    2  A    between atoms: C_6  and  C_10 
REMARK    3  A    between atoms: C_8  and  O_15 
ROOT
HETATM    1  C   UNL     1      22.616   9.680  15.829  1.00  0.00     0.037 C 
HETATM    2  C   UNL     1      21.616  10.107  16.663  1.00  0.00     0.003 C 
HETATM    3  C   UNL     1      23.550   7.811  17.110  1.00  0.00     0.007 C 
HETATM    4  C   UNL     1      23.235   8.446  15.923  1.00  0.00     0.076 C 
HETATM    5  C   UNL     1      21.300   9.507  17.843  1.00  0.00     0.000 C 
HETATM    6  C   UNL     1      23.437   8.497  18.322  1.00  0.00     0.015 C 
HETATM    7  C   UNL     1      22.208   8.995  18.729  1.00  0.00     0.001 C 
ENDROOT
BRANCH   3   8
HETATM    8  C   UNL     1      23.857   6.438  17.146  1.00  0.00    -0.023 C 
HETATM    9  C   UNL     1      23.465   5.668  18.245  1.00  0.00     0.014 C 
HETATM   10  C   UNL     1      24.382   4.788  18.806  1.00  0.00     0.030 C 
HETATM   11  C   UNL     1      25.517   4.423  18.077  1.00  0.00     0.025 C 
HETATM   12  C   UNL     1      25.687   4.910  16.787  1.00  0.00     0.030 C 
HETATM   13  C   UNL     1      24.842   5.909  16.309  1.00  0.00     0.014 C 
BRANCH  11  14
HETATM   14  N   UNL     1      26.486   3.680  18.681  1.00  0.00    -0.399 N 
ATOM     15  HN2 UNL     1      26.350   2.674  18.783  1.00  0.00     0.156 HD
ATOM     16  HN1 UNL     1      27.305   4.121  19.098  1.00  0.00     0.156 HD
ENDBRANCH  11  14
ENDBRANCH   3   8
BRANCH   4  17
HETATM   17  O   UNL     1      23.553   7.836  14.758  1.00  0.00    -0.360 OA
ATOM     18  HO  UNL     1      23.016   8.051  14.004  1.00  0.00     0.217 HD
ENDBRANCH   4  17
TORSDOF 3
ENDMDL
MODEL 6
REMARK VINA RESULT:      -7.4      1.498      2.477
REMARK  3 active torsions:
REMARK  status: ('A' for Active; 'I' for Inactive)
REMARK    1  A    between atoms: N_2  and  C_9 
REMARK    2  A    between atoms: C_6  and  C_10 
REMARK    3  A    between atoms: C_8  and  O_15 
ROOT
HETATM    1  C   UNL     1      22.684   9.259  15.432  1.00  0.00     0.037 C 
HETATM    2  C   UNL     1      23.860   8.557  15.373  1.00  0.00     0.003 C 
HETATM    3  C   UNL     1      22.022   8.898  17.764  1.00  0.00     0.007 C 
HETATM    4  C   UNL     1      22.072   9.655  16.608  1.00  0.00     0.076 C 
HETATM    5  C   UNL     1      24.423   7.922  16.438  1.00  0.00     0.000 C 
HETATM    6  C   UNL     1      22.428   7.562  17.743  1.00  0.00     0.015 C 
HETATM    7  C   UNL     1      23.730   7.234  17.396  1.00  0.00     0.001 C 
ENDROOT
BRANCH   3   8
HETATM    8  C   UNL     1      21.696   9.478  19.004  1.00  0.00    -0.023 C 
HETATM    9  C   UNL     1      22.315   9.017  20.170  1.00  0.00     0.014 C 
HETATM   10  C   UNL     1      21.532   8.779  21.293  1.00  0.00     0.030 C 
HETATM   11  C   UNL     1      20.249   9.328  21.363  1.00  0.00     0.025 C 
HETATM   12  C   UNL     1      19.794  10.137  20.330  1.00  0.00     0.030 C 
HETATM   13  C   UNL     1      20.528  10.231  19.150  1.00  0.00     0.014 C 
BRANCH  11  14
HETATM   14  N   UNL     1      19.430   8.975  22.393  1.00  0.00    -0.399 N 
ATOM     15  HN2 UNL     1      19.002   9.706  22.961  1.00  0.00     0.156 HD
ATOM     16  HN1 UNL     1      19.299   7.997  22.651  1.00  0.00     0.156 HD
ENDBRANCH  11  14
ENDBRANCH   3   8
BRANCH   4  17
HETATM   17  O   UNL     1      21.479  10.871  16.603  1.00  0.00    -0.360 OA
ATOM     18  HO  UNL     1      21.331  11.276  17.450  1.00  0.00     0.217 HD
ENDBRANCH   4  17
TORSDOF 3
ENDMDL
MODEL 7
REMARK VINA RESULT:      -7.3      3.191      4.775
REMARK  3 active torsions:
REMARK  status: ('A' for Active; 'I' for Inactive)
REMARK    1  A    between atoms: N_2  and  C_9 
REMARK    2  A    between atoms: C_6  and  C_10 
REMARK    3  A    between atoms: C_8  and  O_15 
ROOT
HETATM    1  C   UNL     1      20.960   9.343  18.189  1.00  0.00     0.037 C 
HETATM    2  C   UNL     1      21.253  10.477  17.477  1.00  0.00     0.003 C 
HETATM    3  C   UNL     1      22.703   7.812  17.400  1.00  0.00     0.007 C 
HETATM    4  C   UNL     1      21.836   8.287  18.366  1.00  0.00     0.076 C 
HETATM    5  C   UNL     1      22.312  10.593  16.630  1.00  0.00     0.000 C 
HETATM    6  C   UNL     1      22.595   8.262  16.081  1.00  0.00     0.015 C 
HETATM    7  C   UNL     1      22.753   9.608  15.788  1.00  0.00     0.001 C 
ENDROOT
BRANCH   3   8
HETATM    8  C   UNL     1      23.788   6.981  17.735  1.00  0.00    -0.023 C 
HETATM    9  C   UNL     1      24.769   6.700  16.779  1.00  0.00     0.014 C 
HETATM   10  C   UNL     1      25.201   5.388  16.631  1.00  0.00     0.030 C 
HETATM   11  C   UNL     1      24.937   4.461  17.643  1.00  0.00     0.025 C 
HETATM   12  C   UNL     1      24.286   4.876  18.797  1.00  0.00     0.030 C 
HETATM   13  C   UNL     1      23.725   6.149  18.855  1.00  0.00     0.014 C 
BRANCH  11  14
HETATM   14  N   UNL     1      25.230   3.147  17.434  1.00  0.00    -0.399 N 
ATOM     15  HN2 UNL     1      24.653   2.432  17.876  1.00  0.00     0.156 HD
ATOM     16  HN1 UNL     1      26.059   2.869  16.909  1.00  0.00     0.156 HD
ENDBRANCH  11  14
ENDBRANCH   3   8
BRANCH   4  17
HETATM   17  O   UNL     1      21.822   7.683  19.577  1.00  0.00    -0.360 OA
ATOM     18  HO  UNL     1      21.590   6.762  19.591  1.00  0.00     0.217 HD
ENDBRANCH   4  17
TORSDOF 3
ENDMDL
MODEL 8
REMARK VINA RESULT:      -7.3      2.032      3.139
REMARK  3 active torsions:
REMARK  status: ('A' for Active; 'I' for Inactive)
REMARK    1  A    between atoms: N_2  and  C_9 
REMARK    2  A    between atoms: C_6  and  C_10 
REMARK    3  A    between atoms: C_8  and  O_15 
ROOT
HETATM    1  C   UNL     1      21.589   9.633  16.912  1.00  0.00     0.037 C 
HETATM    2  C   UNL     1      22.760   9.715  16.204  1.00  0.00     0.003 C 
HETATM    3  C   UNL     1      22.255   8.198  18.783  1.00  0.00     0.007 C 
HETATM    4  C   UNL     1      21.503   9.216  18.229  1.00  0.00     0.076 C 
HETATM    5  C   UNL     1      23.930   9.142  16.597  1.00  0.00     0.000 C 
HETATM    6  C   UNL     1      23.027   7.372  17.963  1.00  0.00     0.015 C 
HETATM    7  C   UNL     1      24.041   7.912  17.186  1.00  0.00     0.001 C 
ENDROOT
BRANCH   3   8
HETATM    8  C   UNL     1      22.371   8.051  20.178  1.00  0.00    -0.023 C 
HETATM    9  C   UNL     1      22.974   6.906  20.708  1.00  0.00     0.014 C 
HETATM   10  C   UNL     1      22.360   6.259  21.774  1.00  0.00     0.030 C 
HETATM   11  C   UNL     1      21.387   6.934  22.516  1.00  0.00     0.025 C 
HETATM   12  C   UNL     1      21.081   8.253  22.205  1.00  0.00     0.030 C 
HETATM   13  C   UNL     1      21.590   8.823  21.041  1.00  0.00     0.014 C 
BRANCH  11  14
HETATM   14  N   UNL     1      20.683   6.254  23.464  1.00  0.00    -0.399 N 
ATOM     15  HN2 UNL     1      21.185   5.790  24.220  1.00  0.00     0.156 HD
ATOM     16  HN1 UNL     1      19.672   6.138  23.387  1.00  0.00     0.156 HD
ENDBRANCH  11  14
ENDBRANCH   3   8
BRANCH   4  17
HETATM   17  O   UNL     1      20.607   9.860  19.011  1.00  0.00    -0.360 OA
ATOM     18  HO  UNL     1      20.526  10.798  18.883  1.00  0.00     0.217 HD
ENDBRANCH   4  17
TORSDOF 3
ENDMDL
MODEL 9
REMARK VINA RESULT:      -7.3      2.929      5.121
REMARK  3 active torsions:
REMARK  status: ('A' for Active; 'I' for Inactive)
REMARK    1  A    between atoms: N_2  and  C_9 
REMARK    2  A    between atoms: C_6  and  C_10 
REMARK    3  A    between atoms: C_8  and  O_15 
ROOT
HETATM    1  C   UNL     1      23.753   4.642  19.873  1.00  0.00     0.037 C 
HETATM    2  C   UNL     1      23.719   5.052  21.181  1.00  0.00     0.003 C 
HETATM    3  C   UNL     1      23.141   6.707  18.704  1.00  0.00     0.007 C 
HETATM    4  C   UNL     1      23.811   5.501  18.790  1.00  0.00     0.076 C 
HETATM    5  C   UNL     1      23.456   6.328  21.573  1.00  0.00     0.000 C 
HETATM    6  C   UNL     1      22.177   7.041  19.658  1.00  0.00     0.015 C 
HETATM    7  C   UNL     1      22.527   7.149  20.995  1.00  0.00     0.001 C 
ENDROOT
BRANCH   3   8
HETATM    8  C   UNL     1      23.500   7.677  17.750  1.00  0.00    -0.023 C 
HETATM    9  C   UNL     1      22.815   8.895  17.705  1.00  0.00     0.014 C 
HETATM   10  C   UNL     1      22.408   9.389  16.472  1.00  0.00     0.030 C 
HETATM   11  C   UNL     1      22.982   8.877  15.306  1.00  0.00     0.025 C 
HETATM   12  C   UNL     1      23.981   7.916  15.399  1.00  0.00     0.030 C 
HETATM   13  C   UNL     1      24.257   7.324  16.629  1.00  0.00     0.014 C 
BRANCH  11  14
HETATM   14  N   UNL     1      22.481   9.254  14.096  1.00  0.00    -0.399 N 
ATOM     15  HN2 UNL     1      21.483   9.148  13.915  1.00  0.00     0.156 HD
ATOM     16  HN1 UNL     1      23.097   9.568  13.345  1.00  0.00     0.156 HD
ENDBRANCH  11  14
ENDBRANCH   3   8
BRANCH   4  17
HETATM   17  O   UNL     1      24.579   5.111  17.746  1.00  0.00    -0.360 OA
ATOM     18  HO  UNL     1      25.486   4.904  17.939  1.00  0.00     0.217 HD
ENDBRANCH   4  17
TORSDOF 3
ENDMDL
