MODEL 1
REMARK VINA RESULT:      -7.9      0.000      0.000
REMARK  3 active torsions:
REMARK  status: ('A' for Active; 'I' for Inactive)
REMARK    1  A    between atoms: O_4  and  C_10 
REMARK    2  A    between atoms: O_7  and  C_14 
REMARK    3  A    between atoms: C_12  and  C_15 
ROOT
HETATM    1  C   UNL     1      20.900  10.761  17.677  1.00  0.00     0.160 C 
HETATM    2  C   UNL     1      21.640   8.594  18.482  1.00  0.00     0.030 C 
HETATM    3  C   UNL     1      22.292   9.437  16.286  1.00  0.00     0.061 C 
HETATM    4  C   UNL     1      22.651   9.104  14.857  1.00  0.00     0.100 C 
HETATM    5  C   UNL     1      23.835   7.081  15.749  1.00  0.00     0.151 C 
HETATM    6  C   UNL     1      23.526   7.482  17.203  1.00  0.00     0.075 C 
HETATM    7  O   UNL     1      21.713  10.637  16.575  1.00  0.00    -0.325 OA
HETATM    8  C   UNL     1      23.973   8.317  14.861  1.00  0.00     0.153 C 
HETATM    9  C   UNL     1      20.840   9.748  18.616  1.00  0.00     0.063 C 
HETATM   10  C   UNL     1      22.281   8.359  17.257  1.00  0.00    -0.025 C 
ENDROOT
BRANCH   9  11
HETATM   11  C   UNL     1      20.240  10.103  19.972  1.00  0.00     0.211 C 
HETATM   12  O   UNL     1      19.624  11.174  20.109  1.00  0.00    -0.644 OA
HETATM   13  O   UNL     1      20.405   9.319  20.957  1.00  0.00    -0.644 OA
ENDBRANCH   9  11
BRANCH   5  14
HETATM   14  O   UNL     1      25.038   6.322  15.750  1.00  0.00    -0.393 OA
ATOM     15  HO  UNL     1      25.764   6.925  15.860  1.00  0.00     0.210 HD
ENDBRANCH   5  14
BRANCH   8  16
HETATM   16  O   UNL     1      24.315   7.960  13.531  1.00  0.00    -0.393 OA
ATOM     17  HO  UNL     1      25.114   7.446  13.537  1.00  0.00     0.210 HD
ENDBRANCH   8  16
TORSDOF 3
ENDMDL
MODEL 2
REMARK VINA RESULT:      -7.6      1.462      5.304
REMARK  3 active torsions:
REMARK  status: ('A' for Active; 'I' for Inactive)
REMARK    1  A    between atoms: O_4  and  C_10 
REMARK    2  A    between atoms: O_7  and  C_14 
REMARK    3  A    between atoms: C_12  and  C_15 
ROOT
HETATM    1  C   UNL     1      24.077   7.098  15.635  1.00  0.00     0.160 C 
HETATM    2  C   UNL     1      23.477   6.981  17.984  1.00  0.00     0.030 C 
HETATM    3  C   UNL     1      22.655   8.767  16.539  1.00  0.00     0.061 C 
HETATM    4  C   UNL     1      22.220  10.210  16.431  1.00  0.00     0.100 C 
HETATM    5  C   UNL     1      21.177   9.944  18.696  1.00  0.00     0.151 C 
HETATM    6  C   UNL     1      21.561   8.454  18.750  1.00  0.00     0.075 C 
HETATM    7  O   UNL     1      23.202   8.144  15.457  1.00  0.00    -0.325 OA
HETATM    8  C   UNL     1      20.934  10.392  17.255  1.00  0.00     0.153 C 
HETATM    9  C   UNL     1      24.237   6.529  16.885  1.00  0.00     0.063 C 
HETATM   10  C   UNL     1      22.770   8.185  17.863  1.00  0.00    -0.025 C 
ENDROOT
BRANCH   9  11
HETATM   11  C   UNL     1      24.906   5.160  16.935  1.00  0.00     0.211 C 
HETATM   12  O   UNL     1      26.096   5.046  16.594  1.00  0.00    -0.644 OA
HETATM   13  O   UNL     1      24.233   4.145  17.291  1.00  0.00    -0.644 OA
ENDBRANCH   9  11
BRANCH   5  14
HETATM   14  O   UNL     1      20.008  10.124  19.486  1.00  0.00    -0.393 OA
ATOM     15  HO  UNL     1      20.253  10.025  20.398  1.00  0.00     0.210 HD
ENDBRANCH   5  14
BRANCH   8  16
HETATM   16  O   UNL     1      20.524  11.748  17.200  1.00  0.00    -0.393 OA
ATOM     17  HO  UNL     1      21.021  12.256  17.831  1.00  0.00     0.210 HD
ENDBRANCH   8  16
TORSDOF 3
ENDMDL
MODEL 3
REMARK VINA RESULT:      -7.6      1.169      2.375
REMARK  3 active torsions:
REMARK  status: ('A' for Active; 'I' for Inactive)
REMARK    1  A    between atoms: O_4  and  C_10 
REMARK    2  A    between atoms: O_7  and  C_14 
REMARK    3  A    between atoms: C_12  and  C_15 
ROOT
HETATM    1  C   UNL     1      21.230   8.932  19.200  1.00  0.00     0.160 C 
HETATM    2  C   UNL     1      21.576  10.143  17.125  1.00  0.00     0.030 C 
HETATM    3  C   UNL     1      22.725   8.041  17.589  1.00  0.00     0.061 C 
HETATM    4  C   UNL     1      23.967   7.205  17.386  1.00  0.00     0.100 C 
HETATM    5  C   UNL     1      24.056   8.114  15.050  1.00  0.00     0.151 C 
HETATM    6  C   UNL     1      22.745   8.895  15.253  1.00  0.00     0.075 C 
HETATM    7  O   UNL     1      21.985   7.886  18.723  1.00  0.00    -0.325 OA
HETATM    8  C   UNL     1      24.067   6.840  15.895  1.00  0.00     0.153 C 
HETATM    9  C   UNL     1      21.038  10.062  18.427  1.00  0.00     0.063 C 
HETATM   10  C   UNL     1      22.530   9.195  16.731  1.00  0.00    -0.025 C 
ENDROOT
BRANCH   9  11
HETATM   11  C   UNL     1      19.902  10.991  18.839  1.00  0.00     0.211 C 
HETATM   12  O   UNL     1      19.527  11.014  20.024  1.00  0.00    -0.644 OA
HETATM   13  O   UNL     1      19.326  11.707  17.962  1.00  0.00    -0.644 OA
ENDBRANCH   9  11
BRANCH   5  14
HETATM   14  O   UNL     1      24.172   7.803  13.667  1.00  0.00    -0.393 OA
ATOM     15  HO  UNL     1      23.480   7.192  13.446  1.00  0.00     0.210 HD
ENDBRANCH   5  14
BRANCH   8  16
HETATM   16  O   UNL     1      25.246   6.084  15.671  1.00  0.00    -0.393 OA
ATOM     17  HO  UNL     1      25.493   6.145  14.756  1.00  0.00     0.210 HD
ENDBRANCH   8  16
TORSDOF 3
ENDMDL
MODEL 4
REMARK VINA RESULT:      -7.2      1.920      3.101
REMARK  3 active torsions:
REMARK  status: ('A' for Active; 'I' for Inactive)
REMARK    1  A    between atoms: O_4  and  C_10 
REMARK    2  A    between atoms: O_7  and  C_14 
REMARK    3  A    between atoms: C_12  and  C_15 
ROOT
HETATM    1  C   UNL     1      22.632   6.933  20.380  1.00  0.00     0.160 C 
HETATM    2  C   UNL     1      21.796   9.034  19.496  1.00  0.00     0.030 C 
HETATM    3  C   UNL     1      23.121   7.505  18.130  1.00  0.00     0.061 C 
HETATM    4  C   UNL     1      24.118   7.352  17.006  1.00  0.00     0.100 C 
HETATM    5  C   UNL     1      22.943   9.249  15.861  1.00  0.00     0.151 C 
HETATM    6  C   UNL     1      21.889   9.334  16.980  1.00  0.00     0.075 C 
HETATM    7  O   UNL     1      23.082   6.578  19.129  1.00  0.00    -0.325 OA
HETATM    8  C   UNL     1      23.452   7.816  15.700  1.00  0.00     0.153 C 
HETATM    9  C   UNL     1      22.013   8.154  20.577  1.00  0.00     0.063 C 
HETATM   10  C   UNL     1      22.455   8.785  18.284  1.00  0.00    -0.025 C 
ENDROOT
BRANCH   9  11
HETATM   11  C   UNL     1      21.210   8.316  21.862  1.00  0.00     0.211 C 
HETATM   12  O   UNL     1      21.207   7.401  22.704  1.00  0.00    -0.644 OA
HETATM   13  O   UNL     1      20.524   9.369  22.045  1.00  0.00    -0.644 OA
ENDBRANCH   9  11
BRANCH   5  14
HETATM   14  O   UNL     1      22.343   9.710  14.657  1.00  0.00    -0.393 OA
ATOM     15  HO  UNL     1      22.724  10.553  14.445  1.00  0.00     0.210 HD
ENDBRANCH   5  14
BRANCH   8  16
HETATM   16  O   UNL     1      24.381   7.717  14.633  1.00  0.00    -0.393 OA
ATOM     17  HO  UNL     1      23.976   7.266  13.901  1.00  0.00     0.210 HD
ENDBRANCH   8  16
TORSDOF 3
ENDMDL
MODEL 5
REMARK VINA RESULT:      -7.1      1.775      5.565
REMARK  3 active torsions:
REMARK  status: ('A' for Active; 'I' for Inactive)
REMARK    1  A    between atoms: O_4  and  C_10 
REMARK    2  A    between atoms: O_7  and  C_14 
REMARK    3  A    between atoms: C_12  and  C_15 
ROOT
HETATM    1  C   UNL     1      21.083  10.196  16.938  1.00  0.00     0.160 C 
HETATM    2  C   UNL     1      22.687   8.795  18.102  1.00  0.00     0.030 C 
HETATM    3  C   UNL     1      20.700   9.668  19.219  1.00  0.00     0.061 C 
HETATM    4  C   UNL     1      20.081  10.148  20.510  1.00  0.00     0.100 C 
HETATM    5  C   UNL     1      21.407   8.364  21.673  1.00  0.00     0.151 C 
HETATM    6  C   UNL     1      21.963   7.840  20.336  1.00  0.00     0.075 C 
HETATM    7  O   UNL     1      20.247  10.157  18.030  1.00  0.00    -0.325 OA
HETATM    8  C   UNL     1      20.012   8.960  21.486  1.00  0.00     0.153 C 
HETATM    9  C   UNL     1      22.301   9.543  16.970  1.00  0.00     0.063 C 
HETATM   10  C   UNL     1      21.957   8.947  19.289  1.00  0.00    -0.025 C 
ENDROOT
BRANCH   9  11
HETATM   11  C   UNL     1      22.986   9.302  15.630  1.00  0.00     0.211 C 
HETATM   12  O   UNL     1      22.331   9.409  14.578  1.00  0.00    -0.644 OA
HETATM   13  O   UNL     1      24.208   8.960  15.601  1.00  0.00    -0.644 OA
ENDBRANCH   9  11
BRANCH   5  14
HETATM   14  O   UNL     1      21.373   7.278  22.590  1.00  0.00    -0.393 OA
ATOM     15  HO  UNL     1      20.463   7.056  22.747  1.00  0.00     0.210 HD
ENDBRANCH   5  14
BRANCH   8  16
HETATM   16  O   UNL     1      19.467   9.394  22.721  1.00  0.00    -0.393 OA
ATOM     17  HO  UNL     1      18.606   9.011  22.839  1.00  0.00     0.210 HD
ENDBRANCH   8  16
TORSDOF 3
ENDMDL
MODEL 6
REMARK VINA RESULT:      -6.9      2.687      5.526
REMARK  3 active torsions:
REMARK  status: ('A' for Active; 'I' for Inactive)
REMARK    1  A    between atoms: O_4  and  C_10 
REMARK    2  A    between atoms: O_7  and  C_14 
REMARK    3  A    between atoms: C_12  and  C_15 
ROOT
HETATM    1  C   UNL     1      23.170   7.998  17.388  1.00  0.00     0.160 C 
HETATM    2  C   UNL     1      21.527   9.088  18.803  1.00  0.00     0.030 C 
HETATM    3  C   UNL     1      22.765   7.125  19.556  1.00  0.00     0.061 C 
HETATM    4  C   UNL     1      22.762   5.874  20.402  1.00  0.00     0.100 C 
HETATM    5  C   UNL     1      21.442   7.165  22.100  1.00  0.00     0.151 C 
HETATM    6  C   UNL     1      21.526   8.451  21.257  1.00  0.00     0.075 C 
HETATM    7  O   UNL     1      23.532   7.177  18.431  1.00  0.00    -0.325 OA
HETATM    8  C   UNL     1      22.675   6.289  21.881  1.00  0.00     0.153 C 
HETATM    9  C   UNL     1      22.165   8.933  17.555  1.00  0.00     0.063 C 
HETATM   10  C   UNL     1      21.723   8.108  19.786  1.00  0.00    -0.025 C 
ENDROOT
BRANCH   9  11
HETATM   11  C   UNL     1      22.083  10.045  16.516  1.00  0.00     0.211 C 
HETATM   12  O   UNL     1      21.611  11.150  16.835  1.00  0.00    -0.644 OA
HETATM   13  O   UNL     1      22.465   9.823  15.325  1.00  0.00    -0.644 OA
ENDBRANCH   9  11
BRANCH   5  14
HETATM   14  O   UNL     1      21.326   7.543  23.466  1.00  0.00    -0.393 OA
ATOM     15  HO  UNL     1      20.460   7.295  23.766  1.00  0.00     0.210 HD
ENDBRANCH   5  14
BRANCH   8  16
HETATM   16  O   UNL     1      22.634   5.129  22.697  1.00  0.00    -0.393 OA
ATOM     17  HO  UNL     1      22.988   4.391  22.216  1.00  0.00     0.210 HD
ENDBRANCH   8  16
TORSDOF 3
ENDMDL
MODEL 7
REMARK VINA RESULT:      -6.9      2.859      4.741
REMARK  3 active torsions:
REMARK  status: ('A' for Active; 'I' for Inactive)
REMARK    1  A    between atoms: O_4  and  C_10 
REMARK    2  A    between atoms: O_7  and  C_14 
REMARK    3  A    between atoms: C_12  and  C_15 
ROOT
HETATM    1  C   UNL     1      22.393   8.317  18.579  1.00  0.00     0.160 C 
HETATM    2  C   UNL     1      23.814   7.425  16.825  1.00  0.00     0.030 C 
HETATM    3  C   UNL     1      23.526   6.267  18.953  1.00  0.00     0.061 C 
HETATM    4  C   UNL     1      24.143   5.371  20.001  1.00  0.00     0.100 C 
HETATM    5  C   UNL     1      25.258   4.138  18.123  1.00  0.00     0.151 C 
HETATM    6  C   UNL     1      24.555   5.013  17.068  1.00  0.00     0.075 C 
HETATM    7  O   UNL     1      22.569   7.168  19.315  1.00  0.00    -0.325 OA
HETATM    8  C   UNL     1      24.391   3.989  19.372  1.00  0.00     0.153 C 
HETATM    9  C   UNL     1      23.020   8.464  17.356  1.00  0.00     0.063 C 
HETATM   10  C   UNL     1      24.184   6.365  17.664  1.00  0.00    -0.025 C 
ENDROOT
BRANCH   9  11
HETATM   11  C   UNL     1      22.488   9.558  16.438  1.00  0.00     0.211 C 
HETATM   12  O   UNL     1      22.646   9.459  15.209  1.00  0.00    -0.644 OA
HETATM   13  O   UNL     1      21.920  10.577  16.940  1.00  0.00    -0.644 OA
ENDBRANCH   9  11
BRANCH   5  14
HETATM   14  O   UNL     1      25.521   2.870  17.536  1.00  0.00    -0.393 OA
ATOM     15  HO  UNL     1      26.006   3.014  16.732  1.00  0.00     0.210 HD
ENDBRANCH   5  14
BRANCH   8  16
HETATM   16  O   UNL     1      25.004   3.137  20.326  1.00  0.00    -0.393 OA
ATOM     17  HO  UNL     1      24.343   2.789  20.912  1.00  0.00     0.210 HD
ENDBRANCH   8  16
TORSDOF 3
ENDMDL
MODEL 8
REMARK VINA RESULT:      -6.7      2.710      5.216
REMARK  3 active torsions:
REMARK  status: ('A' for Active; 'I' for Inactive)
REMARK    1  A    between atoms: O_4  and  C_10 
REMARK    2  A    between atoms: O_7  and  C_14 
REMARK    3  A    between atoms: C_12  and  C_15 
ROOT
HETATM    1  C   UNL     1      21.915   9.082  17.328  1.00  0.00     0.160 C 
HETATM    2  C   UNL     1      23.664   7.408  17.165  1.00  0.00     0.030 C 
HETATM    3  C   UNL     1      22.359   7.703  19.206  1.00  0.00     0.061 C 
HETATM    4  C   UNL     1      22.331   7.624  20.714  1.00  0.00     0.100 C 
HETATM    5  C   UNL     1      23.779   5.585  20.518  1.00  0.00     0.151 C 
HETATM    6  C   UNL     1      23.727   5.638  18.980  1.00  0.00     0.075 C 
HETATM    7  O   UNL     1      21.552   8.593  18.561  1.00  0.00    -0.325 OA
HETATM    8  C   UNL     1      22.496   6.151  21.126  1.00  0.00     0.153 C 
HETATM    9  C   UNL     1      22.971   8.517  16.637  1.00  0.00     0.063 C 
HETATM   10  C   UNL     1      23.457   7.061  18.508  1.00  0.00    -0.025 C 
ENDROOT
BRANCH   9  11
HETATM   11  C   UNL     1      23.069   8.837  15.150  1.00  0.00     0.211 C 
HETATM   12  O   UNL     1      22.332   9.710  14.661  1.00  0.00    -0.644 OA
HETATM   13  O   UNL     1      23.877   8.185  14.419  1.00  0.00    -0.644 OA
ENDBRANCH   9  11
BRANCH   5  14
HETATM   14  O   UNL     1      23.966   4.230  20.904  1.00  0.00    -0.393 OA
ATOM     15  HO  UNL     1      24.122   3.720  20.118  1.00  0.00     0.210 HD
ENDBRANCH   5  14
BRANCH   8  16
HETATM   16  O   UNL     1      22.510   6.054  22.541  1.00  0.00    -0.393 OA
ATOM     17  HO  UNL     1      23.350   5.715  22.827  1.00  0.00     0.210 HD
ENDBRANCH   8  16
TORSDOF 3
ENDMDL
MODEL 9
REMARK VINA RESULT:      -6.6      1.493      2.043
REMARK  3 active torsions:
REMARK  status: ('A' for Active; 'I' for Inactive)
REMARK    1  A    between atoms: O_4  and  C_10 
REMARK    2  A    between atoms: O_7  and  C_14 
REMARK    3  A    between atoms: C_12  and  C_15 
ROOT
HETATM    1  C   UNL     1      21.562  10.426  16.923  1.00  0.00     0.160 C 
HETATM    2  C   UNL     1      21.240   8.753  18.651  1.00  0.00     0.030 C 
HETATM    3  C   UNL     1      22.922   8.483  16.904  1.00  0.00     0.061 C 
HETATM    4  C   UNL     1      23.696   7.526  16.028  1.00  0.00     0.100 C 
HETATM    5  C   UNL     1      23.769   5.969  17.994  1.00  0.00     0.151 C 
HETATM    6  C   UNL     1      23.049   6.992  18.891  1.00  0.00     0.075 C 
HETATM    7  O   UNL     1      22.665   9.746  16.461  1.00  0.00    -0.325 OA
HETATM    8  C   UNL     1      24.608   6.674  16.929  1.00  0.00     0.153 C 
HETATM    9  C   UNL     1      20.838   9.933  17.992  1.00  0.00     0.063 C 
HETATM   10  C   UNL     1      22.209   7.940  18.045  1.00  0.00    -0.025 C 
ENDROOT
BRANCH   9  11
HETATM   11  C   UNL     1      19.890  10.905  18.685  1.00  0.00     0.211 C 
HETATM   12  O   UNL     1      19.365  11.822  18.031  1.00  0.00    -0.644 OA
HETATM   13  O   UNL     1      19.673  10.791  19.931  1.00  0.00    -0.644 OA
ENDBRANCH   9  11
BRANCH   5  14
HETATM   14  O   UNL     1      24.587   5.156  18.825  1.00  0.00    -0.393 OA
ATOM     15  HO  UNL     1      25.141   5.729  19.342  1.00  0.00     0.210 HD
ENDBRANCH   5  14
BRANCH   8  16
HETATM   16  O   UNL     1      25.321   5.740  16.133  1.00  0.00    -0.393 OA
ATOM     17  HO  UNL     1      25.965   6.199  15.608  1.00  0.00     0.210 HD
ENDBRANCH   8  16
TORSDOF 3
ENDMDL
