REMARK  1 active torsions:
REMARK  status: ('A' for Active; 'I' for Inactive)
REMARK    1  A    between atoms: C_8  and  O_15 
ROOT
HETATM    1  C   UNL     1      29.042  -1.295   2.780  1.00  0.00     0.090 C 
HETATM    2  C   UNL     1      29.140   1.587   3.985  1.00  0.00     0.089 C 
HETATM    3  N   UNL     1      30.129  -0.451   3.025  1.00  0.00    -0.337 N 
ATOM      4  HN  UNL     1      30.935  -0.530   2.405  1.00  0.00     0.168 HD
HETATM    5  C   UNL     1      28.340   3.636   3.903  1.00  0.00     0.137 C 
HETATM    6  C   UNL     1      23.820   6.223   3.602  1.00  0.00     0.001 C 
HETATM    7  C   UNL     1      29.299   2.849   4.822  1.00  0.00     0.047 C 
HETATM    8  C   UNL     1      25.761   3.098   3.681  1.00  0.00     0.161 C 
HETATM    9  O   UNL     1      27.905   4.794   4.619  1.00  0.00    -0.345 OA
HETATM   10  C   UNL     1      24.578   7.274   3.119  1.00  0.00     0.000 C 
HETATM   11  C   UNL     1      27.216   2.653   3.585  1.00  0.00     0.057 C 
HETATM   12  C   UNL     1      25.606   4.565   4.009  1.00  0.00     0.004 C 
HETATM   13  O   UNL     1      31.128   0.543   4.825  1.00  0.00    -0.273 OA
HETATM   14  C   UNL     1      24.327   5.083   4.220  1.00  0.00     0.012 C 
HETATM   15  C   UNL     1      30.197   0.494   4.055  1.00  0.00     0.226 C 
HETATM   16  C   UNL     1      27.677  -0.963   2.937  1.00  0.00     0.013 C 
HETATM   17  C   UNL     1      26.758   5.391   4.095  1.00  0.00     0.078 C 
HETATM   18  C   UNL     1      26.732   6.783   4.183  1.00  0.00     0.037 C 
HETATM   19  C   UNL     1      27.069   0.166   3.388  1.00  0.00    -0.019 C 
HETATM   20  C   UNL     1      25.805   7.634   3.608  1.00  0.00     0.003 C 
HETATM   21  C   UNL     1      27.663   1.304   4.167  1.00  0.00     0.030 C 
ENDROOT
BRANCH   8  22
HETATM   22  O   UNL     1      25.034   2.336   4.647  1.00  0.00    -0.390 OA
ATOM     23  HO  UNL     1      24.127   2.613   4.707  1.00  0.00     0.210 HD
ENDBRANCH   8  22
TORSDOF 1
