MODEL 1
REMARK VINA RESULT:      -9.4      0.000      0.000
REMARK  4 active torsions:
REMARK  status: ('A' for Active; 'I' for Inactive)
REMARK    1  A    between atoms: O_1  and  C_8 
REMARK    2  A    between atoms: C_3  and  C_9 
REMARK    3  A    between atoms: C_9  and  C_13 
REMARK    4  A    between atoms: C_9  and  O_16 
ROOT
HETATM    1  C   UNL     1      24.252   6.337  17.505  1.00  0.00    -0.022 C 
HETATM    2  C   UNL     1      20.815   9.579  18.209  1.00  0.00     0.001 C 
HETATM    3  C   UNL     1      23.513   7.030  18.449  1.00  0.00    -0.037 C 
HETATM    4  C   UNL     1      24.503   4.938  17.982  1.00  0.00     0.162 C 
HETATM    5  C   UNL     1      21.508   8.449  18.623  1.00  0.00     0.013 C 
HETATM    6  C   UNL     1      22.718   8.099  18.017  1.00  0.00    -0.019 C 
HETATM    7  C   UNL     1      24.202   4.972  19.478  1.00  0.00     0.102 C 
HETATM    8  C   UNL     1      21.228  10.276  17.080  1.00  0.00     0.001 C 
HETATM    9  C   UNL     1      22.438   9.948  16.475  1.00  0.00     0.012 C 
HETATM   10  C   UNL     1      23.425   6.274  19.731  1.00  0.00     0.053 C 
HETATM   11  C   UNL     1      23.091   8.773  16.832  1.00  0.00    -0.025 C 
HETATM   12  C   UNL     1      24.646   6.988  16.341  1.00  0.00     0.011 C 
HETATM   13  C   UNL     1      24.152   8.266  16.073  1.00  0.00     0.013 C 
ENDROOT
BRANCH   7  14
HETATM   14  C   UNL     1      23.433   3.788  20.068  1.00  0.00     0.298 C 
HETATM   15  F   UNL     1      22.416   3.440  19.255  1.00  0.00    -0.199 F 
BRANCH  14  16
HETATM   16  C   UNL     1      24.363   2.616  20.287  1.00  0.00     0.244 C 
HETATM   17  O   UNL     1      24.791   2.415  21.428  1.00  0.00    -0.644 OA
HETATM   18  O   UNL     1      24.615   1.865  19.316  1.00  0.00    -0.644 OA
ENDBRANCH  14  16
BRANCH  14  19
HETATM   19  O   UNL     1      22.845   4.133  21.301  1.00  0.00    -0.353 OA
ATOM     20  HO  UNL     1      21.926   4.324  21.156  1.00  0.00     0.214 HD
ENDBRANCH  14  19
ENDBRANCH   7  14
BRANCH   4  21
HETATM   21  O   UNL     1      23.704   4.027  17.284  1.00  0.00    -0.390 OA
ATOM     22  HO  UNL     1      22.998   4.477  16.833  1.00  0.00     0.210 HD
ENDBRANCH   4  21
TORSDOF 4
ENDMDL
MODEL 2
REMARK VINA RESULT:      -9.3      0.882      1.085
REMARK  4 active torsions:
REMARK  status: ('A' for Active; 'I' for Inactive)
REMARK    1  A    between atoms: O_1  and  C_8 
REMARK    2  A    between atoms: C_3  and  C_9 
REMARK    3  A    between atoms: C_9  and  C_13 
REMARK    4  A    between atoms: C_9  and  O_16 
ROOT
HETATM    1  C   UNL     1      24.217   5.744  17.857  1.00  0.00    -0.022 C 
HETATM    2  C   UNL     1      21.410   9.608  17.752  1.00  0.00     0.001 C 
HETATM    3  C   UNL     1      23.607   6.732  18.612  1.00  0.00    -0.037 C 
HETATM    4  C   UNL     1      24.210   4.449  18.614  1.00  0.00     0.162 C 
HETATM    5  C   UNL     1      21.886   8.483  18.412  1.00  0.00     0.013 C 
HETATM    6  C   UNL     1      23.019   7.812  17.942  1.00  0.00    -0.019 C 
HETATM    7  C   UNL     1      23.908   4.839  20.059  1.00  0.00     0.102 C 
HETATM    8  C   UNL     1      21.949   9.978  16.527  1.00  0.00     0.001 C 
HETATM    9  C   UNL     1      23.086   9.329  16.052  1.00  0.00     0.012 C 
HETATM   10  C   UNL     1      23.375   6.280  20.013  1.00  0.00     0.053 C 
HETATM   11  C   UNL     1      23.516   8.156  16.664  1.00  0.00    -0.025 C 
HETATM   12  C   UNL     1      24.729   6.066  16.606  1.00  0.00     0.011 C 
HETATM   13  C   UNL     1      24.474   7.329  16.068  1.00  0.00     0.013 C 
ENDROOT
BRANCH   7  14
HETATM   14  C   UNL     1      22.936   3.952  20.837  1.00  0.00     0.298 C 
HETATM   15  F   UNL     1      21.729   3.940  20.236  1.00  0.00    -0.199 F 
BRANCH  14  16
HETATM   16  C   UNL     1      23.484   2.547  20.954  1.00  0.00     0.244 C 
HETATM   17  O   UNL     1      22.884   1.635  20.375  1.00  0.00    -0.644 OA
HETATM   18  O   UNL     1      24.554   2.375  21.583  1.00  0.00    -0.644 OA
ENDBRANCH  14  16
BRANCH  14  19
HETATM   19  O   UNL     1      22.718   4.458  22.134  1.00  0.00    -0.353 OA
ATOM     20  HO  UNL     1      23.560   4.625  22.541  1.00  0.00     0.214 HD
ENDBRANCH  14  19
ENDBRANCH   7  14
BRANCH   4  21
HETATM   21  O   UNL     1      23.266   3.568  18.076  1.00  0.00    -0.390 OA
ATOM     22  HO  UNL     1      23.537   2.667  18.204  1.00  0.00     0.210 HD
ENDBRANCH   4  21
TORSDOF 4
ENDMDL
MODEL 3
REMARK VINA RESULT:      -8.9      1.310      1.798
REMARK  4 active torsions:
REMARK  status: ('A' for Active; 'I' for Inactive)
REMARK    1  A    between atoms: O_1  and  C_8 
REMARK    2  A    between atoms: C_3  and  C_9 
REMARK    3  A    between atoms: C_9  and  C_13 
REMARK    4  A    between atoms: C_9  and  O_16 
ROOT
HETATM    1  C   UNL     1      24.213   4.986  18.239  1.00  0.00    -0.022 C 
HETATM    2  C   UNL     1      22.282   9.284  17.453  1.00  0.00     0.001 C 
HETATM    3  C   UNL     1      23.828   6.186  18.813  1.00  0.00    -0.037 C 
HETATM    4  C   UNL     1      23.937   3.857  19.187  1.00  0.00     0.162 C 
HETATM    5  C   UNL     1      22.514   8.203  18.294  1.00  0.00     0.013 C 
HETATM    6  C   UNL     1      23.478   7.245  17.966  1.00  0.00    -0.019 C 
HETATM    7  C   UNL     1      23.730   4.524  20.545  1.00  0.00     0.102 C 
HETATM    8  C   UNL     1      22.882   9.335  16.201  1.00  0.00     0.001 C 
HETATM    9  C   UNL     1      23.854   8.396  15.866  1.00  0.00     0.012 C 
HETATM   10  C   UNL     1      23.513   6.019  20.260  1.00  0.00     0.053 C 
HETATM   11  C   UNL     1      24.030   7.271  16.665  1.00  0.00    -0.025 C 
HETATM   12  C   UNL     1      24.776   4.991  16.968  1.00  0.00     0.011 C 
HETATM   13  C   UNL     1      24.790   6.179  16.233  1.00  0.00     0.013 C 
ENDROOT
BRANCH   7  14
HETATM   14  C   UNL     1      22.597   3.994  21.423  1.00  0.00     0.298 C 
HETATM   15  F   UNL     1      21.412   4.140  20.797  1.00  0.00    -0.199 F 
BRANCH  14  16
HETATM   16  C   UNL     1      22.838   2.542  21.772  1.00  0.00     0.244 C 
HETATM   17  O   UNL     1      23.722   2.277  22.593  1.00  0.00    -0.644 OA
HETATM   18  O   UNL     1      22.095   1.674  21.258  1.00  0.00    -0.644 OA
ENDBRANCH  14  16
BRANCH  14  19
HETATM   19  O   UNL     1      22.497   4.733  22.619  1.00  0.00    -0.353 OA
ATOM     20  HO  UNL     1      23.302   5.221  22.743  1.00  0.00     0.214 HD
ENDBRANCH  14  19
ENDBRANCH   7  14
BRANCH   4  21
HETATM   21  O   UNL     1      22.826   3.119  18.766  1.00  0.00    -0.390 OA
ATOM     22  HO  UNL     1      22.569   2.490  19.431  1.00  0.00     0.210 HD
ENDBRANCH   4  21
TORSDOF 4
ENDMDL
MODEL 4
REMARK VINA RESULT:      -8.5      2.364      3.168
REMARK  4 active torsions:
REMARK  status: ('A' for Active; 'I' for Inactive)
REMARK    1  A    between atoms: O_1  and  C_8 
REMARK    2  A    between atoms: C_3  and  C_9 
REMARK    3  A    between atoms: C_9  and  C_13 
REMARK    4  A    between atoms: C_9  and  O_16 
ROOT
HETATM    1  C   UNL     1      22.910   6.626  19.814  1.00  0.00    -0.022 C 
HETATM    2  C   UNL     1      20.454  10.446  18.332  1.00  0.00     0.001 C 
HETATM    3  C   UNL     1      22.315   7.817  20.193  1.00  0.00    -0.037 C 
HETATM    4  C   UNL     1      22.725   5.599  20.891  1.00  0.00     0.162 C 
HETATM    5  C   UNL     1      20.772   9.529  19.326  1.00  0.00     0.013 C 
HETATM    6  C   UNL     1      21.884   8.694  19.190  1.00  0.00    -0.019 C 
HETATM    7  C   UNL     1      22.320   6.395  22.129  1.00  0.00     0.102 C 
HETATM    8  C   UNL     1      21.136  10.427  17.122  1.00  0.00     0.001 C 
HETATM    9  C   UNL     1      22.255   9.611  16.976  1.00  0.00     0.012 C 
HETATM   10  C   UNL     1      21.915   7.791  21.629  1.00  0.00     0.053 C 
HETATM   11  C   UNL     1      22.527   8.637  17.932  1.00  0.00    -0.025 C 
HETATM   12  C   UNL     1      23.564   6.554  18.589  1.00  0.00     0.011 C 
HETATM   13  C   UNL     1      23.466   7.627  17.699  1.00  0.00     0.013 C 
ENDROOT
BRANCH   7  14
HETATM   14  C   UNL     1      21.209   5.816  23.005  1.00  0.00     0.298 C 
HETATM   15  F   UNL     1      20.003   6.225  22.562  1.00  0.00    -0.199 F 
BRANCH  14  16
HETATM   16  C   UNL     1      21.284   4.305  23.019  1.00  0.00     0.244 C 
HETATM   17  O   UNL     1      22.336   3.776  23.394  1.00  0.00    -0.644 OA
HETATM   18  O   UNL     1      20.262   3.654  22.706  1.00  0.00    -0.644 OA
ENDBRANCH  14  16
BRANCH  14  19
HETATM   19  O   UNL     1      21.315   6.284  24.330  1.00  0.00    -0.353 OA
ATOM     20  HO  UNL     1      22.197   6.120  24.641  1.00  0.00     0.214 HD
ENDBRANCH  14  19
ENDBRANCH   7  14
BRANCH   4  21
HETATM   21  O   UNL     1      21.766   4.653  20.511  1.00  0.00    -0.390 OA
ATOM     22  HO  UNL     1      22.171   3.936  20.037  1.00  0.00     0.210 HD
ENDBRANCH   4  21
TORSDOF 4
ENDMDL
MODEL 5
REMARK VINA RESULT:      -8.2      4.803      6.241
REMARK  4 active torsions:
REMARK  status: ('A' for Active; 'I' for Inactive)
REMARK    1  A    between atoms: O_1  and  C_8 
REMARK    2  A    between atoms: C_3  and  C_9 
REMARK    3  A    between atoms: C_9  and  C_13 
REMARK    4  A    between atoms: C_9  and  O_16 
ROOT
HETATM    1  C   UNL     1      21.657   7.406  22.012  1.00  0.00    -0.022 C 
HETATM    2  C   UNL     1      20.109  10.405  18.632  1.00  0.00     0.001 C 
HETATM    3  C   UNL     1      21.311   8.714  21.719  1.00  0.00    -0.037 C 
HETATM    4  C   UNL     1      21.223   7.065  23.407  1.00  0.00     0.162 C 
HETATM    5  C   UNL     1      20.192  10.036  19.968  1.00  0.00     0.013 C 
HETATM    6  C   UNL     1      21.109   9.064  20.378  1.00  0.00    -0.019 C 
HETATM    7  C   UNL     1      20.951   8.411  24.075  1.00  0.00     0.102 C 
HETATM    8  C   UNL     1      20.813   9.696  17.667  1.00  0.00     0.001 C 
HETATM    9  C   UNL     1      21.740   8.735  18.061  1.00  0.00     0.012 C 
HETATM   10  C   UNL     1      20.865   9.445  22.940  1.00  0.00     0.053 C 
HETATM   11  C   UNL     1      21.769   8.306  19.384  1.00  0.00    -0.025 C 
HETATM   12  C   UNL     1      22.323   6.649  21.055  1.00  0.00     0.011 C 
HETATM   13  C   UNL     1      22.482   7.166  19.767  1.00  0.00     0.013 C 
ENDROOT
BRANCH   7  14
HETATM   14  C   UNL     1      19.713   8.517  24.966  1.00  0.00     0.298 C 
HETATM   15  F   UNL     1      18.929   7.433  24.807  1.00  0.00    -0.199 F 
BRANCH  14  16
HETATM   16  C   UNL     1      20.121   8.670  26.415  1.00  0.00     0.244 C 
HETATM   17  O   UNL     1      20.585   7.686  26.998  1.00  0.00    -0.644 OA
HETATM   18  O   UNL     1      20.023   9.801  26.945  1.00  0.00    -0.644 OA
ENDBRANCH  14  16
BRANCH  14  19
HETATM   19  O   UNL     1      18.922   9.625  24.602  1.00  0.00    -0.353 OA
ATOM     20  HO  UNL     1      18.507   9.972  25.382  1.00  0.00     0.214 HD
ENDBRANCH  14  19
ENDBRANCH   7  14
BRANCH   4  21
HETATM   21  O   UNL     1      20.101   6.230  23.385  1.00  0.00    -0.390 OA
ATOM     22  HO  UNL     1      19.401   6.621  22.874  1.00  0.00     0.210 HD
ENDBRANCH   4  21
TORSDOF 4
ENDMDL
MODEL 6
REMARK VINA RESULT:      -8.1      2.098      3.439
REMARK  4 active torsions:
REMARK  status: ('A' for Active; 'I' for Inactive)
REMARK    1  A    between atoms: O_1  and  C_8 
REMARK    2  A    between atoms: C_3  and  C_9 
REMARK    3  A    between atoms: C_9  and  C_13 
REMARK    4  A    between atoms: C_9  and  O_16 
ROOT
HETATM    1  C   UNL     1      23.973   5.317  19.112  1.00  0.00    -0.022 C 
HETATM    2  C   UNL     1      24.024   8.592  15.634  1.00  0.00     0.001 C 
HETATM    3  C   UNL     1      23.967   5.528  17.743  1.00  0.00    -0.037 C 
HETATM    4  C   UNL     1      24.790   4.101  19.435  1.00  0.00     0.162 C 
HETATM    5  C   UNL     1      24.341   7.321  16.098  1.00  0.00     0.013 C 
HETATM    6  C   UNL     1      23.765   6.832  17.273  1.00  0.00    -0.019 C 
HETATM    7  C   UNL     1      24.937   3.362  18.108  1.00  0.00     0.102 C 
HETATM    8  C   UNL     1      23.265   9.451  16.419  1.00  0.00     0.001 C 
HETATM    9  C   UNL     1      22.673   8.973  17.585  1.00  0.00     0.012 C 
HETATM   10  C   UNL     1      24.538   4.362  17.011  1.00  0.00     0.053 C 
HETATM   11  C   UNL     1      23.052   7.735  18.094  1.00  0.00    -0.025 C 
HETATM   12  C   UNL     1      23.262   6.182  19.935  1.00  0.00     0.011 C 
HETATM   13  C   UNL     1      22.696   7.335  19.386  1.00  0.00     0.013 C 
ENDROOT
BRANCH   7  14
HETATM   14  C   UNL     1      26.307   2.761  17.787  1.00  0.00     0.298 C 
HETATM   15  F   UNL     1      27.205   3.118  18.725  1.00  0.00    -0.199 F 
BRANCH  14  16
HETATM   16  C   UNL     1      26.210   1.255  17.691  1.00  0.00     0.244 C 
HETATM   17  O   UNL     1      26.843   0.684  16.797  1.00  0.00    -0.644 OA
HETATM   18  O   UNL     1      25.538   0.644  18.554  1.00  0.00    -0.644 OA
ENDBRANCH  14  16
BRANCH  14  19
HETATM   19  O   UNL     1      26.802   3.258  16.565  1.00  0.00    -0.353 OA
ATOM     20  HO  UNL     1      26.184   3.893  16.223  1.00  0.00     0.214 HD
ENDBRANCH  14  19
ENDBRANCH   7  14
BRANCH   4  21
HETATM   21  O   UNL     1      26.018   4.467  19.997  1.00  0.00    -0.390 OA
ATOM     22  HO  UNL     1      25.927   5.256  20.518  1.00  0.00     0.210 HD
ENDBRANCH   4  21
TORSDOF 4
ENDMDL
MODEL 7
REMARK VINA RESULT:      -7.8      2.672      4.109
REMARK  4 active torsions:
REMARK  status: ('A' for Active; 'I' for Inactive)
REMARK    1  A    between atoms: O_1  and  C_8 
REMARK    2  A    between atoms: C_3  and  C_9 
REMARK    3  A    between atoms: C_9  and  C_13 
REMARK    4  A    between atoms: C_9  and  O_16 
ROOT
HETATM    1  C   UNL     1      21.260   8.919  19.480  1.00  0.00    -0.022 C 
HETATM    2  C   UNL     1      24.514   7.549  16.262  1.00  0.00     0.001 C 
HETATM    3  C   UNL     1      21.901   7.841  18.893  1.00  0.00    -0.037 C 
HETATM    4  C   UNL     1      21.026   8.641  20.935  1.00  0.00     0.162 C 
HETATM    5  C   UNL     1      23.834   7.334  17.454  1.00  0.00     0.013 C 
HETATM    6  C   UNL     1      22.686   8.072  17.757  1.00  0.00    -0.019 C 
HETATM    7  C   UNL     1      21.214   7.133  21.083  1.00  0.00     0.102 C 
HETATM    8  C   UNL     1      24.160   8.610  15.439  1.00  0.00     0.001 C 
HETATM    9  C   UNL     1      23.012   9.345  15.720  1.00  0.00     0.012 C 
HETATM   10  C   UNL     1      21.921   6.660  19.803  1.00  0.00     0.053 C 
HETATM   11  C   UNL     1      22.377   9.190  16.948  1.00  0.00    -0.025 C 
HETATM   12  C   UNL     1      20.931  10.020  18.698  1.00  0.00     0.011 C 
HETATM   13  C   UNL     1      21.396  10.086  17.383  1.00  0.00     0.013 C 
ENDROOT
BRANCH   7  14
HETATM   14  C   UNL     1      21.979   6.638  22.311  1.00  0.00     0.298 C 
HETATM   15  F   UNL     1      21.639   7.360  23.397  1.00  0.00    -0.199 F 
BRANCH  14  16
HETATM   16  C   UNL     1      21.705   5.169  22.543  1.00  0.00     0.244 C 
HETATM   17  O   UNL     1      22.629   4.367  22.373  1.00  0.00    -0.644 OA
HETATM   18  O   UNL     1      20.570   4.831  22.953  1.00  0.00    -0.644 OA
ENDBRANCH  14  16
BRANCH  14  19
HETATM   19  O   UNL     1      23.367   6.816  22.146  1.00  0.00    -0.353 OA
ATOM     20  HO  UNL     1      23.821   6.277  22.784  1.00  0.00     0.214 HD
ENDBRANCH  14  19
ENDBRANCH   7  14
BRANCH   4  21
HETATM   21  O   UNL     1      21.908   9.383  21.728  1.00  0.00    -0.390 OA
ATOM     22  HO  UNL     1      21.611  10.281  21.811  1.00  0.00     0.210 HD
ENDBRANCH   4  21
TORSDOF 4
ENDMDL
MODEL 8
REMARK VINA RESULT:      -7.8      1.968      3.570
REMARK  4 active torsions:
REMARK  status: ('A' for Active; 'I' for Inactive)
REMARK    1  A    between atoms: O_1  and  C_8 
REMARK    2  A    between atoms: C_3  and  C_9 
REMARK    3  A    between atoms: C_9  and  C_13 
REMARK    4  A    between atoms: C_9  and  O_16 
ROOT
HETATM    1  C   UNL     1      23.703   4.695  19.376  1.00  0.00    -0.022 C 
HETATM    2  C   UNL     1      24.552   7.997  16.030  1.00  0.00     0.001 C 
HETATM    3  C   UNL     1      23.805   4.943  18.017  1.00  0.00    -0.037 C 
HETATM    4  C   UNL     1      24.255   3.336  19.688  1.00  0.00     0.162 C 
HETATM    5  C   UNL     1      24.597   6.676  16.458  1.00  0.00     0.013 C 
HETATM    6  C   UNL     1      23.881   6.274  17.588  1.00  0.00    -0.019 C 
HETATM    7  C   UNL     1      24.324   2.620  18.341  1.00  0.00     0.102 C 
HETATM    8  C   UNL     1      23.934   8.963  16.813  1.00  0.00     0.001 C 
HETATM    9  C   UNL     1      23.205   8.576  17.934  1.00  0.00     0.012 C 
HETATM   10  C   UNL     1      24.177   3.710  17.267  1.00  0.00     0.053 C 
HETATM   11  C   UNL     1      23.314   7.274  18.411  1.00  0.00    -0.025 C 
HETATM   12  C   UNL     1      23.132   5.657  20.200  1.00  0.00     0.011 C 
HETATM   13  C   UNL     1      22.825   6.913  19.671  1.00  0.00     0.013 C 
ENDROOT
BRANCH   7  14
HETATM   14  C   UNL     1      25.566   1.775  18.056  1.00  0.00     0.298 C 
HETATM   15  F   UNL     1      25.308   0.877  17.085  1.00  0.00    -0.199 F 
BRANCH  14  16
HETATM   16  C   UNL     1      26.726   2.662  17.664  1.00  0.00     0.244 C 
HETATM   17  O   UNL     1      27.151   2.592  16.506  1.00  0.00    -0.644 OA
HETATM   18  O   UNL     1      27.171   3.472  18.511  1.00  0.00    -0.644 OA
ENDBRANCH  14  16
BRANCH  14  19
HETATM   19  O   UNL     1      25.937   1.025  19.190  1.00  0.00    -0.353 OA
ATOM     20  HO  UNL     1      25.370   0.265  19.250  1.00  0.00     0.214 HD
ENDBRANCH  14  19
ENDBRANCH   7  14
BRANCH   4  21
HETATM   21  O   UNL     1      25.501   3.440  20.315  1.00  0.00    -0.390 OA
ATOM     22  HO  UNL     1      25.618   4.307  20.686  1.00  0.00     0.210 HD
ENDBRANCH   4  21
TORSDOF 4
ENDMDL
MODEL 9
REMARK VINA RESULT:      -7.7      1.531      2.827
REMARK  4 active torsions:
REMARK  status: ('A' for Active; 'I' for Inactive)
REMARK    1  A    between atoms: O_1  and  C_8 
REMARK    2  A    between atoms: C_3  and  C_9 
REMARK    3  A    between atoms: C_9  and  C_13 
REMARK    4  A    between atoms: C_9  and  O_16 
ROOT
HETATM    1  C   UNL     1      22.760   6.538  19.936  1.00  0.00    -0.022 C 
HETATM    2  C   UNL     1      24.190   8.409  15.780  1.00  0.00     0.001 C 
HETATM    3  C   UNL     1      23.092   6.271  18.619  1.00  0.00    -0.037 C 
HETATM    4  C   UNL     1      23.239   5.424  20.818  1.00  0.00     0.162 C 
HETATM    5  C   UNL     1      24.150   7.346  16.672  1.00  0.00     0.013 C 
HETATM    6  C   UNL     1      23.250   7.350  17.741  1.00  0.00    -0.019 C 
HETATM    7  C   UNL     1      23.528   4.265  19.866  1.00  0.00     0.102 C 
HETATM    8  C   UNL     1      23.456   9.561  16.035  1.00  0.00     0.001 C 
HETATM    9  C   UNL     1      22.545   9.576  17.088  1.00  0.00     0.012 C 
HETATM   10  C   UNL     1      23.575   4.871  18.454  1.00  0.00     0.053 C 
HETATM   11  C   UNL     1      22.561   8.551  18.028  1.00  0.00    -0.025 C 
HETATM   12  C   UNL     1      22.065   7.704  20.237  1.00  0.00     0.011 C 
HETATM   13  C   UNL     1      21.863   8.656  19.235  1.00  0.00     0.013 C 
ENDROOT
BRANCH   7  14
HETATM   14  C   UNL     1      24.794   3.446  20.121  1.00  0.00     0.298 C 
HETATM   15  F   UNL     1      24.789   2.956  21.376  1.00  0.00    -0.199 F 
BRANCH  14  16
HETATM   16  C   UNL     1      24.904   2.323  19.114  1.00  0.00     0.244 C 
HETATM   17  O   UNL     1      25.938   2.239  18.442  1.00  0.00    -0.644 OA
HETATM   18  O   UNL     1      23.969   1.492  19.042  1.00  0.00    -0.644 OA
ENDBRANCH  14  16
BRANCH  14  19
HETATM   19  O   UNL     1      25.946   4.252  20.023  1.00  0.00    -0.353 OA
ATOM     20  HO  UNL     1      26.712   3.692  20.045  1.00  0.00     0.214 HD
ENDBRANCH  14  19
ENDBRANCH   7  14
BRANCH   4  21
HETATM   21  O   UNL     1      24.362   5.822  21.551  1.00  0.00    -0.390 OA
ATOM     22  HO  UNL     1      25.156   5.694  21.045  1.00  0.00     0.210 HD
ENDBRANCH   4  21
TORSDOF 4
ENDMDL
