REMARK  1 active torsions:
REMARK  status: ('A' for Active; 'I' for Inactive)
REMARK    1  A    between atoms: C_5  and  C_10 
ROOT
HETATM    1  C   UNL     1      -1.082   8.245   7.614  1.00  0.00     0.101 C 
HETATM    2  C   UNL     1      -0.947   7.120   8.413  1.00  0.00    -0.005 C 
HETATM    3  C   UNL     1      -2.152   4.789   8.132  1.00  0.00     0.014 A 
HETATM    4  C   UNL     1      -3.087   4.123   7.339  1.00  0.00     0.001 A 
HETATM    5  C   UNL     1      -3.705   4.777   6.268  1.00  0.00     0.002 A 
HETATM    6  C   UNL     1      -2.491   6.770   6.765  1.00  0.00     0.043 A 
HETATM    7  C   UNL     1      -1.830   6.126   7.828  1.00  0.00     0.002 A 
HETATM    8  N   UNL     1      -1.896   7.989   6.568  1.00  0.00    -0.364 N 
ATOM      9  HN  UNL     1      -2.044   8.601   5.765  1.00  0.00     0.165 HD
HETATM   10  C   UNL     1      -3.376   6.087   5.942  1.00  0.00     0.030 A 
ENDROOT
BRANCH   2  11
HETATM   11  C   UNL     1       0.143   6.956   9.372  1.00  0.00    -0.063 C 
HETATM   12  C   UNL     1       0.020   6.098  10.616  1.00  0.00     0.016 C 
HETATM   13  C   UNL     1       0.596   4.706  10.268  1.00  0.00     0.009 C 
HETATM   14  C   UNL     1       0.993   6.625  11.669  1.00  0.00     0.013 C 
HETATM   15  C   UNL     1       2.098   4.852  10.452  1.00  0.00     0.005 C 
HETATM   16  C   UNL     1       2.341   6.232  11.065  1.00  0.00    -0.014 C 
HETATM   17  C   UNL     1       2.644   7.243   9.948  1.00  0.00     0.009 C 
HETATM   18  C   UNL     1       1.492   7.544   8.995  1.00  0.00     0.036 C 
ENDBRANCH   2  11
TORSDOF 1
