REMARK  4 active torsions:
REMARK  status: ('A' for Active; 'I' for Inactive)
REMARK    1  A    between atoms: O_1  and  C_4 
REMARK    2  A    between atoms: C_3  and  C_14 
REMARK    3  A    between atoms: C_3  and  C_16 
REMARK    4  A    between atoms: C_4  and  O_12 
ROOT
HETATM    1  C   UNL     1      -4.218   3.781   4.848  1.00  0.00     0.199 C 
HETATM    2  C   UNL     1      -3.081   6.549   6.466  1.00  0.00     0.015 C 
HETATM    3  C   UNL     1      -4.630   5.183   5.060  1.00  0.00     0.045 C 
HETATM    4  C   UNL     1      -2.559   4.115   6.787  1.00  0.00     0.017 C 
HETATM    5  C   UNL     1      -2.217   5.507   6.830  1.00  0.00     0.014 C 
HETATM    6  C   UNL     1      -4.170   6.281   5.590  1.00  0.00     0.003 C 
HETATM    7  C   UNL     1      -3.216   3.272   5.930  1.00  0.00     0.046 C 
ENDROOT
BRANCH   5   8
HETATM    8  C   UNL     1      -0.893   5.917   7.406  1.00  0.00     0.186 C 
HETATM    9  O   UNL     1      -0.230   6.799   6.904  1.00  0.00    -0.287 OA
BRANCH   8  10
HETATM   10  C   UNL     1      -0.385   5.252   8.639  1.00  0.00    -0.005 C 
HETATM   11  C   UNL     1      -1.007   5.599   9.965  1.00  0.00     0.042 C 
HETATM   12  C   UNL     1       0.019   5.591  11.096  1.00  0.00     0.031 C 
HETATM   13  C   UNL     1       1.401   5.069  10.771  1.00  0.00     0.168 C 
HETATM   14  O   UNL     1       1.314   3.953   9.894  1.00  0.00    -0.387 OA
HETATM   15  C   UNL     1       0.668   4.201   8.665  1.00  0.00     0.206 C 
ENDBRANCH   8  10
ENDBRANCH   5   8
BRANCH   1  16
HETATM   16  O   UNL     1      -5.289   2.886   4.773  1.00  0.00    -0.359 OA
ATOM     17  HO  UNL     1      -5.024   1.984   4.637  1.00  0.00     0.213 HD
ENDBRANCH   1  16
BRANCH   1  18
HETATM   18  O   UNL     1      -3.750   3.751   3.570  1.00  0.00    -0.359 OA
ATOM     19  HO  UNL     1      -3.022   4.359   3.621  1.00  0.00     0.213 HD
ENDBRANCH   1  18
TORSDOF 4
