REMARK  2 active torsions:
REMARK  status: ('A' for Active; 'I' for Inactive)
REMARK    1  A    between atoms: C_3  and  N_22 
REMARK    2  A    between atoms: C_10  and  N_26 
ROOT
HETATM    1  C   UNL     1      21.441  63.019  21.972  1.00  0.00     0.249 C 
HETATM    2  C   UNL     1      24.418  61.292  22.441  1.00  0.00    -0.024 C 
HETATM    3  C   UNL     1      26.360  59.901  22.288  1.00  0.00     0.032 C 
HETATM    4  C   UNL     1      28.001  60.206  20.354  1.00  0.00     0.050 C 
HETATM    5  O   UNL     1      18.686  62.578  20.981  1.00  0.00    -0.269 OA
HETATM    6  C   UNL     1      19.454  60.675  23.999  1.00  0.00     0.063 C 
HETATM    7  C   UNL     1      26.730  60.578  21.082  1.00  0.00    -0.035 C 
HETATM    8  C   UNL     1      25.125  60.182  22.874  1.00  0.00     0.039 C 
HETATM    9  C   UNL     1      25.945  61.621  20.591  1.00  0.00     0.016 C 
HETATM   10  C   UNL     1      19.662  61.069  22.563  1.00  0.00     0.290 C 
HETATM   11  O   UNL     1      20.845  64.088  21.927  1.00  0.00    -0.282 OA
HETATM   12  C   UNL     1      20.974  61.752  22.533  1.00  0.00     0.119 C 
HETATM   13  O   UNL     1      22.809  62.880  21.982  1.00  0.00     0.000 OA
HETATM   14  C   UNL     1      24.783  61.950  21.269  1.00  0.00    -0.049 C 
HETATM   15  C   UNL     1      20.548  60.078  24.695  1.00  0.00     0.046 C 
HETATM   16  N   UNL     1      18.378  61.103  24.703  1.00  0.00    -0.353 N 
ATOM     17  HN  UNL     1      18.355  61.007  25.718  1.00  0.00     0.166 HD
HETATM   18  N   UNL     1      17.401  62.080  22.776  1.00  0.00    -0.320 N 
ATOM     19  HN  UNL     1      16.569  62.490  22.351  1.00  0.00     0.169 HD
HETATM   20  C   UNL     1      23.738  62.956  20.889  1.00  0.00     0.043 C 
HETATM   21  C   UNL     1      21.809  60.212  24.150  1.00  0.00     0.094 C 
HETATM   22  C   UNL     1      18.546  61.975  22.044  1.00  0.00     0.271 C 
HETATM   23  C   UNL     1      23.218  61.971  23.012  1.00  0.00     0.150 C 
HETATM   24  N   UNL     1      21.998  61.238  23.272  1.00  0.00    -0.342 N 
HETATM   25  C   UNL     1      17.350  61.651  24.054  1.00  0.00     0.183 C 
ENDROOT
BRANCH  10  26
HETATM   26  N   UNL     1      19.723  59.849  21.765  1.00  0.00    -0.050 N 
ATOM     27  HN3 UNL     1      20.428  59.193  22.100  1.00  0.00     0.276 HD
ATOM     28  HN2 UNL     1      18.907  59.251  21.896  1.00  0.00     0.276 HD
ATOM     29  HN1 UNL     1      19.864  60.116  20.791  1.00  0.00     0.276 HD
ENDBRANCH  10  26
BRANCH   3  30
HETATM   30  N   UNL     1      27.134  58.871  22.729  1.00  0.00    -0.399 N 
ATOM     31  HN2 UNL     1      28.037  58.666  22.301  1.00  0.00     0.156 HD
ATOM     32  HN1 UNL     1      26.870  58.389  23.588  1.00  0.00     0.156 HD
ENDBRANCH   3  30
TORSDOF 2
