REMARK  4 active torsions:
REMARK  status: ('A' for Active; 'I' for Inactive)
REMARK    1  A    between atoms: C_1  and  C_11 
REMARK    2  A    between atoms: C_2  and  C_13 
REMARK    3  A    between atoms: C_2  and  C_24 
REMARK    4  A    between atoms: O_5  and  C_12 
REMARK       I    between atoms: N_23  and  C_24 
ROOT
HETATM    1  C   UNL     1      20.635  34.128  17.396  1.00  0.00     0.106 C 
HETATM    2  C   UNL     1      19.494  32.350  16.489  1.00  0.00     0.116 C 
HETATM    3  C   UNL     1      19.795  35.039  16.788  1.00  0.00     0.051 C 
HETATM    4  N   UNL     1      18.680  33.168  15.794  1.00  0.00    -0.351 N 
ATOM      5  HN  UNL     1      18.026  32.803  15.102  1.00  0.00     0.166 HD
HETATM    6  N   UNL     1      20.598  32.832  17.081  1.00  0.00    -0.351 N 
ATOM      7  HN  UNL     1      21.390  32.222  17.285  1.00  0.00     0.166 HD
HETATM    8  C   UNL     1      18.765  34.482  16.050  1.00  0.00     0.106 C 
ENDROOT
BRANCH   3   9
HETATM    9  C   UNL     1      20.057  36.536  16.848  1.00  0.00     0.252 C 
HETATM   10  O   UNL     1      19.484  37.231  17.699  1.00  0.00    -0.281 OA
BRANCH   9  11
HETATM   11  C   UNL     1      21.143  37.200  15.983  1.00  0.00     0.296 C 
HETATM   12  O   UNL     1      20.943  37.375  14.805  1.00  0.00    -0.264 OA
HETATM   13  N   UNL     1      22.322  37.529  16.575  1.00  0.00    -0.321 N 
HETATM   14  C   UNL     1      23.473  38.042  15.838  1.00  0.00     0.224 C 
HETATM   15  C   UNL     1      22.528  37.504  18.016  1.00  0.00     0.131 C 
HETATM   16  C   UNL     1      24.406  38.612  16.917  1.00  0.00     0.106 C 
HETATM   17  N   UNL     1      23.208  39.147  14.922  1.00  0.00    -0.337 N 
HETATM   18  C   UNL     1      24.579  40.079  16.534  1.00  0.00     0.144 C 
HETATM   19  C   UNL     1      23.690  38.449  18.238  1.00  0.00     0.062 C 
HETATM   20  C   UNL     1      24.118  40.150  15.111  1.00  0.00     0.222 C 
HETATM   21  O   UNL     1      24.307  41.092  14.353  1.00  0.00    -0.273 OA
ATOM     22  HN  UNL     1      22.452  39.168  14.238  1.00  0.00     0.164 HD
BRANCH  16  23
HETATM   23  O   UNL     1      25.655  37.917  16.951  1.00  0.00    -0.385 OA
ATOM     24  HO  UNL     1      26.232  38.270  17.618  1.00  0.00     0.210 HD
ENDBRANCH  16  23
ENDBRANCH   9  11
ENDBRANCH   3   9
BRANCH   2  25
HETATM   25  C   UNL     1      19.237  30.901  16.520  1.00  0.00     0.024 C 
HETATM   26  C   UNL     1      18.099  30.404  17.144  1.00  0.00     0.106 C 
HETATM   27  N   UNL     1      18.198  29.286  17.895  1.00  0.00    -0.333 N 
HETATM   28  C   UNL     1      19.212  28.385  17.621  1.00  0.00     0.245 C 
ATOM     29  HN  UNL     1      17.537  29.109  18.651  1.00  0.00     0.168 HD
HETATM   30  C   UNL     1      20.162  28.696  16.672  1.00  0.00     0.075 C 
HETATM   31  O   UNL     1      19.336  27.400  18.381  1.00  0.00    -0.268 OA
HETATM   32  C   UNL     1      20.195  29.965  16.109  1.00  0.00     0.022 C 
ENDBRANCH   2  25
TORSDOF 4
