MODEL 1
REMARK VINA RESULT:      -8.6      0.000      0.000
REMARK  4 active torsions:
REMARK  status: ('A' for Active; 'I' for Inactive)
REMARK    1  A    between atoms: C_1  and  C_11 
REMARK    2  A    between atoms: C_2  and  C_13 
REMARK    3  A    between atoms: C_2  and  C_24 
REMARK    4  A    between atoms: O_5  and  C_12 
REMARK       I    between atoms: N_23  and  C_24 
ROOT
HETATM    1  C   UNL     1      21.367  38.288  15.500  1.00  0.00     0.106 C 
HETATM    2  C   UNL     1      23.371  39.279  14.961  1.00  0.00     0.116 C 
HETATM    3  C   UNL     1      21.770  38.071  16.802  1.00  0.00     0.051 C 
HETATM    4  N   UNL     1      23.874  39.033  16.186  1.00  0.00    -0.351 N 
ATOM      5  HN  UNL     1      24.856  39.207  16.401  1.00  0.00     0.166 HD
HETATM    6  N   UNL     1      22.228  38.695  14.566  1.00  0.00    -0.351 N 
ATOM      7  HN  UNL     1      22.024  38.566  13.574  1.00  0.00     0.166 HD
HETATM    8  C   UNL     1      23.031  38.551  17.111  1.00  0.00     0.106 C 
ENDROOT
BRANCH   3   9
HETATM    9  C   UNL     1      20.924  37.272  17.781  1.00  0.00     0.252 C 
HETATM   10  O   UNL     1      21.422  36.864  18.840  1.00  0.00    -0.281 OA
BRANCH   9  11
HETATM   11  C   UNL     1      19.410  37.087  17.574  1.00  0.00     0.296 C 
HETATM   12  O   UNL     1      18.656  37.988  17.852  1.00  0.00    -0.264 OA
HETATM   13  N   UNL     1      18.967  35.884  17.123  1.00  0.00    -0.321 N 
HETATM   14  C   UNL     1      17.552  35.542  17.010  1.00  0.00     0.224 C 
HETATM   15  C   UNL     1      19.850  34.848  16.606  1.00  0.00     0.131 C 
HETATM   16  C   UNL     1      17.523  34.281  16.133  1.00  0.00     0.106 C 
HETATM   17  N   UNL     1      16.708  36.517  16.327  1.00  0.00    -0.337 N 
HETATM   18  C   UNL     1      16.652  34.667  14.941  1.00  0.00     0.144 C 
HETATM   19  C   UNL     1      18.952  34.003  15.728  1.00  0.00     0.062 C 
HETATM   20  C   UNL     1      15.927  35.897  15.392  1.00  0.00     0.222 C 
HETATM   21  O   UNL     1      14.961  36.395  14.828  1.00  0.00    -0.273 OA
ATOM     22  HN  UNL     1      16.702  37.518  16.520  1.00  0.00     0.164 HD
BRANCH  16  23
HETATM   23  O   UNL     1      16.991  33.160  16.844  1.00  0.00    -0.385 OA
ATOM     24  HO  UNL     1      17.681  32.600  17.179  1.00  0.00     0.210 HD
ENDBRANCH  16  23
ENDBRANCH   9  11
ENDBRANCH   3   9
BRANCH   2  25
HETATM   25  C   UNL     1      24.121  40.109  14.004  1.00  0.00     0.024 C 
HETATM   26  C   UNL     1      25.174  40.904  14.441  1.00  0.00     0.106 C 
HETATM   27  N   UNL     1      25.309  42.149  13.936  1.00  0.00    -0.333 N 
HETATM   28  C   UNL     1      24.791  42.421  12.682  1.00  0.00     0.245 C 
ATOM     29  HN  UNL     1      25.784  42.876  14.470  1.00  0.00     0.168 HD
HETATM   30  C   UNL     1      24.054  41.458  12.026  1.00  0.00     0.075 C 
HETATM   31  O   UNL     1      24.854  43.600  12.270  1.00  0.00    -0.268 OA
HETATM   32  C   UNL     1      23.700  40.286  12.680  1.00  0.00     0.022 C 
ENDBRANCH   2  25
TORSDOF 4
ENDMDL
MODEL 2
REMARK VINA RESULT:      -8.1      1.540      2.048
REMARK  4 active torsions:
REMARK  status: ('A' for Active; 'I' for Inactive)
REMARK    1  A    between atoms: C_1  and  C_11 
REMARK    2  A    between atoms: C_2  and  C_13 
REMARK    3  A    between atoms: C_2  and  C_24 
REMARK    4  A    between atoms: O_5  and  C_12 
REMARK       I    between atoms: N_23  and  C_24 
ROOT
HETATM    1  C   UNL     1      22.030  37.556  17.716  1.00  0.00     0.106 C 
HETATM    2  C   UNL     1      22.500  38.566  15.704  1.00  0.00     0.116 C 
HETATM    3  C   UNL     1      20.887  36.971  17.210  1.00  0.00     0.051 C 
HETATM    4  N   UNL     1      21.362  38.103  15.154  1.00  0.00    -0.351 N 
ATOM      5  HN  UNL     1      21.056  38.409  14.230  1.00  0.00     0.166 HD
HETATM    6  N   UNL     1      22.695  38.488  17.030  1.00  0.00    -0.351 N 
ATOM      7  HN  UNL     1      23.336  39.126  17.502  1.00  0.00     0.166 HD
HETATM    8  C   UNL     1      20.646  37.222  15.870  1.00  0.00     0.106 C 
ENDROOT
BRANCH   3   9
HETATM    9  C   UNL     1      19.922  36.199  18.095  1.00  0.00     0.252 C 
HETATM   10  O   UNL     1      20.342  35.285  18.820  1.00  0.00    -0.281 OA
BRANCH   9  11
HETATM   11  C   UNL     1      18.450  36.623  18.245  1.00  0.00     0.296 C 
HETATM   12  O   UNL     1      18.167  37.549  18.967  1.00  0.00    -0.264 OA
HETATM   13  N   UNL     1      17.504  35.902  17.586  1.00  0.00    -0.321 N 
HETATM   14  C   UNL     1      16.070  36.122  17.750  1.00  0.00     0.224 C 
HETATM   15  C   UNL     1      17.820  34.907  16.572  1.00  0.00     0.131 C 
HETATM   16  C   UNL     1      15.423  35.373  16.575  1.00  0.00     0.106 C 
HETATM   17  N   UNL     1      15.616  37.504  17.635  1.00  0.00    -0.337 N 
HETATM   18  C   UNL     1      14.641  36.447  15.824  1.00  0.00     0.144 C 
HETATM   19  C   UNL     1      16.554  34.807  15.747  1.00  0.00     0.062 C 
HETATM   20  C   UNL     1      14.540  37.582  16.795  1.00  0.00     0.222 C 
HETATM   21  O   UNL     1      13.796  38.547  16.679  1.00  0.00    -0.273 OA
ATOM     22  HN  UNL     1      16.040  38.298  18.114  1.00  0.00     0.164 HD
BRANCH  16  23
HETATM   23  O   UNL     1      14.576  34.314  17.031  1.00  0.00    -0.385 OA
ATOM     24  HO  UNL     1      13.837  34.186  16.449  1.00  0.00     0.210 HD
ENDBRANCH  16  23
ENDBRANCH   9  11
ENDBRANCH   3   9
BRANCH   2  25
HETATM   25  C   UNL     1      23.499  39.255  14.871  1.00  0.00     0.024 C 
HETATM   26  C   UNL     1      24.568  39.917  15.462  1.00  0.00     0.106 C 
HETATM   27  N   UNL     1      24.951  41.116  14.971  1.00  0.00    -0.333 N 
HETATM   28  C   UNL     1      24.679  41.412  13.646  1.00  0.00     0.245 C 
ATOM     29  HN  UNL     1      25.431  41.791  15.565  1.00  0.00     0.168 HD
HETATM   30  C   UNL     1      23.930  40.535  12.892  1.00  0.00     0.075 C 
HETATM   31  O   UNL     1      24.966  42.557  13.236  1.00  0.00    -0.268 OA
HETATM   32  C   UNL     1      23.320  39.443  13.494  1.00  0.00     0.022 C 
ENDBRANCH   2  25
TORSDOF 4
ENDMDL
MODEL 3
REMARK VINA RESULT:      -7.9      1.291      2.268
REMARK  4 active torsions:
REMARK  status: ('A' for Active; 'I' for Inactive)
REMARK    1  A    between atoms: C_1  and  C_11 
REMARK    2  A    between atoms: C_2  and  C_13 
REMARK    3  A    between atoms: C_2  and  C_24 
REMARK    4  A    between atoms: O_5  and  C_12 
REMARK       I    between atoms: N_23  and  C_24 
ROOT
HETATM    1  C   UNL     1      23.019  38.539  17.199  1.00  0.00     0.106 C 
HETATM    2  C   UNL     1      23.289  39.348  15.064  1.00  0.00     0.116 C 
HETATM    3  C   UNL     1      21.992  37.706  16.804  1.00  0.00     0.051 C 
HETATM    4  N   UNL     1      22.244  38.630  14.610  1.00  0.00    -0.351 N 
ATOM      5  HN  UNL     1      21.882  38.758  13.665  1.00  0.00     0.166 HD
HETATM    6  N   UNL     1      23.505  39.476  16.382  1.00  0.00    -0.351 N 
ATOM      7  HN  UNL     1      24.029  40.270  16.752  1.00  0.00     0.166 HD
HETATM    8  C   UNL     1      21.700  37.738  15.452  1.00  0.00     0.106 C 
ENDROOT
BRANCH   3   9
HETATM    9  C   UNL     1      21.183  36.899  17.808  1.00  0.00     0.252 C 
HETATM   10  O   UNL     1      21.403  37.021  19.022  1.00  0.00    -0.281 OA
BRANCH   9  11
HETATM   11  C   UNL     1      19.979  36.045  17.373  1.00  0.00     0.296 C 
HETATM   12  O   UNL     1      20.097  34.846  17.286  1.00  0.00    -0.264 OA
HETATM   13  N   UNL     1      18.821  36.684  17.055  1.00  0.00    -0.321 N 
HETATM   14  C   UNL     1      17.654  36.001  16.507  1.00  0.00     0.224 C 
HETATM   15  C   UNL     1      18.587  38.095  17.324  1.00  0.00     0.131 C 
HETATM   16  C   UNL     1      16.504  37.009  16.657  1.00  0.00     0.106 C 
HETATM   17  N   UNL     1      17.221  34.800  17.215  1.00  0.00    -0.337 N 
HETATM   18  C   UNL     1      15.471  36.282  17.513  1.00  0.00     0.144 C 
HETATM   19  C   UNL     1      17.078  38.217  17.360  1.00  0.00     0.062 C 
HETATM   20  C   UNL     1      15.872  34.841  17.440  1.00  0.00     0.222 C 
HETATM   21  O   UNL     1      15.181  33.896  17.794  1.00  0.00    -0.273 OA
ATOM     22  HN  UNL     1      17.836  34.039  17.501  1.00  0.00     0.164 HD
BRANCH  16  23
HETATM   23  O   UNL     1      15.973  37.391  15.386  1.00  0.00    -0.385 OA
ATOM     24  HO  UNL     1      15.082  37.082  15.273  1.00  0.00     0.210 HD
ENDBRANCH  16  23
ENDBRANCH   9  11
ENDBRANCH   3   9
BRANCH   2  25
HETATM   25  C   UNL     1      24.145  40.087  14.121  1.00  0.00     0.024 C 
HETATM   26  C   UNL     1      25.235  40.813  14.586  1.00  0.00     0.106 C 
HETATM   27  N   UNL     1      25.490  42.027  14.053  1.00  0.00    -0.333 N 
HETATM   28  C   UNL     1      25.053  42.298  12.768  1.00  0.00     0.245 C 
ATOM     29  HN  UNL     1      25.996  42.733  14.588  1.00  0.00     0.168 HD
HETATM   30  C   UNL     1      24.273  41.375  12.105  1.00  0.00     0.075 C 
HETATM   31  O   UNL     1      25.225  43.455  12.326  1.00  0.00    -0.268 OA
HETATM   32  C   UNL     1      23.799  40.254  12.774  1.00  0.00     0.022 C 
ENDBRANCH   2  25
TORSDOF 4
ENDMDL
MODEL 4
REMARK VINA RESULT:      -7.7      2.685      3.765
REMARK  4 active torsions:
REMARK  status: ('A' for Active; 'I' for Inactive)
REMARK    1  A    between atoms: C_1  and  C_11 
REMARK    2  A    between atoms: C_2  and  C_13 
REMARK    3  A    between atoms: C_2  and  C_24 
REMARK    4  A    between atoms: O_5  and  C_12 
REMARK       I    between atoms: N_23  and  C_24 
ROOT
HETATM    1  C   UNL     1      18.679  37.900  17.371  1.00  0.00     0.106 C 
HETATM    2  C   UNL     1      20.929  37.434  17.296  1.00  0.00     0.116 C 
HETATM    3  C   UNL     1      18.456  36.910  18.306  1.00  0.00     0.051 C 
HETATM    4  N   UNL     1      20.789  36.395  18.142  1.00  0.00    -0.351 N 
ATOM      5  HN  UNL     1      21.562  35.760  18.335  1.00  0.00     0.166 HD
HETATM    6  N   UNL     1      19.850  38.010  16.742  1.00  0.00    -0.351 N 
ATOM      7  HN  UNL     1      19.925  38.520  15.862  1.00  0.00     0.166 HD
HETATM    8  C   UNL     1      19.589  36.232  18.721  1.00  0.00     0.106 C 
ENDROOT
BRANCH   3   9
HETATM    9  C   UNL     1      17.053  36.533  18.757  1.00  0.00     0.252 C 
HETATM   10  O   UNL     1      16.847  36.215  19.937  1.00  0.00    -0.281 OA
BRANCH   9  11
HETATM   11  C   UNL     1      15.837  36.691  17.827  1.00  0.00     0.296 C 
HETATM   12  O   UNL     1      15.086  37.623  17.981  1.00  0.00    -0.264 OA
HETATM   13  N   UNL     1      15.625  35.737  16.882  1.00  0.00    -0.321 N 
HETATM   14  C   UNL     1      14.441  35.703  16.028  1.00  0.00     0.224 C 
HETATM   15  C   UNL     1      16.602  34.709  16.549  1.00  0.00     0.131 C 
HETATM   16  C   UNL     1      14.797  34.719  14.904  1.00  0.00     0.106 C 
HETATM   17  N   UNL     1      14.095  36.955  15.362  1.00  0.00    -0.337 N 
HETATM   18  C   UNL     1      14.655  35.537  13.623  1.00  0.00     0.144 C 
HETATM   19  C   UNL     1      16.224  34.284  15.146  1.00  0.00     0.062 C 
HETATM   20  C   UNL     1      13.857  36.736  14.034  1.00  0.00     0.222 C 
HETATM   21  O   UNL     1      13.324  37.527  13.266  1.00  0.00    -0.273 OA
ATOM     22  HN  UNL     1      14.038  37.863  15.822  1.00  0.00     0.164 HD
BRANCH  16  23
HETATM   23  O   UNL     1      13.933  33.580  14.910  1.00  0.00    -0.385 OA
ATOM     24  HO  UNL     1      13.330  33.605  15.644  1.00  0.00     0.210 HD
ENDBRANCH  16  23
ENDBRANCH   9  11
ENDBRANCH   3   9
BRANCH   2  25
HETATM   25  C   UNL     1      22.271  37.881  16.888  1.00  0.00     0.024 C 
HETATM   26  C   UNL     1      23.198  38.277  17.844  1.00  0.00     0.106 C 
HETATM   27  N   UNL     1      23.970  39.358  17.601  1.00  0.00    -0.333 N 
HETATM   28  C   UNL     1      24.225  39.716  16.289  1.00  0.00     0.245 C 
ATOM     29  HN  UNL     1      24.358  39.902  18.371  1.00  0.00     0.168 HD
HETATM   30  C   UNL     1      23.599  39.038  15.264  1.00  0.00     0.075 C 
HETATM   31  O   UNL     1      24.870  40.767  16.087  1.00  0.00    -0.268 OA
HETATM   32  C   UNL     1      22.604  38.111  15.547  1.00  0.00     0.022 C 
ENDBRANCH   2  25
TORSDOF 4
ENDMDL
MODEL 5
REMARK VINA RESULT:      -7.4      2.899      3.702
REMARK  4 active torsions:
REMARK  status: ('A' for Active; 'I' for Inactive)
REMARK    1  A    between atoms: C_1  and  C_11 
REMARK    2  A    between atoms: C_2  and  C_13 
REMARK    3  A    between atoms: C_2  and  C_24 
REMARK    4  A    between atoms: O_5  and  C_12 
REMARK       I    between atoms: N_23  and  C_24 
ROOT
HETATM    1  C   UNL     1      20.640  37.801  15.930  1.00  0.00     0.106 C 
HETATM    2  C   UNL     1      20.698  37.539  13.646  1.00  0.00     0.116 C 
HETATM    3  C   UNL     1      20.299  36.477  16.121  1.00  0.00     0.051 C 
HETATM    4  N   UNL     1      20.287  36.259  13.737  1.00  0.00    -0.351 N 
ATOM      5  HN  UNL     1      20.041  35.721  12.907  1.00  0.00     0.166 HD
HETATM    6  N   UNL     1      20.636  38.350  14.714  1.00  0.00    -0.351 N 
ATOM      7  HN  UNL     1      20.586  39.362  14.598  1.00  0.00     0.166 HD
HETATM    8  C   UNL     1      20.215  35.722  14.964  1.00  0.00     0.106 C 
ENDROOT
BRANCH   3   9
HETATM    9  C   UNL     1      19.941  35.932  17.495  1.00  0.00     0.252 C 
HETATM   10  O   UNL     1      20.751  35.222  18.109  1.00  0.00    -0.281 OA
BRANCH   9  11
HETATM   11  C   UNL     1      18.660  36.368  18.228  1.00  0.00     0.296 C 
HETATM   12  O   UNL     1      18.716  37.242  19.058  1.00  0.00    -0.264 OA
HETATM   13  N   UNL     1      17.503  35.712  17.942  1.00  0.00    -0.321 N 
HETATM   14  C   UNL     1      16.253  35.942  18.660  1.00  0.00     0.224 C 
HETATM   15  C   UNL     1      17.362  34.789  16.825  1.00  0.00     0.131 C 
HETATM   16  C   UNL     1      15.173  35.292  17.782  1.00  0.00     0.106 C 
HETATM   17  N   UNL     1      15.849  37.336  18.814  1.00  0.00    -0.337 N 
HETATM   18  C   UNL     1      14.210  36.430  17.458  1.00  0.00     0.144 C 
HETATM   19  C   UNL     1      15.874  34.771  16.549  1.00  0.00     0.062 C 
HETATM   20  C   UNL     1      14.538  37.493  18.461  1.00  0.00     0.222 C 
HETATM   21  O   UNL     1      13.848  38.476  18.700  1.00  0.00    -0.273 OA
ATOM     22  HN  UNL     1      16.458  38.086  19.140  1.00  0.00     0.164 HD
BRANCH  16  23
HETATM   23  O   UNL     1      14.521  34.217  18.463  1.00  0.00    -0.385 OA
ATOM     24  HO  UNL     1      13.576  34.306  18.431  1.00  0.00     0.210 HD
ENDBRANCH  16  23
ENDBRANCH   9  11
ENDBRANCH   3   9
BRANCH   2  25
HETATM   25  C   UNL     1      21.124  38.089  12.349  1.00  0.00     0.024 C 
HETATM   26  C   UNL     1      20.720  37.485  11.165  1.00  0.00     0.106 C 
HETATM   27  N   UNL     1      21.609  37.360  10.156  1.00  0.00    -0.333 N 
HETATM   28  C   UNL     1      22.665  38.253  10.082  1.00  0.00     0.245 C 
ATOM     29  HN  UNL     1      21.505  36.621   9.461  1.00  0.00     0.168 HD
HETATM   30  C   UNL     1      22.853  39.171  11.092  1.00  0.00     0.075 C 
HETATM   31  O   UNL     1      23.521  38.067   9.190  1.00  0.00    -0.268 OA
HETATM   32  C   UNL     1      22.088  39.101  12.249  1.00  0.00     0.022 C 
ENDBRANCH   2  25
TORSDOF 4
ENDMDL
MODEL 6
REMARK VINA RESULT:      -7.1      2.924      4.523
REMARK  4 active torsions:
REMARK  status: ('A' for Active; 'I' for Inactive)
REMARK    1  A    between atoms: C_1  and  C_11 
REMARK    2  A    between atoms: C_2  and  C_13 
REMARK    3  A    between atoms: C_2  and  C_24 
REMARK    4  A    between atoms: O_5  and  C_12 
REMARK       I    between atoms: N_23  and  C_24 
ROOT
HETATM    1  C   UNL     1      19.871  35.114  17.746  1.00  0.00     0.106 C 
HETATM    2  C   UNL     1      21.045  36.961  17.042  1.00  0.00     0.116 C 
HETATM    3  C   UNL     1      18.870  35.338  16.821  1.00  0.00     0.051 C 
HETATM    4  N   UNL     1      20.077  37.300  16.168  1.00  0.00    -0.351 N 
ATOM      5  HN  UNL     1      20.103  38.186  15.665  1.00  0.00     0.166 HD
HETATM    6  N   UNL     1      20.820  36.023  17.975  1.00  0.00    -0.351 N 
ATOM      7  HN  UNL     1      21.363  36.005  18.839  1.00  0.00     0.166 HD
HETATM    8  C   UNL     1      19.077  36.424  15.989  1.00  0.00     0.106 C 
ENDROOT
BRANCH   3   9
HETATM    9  C   UNL     1      17.596  34.508  16.802  1.00  0.00     0.252 C 
HETATM   10  O   UNL     1      17.657  33.284  16.621  1.00  0.00    -0.281 OA
BRANCH   9  11
HETATM   11  C   UNL     1      16.230  35.119  17.164  1.00  0.00     0.296 C 
HETATM   12  O   UNL     1      16.121  35.785  18.166  1.00  0.00    -0.264 OA
HETATM   13  N   UNL     1      15.171  34.847  16.356  1.00  0.00    -0.321 N 
HETATM   14  C   UNL     1      13.804  35.257  16.661  1.00  0.00     0.224 C 
HETATM   15  C   UNL     1      15.302  34.209  15.053  1.00  0.00     0.131 C 
HETATM   16  C   UNL     1      13.038  35.077  15.341  1.00  0.00     0.106 C 
HETATM   17  N   UNL     1      13.622  36.656  17.034  1.00  0.00    -0.337 N 
HETATM   18  C   UNL     1      12.483  36.464  15.031  1.00  0.00     0.144 C 
HETATM   19  C   UNL     1      14.049  34.625  14.312  1.00  0.00     0.062 C 
HETATM   20  C   UNL     1      12.589  37.207  16.327  1.00  0.00     0.222 C 
HETATM   21  O   UNL     1      12.044  38.274  16.577  1.00  0.00    -0.273 OA
ATOM     22  HN  UNL     1      14.185  37.152  17.725  1.00  0.00     0.164 HD
BRANCH  16  23
HETATM   23  O   UNL     1      12.001  34.101  15.466  1.00  0.00    -0.385 OA
ATOM     24  HO  UNL     1      12.323  33.225  15.290  1.00  0.00     0.210 HD
ENDBRANCH  16  23
ENDBRANCH   9  11
ENDBRANCH   3   9
BRANCH   2  25
HETATM   25  C   UNL     1      22.324  37.689  17.048  1.00  0.00     0.024 C 
HETATM   26  C   UNL     1      22.992  37.921  18.244  1.00  0.00     0.106 C 
HETATM   27  N   UNL     1      23.572  39.124  18.448  1.00  0.00    -0.333 N 
HETATM   28  C   UNL     1      23.962  39.872  17.352  1.00  0.00     0.245 C 
ATOM     29  HN  UNL     1      23.719  39.474  19.394  1.00  0.00     0.168 HD
HETATM   30  C   UNL     1      23.652  39.434  16.082  1.00  0.00     0.075 C 
HETATM   31  O   UNL     1      24.419  41.017  17.561  1.00  0.00    -0.268 OA
HETATM   32  C   UNL     1      22.820  38.336  15.908  1.00  0.00     0.022 C 
ENDBRANCH   2  25
TORSDOF 4
ENDMDL
MODEL 7
REMARK VINA RESULT:      -7.0      3.585      5.163
REMARK  4 active torsions:
REMARK  status: ('A' for Active; 'I' for Inactive)
REMARK    1  A    between atoms: C_1  and  C_11 
REMARK    2  A    between atoms: C_2  and  C_13 
REMARK    3  A    between atoms: C_2  and  C_24 
REMARK    4  A    between atoms: O_5  and  C_12 
REMARK       I    between atoms: N_23  and  C_24 
ROOT
HETATM    1  C   UNL     1      18.765  37.813  16.797  1.00  0.00     0.106 C 
HETATM    2  C   UNL     1      21.029  37.493  17.037  1.00  0.00     0.116 C 
HETATM    3  C   UNL     1      18.481  36.902  17.794  1.00  0.00     0.051 C 
HETATM    4  N   UNL     1      20.841  36.531  17.961  1.00  0.00    -0.351 N 
ATOM      5  HN  UNL     1      21.618  35.970  18.308  1.00  0.00     0.166 HD
HETATM    6  N   UNL     1      19.998  37.942  16.304  1.00  0.00    -0.351 N 
ATOM      7  HN  UNL     1      20.153  38.371  15.391  1.00  0.00     0.166 HD
HETATM    8  C   UNL     1      19.590  36.343  18.407  1.00  0.00     0.106 C 
ENDROOT
BRANCH   3   9
HETATM    9  C   UNL     1      17.056  36.477  18.111  1.00  0.00     0.252 C 
HETATM   10  O   UNL     1      16.658  35.351  17.780  1.00  0.00    -0.281 OA
BRANCH   9  11
HETATM   11  C   UNL     1      16.129  37.346  18.980  1.00  0.00     0.296 C 
HETATM   12  O   UNL     1      16.398  37.525  20.144  1.00  0.00    -0.264 OA
HETATM   13  N   UNL     1      15.003  37.850  18.410  1.00  0.00    -0.321 N 
HETATM   14  C   UNL     1      13.982  38.577  19.159  1.00  0.00     0.224 C 
HETATM   15  C   UNL     1      14.744  37.810  16.978  1.00  0.00     0.131 C 
HETATM   16  C   UNL     1      13.121  39.259  18.086  1.00  0.00     0.106 C 
HETATM   17  N   UNL     1      14.463  39.652  20.022  1.00  0.00    -0.337 N 
HETATM   18  C   UNL     1      13.212  40.747  18.414  1.00  0.00     0.144 C 
HETATM   19  C   UNL     1      13.751  38.931  16.752  1.00  0.00     0.062 C 
HETATM   20  C   UNL     1      13.729  40.788  19.819  1.00  0.00     0.222 C 
HETATM   21  O   UNL     1      13.729  41.774  20.544  1.00  0.00    -0.273 OA
ATOM     22  HN  UNL     1      15.235  39.567  20.682  1.00  0.00     0.164 HD
BRANCH  16  23
HETATM   23  O   UNL     1      11.772  38.786  18.117  1.00  0.00    -0.385 OA
ATOM     24  HO  UNL     1      11.215  39.356  18.634  1.00  0.00     0.210 HD
ENDBRANCH  16  23
ENDBRANCH   9  11
ENDBRANCH   3   9
BRANCH   2  25
HETATM   25  C   UNL     1      22.384  37.988  16.748  1.00  0.00     0.024 C 
HETATM   26  C   UNL     1      23.220  38.387  17.785  1.00  0.00     0.106 C 
HETATM   27  N   UNL     1      23.975  39.496  17.629  1.00  0.00    -0.333 N 
HETATM   28  C   UNL     1      24.322  39.893  16.350  1.00  0.00     0.245 C 
ATOM     29  HN  UNL     1      24.284  40.031  18.440  1.00  0.00     0.168 HD
HETATM   30  C   UNL     1      23.802  39.223  15.263  1.00  0.00     0.075 C 
HETATM   31  O   UNL     1      24.950  40.967  16.224  1.00  0.00    -0.268 OA
HETATM   32  C   UNL     1      22.816  38.262  15.444  1.00  0.00     0.022 C 
ENDBRANCH   2  25
TORSDOF 4
ENDMDL
MODEL 8
REMARK VINA RESULT:      -7.0      4.290      8.580
REMARK  4 active torsions:
REMARK  status: ('A' for Active; 'I' for Inactive)
REMARK    1  A    between atoms: C_1  and  C_11 
REMARK    2  A    between atoms: C_2  and  C_13 
REMARK    3  A    between atoms: C_2  and  C_24 
REMARK    4  A    between atoms: O_5  and  C_12 
REMARK       I    between atoms: N_23  and  C_24 
ROOT
HETATM    1  C   UNL     1      16.321  36.099  18.031  1.00  0.00     0.106 C 
HETATM    2  C   UNL     1      15.168  37.826  19.019  1.00  0.00     0.116 C 
HETATM    3  C   UNL     1      17.511  36.502  18.603  1.00  0.00     0.051 C 
HETATM    4  N   UNL     1      16.296  38.335  19.551  1.00  0.00    -0.351 N 
ATOM      5  HN  UNL     1      16.300  39.240  20.020  1.00  0.00     0.166 HD
HETATM    6  N   UNL     1      15.231  36.867  18.081  1.00  0.00    -0.351 N 
ATOM      7  HN  UNL     1      14.464  36.730  17.423  1.00  0.00     0.166 HD
HETATM    8  C   UNL     1      17.415  37.603  19.437  1.00  0.00     0.106 C 
ENDROOT
BRANCH   3   9
HETATM    9  C   UNL     1      18.834  35.840  18.253  1.00  0.00     0.252 C 
HETATM   10  O   UNL     1      19.698  35.682  19.127  1.00  0.00    -0.281 OA
BRANCH   9  11
HETATM   11  C   UNL     1      19.079  35.208  16.871  1.00  0.00     0.296 C 
HETATM   12  O   UNL     1      18.946  34.017  16.728  1.00  0.00    -0.264 OA
HETATM   13  N   UNL     1      19.485  36.019  15.858  1.00  0.00    -0.321 N 
HETATM   14  C   UNL     1      19.874  35.523  14.541  1.00  0.00     0.224 C 
HETATM   15  C   UNL     1      19.476  37.473  15.944  1.00  0.00     0.131 C 
HETATM   16  C   UNL     1      19.888  36.769  13.642  1.00  0.00     0.106 C 
HETATM   17  N   UNL     1      18.947  34.590  13.907  1.00  0.00    -0.337 N 
HETATM   18  C   UNL     1      18.891  36.448  12.532  1.00  0.00     0.144 C 
HETATM   19  C   UNL     1      19.431  37.926  14.500  1.00  0.00     0.062 C 
HETATM   20  C   UNL     1      18.705  34.964  12.615  1.00  0.00     0.222 C 
HETATM   21  O   UNL     1      18.169  34.271  11.761  1.00  0.00    -0.273 OA
ATOM     22  HN  UNL     1      18.539  33.775  14.364  1.00  0.00     0.164 HD
BRANCH  16  23
HETATM   23  O   UNL     1      21.196  37.030  13.128  1.00  0.00    -0.385 OA
ATOM     24  HO  UNL     1      21.775  37.366  13.802  1.00  0.00     0.210 HD
ENDBRANCH  16  23
ENDBRANCH   9  11
ENDBRANCH   3   9
BRANCH   2  25
HETATM   25  C   UNL     1      13.858  38.386  19.386  1.00  0.00     0.024 C 
HETATM   26  C   UNL     1      13.760  39.689  19.859  1.00  0.00     0.106 C 
HETATM   27  N   UNL     1      12.927  39.953  20.888  1.00  0.00    -0.333 N 
HETATM   28  C   UNL     1      11.839  39.123  21.096  1.00  0.00     0.245 C 
ATOM     29  HN  UNL     1      13.096  40.749  21.502  1.00  0.00     0.168 HD
HETATM   30  C   UNL     1      11.691  37.988  20.327  1.00  0.00     0.075 C 
HETATM   31  O   UNL     1      11.129  39.336  22.103  1.00  0.00    -0.268 OA
HETATM   32  C   UNL     1      12.703  37.596  19.462  1.00  0.00     0.022 C 
ENDBRANCH   2  25
TORSDOF 4
ENDMDL
MODEL 9
REMARK VINA RESULT:      -7.0      3.090      4.955
REMARK  4 active torsions:
REMARK  status: ('A' for Active; 'I' for Inactive)
REMARK    1  A    between atoms: C_1  and  C_11 
REMARK    2  A    between atoms: C_2  and  C_13 
REMARK    3  A    between atoms: C_2  and  C_24 
REMARK    4  A    between atoms: O_5  and  C_12 
REMARK       I    between atoms: N_23  and  C_24 
ROOT
HETATM    1  C   UNL     1      18.066  36.164  17.185  1.00  0.00     0.106 C 
HETATM    2  C   UNL     1      20.251  36.820  16.896  1.00  0.00     0.116 C 
HETATM    3  C   UNL     1      18.324  34.911  16.668  1.00  0.00     0.051 C 
HETATM    4  N   UNL     1      20.571  35.653  16.304  1.00  0.00    -0.351 N 
ATOM      5  HN  UNL     1      21.482  35.512  15.868  1.00  0.00     0.166 HD
HETATM    6  N   UNL     1      18.966  37.147  17.104  1.00  0.00    -0.351 N 
ATOM      7  HN  UNL     1      18.683  38.123  17.199  1.00  0.00     0.166 HD
HETATM    8  C   UNL     1      19.643  34.685  16.314  1.00  0.00     0.106 C 
ENDROOT
BRANCH   3   9
HETATM    9  C   UNL     1      17.213  33.903  16.416  1.00  0.00     0.252 C 
HETATM   10  O   UNL     1      17.365  32.718  16.747  1.00  0.00    -0.281 OA
BRANCH   9  11
HETATM   11  C   UNL     1      15.828  34.340  15.906  1.00  0.00     0.296 C 
HETATM   12  O   UNL     1      14.886  34.336  16.661  1.00  0.00    -0.264 OA
HETATM   13  N   UNL     1      15.705  34.676  14.594  1.00  0.00    -0.321 N 
HETATM   14  C   UNL     1      14.425  34.981  13.962  1.00  0.00     0.224 C 
HETATM   15  C   UNL     1      16.844  34.870  13.708  1.00  0.00     0.131 C 
HETATM   16  C   UNL     1      14.796  35.650  12.630  1.00  0.00     0.106 C 
HETATM   17  N   UNL     1      13.575  35.939  14.662  1.00  0.00    -0.337 N 
HETATM   18  C   UNL     1      14.126  37.020  12.694  1.00  0.00     0.144 C 
HETATM   19  C   UNL     1      16.304  35.754  12.603  1.00  0.00     0.062 C 
HETATM   20  C   UNL     1      13.119  36.892  13.794  1.00  0.00     0.222 C 
HETATM   21  O   UNL     1      12.213  37.684  14.018  1.00  0.00    -0.273 OA
ATOM     22  HN  UNL     1      13.353  35.902  15.656  1.00  0.00     0.164 HD
BRANCH  16  23
HETATM   23  O   UNL     1      14.341  34.883  11.513  1.00  0.00    -0.385 OA
ATOM     24  HO  UNL     1      13.591  34.346  11.741  1.00  0.00     0.210 HD
ENDBRANCH  16  23
ENDBRANCH   9  11
ENDBRANCH   3   9
BRANCH   2  25
HETATM   25  C   UNL     1      21.302  37.796  17.225  1.00  0.00     0.024 C 
HETATM   26  C   UNL     1      21.621  38.812  16.332  1.00  0.00     0.106 C 
HETATM   27  N   UNL     1      22.919  39.136  16.143  1.00  0.00    -0.333 N 
HETATM   28  C   UNL     1      23.826  38.878  17.156  1.00  0.00     0.245 C 
ATOM     29  HN  UNL     1      23.225  39.562  15.269  1.00  0.00     0.168 HD
HETATM   30  C   UNL     1      23.414  38.199  18.283  1.00  0.00     0.075 C 
HETATM   31  O   UNL     1      25.033  39.108  16.928  1.00  0.00    -0.268 OA
HETATM   32  C   UNL     1      22.145  37.639  18.334  1.00  0.00     0.022 C 
ENDBRANCH   2  25
TORSDOF 4
ENDMDL
