REMARK  3 active torsions:
REMARK  status: ('A' for Active; 'I' for Inactive)
REMARK    1  A    between atoms: C_1  and  N_18 
REMARK    2  A    between atoms: C_2  and  C_15 
REMARK    3  A    between atoms: N_18  and  C_21 
ROOT
HETATM    1  N   UNL     1      14.482 -32.076  25.690  1.00  0.00    -0.342 N 
ATOM      2  HN  UNL     1      14.829 -32.046  26.649  1.00  0.00     0.167 HD
ENDROOT
BRANCH   1   3
HETATM    3  C   UNL     1      14.274 -30.883  24.984  1.00  0.00     0.038 C 
HETATM    4  C   UNL     1      13.129 -30.792  24.188  1.00  0.00     0.031 C 
HETATM    5  C   UNL     1      12.923 -30.605  22.882  1.00  0.00     0.019 C 
HETATM    6  C   UNL     1      13.878 -29.915  22.127  1.00  0.00     0.091 C 
HETATM    7  N   UNL     1      15.035 -29.484  22.694  1.00  0.00    -0.334 N 
HETATM    8  C   UNL     1      15.237 -28.969  23.940  1.00  0.00     0.247 C 
ATOM      9  HN  UNL     1      15.866 -29.556  22.107  1.00  0.00     0.168 HD
HETATM   10  O   UNL     1      15.557 -27.773  24.023  1.00  0.00    -0.268 OA
HETATM   11  C   UNL     1      15.162 -29.812  25.084  1.00  0.00     0.104 C 
ENDBRANCH   1   3
BRANCH   1  12
HETATM   12  C   UNL     1      14.216 -33.302  25.084  1.00  0.00     0.106 C 
HETATM   13  C   UNL     1      15.205 -34.286  24.999  1.00  0.00     0.067 C 
HETATM   14  C   UNL     1      14.907 -35.409  24.246  1.00  0.00     0.045 C 
HETATM   15  C   UNL     1      13.911 -35.311  23.269  1.00  0.00     0.035 C 
HETATM   16  C   UNL     1      12.919 -34.371  23.525  1.00  0.00     0.090 C 
HETATM   17  N   UNL     1      12.970 -33.569  24.612  1.00  0.00    -0.352 N 
ATOM     18  HN  UNL     1      12.130 -33.190  25.049  1.00  0.00     0.166 HD
BRANCH  14  19
HETATM   19  C   UNL     1      15.494 -36.741  24.588  1.00  0.00     0.209 C 
HETATM   20  O   UNL     1      14.733 -37.649  24.986  1.00  0.00    -0.644 OA
HETATM   21  O   UNL     1      16.724 -36.913  24.451  1.00  0.00    -0.644 OA
ENDBRANCH  14  19
ENDBRANCH   1  12
TORSDOF 3
