MODEL 1
REMARK VINA RESULT:     -12.6      0.000      0.000
REMARK  8 active torsions:
REMARK  status: ('A' for Active; 'I' for Inactive)
REMARK    1  A    between atoms: C_2  and  C_16 
REMARK    2  A    between atoms: C_4  and  C_33 
REMARK    3  A    between atoms: C_7  and  O_18 
REMARK    4  A    between atoms: C_7  and  C_35 
REMARK    5  A    between atoms: O_8  and  C_15 
REMARK    6  A    between atoms: C_12  and  C_13 
REMARK    7  A    between atoms: C_14  and  C_16 
REMARK    8  A    between atoms: C_14  and  N_26 
ROOT
HETATM    1  C   UNL     1     142.132 -25.679  69.160  1.00  0.00     0.015 C 
HETATM    2  C   UNL     1     143.421 -25.855  71.244  1.00  0.00     0.020 C 
HETATM    3  C   UNL     1     144.638 -25.782  70.481  1.00  0.00     0.077 C 
HETATM    4  C   UNL     1     143.330 -25.437  68.440  1.00  0.00     0.004 C 
HETATM    5  C   UNL     1     144.574 -25.517  69.088  1.00  0.00     0.037 C 
HETATM    6  C   UNL     1     142.243 -26.225  70.470  1.00  0.00     0.007 C 
ENDROOT
BRANCH   6   7
HETATM    7  C   UNL     1     141.255 -27.240  70.902  1.00  0.00     0.061 C 
HETATM    8  O   UNL     1     140.407 -26.952  71.991  1.00  0.00    -0.351 OA
HETATM    9  C   UNL     1     139.527 -28.066  72.147  1.00  0.00     0.218 C 
HETATM   10  C   UNL     1     140.238 -29.288  71.573  1.00  0.00     0.112 C 
HETATM   11  C   UNL     1     141.291 -28.703  70.619  1.00  0.00     0.110 C 
BRANCH  10  12
HETATM   12  O   UNL     1     139.341 -30.106  70.810  1.00  0.00    -0.382 OA
ATOM     13  HO  UNL     1     138.692 -30.471  71.401  1.00  0.00     0.211 HD
ENDBRANCH  10  12
BRANCH  10  14
HETATM   14  C   UNL     1     140.917 -30.143  72.647  1.00  0.00    -0.022 C 
HETATM   15  C   UNL     1     140.948 -29.681  73.990  1.00  0.00     0.010 C 
HETATM   16  C   UNL     1     141.620 -30.185  75.091  1.00  0.00     0.001 C 
HETATM   17  C   UNL     1     142.397 -31.337  75.223  1.00  0.00     0.000 C 
HETATM   18  C   UNL     1     142.797 -32.239  74.241  1.00  0.00     0.000 C 
HETATM   19  C   UNL     1     142.412 -32.192  72.908  1.00  0.00     0.001 C 
HETATM   20  C   UNL     1     141.498 -31.363  72.277  1.00  0.00     0.010 C 
ENDBRANCH  10  14
ENDBRANCH   6   7
BRANCH   2  21
HETATM   21  C   UNL     1     143.396 -25.577  72.698  1.00  0.00    -0.021 C 
HETATM   22  C   UNL     1     143.285 -24.253  73.193  1.00  0.00     0.023 C 
HETATM   23  C   UNL     1     143.583 -23.987  74.546  1.00  0.00    -0.037 C 
HETATM   24  C   UNL     1     143.578 -25.039  75.480  1.00  0.00     0.011 C 
HETATM   25  C   UNL     1     143.554 -26.353  75.020  1.00  0.00     0.002 C 
HETATM   26  C   UNL     1     143.473 -26.620  73.647  1.00  0.00     0.012 C 
BRANCH  23  27
HETATM   27  C   UNL     1     144.026 -22.594  74.953  1.00  0.00     0.016 C 
BRANCH  27  28
HETATM   28  C   UNL     1     143.435 -21.759  76.073  1.00  0.00     0.203 C 
HETATM   29  C   UNL     1     142.291 -20.885  75.648  1.00  0.00     0.044 C 
BRANCH  28  30
HETATM   30  N   UNL     1     144.431 -20.986  76.809  1.00  0.00    -0.072 N 
ATOM     31  HN3 UNL     1     145.275 -20.860  76.250  1.00  0.00     0.275 HD
ATOM     32  HN2 UNL     1     144.140 -20.013  76.898  1.00  0.00     0.275 HD
ATOM     33  HN1 UNL     1     144.656 -21.382  77.722  1.00  0.00     0.275 HD
ENDBRANCH  28  30
ENDBRANCH  27  28
ENDBRANCH  23  27
ENDBRANCH   2  21
BRANCH   3  34
HETATM   34  O   UNL     1     145.831 -25.996  71.107  1.00  0.00    -0.360 OA
ATOM     35  HO  UNL     1     146.007 -25.555  71.930  1.00  0.00     0.217 HD
ENDBRANCH   3  34
TORSDOF 8
ENDMDL
MODEL 2
REMARK VINA RESULT:     -11.9      1.632      2.362
REMARK  8 active torsions:
REMARK  status: ('A' for Active; 'I' for Inactive)
REMARK    1  A    between atoms: C_2  and  C_16 
REMARK    2  A    between atoms: C_4  and  C_33 
REMARK    3  A    between atoms: C_7  and  O_18 
REMARK    4  A    between atoms: C_7  and  C_35 
REMARK    5  A    between atoms: O_8  and  C_15 
REMARK    6  A    between atoms: C_12  and  C_13 
REMARK    7  A    between atoms: C_14  and  C_16 
REMARK    8  A    between atoms: C_14  and  N_26 
ROOT
HETATM    1  C   UNL     1     141.746 -27.152  70.850  1.00  0.00     0.015 C 
HETATM    2  C   UNL     1     143.224 -25.987  72.429  1.00  0.00     0.020 C 
HETATM    3  C   UNL     1     144.150 -25.740  71.357  1.00  0.00     0.077 C 
HETATM    4  C   UNL     1     142.582 -26.756  69.775  1.00  0.00     0.004 C 
HETATM    5  C   UNL     1     143.789 -26.081  70.028  1.00  0.00     0.037 C 
HETATM    6  C   UNL     1     142.271 -27.059  72.170  1.00  0.00     0.007 C 
ENDROOT
BRANCH   6   7
HETATM    7  C   UNL     1     141.946 -28.129  73.140  1.00  0.00     0.061 C 
HETATM    8  O   UNL     1     142.779 -28.313  74.263  1.00  0.00    -0.351 OA
HETATM    9  C   UNL     1     142.204 -29.357  75.049  1.00  0.00     0.218 C 
HETATM   10  C   UNL     1     141.383 -30.233  74.108  1.00  0.00     0.112 C 
HETATM   11  C   UNL     1     141.092 -29.327  72.901  1.00  0.00     0.110 C 
BRANCH  10  12
HETATM   12  O   UNL     1     140.134 -30.613  74.700  1.00  0.00    -0.382 OA
ATOM     13  HO  UNL     1     140.309 -30.986  75.556  1.00  0.00     0.211 HD
ENDBRANCH  10  12
BRANCH  10  14
HETATM   14  C   UNL     1     142.134 -31.489  73.654  1.00  0.00    -0.022 C 
HETATM   15  C   UNL     1     143.105 -32.068  74.514  1.00  0.00     0.010 C 
HETATM   16  C   UNL     1     144.009 -33.092  74.276  1.00  0.00     0.001 C 
HETATM   17  C   UNL     1     144.175 -33.905  73.154  1.00  0.00     0.000 C 
HETATM   18  C   UNL     1     143.538 -33.830  71.919  1.00  0.00     0.000 C 
HETATM   19  C   UNL     1     142.525 -32.939  71.594  1.00  0.00     0.001 C 
HETATM   20  C   UNL     1     141.846 -32.036  72.397  1.00  0.00     0.010 C 
ENDBRANCH  10  14
ENDBRANCH   6   7
BRANCH   2  21
HETATM   21  C   UNL     1     143.260 -25.205  73.685  1.00  0.00    -0.021 C 
HETATM   22  C   UNL     1     143.112 -23.794  73.678  1.00  0.00     0.023 C 
HETATM   23  C   UNL     1     143.465 -23.051  74.825  1.00  0.00    -0.037 C 
HETATM   24  C   UNL     1     143.558 -23.695  76.072  1.00  0.00     0.011 C 
HETATM   25  C   UNL     1     143.572 -25.087  76.115  1.00  0.00     0.002 C 
HETATM   26  C   UNL     1     143.434 -25.833  74.938  1.00  0.00     0.012 C 
BRANCH  23  27
HETATM   27  C   UNL     1     143.862 -21.594  74.676  1.00  0.00     0.016 C 
BRANCH  27  28
HETATM   28  C   UNL     1     143.021 -20.394  75.067  1.00  0.00     0.203 C 
HETATM   29  C   UNL     1     143.647 -19.520  76.114  1.00  0.00     0.044 C 
BRANCH  28  30
HETATM   30  N   UNL     1     141.651 -20.739  75.434  1.00  0.00    -0.072 N 
ATOM     31  HN3 UNL     1     141.146 -21.116  74.631  1.00  0.00     0.275 HD
ATOM     32  HN2 UNL     1     141.635 -21.557  76.043  1.00  0.00     0.275 HD
ATOM     33  HN1 UNL     1     141.136 -19.966  75.854  1.00  0.00     0.275 HD
ENDBRANCH  28  30
ENDBRANCH  27  28
ENDBRANCH  23  27
ENDBRANCH   2  21
BRANCH   3  34
HETATM   34  O   UNL     1     145.373 -25.206  71.644  1.00  0.00    -0.360 OA
ATOM     35  HO  UNL     1     146.153 -25.621  71.294  1.00  0.00     0.217 HD
ENDBRANCH   3  34
TORSDOF 8
ENDMDL
MODEL 3
REMARK VINA RESULT:     -10.8      2.569      7.283
REMARK  8 active torsions:
REMARK  status: ('A' for Active; 'I' for Inactive)
REMARK    1  A    between atoms: C_2  and  C_16 
REMARK    2  A    between atoms: C_4  and  C_33 
REMARK    3  A    between atoms: C_7  and  O_18 
REMARK    4  A    between atoms: C_7  and  C_35 
REMARK    5  A    between atoms: O_8  and  C_15 
REMARK    6  A    between atoms: C_12  and  C_13 
REMARK    7  A    between atoms: C_14  and  C_16 
REMARK    8  A    between atoms: C_14  and  N_26 
ROOT
HETATM    1  C   UNL     1     144.921 -26.038  71.724  1.00  0.00     0.015 C 
HETATM    2  C   UNL     1     142.631 -26.791  71.248  1.00  0.00     0.020 C 
HETATM    3  C   UNL     1     142.717 -26.182  69.948  1.00  0.00     0.077 C 
HETATM    4  C   UNL     1     145.053 -25.593  70.384  1.00  0.00     0.004 C 
HETATM    5  C   UNL     1     143.952 -25.637  69.512  1.00  0.00     0.037 C 
HETATM    6  C   UNL     1     143.609 -26.301  72.212  1.00  0.00     0.007 C 
ENDROOT
BRANCH   6   7
HETATM    7  C   UNL     1     143.279 -25.919  73.603  1.00  0.00     0.061 C 
HETATM    8  O   UNL     1     141.927 -25.745  73.965  1.00  0.00    -0.351 OA
HETATM    9  C   UNL     1     141.899 -25.444  75.361  1.00  0.00     0.218 C 
HETATM   10  C   UNL     1     143.243 -24.815  75.715  1.00  0.00     0.112 C 
HETATM   11  C   UNL     1     144.189 -25.283  74.598  1.00  0.00     0.110 C 
BRANCH  10  12
HETATM   12  O   UNL     1     143.740 -25.311  76.965  1.00  0.00    -0.382 OA
ATOM     13  HO  UNL     1     144.649 -25.563  76.848  1.00  0.00     0.211 HD
ENDBRANCH  10  12
BRANCH  10  14
HETATM   14  C   UNL     1     143.194 -23.284  75.758  1.00  0.00    -0.022 C 
HETATM   15  C   UNL     1     142.409 -22.586  74.803  1.00  0.00     0.010 C 
HETATM   16  C   UNL     1     142.324 -21.228  74.541  1.00  0.00     0.001 C 
HETATM   17  C   UNL     1     142.921 -20.146  75.190  1.00  0.00     0.000 C 
HETATM   18  C   UNL     1     143.858 -20.152  76.218  1.00  0.00     0.000 C 
HETATM   19  C   UNL     1     144.330 -21.288  76.863  1.00  0.00     0.001 C 
HETATM   20  C   UNL     1     143.930 -22.609  76.740  1.00  0.00     0.010 C 
ENDBRANCH  10  14
ENDBRANCH   6   7
BRANCH   2  21
HETATM   21  C   UNL     1     141.619 -27.825  71.558  1.00  0.00    -0.021 C 
HETATM   22  C   UNL     1     141.861 -28.821  72.538  1.00  0.00     0.023 C 
HETATM   23  C   UNL     1     141.035 -29.965  72.588  1.00  0.00    -0.037 C 
HETATM   24  C   UNL     1     139.767 -29.936  71.981  1.00  0.00     0.011 C 
HETATM   25  C   UNL     1     139.456 -28.893  71.112  1.00  0.00     0.002 C 
HETATM   26  C   UNL     1     140.372 -27.856  70.896  1.00  0.00     0.012 C 
BRANCH  23  27
HETATM   27  C   UNL     1     141.577 -31.250  73.187  1.00  0.00     0.016 C 
BRANCH  27  28
HETATM   28  C   UNL     1     142.578 -31.356  74.321  1.00  0.00     0.203 C 
HETATM   29  C   UNL     1     143.390 -32.618  74.308  1.00  0.00     0.044 C 
BRANCH  28  30
HETATM   30  N   UNL     1     141.989 -31.133  75.638  1.00  0.00    -0.072 N 
ATOM     31  HN3 UNL     1     141.726 -32.019  76.071  1.00  0.00     0.275 HD
ATOM     32  HN2 UNL     1     142.697 -30.824  76.304  1.00  0.00     0.275 HD
ATOM     33  HN1 UNL     1     141.199 -30.488  75.625  1.00  0.00     0.275 HD
ENDBRANCH  28  30
ENDBRANCH  27  28
ENDBRANCH  23  27
ENDBRANCH   2  21
BRANCH   3  34
HETATM   34  O   UNL     1     141.598 -26.115  69.169  1.00  0.00    -0.360 OA
ATOM     35  HO  UNL     1     140.798 -26.528  69.472  1.00  0.00     0.217 HD
ENDBRANCH   3  34
TORSDOF 8
ENDMDL
MODEL 4
REMARK VINA RESULT:     -10.6      2.648      5.374
REMARK  8 active torsions:
REMARK  status: ('A' for Active; 'I' for Inactive)
REMARK    1  A    between atoms: C_2  and  C_16 
REMARK    2  A    between atoms: C_4  and  C_33 
REMARK    3  A    between atoms: C_7  and  O_18 
REMARK    4  A    between atoms: C_7  and  C_35 
REMARK    5  A    between atoms: O_8  and  C_15 
REMARK    6  A    between atoms: C_12  and  C_13 
REMARK    7  A    between atoms: C_14  and  C_16 
REMARK    8  A    between atoms: C_14  and  N_26 
ROOT
HETATM    1  C   UNL     1     143.733 -24.732  76.614  1.00  0.00     0.015 C 
HETATM    2  C   UNL     1     143.291 -24.437  74.215  1.00  0.00     0.020 C 
HETATM    3  C   UNL     1     142.850 -23.094  74.477  1.00  0.00     0.077 C 
HETATM    4  C   UNL     1     143.459 -23.358  76.833  1.00  0.00     0.004 C 
HETATM    5  C   UNL     1     142.993 -22.553  75.780  1.00  0.00     0.037 C 
HETATM    6  C   UNL     1     143.305 -25.308  75.384  1.00  0.00     0.007 C 
ENDROOT
BRANCH   6   7
HETATM    7  C   UNL     1     142.760 -26.684  75.397  1.00  0.00     0.061 C 
HETATM    8  O   UNL     1     143.611 -27.762  75.075  1.00  0.00    -0.351 OA
HETATM    9  C   UNL     1     142.849 -28.960  75.225  1.00  0.00     0.218 C 
HETATM   10  C   UNL     1     141.382 -28.593  75.022  1.00  0.00     0.112 C 
HETATM   11  C   UNL     1     141.326 -27.082  75.299  1.00  0.00     0.110 C 
BRANCH  10  12
HETATM   12  O   UNL     1     140.538 -29.257  75.972  1.00  0.00    -0.382 OA
ATOM     13  HO  UNL     1     140.880 -29.092  76.843  1.00  0.00     0.211 HD
ENDBRANCH  10  12
BRANCH  10  14
HETATM   14  C   UNL     1     140.882 -28.888  73.604  1.00  0.00    -0.022 C 
HETATM   15  C   UNL     1     140.128 -27.903  72.912  1.00  0.00     0.010 C 
HETATM   16  C   UNL     1     139.447 -27.985  71.709  1.00  0.00     0.001 C 
HETATM   17  C   UNL     1     139.370 -29.029  70.786  1.00  0.00     0.000 C 
HETATM   18  C   UNL     1     139.875 -30.322  70.886  1.00  0.00     0.000 C 
HETATM   19  C   UNL     1     140.646 -30.801  71.936  1.00  0.00     0.001 C 
HETATM   20  C   UNL     1     141.179 -30.127  73.024  1.00  0.00     0.010 C 
ENDBRANCH  10  14
ENDBRANCH   6   7
BRANCH   2  21
HETATM   21  C   UNL     1     143.689 -24.876  72.859  1.00  0.00    -0.021 C 
HETATM   22  C   UNL     1     142.759 -24.893  71.788  1.00  0.00     0.023 C 
HETATM   23  C   UNL     1     143.067 -25.605  70.609  1.00  0.00    -0.037 C 
HETATM   24  C   UNL     1     144.404 -25.934  70.322  1.00  0.00     0.011 C 
HETATM   25  C   UNL     1     145.364 -25.800  71.323  1.00  0.00     0.002 C 
HETATM   26  C   UNL     1     145.011 -25.286  72.577  1.00  0.00     0.012 C 
BRANCH  23  27
HETATM   27  C   UNL     1     141.940 -26.115  69.730  1.00  0.00     0.016 C 
BRANCH  27  28
HETATM   28  C   UNL     1     141.231 -25.334  68.641  1.00  0.00     0.203 C 
HETATM   29  C   UNL     1     142.135 -24.850  67.545  1.00  0.00     0.044 C 
BRANCH  28  30
HETATM   30  N   UNL     1     140.407 -24.243  69.151  1.00  0.00    -0.072 N 
ATOM     31  HN3 UNL     1     140.780 -23.890  70.032  1.00  0.00     0.275 HD
ATOM     32  HN2 UNL     1     140.514 -23.408  68.575  1.00  0.00     0.275 HD
ATOM     33  HN1 UNL     1     139.422 -24.490  69.249  1.00  0.00     0.275 HD
ENDBRANCH  28  30
ENDBRANCH  27  28
ENDBRANCH  23  27
ENDBRANCH   2  21
BRANCH   3  34
HETATM   34  O   UNL     1     142.275 -22.374  73.469  1.00  0.00    -0.360 OA
ATOM     35  HO  UNL     1     142.473 -21.448  73.391  1.00  0.00     0.217 HD
ENDBRANCH   3  34
TORSDOF 8
ENDMDL
MODEL 5
REMARK VINA RESULT:     -10.4      2.521      4.915
REMARK  8 active torsions:
REMARK  status: ('A' for Active; 'I' for Inactive)
REMARK    1  A    between atoms: C_2  and  C_16 
REMARK    2  A    between atoms: C_4  and  C_33 
REMARK    3  A    between atoms: C_7  and  O_18 
REMARK    4  A    between atoms: C_7  and  C_35 
REMARK    5  A    between atoms: O_8  and  C_15 
REMARK    6  A    between atoms: C_12  and  C_13 
REMARK    7  A    between atoms: C_14  and  C_16 
REMARK    8  A    between atoms: C_14  and  N_26 
ROOT
HETATM    1  C   UNL     1     143.488 -26.852  76.144  1.00  0.00     0.015 C 
HETATM    2  C   UNL     1     143.273 -25.640  74.018  1.00  0.00     0.020 C 
HETATM    3  C   UNL     1     143.213 -24.402  74.746  1.00  0.00     0.077 C 
HETATM    4  C   UNL     1     143.599 -25.619  76.835  1.00  0.00     0.004 C 
HETATM    5  C   UNL     1     143.433 -24.405  76.148  1.00  0.00     0.037 C 
HETATM    6  C   UNL     1     142.981 -26.826  74.814  1.00  0.00     0.007 C 
ENDROOT
BRANCH   6   7
HETATM    7  C   UNL     1     142.071 -27.911  74.380  1.00  0.00     0.061 C 
HETATM    8  O   UNL     1     141.337 -28.620  75.352  1.00  0.00    -0.351 OA
HETATM    9  C   UNL     1     140.508 -29.553  74.658  1.00  0.00     0.218 C 
HETATM   10  C   UNL     1     141.186 -29.856  73.325  1.00  0.00     0.112 C 
HETATM   11  C   UNL     1     142.116 -28.655  73.089  1.00  0.00     0.110 C 
BRANCH  10  12
HETATM   12  O   UNL     1     140.235 -29.908  72.253  1.00  0.00    -0.382 OA
ATOM     13  HO  UNL     1     140.029 -29.019  71.992  1.00  0.00     0.211 HD
ENDBRANCH  10  12
BRANCH  10  14
HETATM   14  C   UNL     1     141.998 -31.155  73.349  1.00  0.00    -0.022 C 
HETATM   15  C   UNL     1     142.747 -31.486  74.509  1.00  0.00     0.010 C 
HETATM   16  C   UNL     1     143.664 -32.504  74.717  1.00  0.00     0.001 C 
HETATM   17  C   UNL     1     144.059 -33.547  73.877  1.00  0.00     0.000 C 
HETATM   18  C   UNL     1     143.711 -33.779  72.550  1.00  0.00     0.000 C 
HETATM   19  C   UNL     1     142.808 -33.023  71.816  1.00  0.00     0.001 C 
HETATM   20  C   UNL     1     141.984 -31.985  72.221  1.00  0.00     0.010 C 
ENDBRANCH  10  14
ENDBRANCH   6   7
BRANCH   2  21
HETATM   21  C   UNL     1     143.603 -25.680  72.575  1.00  0.00    -0.021 C 
HETATM   22  C   UNL     1     142.613 -25.446  71.587  1.00  0.00     0.023 C 
HETATM   23  C   UNL     1     142.870 -25.800  70.245  1.00  0.00    -0.037 C 
HETATM   24  C   UNL     1     144.196 -25.984  69.815  1.00  0.00     0.011 C 
HETATM   25  C   UNL     1     145.208 -26.086  70.766  1.00  0.00     0.002 C 
HETATM   26  C   UNL     1     144.916 -25.945  72.128  1.00  0.00     0.012 C 
BRANCH  23  27
HETATM   27  C   UNL     1     141.707 -26.100  69.317  1.00  0.00     0.016 C 
BRANCH  27  28
HETATM   28  C   UNL     1     141.126 -25.160  68.278  1.00  0.00     0.203 C 
HETATM   29  C   UNL     1     142.131 -24.636  67.295  1.00  0.00     0.044 C 
BRANCH  28  30
HETATM   30  N   UNL     1     140.348 -24.068  68.854  1.00  0.00    -0.072 N 
ATOM     31  HN3 UNL     1     140.934 -23.478  69.445  1.00  0.00     0.275 HD
ATOM     32  HN2 UNL     1     140.092 -23.388  68.137  1.00  0.00     0.275 HD
ATOM     33  HN1 UNL     1     139.522 -24.383  69.363  1.00  0.00     0.275 HD
ENDBRANCH  28  30
ENDBRANCH  27  28
ENDBRANCH  23  27
ENDBRANCH   2  21
BRANCH   3  34
HETATM   34  O   UNL     1     142.917 -23.250  74.077  1.00  0.00    -0.360 OA
ATOM     35  HO  UNL     1     143.533 -22.527  74.106  1.00  0.00     0.217 HD
ENDBRANCH   3  34
TORSDOF 8
ENDMDL
MODEL 6
REMARK VINA RESULT:      -9.8      3.007      7.981
REMARK  8 active torsions:
REMARK  status: ('A' for Active; 'I' for Inactive)
REMARK    1  A    between atoms: C_2  and  C_16 
REMARK    2  A    between atoms: C_4  and  C_33 
REMARK    3  A    between atoms: C_7  and  O_18 
REMARK    4  A    between atoms: C_7  and  C_35 
REMARK    5  A    between atoms: O_8  and  C_15 
REMARK    6  A    between atoms: C_12  and  C_13 
REMARK    7  A    between atoms: C_14  and  C_16 
REMARK    8  A    between atoms: C_14  and  N_26 
ROOT
HETATM    1  C   UNL     1     144.243 -25.531  72.384  1.00  0.00     0.015 C 
HETATM    2  C   UNL     1     142.509 -27.201  72.872  1.00  0.00     0.020 C 
HETATM    3  C   UNL     1     142.122 -27.182  71.487  1.00  0.00     0.077 C 
HETATM    4  C   UNL     1     143.966 -25.647  70.998  1.00  0.00     0.004 C 
HETATM    5  C   UNL     1     142.895 -26.443  70.555  1.00  0.00     0.037 C 
HETATM    6  C   UNL     1     143.281 -26.042  73.301  1.00  0.00     0.007 C 
ENDROOT
BRANCH   6   7
HETATM    7  C   UNL     1     143.015 -25.285  74.545  1.00  0.00     0.061 C 
HETATM    8  O   UNL     1     141.685 -24.946  74.870  1.00  0.00    -0.351 OA
HETATM    9  C   UNL     1     141.716 -24.283  76.135  1.00  0.00     0.218 C 
HETATM   10  C   UNL     1     143.100 -23.658  76.284  1.00  0.00     0.112 C 
HETATM   11  C   UNL     1     143.986 -24.458  75.316  1.00  0.00     0.110 C 
BRANCH  10  12
HETATM   12  O   UNL     1     143.612 -23.829  77.612  1.00  0.00    -0.382 OA
ATOM     13  HO  UNL     1     143.052 -24.443  78.073  1.00  0.00     0.211 HD
ENDBRANCH  10  12
BRANCH  10  14
HETATM   14  C   UNL     1     143.127 -22.171  75.917  1.00  0.00    -0.022 C 
HETATM   15  C   UNL     1     142.141 -21.653  75.035  1.00  0.00     0.010 C 
HETATM   16  C   UNL     1     142.044 -20.406  74.441  1.00  0.00     0.001 C 
HETATM   17  C   UNL     1     142.838 -19.268  74.596  1.00  0.00     0.000 C 
HETATM   18  C   UNL     1     144.018 -19.120  75.318  1.00  0.00     0.000 C 
HETATM   19  C   UNL     1     144.602 -20.100  76.109  1.00  0.00     0.001 C 
HETATM   20  C   UNL     1     144.129 -21.356  76.458  1.00  0.00     0.010 C 
ENDBRANCH  10  14
ENDBRANCH   6   7
BRANCH   2  21
HETATM   21  C   UNL     1     142.138 -28.319  73.769  1.00  0.00    -0.021 C 
HETATM   22  C   UNL     1     142.918 -29.501  73.834  1.00  0.00     0.023 C 
HETATM   23  C   UNL     1     142.381 -30.658  74.439  1.00  0.00    -0.037 C 
HETATM   24  C   UNL     1     141.291 -30.542  75.320  1.00  0.00     0.011 C 
HETATM   25  C   UNL     1     140.587 -29.341  75.371  1.00  0.00     0.002 C 
HETATM   26  C   UNL     1     140.999 -28.247  74.600  1.00  0.00     0.012 C 
BRANCH  23  27
HETATM   27  C   UNL     1     142.906 -32.023  74.034  1.00  0.00     0.016 C 
BRANCH  27  28
HETATM   28  C   UNL     1     142.470 -32.825  72.822  1.00  0.00     0.203 C 
HETATM   29  C   UNL     1     143.588 -33.552  72.133  1.00  0.00     0.044 C 
BRANCH  28  30
HETATM   30  N   UNL     1     141.688 -32.050  71.864  1.00  0.00    -0.072 N 
ATOM     31  HN3 UNL     1     141.887 -31.054  71.957  1.00  0.00     0.275 HD
ATOM     32  HN2 UNL     1     142.027 -32.202  70.914  1.00  0.00     0.275 HD
ATOM     33  HN1 UNL     1     140.685 -32.227  71.922  1.00  0.00     0.275 HD
ENDBRANCH  28  30
ENDBRANCH  27  28
ENDBRANCH  23  27
ENDBRANCH   2  21
BRANCH   3  34
HETATM   34  O   UNL     1     140.998 -27.854  71.101  1.00  0.00    -0.360 OA
ATOM     35  HO  UNL     1     140.958 -28.225  70.228  1.00  0.00     0.217 HD
ENDBRANCH   3  34
TORSDOF 8
ENDMDL
MODEL 7
REMARK VINA RESULT:      -9.6      3.084      7.485
REMARK  8 active torsions:
REMARK  status: ('A' for Active; 'I' for Inactive)
REMARK    1  A    between atoms: C_2  and  C_16 
REMARK    2  A    between atoms: C_4  and  C_33 
REMARK    3  A    between atoms: C_7  and  O_18 
REMARK    4  A    between atoms: C_7  and  C_35 
REMARK    5  A    between atoms: O_8  and  C_15 
REMARK    6  A    between atoms: C_12  and  C_13 
REMARK    7  A    between atoms: C_14  and  C_16 
REMARK    8  A    between atoms: C_14  and  N_26 
ROOT
HETATM    1  C   UNL     1     144.914 -25.637  71.939  1.00  0.00     0.015 C 
HETATM    2  C   UNL     1     142.848 -26.824  72.538  1.00  0.00     0.020 C 
HETATM    3  C   UNL     1     142.405 -26.710  71.175  1.00  0.00     0.077 C 
HETATM    4  C   UNL     1     144.544 -25.683  70.572  1.00  0.00     0.004 C 
HETATM    5  C   UNL     1     143.287 -26.187  70.195  1.00  0.00     0.037 C 
HETATM    6  C   UNL     1     143.905 -25.892  72.911  1.00  0.00     0.007 C 
ENDROOT
BRANCH   6   7
HETATM    7  C   UNL     1     143.901 -25.091  74.156  1.00  0.00     0.061 C 
HETATM    8  O   UNL     1     143.446 -25.686  75.352  1.00  0.00    -0.351 OA
HETATM    9  C   UNL     1     143.607 -24.720  76.391  1.00  0.00     0.218 C 
HETATM   10  C   UNL     1     143.565 -23.341  75.739  1.00  0.00     0.112 C 
HETATM   11  C   UNL     1     143.921 -23.605  74.267  1.00  0.00     0.110 C 
BRANCH  10  12
HETATM   12  O   UNL     1     144.556 -22.467  76.294  1.00  0.00    -0.382 OA
ATOM     13  HO  UNL     1     144.258 -22.180  77.150  1.00  0.00     0.211 HD
ENDBRANCH  10  12
BRANCH  10  14
HETATM   14  C   UNL     1     142.188 -22.676  75.837  1.00  0.00    -0.022 C 
HETATM   15  C   UNL     1     141.122 -23.370  76.469  1.00  0.00     0.010 C 
HETATM   16  C   UNL     1     139.776 -23.055  76.546  1.00  0.00     0.001 C 
HETATM   17  C   UNL     1     139.086 -21.927  76.098  1.00  0.00     0.000 C 
HETATM   18  C   UNL     1     139.560 -20.855  75.348  1.00  0.00     0.000 C 
HETATM   19  C   UNL     1     140.880 -20.672  74.959  1.00  0.00     0.001 C 
HETATM   20  C   UNL     1     142.012 -21.396  75.296  1.00  0.00     0.010 C 
ENDBRANCH  10  14
ENDBRANCH   6   7
BRANCH   2  21
HETATM   21  C   UNL     1     142.258 -27.813  73.469  1.00  0.00    -0.021 C 
HETATM   22  C   UNL     1     142.868 -29.075  73.684  1.00  0.00     0.023 C 
HETATM   23  C   UNL     1     142.135 -30.105  74.312  1.00  0.00    -0.037 C 
HETATM   24  C   UNL     1     140.999 -29.785  75.078  1.00  0.00     0.011 C 
HETATM   25  C   UNL     1     140.457 -28.505  74.983  1.00  0.00     0.002 C 
HETATM   26  C   UNL     1     141.072 -27.534  74.183  1.00  0.00     0.012 C 
BRANCH  23  27
HETATM   27  C   UNL     1     142.507 -31.552  74.049  1.00  0.00     0.016 C 
BRANCH  27  28
HETATM   28  C   UNL     1     142.089 -32.380  72.849  1.00  0.00     0.203 C 
HETATM   29  C   UNL     1     143.207 -33.159  72.221  1.00  0.00     0.044 C 
BRANCH  28  30
HETATM   30  N   UNL     1     141.362 -31.614  71.841  1.00  0.00    -0.072 N 
ATOM     31  HN3 UNL     1     141.999 -31.259  71.128  1.00  0.00     0.275 HD
ATOM     32  HN2 UNL     1     140.787 -32.228  71.265  1.00  0.00     0.275 HD
ATOM     33  HN1 UNL     1     140.800 -30.858  72.233  1.00  0.00     0.275 HD
ENDBRANCH  28  30
ENDBRANCH  27  28
ENDBRANCH  23  27
ENDBRANCH   2  21
BRANCH   3  34
HETATM   34  O   UNL     1     141.131 -27.082  70.856  1.00  0.00    -0.360 OA
ATOM     35  HO  UNL     1     140.955 -27.436  69.992  1.00  0.00     0.217 HD
ENDBRANCH   3  34
TORSDOF 8
ENDMDL
