REMARK  4 active torsions:
REMARK  status: ('A' for Active; 'I' for Inactive)
REMARK    1  A    between atoms: O_2  and  C_29 
REMARK    2  A    between atoms: C_11  and  C_12 
REMARK    3  A    between atoms: C_11  and  C_24 
REMARK    4  A    between atoms: C_21  and  C_30 
ROOT
HETATM    1  C   UNL     1      24.161  52.890  16.710  1.00  0.00    -0.035 C 
HETATM    2  C   UNL     1      25.831  51.136  16.757  1.00  0.00     0.019 C 
HETATM    3  C   UNL     1      23.806  54.310  16.290  1.00  0.00     0.011 C 
HETATM    4  C   UNL     1      25.175  52.173  16.067  1.00  0.00    -0.028 C 
HETATM    5  C   UNL     1      25.224  53.808  14.266  1.00  0.00     0.009 C 
HETATM    6  C   UNL     1      22.284  54.430  16.185  1.00  0.00     0.025 C 
HETATM    7  C   UNL     1      25.559  52.547  14.763  1.00  0.00     0.012 C 
HETATM    8  C   UNL     1      24.476  56.741  16.991  1.00  0.00     0.006 C 
HETATM    9  C   UNL     1      24.424  54.700  14.948  1.00  0.00    -0.042 C 
HETATM   10  C   UNL     1      24.311  55.275  17.369  1.00  0.00     0.019 C 
HETATM   11  C   UNL     1      24.751  57.123  15.544  1.00  0.00     0.036 C 
HETATM   12  C   UNL     1      25.223  50.606  17.904  1.00  0.00    -0.053 C 
HETATM   13  C   UNL     1      23.477  52.257  17.749  1.00  0.00     0.010 C 
HETATM   14  C   UNL     1      23.974  51.070  18.284  1.00  0.00     0.008 C 
HETATM   15  C   UNL     1      24.283  56.086  14.555  1.00  0.00    -0.064 C 
ENDROOT
BRANCH  12  16
HETATM   16  C   UNL     1      25.836  49.445  18.693  1.00  0.00     0.080 C 
BRANCH  16  17
HETATM   17  C   UNL     1      25.778  49.613  20.191  1.00  0.00    -0.021 C 
HETATM   18  C   UNL     1      24.903  48.919  21.030  1.00  0.00     0.010 C 
HETATM   19  C   UNL     1      25.322  48.655  22.340  1.00  0.00     0.001 C 
HETATM   20  C   UNL     1      26.649  48.942  22.694  1.00  0.00     0.003 C 
HETATM   21  C   UNL     1      27.292  49.984  22.010  1.00  0.00     0.037 C 
HETATM   22  C   UNL     1      26.674  50.485  20.851  1.00  0.00     0.072 C 
BRANCH  22  23
HETATM   23  O   UNL     1      26.889  51.700  20.428  1.00  0.00    -0.360 OA
ATOM     24  HO  UNL     1      27.491  52.286  20.871  1.00  0.00     0.217 HD
ENDBRANCH  22  23
ENDBRANCH  16  17
ENDBRANCH  12  16
BRANCH  15  25
HETATM   25  C   UNL     1      23.857  56.544  13.166  1.00  0.00    -0.020 C 
HETATM   26  C   UNL     1      22.802  55.615  12.582  1.00  0.00     0.020 C 
HETATM   27  C   UNL     1      25.094  56.542  12.284  1.00  0.00     0.013 C 
HETATM   28  C   UNL     1      24.967  57.192  10.923  1.00  0.00     0.001 C 
HETATM   29  C   UNL     1      24.024  58.353  10.765  1.00  0.00     0.000 C 
HETATM   30  C   UNL     1      23.072  58.659  11.895  1.00  0.00     0.001 C 
HETATM   31  C   UNL     1      23.295  57.966  13.227  1.00  0.00     0.013 C 
ENDBRANCH  15  25
TORSDOF 4
