REMARK  13 active torsions:
REMARK  status: ('A' for Active; 'I' for Inactive)
REMARK    1  A    between atoms: O_3  and  C_18 
REMARK    2  A    between atoms: O_3  and  C_26 
REMARK       I    between atoms: C_4  and  N_11 
REMARK    3  A    between atoms: C_4  and  C_18 
REMARK    4  A    between atoms: C_5  and  C_25 
REMARK    5  A    between atoms: C_9  and  C_25 
REMARK    6  A    between atoms: C_9  and  N_36 
REMARK    7  A    between atoms: O_16  and  C_31 
REMARK    8  A    between atoms: C_18  and  C_38 
REMARK    9  A    between atoms: C_19  and  C_38 
REMARK       I    between atoms: C_20  and  N_22 
REMARK       I    between atoms: C_20  and  N_36 
REMARK   10  A    between atoms: N_22  and  C_26 
REMARK   11  A    between atoms: C_26  and  C_34 
REMARK   12  A    between atoms: O_28  and  C_38 
REMARK   13  A    between atoms: C_33  and  C_40 
ROOT
HETATM    1  C   UNL     1     -12.185 -22.982  34.126  1.00  0.00     0.322 C 
HETATM    2  N   UNL     1     -11.110 -22.444  33.498  1.00  0.00    -0.288 N 
ATOM      3  HN  UNL     1     -10.983 -21.436  33.592  1.00  0.00     0.172 HD
HETATM    4  O   UNL     1     -13.285 -22.424  34.048  1.00  0.00    -0.247 OA
HETATM    5  N   UNL     1     -11.973 -24.102  34.849  1.00  0.00    -0.343 N 
ATOM      6  HN  UNL     1     -11.024 -24.470  34.919  1.00  0.00     0.164 HD
ENDROOT
BRANCH   2   7
HETATM    7  C   UNL     1     -10.162 -23.122  32.739  1.00  0.00     0.157 C 
BRANCH   7   8
HETATM    8  O   UNL     1      -9.679 -22.480  31.594  1.00  0.00    -0.317 OA
BRANCH   8   9
HETATM    9  C   UNL     1     -10.383 -22.219  30.396  1.00  0.00     0.261 C 
BRANCH   9  10
HETATM   10  C   UNL     1     -10.013 -23.141  29.251  1.00  0.00     0.248 C 
HETATM   11  N   UNL     1      -9.594 -24.351  29.547  1.00  0.00    -0.368 N 
ATOM     12  HN2 UNL     1      -9.466 -24.634  30.519  1.00  0.00     0.159 HD
ATOM     13  HN1 UNL     1      -9.345 -24.971  28.777  1.00  0.00     0.159 HD
HETATM   14  O   UNL     1     -10.167 -22.801  28.082  1.00  0.00    -0.271 OA
ENDBRANCH   9  10
BRANCH   9  15
HETATM   15  C   UNL     1     -11.880 -22.417  30.566  1.00  0.00     0.257 C 
BRANCH  15  16
HETATM   16  C   UNL     1     -12.449 -23.789  30.310  1.00  0.00     0.206 C 
HETATM   17  O   UNL     1     -12.677 -23.983  29.137  1.00  0.00    -0.646 OA
HETATM   18  O   UNL     1     -12.602 -24.641  31.178  1.00  0.00    -0.646 OA
ENDBRANCH  15  16
BRANCH  15  19
HETATM   19  O   UNL     1     -12.691 -21.442  31.198  1.00  0.00    -0.382 OA
ATOM     20  HO  UNL     1     -13.627 -21.566  31.304  1.00  0.00     0.210 HD
ENDBRANCH  15  19
ENDBRANCH   9  15
ENDBRANCH   8   9
ENDBRANCH   7   8
BRANCH   7  21
HETATM   21  C   UNL     1      -9.741 -24.533  32.979  1.00  0.00     0.015 A 
HETATM   22  C   UNL     1     -10.382 -25.610  32.344  1.00  0.00     0.016 A 
HETATM   23  C   UNL     1      -9.962 -26.911  32.582  1.00  0.00     0.001 A 
HETATM   24  C   UNL     1      -8.844 -27.147  33.374  1.00  0.00     0.000 A 
HETATM   25  C   UNL     1      -8.227 -26.094  34.027  1.00  0.00     0.001 A 
HETATM   26  C   UNL     1      -8.655 -24.777  33.831  1.00  0.00     0.016 A 
ENDBRANCH   7  21
ENDBRANCH   2   7
BRANCH   5  27
HETATM   27  C   UNL     1     -13.059 -24.808  35.538  1.00  0.00     0.128 C 
BRANCH  27  28
HETATM   28  C   UNL     1     -13.058 -24.578  37.043  1.00  0.00     0.046 C 
BRANCH  28  29
HETATM   29  C   UNL     1     -11.724 -24.502  37.690  1.00  0.00    -0.029 C 
HETATM   30  C   UNL     1     -10.604 -23.921  37.658  1.00  0.00    -0.025 C 
BRANCH  30  31
HETATM   31  C   UNL     1      -9.499 -23.554  38.617  1.00  0.00     0.016 C 
HETATM   32  C   UNL     1     -10.065 -22.721  39.791  1.00  0.00     0.048 C 
HETATM   33  C   UNL     1     -10.144 -23.744  40.890  1.00  0.00    -0.051 C 
HETATM   34  C   UNL     1      -9.390 -24.875  40.574  1.00  0.00    -0.049 C 
HETATM   35  C   UNL     1     -10.874 -23.711  42.075  1.00  0.00     0.010 C 
HETATM   36  C   UNL     1      -9.161 -25.841  41.541  1.00  0.00     0.044 C 
HETATM   37  C   UNL     1      -8.825 -24.799  39.192  1.00  0.00     0.048 C 
HETATM   38  C   UNL     1      -9.575 -25.604  42.854  1.00  0.00     0.066 C 
HETATM   39  C   UNL     1     -10.529 -24.612  43.091  1.00  0.00     0.037 C 
BRANCH  38  40
HETATM   40  O   UNL     1      -8.757 -25.982  43.872  1.00  0.00    -0.361 OA
ATOM     41  HO  UNL     1      -9.039 -25.821  44.765  1.00  0.00     0.217 HD
ENDBRANCH  38  40
ENDBRANCH  30  31
ENDBRANCH  28  29
ENDBRANCH  27  28
ENDBRANCH   5  27
TORSDOF 13
