REMARK  2 active torsions:
REMARK  status: ('A' for Active; 'I' for Inactive)
REMARK    1  A    between atoms: C_5  and  C_29 
REMARK    2  A    between atoms: C_5  and  C_34 
ROOT
HETATM    1  C   UNL     1      22.565   6.942   0.753  1.00  0.00     0.107 C 
HETATM    2  C   UNL     1      23.605   8.523   2.297  1.00  0.00     0.033 C 
HETATM    3  C   UNL     1      23.738   7.686   3.399  1.00  0.00     0.035 C 
HETATM    4  C   UNL     1      20.683   5.824   1.676  1.00  0.00     0.032 C 
HETATM    5  C   UNL     1      17.888   5.177   4.197  1.00  0.00    -0.044 C 
HETATM    6  C   UNL     1      22.934   9.887   9.443  1.00  0.00    -0.061 C 
HETATM    7  N   UNL     1      23.687   8.216   4.647  1.00  0.00    -0.342 N 
ATOM      8  HN  UNL     1      24.316   9.014   4.735  1.00  0.00     0.167 HD
HETATM    9  C   UNL     1      20.892   5.029  -1.913  1.00  0.00     0.026 C 
HETATM   10  C   UNL     1      23.717  10.041   7.143  1.00  0.00     0.016 C 
HETATM   11  C   UNL     1      20.044   5.622   5.144  1.00  0.00    -0.008 C 
HETATM   12  C   UNL     1      21.885   6.894   7.540  1.00  0.00     0.169 C 
HETATM   13  C   UNL     1      22.775   7.992   8.038  1.00  0.00    -0.025 C 
HETATM   14  N   UNL     1      22.414   6.379  -0.484  1.00  0.00    -0.370 N 
ATOM     15  HN  UNL     1      23.180   6.228  -1.141  1.00  0.00     0.161 HD
HETATM   16  C   UNL     1      23.035   5.491   2.577  1.00  0.00     0.101 C 
HETATM   17  C   UNL     1      23.041   7.982   5.793  1.00  0.00     0.119 C 
HETATM   18  C   UNL     1      19.821   4.641   6.124  1.00  0.00     0.033 C 
HETATM   19  C   UNL     1      23.148   8.173   1.041  1.00  0.00     0.051 C 
HETATM   20  C   UNL     1      20.962   6.788   5.199  1.00  0.00     0.105 C 
HETATM   21  C   UNL     1      19.573   4.336  -1.514  1.00  0.00     0.007 C 
HETATM   22  C   UNL     1      19.523   5.587   2.576  1.00  0.00    -0.018 C 
HETATM   23  C   UNL     1      23.299   8.720   6.970  1.00  0.00     0.016 C 
HETATM   24  C   UNL     1      18.539   4.033   6.144  1.00  0.00     0.011 C 
HETATM   25  C   UNL     1      23.550  10.608   8.408  1.00  0.00     0.007 C 
HETATM   26  C   UNL     1      22.454  10.572  10.692  1.00  0.00     0.048 C 
HETATM   27  C   UNL     1      20.609   5.067   0.367  1.00  0.00     0.063 C 
HETATM   28  C   UNL     1      18.235   4.535   0.819  1.00  0.00     0.015 C 
HETATM   29  C   UNL     1      17.507   4.693   5.446  1.00  0.00     0.028 C 
HETATM   30  C   UNL     1      23.969   6.314   3.216  1.00  0.00     0.047 C 
HETATM   31  C   UNL     1      19.225   5.504   4.007  1.00  0.00    -0.009 C 
HETATM   32  N   UNL     1      22.074   7.027   6.081  1.00  0.00    -0.337 N 
HETATM   33  C   UNL     1      22.803   8.500   9.326  1.00  0.00     0.016 C 
HETATM   34  C   UNL     1      17.124   5.190   2.905  1.00  0.00     0.049 C 
HETATM   35  C   UNL     1      19.227   5.024  -0.207  1.00  0.00    -0.002 C 
HETATM   36  C   UNL     1      18.149   5.685   1.867  1.00  0.00     0.026 C 
HETATM   37  N   UNL     1      22.107   6.129   1.768  1.00  0.00    -0.311 N 
HETATM   38  C   UNL     1      21.011   6.017  -0.754  1.00  0.00     0.093 C 
ENDROOT
BRANCH  24  39
HETATM   39  C   UNL     1      18.239   2.756   6.715  1.00  0.00    -0.105 C 
BRANCH  39  40
HETATM   40  C   UNL     1      17.809   1.718   7.588  1.00  0.00     0.010 C 
HETATM   41  C   UNL     1      18.485   0.488   7.607  1.00  0.00     0.020 C 
HETATM   42  C   UNL     1      17.977  -0.600   8.306  1.00  0.00     0.001 C 
HETATM   43  C   UNL     1      16.648  -0.561   8.729  1.00  0.00     0.000 C 
HETATM   44  C   UNL     1      16.114   0.703   8.996  1.00  0.00     0.001 C 
HETATM   45  C   UNL     1      16.678   1.839   8.414  1.00  0.00     0.020 C 
ENDBRANCH  39  40
ENDBRANCH  24  39
TORSDOF 2
