MODEL 1
REMARK VINA RESULT:      -7.9      0.000      0.000
REMARK  2 active torsions:
REMARK  status: ('A' for Active; 'I' for Inactive)
REMARK       I    between atoms: N_1  and  C_26 
REMARK    1  A    between atoms: C_4  and  C_26 
REMARK    2  A    between atoms: C_16  and  N_21 
REMARK       I    between atoms: N_21  and  C_25 
ROOT
HETATM    1  N   UNL     1    -150.648 -68.986  60.656  1.00  0.00    -0.308 N 
HETATM    2  C   UNL     1    -152.709 -67.728  60.555  1.00  0.00     0.075 C 
HETATM    3  C   UNL     1    -152.766 -69.956  61.446  1.00  0.00     0.195 C 
HETATM    4  O   UNL     1    -153.399 -68.693  61.243  1.00  0.00    -0.351 OA
HETATM    5  C   UNL     1    -153.145 -64.406  60.879  1.00  0.00     0.011 C 
HETATM    6  C   UNL     1    -152.785 -65.294  59.693  1.00  0.00    -0.007 C 
HETATM    7  C   UNL     1    -151.294 -67.748  60.490  1.00  0.00     0.089 C 
HETATM    8  O   UNL     1    -148.576 -68.795  59.697  1.00  0.00    -0.267 OA
HETATM    9  C   UNL     1    -151.256 -69.925  61.612  1.00  0.00     0.159 C 
HETATM   10  C   UNL     1    -150.584 -66.541  60.234  1.00  0.00     0.044 C 
HETATM   11  C   UNL     1    -151.262 -65.388  59.544  1.00  0.00     0.064 C 
HETATM   12  C   UNL     1    -153.480 -66.638  59.864  1.00  0.00     0.071 C 
HETATM   13  C   UNL     1    -149.623 -69.418  59.834  1.00  0.00     0.258 C 
ENDROOT
BRANCH  13  14
HETATM   14  C   UNL     1    -149.792 -70.718  59.096  1.00  0.00     0.032 C 
HETATM   15  C   UNL     1    -150.339 -70.702  57.827  1.00  0.00     0.017 C 
HETATM   16  C   UNL     1    -150.209 -71.725  56.854  1.00  0.00     0.007 C 
HETATM   17  C   UNL     1    -149.237 -72.738  56.911  1.00  0.00    -0.062 C 
HETATM   18  C   UNL     1    -148.263 -72.917  55.747  1.00  0.00     0.048 C 
HETATM   19  C   UNL     1    -149.132 -73.611  58.019  1.00  0.00     0.007 C 
HETATM   20  C   UNL     1    -149.112 -73.141  59.330  1.00  0.00     0.002 C 
HETATM   21  C   UNL     1    -149.399 -71.867  59.801  1.00  0.00     0.017 C 
ENDBRANCH  13  14
BRANCH  10  22
HETATM   22  N   UNL     1    -149.329 -66.373  60.781  1.00  0.00    -0.302 N 
HETATM   23  C   UNL     1    -149.171 -66.056  62.114  1.00  0.00     0.288 C 
HETATM   24  O   UNL     1    -149.425 -66.914  62.990  1.00  0.00    -0.629 OA
HETATM   25  O   UNL     1    -148.801 -64.895  62.409  1.00  0.00    -0.629 OA
ATOM     26  HN  UNL     1    -148.504 -66.486  60.191  1.00  0.00     0.171 HD
ENDBRANCH  10  22
TORSDOF 2
ENDMDL
MODEL 2
REMARK VINA RESULT:      -7.8      2.514      3.554
REMARK  2 active torsions:
REMARK  status: ('A' for Active; 'I' for Inactive)
REMARK       I    between atoms: N_1  and  C_26 
REMARK    1  A    between atoms: C_4  and  C_26 
REMARK    2  A    between atoms: C_16  and  N_21 
REMARK       I    between atoms: N_21  and  C_25 
ROOT
HETATM    1  N   UNL     1    -151.290 -70.386  59.781  1.00  0.00    -0.308 N 
HETATM    2  C   UNL     1    -150.139 -68.277  60.042  1.00  0.00     0.075 C 
HETATM    3  C   UNL     1    -150.676 -69.027  57.826  1.00  0.00     0.195 C 
HETATM    4  O   UNL     1    -150.245 -67.989  58.705  1.00  0.00    -0.351 OA
HETATM    5  C   UNL     1    -150.406 -66.049  62.551  1.00  0.00     0.011 C 
HETATM    6  C   UNL     1    -149.566 -67.310  62.367  1.00  0.00    -0.007 C 
HETATM    7  C   UNL     1    -150.881 -69.336  60.622  1.00  0.00     0.089 C 
HETATM    8  O   UNL     1    -151.682 -72.203  61.122  1.00  0.00    -0.267 OA
HETATM    9  C   UNL     1    -151.665 -70.023  58.406  1.00  0.00     0.159 C 
HETATM   10  C   UNL     1    -151.159 -69.318  62.017  1.00  0.00     0.044 C 
HETATM   11  C   UNL     1    -150.295 -68.522  62.959  1.00  0.00     0.064 C 
HETATM   12  C   UNL     1    -149.217 -67.448  60.892  1.00  0.00     0.071 C 
HETATM   13  C   UNL     1    -151.158 -71.719  60.123  1.00  0.00     0.258 C 
ENDROOT
BRANCH  13  14
HETATM   14  C   UNL     1    -150.360 -72.619  59.219  1.00  0.00     0.032 C 
HETATM   15  C   UNL     1    -150.901 -73.004  58.007  1.00  0.00     0.017 C 
HETATM   16  C   UNL     1    -150.176 -73.490  56.891  1.00  0.00     0.007 C 
HETATM   17  C   UNL     1    -148.788 -73.333  56.732  1.00  0.00    -0.062 C 
HETATM   18  C   UNL     1    -148.244 -72.631  55.489  1.00  0.00     0.048 C 
HETATM   19  C   UNL     1    -147.868 -73.814  57.692  1.00  0.00     0.007 C 
HETATM   20  C   UNL     1    -148.018 -73.554  59.053  1.00  0.00     0.002 C 
HETATM   21  C   UNL     1    -149.113 -73.025  59.722  1.00  0.00     0.017 C 
ENDBRANCH  13  14
BRANCH  10  22
HETATM   22  N   UNL     1    -152.329 -69.889  62.475  1.00  0.00    -0.302 N 
HETATM   23  C   UNL     1    -153.378 -69.107  62.913  1.00  0.00     0.288 C 
HETATM   24  O   UNL     1    -154.041 -68.439  62.087  1.00  0.00    -0.629 OA
HETATM   25  O   UNL     1    -153.617 -69.069  64.143  1.00  0.00    -0.629 OA
ATOM     26  HN  UNL     1    -152.419 -70.905  62.489  1.00  0.00     0.171 HD
ENDBRANCH  10  22
TORSDOF 2
ENDMDL
MODEL 3
REMARK VINA RESULT:      -7.8      2.471      3.288
REMARK  2 active torsions:
REMARK  status: ('A' for Active; 'I' for Inactive)
REMARK       I    between atoms: N_1  and  C_26 
REMARK    1  A    between atoms: C_4  and  C_26 
REMARK    2  A    between atoms: C_16  and  N_21 
REMARK       I    between atoms: N_21  and  C_25 
ROOT
HETATM    1  N   UNL     1    -150.291 -68.797  58.557  1.00  0.00    -0.308 N 
HETATM    2  C   UNL     1    -151.411 -67.938  60.517  1.00  0.00     0.075 C 
HETATM    3  C   UNL     1    -149.347 -69.129  60.803  1.00  0.00     0.195 C 
HETATM    4  O   UNL     1    -150.368 -68.287  61.337  1.00  0.00    -0.351 OA
HETATM    5  C   UNL     1    -153.274 -65.149  60.804  1.00  0.00     0.011 C 
HETATM    6  C   UNL     1    -153.597 -66.571  60.356  1.00  0.00    -0.007 C 
HETATM    7  C   UNL     1    -151.268 -67.951  59.108  1.00  0.00     0.089 C 
HETATM    8  O   UNL     1    -150.888 -69.181  56.378  1.00  0.00    -0.267 OA
HETATM    9  C   UNL     1    -149.046 -68.957  59.325  1.00  0.00     0.159 C 
HETATM   10  C   UNL     1    -152.125 -67.145  58.308  1.00  0.00     0.044 C 
HETATM   11  C   UNL     1    -153.460 -66.691  58.833  1.00  0.00     0.064 C 
HETATM   12  C   UNL     1    -152.719 -67.537  61.140  1.00  0.00     0.071 C 
HETATM   13  C   UNL     1    -150.529 -69.615  57.468  1.00  0.00     0.258 C 
ENDROOT
BRANCH  13  14
HETATM   14  C   UNL     1    -150.316 -71.097  57.620  1.00  0.00     0.032 C 
HETATM   15  C   UNL     1    -149.805 -71.814  56.555  1.00  0.00     0.017 C 
HETATM   16  C   UNL     1    -149.180 -73.083  56.633  1.00  0.00     0.007 C 
HETATM   17  C   UNL     1    -148.686 -73.640  57.826  1.00  0.00    -0.062 C 
HETATM   18  C   UNL     1    -147.216 -74.045  57.919  1.00  0.00     0.048 C 
HETATM   19  C   UNL     1    -149.516 -73.845  58.952  1.00  0.00     0.007 C 
HETATM   20  C   UNL     1    -150.354 -72.847  59.443  1.00  0.00     0.002 C 
HETATM   21  C   UNL     1    -150.702 -71.637  58.858  1.00  0.00     0.017 C 
ENDBRANCH  13  14
BRANCH  10  22
HETATM   22  N   UNL     1    -151.645 -66.635  57.118  1.00  0.00    -0.302 N 
HETATM   23  C   UNL     1    -152.038 -65.392  56.667  1.00  0.00     0.288 C 
HETATM   24  O   UNL     1    -151.637 -64.363  57.256  1.00  0.00    -0.629 OA
HETATM   25  O   UNL     1    -152.818 -65.335  55.687  1.00  0.00    -0.629 OA
ATOM     26  HN  UNL     1    -150.989 -67.186  56.564  1.00  0.00     0.171 HD
ENDBRANCH  10  22
TORSDOF 2
ENDMDL
MODEL 4
REMARK VINA RESULT:      -7.6      2.003      3.248
REMARK  2 active torsions:
REMARK  status: ('A' for Active; 'I' for Inactive)
REMARK       I    between atoms: N_1  and  C_26 
REMARK    1  A    between atoms: C_4  and  C_26 
REMARK    2  A    between atoms: C_16  and  N_21 
REMARK       I    between atoms: N_21  and  C_25 
ROOT
HETATM    1  N   UNL     1    -150.975 -69.129  59.657  1.00  0.00    -0.308 N 
HETATM    2  C   UNL     1    -150.723 -68.871  62.046  1.00  0.00     0.075 C 
HETATM    3  C   UNL     1    -148.781 -69.394  60.736  1.00  0.00     0.195 C 
HETATM    4  O   UNL     1    -149.356 -68.969  61.971  1.00  0.00    -0.351 OA
HETATM    5  C   UNL     1    -152.425 -66.837  64.118  1.00  0.00     0.011 C 
HETATM    6  C   UNL     1    -152.707 -68.232  63.570  1.00  0.00    -0.007 C 
HETATM    7  C   UNL     1    -151.507 -68.688  60.881  1.00  0.00     0.089 C 
HETATM    8  O   UNL     1    -152.741 -69.441  58.231  1.00  0.00    -0.267 OA
HETATM    9  C   UNL     1    -149.522 -68.980  59.477  1.00  0.00     0.159 C 
HETATM   10  C   UNL     1    -152.800 -68.102  60.989  1.00  0.00     0.044 C 
HETATM   11  C   UNL     1    -153.550 -68.140  62.293  1.00  0.00     0.064 C 
HETATM   12  C   UNL     1    -151.382 -68.961  63.394  1.00  0.00     0.071 C 
HETATM   13  C   UNL     1    -151.704 -69.858  58.736  1.00  0.00     0.258 C 
ENDROOT
BRANCH  13  14
HETATM   14  C   UNL     1    -151.192 -71.210  58.321  1.00  0.00     0.032 C 
HETATM   15  C   UNL     1    -151.196 -71.546  56.980  1.00  0.00     0.017 C 
HETATM   16  C   UNL     1    -150.414 -72.562  56.376  1.00  0.00     0.007 C 
HETATM   17  C   UNL     1    -149.284 -73.141  56.979  1.00  0.00    -0.062 C 
HETATM   18  C   UNL     1    -147.937 -73.095  56.261  1.00  0.00     0.048 C 
HETATM   19  C   UNL     1    -149.355 -73.777  58.240  1.00  0.00     0.007 C 
HETATM   20  C   UNL     1    -149.972 -73.177  59.336  1.00  0.00     0.002 C 
HETATM   21  C   UNL     1    -150.776 -72.046  59.370  1.00  0.00     0.017 C 
ENDBRANCH  13  14
BRANCH  10  22
HETATM   22  N   UNL     1    -153.281 -67.345  59.940  1.00  0.00    -0.302 N 
HETATM   23  C   UNL     1    -152.878 -66.038  59.763  1.00  0.00     0.288 C 
HETATM   24  O   UNL     1    -151.708 -65.795  59.386  1.00  0.00    -0.629 OA
HETATM   25  O   UNL     1    -153.697 -65.123  60.017  1.00  0.00    -0.629 OA
ATOM     26  HN  UNL     1    -153.945 -67.759  59.286  1.00  0.00     0.171 HD
ENDBRANCH  10  22
TORSDOF 2
ENDMDL
MODEL 5
REMARK VINA RESULT:      -7.6      2.071      2.368
REMARK  2 active torsions:
REMARK  status: ('A' for Active; 'I' for Inactive)
REMARK       I    between atoms: N_1  and  C_26 
REMARK    1  A    between atoms: C_4  and  C_26 
REMARK    2  A    between atoms: C_16  and  N_21 
REMARK       I    between atoms: N_21  and  C_25 
ROOT
HETATM    1  N   UNL     1    -151.157 -69.182  59.006  1.00  0.00    -0.308 N 
HETATM    2  C   UNL     1    -151.957 -67.736  57.243  1.00  0.00     0.075 C 
HETATM    3  C   UNL     1    -153.207 -69.720  57.758  1.00  0.00     0.195 C 
HETATM    4  O   UNL     1    -153.115 -68.458  57.099  1.00  0.00    -0.351 OA
HETATM    5  C   UNL     1    -151.698 -64.388  57.009  1.00  0.00     0.011 C 
HETATM    6  C   UNL     1    -150.760 -65.531  56.633  1.00  0.00    -0.007 C 
HETATM    7  C   UNL     1    -151.108 -67.935  58.360  1.00  0.00     0.089 C 
HETATM    8  O   UNL     1    -149.179 -69.430  60.135  1.00  0.00    -0.267 OA
HETATM    9  C   UNL     1    -152.474 -69.834  59.083  1.00  0.00     0.159 C 
HETATM   10  C   UNL     1    -150.225 -66.895  58.764  1.00  0.00     0.044 C 
HETATM   11  C   UNL     1    -149.799 -65.830  57.790  1.00  0.00     0.064 C 
HETATM   12  C   UNL     1    -151.600 -66.722  56.193  1.00  0.00     0.071 C 
HETATM   13  C   UNL     1    -150.025 -69.886  59.373  1.00  0.00     0.258 C 
ENDROOT
BRANCH  13  14
HETATM   14  C   UNL     1    -149.836 -71.278  58.834  1.00  0.00     0.032 C 
HETATM   15  C   UNL     1    -149.903 -71.483  57.469  1.00  0.00     0.017 C 
HETATM   16  C   UNL     1    -149.372 -72.595  56.770  1.00  0.00     0.007 C 
HETATM   17  C   UNL     1    -148.415 -73.472  57.308  1.00  0.00    -0.062 C 
HETATM   18  C   UNL     1    -147.085 -73.677  56.585  1.00  0.00     0.048 C 
HETATM   19  C   UNL     1    -148.647 -74.184  58.508  1.00  0.00     0.007 C 
HETATM   20  C   UNL     1    -149.120 -73.557  59.659  1.00  0.00     0.002 C 
HETATM   21  C   UNL     1    -149.639 -72.277  59.800  1.00  0.00     0.017 C 
ENDBRANCH  13  14
BRANCH  10  22
HETATM   22  N   UNL     1    -149.906 -66.770  60.101  1.00  0.00    -0.302 N 
HETATM   23  C   UNL     1    -150.721 -66.066  60.964  1.00  0.00     0.288 C 
HETATM   24  O   UNL     1    -151.836 -66.536  61.286  1.00  0.00    -0.629 OA
HETATM   25  O   UNL     1    -150.324 -64.952  61.379  1.00  0.00    -0.629 OA
ATOM     26  HN  UNL     1    -149.055 -67.206  60.457  1.00  0.00     0.171 HD
ENDBRANCH  10  22
TORSDOF 2
ENDMDL
MODEL 6
REMARK VINA RESULT:      -7.5      2.455      6.742
REMARK  2 active torsions:
REMARK  status: ('A' for Active; 'I' for Inactive)
REMARK       I    between atoms: N_1  and  C_26 
REMARK    1  A    between atoms: C_4  and  C_26 
REMARK    2  A    between atoms: C_16  and  N_21 
REMARK       I    between atoms: N_21  and  C_25 
ROOT
HETATM    1  N   UNL     1    -150.175 -69.085  60.153  1.00  0.00    -0.308 N 
HETATM    2  C   UNL     1    -150.280 -69.310  57.749  1.00  0.00     0.075 C 
HETATM    3  C   UNL     1    -149.551 -67.220  58.677  1.00  0.00     0.195 C 
HETATM    4  O   UNL     1    -149.694 -68.086  57.551  1.00  0.00    -0.351 OA
HETATM    5  C   UNL     1    -149.742 -72.060  55.883  1.00  0.00     0.011 C 
HETATM    6  C   UNL     1    -150.971 -71.523  56.611  1.00  0.00    -0.007 C 
HETATM    7  C   UNL     1    -150.282 -69.921  59.027  1.00  0.00     0.089 C 
HETATM    8  O   UNL     1    -151.024 -70.249  61.935  1.00  0.00    -0.267 OA
HETATM    9  C   UNL     1    -149.316 -67.899  60.015  1.00  0.00     0.159 C 
HETATM   10  C   UNL     1    -150.421 -71.333  59.131  1.00  0.00     0.044 C 
HETATM   11  C   UNL     1    -151.057 -72.123  58.019  1.00  0.00     0.064 C 
HETATM   12  C   UNL     1    -150.926 -70.002  56.581  1.00  0.00     0.071 C 
HETATM   13  C   UNL     1    -150.978 -69.219  61.270  1.00  0.00     0.258 C 
ENDROOT
BRANCH  13  14
HETATM   14  C   UNL     1    -151.813 -68.044  61.701  1.00  0.00     0.032 C 
HETATM   15  C   UNL     1    -152.744 -67.524  60.822  1.00  0.00     0.017 C 
HETATM   16  C   UNL     1    -153.856 -66.719  61.171  1.00  0.00     0.007 C 
HETATM   17  C   UNL     1    -154.367 -66.615  62.476  1.00  0.00    -0.062 C 
HETATM   18  C   UNL     1    -155.830 -66.965  62.746  1.00  0.00     0.048 C 
HETATM   19  C   UNL     1    -153.565 -66.187  63.560  1.00  0.00     0.007 C 
HETATM   20  C   UNL     1    -152.304 -66.728  63.802  1.00  0.00     0.002 C 
HETATM   21  C   UNL     1    -151.537 -67.547  62.985  1.00  0.00     0.017 C 
ENDBRANCH  13  14
BRANCH  10  22
HETATM   22  N   UNL     1    -149.806 -71.991  60.177  1.00  0.00    -0.302 N 
HETATM   23  C   UNL     1    -149.292 -73.261  60.015  1.00  0.00     0.288 C 
HETATM   24  O   UNL     1    -148.263 -73.429  59.321  1.00  0.00    -0.629 OA
HETATM   25  O   UNL     1    -149.896 -74.220  60.551  1.00  0.00    -0.629 OA
ATOM     26  HN  UNL     1    -149.732 -71.531  61.085  1.00  0.00     0.171 HD
ENDBRANCH  10  22
TORSDOF 2
ENDMDL
MODEL 7
REMARK VINA RESULT:      -7.4      2.898      6.638
REMARK  2 active torsions:
REMARK  status: ('A' for Active; 'I' for Inactive)
REMARK       I    between atoms: N_1  and  C_26 
REMARK    1  A    between atoms: C_4  and  C_26 
REMARK    2  A    between atoms: C_16  and  N_21 
REMARK       I    between atoms: N_21  and  C_25 
ROOT
HETATM    1  N   UNL     1    -151.175 -69.218  61.031  1.00  0.00    -0.308 N 
HETATM    2  C   UNL     1    -151.715 -68.818  58.710  1.00  0.00     0.075 C 
HETATM    3  C   UNL     1    -151.592 -66.941  60.201  1.00  0.00     0.195 C 
HETATM    4  O   UNL     1    -151.660 -67.457  58.872  1.00  0.00    -0.351 OA
HETATM    5  C   UNL     1    -150.656 -70.507  55.998  1.00  0.00     0.011 C 
HETATM    6  C   UNL     1    -151.805 -70.730  56.976  1.00  0.00    -0.007 C 
HETATM    7  C   UNL     1    -151.221 -69.693  59.708  1.00  0.00     0.089 C 
HETATM    8  O   UNL     1    -151.145 -71.055  62.401  1.00  0.00    -0.267 OA
HETATM    9  C   UNL     1    -150.846 -67.796  61.211  1.00  0.00     0.159 C 
HETATM   10  C   UNL     1    -150.823 -71.012  59.352  1.00  0.00     0.044 C 
HETATM   11  C   UNL     1    -151.363 -71.665  58.109  1.00  0.00     0.064 C 
HETATM   12  C   UNL     1    -152.311 -69.373  57.446  1.00  0.00     0.071 C 
HETATM   13  C   UNL     1    -151.614 -69.959  62.113  1.00  0.00     0.258 C 
ENDROOT
BRANCH  13  14
HETATM   14  C   UNL     1    -152.697 -69.384  62.986  1.00  0.00     0.032 C 
HETATM   15  C   UNL     1    -154.011 -69.736  62.743  1.00  0.00     0.017 C 
HETATM   16  C   UNL     1    -155.082 -69.629  63.665  1.00  0.00     0.007 C 
HETATM   17  C   UNL     1    -154.908 -69.475  65.051  1.00  0.00    -0.062 C 
HETATM   18  C   UNL     1    -155.530 -70.489  66.009  1.00  0.00     0.048 C 
HETATM   19  C   UNL     1    -154.174 -68.395  65.595  1.00  0.00     0.007 C 
HETATM   20  C   UNL     1    -152.910 -68.050  65.122  1.00  0.00     0.002 C 
HETATM   21  C   UNL     1    -152.261 -68.489  63.976  1.00  0.00     0.017 C 
ENDBRANCH  13  14
BRANCH  10  22
HETATM   22  N   UNL     1    -149.803 -71.617  60.058  1.00  0.00    -0.302 N 
HETATM   23  C   UNL     1    -149.305 -72.846  59.678  1.00  0.00     0.288 C 
HETATM   24  O   UNL     1    -148.623 -72.942  58.632  1.00  0.00    -0.629 OA
HETATM   25  O   UNL     1    -149.582 -73.843  60.385  1.00  0.00    -0.629 OA
ATOM     26  HN  UNL     1    -149.410 -71.147  60.875  1.00  0.00     0.171 HD
ENDBRANCH  10  22
TORSDOF 2
ENDMDL
MODEL 8
REMARK VINA RESULT:      -7.4      3.476      5.398
REMARK  2 active torsions:
REMARK  status: ('A' for Active; 'I' for Inactive)
REMARK       I    between atoms: N_1  and  C_26 
REMARK    1  A    between atoms: C_4  and  C_26 
REMARK    2  A    between atoms: C_16  and  N_21 
REMARK       I    between atoms: N_21  and  C_25 
ROOT
HETATM    1  N   UNL     1    -150.606 -66.573  58.388  1.00  0.00    -0.308 N 
HETATM    2  C   UNL     1    -152.329 -65.853  56.854  1.00  0.00     0.075 C 
HETATM    3  C   UNL     1    -152.186 -64.791  59.003  1.00  0.00     0.195 C 
HETATM    4  O   UNL     1    -152.707 -64.820  57.674  1.00  0.00    -0.351 OA
HETATM    5  C   UNL     1    -152.216 -65.738  53.492  1.00  0.00     0.011 C 
HETATM    6  C   UNL     1    -152.553 -66.849  54.482  1.00  0.00    -0.007 C 
HETATM    7  C   UNL     1    -151.122 -66.560  57.080  1.00  0.00     0.089 C 
HETATM    8  O   UNL     1    -149.225 -68.395  58.545  1.00  0.00    -0.267 OA
HETATM    9  C   UNL     1    -150.783 -65.346  59.180  1.00  0.00     0.159 C 
HETATM   10  C   UNL     1    -150.499 -67.249  56.002  1.00  0.00     0.044 C 
HETATM   11  C   UNL     1    -151.299 -67.672  54.800  1.00  0.00     0.064 C 
HETATM   12  C   UNL     1    -153.218 -66.226  55.701  1.00  0.00     0.071 C 
HETATM   13  C   UNL     1    -150.142 -67.721  59.003  1.00  0.00     0.258 C 
ENDROOT
BRANCH  13  14
HETATM   14  C   UNL     1    -150.772 -68.146  60.302  1.00  0.00     0.032 C 
HETATM   15  C   UNL     1    -152.065 -68.634  60.292  1.00  0.00     0.017 C 
HETATM   16  C   UNL     1    -152.660 -69.430  61.302  1.00  0.00     0.007 C 
HETATM   17  C   UNL     1    -151.929 -70.117  62.287  1.00  0.00    -0.062 C 
HETATM   18  C   UNL     1    -152.088 -71.630  62.428  1.00  0.00     0.048 C 
HETATM   19  C   UNL     1    -151.047 -69.446  63.166  1.00  0.00     0.007 C 
HETATM   20  C   UNL     1    -150.097 -68.538  62.706  1.00  0.00     0.002 C 
HETATM   21  C   UNL     1    -149.975 -67.971  61.444  1.00  0.00     0.017 C 
ENDBRANCH  13  14
BRANCH  10  22
HETATM   22  N   UNL     1    -149.124 -67.365  55.989  1.00  0.00    -0.302 N 
HETATM   23  C   UNL     1    -148.328 -66.339  55.524  1.00  0.00     0.288 C 
HETATM   24  O   UNL     1    -148.220 -65.286  56.193  1.00  0.00    -0.629 OA
HETATM   25  O   UNL     1    -147.754 -66.485  54.419  1.00  0.00    -0.629 OA
ATOM     26  HN  UNL     1    -148.689 -68.224  56.328  1.00  0.00     0.171 HD
ENDBRANCH  10  22
TORSDOF 2
ENDMDL
MODEL 9
REMARK VINA RESULT:      -7.3      3.335      3.928
REMARK  2 active torsions:
REMARK  status: ('A' for Active; 'I' for Inactive)
REMARK       I    between atoms: N_1  and  C_26 
REMARK    1  A    between atoms: C_4  and  C_26 
REMARK    2  A    between atoms: C_16  and  N_21 
REMARK       I    between atoms: N_21  and  C_25 
ROOT
HETATM    1  N   UNL     1    -151.061 -68.871  57.907  1.00  0.00    -0.308 N 
HETATM    2  C   UNL     1    -152.324 -68.414  55.897  1.00  0.00     0.075 C 
HETATM    3  C   UNL     1    -153.356 -69.713  57.632  1.00  0.00     0.195 C 
HETATM    4  O   UNL     1    -153.465 -68.969  56.419  1.00  0.00    -0.351 OA
HETATM    5  C   UNL     1    -152.201 -65.686  53.929  1.00  0.00     0.011 C 
HETATM    6  C   UNL     1    -151.372 -66.966  53.983  1.00  0.00    -0.007 C 
HETATM    7  C   UNL     1    -151.208 -68.128  56.722  1.00  0.00     0.089 C 
HETATM    8  O   UNL     1    -148.852 -68.754  58.502  1.00  0.00    -0.267 OA
HETATM    9  C   UNL     1    -152.299 -69.237  58.613  1.00  0.00     0.159 C 
HETATM   10  C   UNL     1    -150.270 -67.137  56.317  1.00  0.00     0.044 C 
HETATM   11  C   UNL     1    -150.136 -66.759  54.866  1.00  0.00     0.064 C 
HETATM   12  C   UNL     1    -152.274 -68.109  54.426  1.00  0.00     0.071 C 
HETATM   13  C   UNL     1    -149.859 -69.425  58.305  1.00  0.00     0.258 C 
ENDROOT
BRANCH  13  14
HETATM   14  C   UNL     1    -149.791 -70.912  58.527  1.00  0.00     0.032 C 
HETATM   15  C   UNL     1    -149.852 -71.757  57.435  1.00  0.00     0.017 C 
HETATM   16  C   UNL     1    -149.414 -73.104  57.403  1.00  0.00     0.007 C 
HETATM   17  C   UNL     1    -148.552 -73.669  58.360  1.00  0.00    -0.062 C 
HETATM   18  C   UNL     1    -147.235 -74.300  57.911  1.00  0.00     0.048 C 
HETATM   19  C   UNL     1    -148.871 -73.679  59.738  1.00  0.00     0.007 C 
HETATM   20  C   UNL     1    -149.303 -72.534  60.403  1.00  0.00     0.002 C 
HETATM   21  C   UNL     1    -149.704 -71.317  59.869  1.00  0.00     0.017 C 
ENDBRANCH  13  14
BRANCH  10  22
HETATM   22  N   UNL     1    -149.615 -66.401  57.283  1.00  0.00    -0.302 N 
HETATM   23  C   UNL     1    -149.616 -65.022  57.249  1.00  0.00     0.288 C 
HETATM   24  O   UNL     1    -150.671 -64.396  57.504  1.00  0.00    -0.629 OA
HETATM   25  O   UNL     1    -148.555 -64.434  56.931  1.00  0.00    -0.629 OA
ATOM     26  HN  UNL     1    -149.122 -66.884  58.034  1.00  0.00     0.171 HD
ENDBRANCH  10  22
TORSDOF 2
ENDMDL
