REMARK  4 active torsions:
REMARK  status: ('A' for Active; 'I' for Inactive)
REMARK    1  A    between atoms: C_2  and  O_8 
REMARK    2  A    between atoms: C_3  and  O_15 
REMARK    3  A    between atoms: O_4  and  C_10 
REMARK    4  A    between atoms: C_6  and  O_13 
ROOT
HETATM    1  C   UNL     1     -38.195  -1.580  12.232  1.00  0.00     0.014 C 
HETATM    2  C   UNL     1     -36.225  -0.278  11.642  1.00  0.00     0.092 C 
HETATM    3  C   UNL     1     -36.554  -1.166  10.437  1.00  0.00     0.124 C 
HETATM    4  C   UNL     1     -38.336  -0.338   9.981  1.00  0.00     0.093 C 
HETATM    5  C   UNL     1     -36.862   1.096  11.409  1.00  0.00     0.044 C 
HETATM    6  C   UNL     1     -37.011  -0.464   9.173  1.00  0.00     0.190 C 
HETATM    7  C   UNL     1     -38.263   0.971  10.799  1.00  0.00     0.044 C 
HETATM    8  C   UNL     1     -37.996  -1.616  10.727  1.00  0.00     0.063 C 
HETATM    9  C   UNL     1     -36.917  -0.990  12.819  1.00  0.00     0.041 C 
ENDROOT
BRANCH   2  10
HETATM   10  O   UNL     1     -34.818  -0.172  11.871  1.00  0.00    -0.387 OA
ATOM     11  HO  UNL     1     -34.614   0.378  12.618  1.00  0.00     0.210 HD
ENDBRANCH   2  10
BRANCH   3  12
HETATM   12  O   UNL     1     -35.711  -2.310  10.333  1.00  0.00    -0.383 OA
ATOM     13  HO  UNL     1     -35.915  -2.860   9.586  1.00  0.00     0.210 HD
ENDBRANCH   3  12
BRANCH   6  14
HETATM   14  O   UNL     1     -37.107  -1.349   8.044  1.00  0.00    -0.389 OA
ATOM     15  HO  UNL     1     -37.393  -0.909   7.252  1.00  0.00     0.210 HD
ENDBRANCH   6  14
BRANCH   4  16
HETATM   16  O   UNL     1     -39.519  -0.417   9.191  1.00  0.00    -0.387 OA
ATOM     17  HO  UNL     1     -40.327  -0.340   9.684  1.00  0.00     0.210 HD
ENDBRANCH   4  16
TORSDOF 4
