MODEL 1
REMARK VINA RESULT:      -9.8      0.000      0.000
REMARK  5 active torsions:
REMARK  status: ('A' for Active; 'I' for Inactive)
REMARK       I    between atoms: N_1  and  C_17 
REMARK    1  A    between atoms: N_3  and  C_6 
REMARK       I    between atoms: N_3  and  C_13 
REMARK    2  A    between atoms: C_13  and  C_25 
REMARK    3  A    between atoms: C_14  and  C_21 
REMARK    4  A    between atoms: C_17  and  C_21 
REMARK    5  A    between atoms: O_19  and  C_25 
ROOT
HETATM    1  N   UNL     1     -37.275  21.050  -9.462  1.00  0.00    -0.317 N 
HETATM    2  C   UNL     1     -38.104  21.067  -8.367  1.00  0.00     0.095 C 
HETATM    3  C   UNL     1     -35.970  17.083  -7.476  1.00  0.00     0.036 C 
HETATM    4  C   UNL     1     -37.007  17.779  -6.828  1.00  0.00     0.041 C 
HETATM    5  C   UNL     1     -36.501  18.827  -8.802  1.00  0.00    -0.027 C 
HETATM    6  C   UNL     1     -35.747  17.658  -8.730  1.00  0.00     0.039 C 
HETATM    7  C   UNL     1     -37.029  22.157 -10.221  1.00  0.00     0.298 C 
HETATM    8  C   UNL     1     -37.287  18.916  -7.634  1.00  0.00    -0.025 C 
HETATM    9  C   UNL     1     -36.515  19.857  -9.820  1.00  0.00     0.171 C 
HETATM   10  C   UNL     1     -38.049  20.081  -7.423  1.00  0.00     0.029 C 
HETATM   11  O   UNL     1     -35.917  22.640 -10.279  1.00  0.00    -0.264 OA
ENDROOT
BRANCH   7  12
HETATM   12  C   UNL     1     -38.171  22.741 -11.007  1.00  0.00     0.242 C 
HETATM   13  O   UNL     1     -39.216  23.138 -10.449  1.00  0.00    -0.282 OA
BRANCH  12  14
HETATM   14  C   UNL     1     -38.086  22.643 -12.466  1.00  0.00    -0.023 C 
HETATM   15  C   UNL     1     -38.577  23.763 -13.332  1.00  0.00     0.050 C 
HETATM   16  C   UNL     1     -37.970  23.788 -14.729  1.00  0.00     0.060 C 
HETATM   17  C   UNL     1     -36.863  22.765 -14.920  1.00  0.00     0.017 C 
HETATM   18  C   UNL     1     -39.089  23.464 -15.680  1.00  0.00     0.131 C 
HETATM   19  C   UNL     1     -37.353  21.387 -14.515  1.00  0.00    -0.009 C 
HETATM   20  C   UNL     1     -37.724  21.332 -13.052  1.00  0.00     0.043 C 
HETATM   21  C   UNL     1     -38.517  20.986 -15.375  1.00  0.00     0.012 C 
HETATM   22  C   UNL     1     -39.133  22.069 -16.218  1.00  0.00     0.079 C 
HETATM   23  O   UNL     1     -39.924  24.302 -15.958  1.00  0.00    -0.298 OA
ENDBRANCH  12  14
ENDBRANCH   7  12
BRANCH   3  24
HETATM   24  N   UNL     1     -35.282  15.977  -6.999  1.00  0.00    -0.325 N 
HETATM   25  C   UNL     1     -34.688  15.934  -5.785  1.00  0.00     0.245 C 
HETATM   26  O   UNL     1     -35.031  16.550  -4.800  1.00  0.00    -0.271 OA
ATOM     27  HN  UNL     1     -35.222  15.152  -7.596  1.00  0.00     0.169 HD
BRANCH  25  28
HETATM   28  C   UNL     1     -33.664  14.824  -5.680  1.00  0.00     0.267 C 
BRANCH  28  29
HETATM   29  O   UNL     1     -32.737  14.868  -6.743  1.00  0.00    -0.392 OA
ATOM     30  HO  UNL     1     -31.899  14.496  -6.495  1.00  0.00     0.210 HD
ENDBRANCH  28  29
ENDBRANCH  25  28
ENDBRANCH   3  24
TORSDOF 5
ENDMDL
MODEL 2
REMARK VINA RESULT:      -7.7      3.322      4.517
REMARK  5 active torsions:
REMARK  status: ('A' for Active; 'I' for Inactive)
REMARK       I    between atoms: N_1  and  C_17 
REMARK    1  A    between atoms: N_3  and  C_6 
REMARK       I    between atoms: N_3  and  C_13 
REMARK    2  A    between atoms: C_13  and  C_25 
REMARK    3  A    between atoms: C_14  and  C_21 
REMARK    4  A    between atoms: C_17  and  C_21 
REMARK    5  A    between atoms: O_19  and  C_25 
ROOT
HETATM    1  N   UNL     1     -37.257  20.616  -8.408  1.00  0.00    -0.317 N 
HETATM    2  C   UNL     1     -38.534  20.588  -8.911  1.00  0.00     0.095 C 
HETATM    3  C   UNL     1     -39.467  18.889  -4.732  1.00  0.00     0.036 C 
HETATM    4  C   UNL     1     -40.263  19.126  -5.867  1.00  0.00     0.041 C 
HETATM    5  C   UNL     1     -38.063  19.510  -6.382  1.00  0.00    -0.027 C 
HETATM    6  C   UNL     1     -38.120  19.011  -5.083  1.00  0.00     0.039 C 
HETATM    7  C   UNL     1     -36.252  21.341  -8.981  1.00  0.00     0.298 C 
HETATM    8  C   UNL     1     -39.380  19.586  -6.882  1.00  0.00    -0.025 C 
HETATM    9  C   UNL     1     -36.919  19.949  -7.155  1.00  0.00     0.171 C 
HETATM   10  C   UNL     1     -39.588  20.178  -8.142  1.00  0.00     0.029 C 
HETATM   11  O   UNL     1     -35.739  22.270  -8.393  1.00  0.00    -0.264 OA
ENDROOT
BRANCH   7  12
HETATM   12  C   UNL     1     -35.780  20.932 -10.349  1.00  0.00     0.242 C 
HETATM   13  O   UNL     1     -34.632  20.478 -10.538  1.00  0.00    -0.282 OA
BRANCH  12  14
HETATM   14  C   UNL     1     -36.651  21.273 -11.477  1.00  0.00    -0.023 C 
HETATM   15  C   UNL     1     -37.438  20.207 -12.177  1.00  0.00     0.050 C 
HETATM   16  C   UNL     1     -38.657  20.721 -12.931  1.00  0.00     0.060 C 
HETATM   17  C   UNL     1     -38.931  22.197 -12.693  1.00  0.00     0.017 C 
HETATM   18  C   UNL     1     -38.366  20.519 -14.392  1.00  0.00     0.131 C 
HETATM   19  C   UNL     1     -37.680  23.010 -12.974  1.00  0.00    -0.009 C 
HETATM   20  C   UNL     1     -36.551  22.638 -12.041  1.00  0.00     0.043 C 
HETATM   21  C   UNL     1     -37.267  22.832 -14.406  1.00  0.00     0.012 C 
HETATM   22  C   UNL     1     -37.943  21.726 -15.168  1.00  0.00     0.079 C 
HETATM   23  O   UNL     1     -38.445  19.413 -14.889  1.00  0.00    -0.298 OA
ENDBRANCH  12  14
ENDBRANCH   7  12
BRANCH   3  24
HETATM   24  N   UNL     1     -39.907  18.547  -3.462  1.00  0.00    -0.325 N 
HETATM   25  C   UNL     1     -40.937  17.702  -3.231  1.00  0.00     0.245 C 
HETATM   26  O   UNL     1     -41.291  16.795  -3.951  1.00  0.00    -0.271 OA
ATOM     27  HN  UNL     1     -39.427  18.954  -2.659  1.00  0.00     0.169 HD
BRANCH  25  28
HETATM   28  C   UNL     1     -41.488  17.830  -1.827  1.00  0.00     0.267 C 
BRANCH  28  29
HETATM   29  O   UNL     1     -42.023  19.114  -1.592  1.00  0.00    -0.392 OA
ATOM     30  HO  UNL     1     -42.945  19.074  -1.365  1.00  0.00     0.210 HD
ENDBRANCH  28  29
ENDBRANCH  25  28
ENDBRANCH   3  24
TORSDOF 5
ENDMDL
MODEL 3
REMARK VINA RESULT:      -7.5      3.315     10.222
REMARK  5 active torsions:
REMARK  status: ('A' for Active; 'I' for Inactive)
REMARK       I    between atoms: N_1  and  C_17 
REMARK    1  A    between atoms: N_3  and  C_6 
REMARK       I    between atoms: N_3  and  C_13 
REMARK    2  A    between atoms: C_13  and  C_25 
REMARK    3  A    between atoms: C_14  and  C_21 
REMARK    4  A    between atoms: C_17  and  C_21 
REMARK    5  A    between atoms: O_19  and  C_25 
ROOT
HETATM    1  N   UNL     1     -37.439  22.666 -13.162  1.00  0.00    -0.317 N 
HETATM    2  C   UNL     1     -37.911  22.169 -14.352  1.00  0.00     0.095 C 
HETATM    3  C   UNL     1     -37.452  26.566 -15.646  1.00  0.00     0.036 C 
HETATM    4  C   UNL     1     -37.934  25.420 -16.305  1.00  0.00     0.041 C 
HETATM    5  C   UNL     1     -37.514  24.918 -14.108  1.00  0.00    -0.027 C 
HETATM    6  C   UNL     1     -37.310  26.285 -14.284  1.00  0.00     0.039 C 
HETATM    7  C   UNL     1     -36.944  21.868 -12.171  1.00  0.00     0.298 C 
HETATM    8  C   UNL     1     -37.902  24.369 -15.349  1.00  0.00    -0.025 C 
HETATM    9  C   UNL     1     -37.340  24.102 -12.925  1.00  0.00     0.171 C 
HETATM   10  C   UNL     1     -38.048  22.972 -15.449  1.00  0.00     0.029 C 
HETATM   11  O   UNL     1     -35.778  21.934 -11.841  1.00  0.00    -0.264 OA
ENDROOT
BRANCH   7  12
HETATM   12  C   UNL     1     -37.894  20.927 -11.483  1.00  0.00     0.242 C 
HETATM   13  O   UNL     1     -39.051  20.733 -11.911  1.00  0.00    -0.282 OA
BRANCH  12  14
HETATM   14  C   UNL     1     -37.474  20.400 -10.182  1.00  0.00    -0.023 C 
HETATM   15  C   UNL     1     -36.749  19.091 -10.091  1.00  0.00     0.050 C 
HETATM   16  C   UNL     1     -35.924  18.919  -8.823  1.00  0.00     0.060 C 
HETATM   17  C   UNL     1     -35.867  20.175  -7.969  1.00  0.00     0.017 C 
HETATM   18  C   UNL     1     -36.593  17.832  -8.028  1.00  0.00     0.131 C 
HETATM   19  C   UNL     1     -37.271  20.681  -7.693  1.00  0.00    -0.009 C 
HETATM   20  C   UNL     1     -37.985  21.073  -8.965  1.00  0.00     0.043 C 
HETATM   21  C   UNL     1     -38.050  19.638  -6.945  1.00  0.00     0.012 C 
HETATM   22  C   UNL     1     -37.440  18.265  -6.874  1.00  0.00     0.079 C 
HETATM   23  O   UNL     1     -36.464  16.667  -8.347  1.00  0.00    -0.298 OA
ENDBRANCH  12  14
ENDBRANCH   7  12
BRANCH   3  24
HETATM   24  N   UNL     1     -37.188  27.805 -16.211  1.00  0.00    -0.325 N 
HETATM   25  C   UNL     1     -38.118  28.542 -16.860  1.00  0.00     0.245 C 
HETATM   26  O   UNL     1     -39.310  28.529 -16.654  1.00  0.00    -0.271 OA
ATOM     27  HN  UNL     1     -36.243  28.180 -16.132  1.00  0.00     0.169 HD
BRANCH  25  28
HETATM   28  C   UNL     1     -37.500  29.610 -17.737  1.00  0.00     0.267 C 
BRANCH  28  29
HETATM   29  O   UNL     1     -36.095  29.491 -17.793  1.00  0.00    -0.392 OA
ATOM     30  HO  UNL     1     -35.744  29.843 -18.602  1.00  0.00     0.210 HD
ENDBRANCH  28  29
ENDBRANCH  25  28
ENDBRANCH   3  24
TORSDOF 5
ENDMDL
MODEL 4
REMARK VINA RESULT:      -7.5      1.112      1.744
REMARK  5 active torsions:
REMARK  status: ('A' for Active; 'I' for Inactive)
REMARK       I    between atoms: N_1  and  C_17 
REMARK    1  A    between atoms: N_3  and  C_6 
REMARK       I    between atoms: N_3  and  C_13 
REMARK    2  A    between atoms: C_13  and  C_25 
REMARK    3  A    between atoms: C_14  and  C_21 
REMARK    4  A    between atoms: C_17  and  C_21 
REMARK    5  A    between atoms: O_19  and  C_25 
ROOT
HETATM    1  N   UNL     1     -37.592  20.511  -9.996  1.00  0.00    -0.317 N 
HETATM    2  C   UNL     1     -36.429  20.273 -10.687  1.00  0.00     0.095 C 
HETATM    3  C   UNL     1     -35.765  17.251  -7.274  1.00  0.00     0.036 C 
HETATM    4  C   UNL     1     -34.980  17.637  -8.376  1.00  0.00     0.041 C 
HETATM    5  C   UNL     1     -36.832  18.981  -8.248  1.00  0.00    -0.027 C 
HETATM    6  C   UNL     1     -36.828  18.146  -7.133  1.00  0.00     0.039 C 
HETATM    7  C   UNL     1     -38.656  21.170 -10.543  1.00  0.00     0.298 C 
HETATM    8  C   UNL     1     -35.695  18.680  -9.027  1.00  0.00    -0.025 C 
HETATM    9  C   UNL     1     -37.803  19.975  -8.656  1.00  0.00     0.171 C 
HETATM   10  C   UNL     1     -35.546  19.315 -10.274  1.00  0.00     0.029 C 
HETATM   11  O   UNL     1     -39.715  20.605 -10.719  1.00  0.00    -0.264 OA
ENDROOT
BRANCH   7  12
HETATM   12  C   UNL     1     -38.482  22.622 -10.892  1.00  0.00     0.242 C 
HETATM   13  O   UNL     1     -38.738  23.529 -10.072  1.00  0.00    -0.282 OA
BRANCH  12  14
HETATM   14  C   UNL     1     -38.188  22.934 -12.293  1.00  0.00    -0.023 C 
HETATM   15  C   UNL     1     -39.108  23.815 -13.083  1.00  0.00     0.050 C 
HETATM   16  C   UNL     1     -38.456  24.480 -14.288  1.00  0.00     0.060 C 
HETATM   17  C   UNL     1     -36.956  24.247 -14.365  1.00  0.00     0.017 C 
HETATM   18  C   UNL     1     -39.096  23.869 -15.504  1.00  0.00     0.131 C 
HETATM   19  C   UNL     1     -36.656  22.762 -14.277  1.00  0.00    -0.009 C 
HETATM   20  C   UNL     1     -37.104  22.177 -12.958  1.00  0.00     0.043 C 
HETATM   21  C   UNL     1     -37.303  22.042 -15.426  1.00  0.00     0.012 C 
HETATM   22  C   UNL     1     -38.308  22.823 -16.227  1.00  0.00     0.079 C 
HETATM   23  O   UNL     1     -40.215  24.201 -15.845  1.00  0.00    -0.298 OA
ENDBRANCH  12  14
ENDBRANCH   7  12
BRANCH   3  24
HETATM   24  N   UNL     1     -35.532  16.186  -6.417  1.00  0.00    -0.325 N 
HETATM   25  C   UNL     1     -34.314  15.888  -5.910  1.00  0.00     0.245 C 
HETATM   26  O   UNL     1     -33.417  16.673  -5.700  1.00  0.00    -0.271 OA
ATOM     27  HN  UNL     1     -36.322  15.596  -6.154  1.00  0.00     0.169 HD
BRANCH  25  28
HETATM   28  C   UNL     1     -34.239  14.473  -5.375  1.00  0.00     0.267 C 
BRANCH  28  29
HETATM   29  O   UNL     1     -32.909  14.005  -5.323  1.00  0.00    -0.392 OA
ATOM     30  HO  UNL     1     -32.316  14.670  -4.994  1.00  0.00     0.210 HD
ENDBRANCH  28  29
ENDBRANCH  25  28
ENDBRANCH   3  24
TORSDOF 5
ENDMDL
MODEL 5
REMARK VINA RESULT:      -7.5      1.824      2.365
REMARK  5 active torsions:
REMARK  status: ('A' for Active; 'I' for Inactive)
REMARK       I    between atoms: N_1  and  C_17 
REMARK    1  A    between atoms: N_3  and  C_6 
REMARK       I    between atoms: N_3  and  C_13 
REMARK    2  A    between atoms: C_13  and  C_25 
REMARK    3  A    between atoms: C_14  and  C_21 
REMARK    4  A    between atoms: C_17  and  C_21 
REMARK    5  A    between atoms: O_19  and  C_25 
ROOT
HETATM    1  N   UNL     1     -36.122  21.359  -8.905  1.00  0.00    -0.317 N 
HETATM    2  C   UNL     1     -37.193  21.403  -8.046  1.00  0.00     0.095 C 
HETATM    3  C   UNL     1     -35.955  17.033  -7.280  1.00  0.00     0.036 C 
HETATM    4  C   UNL     1     -37.012  17.826  -6.799  1.00  0.00     0.041 C 
HETATM    5  C   UNL     1     -35.871  18.976  -8.420  1.00  0.00    -0.027 C 
HETATM    6  C   UNL     1     -35.337  17.691  -8.347  1.00  0.00     0.039 C 
HETATM    7  C   UNL     1     -35.532  22.481  -9.412  1.00  0.00     0.298 C 
HETATM    8  C   UNL     1     -36.909  19.075  -7.470  1.00  0.00    -0.025 C 
HETATM    9  C   UNL     1     -35.475  20.096  -9.248  1.00  0.00     0.171 C 
HETATM   10  C   UNL     1     -37.524  20.326  -7.273  1.00  0.00     0.029 C 
HETATM   11  O   UNL     1     -34.385  22.763  -9.133  1.00  0.00    -0.264 OA
ENDROOT
BRANCH   7  12
HETATM   12  C   UNL     1     -36.338  23.338 -10.348  1.00  0.00     0.242 C 
HETATM   13  O   UNL     1     -36.470  24.567 -10.163  1.00  0.00    -0.282 OA
BRANCH  12  14
HETATM   14  C   UNL     1     -37.120  22.642 -11.372  1.00  0.00    -0.023 C 
HETATM   15  C   UNL     1     -37.713  21.294 -11.089  1.00  0.00     0.050 C 
HETATM   16  C   UNL     1     -38.897  20.932 -11.976  1.00  0.00     0.060 C 
HETATM   17  C   UNL     1     -39.350  22.075 -12.870  1.00  0.00     0.017 C 
HETATM   18  C   UNL     1     -38.437  19.797 -12.849  1.00  0.00     0.131 C 
HETATM   19  C   UNL     1     -38.171  22.619 -13.655  1.00  0.00    -0.009 C 
HETATM   20  C   UNL     1     -37.110  23.194 -12.746  1.00  0.00     0.043 C 
HETATM   21  C   UNL     1     -37.597  21.540 -14.527  1.00  0.00     0.012 C 
HETATM   22  C   UNL     1     -38.069  20.137 -14.258  1.00  0.00     0.079 C 
HETATM   23  O   UNL     1     -38.347  18.671 -12.400  1.00  0.00    -0.298 OA
ENDBRANCH  12  14
ENDBRANCH   7  12
BRANCH   3  24
HETATM   24  N   UNL     1     -35.579  15.778  -6.825  1.00  0.00    -0.325 N 
HETATM   25  C   UNL     1     -34.743  15.583  -5.779  1.00  0.00     0.245 C 
HETATM   26  O   UNL     1     -34.596  16.326  -4.835  1.00  0.00    -0.271 OA
ATOM     27  HN  UNL     1     -35.952  14.959  -7.304  1.00  0.00     0.169 HD
BRANCH  25  28
HETATM   28  C   UNL     1     -34.159  14.186  -5.758  1.00  0.00     0.267 C 
BRANCH  28  29
HETATM   29  O   UNL     1     -32.749  14.211  -5.700  1.00  0.00    -0.392 OA
ATOM     30  HO  UNL     1     -32.401  13.434  -5.280  1.00  0.00     0.210 HD
ENDBRANCH  28  29
ENDBRANCH  25  28
ENDBRANCH   3  24
TORSDOF 5
ENDMDL
MODEL 6
REMARK VINA RESULT:      -7.2      2.912      3.662
REMARK  5 active torsions:
REMARK  status: ('A' for Active; 'I' for Inactive)
REMARK       I    between atoms: N_1  and  C_17 
REMARK    1  A    between atoms: N_3  and  C_6 
REMARK       I    between atoms: N_3  and  C_13 
REMARK    2  A    between atoms: C_13  and  C_25 
REMARK    3  A    between atoms: C_14  and  C_21 
REMARK    4  A    between atoms: C_17  and  C_21 
REMARK    5  A    between atoms: O_19  and  C_25 
ROOT
HETATM    1  N   UNL     1     -38.399  20.888  -9.111  1.00  0.00    -0.317 N 
HETATM    2  C   UNL     1     -37.129  20.732  -8.613  1.00  0.00     0.095 C 
HETATM    3  C   UNL     1     -39.401  18.629  -5.202  1.00  0.00     0.036 C 
HETATM    4  C   UNL     1     -38.041  18.923  -5.406  1.00  0.00     0.041 C 
HETATM    5  C   UNL     1     -39.291  19.904  -7.058  1.00  0.00    -0.027 C 
HETATM    6  C   UNL     1     -40.166  19.325  -6.142  1.00  0.00     0.039 C 
HETATM    7  C   UNL     1     -38.650  21.218 -10.411  1.00  0.00     0.298 C 
HETATM    8  C   UNL     1     -37.972  19.666  -6.616  1.00  0.00    -0.025 C 
HETATM    9  C   UNL     1     -39.575  20.602  -8.294  1.00  0.00     0.171 C 
HETATM   10  C   UNL     1     -36.904  20.055  -7.447  1.00  0.00     0.029 C 
HETATM   11  O   UNL     1     -39.223  20.446 -11.152  1.00  0.00    -0.264 OA
ENDROOT
BRANCH   7  12
HETATM   12  C   UNL     1     -38.221  22.577 -10.888  1.00  0.00     0.242 C 
HETATM   13  O   UNL     1     -38.173  23.559 -10.117  1.00  0.00    -0.282 OA
BRANCH  12  14
HETATM   14  C   UNL     1     -38.051  22.746 -12.334  1.00  0.00    -0.023 C 
HETATM   15  C   UNL     1     -38.874  23.751 -13.083  1.00  0.00     0.050 C 
HETATM   16  C   UNL     1     -38.262  24.203 -14.402  1.00  0.00     0.060 C 
HETATM   17  C   UNL     1     -36.857  23.667 -14.627  1.00  0.00     0.017 C 
HETATM   18  C   UNL     1     -39.156  23.668 -15.486  1.00  0.00     0.131 C 
HETATM   19  C   UNL     1     -36.843  22.159 -14.458  1.00  0.00    -0.009 C 
HETATM   20  C   UNL     1     -37.226  21.750 -13.055  1.00  0.00     0.043 C 
HETATM   21  C   UNL     1     -37.756  21.524 -15.466  1.00  0.00     0.012 C 
HETATM   22  C   UNL     1     -38.683  22.447 -16.208  1.00  0.00     0.079 C 
HETATM   23  O   UNL     1     -40.222  24.201 -15.724  1.00  0.00    -0.298 OA
ENDBRANCH  12  14
ENDBRANCH   7  12
BRANCH   3  24
HETATM   24  N   UNL     1     -39.940  17.818  -4.214  1.00  0.00    -0.325 N 
HETATM   25  C   UNL     1     -40.487  18.296  -3.073  1.00  0.00     0.245 C 
HETATM   26  O   UNL     1     -41.023  19.373  -2.935  1.00  0.00    -0.271 OA
ATOM     27  HN  UNL     1     -39.923  16.808  -4.356  1.00  0.00     0.169 HD
BRANCH  25  28
HETATM   28  C   UNL     1     -40.600  17.237  -1.998  1.00  0.00     0.267 C 
BRANCH  28  29
HETATM   29  O   UNL     1     -39.339  16.700  -1.660  1.00  0.00    -0.392 OA
ATOM     30  HO  UNL     1     -39.404  16.072  -0.951  1.00  0.00     0.210 HD
ENDBRANCH  28  29
ENDBRANCH  25  28
ENDBRANCH   3  24
TORSDOF 5
ENDMDL
