MODEL 1
REMARK VINA RESULT:      -9.7      0.000      0.000
REMARK  1 active torsions:
REMARK  status: ('A' for Active; 'I' for Inactive)
REMARK    1  A    between atoms: C_4  and  C_9 
ROOT
HETATM    1  C   UNL     1     -11.511 -27.243   3.098  1.00  0.00    -0.009 C 
HETATM    2  C   UNL     1      -7.036 -26.718   4.429  1.00  0.00    -0.034 A 
HETATM    3  C   UNL     1      -8.195 -27.586   4.790  1.00  0.00     0.050 C 
HETATM    4  C   UNL     1      -6.850 -26.191   3.181  1.00  0.00     0.015 A 
HETATM    5  C   UNL     1      -5.128 -25.636   4.412  1.00  0.00     0.088 A 
HETATM    6  C   UNL     1     -10.568 -26.605   2.070  1.00  0.00     0.011 C 
HETATM    7  N   UNL     1      -5.646 -25.596   3.148  1.00  0.00    -0.369 N 
ATOM      8  HN  UNL     1      -5.199 -25.189   2.327  1.00  0.00     0.165 HD
HETATM    9  C   UNL     1      -5.946 -26.389   5.200  1.00  0.00     0.026 A 
HETATM   10  C   UNL     1      -9.219 -27.825   3.698  1.00  0.00    -0.036 C 
HETATM   11  C   UNL     1     -10.621 -27.637   4.278  1.00  0.00     0.015 C 
HETATM   12  C   UNL     1      -9.163 -26.811   2.582  1.00  0.00    -0.000 C 
HETATM   13  C   UNL     1      -8.974 -29.196   3.081  1.00  0.00     0.016 C 
HETATM   14  C   UNL     1      -7.928 -26.082   2.150  1.00  0.00     0.063 C 
ENDROOT
BRANCH   1  15
HETATM   15  C   UNL     1     -12.128 -28.531   2.530  1.00  0.00    -0.004 C 
HETATM   16  C   UNL     1     -13.074 -28.234   1.366  1.00  0.00     0.015 C 
HETATM   17  C   UNL     1     -14.336 -29.083   1.542  1.00  0.00     0.031 C 
HETATM   18  C   UNL     1     -14.363 -29.326   3.013  1.00  0.00    -0.014 C 
HETATM   19  C   UNL     1     -15.575 -28.319   1.084  1.00  0.00     0.012 C 
HETATM   20  N   UNL     1     -15.520 -29.265   3.843  1.00  0.00    -0.396 N 
HETATM   21  C   UNL     1     -12.980 -29.198   3.603  1.00  0.00     0.057 C 
HETATM   22  C   UNL     1     -16.735 -28.673   3.273  1.00  0.00     0.119 C 
ATOM     23  HN  UNL     1     -15.504 -29.620   4.798  1.00  0.00     0.159 HD
HETATM   24  C   UNL     1     -16.815 -28.907   1.770  1.00  0.00     0.020 C 
ENDBRANCH   1  15
TORSDOF 1
ENDMDL
MODEL 2
REMARK VINA RESULT:      -9.2      1.671      7.887
REMARK  1 active torsions:
REMARK  status: ('A' for Active; 'I' for Inactive)
REMARK    1  A    between atoms: C_4  and  C_9 
ROOT
HETATM    1  C   UNL     1     -11.443 -28.281   2.000  1.00  0.00    -0.009 C 
HETATM    2  C   UNL     1     -15.905 -29.719   1.672  1.00  0.00    -0.034 A 
HETATM    3  C   UNL     1     -14.979 -29.245   2.743  1.00  0.00     0.050 C 
HETATM    4  C   UNL     1     -15.813 -29.320   0.367  1.00  0.00     0.015 A 
HETATM    5  C   UNL     1     -17.572 -30.607   0.559  1.00  0.00     0.088 A 
HETATM    6  C   UNL     1     -12.102 -28.140   0.622  1.00  0.00     0.011 C 
HETATM    7  N   UNL     1     -16.878 -29.799  -0.297  1.00  0.00    -0.369 N 
ATOM      8  HN  UNL     1     -17.123 -29.597  -1.266  1.00  0.00     0.165 HD
HETATM    9  C   UNL     1     -17.021 -30.510   1.801  1.00  0.00     0.026 A 
HETATM   10  C   UNL     1     -13.864 -28.316   2.302  1.00  0.00    -0.036 C 
HETATM   11  C   UNL     1     -12.551 -28.779   2.932  1.00  0.00     0.015 C 
HETATM   12  C   UNL     1     -13.581 -28.369   0.822  1.00  0.00    -0.000 C 
HETATM   13  C   UNL     1     -14.252 -26.882   2.641  1.00  0.00     0.016 C 
HETATM   14  C   UNL     1     -14.594 -28.694  -0.233  1.00  0.00     0.063 C 
ENDROOT
BRANCH   1  15
HETATM   15  C   UNL     1     -10.984 -26.908   2.516  1.00  0.00    -0.004 C 
HETATM   16  C   UNL     1      -9.773 -26.393   1.737  1.00  0.00     0.015 C 
HETATM   17  C   UNL     1      -8.768 -25.814   2.737  1.00  0.00     0.031 C 
HETATM   18  C   UNL     1      -9.101 -26.543   3.994  1.00  0.00    -0.014 C 
HETATM   19  C   UNL     1      -7.335 -26.098   2.295  1.00  0.00     0.012 C 
HETATM   20  N   UNL     1      -8.157 -27.086   4.914  1.00  0.00    -0.396 N 
HETATM   21  C   UNL     1     -10.526 -27.041   3.963  1.00  0.00     0.057 C 
HETATM   22  C   UNL     1      -6.758 -27.166   4.484  1.00  0.00     0.119 C 
ATOM     23  HN  UNL     1      -8.445 -27.406   5.838  1.00  0.00     0.159 HD
HETATM   24  C   UNL     1      -6.408 -26.043   3.516  1.00  0.00     0.020 C 
ENDBRANCH   1  15
TORSDOF 1
ENDMDL
MODEL 3
REMARK VINA RESULT:      -9.0      1.445      7.782
REMARK  1 active torsions:
REMARK  status: ('A' for Active; 'I' for Inactive)
REMARK    1  A    between atoms: C_4  and  C_9 
ROOT
HETATM    1  C   UNL     1      -9.312 -28.126   2.784  1.00  0.00    -0.009 C 
HETATM    2  C   UNL     1     -13.890 -29.147   3.065  1.00  0.00    -0.034 A 
HETATM    3  C   UNL     1     -12.687 -29.242   3.943  1.00  0.00     0.050 C 
HETATM    4  C   UNL     1     -14.041 -28.194   2.096  1.00  0.00     0.015 A 
HETATM    5  C   UNL     1     -15.876 -29.383   2.166  1.00  0.00     0.088 A 
HETATM    6  C   UNL     1     -10.239 -27.349   1.841  1.00  0.00     0.011 C 
HETATM    7  N   UNL     1     -15.286 -28.287   1.601  1.00  0.00    -0.369 N 
ATOM      8  HN  UNL     1     -15.714 -27.655   0.925  1.00  0.00     0.165 HD
HETATM    9  C   UNL     1     -15.049 -29.883   3.126  1.00  0.00     0.026 A 
HETATM   10  C   UNL     1     -11.580 -28.241   3.676  1.00  0.00    -0.036 C 
HETATM   11  C   UNL     1     -10.238 -28.972   3.661  1.00  0.00     0.015 C 
HETATM   12  C   UNL     1     -11.651 -27.611   2.307  1.00  0.00    -0.000 C 
HETATM   13  C   UNL     1     -11.672 -27.117   4.700  1.00  0.00     0.016 C 
HETATM   14  C   UNL     1     -12.913 -27.389   1.531  1.00  0.00     0.063 C 
ENDROOT
BRANCH   1  15
HETATM   15  C   UNL     1      -8.555 -27.157   3.707  1.00  0.00    -0.004 C 
HETATM   16  C   UNL     1      -7.606 -26.256   2.917  1.00  0.00     0.015 C 
HETATM   17  C   UNL     1      -6.274 -26.183   3.669  1.00  0.00     0.031 C 
HETATM   18  C   UNL     1      -6.270 -27.453   4.451  1.00  0.00    -0.014 C 
HETATM   19  C   UNL     1      -5.101 -26.129   2.695  1.00  0.00     0.012 C 
HETATM   20  N   UNL     1      -5.152 -28.319   4.621  1.00  0.00    -0.396 N 
HETATM   21  C   UNL     1      -7.678 -27.954   4.665  1.00  0.00     0.057 C 
HETATM   22  C   UNL     1      -3.982 -28.095   3.764  1.00  0.00     0.119 C 
ATOM     23  HN  UNL     1      -5.164 -29.067   5.313  1.00  0.00     0.159 HD
HETATM   24  C   UNL     1      -3.833 -26.623   3.401  1.00  0.00     0.020 C 
ENDBRANCH   1  15
TORSDOF 1
ENDMDL
MODEL 4
REMARK VINA RESULT:      -9.0      1.447      2.428
REMARK  1 active torsions:
REMARK  status: ('A' for Active; 'I' for Inactive)
REMARK    1  A    between atoms: C_4  and  C_9 
ROOT
HETATM    1  C   UNL     1     -10.311 -28.047   2.343  1.00  0.00    -0.009 C 
HETATM    2  C   UNL     1      -5.997 -26.423   3.255  1.00  0.00    -0.034 A 
HETATM    3  C   UNL     1      -7.296 -25.875   2.768  1.00  0.00     0.050 C 
HETATM    4  C   UNL     1      -5.901 -27.494   4.101  1.00  0.00     0.015 A 
HETATM    5  C   UNL     1      -3.882 -26.726   3.751  1.00  0.00     0.088 A 
HETATM    6  C   UNL     1      -9.476 -28.863   3.338  1.00  0.00     0.011 C 
HETATM    7  N   UNL     1      -4.616 -27.630   4.467  1.00  0.00    -0.369 N 
ATOM      8  HN  UNL     1      -4.253 -28.289   5.155  1.00  0.00     0.165 HD
HETATM    9  C   UNL     1      -4.732 -25.925   3.050  1.00  0.00     0.026 A 
HETATM   10  C   UNL     1      -8.545 -26.609   3.219  1.00  0.00    -0.036 C 
HETATM   11  C   UNL     1      -9.465 -26.814   2.015  1.00  0.00     0.015 C 
HETATM   12  C   UNL     1      -8.281 -28.013   3.701  1.00  0.00    -0.000 C 
HETATM   13  C   UNL     1      -9.180 -25.842   4.371  1.00  0.00     0.016 C 
HETATM   14  C   UNL     1      -7.006 -28.475   4.337  1.00  0.00     0.063 C 
ENDROOT
BRANCH   1  15
HETATM   15  C   UNL     1     -11.608 -27.558   3.008  1.00  0.00    -0.004 C 
HETATM   16  C   UNL     1     -12.317 -28.690   3.752  1.00  0.00     0.015 C 
HETATM   17  C   UNL     1     -13.814 -28.608   3.438  1.00  0.00     0.031 C 
HETATM   18  C   UNL     1     -13.834 -27.906   2.123  1.00  0.00    -0.014 C 
HETATM   19  C   UNL     1     -14.425 -30.003   3.331  1.00  0.00     0.012 C 
HETATM   20  N   UNL     1     -14.659 -28.249   1.012  1.00  0.00    -0.396 N 
HETATM   21  C   UNL     1     -12.579 -27.088   1.933  1.00  0.00     0.057 C 
HETATM   22  C   UNL     1     -15.360 -29.536   1.057  1.00  0.00     0.119 C 
ATOM     23  HN  UNL     1     -14.758 -27.620   0.215  1.00  0.00     0.159 HD
HETATM   24  C   UNL     1     -15.704 -29.932   2.488  1.00  0.00     0.020 C 
ENDBRANCH   1  15
TORSDOF 1
ENDMDL
MODEL 5
REMARK VINA RESULT:      -8.3      1.680      3.043
REMARK  1 active torsions:
REMARK  status: ('A' for Active; 'I' for Inactive)
REMARK    1  A    between atoms: C_4  and  C_9 
ROOT
HETATM    1  C   UNL     1      -9.264 -27.498   2.390  1.00  0.00    -0.009 C 
HETATM    2  C   UNL     1      -4.840 -26.793   3.806  1.00  0.00    -0.034 A 
HETATM    3  C   UNL     1      -6.019 -25.959   3.432  1.00  0.00     0.050 C 
HETATM    4  C   UNL     1      -4.944 -28.039   4.361  1.00  0.00     0.015 A 
HETATM    5  C   UNL     1      -2.822 -27.514   4.273  1.00  0.00     0.088 A 
HETATM    6  C   UNL     1      -8.613 -28.643   3.175  1.00  0.00     0.011 C 
HETATM    7  N   UNL     1      -3.715 -28.447   4.719  1.00  0.00    -0.369 N 
ATOM      8  HN  UNL     1      -3.490 -29.299   5.232  1.00  0.00     0.165 HD
HETATM    9  C   UNL     1      -3.509 -26.451   3.769  1.00  0.00     0.026 A 
HETATM   10  C   UNL     1      -7.382 -26.589   3.649  1.00  0.00    -0.036 C 
HETATM   11  C   UNL     1      -8.241 -26.359   2.406  1.00  0.00     0.015 C 
HETATM   12  C   UNL     1      -7.341 -28.092   3.774  1.00  0.00    -0.000 C 
HETATM   13  C   UNL     1      -7.981 -26.041   4.937  1.00  0.00     0.016 C 
HETATM   14  C   UNL     1      -6.184 -28.875   4.312  1.00  0.00     0.063 C 
ENDROOT
BRANCH   1  15
HETATM   15  C   UNL     1     -10.524 -27.001   3.118  1.00  0.00    -0.004 C 
HETATM   16  C   UNL     1     -11.151 -28.104   3.970  1.00  0.00     0.015 C 
HETATM   17  C   UNL     1     -12.668 -28.072   3.759  1.00  0.00     0.031 C 
HETATM   18  C   UNL     1     -12.797 -27.446   2.412  1.00  0.00    -0.014 C 
HETATM   19  C   UNL     1     -13.249 -29.483   3.772  1.00  0.00     0.012 C 
HETATM   20  N   UNL     1     -13.687 -27.869   1.383  1.00  0.00    -0.396 N 
HETATM   21  C   UNL     1     -11.580 -26.613   2.090  1.00  0.00     0.057 C 
HETATM   22  C   UNL     1     -14.351 -29.166   1.548  1.00  0.00     0.119 C 
ATOM     23  HN  UNL     1     -13.858 -27.289   0.562  1.00  0.00     0.159 HD
HETATM   24  C   UNL     1     -14.584 -29.488   3.019  1.00  0.00     0.020 C 
ENDBRANCH   1  15
TORSDOF 1
ENDMDL
MODEL 6
REMARK VINA RESULT:      -8.2      1.339      2.347
REMARK  1 active torsions:
REMARK  status: ('A' for Active; 'I' for Inactive)
REMARK    1  A    between atoms: C_4  and  C_9 
ROOT
HETATM    1  C   UNL     1     -11.230 -28.791   2.862  1.00  0.00    -0.009 C 
HETATM    2  C   UNL     1      -7.102 -26.562   3.119  1.00  0.00    -0.034 A 
HETATM    3  C   UNL     1      -8.379 -26.424   2.360  1.00  0.00     0.050 C 
HETATM    4  C   UNL     1      -7.027 -27.094   4.377  1.00  0.00     0.015 A 
HETATM    5  C   UNL     1      -5.027 -26.411   3.813  1.00  0.00     0.088 A 
HETATM    6  C   UNL     1     -10.446 -28.965   4.168  1.00  0.00     0.011 C 
HETATM    7  N   UNL     1      -5.774 -26.930   4.832  1.00  0.00    -0.369 N 
ATOM      8  HN  UNL     1      -5.441 -27.152   5.770  1.00  0.00     0.165 HD
HETATM    9  C   UNL     1      -5.851 -26.112   2.770  1.00  0.00     0.026 A 
HETATM   10  C   UNL     1      -9.624 -26.963   3.039  1.00  0.00    -0.036 C 
HETATM   11  C   UNL     1     -10.422 -27.790   2.031  1.00  0.00     0.015 C 
HETATM   12  C   UNL     1      -9.333 -27.945   4.146  1.00  0.00    -0.000 C 
HETATM   13  C   UNL     1     -10.397 -25.801   3.650  1.00  0.00     0.016 C 
HETATM   14  C   UNL     1      -8.097 -27.939   4.993  1.00  0.00     0.063 C 
ENDROOT
BRANCH   1  15
HETATM   15  C   UNL     1     -12.604 -28.161   3.143  1.00  0.00    -0.004 C 
HETATM   16  C   UNL     1     -13.598 -29.196   3.669  1.00  0.00     0.015 C 
HETATM   17  C   UNL     1     -14.937 -28.983   2.956  1.00  0.00     0.031 C 
HETATM   18  C   UNL     1     -14.528 -28.326   1.682  1.00  0.00    -0.014 C 
HETATM   19  C   UNL     1     -15.632 -30.317   2.693  1.00  0.00     0.012 C 
HETATM   20  N   UNL     1     -15.048 -28.625   0.390  1.00  0.00    -0.396 N 
HETATM   21  C   UNL     1     -13.194 -27.637   1.839  1.00  0.00     0.057 C 
HETATM   22  C   UNL     1     -15.860 -29.838   0.248  1.00  0.00     0.119 C 
ATOM     23  HN  UNL     1     -14.863 -28.017  -0.407  1.00  0.00     0.159 HD
HETATM   24  C   UNL     1     -16.618 -30.153   1.531  1.00  0.00     0.020 C 
ENDBRANCH   1  15
TORSDOF 1
ENDMDL
MODEL 7
REMARK VINA RESULT:      -7.6      1.904      7.985
REMARK  1 active torsions:
REMARK  status: ('A' for Active; 'I' for Inactive)
REMARK    1  A    between atoms: C_4  and  C_9 
ROOT
HETATM    1  C   UNL     1      -7.976 -27.687   2.723  1.00  0.00    -0.009 C 
HETATM    2  C   UNL     1     -12.553 -28.606   3.253  1.00  0.00    -0.034 A 
HETATM    3  C   UNL     1     -11.278 -28.935   3.956  1.00  0.00     0.050 C 
HETATM    4  C   UNL     1     -12.746 -27.454   2.543  1.00  0.00     0.015 A 
HETATM    5  C   UNL     1     -14.627 -28.571   2.541  1.00  0.00     0.088 A 
HETATM    6  C   UNL     1      -8.946 -26.689   2.080  1.00  0.00     0.011 C 
HETATM    7  N   UNL     1     -14.036 -27.395   2.174  1.00  0.00    -0.369 N 
ATOM      8  HN  UNL     1     -14.493 -26.613   1.705  1.00  0.00     0.165 HD
HETATM    9  C   UNL     1     -13.739 -29.301   3.272  1.00  0.00     0.026 A 
HETATM   10  C   UNL     1     -10.150 -27.932   3.802  1.00  0.00    -0.036 C 
HETATM   11  C   UNL     1      -8.857 -28.682   3.483  1.00  0.00     0.015 C 
HETATM   12  C   UNL     1     -10.319 -27.007   2.623  1.00  0.00    -0.000 C 
HETATM   13  C   UNL     1     -10.082 -27.068   5.055  1.00  0.00     0.016 C 
HETATM   14  C   UNL     1     -11.637 -26.577   2.054  1.00  0.00     0.063 C 
ENDROOT
BRANCH   1  15
HETATM   15  C   UNL     1      -7.083 -26.976   3.754  1.00  0.00    -0.004 C 
HETATM   16  C   UNL     1      -5.888 -26.296   3.085  1.00  0.00     0.015 C 
HETATM   17  C   UNL     1      -4.639 -26.585   3.923  1.00  0.00     0.031 C 
HETATM   18  C   UNL     1      -4.999 -27.853   4.619  1.00  0.00    -0.014 C 
HETATM   19  C   UNL     1      -3.415 -26.771   3.030  1.00  0.00     0.012 C 
HETATM   20  N   UNL     1      -4.136 -28.972   4.803  1.00  0.00    -0.396 N 
HETATM   21  C   UNL     1      -6.498 -28.007   4.711  1.00  0.00     0.057 C 
HETATM   22  C   UNL     1      -2.885 -28.999   4.039  1.00  0.00     0.119 C 
ATOM     23  HN  UNL     1      -4.381 -29.727   5.444  1.00  0.00     0.159 HD
HETATM   24  C   UNL     1      -2.361 -27.592   3.782  1.00  0.00     0.020 C 
ENDBRANCH   1  15
TORSDOF 1
ENDMDL
MODEL 8
REMARK VINA RESULT:      -7.3      1.233      7.929
REMARK  1 active torsions:
REMARK  status: ('A' for Active; 'I' for Inactive)
REMARK    1  A    between atoms: C_4  and  C_9 
ROOT
HETATM    1  C   UNL     1      -9.377 -26.717   3.514  1.00  0.00    -0.009 C 
HETATM    2  C   UNL     1     -13.767 -27.947   2.377  1.00  0.00    -0.034 A 
HETATM    3  C   UNL     1     -12.629 -27.224   1.738  1.00  0.00     0.050 C 
HETATM    4  C   UNL     1     -13.604 -28.938   3.306  1.00  0.00     0.015 A 
HETATM    5  C   UNL     1     -15.743 -28.749   2.888  1.00  0.00     0.088 A 
HETATM    6  C   UNL     1      -9.963 -27.915   4.272  1.00  0.00     0.011 C 
HETATM    7  N   UNL     1     -14.805 -29.482   3.560  1.00  0.00    -0.369 N 
ATOM      8  HN  UNL     1     -14.985 -30.296   4.147  1.00  0.00     0.165 HD
HETATM    9  C   UNL     1     -15.109 -27.840   2.097  1.00  0.00     0.026 A 
HETATM   10  C   UNL     1     -11.240 -27.607   2.214  1.00  0.00    -0.036 C 
HETATM   11  C   UNL     1     -10.434 -26.335   2.475  1.00  0.00     0.015 C 
HETATM   12  C   UNL     1     -11.229 -28.309   3.549  1.00  0.00    -0.000 C 
HETATM   13  C   UNL     1     -10.612 -28.551   1.197  1.00  0.00     0.016 C 
HETATM   14  C   UNL     1     -12.341 -29.162   4.077  1.00  0.00     0.063 C 
ENDROOT
BRANCH   1  15
HETATM   15  C   UNL     1      -8.108 -27.135   2.754  1.00  0.00    -0.004 C 
HETATM   16  C   UNL     1      -7.268 -28.121   3.565  1.00  0.00     0.015 C 
HETATM   17  C   UNL     1      -5.798 -27.704   3.457  1.00  0.00     0.031 C 
HETATM   18  C   UNL     1      -5.893 -26.246   3.162  1.00  0.00    -0.014 C 
HETATM   19  C   UNL     1      -5.063 -27.956   4.771  1.00  0.00     0.012 C 
HETATM   20  N   UNL     1      -5.082 -25.227   3.741  1.00  0.00    -0.396 N 
HETATM   21  C   UNL     1      -7.226 -25.912   2.535  1.00  0.00     0.057 C 
HETATM   22  C   UNL     1      -4.262 -25.589   4.901  1.00  0.00     0.119 C 
ATOM     23  HN  UNL     1      -5.073 -24.281   3.361  1.00  0.00     0.159 HD
HETATM   24  C   UNL     1      -3.829 -27.048   4.843  1.00  0.00     0.020 C 
ENDBRANCH   1  15
TORSDOF 1
ENDMDL
