REMARK  2 active torsions:
REMARK  status: ('A' for Active; 'I' for Inactive)
REMARK    1  A    between atoms: C_4  and  C_11 
REMARK    2  A    between atoms: C_9  and  C_10 
ROOT
HETATM    1  C   UNL     1       0.813  31.849  23.163  1.00  0.00     0.000 C 
HETATM    2  C   UNL     1       0.654  32.462  21.945  1.00  0.00     0.000 C 
HETATM    3  C   UNL     1       0.430  32.424  24.362  1.00  0.00     0.001 C 
HETATM    4  C   UNL     1      -0.081  33.663  24.639  1.00  0.00     0.011 C 
HETATM    5  C   UNL     1      -0.023  34.827  22.504  1.00  0.00     0.011 C 
HETATM    6  C   UNL     1      -0.365  34.757  23.861  1.00  0.00    -0.036 C 
HETATM    7  C   UNL     1       0.374  33.789  21.695  1.00  0.00     0.001 C 
ENDROOT
BRANCH   6   8
HETATM    8  C   UNL     1      -1.203  35.824  24.499  1.00  0.00     0.018 C 
HETATM    9  C   UNL     1      -0.702  37.123  24.491  1.00  0.00     0.085 C 
BRANCH   9  10
HETATM   10  C   UNL     1      -0.654  37.850  25.788  1.00  0.00     0.198 C 
HETATM   11  O   UNL     1       0.442  38.258  26.242  1.00  0.00    -0.645 OA
HETATM   12  O   UNL     1      -1.621  37.812  26.574  1.00  0.00    -0.645 OA
ENDBRANCH   9  10
ENDBRANCH   6   8
TORSDOF 2
