REMARK  2 active torsions:
REMARK  status: ('A' for Active; 'I' for Inactive)
REMARK    1  A    between atoms: C_6  and  C_11 
REMARK    2  A    between atoms: C_8  and  C_14 
ROOT
HETATM    1  C   UNL     1     -12.996 -30.001   3.821  1.00  0.00     0.036 C 
HETATM    2  C   UNL     1     -11.670 -29.302   4.068  1.00  0.00     0.020 C 
HETATM    3  C   UNL     1     -11.342 -28.693   2.735  1.00  0.00     0.091 C 
HETATM    4  C   UNL     1     -12.632 -28.363   2.019  1.00  0.00     0.050 C 
HETATM    5  C   UNL     1     -13.633 -29.287   2.669  1.00  0.00    -0.069 C 
ENDROOT
BRANCH   5   6
HETATM    6  C   UNL     1     -14.996 -29.520   2.117  1.00  0.00    -0.034 C 
HETATM    7  C   UNL     1     -16.115 -28.923   2.677  1.00  0.00     0.011 C 
HETATM    8  C   UNL     1     -17.357 -29.080   2.061  1.00  0.00     0.001 C 
HETATM    9  C   UNL     1     -17.525 -30.044   1.097  1.00  0.00     0.000 C 
HETATM   10  C   UNL     1     -16.409 -30.613   0.506  1.00  0.00     0.001 C 
HETATM   11  C   UNL     1     -15.153 -30.324   1.008  1.00  0.00     0.011 C 
ENDBRANCH   5   6
BRANCH   3  12
HETATM   12  C   UNL     1     -10.060 -27.968   2.448  1.00  0.00     0.177 C 
HETATM   13  O   UNL     1     -10.192 -26.887   1.772  1.00  0.00    -0.648 OA
HETATM   14  O   UNL     1      -8.980 -28.470   2.813  1.00  0.00    -0.648 OA
ENDBRANCH   3  12
TORSDOF 2
