REMARK  4 active torsions:
REMARK  status: ('A' for Active; 'I' for Inactive)
REMARK    1  A    between atoms: C_1  and  C_10 
REMARK    2  A    between atoms: C_1  and  C_11 
REMARK    3  A    between atoms: N_2  and  C_12 
REMARK       I    between atoms: N_2  and  C_15 
REMARK    4  A    between atoms: C_9  and  C_12 
ROOT
HETATM    1  C   UNL     1     -12.351 -28.391   1.266  1.00  0.00     0.034 C 
HETATM    2  C   UNL     1     -13.858 -28.530   1.079  1.00  0.00     0.011 C 
HETATM    3  C   UNL     1     -14.273 -29.535   2.145  1.00  0.00     0.007 C 
HETATM    4  C   UNL     1     -11.033 -28.158   3.482  1.00  0.00    -0.001 C 
HETATM    5  C   UNL     1     -13.302 -29.342   3.322  1.00  0.00     0.040 C 
HETATM    6  C   UNL     1     -12.105 -28.625   2.729  1.00  0.00    -0.080 C 
ENDROOT
BRANCH   3   7
HETATM    7  C   UNL     1     -15.733 -29.444   2.557  1.00  0.00     0.127 C 
BRANCH   7   8
HETATM    8  N   UNL     1     -16.752 -29.138   1.548  1.00  0.00    -0.361 N 
HETATM    9  C   UNL     1     -16.920 -29.942   0.425  1.00  0.00     0.213 C 
HETATM   10  O   UNL     1     -15.970 -30.319  -0.239  1.00  0.00    -0.274 OA
HETATM   11  C   UNL     1     -18.327 -30.323   0.069  1.00  0.00     0.117 C 
ATOM     12  HN  UNL     1     -17.349 -28.320   1.672  1.00  0.00     0.162 HD
ENDBRANCH   7   8
ENDBRANCH   3   7
BRANCH   4  13
HETATM   13  C   UNL     1      -9.660 -28.126   3.331  1.00  0.00    -0.027 C 
BRANCH  13  14
HETATM   14  C   UNL     1      -8.953 -27.517   2.162  1.00  0.00     0.022 C 
HETATM   15  C   UNL     1      -9.272 -26.050   1.978  1.00  0.00     0.009 C 
ENDBRANCH  13  14
ENDBRANCH   4  13
TORSDOF 4
