MODEL 1
REMARK VINA RESULT:      -7.4      0.000      0.000
REMARK  3 active torsions:
REMARK  status: ('A' for Active; 'I' for Inactive)
REMARK       I    between atoms: N_4  and  C_8 
REMARK    1  A    between atoms: N_4  and  C_17 
REMARK    2  A    between atoms: C_8  and  C_15 
REMARK    3  A    between atoms: O_9  and  C_14 
ROOT
HETATM    1  N   UNL     1       3.009   2.904  30.886  1.00  0.00    -0.319 N 
ATOM      2  HN  UNL     1       2.758   3.135  29.924  1.00  0.00     0.169 HD
HETATM    3  C   UNL     1       2.318   3.527  31.892  1.00  0.00     0.272 C 
HETATM    4  O   UNL     1       1.359   2.995  32.427  1.00  0.00    -0.266 OA
ENDROOT
BRANCH   1   5
HETATM    5  C   UNL     1       4.032   1.977  31.087  1.00  0.00     0.068 C 
HETATM    6  C   UNL     1       5.333   2.411  31.335  1.00  0.00     0.032 C 
HETATM    7  C   UNL     1       6.191   1.580  32.045  1.00  0.00     0.002 C 
HETATM    8  C   UNL     1       5.779   0.312  32.435  1.00  0.00     0.003 C 
HETATM    9  C   UNL     1       4.596  -0.206  31.933  1.00  0.00     0.039 C 
HETATM   10  C   UNL     1       3.770   0.604  31.158  1.00  0.00     0.092 C 
BRANCH  10  11
HETATM   11  O   UNL     1       2.730   0.051  30.483  1.00  0.00    -0.358 OA
ATOM     12  HO  UNL     1       2.820  -0.817  30.108  1.00  0.00     0.217 HD
ENDBRANCH  10  11
ENDBRANCH   1   5
BRANCH   3  13
HETATM   13  C   UNL     1       2.796   4.871  32.317  1.00  0.00     0.100 C 
HETATM   14  N   UNL     1       2.375   5.976  31.671  1.00  0.00    -0.361 N 
HETATM   15  C   UNL     1       3.191   7.039  31.656  1.00  0.00     0.088 C 
ATOM     16  HN  UNL     1       1.465   6.003  31.209  1.00  0.00     0.165 HD
HETATM   17  C   UNL     1       4.358   7.072  32.421  1.00  0.00     0.017 C 
HETATM   18  C   UNL     1       4.648   6.017  33.274  1.00  0.00     0.004 C 
HETATM   19  C   UNL     1       3.733   4.970  33.342  1.00  0.00     0.035 C 
ENDBRANCH   3  13
TORSDOF 3
ENDMDL
MODEL 2
REMARK VINA RESULT:      -6.9      1.077      1.455
REMARK  3 active torsions:
REMARK  status: ('A' for Active; 'I' for Inactive)
REMARK       I    between atoms: N_4  and  C_8 
REMARK    1  A    between atoms: N_4  and  C_17 
REMARK    2  A    between atoms: C_8  and  C_15 
REMARK    3  A    between atoms: O_9  and  C_14 
ROOT
HETATM    1  N   UNL     1       3.714   2.739  30.456  1.00  0.00    -0.319 N 
ATOM      2  HN  UNL     1       3.567   2.900  29.460  1.00  0.00     0.169 HD
HETATM    3  C   UNL     1       3.147   3.622  31.337  1.00  0.00     0.272 C 
HETATM    4  O   UNL     1       2.067   3.394  31.858  1.00  0.00    -0.266 OA
ENDROOT
BRANCH   1   5
HETATM    5  C   UNL     1       4.480   1.633  30.830  1.00  0.00     0.068 C 
HETATM    6  C   UNL     1       5.854   1.765  31.025  1.00  0.00     0.032 C 
HETATM    7  C   UNL     1       6.496   0.878  31.881  1.00  0.00     0.002 C 
HETATM    8  C   UNL     1       5.791  -0.164  32.471  1.00  0.00     0.003 C 
HETATM    9  C   UNL     1       4.505  -0.448  32.042  1.00  0.00     0.039 C 
HETATM   10  C   UNL     1       3.887   0.400  31.126  1.00  0.00     0.092 C 
BRANCH  10  11
HETATM   11  O   UNL     1       2.726   0.019  30.535  1.00  0.00    -0.358 OA
ATOM     12  HO  UNL     1       2.361  -0.838  30.723  1.00  0.00     0.217 HD
ENDBRANCH  10  11
ENDBRANCH   1   5
BRANCH   3  13
HETATM   13  C   UNL     1       3.911   4.862  31.645  1.00  0.00     0.100 C 
HETATM   14  N   UNL     1       4.861   4.854  32.601  1.00  0.00    -0.361 N 
HETATM   15  C   UNL     1       5.108   6.004  33.243  1.00  0.00     0.088 C 
ATOM     16  HN  UNL     1       5.374   4.002  32.828  1.00  0.00     0.165 HD
HETATM   17  C   UNL     1       4.536   7.208  32.829  1.00  0.00     0.017 C 
HETATM   18  C   UNL     1       3.751   7.235  31.686  1.00  0.00     0.004 C 
HETATM   19  C   UNL     1       3.589   6.044  30.983  1.00  0.00     0.035 C 
ENDBRANCH   3  13
TORSDOF 3
ENDMDL
MODEL 3
REMARK VINA RESULT:      -6.5      2.635      5.401
REMARK  3 active torsions:
REMARK  status: ('A' for Active; 'I' for Inactive)
REMARK       I    between atoms: N_4  and  C_8 
REMARK    1  A    between atoms: N_4  and  C_17 
REMARK    2  A    between atoms: C_8  and  C_15 
REMARK    3  A    between atoms: O_9  and  C_14 
ROOT
HETATM    1  N   UNL     1       4.566   1.315  30.310  1.00  0.00    -0.319 N 
ATOM      2  HN  UNL     1       4.248   0.351  30.414  1.00  0.00     0.169 HD
HETATM    3  C   UNL     1       5.557   1.565  29.398  1.00  0.00     0.272 C 
HETATM    4  O   UNL     1       5.299   1.940  28.266  1.00  0.00    -0.266 OA
ENDROOT
BRANCH   1   5
HETATM    5  C   UNL     1       3.961   2.289  31.107  1.00  0.00     0.068 C 
HETATM    6  C   UNL     1       4.683   3.409  31.514  1.00  0.00     0.032 C 
HETATM    7  C   UNL     1       3.992   4.578  31.810  1.00  0.00     0.002 C 
HETATM    8  C   UNL     1       2.604   4.604  31.770  1.00  0.00     0.003 C 
HETATM    9  C   UNL     1       1.902   3.415  31.647  1.00  0.00     0.039 C 
HETATM   10  C   UNL     1       2.599   2.230  31.424  1.00  0.00     0.092 C 
BRANCH  10  11
HETATM   11  O   UNL     1       1.951   1.041  31.522  1.00  0.00    -0.358 OA
ATOM     12  HO  UNL     1       2.070   0.502  32.295  1.00  0.00     0.217 HD
ENDBRANCH  10  11
ENDBRANCH   1   5
BRANCH   3  13
HETATM   13  C   UNL     1       6.962   1.378  29.852  1.00  0.00     0.100 C 
HETATM   14  N   UNL     1       7.987   1.698  29.036  1.00  0.00    -0.361 N 
HETATM   15  C   UNL     1       9.138   1.030  29.189  1.00  0.00     0.088 C 
ATOM     16  HN  UNL     1       7.889   2.424  28.326  1.00  0.00     0.165 HD
HETATM   17  C   UNL     1       9.337   0.157  30.260  1.00  0.00     0.017 C 
HETATM   18  C   UNL     1       8.354   0.029  31.231  1.00  0.00     0.004 C 
HETATM   19  C   UNL     1       7.208   0.808  31.098  1.00  0.00     0.035 C 
ENDBRANCH   3  13
TORSDOF 3
ENDMDL
MODEL 4
REMARK VINA RESULT:      -6.5      1.862      5.276
REMARK  3 active torsions:
REMARK  status: ('A' for Active; 'I' for Inactive)
REMARK       I    between atoms: N_4  and  C_8 
REMARK    1  A    between atoms: N_4  and  C_17 
REMARK    2  A    between atoms: C_8  and  C_15 
REMARK    3  A    between atoms: O_9  and  C_14 
ROOT
HETATM    1  N   UNL     1       3.400   3.101  31.260  1.00  0.00    -0.319 N 
ATOM      2  HN  UNL     1       2.636   2.797  31.864  1.00  0.00     0.169 HD
HETATM    3  C   UNL     1       3.845   2.225  30.305  1.00  0.00     0.272 C 
HETATM    4  O   UNL     1       3.436   2.277  29.156  1.00  0.00    -0.266 OA
ENDROOT
BRANCH   1   5
HETATM    5  C   UNL     1       3.921   4.380  31.463  1.00  0.00     0.068 C 
HETATM    6  C   UNL     1       3.405   5.467  30.760  1.00  0.00     0.032 C 
HETATM    7  C   UNL     1       3.512   6.735  31.316  1.00  0.00     0.002 C 
HETATM    8  C   UNL     1       4.188   6.922  32.516  1.00  0.00     0.003 C 
HETATM    9  C   UNL     1       4.935   5.883  33.047  1.00  0.00     0.039 C 
HETATM   10  C   UNL     1       4.886   4.629  32.446  1.00  0.00     0.092 C 
BRANCH  10  11
HETATM   11  O   UNL     1       5.774   3.670  32.817  1.00  0.00    -0.358 OA
ATOM     12  HO  UNL     1       5.473   2.780  32.957  1.00  0.00     0.217 HD
ENDBRANCH  10  11
ENDBRANCH   1   5
BRANCH   3  13
HETATM   13  C   UNL     1       4.861   1.221  30.722  1.00  0.00     0.100 C 
HETATM   14  N   UNL     1       4.576   0.331  31.694  1.00  0.00    -0.361 N 
HETATM   15  C   UNL     1       5.594  -0.139  32.427  1.00  0.00     0.088 C 
ATOM     16  HN  UNL     1       3.618   0.025  31.865  1.00  0.00     0.165 HD
HETATM   17  C   UNL     1       6.921   0.141  32.096  1.00  0.00     0.017 C 
HETATM   18  C   UNL     1       7.202   0.859  30.943  1.00  0.00     0.004 C 
HETATM   19  C   UNL     1       6.129   1.252  30.147  1.00  0.00     0.035 C 
ENDBRANCH   3  13
TORSDOF 3
ENDMDL
MODEL 5
REMARK VINA RESULT:      -6.4      3.162      4.640
REMARK  3 active torsions:
REMARK  status: ('A' for Active; 'I' for Inactive)
REMARK       I    between atoms: N_4  and  C_8 
REMARK    1  A    between atoms: N_4  and  C_17 
REMARK    2  A    between atoms: C_8  and  C_15 
REMARK    3  A    between atoms: O_9  and  C_14 
ROOT
HETATM    1  N   UNL     1       3.625   6.754  32.865  1.00  0.00    -0.319 N 
ATOM      2  HN  UNL     1       2.772   6.882  33.409  1.00  0.00     0.169 HD
HETATM    3  C   UNL     1       4.161   7.854  32.249  1.00  0.00     0.272 C 
HETATM    4  O   UNL     1       5.055   8.502  32.769  1.00  0.00    -0.266 OA
ENDROOT
BRANCH   1   5
HETATM    5  C   UNL     1       4.168   5.470  32.799  1.00  0.00     0.068 C 
HETATM    6  C   UNL     1       3.545   4.483  32.037  1.00  0.00     0.032 C 
HETATM    7  C   UNL     1       4.314   3.438  31.538  1.00  0.00     0.002 C 
HETATM    8  C   UNL     1       5.663   3.343  31.858  1.00  0.00     0.003 C 
HETATM    9  C   UNL     1       6.191   4.164  32.841  1.00  0.00     0.039 C 
HETATM   10  C   UNL     1       5.397   5.164  33.395  1.00  0.00     0.092 C 
BRANCH  10  11
HETATM   11  O   UNL     1       5.824   5.824  34.503  1.00  0.00    -0.358 OA
ATOM     12  HO  UNL     1       6.717   6.146  34.544  1.00  0.00     0.217 HD
ENDBRANCH  10  11
ENDBRANCH   1   5
BRANCH   3  13
HETATM   13  C   UNL     1       3.619   8.216  30.911  1.00  0.00     0.100 C 
HETATM   14  N   UNL     1       4.117   9.274  30.240  1.00  0.00    -0.361 N 
HETATM   15  C   UNL     1       3.303   9.912  29.388  1.00  0.00     0.088 C 
ATOM     16  HN  UNL     1       5.081   9.578  30.377  1.00  0.00     0.165 HD
HETATM   17  C   UNL     1       2.042   9.407  29.069  1.00  0.00     0.017 C 
HETATM   18  C   UNL     1       1.644   8.182  29.583  1.00  0.00     0.004 C 
HETATM   19  C   UNL     1       2.548   7.494  30.389  1.00  0.00     0.035 C 
ENDBRANCH   3  13
TORSDOF 3
ENDMDL
MODEL 6
REMARK VINA RESULT:      -6.4      2.708      5.992
REMARK  3 active torsions:
REMARK  status: ('A' for Active; 'I' for Inactive)
REMARK       I    between atoms: N_4  and  C_8 
REMARK    1  A    between atoms: N_4  and  C_17 
REMARK    2  A    between atoms: C_8  and  C_15 
REMARK    3  A    between atoms: O_9  and  C_14 
ROOT
HETATM    1  N   UNL     1       2.401   6.659  31.641  1.00  0.00    -0.319 N 
ATOM      2  HN  UNL     1       1.691   6.919  32.327  1.00  0.00     0.169 HD
HETATM    3  C   UNL     1       2.814   5.353  31.614  1.00  0.00     0.272 C 
HETATM    4  O   UNL     1       2.327   4.549  30.836  1.00  0.00    -0.266 OA
ENDROOT
BRANCH   1   5
HETATM    5  C   UNL     1       2.884   7.658  30.795  1.00  0.00     0.068 C 
HETATM    6  C   UNL     1       2.334   7.828  29.525  1.00  0.00     0.032 C 
HETATM    7  C   UNL     1       2.405   9.080  28.928  1.00  0.00     0.002 C 
HETATM    8  C   UNL     1       3.077  10.122  29.555  1.00  0.00     0.003 C 
HETATM    9  C   UNL     1       3.857   9.858  30.670  1.00  0.00     0.039 C 
HETATM   10  C   UNL     1       3.843   8.581  31.226  1.00  0.00     0.092 C 
BRANCH  10  11
HETATM   11  O   UNL     1       4.760   8.251  32.172  1.00  0.00    -0.358 OA
ATOM     12  HO  UNL     1       5.415   8.887  32.434  1.00  0.00     0.217 HD
ENDBRANCH  10  11
ENDBRANCH   1   5
BRANCH   3  13
HETATM   13  C   UNL     1       3.894   4.961  32.560  1.00  0.00     0.100 C 
HETATM   14  N   UNL     1       3.979   5.545  33.772  1.00  0.00    -0.361 N 
HETATM   15  C   UNL     1       5.190   5.628  34.340  1.00  0.00     0.088 C 
ATOM     16  HN  UNL     1       3.151   5.911  34.241  1.00  0.00     0.165 HD
HETATM   17  C   UNL     1       6.300   4.985  33.788  1.00  0.00     0.017 C 
HETATM   18  C   UNL     1       6.139   4.182  32.669  1.00  0.00     0.004 C 
HETATM   19  C   UNL     1       4.853   4.035  32.156  1.00  0.00     0.035 C 
ENDBRANCH   3  13
TORSDOF 3
ENDMDL
MODEL 7
REMARK VINA RESULT:      -6.4      2.200      2.934
REMARK  3 active torsions:
REMARK  status: ('A' for Active; 'I' for Inactive)
REMARK       I    between atoms: N_4  and  C_8 
REMARK    1  A    between atoms: N_4  and  C_17 
REMARK    2  A    between atoms: C_8  and  C_15 
REMARK    3  A    between atoms: O_9  and  C_14 
ROOT
HETATM    1  N   UNL     1       3.900   2.341  29.533  1.00  0.00    -0.319 N 
ATOM      2  HN  UNL     1       4.410   2.153  28.670  1.00  0.00     0.169 HD
HETATM    3  C   UNL     1       2.816   3.177  29.465  1.00  0.00     0.272 C 
HETATM    4  O   UNL     1       1.682   2.739  29.349  1.00  0.00    -0.266 OA
ENDROOT
BRANCH   1   5
HETATM    5  C   UNL     1       4.352   1.729  30.703  1.00  0.00     0.068 C 
HETATM    6  C   UNL     1       3.754   0.555  31.157  1.00  0.00     0.032 C 
HETATM    7  C   UNL     1       4.498  -0.313  31.946  1.00  0.00     0.002 C 
HETATM    8  C   UNL     1       5.789   0.022  32.335  1.00  0.00     0.003 C 
HETATM    9  C   UNL     1       6.256   1.309  32.117  1.00  0.00     0.039 C 
HETATM   10  C   UNL     1       5.477   2.204  31.388  1.00  0.00     0.092 C 
BRANCH  10  11
HETATM   11  O   UNL     1       5.816   3.518  31.356  1.00  0.00    -0.358 OA
ATOM     12  HO  UNL     1       6.540   3.830  31.887  1.00  0.00     0.217 HD
ENDBRANCH  10  11
ENDBRANCH   1   5
BRANCH   3  13
HETATM   13  C   UNL     1       3.077   4.639  29.554  1.00  0.00     0.100 C 
HETATM   14  N   UNL     1       3.354   5.207  30.745  1.00  0.00    -0.361 N 
HETATM   15  C   UNL     1       3.024   6.495  30.913  1.00  0.00     0.088 C 
ATOM     16  HN  UNL     1       3.800   4.675  31.493  1.00  0.00     0.165 HD
HETATM   17  C   UNL     1       2.570   7.276  29.849  1.00  0.00     0.017 C 
HETATM   18  C   UNL     1       2.527   6.735  28.573  1.00  0.00     0.004 C 
HETATM   19  C   UNL     1       2.967   5.425  28.409  1.00  0.00     0.035 C 
ENDBRANCH   3  13
TORSDOF 3
ENDMDL
MODEL 8
REMARK VINA RESULT:      -6.3      2.010      5.558
REMARK  3 active torsions:
REMARK  status: ('A' for Active; 'I' for Inactive)
REMARK       I    between atoms: N_4  and  C_8 
REMARK    1  A    between atoms: N_4  and  C_17 
REMARK    2  A    between atoms: C_8  and  C_15 
REMARK    3  A    between atoms: O_9  and  C_14 
ROOT
HETATM    1  N   UNL     1       2.563   4.876  30.850  1.00  0.00    -0.319 N 
ATOM      2  HN  UNL     1       1.565   4.672  30.803  1.00  0.00     0.169 HD
HETATM    3  C   UNL     1       3.424   4.005  30.236  1.00  0.00     0.272 C 
HETATM    4  O   UNL     1       3.834   4.209  29.104  1.00  0.00    -0.266 OA
ENDROOT
BRANCH   1   5
HETATM    5  C   UNL     1       2.960   6.025  31.537  1.00  0.00     0.068 C 
HETATM    6  C   UNL     1       3.718   5.919  32.702  1.00  0.00     0.032 C 
HETATM    7  C   UNL     1       4.541   6.979  33.063  1.00  0.00     0.002 C 
HETATM    8  C   UNL     1       4.549   8.149  32.314  1.00  0.00     0.003 C 
HETATM    9  C   UNL     1       3.585   8.342  31.338  1.00  0.00     0.039 C 
HETATM   10  C   UNL     1       2.710   7.304  31.027  1.00  0.00     0.092 C 
BRANCH  10  11
HETATM   11  O   UNL     1       1.631   7.548  30.240  1.00  0.00    -0.358 OA
ATOM     12  HO  UNL     1       1.566   7.132  29.388  1.00  0.00     0.217 HD
ENDBRANCH  10  11
ENDBRANCH   1   5
BRANCH   3  13
HETATM   13  C   UNL     1       3.851   2.809  31.012  1.00  0.00     0.100 C 
HETATM   14  N   UNL     1       5.062   2.781  31.603  1.00  0.00    -0.361 N 
HETATM   15  C   UNL     1       5.643   1.586  31.777  1.00  0.00     0.088 C 
ATOM     16  HN  UNL     1       5.520   3.640  31.908  1.00  0.00     0.165 HD
HETATM   17  C   UNL     1       4.958   0.398  31.518  1.00  0.00     0.017 C 
HETATM   18  C   UNL     1       3.624   0.444  31.144  1.00  0.00     0.004 C 
HETATM   19  C   UNL     1       3.017   1.695  31.065  1.00  0.00     0.035 C 
ENDBRANCH   3  13
TORSDOF 3
ENDMDL
MODEL 9
REMARK VINA RESULT:      -6.3      2.227      2.970
REMARK  3 active torsions:
REMARK  status: ('A' for Active; 'I' for Inactive)
REMARK       I    between atoms: N_4  and  C_8 
REMARK    1  A    between atoms: N_4  and  C_17 
REMARK    2  A    between atoms: C_8  and  C_15 
REMARK    3  A    between atoms: O_9  and  C_14 
ROOT
HETATM    1  N   UNL     1       4.845   1.610  29.703  1.00  0.00    -0.319 N 
ATOM      2  HN  UNL     1       5.004   1.649  28.695  1.00  0.00     0.169 HD
HETATM    3  C   UNL     1       3.560   1.764  30.152  1.00  0.00     0.272 C 
HETATM    4  O   UNL     1       2.853   0.800  30.398  1.00  0.00    -0.266 OA
ENDROOT
BRANCH   1   5
HETATM    5  C   UNL     1       5.951   1.404  30.528  1.00  0.00     0.068 C 
HETATM    6  C   UNL     1       5.773   1.134  31.884  1.00  0.00     0.032 C 
HETATM    7  C   UNL     1       6.756   0.420  32.558  1.00  0.00     0.002 C 
HETATM    8  C   UNL     1       7.927   0.049  31.908  1.00  0.00     0.003 C 
HETATM    9  C   UNL     1       8.208   0.572  30.656  1.00  0.00     0.039 C 
HETATM   10  C   UNL     1       7.250   1.351  30.011  1.00  0.00     0.092 C 
BRANCH  10  11
HETATM   11  O   UNL     1       7.591   2.046  28.895  1.00  0.00    -0.358 OA
ATOM     12  HO  UNL     1       8.439   2.470  28.846  1.00  0.00     0.217 HD
ENDBRANCH  10  11
ENDBRANCH   1   5
BRANCH   3  13
HETATM   13  C   UNL     1       3.068   3.156  30.345  1.00  0.00     0.100 C 
HETATM   14  N   UNL     1       2.532   3.835  29.312  1.00  0.00    -0.361 N 
HETATM   15  C   UNL     1       2.633   5.172  29.326  1.00  0.00     0.088 C 
ATOM     16  HN  UNL     1       2.066   3.350  28.546  1.00  0.00     0.165 HD
HETATM   17  C   UNL     1       3.117   5.854  30.443  1.00  0.00     0.017 C 
HETATM   18  C   UNL     1       3.433   5.148  31.594  1.00  0.00     0.004 C 
HETATM   19  C   UNL     1       3.228   3.771  31.585  1.00  0.00     0.035 C 
ENDBRANCH   3  13
TORSDOF 3
ENDMDL
