MODEL 1
REMARK VINA RESULT:      -6.4      0.000      0.000
REMARK  7 active torsions:
REMARK  status: ('A' for Active; 'I' for Inactive)
REMARK    1  A    between atoms: C_1  and  C_3 
REMARK    2  A    between atoms: C_1  and  C_14 
REMARK    3  A    between atoms: C_2  and  O_9 
REMARK    4  A    between atoms: C_3  and  O_4 
REMARK    5  A    between atoms: C_3  and  P_15 
REMARK    6  A    between atoms: O_9  and  O_10 
REMARK    7  A    between atoms: O_12  and  C_16 
ROOT
HETATM    1  C   UNL     1       4.292   0.545  31.148  1.00  0.00     0.140 C 
HETATM    2  C   UNL     1       6.416   1.426  32.713  1.00  0.00     0.010 C 
HETATM    3  C   UNL     1       5.788   2.313  31.841  1.00  0.00    -0.019 C 
HETATM    4  C   UNL     1       4.786   1.844  30.990  1.00  0.00     0.108 C 
HETATM    5  C   UNL     1       4.856  -0.302  32.104  1.00  0.00     0.043 C 
HETATM    6  C   UNL     1       5.978   0.106  32.819  1.00  0.00     0.004 C 
ENDROOT
BRANCH   3   7
HETATM    7  C   UNL     1       6.089   3.783  31.871  1.00  0.00     0.087 C 
BRANCH   7   8
HETATM    8  C   UNL     1       5.690   4.395  33.210  1.00  0.00     0.252 C 
BRANCH   8   9
HETATM    9  O   UNL     1       6.800   4.944  33.905  1.00  0.00    -0.381 OA
ATOM     10  HO  UNL     1       6.554   5.316  34.743  1.00  0.00     0.210 HD
ENDBRANCH   8   9
BRANCH   8  11
HETATM   11  P   UNL     1       4.262   5.500  33.138  1.00  0.00     0.289 P 
HETATM   12  O   UNL     1       3.492   5.360  34.413  1.00  0.00    -0.638 OA
HETATM   13  O   UNL     1       3.437   4.978  31.995  1.00  0.00    -0.638 OA
HETATM   14  O   UNL     1       4.790   6.872  32.873  1.00  0.00    -0.638 OA
ENDBRANCH   8  11
ENDBRANCH   7   8
ENDBRANCH   3   7
BRANCH   4  15
HETATM   15  O   UNL     1       4.260   2.691  30.065  1.00  0.00    -0.357 OA
ATOM     16  HO  UNL     1       4.812   3.290  29.577  1.00  0.00     0.217 HD
ENDBRANCH   4  15
BRANCH   1  17
HETATM   17  O   UNL     1       3.158   0.109  30.472  1.00  0.00    -0.197 OA
BRANCH  17  18
HETATM   18  O   UNL     1       2.021   0.814  30.442  1.00  0.00    -0.245 OA
ATOM     19  HO  UNL     1       1.709   1.249  29.658  1.00  0.00     0.254 HD
ENDBRANCH  17  18
ENDBRANCH   1  17
TORSDOF 7
ENDMDL
MODEL 2
REMARK VINA RESULT:      -6.0      3.223      5.806
REMARK  7 active torsions:
REMARK  status: ('A' for Active; 'I' for Inactive)
REMARK    1  A    between atoms: C_1  and  C_3 
REMARK    2  A    between atoms: C_1  and  C_14 
REMARK    3  A    between atoms: C_2  and  O_9 
REMARK    4  A    between atoms: C_3  and  O_4 
REMARK    5  A    between atoms: C_3  and  P_15 
REMARK    6  A    between atoms: O_9  and  O_10 
REMARK    7  A    between atoms: O_12  and  C_16 
ROOT
HETATM    1  C   UNL     1       5.169   6.121  33.279  1.00  0.00     0.140 C 
HETATM    2  C   UNL     1       3.164   6.919  31.525  1.00  0.00     0.010 C 
HETATM    3  C   UNL     1       3.501   5.570  31.618  1.00  0.00    -0.019 C 
HETATM    4  C   UNL     1       4.569   5.185  32.429  1.00  0.00     0.108 C 
HETATM    5  C   UNL     1       4.746   7.451  33.258  1.00  0.00     0.043 C 
HETATM    6  C   UNL     1       3.811   7.869  32.315  1.00  0.00     0.004 C 
ENDROOT
BRANCH   3   7
HETATM    7  C   UNL     1       2.674   4.510  30.952  1.00  0.00     0.087 C 
BRANCH   7   8
HETATM    8  C   UNL     1       3.126   4.289  29.512  1.00  0.00     0.252 C 
BRANCH   8   9
HETATM    9  O   UNL     1       3.919   5.360  29.024  1.00  0.00    -0.381 OA
ATOM     10  HO  UNL     1       4.836   5.264  29.251  1.00  0.00     0.210 HD
ENDBRANCH   8   9
BRANCH   8  11
HETATM   11  P   UNL     1       3.832   2.657  29.186  1.00  0.00     0.289 P 
HETATM   12  O   UNL     1       3.823   2.425  27.709  1.00  0.00    -0.638 OA
HETATM   13  O   UNL     1       2.886   1.696  29.851  1.00  0.00    -0.638 OA
HETATM   14  O   UNL     1       5.188   2.640  29.815  1.00  0.00    -0.638 OA
ENDBRANCH   8  11
ENDBRANCH   7   8
ENDBRANCH   3   7
BRANCH   4  15
HETATM   15  O   UNL     1       4.962   3.884  32.425  1.00  0.00    -0.357 OA
ATOM     16  HO  UNL     1       5.872   3.645  32.296  1.00  0.00     0.217 HD
ENDBRANCH   4  15
BRANCH   1  17
HETATM   17  O   UNL     1       6.086   5.739  34.252  1.00  0.00    -0.197 OA
BRANCH  17  18
HETATM   18  O   UNL     1       7.175   5.013  33.972  1.00  0.00    -0.245 OA
ATOM     19  HO  UNL     1       7.855   4.843  34.612  1.00  0.00     0.254 HD
ENDBRANCH  17  18
ENDBRANCH   1  17
TORSDOF 7
ENDMDL
MODEL 3
REMARK VINA RESULT:      -6.0      2.661      4.396
REMARK  7 active torsions:
REMARK  status: ('A' for Active; 'I' for Inactive)
REMARK    1  A    between atoms: C_1  and  C_3 
REMARK    2  A    between atoms: C_1  and  C_14 
REMARK    3  A    between atoms: C_2  and  O_9 
REMARK    4  A    between atoms: C_3  and  O_4 
REMARK    5  A    between atoms: C_3  and  P_15 
REMARK    6  A    between atoms: O_9  and  O_10 
REMARK    7  A    between atoms: O_12  and  C_16 
ROOT
HETATM    1  C   UNL     1       7.898   1.495  29.449  1.00  0.00     0.140 C 
HETATM    2  C   UNL     1       7.703   0.118  31.859  1.00  0.00     0.010 C 
HETATM    3  C   UNL     1       6.672   0.970  31.466  1.00  0.00    -0.019 C 
HETATM    4  C   UNL     1       6.816   1.730  30.305  1.00  0.00     0.108 C 
HETATM    5  C   UNL     1       8.869   0.555  29.799  1.00  0.00     0.043 C 
HETATM    6  C   UNL     1       8.822  -0.062  31.046  1.00  0.00     0.004 C 
ENDROOT
BRANCH   3   7
HETATM    7  C   UNL     1       5.367   1.009  32.205  1.00  0.00     0.087 C 
BRANCH   7   8
HETATM    8  C   UNL     1       4.222   0.529  31.319  1.00  0.00     0.252 C 
BRANCH   8   9
HETATM    9  O   UNL     1       3.667  -0.698  31.770  1.00  0.00    -0.381 OA
ATOM     10  HO  UNL     1       4.323  -1.277  32.140  1.00  0.00     0.210 HD
ENDBRANCH   8   9
BRANCH   8  11
HETATM   11  P   UNL     1       2.982   1.789  30.941  1.00  0.00     0.289 P 
HETATM   12  O   UNL     1       2.894   1.933  29.455  1.00  0.00    -0.638 OA
HETATM   13  O   UNL     1       3.536   3.054  31.535  1.00  0.00    -0.638 OA
HETATM   14  O   UNL     1       1.714   1.361  31.606  1.00  0.00    -0.638 OA
ENDBRANCH   8  11
ENDBRANCH   7   8
ENDBRANCH   3   7
BRANCH   4  15
HETATM   15  O   UNL     1       5.855   2.640  29.992  1.00  0.00    -0.357 OA
ATOM     16  HO  UNL     1       6.060   3.565  29.916  1.00  0.00     0.217 HD
ENDBRANCH   4  15
BRANCH   1  17
HETATM   17  O   UNL     1       7.967   2.072  28.187  1.00  0.00    -0.197 OA
BRANCH  17  18
HETATM   18  O   UNL     1       6.932   2.079  27.339  1.00  0.00    -0.245 OA
ATOM     19  HO  UNL     1       6.034   2.193  27.628  1.00  0.00     0.254 HD
ENDBRANCH  17  18
ENDBRANCH   1  17
TORSDOF 7
ENDMDL
MODEL 4
REMARK VINA RESULT:      -6.0      2.963      5.650
REMARK  7 active torsions:
REMARK  status: ('A' for Active; 'I' for Inactive)
REMARK    1  A    between atoms: C_1  and  C_3 
REMARK    2  A    between atoms: C_1  and  C_14 
REMARK    3  A    between atoms: C_2  and  O_9 
REMARK    4  A    between atoms: C_3  and  O_4 
REMARK    5  A    between atoms: C_3  and  P_15 
REMARK    6  A    between atoms: O_9  and  O_10 
REMARK    7  A    between atoms: O_12  and  C_16 
ROOT
HETATM    1  C   UNL     1       4.868   6.900  33.042  1.00  0.00     0.140 C 
HETATM    2  C   UNL     1       5.032   4.146  32.686  1.00  0.00     0.010 C 
HETATM    3  C   UNL     1       4.315   4.918  31.772  1.00  0.00    -0.019 C 
HETATM    4  C   UNL     1       4.158   6.284  32.006  1.00  0.00     0.108 C 
HETATM    5  C   UNL     1       5.674   6.131  33.884  1.00  0.00     0.043 C 
HETATM    6  C   UNL     1       5.680   4.744  33.766  1.00  0.00     0.004 C 
ENDROOT
BRANCH   3   7
HETATM    7  C   UNL     1       3.802   4.334  30.489  1.00  0.00     0.087 C 
BRANCH   7   8
HETATM    8  C   UNL     1       2.290   4.141  30.542  1.00  0.00     0.252 C 
BRANCH   8   9
HETATM    9  O   UNL     1       1.607   4.964  29.609  1.00  0.00    -0.381 OA
ATOM     10  HO  UNL     1       1.066   4.461  29.011  1.00  0.00     0.210 HD
ENDBRANCH   8   9
BRANCH   8  11
HETATM   11  P   UNL     1       1.749   2.416  30.519  1.00  0.00     0.289 P 
HETATM   12  O   UNL     1       1.543   1.968  31.931  1.00  0.00    -0.638 OA
HETATM   13  O   UNL     1       2.905   1.666  29.919  1.00  0.00    -0.638 OA
HETATM   14  O   UNL     1       0.530   2.357  29.658  1.00  0.00    -0.638 OA
ENDBRANCH   8  11
ENDBRANCH   7   8
ENDBRANCH   3   7
BRANCH   4  15
HETATM   15  O   UNL     1       3.363   7.006  31.171  1.00  0.00    -0.357 OA
ATOM     16  HO  UNL     1       3.728   7.668  30.595  1.00  0.00     0.217 HD
ENDBRANCH   4  15
BRANCH   1  17
HETATM   17  O   UNL     1       4.908   8.283  33.177  1.00  0.00    -0.197 OA
BRANCH  17  18
HETATM   18  O   UNL     1       5.140   9.102  32.145  1.00  0.00    -0.245 OA
ATOM     19  HO  UNL     1       5.142   8.803  31.244  1.00  0.00     0.254 HD
ENDBRANCH  17  18
ENDBRANCH   1  17
TORSDOF 7
ENDMDL
MODEL 5
REMARK VINA RESULT:      -5.9      2.556      5.469
REMARK  7 active torsions:
REMARK  status: ('A' for Active; 'I' for Inactive)
REMARK    1  A    between atoms: C_1  and  C_3 
REMARK    2  A    between atoms: C_1  and  C_14 
REMARK    3  A    between atoms: C_2  and  O_9 
REMARK    4  A    between atoms: C_3  and  O_4 
REMARK    5  A    between atoms: C_3  and  P_15 
REMARK    6  A    between atoms: O_9  and  O_10 
REMARK    7  A    between atoms: O_12  and  C_16 
ROOT
HETATM    1  C   UNL     1       5.257   5.727  33.305  1.00  0.00     0.140 C 
HETATM    2  C   UNL     1       3.815   5.572  30.932  1.00  0.00     0.010 C 
HETATM    3  C   UNL     1       4.504   4.452  31.395  1.00  0.00    -0.019 C 
HETATM    4  C   UNL     1       5.301   4.561  32.535  1.00  0.00     0.108 C 
HETATM    5  C   UNL     1       4.473   6.806  32.890  1.00  0.00     0.043 C 
HETATM    6  C   UNL     1       3.829   6.763  31.656  1.00  0.00     0.004 C 
ENDROOT
BRANCH   3   7
HETATM    7  C   UNL     1       4.323   3.105  30.759  1.00  0.00     0.087 C 
BRANCH   7   8
HETATM    8  C   UNL     1       3.077   3.079  29.879  1.00  0.00     0.252 C 
BRANCH   8   9
HETATM    9  O   UNL     1       3.344   2.574  28.579  1.00  0.00    -0.381 OA
ATOM     10  HO  UNL     1       2.691   2.845  27.944  1.00  0.00     0.210 HD
ENDBRANCH   8   9
BRANCH   8  11
HETATM   11  P   UNL     1       1.620   2.345  30.656  1.00  0.00     0.289 P 
HETATM   12  O   UNL     1       1.544   2.829  32.069  1.00  0.00    -0.638 OA
HETATM   13  O   UNL     1       1.892   0.867  30.647  1.00  0.00    -0.638 OA
HETATM   14  O   UNL     1       0.446   2.708  29.805  1.00  0.00    -0.638 OA
ENDBRANCH   8  11
ENDBRANCH   7   8
ENDBRANCH   3   7
BRANCH   4  15
HETATM   15  O   UNL     1       6.057   3.495  32.912  1.00  0.00    -0.357 OA
ATOM     16  HO  UNL     1       6.873   3.614  33.385  1.00  0.00     0.217 HD
ENDBRANCH   4  15
BRANCH   1  17
HETATM   17  O   UNL     1       5.865   5.800  34.554  1.00  0.00    -0.197 OA
BRANCH  17  18
HETATM   18  O   UNL     1       5.430   5.101  35.609  1.00  0.00    -0.245 OA
ATOM     19  HO  UNL     1       5.341   4.156  35.596  1.00  0.00     0.254 HD
ENDBRANCH  17  18
ENDBRANCH   1  17
TORSDOF 7
ENDMDL
MODEL 6
REMARK VINA RESULT:      -5.9      2.301      3.210
REMARK  7 active torsions:
REMARK  status: ('A' for Active; 'I' for Inactive)
REMARK    1  A    between atoms: C_1  and  C_3 
REMARK    2  A    between atoms: C_1  and  C_14 
REMARK    3  A    between atoms: C_2  and  O_9 
REMARK    4  A    between atoms: C_3  and  O_4 
REMARK    5  A    between atoms: C_3  and  P_15 
REMARK    6  A    between atoms: O_9  and  O_10 
REMARK    7  A    between atoms: O_12  and  C_16 
ROOT
HETATM    1  C   UNL     1       3.537   2.057  30.787  1.00  0.00     0.140 C 
HETATM    2  C   UNL     1       5.153   4.034  31.890  1.00  0.00     0.010 C 
HETATM    3  C   UNL     1       3.804   4.298  31.654  1.00  0.00    -0.019 C 
HETATM    4  C   UNL     1       3.021   3.337  31.014  1.00  0.00     0.108 C 
HETATM    5  C   UNL     1       4.859   1.769  31.132  1.00  0.00     0.043 C 
HETATM    6  C   UNL     1       5.694   2.783  31.594  1.00  0.00     0.004 C 
ENDROOT
BRANCH   3   7
HETATM    7  C   UNL     1       3.151   5.547  32.167  1.00  0.00     0.087 C 
BRANCH   7   8
HETATM    8  C   UNL     1       3.161   6.644  31.107  1.00  0.00     0.252 C 
BRANCH   8   9
HETATM    9  O   UNL     1       1.930   6.729  30.405  1.00  0.00    -0.381 OA
ATOM     10  HO  UNL     1       1.572   5.874  30.199  1.00  0.00     0.210 HD
ENDBRANCH   8   9
BRANCH   8  11
HETATM   11  P   UNL     1       3.778   8.242  31.684  1.00  0.00     0.289 P 
HETATM   12  O   UNL     1       2.668   8.948  32.396  1.00  0.00    -0.638 OA
HETATM   13  O   UNL     1       4.123   8.990  30.427  1.00  0.00    -0.638 OA
HETATM   14  O   UNL     1       4.983   7.963  32.523  1.00  0.00    -0.638 OA
ENDBRANCH   8  11
ENDBRANCH   7   8
ENDBRANCH   3   7
BRANCH   4  15
HETATM   15  O   UNL     1       1.738   3.647  30.686  1.00  0.00    -0.357 OA
ATOM     16  HO  UNL     1       1.400   3.485  29.813  1.00  0.00     0.217 HD
ENDBRANCH   4  15
BRANCH   1  17
HETATM   17  O   UNL     1       2.730   1.012  30.351  1.00  0.00    -0.197 OA
BRANCH  17  18
HETATM   18  O   UNL     1       2.989  -0.269  30.642  1.00  0.00    -0.245 OA
ATOM     19  HO  UNL     1       3.769  -0.716  30.336  1.00  0.00     0.254 HD
ENDBRANCH  17  18
ENDBRANCH   1  17
TORSDOF 7
ENDMDL
MODEL 7
REMARK VINA RESULT:      -5.8      3.212      5.886
REMARK  7 active torsions:
REMARK  status: ('A' for Active; 'I' for Inactive)
REMARK    1  A    between atoms: C_1  and  C_3 
REMARK    2  A    between atoms: C_1  and  C_14 
REMARK    3  A    between atoms: C_2  and  O_9 
REMARK    4  A    between atoms: C_3  and  O_4 
REMARK    5  A    between atoms: C_3  and  P_15 
REMARK    6  A    between atoms: O_9  and  O_10 
REMARK    7  A    between atoms: O_12  and  C_16 
ROOT
HETATM    1  C   UNL     1       3.796   7.529  31.833  1.00  0.00     0.140 C 
HETATM    2  C   UNL     1       3.814   4.938  32.844  1.00  0.00     0.010 C 
HETATM    3  C   UNL     1       3.016   5.243  31.742  1.00  0.00    -0.019 C 
HETATM    4  C   UNL     1       2.939   6.563  31.296  1.00  0.00     0.108 C 
HETATM    5  C   UNL     1       4.673   7.186  32.863  1.00  0.00     0.043 C 
HETATM    6  C   UNL     1       4.614   5.917  33.433  1.00  0.00     0.004 C 
ENDROOT
BRANCH   3   7
HETATM    7  C   UNL     1       2.325   4.167  30.957  1.00  0.00     0.087 C 
BRANCH   7   8
HETATM    8  C   UNL     1       2.863   2.789  31.327  1.00  0.00     0.252 C 
BRANCH   8   9
HETATM    9  O   UNL     1       1.839   1.907  31.762  1.00  0.00    -0.381 OA
ATOM     10  HO  UNL     1       0.971   2.278  31.649  1.00  0.00     0.210 HD
ENDBRANCH   8   9
BRANCH   8  11
HETATM   11  P   UNL     1       3.974   2.060  30.101  1.00  0.00     0.289 P 
HETATM   12  O   UNL     1       5.302   2.740  30.204  1.00  0.00    -0.638 OA
HETATM   13  O   UNL     1       3.344   2.389  28.777  1.00  0.00    -0.638 OA
HETATM   14  O   UNL     1       4.001   0.589  30.363  1.00  0.00    -0.638 OA
ENDBRANCH   8  11
ENDBRANCH   7   8
ENDBRANCH   3   7
BRANCH   4  15
HETATM   15  O   UNL     1       2.072   6.868  30.294  1.00  0.00    -0.357 OA
ATOM     16  HO  UNL     1       2.385   7.152  29.443  1.00  0.00     0.217 HD
ENDBRANCH   4  15
BRANCH   1  17
HETATM   17  O   UNL     1       3.903   8.798  31.275  1.00  0.00    -0.197 OA
BRANCH  17  18
HETATM   18  O   UNL     1       4.166   8.997  29.979  1.00  0.00    -0.245 OA
ATOM     19  HO  UNL     1       4.426   8.294  29.395  1.00  0.00     0.254 HD
ENDBRANCH  17  18
ENDBRANCH   1  17
TORSDOF 7
ENDMDL
MODEL 8
REMARK VINA RESULT:      -5.7      2.837      4.239
REMARK  7 active torsions:
REMARK  status: ('A' for Active; 'I' for Inactive)
REMARK    1  A    between atoms: C_1  and  C_3 
REMARK    2  A    between atoms: C_1  and  C_14 
REMARK    3  A    between atoms: C_2  and  O_9 
REMARK    4  A    between atoms: C_3  and  O_4 
REMARK    5  A    between atoms: C_3  and  P_15 
REMARK    6  A    between atoms: O_9  and  O_10 
REMARK    7  A    between atoms: O_12  and  C_16 
ROOT
HETATM    1  C   UNL     1       8.254   0.855  30.254  1.00  0.00     0.140 C 
HETATM    2  C   UNL     1       6.131   0.499  32.016  1.00  0.00     0.010 C 
HETATM    3  C   UNL     1       5.899   1.058  30.761  1.00  0.00    -0.019 C 
HETATM    4  C   UNL     1       6.979   1.321  29.917  1.00  0.00     0.108 C 
HETATM    5  C   UNL     1       8.455   0.194  31.468  1.00  0.00     0.043 C 
HETATM    6  C   UNL     1       7.415   0.102  32.389  1.00  0.00     0.004 C 
ENDROOT
BRANCH   3   7
HETATM    7  C   UNL     1       4.506   1.284  30.252  1.00  0.00     0.087 C 
BRANCH   7   8
HETATM    8  C   UNL     1       3.944   2.607  30.765  1.00  0.00     0.252 C 
BRANCH   8   9
HETATM    9  O   UNL     1       4.357   3.712  29.975  1.00  0.00    -0.381 OA
ATOM     10  HO  UNL     1       5.299   3.740  29.856  1.00  0.00     0.210 HD
ENDBRANCH   8   9
BRANCH   8  11
HETATM   11  P   UNL     1       2.171   2.588  31.114  1.00  0.00     0.289 P 
HETATM   12  O   UNL     1       1.434   2.734  29.820  1.00  0.00    -0.638 OA
HETATM   13  O   UNL     1       1.940   3.806  31.963  1.00  0.00    -0.638 OA
HETATM   14  O   UNL     1       1.890   1.321  31.855  1.00  0.00    -0.638 OA
ENDBRANCH   8  11
ENDBRANCH   7   8
ENDBRANCH   3   7
BRANCH   4  15
HETATM   15  O   UNL     1       6.754   1.970  28.744  1.00  0.00    -0.357 OA
ATOM     16  HO  UNL     1       7.303   1.818  27.984  1.00  0.00     0.217 HD
ENDBRANCH   4  15
BRANCH   1  17
HETATM   17  O   UNL     1       9.311   0.906  29.352  1.00  0.00    -0.197 OA
BRANCH  17  18
HETATM   18  O   UNL     1       9.166   0.614  28.054  1.00  0.00    -0.245 OA
ATOM     19  HO  UNL     1       8.744  -0.181  27.752  1.00  0.00     0.254 HD
ENDBRANCH  17  18
ENDBRANCH   1  17
TORSDOF 7
ENDMDL
MODEL 9
REMARK VINA RESULT:      -5.7      3.015      4.361
REMARK  7 active torsions:
REMARK  status: ('A' for Active; 'I' for Inactive)
REMARK    1  A    between atoms: C_1  and  C_3 
REMARK    2  A    between atoms: C_1  and  C_14 
REMARK    3  A    between atoms: C_2  and  O_9 
REMARK    4  A    between atoms: C_3  and  O_4 
REMARK    5  A    between atoms: C_3  and  P_15 
REMARK    6  A    between atoms: O_9  and  O_10 
REMARK    7  A    between atoms: O_12  and  C_16 
ROOT
HETATM    1  C   UNL     1       4.743   4.111  31.499  1.00  0.00     0.140 C 
HETATM    2  C   UNL     1       5.566   5.797  33.552  1.00  0.00     0.010 C 
HETATM    3  C   UNL     1       4.569   6.216  32.674  1.00  0.00    -0.019 C 
HETATM    4  C   UNL     1       4.225   5.407  31.590  1.00  0.00     0.108 C 
HETATM    5  C   UNL     1       5.660   3.660  32.451  1.00  0.00     0.043 C 
HETATM    6  C   UNL     1       6.143   4.534  33.420  1.00  0.00     0.004 C 
ENDROOT
BRANCH   3   7
HETATM    7  C   UNL     1       3.780   7.467  32.927  1.00  0.00     0.087 C 
BRANCH   7   8
HETATM    8  C   UNL     1       4.550   8.701  32.466  1.00  0.00     0.252 C 
BRANCH   8   9
HETATM    9  O   UNL     1       4.629   8.791  31.051  1.00  0.00    -0.381 OA
ATOM     10  HO  UNL     1       5.367   9.315  30.763  1.00  0.00     0.210 HD
ENDBRANCH   8   9
BRANCH   8  11
HETATM   11  P   UNL     1       4.047  10.244  33.262  1.00  0.00     0.289 P 
HETATM   12  O   UNL     1       2.769  10.000  34.000  1.00  0.00    -0.638 OA
HETATM   13  O   UNL     1       3.795  11.193  32.124  1.00  0.00    -0.638 OA
HETATM   14  O   UNL     1       5.191  10.681  34.119  1.00  0.00    -0.638 OA
ENDBRANCH   8  11
ENDBRANCH   7   8
ENDBRANCH   3   7
BRANCH   4  15
HETATM   15  O   UNL     1       3.333   5.875  30.677  1.00  0.00    -0.357 OA
ATOM     16  HO  UNL     1       3.068   6.787  30.672  1.00  0.00     0.217 HD
ENDBRANCH   4  15
BRANCH   1  17
HETATM   17  O   UNL     1       4.268   3.200  30.562  1.00  0.00    -0.197 OA
BRANCH  17  18
HETATM   18  O   UNL     1       4.273   3.449  29.247  1.00  0.00    -0.245 OA
ATOM     19  HO  UNL     1       4.947   3.970  28.828  1.00  0.00     0.254 HD
ENDBRANCH  17  18
ENDBRANCH   1  17
TORSDOF 7
ENDMDL
