MODEL 1
REMARK VINA RESULT:      -6.0      0.000      0.000
REMARK  0 active torsions:
REMARK  status: ('A' for Active; 'I' for Inactive)
ROOT
HETATM    1  C   UNL     1      13.782 -39.217  49.750  1.00  0.00     0.056 C 
HETATM    2  C   UNL     1      12.843 -40.168  48.972  1.00  0.00     0.016 C 
HETATM    3  O   UNL     1      14.728 -37.111  49.113  1.00  0.00    -0.298 OA
HETATM    4  C   UNL     1      14.468 -38.257  48.768  1.00  0.00     0.131 C 
HETATM    5  C   UNL     1      14.640 -41.951  48.867  1.00  0.00     0.005 C 
HETATM    6  C   UNL     1      13.705 -41.048  48.039  1.00  0.00    -0.013 C 
HETATM    7  C   UNL     1      14.761 -38.724  47.365  1.00  0.00     0.079 C 
HETATM    8  C   UNL     1      14.984 -41.466  50.270  1.00  0.00     0.001 C 
HETATM    9  C   UNL     1      14.506 -40.189  47.032  1.00  0.00     0.012 C 
HETATM   10  C   UNL     1      14.903 -39.962  50.494  1.00  0.00     0.012 C 
ENDROOT
TORSDOF 0
ENDMDL
MODEL 2
REMARK VINA RESULT:      -5.8      8.668     10.117
REMARK  0 active torsions:
REMARK  status: ('A' for Active; 'I' for Inactive)
ROOT
HETATM    1  C   UNL     1      12.763 -33.008  55.773  1.00  0.00     0.056 C 
HETATM    2  C   UNL     1      13.973 -32.188  56.278  1.00  0.00     0.016 C 
HETATM    3  O   UNL     1      11.052 -34.156  56.994  1.00  0.00    -0.298 OA
HETATM    4  C   UNL     1      12.249 -33.912  56.902  1.00  0.00     0.131 C 
HETATM    5  C   UNL     1      15.595 -33.886  55.324  1.00  0.00     0.005 C 
HETATM    6  C   UNL     1      15.123 -33.168  56.604  1.00  0.00    -0.013 C 
HETATM    7  C   UNL     1      13.224 -34.442  57.922  1.00  0.00     0.079 C 
HETATM    8  C   UNL     1      14.584 -33.981  54.188  1.00  0.00     0.001 C 
HETATM    9  C   UNL     1      14.708 -34.184  57.693  1.00  0.00     0.012 C 
HETATM   10  C   UNL     1      13.117 -33.932  54.595  1.00  0.00     0.012 C 
ENDROOT
TORSDOF 0
ENDMDL
MODEL 3
REMARK VINA RESULT:      -5.7      1.921      3.642
REMARK  0 active torsions:
REMARK  status: ('A' for Active; 'I' for Inactive)
ROOT
HETATM    1  C   UNL     1      13.526 -40.901  48.060  1.00  0.00     0.056 C 
HETATM    2  C   UNL     1      12.874 -39.915  49.056  1.00  0.00     0.016 C 
HETATM    3  O   UNL     1      14.410 -43.099  48.411  1.00  0.00    -0.298 OA
HETATM    4  C   UNL     1      14.335 -41.952  48.833  1.00  0.00     0.131 C 
HETATM    5  C   UNL     1      14.792 -38.281  48.784  1.00  0.00     0.005 C 
HETATM    6  C   UNL     1      13.998 -39.144  49.785  1.00  0.00    -0.013 C 
HETATM    7  C   UNL     1      14.980 -41.568  50.141  1.00  0.00     0.079 C 
HETATM    8  C   UNL     1      14.762 -38.731  47.328  1.00  0.00     0.001 C 
HETATM    9  C   UNL     1      14.933 -40.103  50.558  1.00  0.00     0.012 C 
HETATM   10  C   UNL     1      14.506 -40.214  47.094  1.00  0.00     0.012 C 
ENDROOT
TORSDOF 0
ENDMDL
MODEL 4
REMARK VINA RESULT:      -5.3      8.915     10.143
REMARK  0 active torsions:
REMARK  status: ('A' for Active; 'I' for Inactive)
ROOT
HETATM    1  C   UNL     1      14.577 -33.260  57.266  1.00  0.00     0.056 C 
HETATM    2  C   UNL     1      13.278 -32.430  57.376  1.00  0.00     0.016 C 
HETATM    3  O   UNL     1      16.031 -33.623  55.397  1.00  0.00    -0.298 OA
HETATM    4  C   UNL     1      14.872 -33.560  55.790  1.00  0.00     0.131 C 
HETATM    5  C   UNL     1      11.907 -34.522  57.783  1.00  0.00     0.005 C 
HETATM    6  C   UNL     1      12.103 -33.296  56.869  1.00  0.00    -0.013 C 
HETATM    7  C   UNL     1      13.723 -33.715  54.827  1.00  0.00     0.079 C 
HETATM    8  C   UNL     1      13.126 -34.977  58.577  1.00  0.00     0.001 C 
HETATM    9  C   UNL     1      12.309 -33.724  55.397  1.00  0.00     0.012 C 
HETATM   10  C   UNL     1      14.481 -34.618  57.982  1.00  0.00     0.012 C 
ENDROOT
TORSDOF 0
ENDMDL
MODEL 5
REMARK VINA RESULT:      -5.2      7.642      9.087
REMARK  0 active torsions:
REMARK  status: ('A' for Active; 'I' for Inactive)
ROOT
HETATM    1  C   UNL     1      11.613 -33.276  53.827  1.00  0.00     0.056 C 
HETATM    2  C   UNL     1      12.769 -32.280  54.077  1.00  0.00     0.016 C 
HETATM    3  O   UNL     1       9.838 -33.983  55.271  1.00  0.00    -0.298 OA
HETATM    4  C   UNL     1      11.034 -33.738  55.171  1.00  0.00     0.131 C 
HETATM    5  C   UNL     1      14.484 -34.137  53.897  1.00  0.00     0.005 C 
HETATM    6  C   UNL     1      13.909 -33.030  54.803  1.00  0.00    -0.013 C 
HETATM    7  C   UNL     1      11.942 -33.828  56.371  1.00  0.00     0.079 C 
HETATM    8  C   UNL     1      13.559 -34.673  52.811  1.00  0.00     0.001 C 
HETATM    9  C   UNL     1      13.434 -33.608  56.157  1.00  0.00     0.012 C 
HETATM   10  C   UNL     1      12.066 -34.543  53.082  1.00  0.00     0.012 C 
ENDROOT
TORSDOF 0
ENDMDL
MODEL 6
REMARK VINA RESULT:      -5.2      4.273      5.782
REMARK  0 active torsions:
REMARK  status: ('A' for Active; 'I' for Inactive)
ROOT
HETATM    1  C   UNL     1      15.903 -34.093  47.649  1.00  0.00     0.056 C 
HETATM    2  C   UNL     1      16.380 -34.737  46.326  1.00  0.00     0.016 C 
HETATM    3  O   UNL     1      17.032 -32.593  49.136  1.00  0.00    -0.298 OA
HETATM    4  C   UNL     1      17.118 -33.602  48.448  1.00  0.00     0.131 C 
HETATM    5  C   UNL     1      16.322 -37.048  47.362  1.00  0.00     0.005 C 
HETATM    6  C   UNL     1      17.209 -35.995  46.668  1.00  0.00    -0.013 C 
HETATM    7  C   UNL     1      18.426 -34.342  48.327  1.00  0.00     0.079 C 
HETATM    8  C   UNL     1      15.083 -36.525  48.079  1.00  0.00     0.001 C 
HETATM    9  C   UNL     1      18.440 -35.644  47.535  1.00  0.00     0.012 C 
HETATM   10  C   UNL     1      15.148 -35.080  48.555  1.00  0.00     0.012 C 
ENDROOT
TORSDOF 0
ENDMDL
MODEL 7
REMARK VINA RESULT:      -5.2      5.226      6.833
REMARK  0 active torsions:
REMARK  status: ('A' for Active; 'I' for Inactive)
ROOT
HETATM    1  C   UNL     1      17.522 -36.113  46.693  1.00  0.00     0.056 C 
HETATM    2  C   UNL     1      16.103 -35.821  47.234  1.00  0.00     0.016 C 
HETATM    3  O   UNL     1      19.638 -36.113  47.815  1.00  0.00    -0.298 OA
HETATM    4  C   UNL     1      18.568 -35.538  47.658  1.00  0.00     0.131 C 
HETATM    5  C   UNL     1      15.922 -33.740  45.800  1.00  0.00     0.005 C 
HETATM    6  C   UNL     1      15.890 -34.290  47.240  1.00  0.00    -0.013 C 
HETATM    7  C   UNL     1      18.237 -34.298  48.448  1.00  0.00     0.079 C 
HETATM    8  C   UNL     1      16.680 -34.572  44.772  1.00  0.00     0.001 C 
HETATM    9  C   UNL     1      16.932 -33.577  48.133  1.00  0.00     0.012 C 
HETATM   10  C   UNL     1      17.783 -35.467  45.322  1.00  0.00     0.012 C 
ENDROOT
TORSDOF 0
ENDMDL
MODEL 8
REMARK VINA RESULT:      -5.0      2.494      3.611
REMARK  0 active torsions:
REMARK  status: ('A' for Active; 'I' for Inactive)
ROOT
HETATM    1  C   UNL     1      14.519 -41.963  48.178  1.00  0.00     0.056 C 
HETATM    2  C   UNL     1      14.371 -40.559  47.547  1.00  0.00     0.016 C 
HETATM    3  O   UNL     1      13.242 -43.960  47.832  1.00  0.00    -0.298 OA
HETATM    4  C   UNL     1      13.211 -42.747  48.000  1.00  0.00     0.131 C 
HETATM    5  C   UNL     1      13.752 -39.554  49.789  1.00  0.00     0.005 C 
HETATM    6  C   UNL     1      13.292 -39.783  48.336  1.00  0.00    -0.013 C 
HETATM    7  C   UNL     1      11.903 -41.998  47.976  1.00  0.00     0.079 C 
HETATM    8  C   UNL     1      14.782 -40.535  50.337  1.00  0.00     0.001 C 
HETATM    9  C   UNL     1      11.926 -40.507  48.290  1.00  0.00     0.012 C 
HETATM   10  C   UNL     1      14.801 -41.913  49.689  1.00  0.00     0.012 C 
ENDROOT
TORSDOF 0
ENDMDL
MODEL 9
REMARK VINA RESULT:      -5.0      5.352      7.091
REMARK  0 active torsions:
REMARK  status: ('A' for Active; 'I' for Inactive)
ROOT
HETATM    1  C   UNL     1      16.087 -34.214  48.246  1.00  0.00     0.056 C 
HETATM    2  C   UNL     1      16.350 -32.943  49.085  1.00  0.00     0.016 C 
HETATM    3  O   UNL     1      16.225 -34.564  45.880  1.00  0.00    -0.298 OA
HETATM    4  C   UNL     1      15.852 -33.822  46.780  1.00  0.00     0.131 C 
HETATM    5  C   UNL     1      13.913 -32.819  49.767  1.00  0.00     0.005 C 
HETATM    6  C   UNL     1      15.070 -32.076  49.070  1.00  0.00    -0.013 C 
HETATM    7  C   UNL     1      15.213 -32.493  46.468  1.00  0.00     0.079 C 
HETATM    8  C   UNL     1      14.009 -34.340  49.807  1.00  0.00     0.001 C 
HETATM    9  C   UNL     1      14.683 -31.664  47.631  1.00  0.00     0.012 C 
HETATM   10  C   UNL     1      14.837 -34.984  48.703  1.00  0.00     0.012 C 
ENDROOT
TORSDOF 0
ENDMDL
