REMARK  3 active torsions:
REMARK  status: ('A' for Active; 'I' for Inactive)
REMARK    1  A    between atoms: C_12  and  C_35 
REMARK    2  A    between atoms: C_15  and  C_34 
REMARK    3  A    between atoms: C_17  and  C_20 
ROOT
HETATM    1  C   UNL     1     -47.562  -4.247  11.948  1.00  0.00    -0.025 C 
HETATM    2  C   UNL     1     -48.022  -5.334  12.705  1.00  0.00     0.012 C 
HETATM    3  C   UNL     1     -46.866  -1.924  10.654  1.00  0.00    -0.015 C 
HETATM    4  C   UNL     1     -48.585  -2.750  13.496  1.00  0.00    -0.050 C 
HETATM    5  C   UNL     1     -46.610  -2.049  12.039  1.00  0.00    -0.013 C 
HETATM    6  C   UNL     1     -49.648  -1.764  13.106  1.00  0.00     0.049 C 
HETATM    7  C   UNL     1     -48.525  -5.104  13.991  1.00  0.00     0.001 C 
HETATM    8  C   UNL     1     -47.512  -2.994  12.596  1.00  0.00    -0.009 C 
HETATM    9  C   UNL     1     -46.927  -3.125   9.923  1.00  0.00     0.014 C 
HETATM   10  C   UNL     1     -47.295  -4.302  10.571  1.00  0.00     0.013 C 
HETATM   11  C   UNL     1     -48.825  -3.788  14.392  1.00  0.00     0.007 C 
ENDROOT
BRANCH   3  12
HETATM   12  C   UNL     1     -47.233  -0.694  10.048  1.00  0.00    -0.024 C 
HETATM   13  C   UNL     1     -47.687   0.422  10.755  1.00  0.00     0.019 C 
HETATM   14  C   UNL     1     -47.643   1.682  10.186  1.00  0.00    -0.060 C 
HETATM   15  C   UNL     1     -48.830   2.591  10.366  1.00  0.00     0.048 C 
HETATM   16  C   UNL     1     -46.586   2.155   9.448  1.00  0.00     0.019 C 
HETATM   17  C   UNL     1     -45.990   1.505   8.375  1.00  0.00    -0.025 C 
HETATM   18  C   UNL     1     -44.930   2.132   7.729  1.00  0.00     0.024 C 
HETATM   19  C   UNL     1     -46.447   0.275   7.910  1.00  0.00    -0.024 C 
HETATM   20  C   UNL     1     -44.532   1.666   6.480  1.00  0.00    -0.025 C 
HETATM   21  C   UNL     1     -45.314   0.687   5.838  1.00  0.00    -0.025 C 
HETATM   22  C   UNL     1     -43.614   2.407   5.737  1.00  0.00     0.012 C 
HETATM   23  C   UNL     1     -46.169  -0.102   6.598  1.00  0.00     0.024 C 
HETATM   24  C   UNL     1     -45.204   0.505   4.464  1.00  0.00     0.012 C 
HETATM   25  C   UNL     1     -44.329   1.291   3.737  1.00  0.00     0.001 C 
HETATM   26  C   UNL     1     -43.417   2.110   4.398  1.00  0.00     0.001 C 
HETATM   27  C   UNL     1     -47.182  -0.613   8.673  1.00  0.00     0.024 C 
ENDBRANCH   3  12
BRANCH   5  28
HETATM   28  C   UNL     1     -45.544  -1.368  12.754  1.00  0.00     0.014 C 
HETATM   29  C   UNL     1     -44.415  -0.754  12.739  1.00  0.00     0.012 C 
BRANCH  29  30
HETATM   30  C   UNL     1     -43.457  -0.001  13.574  1.00  0.00    -0.036 C 
HETATM   31  C   UNL     1     -43.790   1.203  14.231  1.00  0.00     0.011 C 
HETATM   32  C   UNL     1     -42.746   2.022  14.701  1.00  0.00     0.001 C 
HETATM   33  C   UNL     1     -41.460   1.487  14.855  1.00  0.00     0.000 C 
HETATM   34  C   UNL     1     -41.165   0.214  14.359  1.00  0.00     0.001 C 
HETATM   35  C   UNL     1     -42.158  -0.520  13.684  1.00  0.00     0.011 C 
ENDBRANCH  29  30
ENDBRANCH   5  28
TORSDOF 3
