REMARK  0 active torsions:
REMARK  status: ('A' for Active; 'I' for Inactive)
ROOT
HETATM    1  C   UNL     1      -5.403 -25.460  -5.910  1.00  0.00     0.101 C 
HETATM    2  O   UNL     1      -3.774 -22.607  -4.406  1.00  0.00    -0.318 OA
HETATM    3  C   UNL     1      -5.601 -23.223  -3.057  1.00  0.00     0.017 C 
HETATM    4  C   UNL     1      -4.006 -23.668  -5.239  1.00  0.00     0.229 C 
HETATM    5  C   UNL     1      -4.236 -22.826  -3.071  1.00  0.00     0.208 C 
HETATM    6  C   UNL     1      -3.121 -25.309  -6.636  1.00  0.00     0.093 C 
HETATM    7  C   UNL     1      -4.326 -26.027  -6.564  1.00  0.00     0.035 C 
HETATM    8  N   UNL     1      -3.013 -24.109  -6.047  1.00  0.00    -0.332 N 
ATOM      9  HN  UNL     1      -2.187 -23.532  -6.207  1.00  0.00     0.168 HD
HETATM   10  N   UNL     1      -5.176 -24.377  -5.104  1.00  0.00    -0.299 N 
HETATM   11  C   UNL     1      -6.084 -23.997  -4.097  1.00  0.00     0.098 C 
ENDROOT
TORSDOF 0
