MODEL 1
REMARK VINA RESULT:     -10.8      0.000      0.000
REMARK  7 active torsions:
REMARK  status: ('A' for Active; 'I' for Inactive)
REMARK    1  A    between atoms: O_1  and  C_10 
REMARK    2  A    between atoms: C_9  and  C_24 
REMARK    3  A    between atoms: C_12  and  C_20 
REMARK    4  A    between atoms: O_13  and  C_26 
REMARK    5  A    between atoms: C_20  and  C_25 
REMARK    6  A    between atoms: N_21  and  C_27 
REMARK       I    between atoms: N_21  and  C_29 
REMARK    7  A    between atoms: C_23  and  C_24 
ROOT
HETATM    1  C   UNL     1      32.396  53.956  22.584  1.00  0.00     0.044 C 
HETATM    2  C   UNL     1      31.199  53.704  24.683  1.00  0.00    -0.002 C 
HETATM    3  C   UNL     1      32.163  54.343  23.897  1.00  0.00     0.076 C 
HETATM    4  C   UNL     1      30.552  52.597  24.158  1.00  0.00     0.015 C 
HETATM    5  C   UNL     1      31.529  53.044  21.994  1.00  0.00    -0.055 C 
HETATM    6  C   UNL     1      30.751  52.241  22.827  1.00  0.00     0.008 C 
ENDROOT
BRANCH   5   7
HETATM    7  C   UNL     1      31.503  52.875  20.494  1.00  0.00     0.043 C 
BRANCH   7   8
HETATM    8  C   UNL     1      30.585  51.799  19.914  1.00  0.00    -0.008 C 
HETATM    9  C   UNL     1      29.248  51.803  20.641  1.00  0.00     0.007 C 
HETATM   10  C   UNL     1      28.186  51.527  19.593  1.00  0.00     0.026 C 
HETATM   11  C   UNL     1      28.764  52.028  18.291  1.00  0.00     0.087 C 
HETATM   12  C   UNL     1      30.275  52.043  18.443  1.00  0.00     0.030 C 
BRANCH  11  13
HETATM   13  N   UNL     1      28.272  51.404  17.085  1.00  0.00    -0.331 N 
HETATM   14  C   UNL     1      27.053  51.429  16.487  1.00  0.00     0.283 C 
HETATM   15  O   UNL     1      26.570  50.343  16.041  1.00  0.00    -0.630 OA
HETATM   16  O   UNL     1      26.400  52.484  16.439  1.00  0.00    -0.630 OA
ATOM     17  HN  UNL     1      28.967  50.841  16.593  1.00  0.00     0.165 HD
ENDBRANCH  11  13
ENDBRANCH   7   8
ENDBRANCH   5   7
BRANCH   3  18
HETATM   18  O   UNL     1      32.801  55.443  24.409  1.00  0.00    -0.360 OA
ATOM     19  HO  UNL     1      33.232  55.390  25.253  1.00  0.00     0.217 HD
ENDBRANCH   3  18
BRANCH   2  20
HETATM   20  C   UNL     1      30.889  54.309  26.039  1.00  0.00     0.028 C 
BRANCH  20  21
HETATM   21  C   UNL     1      29.738  55.228  26.347  1.00  0.00    -0.000 C 
HETATM   22  C   UNL     1      29.401  55.498  27.668  1.00  0.00     0.014 C 
HETATM   23  C   UNL     1      28.273  56.253  27.967  1.00  0.00     0.003 C 
HETATM   24  C   UNL     1      27.427  56.671  26.946  1.00  0.00     0.029 C 
HETATM   25  C   UNL     1      27.795  56.484  25.618  1.00  0.00     0.080 C 
HETATM   26  N   UNL     1      26.877  56.805  24.627  1.00  0.00    -0.100 NA
HETATM   27  C   UNL     1      29.034  55.904  25.328  1.00  0.00     0.100 C 
BRANCH  27  28
HETATM   28  O   UNL     1      29.609  56.058  24.090  1.00  0.00    -0.358 OA
ATOM     29  HO  UNL     1      29.370  56.787  23.531  1.00  0.00     0.217 HD
ENDBRANCH  27  28
ENDBRANCH  20  21
ENDBRANCH   2  20
TORSDOF 7
ENDMDL
MODEL 2
REMARK VINA RESULT:     -10.8      1.693      2.260
REMARK  7 active torsions:
REMARK  status: ('A' for Active; 'I' for Inactive)
REMARK    1  A    between atoms: O_1  and  C_10 
REMARK    2  A    between atoms: C_9  and  C_24 
REMARK    3  A    between atoms: C_12  and  C_20 
REMARK    4  A    between atoms: O_13  and  C_26 
REMARK    5  A    between atoms: C_20  and  C_25 
REMARK    6  A    between atoms: N_21  and  C_27 
REMARK       I    between atoms: N_21  and  C_29 
REMARK    7  A    between atoms: C_23  and  C_24 
ROOT
HETATM    1  C   UNL     1      32.459  53.581  22.398  1.00  0.00     0.044 C 
HETATM    2  C   UNL     1      30.677  53.894  24.019  1.00  0.00    -0.002 C 
HETATM    3  C   UNL     1      31.893  54.286  23.452  1.00  0.00     0.076 C 
HETATM    4  C   UNL     1      30.096  52.716  23.579  1.00  0.00     0.015 C 
HETATM    5  C   UNL     1      31.709  52.583  21.785  1.00  0.00    -0.055 C 
HETATM    6  C   UNL     1      30.638  52.037  22.491  1.00  0.00     0.008 C 
ENDROOT
BRANCH   5   7
HETATM    7  C   UNL     1      32.107  52.052  20.429  1.00  0.00     0.043 C 
BRANCH   7   8
HETATM    8  C   UNL     1      31.042  51.326  19.608  1.00  0.00    -0.008 C 
HETATM    9  C   UNL     1      30.292  50.333  20.484  1.00  0.00     0.007 C 
HETATM   10  C   UNL     1      28.841  50.375  20.040  1.00  0.00     0.026 C 
HETATM   11  C   UNL     1      28.634  51.758  19.471  1.00  0.00     0.087 C 
HETATM   12  C   UNL     1      29.995  52.285  19.053  1.00  0.00     0.030 C 
BRANCH  11  13
HETATM   13  N   UNL     1      27.589  51.899  18.483  1.00  0.00    -0.331 N 
HETATM   14  C   UNL     1      27.628  51.928  17.125  1.00  0.00     0.283 C 
HETATM   15  O   UNL     1      26.931  52.795  16.515  1.00  0.00    -0.630 OA
HETATM   16  O   UNL     1      28.382  51.162  16.504  1.00  0.00    -0.630 OA
ATOM     17  HN  UNL     1      26.653  51.994  18.876  1.00  0.00     0.165 HD
ENDBRANCH  11  13
ENDBRANCH   7   8
ENDBRANCH   5   7
BRANCH   3  18
HETATM   18  O   UNL     1      32.468  55.455  23.878  1.00  0.00    -0.360 OA
ATOM     19  HO  UNL     1      32.928  55.480  24.709  1.00  0.00     0.217 HD
ENDBRANCH   3  18
BRANCH   2  20
HETATM   20  C   UNL     1      30.049  54.824  25.041  1.00  0.00     0.028 C 
BRANCH  20  21
HETATM   21  C   UNL     1      30.290  54.786  26.525  1.00  0.00    -0.000 C 
HETATM   22  C   UNL     1      31.467  54.238  27.022  1.00  0.00     0.014 C 
HETATM   23  C   UNL     1      31.654  54.094  28.393  1.00  0.00     0.003 C 
HETATM   24  C   UNL     1      30.627  54.419  29.270  1.00  0.00     0.029 C 
HETATM   25  C   UNL     1      29.480  55.048  28.796  1.00  0.00     0.080 C 
HETATM   26  N   UNL     1      28.427  55.252  29.678  1.00  0.00    -0.100 NA
HETATM   27  C   UNL     1      29.391  55.374  27.439  1.00  0.00     0.100 C 
BRANCH  27  28
HETATM   28  O   UNL     1      28.498  56.321  27.001  1.00  0.00    -0.358 OA
ATOM     29  HO  UNL     1      28.634  57.242  27.191  1.00  0.00     0.217 HD
ENDBRANCH  27  28
ENDBRANCH  20  21
ENDBRANCH   2  20
TORSDOF 7
ENDMDL
MODEL 3
REMARK VINA RESULT:     -10.4      1.778      2.203
REMARK  7 active torsions:
REMARK  status: ('A' for Active; 'I' for Inactive)
REMARK    1  A    between atoms: O_1  and  C_10 
REMARK    2  A    between atoms: C_9  and  C_24 
REMARK    3  A    between atoms: C_12  and  C_20 
REMARK    4  A    between atoms: O_13  and  C_26 
REMARK    5  A    between atoms: C_20  and  C_25 
REMARK    6  A    between atoms: N_21  and  C_27 
REMARK       I    between atoms: N_21  and  C_29 
REMARK    7  A    between atoms: C_23  and  C_24 
ROOT
HETATM    1  C   UNL     1      32.128  53.646  22.678  1.00  0.00     0.044 C 
HETATM    2  C   UNL     1      30.282  54.244  24.140  1.00  0.00    -0.002 C 
HETATM    3  C   UNL     1      31.581  54.452  23.667  1.00  0.00     0.076 C 
HETATM    4  C   UNL     1      29.583  53.141  23.676  1.00  0.00     0.015 C 
HETATM    5  C   UNL     1      31.301  52.739  22.025  1.00  0.00    -0.055 C 
HETATM    6  C   UNL     1      30.113  52.363  22.650  1.00  0.00     0.008 C 
ENDROOT
BRANCH   5   7
HETATM    7  C   UNL     1      31.730  52.119  20.717  1.00  0.00     0.043 C 
BRANCH   7   8
HETATM    8  C   UNL     1      30.679  51.352  19.915  1.00  0.00    -0.008 C 
HETATM    9  C   UNL     1      29.343  51.377  20.643  1.00  0.00     0.007 C 
HETATM   10  C   UNL     1      28.271  51.510  19.575  1.00  0.00     0.026 C 
HETATM   11  C   UNL     1      28.940  52.215  18.419  1.00  0.00     0.087 C 
HETATM   12  C   UNL     1      30.434  51.977  18.547  1.00  0.00     0.030 C 
BRANCH  11  13
HETATM   13  N   UNL     1      28.387  51.969  17.108  1.00  0.00    -0.331 N 
HETATM   14  C   UNL     1      27.109  51.994  16.647  1.00  0.00     0.283 C 
HETATM   15  O   UNL     1      26.721  51.062  15.877  1.00  0.00    -0.630 OA
HETATM   16  O   UNL     1      26.323  52.877  17.027  1.00  0.00    -0.630 OA
ATOM     17  HN  UNL     1      29.082  51.733  16.399  1.00  0.00     0.165 HD
ENDBRANCH  11  13
ENDBRANCH   7   8
ENDBRANCH   5   7
BRANCH   3  18
HETATM   18  O   UNL     1      32.275  55.547  24.117  1.00  0.00    -0.360 OA
ATOM     19  HO  UNL     1      32.581  55.575  25.016  1.00  0.00     0.217 HD
ENDBRANCH   3  18
BRANCH   2  20
HETATM   20  C   UNL     1      29.708  55.280  25.088  1.00  0.00     0.028 C 
BRANCH  20  21
HETATM   21  C   UNL     1      29.693  55.183  26.589  1.00  0.00    -0.000 C 
HETATM   22  C   UNL     1      28.580  55.615  27.300  1.00  0.00     0.014 C 
HETATM   23  C   UNL     1      28.596  55.635  28.691  1.00  0.00     0.003 C 
HETATM   24  C   UNL     1      29.759  55.303  29.375  1.00  0.00     0.029 C 
HETATM   25  C   UNL     1      30.850  54.787  28.684  1.00  0.00     0.080 C 
HETATM   26  N   UNL     1      32.033  54.577  29.380  1.00  0.00    -0.100 NA
HETATM   27  C   UNL     1      30.748  54.578  27.304  1.00  0.00     0.100 C 
BRANCH  27  28
HETATM   28  O   UNL     1      31.610  53.726  26.657  1.00  0.00    -0.358 OA
ATOM     29  HO  UNL     1      31.288  53.110  26.011  1.00  0.00     0.217 HD
ENDBRANCH  27  28
ENDBRANCH  20  21
ENDBRANCH   2  20
TORSDOF 7
ENDMDL
MODEL 4
REMARK VINA RESULT:     -10.3      1.239      1.781
REMARK  7 active torsions:
REMARK  status: ('A' for Active; 'I' for Inactive)
REMARK    1  A    between atoms: O_1  and  C_10 
REMARK    2  A    between atoms: C_9  and  C_24 
REMARK    3  A    between atoms: C_12  and  C_20 
REMARK    4  A    between atoms: O_13  and  C_26 
REMARK    5  A    between atoms: C_20  and  C_25 
REMARK    6  A    between atoms: N_21  and  C_27 
REMARK       I    between atoms: N_21  and  C_29 
REMARK    7  A    between atoms: C_23  and  C_24 
ROOT
HETATM    1  C   UNL     1      30.165  53.063  21.847  1.00  0.00     0.044 C 
HETATM    2  C   UNL     1      31.008  53.587  24.064  1.00  0.00    -0.002 C 
HETATM    3  C   UNL     1      29.980  53.157  23.220  1.00  0.00     0.076 C 
HETATM    4  C   UNL     1      32.190  54.026  23.490  1.00  0.00     0.015 C 
HETATM    5  C   UNL     1      31.447  53.225  21.335  1.00  0.00    -0.055 C 
HETATM    6  C   UNL     1      32.391  53.886  22.120  1.00  0.00     0.008 C 
ENDROOT
BRANCH   5   7
HETATM    7  C   UNL     1      31.772  52.772  19.932  1.00  0.00     0.043 C 
BRANCH   7   8
HETATM    8  C   UNL     1      30.966  51.608  19.355  1.00  0.00    -0.008 C 
HETATM    9  C   UNL     1      30.375  50.771  20.481  1.00  0.00     0.007 C 
HETATM   10  C   UNL     1      28.994  50.341  20.021  1.00  0.00     0.026 C 
HETATM   11  C   UNL     1      28.542  51.406  19.050  1.00  0.00     0.087 C 
HETATM   12  C   UNL     1      29.789  52.089  18.515  1.00  0.00     0.030 C 
BRANCH  11  13
HETATM   13  N   UNL     1      27.583  51.001  18.049  1.00  0.00    -0.331 N 
HETATM   14  C   UNL     1      27.586  51.120  16.696  1.00  0.00     0.283 C 
HETATM   15  O   UNL     1      26.520  51.491  16.115  1.00  0.00    -0.630 OA
HETATM   16  O   UNL     1      28.630  50.931  16.052  1.00  0.00    -0.630 OA
ATOM     17  HN  UNL     1      26.753  50.544  18.427  1.00  0.00     0.165 HD
ENDBRANCH  11  13
ENDBRANCH   7   8
ENDBRANCH   5   7
BRANCH   3  18
HETATM   18  O   UNL     1      28.811  52.714  23.784  1.00  0.00    -0.360 OA
ATOM     19  HO  UNL     1      28.464  51.863  23.545  1.00  0.00     0.217 HD
ENDBRANCH   3  18
BRANCH   2  20
HETATM   20  C   UNL     1      30.773  53.486  25.560  1.00  0.00     0.028 C 
BRANCH  20  21
HETATM   21  C   UNL     1      30.134  54.542  26.420  1.00  0.00    -0.000 C 
HETATM   22  C   UNL     1      30.525  54.685  27.747  1.00  0.00     0.014 C 
HETATM   23  C   UNL     1      29.867  55.579  28.583  1.00  0.00     0.003 C 
HETATM   24  C   UNL     1      28.756  56.273  28.119  1.00  0.00     0.029 C 
HETATM   25  C   UNL     1      28.406  56.207  26.775  1.00  0.00     0.080 C 
HETATM   26  N   UNL     1      27.226  56.816  26.368  1.00  0.00    -0.100 NA
HETATM   27  C   UNL     1      29.203  55.463  25.897  1.00  0.00     0.100 C 
BRANCH  27  28
HETATM   28  O   UNL     1      29.147  55.681  24.542  1.00  0.00    -0.358 OA
ATOM     29  HO  UNL     1      29.399  56.519  24.174  1.00  0.00     0.217 HD
ENDBRANCH  27  28
ENDBRANCH  20  21
ENDBRANCH   2  20
TORSDOF 7
ENDMDL
MODEL 5
REMARK VINA RESULT:      -9.6      1.928      2.497
REMARK  7 active torsions:
REMARK  status: ('A' for Active; 'I' for Inactive)
REMARK    1  A    between atoms: O_1  and  C_10 
REMARK    2  A    between atoms: C_9  and  C_24 
REMARK    3  A    between atoms: C_12  and  C_20 
REMARK    4  A    between atoms: O_13  and  C_26 
REMARK    5  A    between atoms: C_20  and  C_25 
REMARK    6  A    between atoms: N_21  and  C_27 
REMARK       I    between atoms: N_21  and  C_29 
REMARK    7  A    between atoms: C_23  and  C_24 
ROOT
HETATM    1  C   UNL     1      30.252  53.078  21.998  1.00  0.00     0.044 C 
HETATM    2  C   UNL     1      31.173  53.670  24.167  1.00  0.00    -0.002 C 
HETATM    3  C   UNL     1      30.122  53.199  23.375  1.00  0.00     0.076 C 
HETATM    4  C   UNL     1      32.320  54.120  23.536  1.00  0.00     0.015 C 
HETATM    5  C   UNL     1      31.509  53.256  21.430  1.00  0.00    -0.055 C 
HETATM    6  C   UNL     1      32.469  53.954  22.162  1.00  0.00     0.008 C 
ENDROOT
BRANCH   5   7
HETATM    7  C   UNL     1      31.787  52.778  20.025  1.00  0.00     0.043 C 
BRANCH   7   8
HETATM    8  C   UNL     1      30.974  51.594  19.503  1.00  0.00    -0.008 C 
HETATM    9  C   UNL     1      30.326  50.851  20.662  1.00  0.00     0.007 C 
HETATM   10  C   UNL     1      28.952  50.417  20.184  1.00  0.00     0.026 C 
HETATM   11  C   UNL     1      28.559  51.421  19.126  1.00  0.00     0.087 C 
HETATM   12  C   UNL     1      29.838  52.038  18.589  1.00  0.00     0.030 C 
BRANCH  11  13
HETATM   13  N   UNL     1      27.626  50.966  18.121  1.00  0.00    -0.331 N 
HETATM   14  C   UNL     1      27.633  51.073  16.767  1.00  0.00     0.283 C 
HETATM   15  O   UNL     1      26.557  51.392  16.176  1.00  0.00    -0.630 OA
HETATM   16  O   UNL     1      28.690  50.923  16.133  1.00  0.00    -0.630 OA
ATOM     17  HN  UNL     1      26.814  50.476  18.497  1.00  0.00     0.165 HD
ENDBRANCH  11  13
ENDBRANCH   7   8
ENDBRANCH   5   7
BRANCH   3  18
HETATM   18  O   UNL     1      28.986  52.745  23.995  1.00  0.00    -0.360 OA
ATOM     19  HO  UNL     1      28.938  52.734  24.944  1.00  0.00     0.217 HD
ENDBRANCH   3  18
BRANCH   2  20
HETATM   20  C   UNL     1      31.001  53.598  25.673  1.00  0.00     0.028 C 
BRANCH  20  21
HETATM   21  C   UNL     1      30.153  54.522  26.504  1.00  0.00    -0.000 C 
HETATM   22  C   UNL     1      29.096  55.208  25.917  1.00  0.00     0.014 C 
HETATM   23  C   UNL     1      28.375  56.148  26.644  1.00  0.00     0.003 C 
HETATM   24  C   UNL     1      28.764  56.470  27.939  1.00  0.00     0.029 C 
HETATM   25  C   UNL     1      29.762  55.733  28.569  1.00  0.00     0.080 C 
HETATM   26  N   UNL     1      30.206  56.154  29.815  1.00  0.00    -0.100 NA
HETATM   27  C   UNL     1      30.340  54.651  27.896  1.00  0.00     0.100 C 
BRANCH  27  28
HETATM   28  O   UNL     1      31.013  53.673  28.587  1.00  0.00    -0.358 OA
ATOM     29  HO  UNL     1      31.006  53.657  29.536  1.00  0.00     0.217 HD
ENDBRANCH  27  28
ENDBRANCH  20  21
ENDBRANCH   2  20
TORSDOF 7
ENDMDL
MODEL 6
REMARK VINA RESULT:      -8.8      2.562      3.496
REMARK  7 active torsions:
REMARK  status: ('A' for Active; 'I' for Inactive)
REMARK    1  A    between atoms: O_1  and  C_10 
REMARK    2  A    between atoms: C_9  and  C_24 
REMARK    3  A    between atoms: C_12  and  C_20 
REMARK    4  A    between atoms: O_13  and  C_26 
REMARK    5  A    between atoms: C_20  and  C_25 
REMARK    6  A    between atoms: N_21  and  C_27 
REMARK       I    between atoms: N_21  and  C_29 
REMARK    7  A    between atoms: C_23  and  C_24 
ROOT
HETATM    1  C   UNL     1      29.493  53.974  23.319  1.00  0.00     0.044 C 
HETATM    2  C   UNL     1      30.261  54.525  25.557  1.00  0.00    -0.002 C 
HETATM    3  C   UNL     1      29.260  54.502  24.582  1.00  0.00     0.076 C 
HETATM    4  C   UNL     1      31.533  54.106  25.203  1.00  0.00     0.015 C 
HETATM    5  C   UNL     1      30.685  53.295  23.091  1.00  0.00    -0.055 C 
HETATM    6  C   UNL     1      31.754  53.533  23.953  1.00  0.00     0.008 C 
ENDROOT
BRANCH   5   7
HETATM    7  C   UNL     1      30.832  52.394  21.888  1.00  0.00     0.043 C 
BRANCH   7   8
HETATM    8  C   UNL     1      30.231  52.869  20.565  1.00  0.00    -0.008 C 
HETATM    9  C   UNL     1      31.058  52.350  19.398  1.00  0.00     0.007 C 
HETATM   10  C   UNL     1      30.075  51.996  18.296  1.00  0.00     0.026 C 
HETATM   11  C   UNL     1      28.783  51.660  19.001  1.00  0.00     0.087 C 
HETATM   12  C   UNL     1      28.817  52.342  20.357  1.00  0.00     0.030 C 
BRANCH  11  13
HETATM   13  N   UNL     1      27.567  51.851  18.245  1.00  0.00    -0.331 N 
HETATM   14  C   UNL     1      27.279  51.652  16.933  1.00  0.00     0.283 C 
HETATM   15  O   UNL     1      26.605  52.534  16.317  1.00  0.00    -0.630 OA
HETATM   16  O   UNL     1      27.722  50.657  16.338  1.00  0.00    -0.630 OA
ATOM     17  HN  UNL     1      26.783  52.200  18.797  1.00  0.00     0.165 HD
ENDBRANCH  11  13
ENDBRANCH   7   8
ENDBRANCH   5   7
BRANCH   3  18
HETATM   18  O   UNL     1      27.997  54.908  24.930  1.00  0.00    -0.360 OA
ATOM     19  HO  UNL     1      27.877  55.505  25.658  1.00  0.00     0.217 HD
ENDBRANCH   3  18
BRANCH   2  20
HETATM   20  C   UNL     1      29.864  54.953  26.958  1.00  0.00     0.028 C 
BRANCH  20  21
HETATM   21  C   UNL     1      30.759  54.934  28.167  1.00  0.00    -0.000 C 
HETATM   22  C   UNL     1      31.982  54.275  28.113  1.00  0.00     0.014 C 
HETATM   23  C   UNL     1      32.768  54.155  29.254  1.00  0.00     0.003 C 
HETATM   24  C   UNL     1      32.294  54.618  30.475  1.00  0.00     0.029 C 
HETATM   25  C   UNL     1      31.115  55.355  30.529  1.00  0.00     0.080 C 
HETATM   26  N   UNL     1      30.609  55.701  31.775  1.00  0.00    -0.100 NA
HETATM   27  C   UNL     1      30.437  55.647  29.341  1.00  0.00     0.100 C 
BRANCH  27  28
HETATM   28  O   UNL     1      29.525  56.673  29.286  1.00  0.00    -0.358 OA
ATOM     29  HO  UNL     1      29.283  57.063  28.455  1.00  0.00     0.217 HD
ENDBRANCH  27  28
ENDBRANCH  20  21
ENDBRANCH   2  20
TORSDOF 7
ENDMDL
MODEL 7
REMARK VINA RESULT:      -8.8      4.187      5.693
REMARK  7 active torsions:
REMARK  status: ('A' for Active; 'I' for Inactive)
REMARK    1  A    between atoms: O_1  and  C_10 
REMARK    2  A    between atoms: C_9  and  C_24 
REMARK    3  A    between atoms: C_12  and  C_20 
REMARK    4  A    between atoms: O_13  and  C_26 
REMARK    5  A    between atoms: C_20  and  C_25 
REMARK    6  A    between atoms: N_21  and  C_27 
REMARK       I    between atoms: N_21  and  C_29 
REMARK    7  A    between atoms: C_23  and  C_24 
ROOT
HETATM    1  C   UNL     1      28.751  49.697  20.262  1.00  0.00     0.044 C 
HETATM    2  C   UNL     1      30.442  51.415  20.564  1.00  0.00    -0.002 C 
HETATM    3  C   UNL     1      29.119  51.034  20.319  1.00  0.00     0.076 C 
HETATM    4  C   UNL     1      31.407  50.424  20.642  1.00  0.00     0.015 C 
HETATM    5  C   UNL     1      29.681  48.733  20.637  1.00  0.00    -0.055 C 
HETATM    6  C   UNL     1      31.030  49.084  20.633  1.00  0.00     0.008 C 
ENDROOT
BRANCH   5   7
HETATM    7  C   UNL     1      29.236  47.325  20.953  1.00  0.00     0.043 C 
BRANCH   7   8
HETATM    8  C   UNL     1      29.684  46.209  20.010  1.00  0.00    -0.008 C 
HETATM    9  C   UNL     1      29.388  44.850  20.628  1.00  0.00     0.007 C 
HETATM   10  C   UNL     1      28.942  43.947  19.493  1.00  0.00     0.026 C 
HETATM   11  C   UNL     1      28.347  44.868  18.455  1.00  0.00     0.087 C 
HETATM   12  C   UNL     1      28.938  46.248  18.682  1.00  0.00     0.030 C 
BRANCH  11  13
HETATM   13  N   UNL     1      28.376  44.403  17.088  1.00  0.00    -0.331 N 
HETATM   14  C   UNL     1      27.745  44.846  15.969  1.00  0.00     0.283 C 
HETATM   15  O   UNL     1      27.225  43.993  15.185  1.00  0.00    -0.630 OA
HETATM   16  O   UNL     1      27.626  46.063  15.758  1.00  0.00    -0.630 OA
ATOM     17  HN  UNL     1      28.979  43.594  16.935  1.00  0.00     0.165 HD
ENDBRANCH  11  13
ENDBRANCH   7   8
ENDBRANCH   5   7
BRANCH   3  18
HETATM   18  O   UNL     1      28.159  52.011  20.250  1.00  0.00    -0.360 OA
ATOM     19  HO  UNL     1      27.592  52.170  20.995  1.00  0.00     0.217 HD
ENDBRANCH   3  18
BRANCH   2  20
HETATM   20  C   UNL     1      30.715  52.891  20.787  1.00  0.00     0.028 C 
BRANCH  20  21
HETATM   21  C   UNL     1      31.034  53.533  22.110  1.00  0.00    -0.000 C 
HETATM   22  C   UNL     1      32.357  53.790  22.454  1.00  0.00     0.014 C 
HETATM   23  C   UNL     1      32.673  54.279  23.717  1.00  0.00     0.003 C 
HETATM   24  C   UNL     1      31.676  54.431  24.672  1.00  0.00     0.029 C 
HETATM   25  C   UNL     1      30.341  54.262  24.317  1.00  0.00     0.080 C 
HETATM   26  N   UNL     1      29.381  54.307  25.319  1.00  0.00    -0.100 NA
HETATM   27  C   UNL     1      30.020  53.970  22.987  1.00  0.00     0.100 C 
BRANCH  27  28
HETATM   28  O   UNL     1      28.751  54.184  22.508  1.00  0.00    -0.358 OA
ATOM     29  HO  UNL     1      28.541  54.018  21.596  1.00  0.00     0.217 HD
ENDBRANCH  27  28
ENDBRANCH  20  21
ENDBRANCH   2  20
TORSDOF 7
ENDMDL
MODEL 8
REMARK VINA RESULT:      -8.7      3.616      4.191
REMARK  7 active torsions:
REMARK  status: ('A' for Active; 'I' for Inactive)
REMARK    1  A    between atoms: O_1  and  C_10 
REMARK    2  A    between atoms: C_9  and  C_24 
REMARK    3  A    between atoms: C_12  and  C_20 
REMARK    4  A    between atoms: O_13  and  C_26 
REMARK    5  A    between atoms: C_20  and  C_25 
REMARK    6  A    between atoms: N_21  and  C_27 
REMARK       I    between atoms: N_21  and  C_29 
REMARK    7  A    between atoms: C_23  and  C_24 
ROOT
HETATM    1  C   UNL     1      30.849  51.452  20.913  1.00  0.00     0.044 C 
HETATM    2  C   UNL     1      30.826  52.758  22.962  1.00  0.00    -0.002 C 
HETATM    3  C   UNL     1      31.223  52.579  21.633  1.00  0.00     0.076 C 
HETATM    4  C   UNL     1      30.138  51.730  23.586  1.00  0.00     0.015 C 
HETATM    5  C   UNL     1      29.916  50.585  21.469  1.00  0.00    -0.055 C 
HETATM    6  C   UNL     1      29.722  50.624  22.849  1.00  0.00     0.008 C 
ENDROOT
BRANCH   5   7
HETATM    7  C   UNL     1      29.201  49.574  20.605  1.00  0.00     0.043 C 
BRANCH   7   8
HETATM    8  C   UNL     1      29.726  48.139  20.607  1.00  0.00    -0.008 C 
HETATM    9  C   UNL     1      29.237  47.404  21.846  1.00  0.00     0.007 C 
HETATM   10  C   UNL     1      28.930  45.982  21.413  1.00  0.00     0.026 C 
HETATM   11  C   UNL     1      28.585  46.073  19.945  1.00  0.00     0.087 C 
HETATM   12  C   UNL     1      29.222  47.343  19.409  1.00  0.00     0.030 C 
BRANCH  11  13
HETATM   13  N   UNL     1      28.815  44.887  19.154  1.00  0.00    -0.331 N 
HETATM   14  C   UNL     1      28.459  44.567  17.882  1.00  0.00     0.283 C 
HETATM   15  O   UNL     1      28.000  43.406  17.653  1.00  0.00    -0.630 OA
HETATM   16  O   UNL     1      28.522  45.417  16.981  1.00  0.00    -0.630 OA
ATOM     17  HN  UNL     1      29.339  44.158  19.637  1.00  0.00     0.165 HD
ENDBRANCH  11  13
ENDBRANCH   7   8
ENDBRANCH   5   7
BRANCH   3  18
HETATM   18  O   UNL     1      31.898  53.596  21.009  1.00  0.00    -0.360 OA
ATOM     19  HO  UNL     1      32.304  53.444  20.163  1.00  0.00     0.217 HD
ENDBRANCH   3  18
BRANCH   2  20
HETATM   20  C   UNL     1      31.129  54.096  23.608  1.00  0.00     0.028 C 
BRANCH  20  21
HETATM   21  C   UNL     1      30.707  54.518  24.989  1.00  0.00    -0.000 C 
HETATM   22  C   UNL     1      31.495  54.187  26.086  1.00  0.00     0.014 C 
HETATM   23  C   UNL     1      31.062  54.472  27.376  1.00  0.00     0.003 C 
HETATM   24  C   UNL     1      29.798  55.012  27.580  1.00  0.00     0.029 C 
HETATM   25  C   UNL     1      29.036  55.429  26.494  1.00  0.00     0.080 C 
HETATM   26  N   UNL     1      27.734  55.854  26.724  1.00  0.00    -0.100 NA
HETATM   27  C   UNL     1      29.570  55.325  25.205  1.00  0.00     0.100 C 
BRANCH  27  28
HETATM   28  O   UNL     1      29.053  56.064  24.169  1.00  0.00    -0.358 OA
ATOM     29  HO  UNL     1      29.618  56.401  23.484  1.00  0.00     0.217 HD
ENDBRANCH  27  28
ENDBRANCH  20  21
ENDBRANCH   2  20
TORSDOF 7
ENDMDL
MODEL 9
REMARK VINA RESULT:      -8.4      4.089      9.351
REMARK  7 active torsions:
REMARK  status: ('A' for Active; 'I' for Inactive)
REMARK    1  A    between atoms: O_1  and  C_10 
REMARK    2  A    between atoms: C_9  and  C_24 
REMARK    3  A    between atoms: C_12  and  C_20 
REMARK    4  A    between atoms: O_13  and  C_26 
REMARK    5  A    between atoms: C_20  and  C_25 
REMARK    6  A    between atoms: N_21  and  C_27 
REMARK       I    between atoms: N_21  and  C_29 
REMARK    7  A    between atoms: C_23  and  C_24 
ROOT
HETATM    1  C   UNL     1      29.192  51.681  20.491  1.00  0.00     0.044 C 
HETATM    2  C   UNL     1      29.134  49.257  20.348  1.00  0.00    -0.002 C 
HETATM    3  C   UNL     1      28.750  50.516  19.878  1.00  0.00     0.076 C 
HETATM    4  C   UNL     1      29.883  49.190  21.511  1.00  0.00     0.015 C 
HETATM    5  C   UNL     1      30.175  51.588  21.469  1.00  0.00    -0.055 C 
HETATM    6  C   UNL     1      30.365  50.357  22.096  1.00  0.00     0.008 C 
ENDROOT
BRANCH   5   7
HETATM    7  C   UNL     1      30.950  52.813  21.892  1.00  0.00     0.043 C 
BRANCH   7   8
HETATM    8  C   UNL     1      31.011  53.135  23.385  1.00  0.00    -0.008 C 
HETATM    9  C   UNL     1      31.985  54.278  23.634  1.00  0.00     0.007 C 
HETATM   10  C   UNL     1      31.378  55.130  24.735  1.00  0.00     0.026 C 
HETATM   11  C   UNL     1      29.886  54.921  24.630  1.00  0.00     0.087 C 
HETATM   12  C   UNL     1      29.663  53.593  23.927  1.00  0.00     0.030 C 
BRANCH  11  13
HETATM   13  N   UNL     1      29.121  55.114  25.840  1.00  0.00    -0.331 N 
HETATM   14  C   UNL     1      28.376  56.161  26.280  1.00  0.00     0.283 C 
HETATM   15  O   UNL     1      28.485  56.518  27.493  1.00  0.00    -0.630 OA
HETATM   16  O   UNL     1      27.654  56.791  25.492  1.00  0.00    -0.630 OA
ATOM     17  HN  UNL     1      29.146  54.320  26.480  1.00  0.00     0.165 HD
ENDBRANCH  11  13
ENDBRANCH   7   8
ENDBRANCH   5   7
BRANCH   3  18
HETATM   18  O   UNL     1      28.015  50.588  18.723  1.00  0.00    -0.360 OA
ATOM     19  HO  UNL     1      27.869  51.430  18.308  1.00  0.00     0.217 HD
ENDBRANCH   3  18
BRANCH   2  20
HETATM   20  C   UNL     1      28.751  48.051  19.511  1.00  0.00     0.028 C 
BRANCH  20  21
HETATM   21  C   UNL     1      28.919  46.612  19.917  1.00  0.00    -0.000 C 
HETATM   22  C   UNL     1      28.518  46.198  21.183  1.00  0.00     0.014 C 
HETATM   23  C   UNL     1      28.769  44.900  21.612  1.00  0.00     0.003 C 
HETATM   24  C   UNL     1      29.501  44.034  20.809  1.00  0.00     0.029 C 
HETATM   25  C   UNL     1      29.833  44.402  19.510  1.00  0.00     0.080 C 
HETATM   26  N   UNL     1      30.663  43.564  18.777  1.00  0.00    -0.100 NA
HETATM   27  C   UNL     1      29.394  45.636  19.017  1.00  0.00     0.100 C 
BRANCH  27  28
HETATM   28  O   UNL     1      29.343  45.874  17.665  1.00  0.00    -0.358 OA
ATOM     29  HO  UNL     1      29.277  46.761  17.330  1.00  0.00     0.217 HD
ENDBRANCH  27  28
ENDBRANCH  20  21
ENDBRANCH   2  20
TORSDOF 7
ENDMDL
