MODEL 1
REMARK VINA RESULT:      -9.0      0.000      0.000
REMARK  8 active torsions:
REMARK  status: ('A' for Active; 'I' for Inactive)
REMARK    1  A    between atoms: C_6  and  C_13 
REMARK    2  A    between atoms: N_7  and  C_24 
REMARK    3  A    between atoms: N_7  and  C_27 
REMARK    4  A    between atoms: C_9  and  C_25 
REMARK    5  A    between atoms: C_13  and  C_14 
REMARK    6  A    between atoms: C_16  and  C_21 
REMARK    7  A    between atoms: C_21  and  N_28 
REMARK    8  A    between atoms: C_27  and  N_28 
ROOT
HETATM    1  C   UNL     1      31.637  54.421  24.174  1.00  0.00     0.008 C 
HETATM    2  C   UNL     1      31.132  53.520  23.242  1.00  0.00    -0.051 C 
HETATM    3  C   UNL     1      29.410  55.177  24.685  1.00  0.00    -0.033 C 
HETATM    4  C   UNL     1      29.751  53.368  23.114  1.00  0.00     0.008 C 
HETATM    5  C   UNL     1      28.903  54.251  23.781  1.00  0.00     0.009 C 
HETATM    6  C   UNL     1      30.783  55.301  24.841  1.00  0.00     0.009 C 
ENDROOT
BRANCH   3   7
HETATM    7  C   UNL     1      28.420  56.016  25.459  1.00  0.00     0.272 C 
BRANCH   7   8
HETATM    8  N   UNL     1      28.209  55.407  26.775  1.00  0.00    -0.056 N 
ATOM      9  HN2 UNL     1      27.265  55.027  26.847  1.00  0.00     0.279 HD
ATOM     10  HN1 UNL     1      28.748  54.545  26.862  1.00  0.00     0.279 HD
BRANCH   8  11
HETATM   11  C   UNL     1      28.489  56.302  27.892  1.00  0.00     0.355 C 
BRANCH  11  12
HETATM   12  N   UNL     1      28.984  55.541  29.026  1.00  0.00    -0.367 N 
ATOM     13  HN  UNL     1      28.337  55.150  29.710  1.00  0.00     0.161 HD
BRANCH  12  14
HETATM   14  C   UNL     1      30.342  55.358  29.163  1.00  0.00     0.035 C 
HETATM   15  C   UNL     1      31.132  54.863  28.103  1.00  0.00     0.029 C 
HETATM   16  C   UNL     1      31.717  53.607  28.312  1.00  0.00     0.002 C 
HETATM   17  C   UNL     1      31.443  52.943  29.532  1.00  0.00     0.001 C 
HETATM   18  C   UNL     1      31.090  53.714  30.657  1.00  0.00     0.009 C 
HETATM   19  C   UNL     1      30.886  55.092  30.447  1.00  0.00    -0.036 C 
HETATM   20  C   UNL     1      31.352  56.152  31.396  1.00  0.00     0.050 C 
ENDBRANCH  12  14
ENDBRANCH  11  12
ENDBRANCH   8  11
ENDBRANCH   7   8
ENDBRANCH   3   7
BRANCH   2  21
HETATM   21  C   UNL     1      32.066  52.885  22.254  1.00  0.00     0.123 C 
BRANCH  21  22
HETATM   22  C   UNL     1      31.491  51.935  21.256  1.00  0.00     0.128 C 
HETATM   23  N   UNL     1      31.302  52.101  19.960  1.00  0.00    -0.338 N 
HETATM   24  C   UNL     1      30.267  51.304  19.614  1.00  0.00     0.056 C 
ATOM     25  HN  UNL     1      31.833  52.712  19.341  1.00  0.00     0.168 HD
HETATM   26  C   UNL     1      30.145  50.350  20.590  1.00  0.00     0.173 C 
HETATM   27  C   UNL     1      29.110  51.825  18.987  1.00  0.00     0.027 C 
HETATM   28  O   UNL     1      30.964  50.749  21.618  1.00  0.00    -0.307 OA
BRANCH  27  29
HETATM   29  C   UNL     1      28.288  52.065  18.099  1.00  0.00    -0.029 C 
HETATM   30  C   UNL     1      27.686  51.371  16.983  1.00  0.00     0.036 C 
ENDBRANCH  27  29
ENDBRANCH  21  22
ENDBRANCH   2  21
TORSDOF 8
ENDMDL
MODEL 2
REMARK VINA RESULT:      -8.8      3.555      9.386
REMARK  8 active torsions:
REMARK  status: ('A' for Active; 'I' for Inactive)
REMARK    1  A    between atoms: C_6  and  C_13 
REMARK    2  A    between atoms: N_7  and  C_24 
REMARK    3  A    between atoms: N_7  and  C_27 
REMARK    4  A    between atoms: C_9  and  C_25 
REMARK    5  A    between atoms: C_13  and  C_14 
REMARK    6  A    between atoms: C_16  and  C_21 
REMARK    7  A    between atoms: C_21  and  N_28 
REMARK    8  A    between atoms: C_27  and  N_28 
ROOT
HETATM    1  C   UNL     1      32.056  53.693  22.699  1.00  0.00     0.008 C 
HETATM    2  C   UNL     1      31.235  53.528  23.811  1.00  0.00    -0.051 C 
HETATM    3  C   UNL     1      30.932  51.886  21.573  1.00  0.00    -0.033 C 
HETATM    4  C   UNL     1      30.185  52.612  23.758  1.00  0.00     0.008 C 
HETATM    5  C   UNL     1      30.089  51.746  22.669  1.00  0.00     0.009 C 
HETATM    6  C   UNL     1      31.954  52.825  21.610  1.00  0.00     0.009 C 
ENDROOT
BRANCH   3   7
HETATM    7  C   UNL     1      30.689  50.990  20.382  1.00  0.00     0.272 C 
BRANCH   7   8
HETATM    8  N   UNL     1      30.890  49.597  20.789  1.00  0.00    -0.056 N 
ATOM      9  HN2 UNL     1      31.626  49.163  20.232  1.00  0.00     0.279 HD
ATOM     10  HN1 UNL     1      31.323  49.551  21.711  1.00  0.00     0.279 HD
BRANCH   8  11
HETATM   11  C   UNL     1      29.675  48.789  20.751  1.00  0.00     0.355 C 
BRANCH  11  12
HETATM   12  N   UNL     1      30.016  47.378  20.782  1.00  0.00    -0.367 N 
ATOM     13  HN  UNL     1      30.965  47.078  21.004  1.00  0.00     0.161 HD
BRANCH  12  14
HETATM   14  C   UNL     1      29.035  46.451  20.505  1.00  0.00     0.035 C 
HETATM   15  C   UNL     1      28.097  46.053  21.481  1.00  0.00     0.029 C 
HETATM   16  C   UNL     1      28.172  44.715  21.890  1.00  0.00     0.002 C 
HETATM   17  C   UNL     1      29.184  43.904  21.324  1.00  0.00     0.001 C 
HETATM   18  C   UNL     1      29.695  44.247  20.056  1.00  0.00     0.009 C 
HETATM   19  C   UNL     1      29.263  45.470  19.505  1.00  0.00    -0.036 C 
HETATM   20  C   UNL     1      28.921  45.651  18.059  1.00  0.00     0.050 C 
ENDBRANCH  12  14
ENDBRANCH  11  12
ENDBRANCH   8  11
ENDBRANCH   7   8
ENDBRANCH   3   7
BRANCH   2  21
HETATM   21  C   UNL     1      31.617  54.180  25.107  1.00  0.00     0.123 C 
BRANCH  21  22
HETATM   22  C   UNL     1      30.532  54.471  26.091  1.00  0.00     0.128 C 
HETATM   23  N   UNL     1      29.228  54.534  25.900  1.00  0.00    -0.338 N 
HETATM   24  C   UNL     1      28.738  55.375  26.838  1.00  0.00     0.056 C 
ATOM     25  HN  UNL     1      28.693  54.045  25.183  1.00  0.00     0.168 HD
HETATM   26  C   UNL     1      29.668  55.448  27.842  1.00  0.00     0.173 C 
HETATM   27  C   UNL     1      27.990  56.524  26.483  1.00  0.00     0.027 C 
HETATM   28  O   UNL     1      30.797  54.831  27.362  1.00  0.00    -0.307 OA
BRANCH  27  29
HETATM   29  C   UNL     1      27.016  57.266  26.340  1.00  0.00    -0.029 C 
HETATM   30  C   UNL     1      25.992  57.507  25.347  1.00  0.00     0.036 C 
ENDBRANCH  27  29
ENDBRANCH  21  22
ENDBRANCH   2  21
TORSDOF 8
ENDMDL
MODEL 3
REMARK VINA RESULT:      -8.6      3.470      9.503
REMARK  8 active torsions:
REMARK  status: ('A' for Active; 'I' for Inactive)
REMARK    1  A    between atoms: C_6  and  C_13 
REMARK    2  A    between atoms: N_7  and  C_24 
REMARK    3  A    between atoms: N_7  and  C_27 
REMARK    4  A    between atoms: C_9  and  C_25 
REMARK    5  A    between atoms: C_13  and  C_14 
REMARK    6  A    between atoms: C_16  and  C_21 
REMARK    7  A    between atoms: C_21  and  N_28 
REMARK    8  A    between atoms: C_27  and  N_28 
ROOT
HETATM    1  C   UNL     1      30.706  51.817  22.466  1.00  0.00     0.008 C 
HETATM    2  C   UNL     1      31.668  52.586  21.817  1.00  0.00    -0.051 C 
HETATM    3  C   UNL     1      29.681  51.279  20.355  1.00  0.00    -0.033 C 
HETATM    4  C   UNL     1      31.702  52.609  20.423  1.00  0.00     0.008 C 
HETATM    5  C   UNL     1      30.663  52.017  19.705  1.00  0.00     0.009 C 
HETATM    6  C   UNL     1      29.670  51.225  21.743  1.00  0.00     0.009 C 
ENDROOT
BRANCH   3   7
HETATM    7  C   UNL     1      28.658  50.568  19.502  1.00  0.00     0.272 C 
BRANCH   7   8
HETATM    8  N   UNL     1      28.692  49.137  19.815  1.00  0.00    -0.056 N 
ATOM      9  HN2 UNL     1      27.786  48.824  20.164  1.00  0.00     0.279 HD
ATOM     10  HN1 UNL     1      28.747  48.583  18.960  1.00  0.00     0.279 HD
BRANCH   8  11
HETATM   11  C   UNL     1      29.756  48.759  20.739  1.00  0.00     0.355 C 
BRANCH  11  12
HETATM   12  N   UNL     1      30.114  47.366  20.542  1.00  0.00    -0.367 N 
ATOM     13  HN  UNL     1      31.092  47.076  20.546  1.00  0.00     0.161 HD
BRANCH  12  14
HETATM   14  C   UNL     1      29.111  46.442  20.347  1.00  0.00     0.035 C 
HETATM   15  C   UNL     1      28.268  46.033  21.402  1.00  0.00     0.029 C 
HETATM   16  C   UNL     1      28.380  44.690  21.787  1.00  0.00     0.002 C 
HETATM   17  C   UNL     1      29.334  43.885  21.120  1.00  0.00     0.001 C 
HETATM   18  C   UNL     1      29.724  44.243  19.813  1.00  0.00     0.009 C 
HETATM   19  C   UNL     1      29.244  45.472  19.319  1.00  0.00    -0.036 C 
HETATM   20  C   UNL     1      28.769  45.669  17.913  1.00  0.00     0.050 C 
ENDBRANCH  12  14
ENDBRANCH  11  12
ENDBRANCH   8  11
ENDBRANCH   7   8
ENDBRANCH   3   7
BRANCH   2  21
HETATM   21  C   UNL     1      32.512  53.533  22.618  1.00  0.00     0.123 C 
BRANCH  21  22
HETATM   22  C   UNL     1      31.860  54.281  23.734  1.00  0.00     0.128 C 
HETATM   23  N   UNL     1      32.393  54.752  24.846  1.00  0.00    -0.338 N 
HETATM   24  C   UNL     1      31.403  54.788  25.766  1.00  0.00     0.056 C 
ATOM     25  HN  UNL     1      33.362  55.035  24.984  1.00  0.00     0.168 HD
HETATM   26  C   UNL     1      30.215  54.768  25.084  1.00  0.00     0.173 C 
HETATM   27  C   UNL     1      31.519  54.108  27.002  1.00  0.00     0.027 C 
HETATM   28  O   UNL     1      30.528  54.481  23.779  1.00  0.00    -0.307 OA
BRANCH  27  29
HETATM   29  C   UNL     1      31.664  53.938  28.215  1.00  0.00    -0.029 C 
HETATM   30  C   UNL     1      31.416  54.673  29.436  1.00  0.00     0.036 C 
ENDBRANCH  27  29
ENDBRANCH  21  22
ENDBRANCH   2  21
TORSDOF 8
ENDMDL
MODEL 4
REMARK VINA RESULT:      -8.5      3.256      9.955
REMARK  8 active torsions:
REMARK  status: ('A' for Active; 'I' for Inactive)
REMARK    1  A    between atoms: C_6  and  C_13 
REMARK    2  A    between atoms: N_7  and  C_24 
REMARK    3  A    between atoms: N_7  and  C_27 
REMARK    4  A    between atoms: C_9  and  C_25 
REMARK    5  A    between atoms: C_13  and  C_14 
REMARK    6  A    between atoms: C_16  and  C_21 
REMARK    7  A    between atoms: C_21  and  N_28 
REMARK    8  A    between atoms: C_27  and  N_28 
ROOT
HETATM    1  C   UNL     1      30.136  52.760  24.093  1.00  0.00     0.008 C 
HETATM    2  C   UNL     1      31.127  53.735  24.151  1.00  0.00    -0.051 C 
HETATM    3  C   UNL     1      30.826  52.159  21.866  1.00  0.00    -0.033 C 
HETATM    4  C   UNL     1      32.043  53.845  23.104  1.00  0.00     0.008 C 
HETATM    5  C   UNL     1      31.839  53.108  21.938  1.00  0.00     0.009 C 
HETATM    6  C   UNL     1      29.938  52.022  22.924  1.00  0.00     0.009 C 
ENDROOT
BRANCH   3   7
HETATM    7  C   UNL     1      30.743  51.315  20.616  1.00  0.00     0.272 C 
BRANCH   7   8
HETATM    8  N   UNL     1      30.911  49.907  20.982  1.00  0.00    -0.056 N 
ATOM      9  HN2 UNL     1      31.725  49.509  20.515  1.00  0.00     0.279 HD
ATOM     10  HN1 UNL     1      31.212  49.822  21.954  1.00  0.00     0.279 HD
BRANCH   8  11
HETATM   11  C   UNL     1      29.728  49.087  20.738  1.00  0.00     0.355 C 
BRANCH  11  12
HETATM   12  N   UNL     1      30.110  47.694  20.597  1.00  0.00    -0.367 N 
ATOM     13  HN  UNL     1      31.091  47.417  20.639  1.00  0.00     0.161 HD
BRANCH  12  14
HETATM   14  C   UNL     1      29.125  46.750  20.406  1.00  0.00     0.035 C 
HETATM   15  C   UNL     1      28.280  46.339  21.459  1.00  0.00     0.029 C 
HETATM   16  C   UNL     1      28.412  45.003  21.861  1.00  0.00     0.002 C 
HETATM   17  C   UNL     1      29.385  44.207  21.211  1.00  0.00     0.001 C 
HETATM   18  C   UNL     1      29.780  44.556  19.904  1.00  0.00     0.009 C 
HETATM   19  C   UNL     1      29.284  45.770  19.390  1.00  0.00    -0.036 C 
HETATM   20  C   UNL     1      28.817  45.943  17.979  1.00  0.00     0.050 C 
ENDBRANCH  12  14
ENDBRANCH  11  12
ENDBRANCH   8  11
ENDBRANCH   7   8
ENDBRANCH   3   7
BRANCH   2  21
HETATM   21  C   UNL     1      31.067  54.778  25.228  1.00  0.00     0.123 C 
BRANCH  21  22
HETATM   22  C   UNL     1      30.825  54.324  26.629  1.00  0.00     0.128 C 
HETATM   23  N   UNL     1      30.030  54.841  27.548  1.00  0.00    -0.338 N 
HETATM   24  C   UNL     1      30.563  54.521  28.748  1.00  0.00     0.056 C 
ATOM     25  HN  UNL     1      29.178  55.377  27.383  1.00  0.00     0.168 HD
HETATM   26  C   UNL     1      31.401  53.456  28.548  1.00  0.00     0.173 C 
HETATM   27  C   UNL     1      30.899  55.517  29.696  1.00  0.00     0.027 C 
HETATM   28  O   UNL     1      31.528  53.320  27.188  1.00  0.00    -0.307 OA
BRANCH  27  29
HETATM   29  C   UNL     1      30.832  56.209  30.715  1.00  0.00    -0.029 C 
HETATM   30  C   UNL     1      31.497  56.292  31.997  1.00  0.00     0.036 C 
ENDBRANCH  27  29
ENDBRANCH  21  22
ENDBRANCH   2  21
TORSDOF 8
ENDMDL
MODEL 5
REMARK VINA RESULT:      -8.3      2.571      9.165
REMARK  8 active torsions:
REMARK  status: ('A' for Active; 'I' for Inactive)
REMARK    1  A    between atoms: C_6  and  C_13 
REMARK    2  A    between atoms: N_7  and  C_24 
REMARK    3  A    between atoms: N_7  and  C_27 
REMARK    4  A    between atoms: C_9  and  C_25 
REMARK    5  A    between atoms: C_13  and  C_14 
REMARK    6  A    between atoms: C_16  and  C_21 
REMARK    7  A    between atoms: C_21  and  N_28 
REMARK    8  A    between atoms: C_27  and  N_28 
ROOT
HETATM    1  C   UNL     1      28.955  55.188  25.577  1.00  0.00     0.008 C 
HETATM    2  C   UNL     1      29.917  54.859  26.528  1.00  0.00    -0.051 C 
HETATM    3  C   UNL     1      30.291  54.181  23.846  1.00  0.00    -0.033 C 
HETATM    4  C   UNL     1      31.017  54.089  26.153  1.00  0.00     0.008 C 
HETATM    5  C   UNL     1      31.234  53.821  24.801  1.00  0.00     0.009 C 
HETATM    6  C   UNL     1      29.176  54.915  24.226  1.00  0.00     0.009 C 
ENDROOT
BRANCH   3   7
HETATM    7  C   UNL     1      30.539  53.750  22.419  1.00  0.00     0.272 C 
BRANCH   7   8
HETATM    8  N   UNL     1      29.262  53.733  21.701  1.00  0.00    -0.056 N 
ATOM      9  HN2 UNL     1      28.729  54.581  21.895  1.00  0.00     0.279 HD
ATOM     10  HN1 UNL     1      29.412  53.850  20.699  1.00  0.00     0.279 HD
BRANCH   8  11
HETATM   11  C   UNL     1      28.453  52.547  21.963  1.00  0.00     0.355 C 
BRANCH  11  12
HETATM   12  N   UNL     1      27.913  52.029  20.719  1.00  0.00    -0.367 N 
ATOM     13  HN  UNL     1      26.945  52.214  20.456  1.00  0.00     0.161 HD
BRANCH  12  14
HETATM   14  C   UNL     1      28.730  51.283  19.898  1.00  0.00     0.035 C 
HETATM   15  C   UNL     1      29.653  50.353  20.422  1.00  0.00     0.029 C 
HETATM   16  C   UNL     1      31.006  50.652  20.213  1.00  0.00     0.002 C 
HETATM   17  C   UNL     1      31.323  51.855  19.538  1.00  0.00     0.001 C 
HETATM   18  C   UNL     1      30.371  52.407  18.657  1.00  0.00     0.009 C 
HETATM   19  C   UNL     1      29.101  51.797  18.628  1.00  0.00    -0.036 C 
HETATM   20  C   UNL     1      28.323  51.567  17.370  1.00  0.00     0.050 C 
ENDBRANCH  12  14
ENDBRANCH  11  12
ENDBRANCH   8  11
ENDBRANCH   7   8
ENDBRANCH   3   7
BRANCH   2  21
HETATM   21  C   UNL     1      29.862  55.508  27.880  1.00  0.00     0.123 C 
BRANCH  21  22
HETATM   22  C   UNL     1      30.769  54.985  28.945  1.00  0.00     0.128 C 
HETATM   23  N   UNL     1      31.521  53.899  28.941  1.00  0.00    -0.338 N 
HETATM   24  C   UNL     1      31.660  53.520  30.231  1.00  0.00     0.056 C 
ATOM     25  HN  UNL     1      31.918  53.437  28.124  1.00  0.00     0.168 HD
HETATM   26  C   UNL     1      31.378  54.612  31.008  1.00  0.00     0.173 C 
HETATM   27  C   UNL     1      31.282  52.227  30.665  1.00  0.00     0.027 C 
HETATM   28  O   UNL     1      30.845  55.554  30.163  1.00  0.00    -0.307 OA
BRANCH  27  29
HETATM   29  C   UNL     1      31.395  51.064  31.060  1.00  0.00    -0.029 C 
HETATM   30  C   UNL     1      32.008  49.835  30.606  1.00  0.00     0.036 C 
ENDBRANCH  27  29
ENDBRANCH  21  22
ENDBRANCH   2  21
TORSDOF 8
ENDMDL
MODEL 6
REMARK VINA RESULT:      -8.2      3.506      9.712
REMARK  8 active torsions:
REMARK  status: ('A' for Active; 'I' for Inactive)
REMARK    1  A    between atoms: C_6  and  C_13 
REMARK    2  A    between atoms: N_7  and  C_24 
REMARK    3  A    between atoms: N_7  and  C_27 
REMARK    4  A    between atoms: C_9  and  C_25 
REMARK    5  A    between atoms: C_13  and  C_14 
REMARK    6  A    between atoms: C_16  and  C_21 
REMARK    7  A    between atoms: C_21  and  N_28 
REMARK    8  A    between atoms: C_27  and  N_28 
ROOT
HETATM    1  C   UNL     1      28.468  53.637  22.839  1.00  0.00     0.008 C 
HETATM    2  C   UNL     1      29.243  54.220  23.836  1.00  0.00    -0.051 C 
HETATM    3  C   UNL     1      30.212  52.041  22.386  1.00  0.00    -0.033 C 
HETATM    4  C   UNL     1      30.462  53.640  24.185  1.00  0.00     0.008 C 
HETATM    5  C   UNL     1      30.971  52.601  23.407  1.00  0.00     0.009 C 
HETATM    6  C   UNL     1      28.981  52.595  22.064  1.00  0.00     0.009 C 
ENDROOT
BRANCH   3   7
HETATM    7  C   UNL     1      30.781  50.840  21.667  1.00  0.00     0.272 C 
BRANCH   7   8
HETATM    8  N   UNL     1      29.899  49.692  21.890  1.00  0.00    -0.056 N 
ATOM      9  HN2 UNL     1      30.275  49.086  22.618  1.00  0.00     0.279 HD
ATOM     10  HN1 UNL     1      29.033  49.987  22.342  1.00  0.00     0.279 HD
BRANCH   8  11
HETATM   11  C   UNL     1      29.611  48.925  20.682  1.00  0.00     0.355 C 
BRANCH  11  12
HETATM   12  N   UNL     1      29.945  47.528  20.890  1.00  0.00    -0.367 N 
ATOM     13  HN  UNL     1      30.866  47.260  21.236  1.00  0.00     0.161 HD
BRANCH  12  14
HETATM   14  C   UNL     1      28.996  46.568  20.610  1.00  0.00     0.035 C 
HETATM   15  C   UNL     1      28.072  46.137  21.586  1.00  0.00     0.029 C 
HETATM   16  C   UNL     1      28.192  44.801  21.991  1.00  0.00     0.002 C 
HETATM   17  C   UNL     1      29.232  44.026  21.423  1.00  0.00     0.001 C 
HETATM   18  C   UNL     1      29.730  44.389  20.156  1.00  0.00     0.009 C 
HETATM   19  C   UNL     1      29.258  45.598  19.608  1.00  0.00    -0.036 C 
HETATM   20  C   UNL     1      28.910  45.771  18.163  1.00  0.00     0.050 C 
ENDBRANCH  12  14
ENDBRANCH  11  12
ENDBRANCH   8  11
ENDBRANCH   7   8
ENDBRANCH   3   7
BRANCH   2  21
HETATM   21  C   UNL     1      28.857  55.569  24.369  1.00  0.00     0.123 C 
BRANCH  21  22
HETATM   22  C   UNL     1      28.733  55.728  25.849  1.00  0.00     0.128 C 
HETATM   23  N   UNL     1      29.620  56.180  26.716  1.00  0.00    -0.338 N 
HETATM   24  C   UNL     1      29.333  55.600  27.902  1.00  0.00     0.056 C 
ATOM     25  HN  UNL     1      30.375  56.838  26.528  1.00  0.00     0.168 HD
HETATM   26  C   UNL     1      28.033  55.171  27.840  1.00  0.00     0.173 C 
HETATM   27  C   UNL     1      30.297  54.835  28.603  1.00  0.00     0.027 C 
HETATM   28  O   UNL     1      27.652  55.296  26.527  1.00  0.00    -0.307 OA
BRANCH  27  29
HETATM   29  C   UNL     1      31.121  54.533  29.469  1.00  0.00    -0.029 C 
HETATM   30  C   UNL     1      32.520  54.172  29.535  1.00  0.00     0.036 C 
ENDBRANCH  27  29
ENDBRANCH  21  22
ENDBRANCH   2  21
TORSDOF 8
ENDMDL
MODEL 7
REMARK VINA RESULT:      -8.1      3.713      9.606
REMARK  8 active torsions:
REMARK  status: ('A' for Active; 'I' for Inactive)
REMARK    1  A    between atoms: C_6  and  C_13 
REMARK    2  A    between atoms: N_7  and  C_24 
REMARK    3  A    between atoms: N_7  and  C_27 
REMARK    4  A    between atoms: C_9  and  C_25 
REMARK    5  A    between atoms: C_13  and  C_14 
REMARK    6  A    between atoms: C_16  and  C_21 
REMARK    7  A    between atoms: C_21  and  N_28 
REMARK    8  A    between atoms: C_27  and  N_28 
ROOT
HETATM    1  C   UNL     1      31.256  51.892  22.675  1.00  0.00     0.008 C 
HETATM    2  C   UNL     1      32.004  52.909  22.089  1.00  0.00    -0.051 C 
HETATM    3  C   UNL     1      30.377  51.268  20.522  1.00  0.00    -0.033 C 
HETATM    4  C   UNL     1      32.024  53.032  20.700  1.00  0.00     0.008 C 
HETATM    5  C   UNL     1      31.152  52.259  19.933  1.00  0.00     0.009 C 
HETATM    6  C   UNL     1      30.386  51.120  21.902  1.00  0.00     0.009 C 
ENDROOT
BRANCH   3   7
HETATM    7  C   UNL     1      29.548  50.392  19.612  1.00  0.00     0.272 C 
BRANCH   7   8
HETATM    8  N   UNL     1      28.903  49.350  20.415  1.00  0.00    -0.056 N 
ATOM      9  HN2 UNL     1      28.574  49.732  21.301  1.00  0.00     0.279 HD
ATOM     10  HN1 UNL     1      28.010  49.079  20.002  1.00  0.00     0.279 HD
BRANCH   8  11
HETATM   11  C   UNL     1      29.740  48.176  20.642  1.00  0.00     0.355 C 
BRANCH  11  12
HETATM   12  N   UNL     1      28.919  47.053  21.055  1.00  0.00    -0.367 N 
ATOM     13  HN  UNL     1      28.009  47.207  21.489  1.00  0.00     0.161 HD
BRANCH  12  14
HETATM   14  C   UNL     1      29.389  45.774  20.852  1.00  0.00     0.035 C 
HETATM   15  C   UNL     1      30.301  45.478  19.817  1.00  0.00     0.029 C 
HETATM   16  C   UNL     1      29.822  44.639  18.802  1.00  0.00     0.002 C 
HETATM   17  C   UNL     1      28.480  44.197  18.885  1.00  0.00     0.001 C 
HETATM   18  C   UNL     1      27.865  44.136  20.152  1.00  0.00     0.009 C 
HETATM   19  C   UNL     1      28.590  44.666  21.238  1.00  0.00    -0.036 C 
HETATM   20  C   UNL     1      28.641  44.026  22.590  1.00  0.00     0.050 C 
ENDBRANCH  12  14
ENDBRANCH  11  12
ENDBRANCH   8  11
ENDBRANCH   7   8
ENDBRANCH   3   7
BRANCH   2  21
HETATM   21  C   UNL     1      32.603  53.973  22.960  1.00  0.00     0.123 C 
BRANCH  21  22
HETATM   22  C   UNL     1      31.765  54.527  24.065  1.00  0.00     0.128 C 
HETATM   23  N   UNL     1      32.142  55.009  25.236  1.00  0.00    -0.338 N 
HETATM   24  C   UNL     1      31.108  54.817  26.085  1.00  0.00     0.056 C 
ATOM     25  HN  UNL     1      33.038  55.442  25.456  1.00  0.00     0.168 HD
HETATM   26  C   UNL     1      29.984  54.641  25.322  1.00  0.00     0.173 C 
HETATM   27  C   UNL     1      31.266  54.089  27.289  1.00  0.00     0.027 C 
HETATM   28  O   UNL     1      30.419  54.495  24.028  1.00  0.00    -0.307 OA
BRANCH  27  29
HETATM   29  C   UNL     1      31.366  53.868  28.498  1.00  0.00    -0.029 C 
HETATM   30  C   UNL     1      32.218  54.276  29.593  1.00  0.00     0.036 C 
ENDBRANCH  27  29
ENDBRANCH  21  22
ENDBRANCH   2  21
TORSDOF 8
ENDMDL
MODEL 8
REMARK VINA RESULT:      -7.8      3.538      9.628
REMARK  8 active torsions:
REMARK  status: ('A' for Active; 'I' for Inactive)
REMARK    1  A    between atoms: C_6  and  C_13 
REMARK    2  A    between atoms: N_7  and  C_24 
REMARK    3  A    between atoms: N_7  and  C_27 
REMARK    4  A    between atoms: C_9  and  C_25 
REMARK    5  A    between atoms: C_13  and  C_14 
REMARK    6  A    between atoms: C_16  and  C_21 
REMARK    7  A    between atoms: C_21  and  N_28 
REMARK    8  A    between atoms: C_27  and  N_28 
ROOT
HETATM    1  C   UNL     1      32.352  53.604  22.635  1.00  0.00     0.008 C 
HETATM    2  C   UNL     1      31.762  53.754  23.886  1.00  0.00    -0.051 C 
HETATM    3  C   UNL     1      30.668  52.001  22.010  1.00  0.00    -0.033 C 
HETATM    4  C   UNL     1      30.557  53.109  24.159  1.00  0.00     0.008 C 
HETATM    5  C   UNL     1      30.059  52.179  23.246  1.00  0.00     0.009 C 
HETATM    6  C   UNL     1      31.848  52.673  21.724  1.00  0.00     0.009 C 
ENDROOT
BRANCH   3   7
HETATM    7  C   UNL     1      30.002  51.065  21.028  1.00  0.00     0.272 C 
BRANCH   7   8
HETATM    8  N   UNL     1      29.763  49.779  21.688  1.00  0.00    -0.056 N 
ATOM      9  HN2 UNL     1      30.362  49.679  22.507  1.00  0.00     0.279 HD
ATOM     10  HN1 UNL     1      28.849  49.773  22.142  1.00  0.00     0.279 HD
BRANCH   8  11
HETATM   11  C   UNL     1      29.904  48.626  20.805  1.00  0.00     0.355 C 
BRANCH  11  12
HETATM   12  N   UNL     1      28.992  47.573  21.213  1.00  0.00    -0.367 N 
ATOM     13  HN  UNL     1      28.093  47.801  21.637  1.00  0.00     0.161 HD
BRANCH  12  14
HETATM   14  C   UNL     1      29.361  46.260  21.018  1.00  0.00     0.035 C 
HETATM   15  C   UNL     1      30.334  45.900  20.061  1.00  0.00     0.029 C 
HETATM   16  C   UNL     1      29.876  45.128  18.986  1.00  0.00     0.002 C 
HETATM   17  C   UNL     1      28.497  44.812  18.935  1.00  0.00     0.001 C 
HETATM   18  C   UNL     1      27.766  44.783  20.140  1.00  0.00     0.009 C 
HETATM   19  C   UNL     1      28.433  45.224  21.301  1.00  0.00    -0.036 C 
HETATM   20  C   UNL     1      28.302  44.557  22.634  1.00  0.00     0.050 C 
ENDBRANCH  12  14
ENDBRANCH  11  12
ENDBRANCH   8  11
ENDBRANCH   7   8
ENDBRANCH   3   7
BRANCH   2  21
HETATM   21  C   UNL     1      32.532  54.432  24.982  1.00  0.00     0.123 C 
BRANCH  21  22
HETATM   22  C   UNL     1      31.844  54.650  26.289  1.00  0.00     0.128 C 
HETATM   23  N   UNL     1      32.338  54.586  27.512  1.00  0.00    -0.338 N 
HETATM   24  C   UNL     1      31.314  54.252  28.328  1.00  0.00     0.056 C 
ATOM     25  HN  UNL     1      33.305  54.756  27.788  1.00  0.00     0.168 HD
HETATM   26  C   UNL     1      30.153  54.558  27.667  1.00  0.00     0.173 C 
HETATM   27  C   UNL     1      31.373  53.107  29.158  1.00  0.00     0.027 C 
HETATM   28  O   UNL     1      30.515  54.848  26.375  1.00  0.00    -0.307 OA
BRANCH  27  29
HETATM   29  C   UNL     1      31.469  52.432  30.186  1.00  0.00    -0.029 C 
HETATM   30  C   UNL     1      31.419  51.034  30.556  1.00  0.00     0.036 C 
ENDBRANCH  27  29
ENDBRANCH  21  22
ENDBRANCH   2  21
TORSDOF 8
ENDMDL
MODEL 9
REMARK VINA RESULT:      -7.8      3.200      4.325
REMARK  8 active torsions:
REMARK  status: ('A' for Active; 'I' for Inactive)
REMARK    1  A    between atoms: C_6  and  C_13 
REMARK    2  A    between atoms: N_7  and  C_24 
REMARK    3  A    between atoms: N_7  and  C_27 
REMARK    4  A    between atoms: C_9  and  C_25 
REMARK    5  A    between atoms: C_13  and  C_14 
REMARK    6  A    between atoms: C_16  and  C_21 
REMARK    7  A    between atoms: C_21  and  N_28 
REMARK    8  A    between atoms: C_27  and  N_28 
ROOT
HETATM    1  C   UNL     1      31.253  51.112  20.972  1.00  0.00     0.008 C 
HETATM    2  C   UNL     1      30.099  50.444  21.370  1.00  0.00    -0.051 C 
HETATM    3  C   UNL     1      30.988  52.689  22.771  1.00  0.00    -0.033 C 
HETATM    4  C   UNL     1      29.450  50.834  22.541  1.00  0.00     0.008 C 
HETATM    5  C   UNL     1      29.856  52.000  23.191  1.00  0.00     0.009 C 
HETATM    6  C   UNL     1      31.657  52.277  21.626  1.00  0.00     0.009 C 
ENDROOT
BRANCH   3   7
HETATM    7  C   UNL     1      31.434  53.873  23.597  1.00  0.00     0.272 C 
BRANCH   7   8
HETATM    8  N   UNL     1      31.046  53.651  24.992  1.00  0.00    -0.056 N 
ATOM      9  HN2 UNL     1      30.033  53.571  25.074  1.00  0.00     0.279 HD
ATOM     10  HN1 UNL     1      31.317  52.715  25.295  1.00  0.00     0.279 HD
BRANCH   8  11
HETATM   11  C   UNL     1      31.558  54.658  25.915  1.00  0.00     0.355 C 
BRANCH  11  12
HETATM   12  N   UNL     1      31.856  54.049  27.199  1.00  0.00    -0.367 N 
ATOM     13  HN  UNL     1      32.777  53.651  27.384  1.00  0.00     0.161 HD
BRANCH  12  14
HETATM   14  C   UNL     1      30.873  54.016  28.164  1.00  0.00     0.035 C 
HETATM   15  C   UNL     1      29.690  54.774  28.040  1.00  0.00     0.029 C 
HETATM   16  C   UNL     1      29.514  55.791  28.988  1.00  0.00     0.002 C 
HETATM   17  C   UNL     1      30.536  55.988  29.948  1.00  0.00     0.001 C 
HETATM   18  C   UNL     1      31.371  54.901  30.277  1.00  0.00     0.009 C 
HETATM   19  C   UNL     1      31.224  53.729  29.509  1.00  0.00    -0.036 C 
HETATM   20  C   UNL     1      31.262  52.350  30.090  1.00  0.00     0.050 C 
ENDBRANCH  12  14
ENDBRANCH  11  12
ENDBRANCH   8  11
ENDBRANCH   7   8
ENDBRANCH   3   7
BRANCH   2  21
HETATM   21  C   UNL     1      29.460  49.462  20.433  1.00  0.00     0.123 C 
BRANCH  21  22
HETATM   22  C   UNL     1      29.619  48.007  20.728  1.00  0.00     0.128 C 
HETATM   23  N   UNL     1      30.139  47.055  19.975  1.00  0.00    -0.338 N 
HETATM   24  C   UNL     1      29.547  45.899  20.347  1.00  0.00     0.056 C 
ATOM     25  HN  UNL     1      30.850  47.170  19.253  1.00  0.00     0.168 HD
HETATM   26  C   UNL     1      29.024  46.095  21.598  1.00  0.00     0.173 C 
HETATM   27  C   UNL     1      28.859  45.087  19.413  1.00  0.00     0.027 C 
HETATM   28  O   UNL     1      29.113  47.443  21.842  1.00  0.00    -0.307 OA
BRANCH  27  29
HETATM   29  C   UNL     1      28.623  44.133  18.667  1.00  0.00    -0.029 C 
HETATM   30  C   UNL     1      28.224  43.922  17.293  1.00  0.00     0.036 C 
ENDBRANCH  27  29
ENDBRANCH  21  22
ENDBRANCH   2  21
TORSDOF 8
ENDMDL
