REMARK  1 active torsions:
REMARK  status: ('A' for Active; 'I' for Inactive)
REMARK    1  A    between atoms: C_2  and  C_10 
ROOT
HETATM    1  C   UNL     1      39.774  22.417  -9.541  1.00  0.00     0.248 C 
HETATM    2  N   UNL     1      37.655  23.803  -8.476  1.00  0.00    -0.351 N 
ATOM      3  HN  UNL     1      36.766  24.159  -8.125  1.00  0.00     0.166 HD
HETATM    4  C   UNL     1      38.968  23.230 -10.365  1.00  0.00     0.104 C 
HETATM    5  N   UNL     1      39.211  22.058  -8.327  1.00  0.00    -0.320 N 
ATOM      6  HN  UNL     1      39.386  21.152  -7.893  1.00  0.00     0.169 HD
HETATM    7  C   UNL     1      38.125  24.132  -9.686  1.00  0.00     0.050 C 
HETATM    8  O   UNL     1      40.906  22.043  -9.836  1.00  0.00    -0.268 OA
HETATM    9  C   UNL     1      38.418  22.984  -7.760  1.00  0.00     0.183 C 
ENDROOT
BRANCH   7  10
HETATM   10  C   UNL     1      37.662  25.362 -10.357  1.00  0.00     0.015 C 
HETATM   11  C   UNL     1      36.473  25.965 -10.116  1.00  0.00     0.155 C 
HETATM   12  O   UNL     1      36.470  27.203 -10.716  1.00  0.00    -0.334 OA
HETATM   13  C   UNL     1      37.679  27.340 -11.371  1.00  0.00     0.142 C 
HETATM   14  C   UNL     1      38.473  26.266 -11.062  1.00  0.00     0.040 C 
ENDBRANCH   7  10
TORSDOF 1
