MODEL 1
REMARK VINA RESULT:      -9.6      0.000      0.000
REMARK  1 active torsions:
REMARK  status: ('A' for Active; 'I' for Inactive)
REMARK    1  A    between atoms: C_2  and  C_4 
ROOT
HETATM    1  C   UNL     1       0.827   8.994  33.460  1.00  0.00    -0.009 C 
HETATM    2  C   UNL     1       4.315   7.875  34.428  1.00  0.00     0.257 C 
HETATM    3  C   UNL     1       6.314   8.089  32.971  1.00  0.00     0.038 C 
HETATM    4  C   UNL     1       5.040   8.821  33.443  1.00  0.00     0.256 C 
HETATM    5  C   UNL     1       0.717  10.207  32.554  1.00  0.00     0.041 C 
HETATM    6  N   UNL     1       4.212   8.978  32.208  1.00  0.00     0.102 N 
HETATM    7  C   UNL     1       7.125   9.017  32.068  1.00  0.00     0.004 C 
HETATM    8  C   UNL     1       2.966   7.071  36.872  1.00  0.00     0.030 C 
HETATM    9  C   UNL     1       2.207   8.384  33.411  1.00  0.00     0.288 C 
HETATM   10  C   UNL     1       5.089   8.091  35.738  1.00  0.00     0.038 C 
HETATM   11  C   UNL     1       1.879   9.900  31.597  1.00  0.00     0.043 C 
HETATM   12  N   UNL     1       2.914   8.289  34.726  1.00  0.00     0.106 N 
HETATM   13  C   UNL     1       2.917   9.540  32.671  1.00  0.00     0.261 C 
HETATM   14  C   UNL     1       4.387   7.540  36.966  1.00  0.00     0.004 C 
HETATM   15  C   UNL     1       2.338   7.134  35.483  1.00  0.00     0.274 C 
HETATM   16  C   UNL     1       4.843  10.144  31.485  1.00  0.00     0.273 C 
HETATM   17  C   UNL     1       6.290   9.850  31.110  1.00  0.00     0.030 C 
ENDROOT
BRANCH   1  18
HETATM   18  C   UNL     1      -0.218   8.691  34.439  1.00  0.00     0.096 C 
HETATM   19  C   UNL     1      -1.255   7.796  34.170  1.00  0.00     0.126 C 
HETATM   20  N   UNL     1      -2.085   7.394  35.167  1.00  0.00    -0.361 N 
HETATM   21  C   UNL     1      -1.790   7.764  36.451  1.00  0.00     0.066 C 
ATOM     22  HN  UNL     1      -2.910   6.829  34.963  1.00  0.00     0.165 HD
HETATM   23  C   UNL     1      -0.750   8.668  36.709  1.00  0.00     0.102 C 
HETATM   24  C   UNL     1      -2.608   7.354  37.514  1.00  0.00     0.032 C 
HETATM   25  C   UNL     1      -0.416   8.989  38.020  1.00  0.00     0.039 C 
HETATM   26  O   UNL     1      -0.123   9.294  35.662  1.00  0.00    -0.307 OA
HETATM   27  C   UNL     1      -1.240   8.585  39.066  1.00  0.00     0.003 C 
HETATM   28  C   UNL     1      -2.390   7.862  38.792  1.00  0.00     0.002 C 
ENDBRANCH   1  18
TORSDOF 1
ENDMDL
MODEL 2
REMARK VINA RESULT:      -9.1      2.637      7.048
REMARK  1 active torsions:
REMARK  status: ('A' for Active; 'I' for Inactive)
REMARK    1  A    between atoms: C_2  and  C_4 
ROOT
HETATM    1  C   UNL     1       1.736  10.054  31.984  1.00  0.00    -0.009 C 
HETATM    2  C   UNL     1       4.606   8.335  33.761  1.00  0.00     0.257 C 
HETATM    3  C   UNL     1       4.491   7.435  36.072  1.00  0.00     0.038 C 
HETATM    4  C   UNL     1       3.708   7.554  34.748  1.00  0.00     0.256 C 
HETATM    5  C   UNL     1       0.333   9.581  32.318  1.00  0.00     0.041 C 
HETATM    6  N   UNL     1       2.510   8.383  35.087  1.00  0.00     0.102 N 
HETATM    7  C   UNL     1       3.691   6.585  37.058  1.00  0.00     0.004 C 
HETATM    8  C   UNL     1       5.989   8.905  31.270  1.00  0.00     0.030 C 
HETATM    9  C   UNL     1       2.732   9.639  33.040  1.00  0.00     0.288 C 
HETATM   10  C   UNL     1       5.570   7.252  33.251  1.00  0.00     0.038 C 
HETATM   11  C   UNL     1       0.494   9.399  33.834  1.00  0.00     0.043 C 
HETATM   12  N   UNL     1       3.880   8.816  32.551  1.00  0.00     0.106 N 
HETATM   13  C   UNL     1       1.827   8.638  33.792  1.00  0.00     0.261 C 
HETATM   14  C   UNL     1       6.355   7.657  32.015  1.00  0.00     0.004 C 
HETATM   15  C   UNL     1       4.853   9.727  31.872  1.00  0.00     0.274 C 
HETATM   16  C   UNL     1       1.575   7.417  35.774  1.00  0.00     0.273 C 
HETATM   17  C   UNL     1       2.195   6.849  37.045  1.00  0.00     0.030 C 
ENDROOT
BRANCH   1  18
HETATM   18  C   UNL     1       2.054  10.585  30.657  1.00  0.00     0.096 C 
HETATM   19  C   UNL     1       1.103  11.230  29.863  1.00  0.00     0.126 C 
HETATM   20  N   UNL     1       1.484  11.878  28.733  1.00  0.00    -0.361 N 
HETATM   21  C   UNL     1       2.821  12.010  28.476  1.00  0.00     0.066 C 
ATOM     22  HN  UNL     1       0.789  12.257  28.090  1.00  0.00     0.165 HD
HETATM   23  C   UNL     1       3.768  11.353  29.275  1.00  0.00     0.102 C 
HETATM   24  C   UNL     1       3.261  12.690  27.330  1.00  0.00     0.032 C 
HETATM   25  C   UNL     1       5.126  11.544  29.047  1.00  0.00     0.039 C 
HETATM   26  O   UNL     1       3.345  10.459  30.227  1.00  0.00    -0.307 OA
HETATM   27  C   UNL     1       5.550  12.212  27.902  1.00  0.00     0.003 C 
HETATM   28  C   UNL     1       4.612  12.685  26.997  1.00  0.00     0.002 C 
ENDBRANCH   1  18
TORSDOF 1
ENDMDL
MODEL 3
REMARK VINA RESULT:      -9.0      1.304      2.001
REMARK  1 active torsions:
REMARK  status: ('A' for Active; 'I' for Inactive)
REMARK    1  A    between atoms: C_2  and  C_4 
ROOT
HETATM    1  C   UNL     1       0.224   8.988  34.867  1.00  0.00    -0.009 C 
HETATM    2  C   UNL     1       3.845   7.999  34.354  1.00  0.00     0.257 C 
HETATM    3  C   UNL     1       5.137   8.425  32.276  1.00  0.00     0.038 C 
HETATM    4  C   UNL     1       4.119   9.050  33.253  1.00  0.00     0.256 C 
HETATM    5  C   UNL     1      -0.252  10.253  34.175  1.00  0.00     0.041 C 
HETATM    6  N   UNL     1       2.881   9.247  32.438  1.00  0.00     0.102 N 
HETATM    7  C   UNL     1       5.522   9.457  31.218  1.00  0.00     0.004 C 
HETATM    8  C   UNL     1       3.544   6.954  37.048  1.00  0.00     0.030 C 
HETATM    9  C   UNL     1       1.497   8.460  34.251  1.00  0.00     0.288 C 
HETATM   10  C   UNL     1       5.052   8.167  35.290  1.00  0.00     0.038 C 
HETATM   11  C   UNL     1       0.467  10.077  32.830  1.00  0.00     0.043 C 
HETATM   12  N   UNL     1       2.651   8.313  35.190  1.00  0.00     0.106 N 
HETATM   13  C   UNL     1       1.844   9.702  33.400  1.00  0.00     0.261 C 
HETATM   14  C   UNL     1       4.882   7.493  36.641  1.00  0.00     0.004 C 
HETATM   15  C   UNL     1       2.435   7.079  36.007  1.00  0.00     0.274 C 
HETATM   16  C   UNL     1       3.161  10.493  31.633  1.00  0.00     0.273 C 
HETATM   17  C   UNL     1       4.365  10.306  30.718  1.00  0.00     0.030 C 
ENDROOT
BRANCH   1  18
HETATM   18  C   UNL     1      -0.364   8.559  36.137  1.00  0.00     0.096 C 
HETATM   19  C   UNL     1      -0.032   9.158  37.354  1.00  0.00     0.126 C 
HETATM   20  N   UNL     1      -0.741   8.868  38.474  1.00  0.00    -0.361 N 
HETATM   21  C   UNL     1      -1.868   8.101  38.352  1.00  0.00     0.066 C 
ATOM     22  HN  UNL     1      -0.442   9.213  39.386  1.00  0.00     0.165 HD
HETATM   23  C   UNL     1      -2.190   7.499  37.127  1.00  0.00     0.102 C 
HETATM   24  C   UNL     1      -2.643   7.793  39.480  1.00  0.00     0.032 C 
HETATM   25  C   UNL     1      -3.369   6.775  36.995  1.00  0.00     0.039 C 
HETATM   26  O   UNL     1      -1.295   7.559  36.089  1.00  0.00    -0.307 OA
HETATM   27  C   UNL     1      -4.125   6.467  38.122  1.00  0.00     0.003 C 
HETATM   28  C   UNL     1      -3.696   6.889  39.371  1.00  0.00     0.002 C 
ENDBRANCH   1  18
TORSDOF 1
ENDMDL
MODEL 4
REMARK VINA RESULT:      -8.6      2.938      6.674
REMARK  1 active torsions:
REMARK  status: ('A' for Active; 'I' for Inactive)
REMARK    1  A    between atoms: C_2  and  C_4 
ROOT
HETATM    1  C   UNL     1       0.960  10.164  32.092  1.00  0.00    -0.009 C 
HETATM    2  C   UNL     1       4.277   8.916  33.431  1.00  0.00     0.257 C 
HETATM    3  C   UNL     1       4.599   7.920  35.682  1.00  0.00     0.038 C 
HETATM    4  C   UNL     1       3.653   7.949  34.463  1.00  0.00     0.256 C 
HETATM    5  C   UNL     1      -0.289   9.434  32.552  1.00  0.00     0.041 C 
HETATM    6  N   UNL     1       2.380   8.537  34.983  1.00  0.00     0.102 N 
HETATM    7  C   UNL     1       4.083   6.903  36.699  1.00  0.00     0.004 C 
HETATM    8  C   UNL     1       5.230   9.822  30.840  1.00  0.00     0.030 C 
HETATM    9  C   UNL     1       2.132   9.892  33.004  1.00  0.00     0.288 C 
HETATM   10  C   UNL     1       5.346   8.044  32.752  1.00  0.00     0.038 C 
HETATM   11  C   UNL     1       0.083   9.225  34.027  1.00  0.00     0.043 C 
HETATM   12  N   UNL     1       3.339   9.307  32.340  1.00  0.00     0.106 N 
HETATM   13  C   UNL     1       1.512   8.716  33.791  1.00  0.00     0.261 C 
HETATM   14  C   UNL     1       5.893   8.631  31.464  1.00  0.00     0.004 C 
HETATM   15  C   UNL     1       4.050  10.403  31.613  1.00  0.00     0.274 C 
HETATM   16  C   UNL     1       1.715   7.394  35.712  1.00  0.00     0.273 C 
HETATM   17  C   UNL     1       2.573   6.895  36.869  1.00  0.00     0.030 C 
ENDROOT
BRANCH   1  18
HETATM   18  C   UNL     1       1.019  10.794  30.773  1.00  0.00     0.096 C 
HETATM   19  C   UNL     1       2.082  10.585  29.892  1.00  0.00     0.126 C 
HETATM   20  N   UNL     1       2.004  11.026  28.610  1.00  0.00    -0.361 N 
HETATM   21  C   UNL     1       0.815  11.539  28.168  1.00  0.00     0.066 C 
ATOM     22  HN  UNL     1       2.812  10.977  27.991  1.00  0.00     0.165 HD
HETATM   23  C   UNL     1      -0.245  11.751  29.062  1.00  0.00     0.102 C 
HETATM   24  C   UNL     1       0.682  11.987  26.846  1.00  0.00     0.032 C 
HETATM   25  C   UNL     1      -1.470  12.211  28.594  1.00  0.00     0.039 C 
HETATM   26  O   UNL     1      -0.038  11.581  30.408  1.00  0.00    -0.307 OA
HETATM   27  C   UNL     1      -1.587  12.663  27.283  1.00  0.00     0.003 C 
HETATM   28  C   UNL     1      -0.479  12.647  26.451  1.00  0.00     0.002 C 
ENDBRANCH   1  18
TORSDOF 1
ENDMDL
MODEL 5
REMARK VINA RESULT:      -8.5      5.013      7.627
REMARK  1 active torsions:
REMARK  status: ('A' for Active; 'I' for Inactive)
REMARK    1  A    between atoms: C_2  and  C_4 
ROOT
HETATM    1  C   UNL     1      -2.581  10.290  31.692  1.00  0.00    -0.009 C 
HETATM    2  C   UNL     1       0.917  11.178  30.539  1.00  0.00     0.257 C 
HETATM    3  C   UNL     1       2.979  10.758  31.856  1.00  0.00     0.038 C 
HETATM    4  C   UNL     1       1.626  10.143  31.444  1.00  0.00     0.256 C 
HETATM    5  C   UNL     1      -2.729   9.056  32.564  1.00  0.00     0.041 C 
HETATM    6  N   UNL     1       0.865  10.003  32.723  1.00  0.00     0.102 N 
HETATM    7  C   UNL     1       3.770   9.738  32.674  1.00  0.00     0.004 C 
HETATM    8  C   UNL     1      -0.514  12.173  28.215  1.00  0.00     0.030 C 
HETATM    9  C   UNL     1      -1.157  10.791  31.673  1.00  0.00     0.288 C 
HETATM   10  C   UNL     1       1.589  10.953  29.176  1.00  0.00     0.038 C 
HETATM   11  C   UNL     1      -1.490   9.238  33.453  1.00  0.00     0.043 C 
HETATM   12  N   UNL     1      -0.528  10.883  30.319  1.00  0.00     0.106 N 
HETATM   13  C   UNL     1      -0.496   9.558  32.327  1.00  0.00     0.261 C 
HETATM   14  C   UNL     1       0.858  11.602  28.014  1.00  0.00     0.004 C 
HETATM   15  C   UNL     1      -1.057  12.105  29.639  1.00  0.00     0.274 C 
HETATM   16  C   UNL     1       1.447   8.767  33.366  1.00  0.00     0.273 C 
HETATM   17  C   UNL     1       2.934   8.935  33.656  1.00  0.00     0.030 C 
ENDROOT
BRANCH   1  18
HETATM   18  C   UNL     1      -3.658  10.709  30.793  1.00  0.00     0.096 C 
HETATM   19  C   UNL     1      -4.510  11.772  31.094  1.00  0.00     0.126 C 
HETATM   20  N   UNL     1      -5.362  12.252  30.152  1.00  0.00    -0.361 N 
HETATM   21  C   UNL     1      -5.258  11.774  28.875  1.00  0.00     0.066 C 
ATOM     22  HN  UNL     1      -6.063  12.953  30.391  1.00  0.00     0.165 HD
HETATM   23  C   UNL     1      -4.403  10.701  28.584  1.00  0.00     0.102 C 
HETATM   24  C   UNL     1      -6.103  12.256  27.864  1.00  0.00     0.032 C 
HETATM   25  C   UNL     1      -4.255  10.263  27.273  1.00  0.00     0.039 C 
HETATM   26  O   UNL     1      -3.781  10.036  29.610  1.00  0.00    -0.307 OA
HETATM   27  C   UNL     1      -5.106  10.741  26.281  1.00  0.00     0.003 C 
HETATM   28  C   UNL     1      -6.095  11.655  26.609  1.00  0.00     0.002 C 
ENDBRANCH   1  18
TORSDOF 1
ENDMDL
MODEL 6
REMARK VINA RESULT:      -8.5      1.170      3.200
REMARK  1 active torsions:
REMARK  status: ('A' for Active; 'I' for Inactive)
REMARK    1  A    between atoms: C_2  and  C_4 
ROOT
HETATM    1  C   UNL     1       1.931   7.834  35.961  1.00  0.00    -0.009 C 
HETATM    2  C   UNL     1       2.753   9.796  32.826  1.00  0.00     0.257 C 
HETATM    3  C   UNL     1       5.052  10.169  31.965  1.00  0.00     0.038 C 
HETATM    4  C   UNL     1       4.119   9.111  32.591  1.00  0.00     0.256 C 
HETATM    5  C   UNL     1       2.841   6.669  36.306  1.00  0.00     0.041 C 
HETATM    6  N   UNL     1       4.743   8.787  33.911  1.00  0.00     0.102 N 
HETATM    7  C   UNL     1       6.392   9.521  31.619  1.00  0.00     0.004 C 
HETATM    8  C   UNL     1      -0.132  10.126  32.734  1.00  0.00     0.030 C 
HETATM    9  C   UNL     1       2.588   8.787  34.992  1.00  0.00     0.288 C 
HETATM   10  C   UNL     1       2.104   9.742  31.434  1.00  0.00     0.038 C 
HETATM   11  C   UNL     1       4.193   7.307  35.953  1.00  0.00     0.043 C 
HETATM   12  N   UNL     1       1.844   9.017  33.714  1.00  0.00     0.106 N 
HETATM   13  C   UNL     1       3.778   7.887  34.593  1.00  0.00     0.261 C 
HETATM   14  C   UNL     1       0.615  10.044  31.437  1.00  0.00     0.004 C 
HETATM   15  C   UNL     1       0.710   9.950  33.995  1.00  0.00     0.274 C 
HETATM   16  C   UNL     1       5.881   7.856  33.564  1.00  0.00     0.273 C 
HETATM   17  C   UNL     1       6.899   8.534  32.656  1.00  0.00     0.030 C 
ENDROOT
BRANCH   1  18
HETATM   18  C   UNL     1       0.514   7.816  36.330  1.00  0.00     0.096 C 
HETATM   19  C   UNL     1      -0.475   7.331  35.471  1.00  0.00     0.126 C 
HETATM   20  N   UNL     1      -1.742   7.148  35.924  1.00  0.00    -0.361 N 
HETATM   21  C   UNL     1      -1.986   7.306  37.261  1.00  0.00     0.066 C 
ATOM     22  HN  UNL     1      -2.494   6.900  35.282  1.00  0.00     0.165 HD
HETATM   23  C   UNL     1      -0.988   7.799  38.113  1.00  0.00     0.102 C 
HETATM   24  C   UNL     1      -3.275   7.107  37.776  1.00  0.00     0.032 C 
HETATM   25  C   UNL     1      -1.224   7.895  39.480  1.00  0.00     0.039 C 
HETATM   26  O   UNL     1       0.188   8.263  37.579  1.00  0.00    -0.307 OA
HETATM   27  C   UNL     1      -2.509   7.706  39.978  1.00  0.00     0.003 C 
HETATM   28  C   UNL     1      -3.547   7.419  39.105  1.00  0.00     0.002 C 
ENDBRANCH   1  18
TORSDOF 1
ENDMDL
MODEL 7
REMARK VINA RESULT:      -8.4      3.387      5.751
REMARK  1 active torsions:
REMARK  status: ('A' for Active; 'I' for Inactive)
REMARK    1  A    between atoms: C_2  and  C_4 
ROOT
HETATM    1  C   UNL     1      -0.414   9.757  32.712  1.00  0.00    -0.009 C 
HETATM    2  C   UNL     1       3.169  10.115  31.535  1.00  0.00     0.257 C 
HETATM    3  C   UNL     1       5.163   9.608  32.926  1.00  0.00     0.038 C 
HETATM    4  C   UNL     1       3.750   9.110  32.556  1.00  0.00     0.256 C 
HETATM    5  C   UNL     1      -0.707   8.649  33.707  1.00  0.00     0.041 C 
HETATM    6  N   UNL     1       2.971   9.195  33.830  1.00  0.00     0.102 N 
HETATM    7  C   UNL     1       5.826   8.599  33.862  1.00  0.00     0.004 C 
HETATM    8  C   UNL     1       1.876  11.009  29.091  1.00  0.00     0.030 C 
HETATM    9  C   UNL     1       1.058  10.089  32.665  1.00  0.00     0.288 C 
HETATM   10  C   UNL     1       3.819   9.670  30.215  1.00  0.00     0.038 C 
HETATM   11  C   UNL     1       0.539   8.785  34.594  1.00  0.00     0.043 C 
HETATM   12  N   UNL     1       1.702   9.963  31.321  1.00  0.00     0.106 N 
HETATM   13  C   UNL     1       1.570   8.867  33.459  1.00  0.00     0.261 C 
HETATM   14  C   UNL     1       3.174  10.268  28.977  1.00  0.00     0.004 C 
HETATM   15  C   UNL     1       1.320  11.157  30.505  1.00  0.00     0.274 C 
HETATM   16  C   UNL     1       3.403   7.977  34.611  1.00  0.00     0.273 C 
HETATM   17  C   UNL     1       4.898   8.007  34.908  1.00  0.00     0.030 C 
ENDROOT
BRANCH   1  18
HETATM   18  C   UNL     1      -1.430  10.196  31.754  1.00  0.00     0.096 C 
HETATM   19  C   UNL     1      -2.254   9.296  31.075  1.00  0.00     0.126 C 
HETATM   20  N   UNL     1      -3.309   9.749  30.351  1.00  0.00    -0.361 N 
HETATM   21  C   UNL     1      -3.629  11.077  30.425  1.00  0.00     0.066 C 
ATOM     22  HN  UNL     1      -3.851   9.114  29.765  1.00  0.00     0.165 HD
HETATM   23  C   UNL     1      -2.791  11.974  31.104  1.00  0.00     0.102 C 
HETATM   24  C   UNL     1      -4.723  11.586  29.710  1.00  0.00     0.032 C 
HETATM   25  C   UNL     1      -3.156  13.309  31.229  1.00  0.00     0.039 C 
HETATM   26  O   UNL     1      -1.574  11.542  31.568  1.00  0.00    -0.307 OA
HETATM   27  C   UNL     1      -4.238  13.805  30.508  1.00  0.00     0.003 C 
HETATM   28  C   UNL     1      -4.947  12.959  29.669  1.00  0.00     0.002 C 
ENDBRANCH   1  18
TORSDOF 1
ENDMDL
MODEL 8
REMARK VINA RESULT:      -8.4      3.768      6.231
REMARK  1 active torsions:
REMARK  status: ('A' for Active; 'I' for Inactive)
REMARK    1  A    between atoms: C_2  and  C_4 
ROOT
HETATM    1  C   UNL     1       1.911  11.084  29.115  1.00  0.00    -0.009 C 
HETATM    2  C   UNL     1       2.045   9.377  32.494  1.00  0.00     0.257 C 
HETATM    3  C   UNL     1       4.089   8.367  33.479  1.00  0.00     0.038 C 
HETATM    4  C   UNL     1       3.564   9.588  32.694  1.00  0.00     0.256 C 
HETATM    5  C   UNL     1       3.159  11.822  28.663  1.00  0.00     0.041 C 
HETATM    6  N   UNL     1       4.251   9.513  31.368  1.00  0.00     0.102 N 
HETATM    7  C   UNL     1       5.571   8.567  33.792  1.00  0.00     0.004 C 
HETATM    8  C   UNL     1      -0.781  10.049  32.520  1.00  0.00     0.030 C 
HETATM    9  C   UNL     1       2.215  10.098  30.217  1.00  0.00     0.288 C 
HETATM   10  C   UNL     1       1.461   9.822  33.844  1.00  0.00     0.038 C 
HETATM   11  C   UNL     1       4.219  10.818  29.141  1.00  0.00     0.043 C 
HETATM   12  N   UNL     1       1.446  10.296  31.485  1.00  0.00     0.106 N 
HETATM   13  C   UNL     1       3.642  10.589  30.546  1.00  0.00     0.261 C 
HETATM   14  C   UNL     1      -0.042  10.040  33.824  1.00  0.00     0.004 C 
HETATM   15  C   UNL     1       0.061   9.770  31.279  1.00  0.00     0.274 C 
HETATM   16  C   UNL     1       5.638  10.044  31.640  1.00  0.00     0.273 C 
HETATM   17  C   UNL     1       6.375   9.185  32.661  1.00  0.00     0.030 C 
ENDROOT
BRANCH   1  18
HETATM   18  C   UNL     1       0.582  11.530  28.695  1.00  0.00     0.096 C 
HETATM   19  C   UNL     1       0.028  11.169  27.465  1.00  0.00     0.126 C 
HETATM   20  N   UNL     1      -1.277  11.437  27.200  1.00  0.00    -0.361 N 
HETATM   21  C   UNL     1      -2.061  11.924  28.209  1.00  0.00     0.066 C 
ATOM     22  HN  UNL     1      -1.663  11.278  26.269  1.00  0.00     0.165 HD
HETATM   23  C   UNL     1      -1.494  12.288  29.438  1.00  0.00     0.102 C 
HETATM   24  C   UNL     1      -3.419  12.195  27.986  1.00  0.00     0.032 C 
HETATM   25  C   UNL     1      -2.307  12.722  30.480  1.00  0.00     0.039 C 
HETATM   26  O   UNL     1      -0.129  12.294  29.577  1.00  0.00    -0.307 OA
HETATM   27  C   UNL     1      -3.650  12.997  30.244  1.00  0.00     0.003 C 
HETATM   28  C   UNL     1      -4.170  12.833  28.969  1.00  0.00     0.002 C 
ENDBRANCH   1  18
TORSDOF 1
ENDMDL
MODEL 9
REMARK VINA RESULT:      -8.2      3.102      7.231
REMARK  1 active torsions:
REMARK  status: ('A' for Active; 'I' for Inactive)
REMARK    1  A    between atoms: C_2  and  C_4 
ROOT
HETATM    1  C   UNL     1       2.772  10.712  30.004  1.00  0.00    -0.009 C 
HETATM    2  C   UNL     1      -0.280  10.373  32.224  1.00  0.00     0.257 C 
HETATM    3  C   UNL     1      -2.503  11.357  31.716  1.00  0.00     0.038 C 
HETATM    4  C   UNL     1      -1.302  10.618  31.089  1.00  0.00     0.256 C 
HETATM    5  C   UNL     1       2.533  10.782  28.507  1.00  0.00     0.041 C 
HETATM    6  N   UNL     1      -0.727  11.588  30.108  1.00  0.00     0.102 N 
HETATM    7  C   UNL     1      -3.591  11.540  30.660  1.00  0.00     0.004 C 
HETATM    8  C   UNL     1       1.569   8.875  33.890  1.00  0.00     0.030 C 
HETATM    9  C   UNL     1       1.519  11.028  30.785  1.00  0.00     0.288 C 
HETATM   10  C   UNL     1      -0.849   9.133  32.931  1.00  0.00     0.038 C 
HETATM   11  C   UNL     1       1.293  11.688  28.503  1.00  0.00     0.043 C 
HETATM   12  N   UNL     1       1.066   9.963  31.732  1.00  0.00     0.106 N 
HETATM   13  C   UNL     1       0.520  10.954  29.609  1.00  0.00     0.261 C 
HETATM   14  C   UNL     1       0.128   8.464  33.882  1.00  0.00     0.004 C 
HETATM   15  C   UNL     1       1.938  10.016  32.946  1.00  0.00     0.274 C 
HETATM   16  C   UNL     1      -1.649  11.499  28.915  1.00  0.00     0.273 C 
HETATM   17  C   UNL     1      -3.073  11.902  29.278  1.00  0.00     0.030 C 
ENDROOT
BRANCH   1  18
HETATM   18  C   UNL     1       4.000  10.126  30.542  1.00  0.00     0.096 C 
HETATM   19  C   UNL     1       5.240  10.759  30.433  1.00  0.00     0.126 C 
HETATM   20  N   UNL     1       6.313  10.282  31.114  1.00  0.00    -0.361 N 
HETATM   21  C   UNL     1       6.117   9.271  32.014  1.00  0.00     0.066 C 
ATOM     22  HN  UNL     1       7.244  10.668  30.958  1.00  0.00     0.165 HD
HETATM   23  C   UNL     1       4.870   8.637  32.112  1.00  0.00     0.102 C 
HETATM   24  C   UNL     1       7.193   8.760  32.755  1.00  0.00     0.032 C 
HETATM   25  C   UNL     1       4.661   7.654  33.073  1.00  0.00     0.039 C 
HETATM   26  O   UNL     1       3.888   8.933  31.201  1.00  0.00    -0.307 OA
HETATM   27  C   UNL     1       5.738   7.149  33.795  1.00  0.00     0.003 C 
HETATM   28  C   UNL     1       7.014   7.632  33.551  1.00  0.00     0.002 C 
ENDBRANCH   1  18
TORSDOF 1
ENDMDL
