REMARK  4 active torsions:
REMARK  status: ('A' for Active; 'I' for Inactive)
REMARK    1  A    between atoms: O_1  and  C_11 
REMARK    2  A    between atoms: N_10  and  C_22 
REMARK    3  A    between atoms: C_16  and  O_20 
REMARK    4  A    between atoms: C_25  and  C_28 
ROOT
HETATM    1  C   UNL     1      35.317  90.851  41.644  1.00  0.00     0.030 C 
HETATM    2  C   UNL     1      32.733  91.070  40.969  1.00  0.00     0.255 C 
HETATM    3  C   UNL     1      35.321  93.308  41.151  1.00  0.00     0.033 C 
HETATM    4  N   UNL     1      33.583  91.798  40.162  1.00  0.00    -0.307 N 
HETATM    5  O   UNL     1      31.904  90.272  40.547  1.00  0.00    -0.267 OA
HETATM    6  C   UNL     1      34.326  90.717  42.793  1.00  0.00     0.047 C 
HETATM    7  C   UNL     1      33.006  91.277  42.357  1.00  0.00     0.021 C 
HETATM    8  C   UNL     1      34.985  91.919  40.613  1.00  0.00     0.089 C 
ENDROOT
BRANCH   4   9
HETATM    9  C   UNL     1      33.169  92.572  39.060  1.00  0.00     0.071 C 
HETATM   10  C   UNL     1      33.577  93.909  38.985  1.00  0.00     0.035 C 
HETATM   11  C   UNL     1      33.622  94.574  37.763  1.00  0.00     0.040 C 
HETATM   12  C   UNL     1      33.054  93.973  36.649  1.00  0.00     0.091 C 
HETATM   13  C   UNL     1      32.363  92.780  36.792  1.00  0.00     0.049 C 
HETATM   14  O   UNL     1      32.413  94.730  35.654  1.00  0.00    -0.276 OA
HETATM   15  C   UNL     1      31.834  92.408  35.446  1.00  0.00     0.256 C 
HETATM   16  C   UNL     1      32.404  92.081  37.991  1.00  0.00     0.104 C 
HETATM   17  C   UNL     1      31.804  93.780  34.823  1.00  0.00     0.297 C 
HETATM   18  O   UNL     1      31.535  93.954  33.618  1.00  0.00    -0.262 OA
BRANCH  15  19
HETATM   19  O   UNL     1      30.497  91.931  35.473  1.00  0.00    -0.381 OA
ATOM     20  HO  UNL     1      30.160  91.694  34.617  1.00  0.00     0.211 HD
ENDBRANCH  15  19
BRANCH  16  21
HETATM   21  O   UNL     1      31.721  90.900  38.090  1.00  0.00    -0.358 OA
ATOM     22  HO  UNL     1      31.749  90.422  38.910  1.00  0.00     0.217 HD
ENDBRANCH  16  21
ENDBRANCH   4   9
BRANCH   7  23
HETATM   23  C   UNL     1      32.231  92.197  43.083  1.00  0.00    -0.018 C 
HETATM   24  C   UNL     1      32.266  92.309  44.487  1.00  0.00     0.086 C 
HETATM   25  C   UNL     1      31.933  93.575  45.055  1.00  0.00     0.245 C 
HETATM   26  N   UNL     1      31.888  94.641  44.174  1.00  0.00    -0.334 N 
HETATM   27  O   UNL     1      31.624  93.817  46.220  1.00  0.00    -0.268 OA
HETATM   28  C   UNL     1      31.397  94.447  42.891  1.00  0.00     0.092 C 
ATOM     29  HN  UNL     1      32.213  95.563  44.466  1.00  0.00     0.168 HD
HETATM   30  C   UNL     1      31.460  93.149  42.381  1.00  0.00     0.029 C 
ENDBRANCH   7  23
TORSDOF 4
