REMARK  7 active torsions:
REMARK  status: ('A' for Active; 'I' for Inactive)
REMARK    1  A    between atoms: C_1  and  O_29 
REMARK    2  A    between atoms: C_2  and  C_9 
REMARK    3  A    between atoms: O_5  and  C_20 
REMARK    4  A    between atoms: C_8  and  O_22 
REMARK    5  A    between atoms: C_12  and  C_25 
REMARK    6  A    between atoms: C_15  and  O_27 
REMARK    7  A    between atoms: S_18  and  O_22 
ROOT
HETATM    1  C   UNL     1      30.672  92.092  44.446  1.00  0.00     0.039 C 
HETATM    2  C   UNL     1      33.119  91.839  43.135  1.00  0.00     0.013 C 
HETATM    3  C   UNL     1      31.922  91.491  42.482  1.00  0.00    -0.022 C 
HETATM    4  C   UNL     1      31.833  92.543  45.061  1.00  0.00     0.093 C 
HETATM    5  C   UNL     1      32.966  91.821  40.330  1.00  0.00     0.014 C 
HETATM    6  C   UNL     1      34.286  91.928  42.371  1.00  0.00     0.111 C 
HETATM    7  C   UNL     1      30.734  91.461  43.214  1.00  0.00     0.015 C 
HETATM    8  C   UNL     1      34.204  92.040  40.980  1.00  0.00     0.111 C 
HETATM    9  C   UNL     1      33.068  92.308  44.455  1.00  0.00     0.053 C 
HETATM   10  C   UNL     1      31.930  91.280  41.101  1.00  0.00     0.027 C 
ENDROOT
BRANCH   5  11
HETATM   11  C   UNL     1      32.736  91.957  38.903  1.00  0.00     0.011 C 
HETATM   12  C   UNL     1      32.339  90.740  38.307  1.00  0.00     0.076 C 
HETATM   13  C   UNL     1      31.297  90.742  37.384  1.00  0.00     0.038 C 
HETATM   14  C   UNL     1      31.032  91.930  36.707  1.00  0.00     0.021 C 
HETATM   15  C   UNL     1      31.909  93.008  36.900  1.00  0.00     0.041 C 
HETATM   16  C   UNL     1      32.603  93.129  38.124  1.00  0.00     0.033 C 
BRANCH  12  17
HETATM   17  O   UNL     1      32.975  89.590  38.642  1.00  0.00    -0.360 OA
ATOM     18  HO  UNL     1      32.708  88.771  38.241  1.00  0.00     0.217 HD
ENDBRANCH  12  17
BRANCH  15  19
HETATM   19  C   UNL     1      31.923  94.030  35.802  1.00  0.00     0.209 C 
HETATM   20  O   UNL     1      32.951  94.161  35.096  1.00  0.00    -0.644 OA
HETATM   21  O   UNL     1      30.872  94.685  35.631  1.00  0.00    -0.644 OA
ENDBRANCH  15  19
ENDBRANCH   5  11
BRANCH   8  22
HETATM   22  O   UNL     1      35.341  92.333  40.291  1.00  0.00    -0.357 OA
ATOM     23  HO  UNL     1      36.172  92.480  40.727  1.00  0.00     0.217 HD
ENDBRANCH   8  22
BRANCH   6  24
HETATM   24  O   UNL     1      35.485  91.981  42.986  1.00  0.00    -0.357 OA
ATOM     25  HO  UNL     1      36.278  92.041  42.467  1.00  0.00     0.217 HD
ENDBRANCH   6  24
BRANCH   4  26
HETATM   26  O   UNL     1      31.710  93.190  46.248  1.00  0.00    -0.214 OA
BRANCH  26  27
HETATM   27  S   UNL     1      31.652  94.698  46.577  1.00  0.00     0.257 S 
HETATM   28  O   UNL     1      30.239  95.123  46.565  1.00  0.00    -0.572 OA
HETATM   29  O   UNL     1      32.228  94.829  47.908  1.00  0.00    -0.572 OA
HETATM   30  O   UNL     1      32.376  95.432  45.540  1.00  0.00    -0.572 OA
ENDBRANCH  26  27
ENDBRANCH   4  26
TORSDOF 7
