MODEL 1
REMARK VINA RESULT:      -9.0      0.000      0.000
REMARK  11 active torsions:
REMARK  status: ('A' for Active; 'I' for Inactive)
REMARK    1  A    between atoms: O_1  and  C_24 
REMARK    2  A    between atoms: O_4  and  C_24 
REMARK    3  A    between atoms: C_8  and  C_30 
REMARK    4  A    between atoms: C_8  and  C_38 
REMARK    5  A    between atoms: C_12  and  C_37 
REMARK    6  A    between atoms: C_16  and  C_30 
REMARK    7  A    between atoms: C_16  and  C_35 
REMARK    8  A    between atoms: C_22  and  P_33 
REMARK    9  A    between atoms: C_22  and  C_35 
REMARK   10  A    between atoms: C_22  and  C_36 
REMARK   11  A    between atoms: C_42  and  C_43 
ROOT
HETATM    1  C   UNL     1       4.354  23.733  21.328  1.00  0.00     0.040 C 
HETATM    2  C   UNL     1       5.022  25.789  23.416  1.00  0.00     0.074 C 
HETATM    3  C   UNL     1       3.277  24.287  22.239  1.00  0.00     0.039 C 
HETATM    4  C   UNL     1       3.960  24.708  23.521  1.00  0.00    -0.068 C 
HETATM    5  C   UNL     1       5.907  25.313  22.317  1.00  0.00    -0.040 C 
HETATM    6  C   UNL     1       3.810  23.927  24.694  1.00  0.00     0.062 C 
HETATM    7  C   UNL     1       5.693  23.999  21.922  1.00  0.00    -0.059 C 
ENDROOT
BRANCH   6   8
HETATM    8  C   UNL     1       3.014  22.922  24.953  1.00  0.00    -0.078 C 
BRANCH   8   9
HETATM    9  C   UNL     1       2.537  21.615  25.315  1.00  0.00     0.201 C 
HETATM   10  O   UNL     1       1.312  21.354  25.381  1.00  0.00    -0.283 OA
BRANCH   9  11
HETATM   11  C   UNL     1       3.570  20.541  25.597  1.00  0.00     0.176 C 
BRANCH  11  12
HETATM   12  C   UNL     1       4.060  20.387  27.033  1.00  0.00     0.180 C 
HETATM   13  O   UNL     1       3.455  20.906  27.999  1.00  0.00    -0.291 OA
BRANCH  12  14
HETATM   14  C   UNL     1       5.072  19.361  27.307  1.00  0.00     0.151 C 
BRANCH  14  15
HETATM   15  P   UNL     1       4.532  17.731  27.449  1.00  0.00     0.302 P 
HETATM   16  O   UNL     1       4.663  17.442  28.924  1.00  0.00    -0.636 OA
HETATM   17  O   UNL     1       3.084  17.632  27.074  1.00  0.00    -0.636 OA
HETATM   18  O   UNL     1       5.379  16.829  26.633  1.00  0.00    -0.636 OA
ENDBRANCH  14  15
BRANCH  14  19
HETATM   19  C   UNL     1       6.468  19.649  27.315  1.00  0.00     0.283 C 
HETATM   20  O   UNL     1       7.014  20.512  28.064  1.00  0.00    -0.301 OA
ENDBRANCH  14  19
ENDBRANCH  12  14
ENDBRANCH  11  12
ENDBRANCH   9  11
ENDBRANCH   8   9
ENDBRANCH   6   8
BRANCH   5  21
HETATM   21  C   UNL     1       6.804  25.960  21.448  1.00  0.00    -0.019 C 
HETATM   22  C   UNL     1       6.493  26.720  20.326  1.00  0.00     0.014 C 
HETATM   23  C   UNL     1       7.387  26.812  19.266  1.00  0.00     0.046 C 
HETATM   24  C   UNL     1       8.637  26.019  19.256  1.00  0.00     0.200 C 
HETATM   25  C   UNL     1       9.011  25.468  20.588  1.00  0.00     0.057 C 
HETATM   26  C   UNL     1       8.164  25.669  21.672  1.00  0.00    -0.020 C 
HETATM   27  C   UNL     1       8.513  25.407  23.019  1.00  0.00    -0.052 C 
HETATM   28  C   UNL     1       9.343  26.259  23.889  1.00  0.00     0.075 C 
HETATM   29  C   UNL     1       7.654  24.470  23.824  1.00  0.00     0.079 C 
HETATM   30  C   UNL     1       8.746  25.996  25.232  1.00  0.00    -0.046 C 
HETATM   31  C   UNL     1       7.801  24.957  25.239  1.00  0.00    -0.038 C 
HETATM   32  C   UNL     1       8.962  26.781  26.354  1.00  0.00     0.017 C 
HETATM   33  C   UNL     1       7.174  24.604  26.432  1.00  0.00     0.026 C 
HETATM   34  C   UNL     1       7.564  25.265  27.598  1.00  0.00     0.040 C 
HETATM   35  C   UNL     1       8.406  26.385  27.554  1.00  0.00    -0.024 C 
HETATM   36  C   UNL     1       7.265  24.999  29.009  1.00  0.00     0.252 C 
HETATM   37  C   UNL     1       8.497  26.993  28.920  1.00  0.00     0.162 C 
HETATM   38  N   UNL     1       7.667  26.097  29.740  1.00  0.00    -0.353 N 
ATOM     39  HN  UNL     1       7.421  26.266  30.716  1.00  0.00     0.163 HD
HETATM   40  O   UNL     1       6.866  23.942  29.471  1.00  0.00    -0.268 OA
BRANCH  24  41
HETATM   41  O   UNL     1       8.605  25.007  18.293  1.00  0.00    -0.359 OA
ATOM     42  HO  UNL     1       9.256  24.399  18.623  1.00  0.00     0.213 HD
ENDBRANCH  24  41
BRANCH  24  43
HETATM   43  O   UNL     1       9.695  26.840  18.790  1.00  0.00    -0.359 OA
ATOM     44  HO  UNL     1       9.339  27.712  18.912  1.00  0.00     0.213 HD
ENDBRANCH  24  43
ENDBRANCH   5  21
TORSDOF 11
ENDMDL
MODEL 2
REMARK VINA RESULT:      -8.9      1.507      1.769
REMARK  11 active torsions:
REMARK  status: ('A' for Active; 'I' for Inactive)
REMARK    1  A    between atoms: O_1  and  C_24 
REMARK    2  A    between atoms: O_4  and  C_24 
REMARK    3  A    between atoms: C_8  and  C_30 
REMARK    4  A    between atoms: C_8  and  C_38 
REMARK    5  A    between atoms: C_12  and  C_37 
REMARK    6  A    between atoms: C_16  and  C_30 
REMARK    7  A    between atoms: C_16  and  C_35 
REMARK    8  A    between atoms: C_22  and  P_33 
REMARK    9  A    between atoms: C_22  and  C_35 
REMARK   10  A    between atoms: C_22  and  C_36 
REMARK   11  A    between atoms: C_42  and  C_43 
ROOT
HETATM    1  C   UNL     1       5.145  24.630  22.076  1.00  0.00     0.040 C 
HETATM    2  C   UNL     1       5.980  25.748  24.738  1.00  0.00     0.074 C 
HETATM    3  C   UNL     1       4.131  24.823  23.185  1.00  0.00     0.039 C 
HETATM    4  C   UNL     1       4.885  24.724  24.492  1.00  0.00    -0.068 C 
HETATM    5  C   UNL     1       6.798  25.699  23.494  1.00  0.00    -0.040 C 
HETATM    6  C   UNL     1       4.759  23.565  25.298  1.00  0.00     0.062 C 
HETATM    7  C   UNL     1       6.518  24.632  22.651  1.00  0.00    -0.059 C 
ENDROOT
BRANCH   6   8
HETATM    8  C   UNL     1       3.938  22.550  25.208  1.00  0.00    -0.078 C 
BRANCH   8   9
HETATM    9  C   UNL     1       3.292  21.352  24.744  1.00  0.00     0.201 C 
HETATM   10  O   UNL     1       2.955  21.207  23.545  1.00  0.00    -0.283 OA
BRANCH   9  11
HETATM   11  C   UNL     1       3.047  20.247  25.753  1.00  0.00     0.176 C 
BRANCH  11  12
HETATM   12  C   UNL     1       3.895  20.243  27.020  1.00  0.00     0.180 C 
HETATM   13  O   UNL     1       3.587  20.921  28.027  1.00  0.00    -0.291 OA
BRANCH  12  14
HETATM   14  C   UNL     1       4.908  19.192  27.165  1.00  0.00     0.151 C 
BRANCH  14  15
HETATM   15  P   UNL     1       4.359  17.613  27.585  1.00  0.00     0.302 P 
HETATM   16  O   UNL     1       5.265  16.702  26.793  1.00  0.00    -0.636 OA
HETATM   17  O   UNL     1       4.588  17.357  29.044  1.00  0.00    -0.636 OA
HETATM   18  O   UNL     1       2.936  17.439  27.207  1.00  0.00    -0.636 OA
ENDBRANCH  14  15
BRANCH  14  19
HETATM   19  C   UNL     1       6.279  19.402  26.835  1.00  0.00     0.283 C 
HETATM   20  O   UNL     1       6.837  20.538  26.798  1.00  0.00    -0.301 OA
ENDBRANCH  14  19
ENDBRANCH  12  14
ENDBRANCH  11  12
ENDBRANCH   9  11
ENDBRANCH   8   9
ENDBRANCH   6   8
BRANCH   5  21
HETATM   21  C   UNL     1       7.679  26.607  22.879  1.00  0.00    -0.019 C 
HETATM   22  C   UNL     1       7.347  27.705  22.092  1.00  0.00     0.014 C 
HETATM   23  C   UNL     1       8.218  28.156  21.108  1.00  0.00     0.046 C 
HETATM   24  C   UNL     1       9.464  27.419  20.800  1.00  0.00     0.200 C 
HETATM   25  C   UNL     1       9.864  26.447  21.855  1.00  0.00     0.057 C 
HETATM   26  C   UNL     1       9.042  26.262  22.960  1.00  0.00    -0.020 C 
HETATM   27  C   UNL     1       9.418  25.555  24.128  1.00  0.00    -0.052 C 
HETATM   28  C   UNL     1      10.272  26.061  25.219  1.00  0.00     0.075 C 
HETATM   29  C   UNL     1       8.573  24.397  24.582  1.00  0.00     0.079 C 
HETATM   30  C   UNL     1       9.703  25.353  26.403  1.00  0.00    -0.046 C 
HETATM   31  C   UNL     1       8.753  24.371  26.075  1.00  0.00    -0.038 C 
HETATM   32  C   UNL     1       9.946  25.707  27.721  1.00  0.00     0.017 C 
HETATM   33  C   UNL     1       8.150  23.629  27.089  1.00  0.00     0.026 C 
HETATM   34  C   UNL     1       8.568  23.852  28.402  1.00  0.00     0.040 C 
HETATM   35  C   UNL     1       9.415  24.922  28.725  1.00  0.00    -0.024 C 
HETATM   36  C   UNL     1       8.299  23.119  29.642  1.00  0.00     0.252 C 
HETATM   37  C   UNL     1       9.537  25.027  30.215  1.00  0.00     0.162 C 
HETATM   38  N   UNL     1       8.721  23.902  30.696  1.00  0.00    -0.353 N 
ATOM     39  HN  UNL     1       8.498  23.725  31.676  1.00  0.00     0.163 HD
HETATM   40  O   UNL     1       7.906  21.966  29.723  1.00  0.00    -0.268 OA
BRANCH  24  41
HETATM   41  O   UNL     1       9.407  26.798  19.550  1.00  0.00    -0.359 OA
ATOM     42  HO  UNL     1      10.300  26.892  19.240  1.00  0.00     0.213 HD
ENDBRANCH  24  41
BRANCH  24  43
HETATM   43  O   UNL     1      10.515  28.353  20.619  1.00  0.00    -0.359 OA
ATOM     44  HO  UNL     1      10.050  29.182  20.636  1.00  0.00     0.213 HD
ENDBRANCH  24  43
ENDBRANCH   5  21
TORSDOF 11
ENDMDL
MODEL 3
REMARK VINA RESULT:      -8.9      1.351      1.989
REMARK  11 active torsions:
REMARK  status: ('A' for Active; 'I' for Inactive)
REMARK    1  A    between atoms: O_1  and  C_24 
REMARK    2  A    between atoms: O_4  and  C_24 
REMARK    3  A    between atoms: C_8  and  C_30 
REMARK    4  A    between atoms: C_8  and  C_38 
REMARK    5  A    between atoms: C_12  and  C_37 
REMARK    6  A    between atoms: C_16  and  C_30 
REMARK    7  A    between atoms: C_16  and  C_35 
REMARK    8  A    between atoms: C_22  and  P_33 
REMARK    9  A    between atoms: C_22  and  C_35 
REMARK   10  A    between atoms: C_22  and  C_36 
REMARK   11  A    between atoms: C_42  and  C_43 
ROOT
HETATM    1  C   UNL     1       4.908  23.132  21.388  1.00  0.00     0.040 C 
HETATM    2  C   UNL     1       4.704  25.383  23.368  1.00  0.00     0.074 C 
HETATM    3  C   UNL     1       3.601  23.418  22.100  1.00  0.00     0.039 C 
HETATM    4  C   UNL     1       3.953  24.064  23.421  1.00  0.00    -0.068 C 
HETATM    5  C   UNL     1       5.836  25.111  22.439  1.00  0.00    -0.040 C 
HETATM    6  C   UNL     1       3.837  23.325  24.625  1.00  0.00     0.062 C 
HETATM    7  C   UNL     1       6.029  23.772  22.129  1.00  0.00    -0.059 C 
ENDROOT
BRANCH   6   8
HETATM    8  C   UNL     1       3.297  22.156  24.858  1.00  0.00    -0.078 C 
BRANCH   8   9
HETATM    9  C   UNL     1       2.621  21.070  25.515  1.00  0.00     0.201 C 
HETATM   10  O   UNL     1       1.395  21.118  25.778  1.00  0.00    -0.283 OA
BRANCH   9  11
HETATM   11  C   UNL     1       3.437  19.841  25.868  1.00  0.00     0.176 C 
BRANCH  11  12
HETATM   12  C   UNL     1       4.236  19.870  27.165  1.00  0.00     0.180 C 
HETATM   13  O   UNL     1       3.712  19.614  28.273  1.00  0.00    -0.291 OA
BRANCH  12  14
HETATM   14  C   UNL     1       5.700  19.891  27.070  1.00  0.00     0.151 C 
BRANCH  14  15
HETATM   15  P   UNL     1       6.495  21.386  27.390  1.00  0.00     0.302 P 
HETATM   16  O   UNL     1       5.362  22.322  27.732  1.00  0.00    -0.636 OA
HETATM   17  O   UNL     1       7.380  21.255  28.592  1.00  0.00    -0.636 OA
HETATM   18  O   UNL     1       7.246  21.843  26.196  1.00  0.00    -0.636 OA
ENDBRANCH  14  15
BRANCH  14  19
HETATM   19  C   UNL     1       6.469  18.708  26.868  1.00  0.00     0.283 C 
HETATM   20  O   UNL     1       6.015  17.640  26.360  1.00  0.00    -0.301 OA
ENDBRANCH  14  19
ENDBRANCH  12  14
ENDBRANCH  11  12
ENDBRANCH   9  11
ENDBRANCH   8   9
ENDBRANCH   6   8
BRANCH   5  21
HETATM   21  C   UNL     1       6.655  25.935  21.646  1.00  0.00    -0.019 C 
HETATM   22  C   UNL     1       6.364  26.457  20.390  1.00  0.00     0.014 C 
HETATM   23  C   UNL     1       7.385  26.739  19.490  1.00  0.00     0.046 C 
HETATM   24  C   UNL     1       8.789  26.389  19.800  1.00  0.00     0.200 C 
HETATM   25  C   UNL     1       9.034  26.103  21.241  1.00  0.00     0.057 C 
HETATM   26  C   UNL     1       7.966  26.114  22.130  1.00  0.00    -0.020 C 
HETATM   27  C   UNL     1       8.098  26.093  23.540  1.00  0.00    -0.052 C 
HETATM   28  C   UNL     1       8.444  27.237  24.402  1.00  0.00     0.075 C 
HETATM   29  C   UNL     1       7.414  25.003  24.319  1.00  0.00     0.079 C 
HETATM   30  C   UNL     1       7.695  26.912  25.652  1.00  0.00    -0.046 C 
HETATM   31  C   UNL     1       7.121  25.630  25.654  1.00  0.00    -0.038 C 
HETATM   32  C   UNL     1       7.436  27.818  26.670  1.00  0.00     0.017 C 
HETATM   33  C   UNL     1       6.400  25.199  26.765  1.00  0.00     0.026 C 
HETATM   34  C   UNL     1       6.332  26.046  27.872  1.00  0.00     0.040 C 
HETATM   35  C   UNL     1       6.793  27.369  27.807  1.00  0.00    -0.024 C 
HETATM   36  C   UNL     1       5.848  25.820  29.238  1.00  0.00     0.252 C 
HETATM   37  C   UNL     1       6.422  28.088  29.067  1.00  0.00     0.162 C 
HETATM   38  N   UNL     1       5.749  27.047  29.859  1.00  0.00    -0.353 N 
ATOM     39  HN  UNL     1       5.273  27.211  30.746  1.00  0.00     0.163 HD
HETATM   40  O   UNL     1       5.699  24.734  29.775  1.00  0.00    -0.268 OA
BRANCH  24  41
HETATM   41  O   UNL     1       9.255  25.342  19.001  1.00  0.00    -0.359 OA
ATOM     42  HO  UNL     1       8.550  24.709  19.072  1.00  0.00     0.213 HD
ENDBRANCH  24  41
BRANCH  24  43
HETATM   43  O   UNL     1       9.626  27.462  19.401  1.00  0.00    -0.359 OA
ATOM     44  HO  UNL     1      10.486  27.058  19.409  1.00  0.00     0.213 HD
ENDBRANCH  24  43
ENDBRANCH   5  21
TORSDOF 11
ENDMDL
MODEL 4
REMARK VINA RESULT:      -8.8      1.036      1.568
REMARK  11 active torsions:
REMARK  status: ('A' for Active; 'I' for Inactive)
REMARK    1  A    between atoms: O_1  and  C_24 
REMARK    2  A    between atoms: O_4  and  C_24 
REMARK    3  A    between atoms: C_8  and  C_30 
REMARK    4  A    between atoms: C_8  and  C_38 
REMARK    5  A    between atoms: C_12  and  C_37 
REMARK    6  A    between atoms: C_16  and  C_30 
REMARK    7  A    between atoms: C_16  and  C_35 
REMARK    8  A    between atoms: C_22  and  P_33 
REMARK    9  A    between atoms: C_22  and  C_35 
REMARK   10  A    between atoms: C_22  and  C_36 
REMARK   11  A    between atoms: C_42  and  C_43 
ROOT
HETATM    1  C   UNL     1       4.625  23.888  21.153  1.00  0.00     0.040 C 
HETATM    2  C   UNL     1       5.466  25.952  23.169  1.00  0.00     0.074 C 
HETATM    3  C   UNL     1       3.641  24.409  22.181  1.00  0.00     0.039 C 
HETATM    4  C   UNL     1       4.451  24.843  23.382  1.00  0.00    -0.068 C 
HETATM    5  C   UNL     1       6.236  25.504  21.976  1.00  0.00    -0.040 C 
HETATM    6  C   UNL     1       4.452  24.053  24.559  1.00  0.00     0.062 C 
HETATM    7  C   UNL     1       6.014  24.187  21.596  1.00  0.00    -0.059 C 
ENDROOT
BRANCH   6   8
HETATM    8  C   UNL     1       3.716  23.025  24.897  1.00  0.00    -0.078 C 
BRANCH   8   9
HETATM    9  C   UNL     1       3.014  21.772  24.845  1.00  0.00     0.201 C 
HETATM   10  O   UNL     1       2.861  21.146  23.769  1.00  0.00    -0.283 OA
BRANCH   9  11
HETATM   11  C   UNL     1       2.475  21.211  26.147  1.00  0.00     0.176 C 
BRANCH  11  12
HETATM   12  C   UNL     1       3.422  20.382  27.007  1.00  0.00     0.180 C 
HETATM   13  O   UNL     1       3.963  20.846  28.036  1.00  0.00    -0.291 OA
BRANCH  12  14
HETATM   14  C   UNL     1       3.448  18.930  26.795  1.00  0.00     0.151 C 
BRANCH  14  15
HETATM   15  P   UNL     1       4.794  18.060  27.429  1.00  0.00     0.302 P 
HETATM   16  O   UNL     1       5.855  19.120  27.591  1.00  0.00    -0.636 OA
HETATM   17  O   UNL     1       4.463  17.509  28.783  1.00  0.00    -0.636 OA
HETATM   18  O   UNL     1       5.217  16.996  26.487  1.00  0.00    -0.636 OA
ENDBRANCH  14  15
BRANCH  14  19
HETATM   19  C   UNL     1       2.352  18.222  26.223  1.00  0.00     0.283 C 
HETATM   20  O   UNL     1       1.828  17.187  26.730  1.00  0.00    -0.301 OA
ENDBRANCH  14  19
ENDBRANCH  12  14
ENDBRANCH  11  12
ENDBRANCH   9  11
ENDBRANCH   8   9
ENDBRANCH   6   8
BRANCH   5  21
HETATM   21  C   UNL     1       7.014  26.179  21.018  1.00  0.00    -0.019 C 
HETATM   22  C   UNL     1       6.562  26.904  19.920  1.00  0.00     0.014 C 
HETATM   23  C   UNL     1       7.347  27.020  18.780  1.00  0.00     0.046 C 
HETATM   24  C   UNL     1       8.628  26.289  18.661  1.00  0.00     0.200 C 
HETATM   25  C   UNL     1       9.153  25.780  19.959  1.00  0.00     0.057 C 
HETATM   26  C   UNL     1       8.402  25.959  21.115  1.00  0.00    -0.020 C 
HETATM   27  C   UNL     1       8.888  25.737  22.427  1.00  0.00    -0.052 C 
HETATM   28  C   UNL     1       9.753  26.644  23.203  1.00  0.00     0.075 C 
HETATM   29  C   UNL     1       8.157  24.774  23.321  1.00  0.00     0.079 C 
HETATM   30  C   UNL     1       9.299  26.375  24.600  1.00  0.00    -0.046 C 
HETATM   31  C   UNL     1       8.411  25.292  24.710  1.00  0.00    -0.038 C 
HETATM   32  C   UNL     1       9.579  27.189  25.687  1.00  0.00     0.017 C 
HETATM   33  C   UNL     1       7.917  24.930  25.961  1.00  0.00     0.026 C 
HETATM   34  C   UNL     1       8.381  25.629  27.077  1.00  0.00     0.040 C 
HETATM   35  C   UNL     1       9.158  26.788  26.939  1.00  0.00    -0.024 C 
HETATM   36  C   UNL     1       8.229  25.373  28.512  1.00  0.00     0.252 C 
HETATM   37  C   UNL     1       9.346  27.423  28.283  1.00  0.00     0.162 C 
HETATM   38  N   UNL     1       8.642  26.502  29.188  1.00  0.00    -0.353 N 
ATOM     39  HN  UNL     1       8.481  26.675  30.181  1.00  0.00     0.163 HD
HETATM   40  O   UNL     1       7.929  24.306  29.023  1.00  0.00    -0.268 OA
BRANCH  24  41
HETATM   41  O   UNL     1       8.557  25.261  17.719  1.00  0.00    -0.359 OA
ATOM     42  HO  UNL     1       9.391  25.344  17.270  1.00  0.00     0.213 HD
ENDBRANCH  24  41
BRANCH  24  43
HETATM   43  O   UNL     1       9.596  27.152  18.087  1.00  0.00    -0.359 OA
ATOM     44  HO  UNL     1       9.872  26.660  17.322  1.00  0.00     0.213 HD
ENDBRANCH  24  43
ENDBRANCH   5  21
TORSDOF 11
ENDMDL
MODEL 5
REMARK VINA RESULT:      -8.3      1.798      2.662
REMARK  11 active torsions:
REMARK  status: ('A' for Active; 'I' for Inactive)
REMARK    1  A    between atoms: O_1  and  C_24 
REMARK    2  A    between atoms: O_4  and  C_24 
REMARK    3  A    between atoms: C_8  and  C_30 
REMARK    4  A    between atoms: C_8  and  C_38 
REMARK    5  A    between atoms: C_12  and  C_37 
REMARK    6  A    between atoms: C_16  and  C_30 
REMARK    7  A    between atoms: C_16  and  C_35 
REMARK    8  A    between atoms: C_22  and  P_33 
REMARK    9  A    between atoms: C_22  and  C_35 
REMARK   10  A    between atoms: C_22  and  C_36 
REMARK   11  A    between atoms: C_42  and  C_43 
ROOT
HETATM    1  C   UNL     1       5.806  23.942  21.885  1.00  0.00     0.040 C 
HETATM    2  C   UNL     1       6.431  26.511  23.314  1.00  0.00     0.074 C 
HETATM    3  C   UNL     1       4.891  24.461  22.976  1.00  0.00     0.039 C 
HETATM    4  C   UNL     1       5.746  25.292  23.907  1.00  0.00    -0.068 C 
HETATM    5  C   UNL     1       7.100  25.984  22.092  1.00  0.00    -0.040 C 
HETATM    6  C   UNL     1       6.106  24.786  25.181  1.00  0.00     0.062 C 
HETATM    7  C   UNL     1       7.137  24.599  21.997  1.00  0.00    -0.059 C 
ENDROOT
BRANCH   6   8
HETATM    8  C   UNL     1       5.688  23.727  25.827  1.00  0.00    -0.078 C 
BRANCH   8   9
HETATM    9  C   UNL     1       5.676  22.507  26.587  1.00  0.00     0.201 C 
HETATM   10  O   UNL     1       6.339  22.383  27.645  1.00  0.00    -0.283 OA
BRANCH   9  11
HETATM   11  C   UNL     1       4.812  21.368  26.080  1.00  0.00     0.176 C 
BRANCH  11  12
HETATM   12  C   UNL     1       4.026  20.564  27.109  1.00  0.00     0.180 C 
HETATM   13  O   UNL     1       3.396  21.113  28.041  1.00  0.00    -0.291 OA
BRANCH  12  14
HETATM   14  C   UNL     1       3.751  19.153  26.812  1.00  0.00     0.151 C 
BRANCH  14  15
HETATM   15  P   UNL     1       4.850  17.982  27.439  1.00  0.00     0.302 P 
HETATM   16  O   UNL     1       6.015  18.812  27.917  1.00  0.00    -0.636 OA
HETATM   17  O   UNL     1       4.246  17.288  28.622  1.00  0.00    -0.636 OA
HETATM   18  O   UNL     1       5.252  17.026  26.380  1.00  0.00    -0.636 OA
ENDBRANCH  14  15
BRANCH  14  19
HETATM   19  C   UNL     1       2.557  18.728  26.162  1.00  0.00     0.283 C 
HETATM   20  O   UNL     1       1.811  19.485  25.473  1.00  0.00    -0.301 OA
ENDBRANCH  14  19
ENDBRANCH  12  14
ENDBRANCH  11  12
ENDBRANCH   9  11
ENDBRANCH   8   9
ENDBRANCH   6   8
BRANCH   5  21
HETATM   21  C   UNL     1       7.548  26.582  20.900  1.00  0.00    -0.019 C 
HETATM   22  C   UNL     1       6.773  27.023  19.832  1.00  0.00     0.014 C 
HETATM   23  C   UNL     1       7.295  27.046  18.545  1.00  0.00     0.046 C 
HETATM   24  C   UNL     1       8.642  26.501  18.261  1.00  0.00     0.200 C 
HETATM   25  C   UNL     1       9.485  26.318  19.475  1.00  0.00     0.057 C 
HETATM   26  C   UNL     1       8.946  26.589  20.727  1.00  0.00    -0.020 C 
HETATM   27  C   UNL     1       9.703  26.680  21.921  1.00  0.00    -0.052 C 
HETATM   28  C   UNL     1      10.520  27.829  22.351  1.00  0.00     0.075 C 
HETATM   29  C   UNL     1       9.339  25.797  23.083  1.00  0.00     0.079 C 
HETATM   30  C   UNL     1      10.393  27.753  23.837  1.00  0.00    -0.046 C 
HETATM   31  C   UNL     1       9.753  26.589  24.293  1.00  0.00    -0.038 C 
HETATM   32  C   UNL     1      10.722  28.781  24.707  1.00  0.00     0.017 C 
HETATM   33  C   UNL     1       9.577  26.389  25.661  1.00  0.00     0.026 C 
HETATM   34  C   UNL     1      10.109  27.338  26.535  1.00  0.00     0.040 C 
HETATM   35  C   UNL     1      10.625  28.554  26.065  1.00  0.00    -0.024 C 
HETATM   36  C   UNL     1      10.280  27.325  27.991  1.00  0.00     0.252 C 
HETATM   37  C   UNL     1      10.944  29.442  27.229  1.00  0.00     0.162 C 
HETATM   38  N   UNL     1      10.602  28.606  28.390  1.00  0.00    -0.353 N 
ATOM     39  HN  UNL     1      10.602  28.929  29.357  1.00  0.00     0.163 HD
HETATM   40  O   UNL     1      10.279  26.335  28.705  1.00  0.00    -0.268 OA
BRANCH  24  41
HETATM   41  O   UNL     1       8.581  25.321  17.516  1.00  0.00    -0.359 OA
ATOM     42  HO  UNL     1       8.871  25.612  16.659  1.00  0.00     0.213 HD
ENDBRANCH  24  41
BRANCH  24  43
HETATM   43  O   UNL     1       9.311  27.379  17.371  1.00  0.00    -0.359 OA
ATOM     44  HO  UNL     1       8.588  27.772  16.897  1.00  0.00     0.213 HD
ENDBRANCH  24  43
ENDBRANCH   5  21
TORSDOF 11
ENDMDL
MODEL 6
REMARK VINA RESULT:      -8.2      1.477      1.777
REMARK  11 active torsions:
REMARK  status: ('A' for Active; 'I' for Inactive)
REMARK    1  A    between atoms: O_1  and  C_24 
REMARK    2  A    between atoms: O_4  and  C_24 
REMARK    3  A    between atoms: C_8  and  C_30 
REMARK    4  A    between atoms: C_8  and  C_38 
REMARK    5  A    between atoms: C_12  and  C_37 
REMARK    6  A    between atoms: C_16  and  C_30 
REMARK    7  A    between atoms: C_16  and  C_35 
REMARK    8  A    between atoms: C_22  and  P_33 
REMARK    9  A    between atoms: C_22  and  C_35 
REMARK   10  A    between atoms: C_22  and  C_36 
REMARK   11  A    between atoms: C_42  and  C_43 
ROOT
HETATM    1  C   UNL     1       6.549  23.988  21.292  1.00  0.00     0.040 C 
HETATM    2  C   UNL     1       6.119  26.197  23.284  1.00  0.00     0.074 C 
HETATM    3  C   UNL     1       5.153  24.340  21.766  1.00  0.00     0.039 C 
HETATM    4  C   UNL     1       5.295  24.928  23.152  1.00  0.00    -0.068 C 
HETATM    5  C   UNL     1       7.384  25.877  22.566  1.00  0.00    -0.040 C 
HETATM    6  C   UNL     1       4.917  24.168  24.287  1.00  0.00     0.062 C 
HETATM    7  C   UNL     1       7.551  24.536  22.247  1.00  0.00    -0.059 C 
ENDROOT
BRANCH   6   8
HETATM    8  C   UNL     1       4.276  23.031  24.377  1.00  0.00    -0.078 C 
BRANCH   8   9
HETATM    9  C   UNL     1       3.390  21.936  24.088  1.00  0.00     0.201 C 
HETATM   10  O   UNL     1       2.653  21.934  23.074  1.00  0.00    -0.283 OA
BRANCH   9  11
HETATM   11  C   UNL     1       3.387  20.760  25.046  1.00  0.00     0.176 C 
BRANCH  11  12
HETATM   12  C   UNL     1       4.014  20.964  26.421  1.00  0.00     0.180 C 
HETATM   13  O   UNL     1       3.503  21.720  27.278  1.00  0.00    -0.291 OA
BRANCH  12  14
HETATM   14  C   UNL     1       5.054  20.021  26.848  1.00  0.00     0.151 C 
BRANCH  14  15
HETATM   15  P   UNL     1       4.605  18.366  27.014  1.00  0.00     0.302 P 
HETATM   16  O   UNL     1       4.472  18.185  28.506  1.00  0.00    -0.636 OA
HETATM   17  O   UNL     1       3.265  18.128  26.387  1.00  0.00    -0.636 OA
HETATM   18  O   UNL     1       5.650  17.483  26.443  1.00  0.00    -0.636 OA
ENDBRANCH  14  15
BRANCH  14  19
HETATM   19  C   UNL     1       6.421  20.403  26.983  1.00  0.00     0.283 C 
HETATM   20  O   UNL     1       6.941  20.821  28.059  1.00  0.00    -0.301 OA
ENDBRANCH  14  19
ENDBRANCH  12  14
ENDBRANCH  11  12
ENDBRANCH   9  11
ENDBRANCH   8   9
ENDBRANCH   6   8
BRANCH   5  21
HETATM   21  C   UNL     1       8.381  26.665  21.964  1.00  0.00    -0.019 C 
HETATM   22  C   UNL     1       8.351  27.246  20.700  1.00  0.00     0.014 C 
HETATM   23  C   UNL     1       9.531  27.484  20.006  1.00  0.00     0.046 C 
HETATM   24  C   UNL     1      10.833  27.027  20.541  1.00  0.00     0.200 C 
HETATM   25  C   UNL     1      10.800  26.679  21.989  1.00  0.00     0.057 C 
HETATM   26  C   UNL     1       9.594  26.737  22.677  1.00  0.00    -0.020 C 
HETATM   27  C   UNL     1       9.473  26.662  24.086  1.00  0.00    -0.052 C 
HETATM   28  C   UNL     1       9.732  27.752  25.045  1.00  0.00     0.075 C 
HETATM   29  C   UNL     1       8.593  25.599  24.685  1.00  0.00     0.079 C 
HETATM   30  C   UNL     1       8.754  27.441  26.129  1.00  0.00    -0.046 C 
HETATM   31  C   UNL     1       8.109  26.203  25.974  1.00  0.00    -0.038 C 
HETATM   32  C   UNL     1       8.377  28.330  27.125  1.00  0.00     0.017 C 
HETATM   33  C   UNL     1       7.177  25.788  26.924  1.00  0.00     0.026 C 
HETATM   34  C   UNL     1       6.968  26.603  28.037  1.00  0.00     0.040 C 
HETATM   35  C   UNL     1       7.516  27.891  28.111  1.00  0.00    -0.024 C 
HETATM   36  C   UNL     1       6.236  26.368  29.286  1.00  0.00     0.252 C 
HETATM   37  C   UNL     1       6.973  28.595  29.317  1.00  0.00     0.162 C 
HETATM   38  N   UNL     1       6.106  27.579  29.933  1.00  0.00    -0.353 N 
ATOM     39  HN  UNL     1       5.492  27.748  30.730  1.00  0.00     0.163 HD
HETATM   40  O   UNL     1       5.925  25.279  29.741  1.00  0.00    -0.268 OA
BRANCH  24  41
HETATM   41  O   UNL     1      11.366  25.976  19.791  1.00  0.00    -0.359 OA
ATOM     42  HO  UNL     1      11.125  25.218  20.311  1.00  0.00     0.213 HD
ENDBRANCH  24  41
BRANCH  24  43
HETATM   43  O   UNL     1      11.793  28.051  20.341  1.00  0.00    -0.359 OA
ATOM     44  HO  UNL     1      11.579  28.663  21.035  1.00  0.00     0.213 HD
ENDBRANCH  24  43
ENDBRANCH   5  21
TORSDOF 11
ENDMDL
MODEL 7
REMARK VINA RESULT:      -8.1      3.028      6.684
REMARK  11 active torsions:
REMARK  status: ('A' for Active; 'I' for Inactive)
REMARK    1  A    between atoms: O_1  and  C_24 
REMARK    2  A    between atoms: O_4  and  C_24 
REMARK    3  A    between atoms: C_8  and  C_30 
REMARK    4  A    between atoms: C_8  and  C_38 
REMARK    5  A    between atoms: C_12  and  C_37 
REMARK    6  A    between atoms: C_16  and  C_30 
REMARK    7  A    between atoms: C_16  and  C_35 
REMARK    8  A    between atoms: C_22  and  P_33 
REMARK    9  A    between atoms: C_22  and  C_35 
REMARK   10  A    between atoms: C_22  and  C_36 
REMARK   11  A    between atoms: C_42  and  C_43 
ROOT
HETATM    1  C   UNL     1       7.856  24.326  29.392  1.00  0.00     0.040 C 
HETATM    2  C   UNL     1       9.104  24.473  26.662  1.00  0.00     0.074 C 
HETATM    3  C   UNL     1       8.527  23.111  28.783  1.00  0.00     0.039 C 
HETATM    4  C   UNL     1       8.429  23.262  27.282  1.00  0.00    -0.068 C 
HETATM    5  C   UNL     1       8.604  25.615  27.478  1.00  0.00    -0.040 C 
HETATM    6  C   UNL     1       7.514  22.467  26.548  1.00  0.00     0.062 C 
HETATM    7  C   UNL     1       7.543  25.311  28.321  1.00  0.00    -0.059 C 
ENDROOT
BRANCH   6   8
HETATM    8  C   UNL     1       6.791  21.440  26.916  1.00  0.00    -0.078 C 
BRANCH   8   9
HETATM    9  C   UNL     1       5.698  20.515  27.046  1.00  0.00     0.201 C 
HETATM   10  O   UNL     1       5.580  19.770  28.048  1.00  0.00    -0.283 OA
BRANCH   9  11
HETATM   11  C   UNL     1       4.668  20.480  25.934  1.00  0.00     0.176 C 
BRANCH  11  12
HETATM   12  C   UNL     1       4.028  21.800  25.518  1.00  0.00     0.180 C 
HETATM   13  O   UNL     1       4.114  22.240  24.349  1.00  0.00    -0.291 OA
BRANCH  12  14
HETATM   14  C   UNL     1       3.040  22.399  26.424  1.00  0.00     0.151 C 
BRANCH  14  15
HETATM   15  P   UNL     1       3.439  23.913  27.144  1.00  0.00     0.302 P 
HETATM   16  O   UNL     1       2.119  24.407  27.681  1.00  0.00    -0.636 OA
HETATM   17  O   UNL     1       4.373  23.706  28.298  1.00  0.00    -0.636 OA
HETATM   18  O   UNL     1       4.005  24.838  26.132  1.00  0.00    -0.636 OA
ENDBRANCH  14  15
BRANCH  14  19
HETATM   19  C   UNL     1       1.738  21.849  26.604  1.00  0.00     0.283 C 
HETATM   20  O   UNL     1       1.173  21.069  25.781  1.00  0.00    -0.301 OA
ENDBRANCH  14  19
ENDBRANCH  12  14
ENDBRANCH  11  12
ENDBRANCH   9  11
ENDBRANCH   8   9
ENDBRANCH   6   8
BRANCH   5  21
HETATM   21  C   UNL     1       9.090  26.911  27.729  1.00  0.00    -0.019 C 
HETATM   22  C   UNL     1      10.042  27.289  28.669  1.00  0.00     0.014 C 
HETATM   23  C   UNL     1      10.023  28.565  29.218  1.00  0.00     0.046 C 
HETATM   24  C   UNL     1       8.930  29.512  28.902  1.00  0.00     0.200 C 
HETATM   25  C   UNL     1       8.134  29.133  27.702  1.00  0.00     0.057 C 
HETATM   26  C   UNL     1       8.417  27.942  27.044  1.00  0.00    -0.020 C 
HETATM   27  C   UNL     1       7.901  27.587  25.774  1.00  0.00    -0.052 C 
HETATM   28  C   UNL     1       8.380  28.077  24.468  1.00  0.00     0.075 C 
HETATM   29  C   UNL     1       7.136  26.299  25.632  1.00  0.00     0.079 C 
HETATM   30  C   UNL     1       8.119  26.900  23.588  1.00  0.00    -0.046 C 
HETATM   31  C   UNL     1       7.382  25.879  24.209  1.00  0.00    -0.038 C 
HETATM   32  C   UNL     1       8.667  26.727  22.326  1.00  0.00     0.017 C 
HETATM   33  C   UNL     1       7.063  24.726  23.494  1.00  0.00     0.026 C 
HETATM   34  C   UNL     1       7.440  24.661  22.152  1.00  0.00     0.040 C 
HETATM   35  C   UNL     1       8.287  25.625  21.586  1.00  0.00    -0.024 C 
HETATM   36  C   UNL     1       7.087  23.713  21.091  1.00  0.00     0.252 C 
HETATM   37  C   UNL     1       8.670  25.199  20.202  1.00  0.00     0.162 C 
HETATM   38  N   UNL     1       7.934  23.938  20.026  1.00  0.00    -0.353 N 
ATOM     39  HN  UNL     1       8.037  23.313  19.225  1.00  0.00     0.163 HD
HETATM   40  O   UNL     1       6.127  22.959  21.092  1.00  0.00    -0.268 OA
BRANCH  24  41
HETATM   41  O   UNL     1       8.095  29.732  30.001  1.00  0.00    -0.359 OA
ATOM     42  HO  UNL     1       7.806  28.851  30.209  1.00  0.00     0.213 HD
ENDBRANCH  24  41
BRANCH  24  43
HETATM   43  O   UNL     1       9.487  30.799  28.691  1.00  0.00    -0.359 OA
ATOM     44  HO  UNL     1       9.119  31.296  29.412  1.00  0.00     0.213 HD
ENDBRANCH  24  43
ENDBRANCH   5  21
TORSDOF 11
ENDMDL
MODEL 8
REMARK VINA RESULT:      -7.9      2.563      3.560
REMARK  11 active torsions:
REMARK  status: ('A' for Active; 'I' for Inactive)
REMARK    1  A    between atoms: O_1  and  C_24 
REMARK    2  A    between atoms: O_4  and  C_24 
REMARK    3  A    between atoms: C_8  and  C_30 
REMARK    4  A    between atoms: C_8  and  C_38 
REMARK    5  A    between atoms: C_12  and  C_37 
REMARK    6  A    between atoms: C_16  and  C_30 
REMARK    7  A    between atoms: C_16  and  C_35 
REMARK    8  A    between atoms: C_22  and  P_33 
REMARK    9  A    between atoms: C_22  and  C_35 
REMARK   10  A    between atoms: C_22  and  C_36 
REMARK   11  A    between atoms: C_42  and  C_43 
ROOT
HETATM    1  C   UNL     1       5.187  24.699  21.385  1.00  0.00     0.040 C 
HETATM    2  C   UNL     1       6.267  27.106  22.824  1.00  0.00     0.074 C 
HETATM    3  C   UNL     1       4.346  25.423  22.416  1.00  0.00     0.039 C 
HETATM    4  C   UNL     1       5.306  26.073  23.387  1.00  0.00    -0.068 C 
HETATM    5  C   UNL     1       6.873  26.423  21.647  1.00  0.00    -0.040 C 
HETATM    6  C   UNL     1       5.480  25.529  24.685  1.00  0.00     0.062 C 
HETATM    7  C   UNL     1       6.620  25.061  21.567  1.00  0.00    -0.059 C 
ENDROOT
BRANCH   6   8
HETATM    8  C   UNL     1       4.811  24.598  25.315  1.00  0.00    -0.078 C 
BRANCH   8   9
HETATM    9  C   UNL     1       4.423  23.620  26.295  1.00  0.00     0.201 C 
HETATM   10  O   UNL     1       3.297  23.650  26.847  1.00  0.00    -0.283 OA
BRANCH   9  11
HETATM   11  C   UNL     1       5.419  22.527  26.632  1.00  0.00     0.176 C 
BRANCH  11  12
HETATM   12  C   UNL     1       6.832  22.949  27.016  1.00  0.00     0.180 C 
HETATM   13  O   UNL     1       7.726  23.133  26.159  1.00  0.00    -0.291 OA
BRANCH  12  14
HETATM   14  C   UNL     1       7.054  23.445  28.379  1.00  0.00     0.151 C 
BRANCH  14  15
HETATM   15  P   UNL     1       8.232  22.631  29.338  1.00  0.00     0.302 P 
HETATM   16  O   UNL     1       8.078  21.186  28.934  1.00  0.00    -0.636 OA
HETATM   17  O   UNL     1       9.609  23.085  28.961  1.00  0.00    -0.636 OA
HETATM   18  O   UNL     1       7.957  22.832  30.781  1.00  0.00    -0.636 OA
ENDBRANCH  14  15
BRANCH  14  19
HETATM   19  C   UNL     1       6.444  24.638  28.865  1.00  0.00     0.283 C 
HETATM   20  O   UNL     1       5.444  24.662  29.642  1.00  0.00    -0.301 OA
ENDBRANCH  14  19
ENDBRANCH  12  14
ENDBRANCH  11  12
ENDBRANCH   9  11
ENDBRANCH   8   9
ENDBRANCH   6   8
BRANCH   5  21
HETATM   21  C   UNL     1       7.503  26.887  20.478  1.00  0.00    -0.019 C 
HETATM   22  C   UNL     1       6.897  27.431  19.351  1.00  0.00     0.014 C 
HETATM   23  C   UNL     1       7.496  27.314  18.103  1.00  0.00     0.046 C 
HETATM   24  C   UNL     1       8.730  26.516  17.924  1.00  0.00     0.200 C 
HETATM   25  C   UNL     1       9.442  26.216  19.197  1.00  0.00     0.057 C 
HETATM   26  C   UNL     1       8.885  26.624  20.403  1.00  0.00    -0.020 C 
HETATM   27  C   UNL     1       9.567  26.610  21.644  1.00  0.00    -0.052 C 
HETATM   28  C   UNL     1      10.559  27.597  22.108  1.00  0.00     0.075 C 
HETATM   29  C   UNL     1       8.967  25.849  22.795  1.00  0.00     0.079 C 
HETATM   30  C   UNL     1      10.324  27.594  23.582  1.00  0.00    -0.046 C 
HETATM   31  C   UNL     1       9.446  26.587  24.015  1.00  0.00    -0.038 C 
HETATM   32  C   UNL     1      10.786  28.570  24.453  1.00  0.00     0.017 C 
HETATM   33  C   UNL     1       9.147  26.469  25.371  1.00  0.00     0.026 C 
HETATM   34  C   UNL     1       9.792  27.328  26.262  1.00  0.00     0.040 C 
HETATM   35  C   UNL     1      10.559  28.410  25.806  1.00  0.00    -0.024 C 
HETATM   36  C   UNL     1       9.863  27.331  27.727  1.00  0.00     0.252 C 
HETATM   37  C   UNL     1      10.966  29.258  26.971  1.00  0.00     0.162 C 
HETATM   38  N   UNL     1      10.396  28.540  28.121  1.00  0.00    -0.353 N 
ATOM     39  HN  UNL     1      10.396  28.888  29.080  1.00  0.00     0.163 HD
HETATM   40  O   UNL     1       9.627  26.382  28.458  1.00  0.00    -0.268 OA
BRANCH  24  41
HETATM   41  O   UNL     1       8.494  25.345  17.200  1.00  0.00    -0.359 OA
ATOM     42  HO  UNL     1       7.745  24.978  17.656  1.00  0.00     0.213 HD
ENDBRANCH  24  41
BRANCH  24  43
HETATM   43  O   UNL     1       9.611  27.223  17.066  1.00  0.00    -0.359 OA
ATOM     44  HO  UNL     1      10.255  27.562  17.677  1.00  0.00     0.213 HD
ENDBRANCH  24  43
ENDBRANCH   5  21
TORSDOF 11
ENDMDL
MODEL 9
REMARK VINA RESULT:      -7.8      2.737      5.786
REMARK  11 active torsions:
REMARK  status: ('A' for Active; 'I' for Inactive)
REMARK    1  A    between atoms: O_1  and  C_24 
REMARK    2  A    between atoms: O_4  and  C_24 
REMARK    3  A    between atoms: C_8  and  C_30 
REMARK    4  A    between atoms: C_8  and  C_38 
REMARK    5  A    between atoms: C_12  and  C_37 
REMARK    6  A    between atoms: C_16  and  C_30 
REMARK    7  A    between atoms: C_16  and  C_35 
REMARK    8  A    between atoms: C_22  and  P_33 
REMARK    9  A    between atoms: C_22  and  C_35 
REMARK   10  A    between atoms: C_22  and  C_36 
REMARK   11  A    between atoms: C_42  and  C_43 
ROOT
HETATM    1  C   UNL     1       9.689  27.695  23.786  1.00  0.00     0.040 C 
HETATM    2  C   UNL     1       8.325  25.018  23.865  1.00  0.00     0.074 C 
HETATM    3  C   UNL     1      10.035  26.683  24.860  1.00  0.00     0.039 C 
HETATM    4  C   UNL     1       8.810  25.819  25.060  1.00  0.00    -0.068 C 
HETATM    5  C   UNL     1       8.257  26.023  22.768  1.00  0.00    -0.040 C 
HETATM    6  C   UNL     1       8.008  25.984  26.218  1.00  0.00     0.062 C 
HETATM    7  C   UNL     1       8.377  27.344  23.176  1.00  0.00    -0.059 C 
ENDROOT
BRANCH   6   8
HETATM    8  C   UNL     1       8.216  26.679  27.306  1.00  0.00    -0.078 C 
BRANCH   8   9
HETATM    9  C   UNL     1       8.631  27.050  28.632  1.00  0.00     0.201 C 
HETATM   10  O   UNL     1       7.959  27.840  29.337  1.00  0.00    -0.283 OA
BRANCH   9  11
HETATM   11  C   UNL     1       9.910  26.436  29.168  1.00  0.00     0.176 C 
BRANCH  11  12
HETATM   12  C   UNL     1       9.801  25.113  29.918  1.00  0.00     0.180 C 
HETATM   13  O   UNL     1       9.775  25.059  31.168  1.00  0.00    -0.291 OA
BRANCH  12  14
HETATM   14  C   UNL     1       9.407  23.922  29.155  1.00  0.00     0.151 C 
BRANCH  14  15
HETATM   15  P   UNL     1       7.877  23.218  29.518  1.00  0.00     0.302 P 
HETATM   16  O   UNL     1       8.057  22.683  30.917  1.00  0.00    -0.636 OA
HETATM   17  O   UNL     1       6.815  24.275  29.548  1.00  0.00    -0.636 OA
HETATM   18  O   UNL     1       7.558  22.139  28.552  1.00  0.00    -0.636 OA
ENDBRANCH  14  15
BRANCH  14  19
HETATM   19  C   UNL     1      10.171  23.434  28.055  1.00  0.00     0.283 C 
HETATM   20  O   UNL     1      11.435  23.358  28.042  1.00  0.00    -0.301 OA
ENDBRANCH  14  19
ENDBRANCH  12  14
ENDBRANCH  11  12
ENDBRANCH   9  11
ENDBRANCH   8   9
ENDBRANCH   6   8
BRANCH   5  21
HETATM   21  C   UNL     1       8.282  25.926  21.364  1.00  0.00    -0.019 C 
HETATM   22  C   UNL     1       9.401  25.849  20.543  1.00  0.00     0.014 C 
HETATM   23  C   UNL     1       9.353  26.327  19.239  1.00  0.00     0.046 C 
HETATM   24  C   UNL     1       8.152  27.026  18.730  1.00  0.00     0.200 C 
HETATM   25  C   UNL     1       6.935  26.815  19.563  1.00  0.00     0.057 C 
HETATM   26  C   UNL     1       7.031  26.076  20.735  1.00  0.00    -0.020 C 
HETATM   27  C   UNL     1       5.919  25.610  21.480  1.00  0.00    -0.052 C 
HETATM   28  C   UNL     1       5.081  24.441  21.160  1.00  0.00     0.075 C 
HETATM   29  C   UNL     1       5.806  25.989  22.932  1.00  0.00     0.079 C 
HETATM   30  C   UNL     1       4.688  23.968  22.521  1.00  0.00    -0.046 C 
HETATM   31  C   UNL     1       5.057  24.844  23.555  1.00  0.00    -0.038 C 
HETATM   32  C   UNL     1       4.149  22.720  22.793  1.00  0.00     0.017 C 
HETATM   33  C   UNL     1       4.742  24.524  24.874  1.00  0.00     0.026 C 
HETATM   34  C   UNL     1       4.006  23.362  25.110  1.00  0.00     0.040 C 
HETATM   35  C   UNL     1       3.762  22.434  24.087  1.00  0.00    -0.024 C 
HETATM   36  C   UNL     1       3.348  22.860  26.320  1.00  0.00     0.252 C 
HETATM   37  C   UNL     1       3.123  21.210  24.668  1.00  0.00     0.162 C 
HETATM   38  N   UNL     1       2.993  21.547  26.094  1.00  0.00    -0.353 N 
ATOM     39  HN  UNL     1       2.684  20.897  26.817  1.00  0.00     0.163 HD
HETATM   40  O   UNL     1       3.041  23.524  27.297  1.00  0.00    -0.268 OA
BRANCH  24  41
HETATM   41  O   UNL     1       8.386  28.388  18.530  1.00  0.00    -0.359 OA
ATOM     42  HO  UNL     1       7.868  28.567  17.754  1.00  0.00     0.213 HD
ENDBRANCH  24  41
BRANCH  24  43
HETATM   43  O   UNL     1       7.884  26.575  17.412  1.00  0.00    -0.359 OA
ATOM     44  HO  UNL     1       7.310  27.256  17.081  1.00  0.00     0.213 HD
ENDBRANCH  24  43
ENDBRANCH   5  21
TORSDOF 11
ENDMDL
