MODEL 1
REMARK VINA RESULT:      -9.1      0.000      0.000
REMARK  9 active torsions:
REMARK  status: ('A' for Active; 'I' for Inactive)
REMARK    1  A    between atoms: C_6  and  O_38 
REMARK    2  A    between atoms: O_7  and  C_34 
REMARK    3  A    between atoms: C_10  and  C_12 
REMARK    4  A    between atoms: C_10  and  C_41 
REMARK    5  A    between atoms: C_11  and  C_23 
REMARK    6  A    between atoms: C_11  and  O_25 
REMARK    7  A    between atoms: C_12  and  C_17 
REMARK    8  A    between atoms: C_12  and  O_43 
REMARK    9  A    between atoms: C_19  and  C_36 
ROOT
HETATM    1  C   UNL     1       9.089  24.192  25.452  1.00  0.00     0.047 C 
HETATM    2  C   UNL     1      11.327  24.871  25.963  1.00  0.00     0.017 C 
HETATM    3  C   UNL     1       8.923  25.192  24.505  1.00  0.00     0.051 C 
HETATM    4  C   UNL     1       5.525  24.277  23.399  1.00  0.00    -0.008 C 
HETATM    5  C   UNL     1       6.262  24.909  25.599  1.00  0.00     0.032 C 
HETATM    6  C   UNL     1       8.001  25.746  22.386  1.00  0.00     0.060 C 
HETATM    7  C   UNL     1       8.853  25.587  19.258  1.00  0.00     0.001 C 
HETATM    8  C   UNL     1      10.021  26.225  24.319  1.00  0.00     0.196 C 
HETATM    9  C   UNL     1       4.763  23.255  23.959  1.00  0.00     0.029 C 
HETATM   10  C   UNL     1       9.448  26.763  19.719  1.00  0.00    -0.001 C 
HETATM   11  C   UNL     1       9.353  27.336  20.926  1.00  0.00     0.011 C 
HETATM   12  C   UNL     1       5.939  25.176  21.106  1.00  0.00     0.014 C 
HETATM   13  C   UNL     1       5.295  24.083  26.158  1.00  0.00     0.017 C 
HETATM   14  N   UNL     1       7.783  25.295  23.707  1.00  0.00    -0.312 N 
HETATM   15  C   UNL     1       6.526  24.851  24.221  1.00  0.00     0.050 C 
HETATM   16  C   UNL     1      11.313  25.737  24.872  1.00  0.00     0.012 C 
HETATM   17  C   UNL     1       8.101  24.761  20.085  1.00  0.00     0.013 C 
HETATM   18  C   UNL     1      10.155  24.214  26.346  1.00  0.00     0.042 C 
HETATM   19  O   UNL     1      10.268  26.361  22.925  1.00  0.00    -0.361 OA
HETATM   20  C   UNL     1       7.366  25.217  21.202  1.00  0.00    -0.010 C 
HETATM   21  C   UNL     1       4.530  23.271  25.325  1.00  0.00     0.013 C 
HETATM   22  C   UNL     1       5.176  24.684  22.097  1.00  0.00     0.014 C 
HETATM   23  C   UNL     1       9.091  26.799  22.265  1.00  0.00     0.197 C 
ENDROOT
BRANCH  21  24
HETATM   24  C   UNL     1       3.470  22.388  25.852  1.00  0.00     0.190 C 
HETATM   25  O   UNL     1       2.625  22.787  26.630  1.00  0.00    -0.289 OA
BRANCH  24  26
HETATM   26  C   UNL     1       3.463  20.994  25.264  1.00  0.00     0.225 C 
BRANCH  26  27
HETATM   27  C   UNL     1       2.914  19.994  26.266  1.00  0.00     0.209 C 
HETATM   28  C   UNL     1       3.732  19.484  27.452  1.00  0.00     0.205 C 
HETATM   29  C   UNL     1       3.192  18.060  27.637  1.00  0.00     0.221 C 
HETATM   30  C   UNL     1       2.084  17.970  26.612  1.00  0.00     0.289 C 
HETATM   31  O   UNL     1       2.486  18.829  25.558  1.00  0.00    -0.347 OA
BRANCH  28  32
HETATM   32  C   UNL     1       5.237  19.422  27.186  1.00  0.00     0.214 C 
HETATM   33  O   UNL     1       5.977  20.209  27.816  1.00  0.00    -0.646 OA
HETATM   34  O   UNL     1       5.639  18.632  26.316  1.00  0.00    -0.646 OA
ENDBRANCH  28  32
BRANCH  28  35
HETATM   35  O   UNL     1       3.498  20.276  28.628  1.00  0.00    -0.374 OA
ATOM     36  HO  UNL     1       2.707  20.003  29.077  1.00  0.00     0.211 HD
ENDBRANCH  28  35
BRANCH  29  37
HETATM   37  O   UNL     1       4.151  17.056  27.402  1.00  0.00    -0.387 OA
ATOM     38  HO  UNL     1       4.684  16.926  28.177  1.00  0.00     0.210 HD
ENDBRANCH  29  37
BRANCH  30  39
HETATM   39  O   UNL     1       1.789  16.635  26.256  1.00  0.00    -0.368 OA
ATOM     40  HO  UNL     1       1.428  16.085  26.941  1.00  0.00     0.212 HD
ENDBRANCH  30  39
ENDBRANCH  26  27
BRANCH  26  41
HETATM   41  O   UNL     1       2.737  20.946  24.045  1.00  0.00    -0.385 OA
ATOM     42  HO  UNL     1       2.039  21.591  24.029  1.00  0.00     0.210 HD
ENDBRANCH  26  41
ENDBRANCH  24  26
ENDBRANCH  21  24
BRANCH  18  43
HETATM   43  C   UNL     1       9.973  23.539  27.698  1.00  0.00     0.209 C 
HETATM   44  O   UNL     1       8.909  22.884  27.885  1.00  0.00    -0.644 OA
HETATM   45  O   UNL     1      10.839  23.675  28.588  1.00  0.00    -0.644 OA
ENDBRANCH  18  43
TORSDOF 9
ENDMDL
MODEL 2
REMARK VINA RESULT:      -9.0      2.679      8.408
REMARK  9 active torsions:
REMARK  status: ('A' for Active; 'I' for Inactive)
REMARK    1  A    between atoms: C_6  and  O_38 
REMARK    2  A    between atoms: O_7  and  C_34 
REMARK    3  A    between atoms: C_10  and  C_12 
REMARK    4  A    between atoms: C_10  and  C_41 
REMARK    5  A    between atoms: C_11  and  C_23 
REMARK    6  A    between atoms: C_11  and  O_25 
REMARK    7  A    between atoms: C_12  and  C_17 
REMARK    8  A    between atoms: C_12  and  O_43 
REMARK    9  A    between atoms: C_19  and  C_36 
ROOT
HETATM    1  C   UNL     1       8.612  24.733  27.585  1.00  0.00     0.047 C 
HETATM    2  C   UNL     1       9.107  23.770  29.720  1.00  0.00     0.017 C 
HETATM    3  C   UNL     1       7.883  23.626  27.173  1.00  0.00     0.051 C 
HETATM    4  C   UNL     1       6.830  24.917  23.882  1.00  0.00    -0.008 C 
HETATM    5  C   UNL     1       9.062  24.563  24.705  1.00  0.00     0.032 C 
HETATM    6  C   UNL     1       5.967  22.880  25.984  1.00  0.00     0.060 C 
HETATM    7  C   UNL     1       2.819  22.332  26.559  1.00  0.00     0.001 C 
HETATM    8  C   UNL     1       7.831  22.400  28.067  1.00  0.00     0.196 C 
HETATM    9  C   UNL     1       7.231  26.141  23.351  1.00  0.00     0.029 C 
HETATM   10  C   UNL     1       3.458  21.170  26.995  1.00  0.00    -0.001 C 
HETATM   11  C   UNL     1       4.755  20.844  26.919  1.00  0.00     0.011 C 
HETATM   12  C   UNL     1       4.728  23.570  23.932  1.00  0.00     0.014 C 
HETATM   13  C   UNL     1       9.511  25.633  23.940  1.00  0.00     0.017 C 
HETATM   14  N   UNL     1       7.189  23.588  25.963  1.00  0.00    -0.312 N 
HETATM   15  C   UNL     1       7.684  24.330  24.847  1.00  0.00     0.050 C 
HETATM   16  C   UNL     1       8.203  22.742  29.466  1.00  0.00     0.012 C 
HETATM   17  C   UNL     1       3.519  23.411  26.031  1.00  0.00     0.013 C 
HETATM   18  C   UNL     1       9.429  24.681  28.711  1.00  0.00     0.042 C 
HETATM   19  O   UNL     1       6.475  21.979  28.160  1.00  0.00    -0.361 OA
HETATM   20  C   UNL     1       4.745  23.296  25.337  1.00  0.00    -0.010 C 
HETATM   21  C   UNL     1       8.588  26.407  23.244  1.00  0.00     0.013 C 
HETATM   22  C   UNL     1       5.653  24.356  23.354  1.00  0.00     0.014 C 
HETATM   23  C   UNL     1       5.982  21.647  26.872  1.00  0.00     0.197 C 
ENDROOT
BRANCH  21  24
HETATM   24  C   UNL     1       9.001  27.542  22.394  1.00  0.00     0.190 C 
HETATM   25  O   UNL     1       8.726  28.692  22.675  1.00  0.00    -0.289 OA
BRANCH  24  26
HETATM   26  C   UNL     1       9.876  27.161  21.219  1.00  0.00     0.225 C 
BRANCH  26  27
HETATM   27  C   UNL     1       9.140  27.385  19.911  1.00  0.00     0.209 C 
HETATM   28  C   UNL     1       8.042  26.445  19.413  1.00  0.00     0.205 C 
HETATM   29  C   UNL     1       8.192  26.539  17.889  1.00  0.00     0.221 C 
HETATM   30  C   UNL     1       9.276  27.578  17.708  1.00  0.00     0.289 C 
HETATM   31  O   UNL     1      10.100  27.454  18.855  1.00  0.00    -0.347 OA
BRANCH  28  32
HETATM   32  C   UNL     1       8.226  24.990  19.849  1.00  0.00     0.214 C 
HETATM   33  O   UNL     1       7.265  24.419  20.408  1.00  0.00    -0.646 OA
HETATM   34  O   UNL     1       9.341  24.471  19.676  1.00  0.00    -0.646 OA
ENDBRANCH  28  32
BRANCH  28  35
HETATM   35  O   UNL     1       6.741  26.894  19.828  1.00  0.00    -0.374 OA
ATOM     36  HO  UNL     1       6.430  26.406  20.581  1.00  0.00     0.211 HD
ENDBRANCH  28  35
BRANCH  29  37
HETATM   37  O   UNL     1       8.576  25.328  17.283  1.00  0.00    -0.387 OA
ATOM     38  HO  UNL     1       8.602  24.633  17.930  1.00  0.00     0.210 HD
ENDBRANCH  29  37
BRANCH  30  39
HETATM   39  O   UNL     1       9.920  27.468  16.456  1.00  0.00    -0.368 OA
ATOM     40  HO  UNL     1      10.539  28.155  16.238  1.00  0.00     0.212 HD
ENDBRANCH  30  39
ENDBRANCH  26  27
BRANCH  26  41
HETATM   41  O   UNL     1      11.109  27.865  21.238  1.00  0.00    -0.385 OA
ATOM     42  HO  UNL     1      11.740  27.478  20.643  1.00  0.00     0.210 HD
ENDBRANCH  26  41
ENDBRANCH  24  26
ENDBRANCH  21  24
BRANCH  18  43
HETATM   43  C   UNL     1      10.637  25.604  28.765  1.00  0.00     0.209 C 
HETATM   44  O   UNL     1      11.782  25.069  28.755  1.00  0.00    -0.644 OA
HETATM   45  O   UNL     1      10.478  26.840  28.856  1.00  0.00    -0.644 OA
ENDBRANCH  18  43
TORSDOF 9
ENDMDL
MODEL 3
REMARK VINA RESULT:      -8.9      3.787      8.972
REMARK  9 active torsions:
REMARK  status: ('A' for Active; 'I' for Inactive)
REMARK    1  A    between atoms: C_6  and  O_38 
REMARK    2  A    between atoms: O_7  and  C_34 
REMARK    3  A    between atoms: C_10  and  C_12 
REMARK    4  A    between atoms: C_10  and  C_41 
REMARK    5  A    between atoms: C_11  and  C_23 
REMARK    6  A    between atoms: C_11  and  O_25 
REMARK    7  A    between atoms: C_12  and  C_17 
REMARK    8  A    between atoms: C_12  and  O_43 
REMARK    9  A    between atoms: C_19  and  C_36 
ROOT
HETATM    1  C   UNL     1       5.279  23.945  23.981  1.00  0.00     0.047 C 
HETATM    2  C   UNL     1       3.487  23.392  22.492  1.00  0.00     0.017 C 
HETATM    3  C   UNL     1       4.813  23.096  24.975  1.00  0.00     0.051 C 
HETATM    4  C   UNL     1       7.534  23.630  27.407  1.00  0.00    -0.008 C 
HETATM    5  C   UNL     1       6.010  25.248  26.490  1.00  0.00     0.032 C 
HETATM    6  C   UNL     1       5.425  21.551  26.672  1.00  0.00     0.060 C 
HETATM    7  C   UNL     1       6.064  18.380  26.945  1.00  0.00     0.001 C 
HETATM    8  C   UNL     1       3.485  22.385  24.778  1.00  0.00     0.196 C 
HETATM    9  C   UNL     1       8.581  24.532  27.232  1.00  0.00     0.029 C 
HETATM   10  C   UNL     1       4.671  18.458  27.003  1.00  0.00    -0.001 C 
HETATM   11  C   UNL     1       3.890  19.546  27.008  1.00  0.00     0.011 C 
HETATM   12  C   UNL     1       7.267  21.328  28.337  1.00  0.00     0.014 C 
HETATM   13  C   UNL     1       6.995  26.224  26.582  1.00  0.00     0.017 C 
HETATM   14  N   UNL     1       5.514  22.863  26.159  1.00  0.00    -0.312 N 
HETATM   15  C   UNL     1       6.336  23.899  26.701  1.00  0.00     0.050 C 
HETATM   16  C   UNL     1       3.101  22.359  23.341  1.00  0.00     0.012 C 
HETATM   17  C   UNL     1       6.865  19.504  26.786  1.00  0.00     0.013 C 
HETATM   18  C   UNL     1       4.483  24.287  22.892  1.00  0.00     0.042 C 
HETATM   19  O   UNL     1       3.664  21.015  25.117  1.00  0.00    -0.361 OA
HETATM   20  C   UNL     1       6.516  20.796  27.241  1.00  0.00    -0.010 C 
HETATM   21  C   UNL     1       8.279  25.861  26.978  1.00  0.00     0.013 C 
HETATM   22  C   UNL     1       7.750  22.582  28.322  1.00  0.00     0.014 C 
HETATM   23  C   UNL     1       4.065  20.900  26.473  1.00  0.00     0.197 C 
ENDROOT
BRANCH  21  24
HETATM   24  C   UNL     1       9.364  26.852  27.119  1.00  0.00     0.190 C 
HETATM   25  O   UNL     1      10.491  26.638  26.716  1.00  0.00    -0.289 OA
BRANCH  24  26
HETATM   26  C   UNL     1       8.930  28.179  27.704  1.00  0.00     0.225 C 
BRANCH  26  27
HETATM   27  C   UNL     1       9.354  28.287  29.157  1.00  0.00     0.209 C 
HETATM   28  C   UNL     1       8.689  27.479  30.271  1.00  0.00     0.205 C 
HETATM   29  C   UNL     1       8.806  28.419  31.477  1.00  0.00     0.221 C 
HETATM   30  C   UNL     1       9.597  29.588  30.933  1.00  0.00     0.289 C 
HETATM   31  O   UNL     1       9.258  29.655  29.559  1.00  0.00    -0.347 OA
BRANCH  28  32
HETATM   32  C   UNL     1       7.213  27.170  30.015  1.00  0.00     0.214 C 
HETATM   33  O   UNL     1       6.843  25.977  30.077  1.00  0.00    -0.646 OA
HETATM   34  O   UNL     1       6.469  28.114  29.703  1.00  0.00    -0.646 OA
ENDBRANCH  28  32
BRANCH  28  35
HETATM   35  O   UNL     1       9.388  26.247  30.513  1.00  0.00    -0.374 OA
ATOM     36  HO  UNL     1       9.627  26.159  31.428  1.00  0.00     0.211 HD
ENDBRANCH  28  35
BRANCH  29  37
HETATM   37  O   UNL     1       7.566  28.863  31.972  1.00  0.00    -0.387 OA
ATOM     38  HO  UNL     1       6.937  28.930  31.263  1.00  0.00     0.210 HD
ENDBRANCH  29  37
BRANCH  30  39
HETATM   39  O   UNL     1       9.401  30.766  31.687  1.00  0.00    -0.368 OA
ATOM     40  HO  UNL     1       9.930  30.860  32.471  1.00  0.00     0.212 HD
ENDBRANCH  30  39
ENDBRANCH  26  27
BRANCH  26  41
HETATM   41  O   UNL     1       9.428  29.270  26.944  1.00  0.00    -0.385 OA
ATOM     42  HO  UNL     1       9.798  29.944  27.502  1.00  0.00     0.210 HD
ENDBRANCH  26  41
ENDBRANCH  24  26
ENDBRANCH  21  24
BRANCH  18  43
HETATM   43  C   UNL     1       4.730  25.628  22.215  1.00  0.00     0.209 C 
HETATM   44  O   UNL     1       4.487  26.673  22.884  1.00  0.00    -0.644 OA
HETATM   45  O   UNL     1       5.120  25.669  21.030  1.00  0.00    -0.644 OA
ENDBRANCH  18  43
TORSDOF 9
ENDMDL
MODEL 4
REMARK VINA RESULT:      -8.8      2.806      8.211
REMARK  9 active torsions:
REMARK  status: ('A' for Active; 'I' for Inactive)
REMARK    1  A    between atoms: C_6  and  O_38 
REMARK    2  A    between atoms: O_7  and  C_34 
REMARK    3  A    between atoms: C_10  and  C_12 
REMARK    4  A    between atoms: C_10  and  C_41 
REMARK    5  A    between atoms: C_11  and  C_23 
REMARK    6  A    between atoms: C_11  and  O_25 
REMARK    7  A    between atoms: C_12  and  C_17 
REMARK    8  A    between atoms: C_12  and  O_43 
REMARK    9  A    between atoms: C_19  and  C_36 
ROOT
HETATM    1  C   UNL     1       7.609  24.321  27.775  1.00  0.00     0.047 C 
HETATM    2  C   UNL     1       8.706  23.536  29.753  1.00  0.00     0.017 C 
HETATM    3  C   UNL     1       7.277  23.038  27.361  1.00  0.00     0.051 C 
HETATM    4  C   UNL     1       5.388  23.962  24.331  1.00  0.00    -0.008 C 
HETATM    5  C   UNL     1       7.688  24.425  24.858  1.00  0.00     0.032 C 
HETATM    6  C   UNL     1       5.613  21.681  26.346  1.00  0.00     0.060 C 
HETATM    7  C   UNL     1       2.985  19.997  27.236  1.00  0.00     0.001 C 
HETATM    8  C   UNL     1       7.793  21.849  28.153  1.00  0.00     0.196 C 
HETATM    9  C   UNL     1       5.245  25.265  23.859  1.00  0.00     0.029 C 
HETATM   10  C   UNL     1       4.052  19.136  27.499  1.00  0.00    -0.001 C 
HETATM   11  C   UNL     1       5.356  19.312  27.247  1.00  0.00     0.011 C 
HETATM   12  C   UNL     1       3.940  21.936  24.515  1.00  0.00     0.014 C 
HETATM   13  C   UNL     1       7.613  25.609  24.136  1.00  0.00     0.017 C 
HETATM   14  N   UNL     1       6.484  22.788  26.241  1.00  0.00    -0.312 N 
HETATM   15  C   UNL     1       6.520  23.698  25.140  1.00  0.00     0.050 C 
HETATM   16  C   UNL     1       8.206  22.257  29.523  1.00  0.00     0.012 C 
HETATM   17  C   UNL     1       3.170  21.274  26.720  1.00  0.00     0.013 C 
HETATM   18  C   UNL     1       8.536  24.535  28.790  1.00  0.00     0.042 C 
HETATM   19  O   UNL     1       6.706  20.957  28.368  1.00  0.00    -0.361 OA
HETATM   20  C   UNL     1       4.247  21.640  25.882  1.00  0.00    -0.010 C 
HETATM   21  C   UNL     1       6.386  26.013  23.617  1.00  0.00     0.013 C 
HETATM   22  C   UNL     1       4.430  23.025  23.900  1.00  0.00     0.014 C 
HETATM   23  C   UNL     1       6.193  20.510  27.123  1.00  0.00     0.197 C 
ENDROOT
BRANCH  21  24
HETATM   24  C   UNL     1       6.243  27.248  22.820  1.00  0.00     0.190 C 
HETATM   25  O   UNL     1       6.232  28.350  23.334  1.00  0.00    -0.289 OA
BRANCH  24  26
HETATM   26  C   UNL     1       6.220  27.031  21.323  1.00  0.00     0.225 C 
BRANCH  26  27
HETATM   27  C   UNL     1       7.561  26.509  20.839  1.00  0.00     0.209 C 
HETATM   28  C   UNL     1       8.396  27.237  19.786  1.00  0.00     0.205 C 
HETATM   29  C   UNL     1       9.109  26.081  19.073  1.00  0.00     0.221 C 
HETATM   30  C   UNL     1       8.673  24.864  19.858  1.00  0.00     0.289 C 
HETATM   31  O   UNL     1       7.379  25.182  20.342  1.00  0.00    -0.347 OA
BRANCH  28  32
HETATM   32  C   UNL     1       7.565  28.020  18.768  1.00  0.00     0.214 C 
HETATM   33  O   UNL     1       6.460  27.547  18.424  1.00  0.00    -0.646 OA
HETATM   34  O   UNL     1       8.057  29.057  18.293  1.00  0.00    -0.646 OA
ENDBRANCH  28  32
BRANCH  28  35
HETATM   35  O   UNL     1       9.346  28.125  20.395  1.00  0.00    -0.374 OA
ATOM     36  HO  UNL     1      10.220  27.989  20.047  1.00  0.00     0.211 HD
ENDBRANCH  28  35
BRANCH  29  37
HETATM   37  O   UNL     1       8.746  25.939  17.720  1.00  0.00    -0.387 OA
ATOM     38  HO  UNL     1       7.822  25.729  17.651  1.00  0.00     0.210 HD
ENDBRANCH  29  37
BRANCH  30  39
HETATM   39  O   UNL     1       8.788  23.672  19.108  1.00  0.00    -0.368 OA
ATOM     40  HO  UNL     1       9.304  22.976  19.498  1.00  0.00     0.212 HD
ENDBRANCH  30  39
ENDBRANCH  26  27
BRANCH  26  41
HETATM   41  O   UNL     1       5.165  26.163  20.938  1.00  0.00    -0.385 OA
ATOM     42  HO  UNL     1       5.429  25.583  20.233  1.00  0.00     0.210 HD
ENDBRANCH  26  41
ENDBRANCH  24  26
ENDBRANCH  21  24
BRANCH  18  43
HETATM   43  C   UNL     1       9.327  25.835  28.780  1.00  0.00     0.209 C 
HETATM   44  O   UNL     1       9.873  26.176  27.692  1.00  0.00    -0.644 OA
HETATM   45  O   UNL     1       9.450  26.503  29.828  1.00  0.00    -0.644 OA
ENDBRANCH  18  43
TORSDOF 9
ENDMDL
MODEL 5
REMARK VINA RESULT:      -8.6      3.419      9.630
REMARK  9 active torsions:
REMARK  status: ('A' for Active; 'I' for Inactive)
REMARK    1  A    between atoms: C_6  and  O_38 
REMARK    2  A    between atoms: O_7  and  C_34 
REMARK    3  A    between atoms: C_10  and  C_12 
REMARK    4  A    between atoms: C_10  and  C_41 
REMARK    5  A    between atoms: C_11  and  C_23 
REMARK    6  A    between atoms: C_11  and  O_25 
REMARK    7  A    between atoms: C_12  and  C_17 
REMARK    8  A    between atoms: C_12  and  O_43 
REMARK    9  A    between atoms: C_19  and  C_36 
ROOT
HETATM    1  C   UNL     1       6.466  24.363  23.725  1.00  0.00     0.047 C 
HETATM    2  C   UNL     1       4.294  23.410  24.050  1.00  0.00     0.017 C 
HETATM    3  C   UNL     1       6.591  24.720  25.060  1.00  0.00     0.051 C 
HETATM    4  C   UNL     1      10.003  26.110  24.890  1.00  0.00    -0.008 C 
HETATM    5  C   UNL     1       8.037  26.824  23.703  1.00  0.00     0.032 C 
HETATM    6  C   UNL     1       8.072  24.883  26.910  1.00  0.00     0.060 C 
HETATM    7  C   UNL     1       9.170  22.992  29.309  1.00  0.00     0.001 C 
HETATM    8  C   UNL     1       5.413  24.508  25.995  1.00  0.00     0.196 C 
HETATM    9  C   UNL     1      10.744  26.237  23.718  1.00  0.00     0.029 C 
HETATM   10  C   UNL     1       7.943  23.466  29.777  1.00  0.00    -0.001 C 
HETATM   11  C   UNL     1       7.107  24.343  29.205  1.00  0.00     0.011 C 
HETATM   12  C   UNL     1      10.465  25.485  27.264  1.00  0.00     0.014 C 
HETATM   13  C   UNL     1       8.829  27.213  22.630  1.00  0.00     0.017 C 
HETATM   14  N   UNL     1       7.759  25.270  25.588  1.00  0.00    -0.312 N 
HETATM   15  C   UNL     1       8.594  26.075  24.753  1.00  0.00     0.050 C 
HETATM   16  C   UNL     1       4.451  23.525  25.429  1.00  0.00     0.012 C 
HETATM   17  C   UNL     1       9.670  23.333  28.058  1.00  0.00     0.013 C 
HETATM   18  C   UNL     1       5.240  23.976  23.192  1.00  0.00     0.042 C 
HETATM   19  O   UNL     1       5.896  23.882  27.178  1.00  0.00    -0.361 OA
HETATM   20  C   UNL     1       9.389  24.551  27.399  1.00  0.00    -0.010 C 
HETATM   21  C   UNL     1      10.193  26.935  22.655  1.00  0.00     0.013 C 
HETATM   22  C   UNL     1      10.727  26.099  26.098  1.00  0.00     0.014 C 
HETATM   23  C   UNL     1       6.857  24.715  27.808  1.00  0.00     0.197 C 
ENDROOT
BRANCH  21  24
HETATM   24  C   UNL     1      11.094  27.342  21.558  1.00  0.00     0.190 C 
HETATM   25  O   UNL     1      11.974  28.166  21.718  1.00  0.00    -0.289 OA
BRANCH  24  26
HETATM   26  C   UNL     1      10.899  26.577  20.267  1.00  0.00     0.225 C 
BRANCH  26  27
HETATM   27  C   UNL     1      10.318  27.479  19.194  1.00  0.00     0.209 C 
HETATM   28  C   UNL     1       8.869  27.367  18.721  1.00  0.00     0.205 C 
HETATM   29  C   UNL     1       8.968  27.793  17.250  1.00  0.00     0.221 C 
HETATM   30  C   UNL     1      10.421  28.181  17.096  1.00  0.00     0.289 C 
HETATM   31  O   UNL     1      11.121  27.363  18.018  1.00  0.00    -0.347 OA
BRANCH  28  32
HETATM   32  C   UNL     1       8.299  25.950  18.797  1.00  0.00     0.214 C 
HETATM   33  O   UNL     1       8.693  25.113  17.956  1.00  0.00    -0.646 OA
HETATM   34  O   UNL     1       7.432  25.720  19.656  1.00  0.00    -0.646 OA
ENDBRANCH  28  32
BRANCH  28  35
HETATM   35  O   UNL     1       8.010  28.256  19.453  1.00  0.00    -0.374 OA
ATOM     36  HO  UNL     1       7.478  27.783  20.082  1.00  0.00     0.211 HD
ENDBRANCH  28  35
BRANCH  29  37
HETATM   37  O   UNL     1       8.642  26.769  16.341  1.00  0.00    -0.387 OA
ATOM     38  HO  UNL     1       8.311  26.011  16.809  1.00  0.00     0.210 HD
ENDBRANCH  29  37
BRANCH  30  39
HETATM   39  O   UNL     1      10.852  28.123  15.752  1.00  0.00    -0.368 OA
ATOM     40  HO  UNL     1      10.237  27.758  15.126  1.00  0.00     0.212 HD
ENDBRANCH  30  39
ENDBRANCH  26  27
BRANCH  26  41
HETATM   41  O   UNL     1      12.109  25.976  19.830  1.00  0.00    -0.385 OA
ATOM     42  HO  UNL     1      12.857  26.538  19.993  1.00  0.00     0.210 HD
ENDBRANCH  26  41
ENDBRANCH  24  26
ENDBRANCH  21  24
BRANCH  18  43
HETATM   43  C   UNL     1       4.993  24.214  21.709  1.00  0.00     0.209 C 
HETATM   44  O   UNL     1       4.567  25.353  21.364  1.00  0.00    -0.644 OA
HETATM   45  O   UNL     1       5.175  23.292  20.887  1.00  0.00    -0.644 OA
ENDBRANCH  18  43
TORSDOF 9
ENDMDL
MODEL 6
REMARK VINA RESULT:      -8.5      2.415      8.948
REMARK  9 active torsions:
REMARK  status: ('A' for Active; 'I' for Inactive)
REMARK    1  A    between atoms: C_6  and  O_38 
REMARK    2  A    between atoms: O_7  and  C_34 
REMARK    3  A    between atoms: C_10  and  C_12 
REMARK    4  A    between atoms: C_10  and  C_41 
REMARK    5  A    between atoms: C_11  and  C_23 
REMARK    6  A    between atoms: C_11  and  O_25 
REMARK    7  A    between atoms: C_12  and  C_17 
REMARK    8  A    between atoms: C_12  and  O_43 
REMARK    9  A    between atoms: C_19  and  C_36 
ROOT
HETATM    1  C   UNL     1       5.562  23.988  24.238  1.00  0.00     0.047 C 
HETATM    2  C   UNL     1       3.711  23.673  22.751  1.00  0.00     0.017 C 
HETATM    3  C   UNL     1       5.030  23.140  25.198  1.00  0.00     0.051 C 
HETATM    4  C   UNL     1       7.814  23.307  27.611  1.00  0.00    -0.008 C 
HETATM    5  C   UNL     1       6.436  25.099  26.792  1.00  0.00     0.032 C 
HETATM    6  C   UNL     1       5.515  21.466  26.812  1.00  0.00     0.060 C 
HETATM    7  C   UNL     1       5.864  18.240  26.929  1.00  0.00     0.001 C 
HETATM    8  C   UNL     1       3.641  22.563  24.988  1.00  0.00     0.196 C 
HETATM    9  C   UNL     1       8.938  24.117  27.463  1.00  0.00     0.029 C 
HETATM   10  C   UNL     1       4.485  18.442  27.011  1.00  0.00    -0.001 C 
HETATM   11  C   UNL     1       3.806  19.596  27.077  1.00  0.00     0.011 C 
HETATM   12  C   UNL     1       7.347  20.997  28.438  1.00  0.00     0.014 C 
HETATM   13  C   UNL     1       7.507  25.976  26.915  1.00  0.00     0.017 C 
HETATM   14  N   UNL     1       5.719  22.788  26.359  1.00  0.00    -0.312 N 
HETATM   15  C   UNL     1       6.639  23.717  26.936  1.00  0.00     0.050 C 
HETATM   16  C   UNL     1       3.241  22.640  23.557  1.00  0.00     0.012 C 
HETATM   17  C   UNL     1       6.763  19.294  26.810  1.00  0.00     0.013 C 
HETATM   18  C   UNL     1       4.789  24.453  23.177  1.00  0.00     0.042 C 
HETATM   19  O   UNL     1       3.696  21.167  25.260  1.00  0.00    -0.361 OA
HETATM   20  C   UNL     1       6.538  20.588  27.330  1.00  0.00    -0.010 C 
HETATM   21  C   UNL     1       8.756  25.478  27.274  1.00  0.00     0.013 C 
HETATM   22  C   UNL     1       7.943  22.201  28.473  1.00  0.00     0.014 C 
HETATM   23  C   UNL     1       4.100  20.952  26.603  1.00  0.00     0.197 C 
ENDROOT
BRANCH  21  24
HETATM   24  C   UNL     1       9.929  26.359  27.446  1.00  0.00     0.190 C 
HETATM   25  O   UNL     1      10.690  26.244  28.387  1.00  0.00    -0.289 OA
BRANCH  24  26
HETATM   26  C   UNL     1      10.158  27.330  26.308  1.00  0.00     0.225 C 
BRANCH  26  27
HETATM   27  C   UNL     1      10.262  26.589  24.987  1.00  0.00     0.209 C 
HETATM   28  C   UNL     1      11.476  26.716  24.066  1.00  0.00     0.205 C 
HETATM   29  C   UNL     1      10.855  26.537  22.674  1.00  0.00     0.221 C 
HETATM   30  C   UNL     1       9.403  26.240  22.976  1.00  0.00     0.289 C 
HETATM   31  O   UNL     1       9.129  26.926  24.185  1.00  0.00    -0.347 OA
BRANCH  28  32
HETATM   32  C   UNL     1      12.169  28.077  24.137  1.00  0.00     0.214 C 
HETATM   33  O   UNL     1      11.457  29.089  24.318  1.00  0.00    -0.646 OA
HETATM   34  O   UNL     1      13.397  28.113  23.955  1.00  0.00    -0.646 OA
ENDBRANCH  28  32
BRANCH  28  35
HETATM   35  O   UNL     1      12.443  25.686  24.330  1.00  0.00    -0.374 OA
ATOM     36  HO  UNL     1      12.100  24.827  24.114  1.00  0.00     0.211 HD
ENDBRANCH  28  35
BRANCH  29  37
HETATM   37  O   UNL     1      10.955  27.680  21.859  1.00  0.00    -0.387 OA
ATOM     38  HO  UNL     1      11.714  27.611  21.292  1.00  0.00     0.210 HD
ENDBRANCH  29  37
BRANCH  30  39
HETATM   39  O   UNL     1       8.557  26.532  21.882  1.00  0.00    -0.368 OA
ATOM     40  HO  UNL     1       7.912  25.871  21.659  1.00  0.00     0.212 HD
ENDBRANCH  30  39
ENDBRANCH  26  27
BRANCH  26  41
HETATM   41  O   UNL     1       9.145  28.322  26.258  1.00  0.00    -0.385 OA
ATOM     42  HO  UNL     1       8.874  28.501  25.364  1.00  0.00     0.210 HD
ENDBRANCH  26  41
ENDBRANCH  24  26
ENDBRANCH  21  24
BRANCH  18  43
HETATM   43  C   UNL     1       5.151  25.796  22.560  1.00  0.00     0.209 C 
HETATM   44  O   UNL     1       4.886  26.836  23.228  1.00  0.00    -0.644 OA
HETATM   45  O   UNL     1       5.653  25.846  21.417  1.00  0.00    -0.644 OA
ENDBRANCH  18  43
TORSDOF 9
ENDMDL
MODEL 7
REMARK VINA RESULT:      -8.5      2.390      9.300
REMARK  9 active torsions:
REMARK  status: ('A' for Active; 'I' for Inactive)
REMARK    1  A    between atoms: C_6  and  O_38 
REMARK    2  A    between atoms: O_7  and  C_34 
REMARK    3  A    between atoms: C_10  and  C_12 
REMARK    4  A    between atoms: C_10  and  C_41 
REMARK    5  A    between atoms: C_11  and  C_23 
REMARK    6  A    between atoms: C_11  and  O_25 
REMARK    7  A    between atoms: C_12  and  C_17 
REMARK    8  A    between atoms: C_12  and  O_43 
REMARK    9  A    between atoms: C_19  and  C_36 
ROOT
HETATM    1  C   UNL     1       5.473  23.624  23.820  1.00  0.00     0.047 C 
HETATM    2  C   UNL     1       3.514  23.405  22.461  1.00  0.00     0.017 C 
HETATM    3  C   UNL     1       4.915  22.906  24.869  1.00  0.00     0.051 C 
HETATM    4  C   UNL     1       7.842  22.942  27.113  1.00  0.00    -0.008 C 
HETATM    5  C   UNL     1       6.609  24.810  26.234  1.00  0.00     0.032 C 
HETATM    6  C   UNL     1       5.321  21.307  26.578  1.00  0.00     0.060 C 
HETATM    7  C   UNL     1       5.341  18.079  26.921  1.00  0.00     0.001 C 
HETATM    8  C   UNL     1       3.464  22.469  24.776  1.00  0.00     0.196 C 
HETATM    9  C   UNL     1       9.032  23.615  26.845  1.00  0.00     0.029 C 
HETATM   10  C   UNL     1       3.998  18.433  27.059  1.00  0.00    -0.001 C 
HETATM   11  C   UNL     1       3.447  19.654  27.073  1.00  0.00     0.011 C 
HETATM   12  C   UNL     1       7.189  20.760  28.136  1.00  0.00     0.014 C 
HETATM   13  C   UNL     1       7.770  25.574  26.234  1.00  0.00     0.017 C 
HETATM   14  N   UNL     1       5.633  22.565  26.016  1.00  0.00    -0.312 N 
HETATM   15  C   UNL     1       6.676  23.428  26.472  1.00  0.00     0.050 C 
HETATM   16  C   UNL     1       2.989  22.487  23.367  1.00  0.00     0.012 C 
HETATM   17  C   UNL     1       6.336  19.019  26.676  1.00  0.00     0.013 C 
HETATM   18  C   UNL     1       4.691  24.093  22.770  1.00  0.00     0.042 C 
HETATM   19  O   UNL     1       3.391  21.098  25.150  1.00  0.00    -0.361 OA
HETATM   20  C   UNL     1       6.278  20.363  27.106  1.00  0.00    -0.010 C 
HETATM   21  C   UNL     1       8.981  24.971  26.564  1.00  0.00     0.013 C 
HETATM   22  C   UNL     1       7.907  21.893  28.049  1.00  0.00     0.014 C 
HETATM   23  C   UNL     1       3.851  20.935  26.483  1.00  0.00     0.197 C 
ENDROOT
BRANCH  21  24
HETATM   24  C   UNL     1      10.246  25.731  26.606  1.00  0.00     0.190 C 
HETATM   25  O   UNL     1      10.647  26.260  27.625  1.00  0.00    -0.289 OA
BRANCH  24  26
HETATM   26  C   UNL     1      11.041  25.700  25.319  1.00  0.00     0.225 C 
BRANCH  26  27
HETATM   27  C   UNL     1      11.345  27.110  24.845  1.00  0.00     0.209 C 
HETATM   28  C   UNL     1      10.314  27.975  24.122  1.00  0.00     0.205 C 
HETATM   29  C   UNL     1      11.190  28.826  23.193  1.00  0.00     0.221 C 
HETATM   30  C   UNL     1      12.596  28.414  23.565  1.00  0.00     0.289 C 
HETATM   31  O   UNL     1      12.486  27.065  23.987  1.00  0.00    -0.347 OA
BRANCH  28  32
HETATM   32  C   UNL     1       9.315  27.178  23.282  1.00  0.00     0.214 C 
HETATM   33  O   UNL     1       9.754  26.236  22.586  1.00  0.00    -0.646 OA
HETATM   34  O   UNL     1       8.128  27.544  23.291  1.00  0.00    -0.646 OA
ENDBRANCH  28  32
BRANCH  28  35
HETATM   35  O   UNL     1       9.590  28.807  25.043  1.00  0.00    -0.374 OA
ATOM     36  HO  UNL     1       8.937  28.307  25.520  1.00  0.00     0.211 HD
ENDBRANCH  28  35
BRANCH  29  37
HETATM   37  O   UNL     1      10.962  28.586  21.824  1.00  0.00    -0.387 OA
ATOM     38  HO  UNL     1      10.219  28.004  21.714  1.00  0.00     0.210 HD
ENDBRANCH  29  37
BRANCH  30  39
HETATM   39  O   UNL     1      13.523  28.675  22.531  1.00  0.00    -0.368 OA
ATOM     40  HO  UNL     1      14.306  29.154  22.777  1.00  0.00     0.212 HD
ENDBRANCH  30  39
ENDBRANCH  26  27
BRANCH  26  41
HETATM   41  O   UNL     1      12.232  24.940  25.459  1.00  0.00    -0.385 OA
ATOM     42  HO  UNL     1      12.886  25.407  25.967  1.00  0.00     0.210 HD
ENDBRANCH  26  41
ENDBRANCH  24  26
ENDBRANCH  21  24
BRANCH  18  43
HETATM   43  C   UNL     1       5.151  25.343  22.034  1.00  0.00     0.209 C 
HETATM   44  O   UNL     1       4.837  26.462  22.531  1.00  0.00    -0.644 OA
HETATM   45  O   UNL     1       5.781  25.243  20.960  1.00  0.00    -0.644 OA
ENDBRANCH  18  43
TORSDOF 9
ENDMDL
MODEL 8
REMARK VINA RESULT:      -8.5      3.927      7.575
REMARK  9 active torsions:
REMARK  status: ('A' for Active; 'I' for Inactive)
REMARK    1  A    between atoms: C_6  and  O_38 
REMARK    2  A    between atoms: O_7  and  C_34 
REMARK    3  A    between atoms: C_10  and  C_12 
REMARK    4  A    between atoms: C_10  and  C_41 
REMARK    5  A    between atoms: C_11  and  C_23 
REMARK    6  A    between atoms: C_11  and  O_25 
REMARK    7  A    between atoms: C_12  and  C_17 
REMARK    8  A    between atoms: C_12  and  O_43 
REMARK    9  A    between atoms: C_19  and  C_36 
ROOT
HETATM    1  C   UNL     1       7.014  23.900  28.552  1.00  0.00     0.047 C 
HETATM    2  C   UNL     1       8.532  23.022  30.183  1.00  0.00     0.017 C 
HETATM    3  C   UNL     1       6.968  22.707  27.845  1.00  0.00     0.051 C 
HETATM    4  C   UNL     1       4.515  23.735  25.290  1.00  0.00    -0.008 C 
HETATM    5  C   UNL     1       6.670  24.691  25.763  1.00  0.00     0.032 C 
HETATM    6  C   UNL     1       5.585  21.209  26.627  1.00  0.00     0.060 C 
HETATM    7  C   UNL     1       3.618  18.696  27.226  1.00  0.00     0.001 C 
HETATM    8  C   UNL     1       7.873  21.562  28.266  1.00  0.00     0.196 C 
HETATM    9  C   UNL     1       3.981  25.017  25.181  1.00  0.00     0.029 C 
HETATM   10  C   UNL     1       4.895  18.134  27.186  1.00  0.00    -0.001 C 
HETATM   11  C   UNL     1       6.064  18.722  26.900  1.00  0.00     0.011 C 
HETATM   12  C   UNL     1       3.670  21.398  25.041  1.00  0.00     0.014 C 
HETATM   13  C   UNL     1       6.198  25.940  25.378  1.00  0.00     0.017 C 
HETATM   14  N   UNL     1       6.121  22.509  26.754  1.00  0.00    -0.312 N 
HETATM   15  C   UNL     1       5.775  23.620  25.925  1.00  0.00     0.050 C 
HETATM   16  C   UNL     1       8.349  21.743  29.664  1.00  0.00     0.012 C 
HETATM   17  C   UNL     1       3.400  20.057  27.046  1.00  0.00     0.013 C 
HETATM   18  C   UNL     1       7.984  24.126  29.524  1.00  0.00     0.042 C 
HETATM   19  O   UNL     1       7.088  20.376  28.316  1.00  0.00    -0.361 OA
HETATM   20  C   UNL     1       4.224  20.894  26.261  1.00  0.00    -0.010 C 
HETATM   21  C   UNL     1       4.850  26.091  25.065  1.00  0.00     0.013 C 
HETATM   22  C   UNL     1       3.779  22.692  24.696  1.00  0.00     0.014 C 
HETATM   23  C   UNL     1       6.544  20.102  27.034  1.00  0.00     0.197 C 
ENDROOT
BRANCH  21  24
HETATM   24  C   UNL     1       4.290  27.384  24.625  1.00  0.00     0.190 C 
HETATM   25  O   UNL     1       4.363  27.761  23.472  1.00  0.00    -0.289 OA
BRANCH  24  26
HETATM   26  C   UNL     1       3.532  28.138  25.697  1.00  0.00     0.225 C 
BRANCH  26  27
HETATM   27  C   UNL     1       2.223  27.440  26.017  1.00  0.00     0.209 C 
HETATM   28  C   UNL     1       0.873  28.155  25.954  1.00  0.00     0.205 C 
HETATM   29  C   UNL     1       0.067  27.434  27.044  1.00  0.00     0.221 C 
HETATM   30  C   UNL     1       1.011  26.353  27.518  1.00  0.00     0.289 C 
HETATM   31  O   UNL     1       2.310  26.888  27.331  1.00  0.00    -0.347 OA
BRANCH  28  32
HETATM   32  C   UNL     1       0.945  29.646  26.284  1.00  0.00     0.214 C 
HETATM   33  O   UNL     1       1.795  30.022  27.121  1.00  0.00    -0.646 OA
HETATM   34  O   UNL     1       0.117  30.400  25.746  1.00  0.00    -0.646 OA
ENDBRANCH  28  32
BRANCH  28  35
HETATM   35  O   UNL     1       0.253  27.991  24.668  1.00  0.00    -0.374 OA
ATOM     36  HO  UNL     1       0.868  27.648  24.030  1.00  0.00     0.211 HD
ENDBRANCH  28  35
BRANCH  29  37
HETATM   37  O   UNL     1      -0.297  28.265  28.120  1.00  0.00    -0.387 OA
ATOM     38  HO  UNL     1      -0.881  27.800  28.708  1.00  0.00     0.210 HD
ENDBRANCH  29  37
BRANCH  30  39
HETATM   39  O   UNL     1       0.699  25.901  28.820  1.00  0.00    -0.368 OA
ATOM     40  HO  UNL     1       1.362  26.041  29.486  1.00  0.00     0.212 HD
ENDBRANCH  30  39
ENDBRANCH  26  27
BRANCH  26  41
HETATM   41  O   UNL     1       4.318  28.310  26.867  1.00  0.00    -0.385 OA
ATOM     42  HO  UNL     1       4.065  27.701  27.550  1.00  0.00     0.210 HD
ENDBRANCH  26  41
ENDBRANCH  24  26
ENDBRANCH  21  24
BRANCH  18  43
HETATM   43  C   UNL     1       8.408  25.562  29.797  1.00  0.00     0.209 C 
HETATM   44  O   UNL     1       9.473  25.742  30.454  1.00  0.00    -0.644 OA
HETATM   45  O   UNL     1       7.694  26.511  29.409  1.00  0.00    -0.644 OA
ENDBRANCH  18  43
TORSDOF 9
ENDMDL
MODEL 9
REMARK VINA RESULT:      -8.4      3.124      9.163
REMARK  9 active torsions:
REMARK  status: ('A' for Active; 'I' for Inactive)
REMARK    1  A    between atoms: C_6  and  O_38 
REMARK    2  A    between atoms: O_7  and  C_34 
REMARK    3  A    between atoms: C_10  and  C_12 
REMARK    4  A    between atoms: C_10  and  C_41 
REMARK    5  A    between atoms: C_11  and  C_23 
REMARK    6  A    between atoms: C_11  and  O_25 
REMARK    7  A    between atoms: C_12  and  C_17 
REMARK    8  A    between atoms: C_12  and  O_43 
REMARK    9  A    between atoms: C_19  and  C_36 
ROOT
HETATM    1  C   UNL     1       6.235  25.358  26.814  1.00  0.00     0.047 C 
HETATM    2  C   UNL     1       4.607  24.815  28.483  1.00  0.00     0.017 C 
HETATM    3  C   UNL     1       5.762  24.395  25.933  1.00  0.00     0.051 C 
HETATM    4  C   UNL     1       8.041  25.121  23.126  1.00  0.00    -0.008 C 
HETATM    5  C   UNL     1       8.596  24.436  25.363  1.00  0.00     0.032 C 
HETATM    6  C   UNL     1       5.303  23.883  23.660  1.00  0.00     0.060 C 
HETATM    7  C   UNL     1       2.878  24.253  21.533  1.00  0.00     0.001 C 
HETATM    8  C   UNL     1       4.661  23.453  26.389  1.00  0.00     0.196 C 
HETATM    9  C   UNL     1       9.070  26.059  23.168  1.00  0.00     0.029 C 
HETATM   10  C   UNL     1       2.540  23.102  22.246  1.00  0.00    -0.001 C 
HETATM   11  C   UNL     1       3.238  22.465  23.195  1.00  0.00     0.011 C 
HETATM   12  C   UNL     1       6.351  24.366  21.449  1.00  0.00     0.014 C 
HETATM   13  C   UNL     1       9.777  25.164  25.290  1.00  0.00     0.017 C 
HETATM   14  N   UNL     1       6.255  24.252  24.636  1.00  0.00    -0.312 N 
HETATM   15  C   UNL     1       7.619  24.580  24.365  1.00  0.00     0.050 C 
HETATM   16  C   UNL     1       3.940  24.004  27.568  1.00  0.00     0.012 C 
HETATM   17  C   UNL     1       4.030  24.983  21.804  1.00  0.00     0.013 C 
HETATM   18  C   UNL     1       5.846  25.368  28.150  1.00  0.00     0.042 C 
HETATM   19  O   UNL     1       3.672  23.404  25.367  1.00  0.00    -0.361 OA
HETATM   20  C   UNL     1       5.219  24.422  22.323  1.00  0.00    -0.010 C 
HETATM   21  C   UNL     1      10.019  25.959  24.174  1.00  0.00     0.013 C 
HETATM   22  C   UNL     1       7.574  24.754  21.849  1.00  0.00     0.014 C 
HETATM   23  C   UNL     1       4.244  22.916  24.164  1.00  0.00     0.197 C 
ENDROOT
BRANCH  21  24
HETATM   24  C   UNL     1      11.265  26.738  24.023  1.00  0.00     0.190 C 
HETATM   25  O   UNL     1      11.626  27.545  24.857  1.00  0.00    -0.289 OA
BRANCH  24  26
HETATM   26  C   UNL     1      12.093  26.369  22.812  1.00  0.00     0.225 C 
BRANCH  26  27
HETATM   27  C   UNL     1      12.268  27.570  21.899  1.00  0.00     0.209 C 
HETATM   28  C   UNL     1      11.575  27.678  20.541  1.00  0.00     0.205 C 
HETATM   29  C   UNL     1      12.582  28.496  19.721  1.00  0.00     0.221 C 
HETATM   30  C   UNL     1      13.662  28.829  20.726  1.00  0.00     0.289 C 
HETATM   31  O   UNL     1      13.662  27.745  21.640  1.00  0.00    -0.347 OA
BRANCH  28  32
HETATM   32  C   UNL     1      11.343  26.332  19.854  1.00  0.00     0.214 C 
HETATM   33  O   UNL     1      10.182  26.057  19.479  1.00  0.00    -0.646 OA
HETATM   34  O   UNL     1      12.308  25.557  19.756  1.00  0.00    -0.646 OA
ENDBRANCH  28  32
BRANCH  28  35
HETATM   35  O   UNL     1      10.321  28.371  20.647  1.00  0.00    -0.374 OA
ATOM     36  HO  UNL     1       9.610  27.856  20.285  1.00  0.00     0.211 HD
ENDBRANCH  28  35
BRANCH  29  37
HETATM   37  O   UNL     1      13.133  27.791  18.635  1.00  0.00    -0.387 OA
ATOM     38  HO  UNL     1      12.897  26.872  18.689  1.00  0.00     0.210 HD
ENDBRANCH  29  37
BRANCH  30  39
HETATM   39  O   UNL     1      14.897  29.128  20.108  1.00  0.00    -0.368 OA
ATOM     40  HO  UNL     1      15.492  28.399  19.978  1.00  0.00     0.212 HD
ENDBRANCH  30  39
ENDBRANCH  26  27
BRANCH  26  41
HETATM   41  O   UNL     1      13.350  25.825  23.186  1.00  0.00    -0.385 OA
ATOM     42  HO  UNL     1      13.933  25.749  22.440  1.00  0.00     0.210 HD
ENDBRANCH  26  41
ENDBRANCH  24  26
ENDBRANCH  21  24
BRANCH  18  43
HETATM   43  C   UNL     1       6.804  25.961  29.173  1.00  0.00     0.209 C 
HETATM   44  O   UNL     1       6.421  26.987  29.804  1.00  0.00    -0.644 OA
HETATM   45  O   UNL     1       7.935  25.458  29.338  1.00  0.00    -0.644 OA
ENDBRANCH  18  43
TORSDOF 9
ENDMDL
