REMARK  2 active torsions:
REMARK  status: ('A' for Active; 'I' for Inactive)
REMARK    1  A    between atoms: C_5  and  O_8 
REMARK    2  A    between atoms: C_5  and  O_17 
ROOT
HETATM    1  C   UNL     1      -0.645   3.695  34.265  1.00  0.00    -0.011 C 
HETATM    2  C   UNL     1       0.987   5.526  32.760  1.00  0.00     0.016 C 
HETATM    3  C   UNL     1       1.511   4.413  33.336  1.00  0.00     0.056 C 
HETATM    4  C   UNL     1      -2.513   7.821  32.638  1.00  0.00    -0.046 A 
HETATM    5  C   UNL     1      -3.113   9.693  31.188  1.00  0.00     0.167 A 
HETATM    6  C   UNL     1      -1.331   4.863  34.510  1.00  0.00     0.023 C 
HETATM    7  C   UNL     1      -2.418   6.852  33.636  1.00  0.00     0.020 A 
HETATM    8  C   UNL     1      -0.239   6.195  32.751  1.00  0.00    -0.025 A 
HETATM    9  C   UNL     1      -1.714   9.190  30.857  1.00  0.00     0.107 A 
HETATM   10  O   UNL     1       1.395   2.805  35.022  1.00  0.00    -0.288 OA
HETATM   11  C   UNL     1      -1.469   7.997  31.736  1.00  0.00    -0.046 A 
HETATM   12  C   UNL     1      -3.628   8.786  32.313  1.00  0.00     0.107 A 
HETATM   13  C   UNL     1       0.809   3.624  34.275  1.00  0.00     0.177 C 
HETATM   14  C   UNL     1      -1.307   5.979  33.658  1.00  0.00    -0.025 A 
HETATM   15  C   UNL     1      -1.347   2.463  33.794  1.00  0.00     0.052 C 
HETATM   16  C   UNL     1      -0.348   7.196  31.775  1.00  0.00     0.020 A 
ENDROOT
BRANCH   5  17
HETATM   17  O   UNL     1      -3.089  11.025  31.637  1.00  0.00    -0.365 OA
ATOM     18  HO  UNL     1      -3.962  11.339  31.843  1.00  0.00     0.213 HD
ENDBRANCH   5  17
BRANCH   5  19
HETATM   19  O   UNL     1      -4.009   9.731  30.120  1.00  0.00    -0.365 OA
ATOM     20  HO  UNL     1      -4.025   8.831  29.817  1.00  0.00     0.213 HD
ENDBRANCH   5  19
TORSDOF 2
