REMARK  3 active torsions:
REMARK  status: ('A' for Active; 'I' for Inactive)
REMARK    1  A    between atoms: C_1  and  N_20 
REMARK    2  A    between atoms: C_10  and  O_14 
REMARK    3  A    between atoms: C_10  and  O_17 
ROOT
HETATM    1  C   UNL     1      -1.341   6.821  33.731  1.00  0.00     0.101 C 
HETATM    2  C   UNL     1      -0.252   7.042  32.683  1.00  0.00     0.145 C 
HETATM    3  N   UNL     1      -0.498   8.166  31.785  1.00  0.00    -0.388 N 
ATOM      4  HN  UNL     1       0.250   8.480  31.167  1.00  0.00     0.159 HD
HETATM    5  C   UNL     1      -1.719   8.818  31.749  1.00  0.00     0.034 C 
HETATM    6  C   UNL     1      -2.882   8.183  32.262  1.00  0.00    -0.030 C 
HETATM    7  C   UNL     1      -4.127   8.727  31.933  1.00  0.00     0.009 C 
HETATM    8  C   UNL     1      -2.756   7.013  33.198  1.00  0.00     0.067 C 
HETATM    9  C   UNL     1      -3.042  10.803  31.355  1.00  0.00     0.002 C 
HETATM   10  C   UNL     1      -1.806  10.158  31.342  1.00  0.00     0.029 C 
HETATM   11  C   UNL     1      -4.197  10.095  31.649  1.00  0.00     0.001 C 
ENDROOT
BRANCH   1  12
HETATM   12  N   UNL     1      -1.259   5.487  34.326  1.00  0.00    -0.406 N 
HETATM   13  C   UNL     1      -1.341   4.281  33.536  1.00  0.00     0.122 C 
HETATM   14  C   UNL     1      -0.031   3.505  33.658  1.00  0.00     0.087 C 
HETATM   15  C   UNL     1       0.230   3.176  35.131  1.00  0.00     0.162 C 
HETATM   16  C   UNL     1      -0.044   4.267  36.163  1.00  0.00     0.087 C 
HETATM   17  C   UNL     1      -0.985   5.380  35.741  1.00  0.00     0.122 C 
BRANCH  15  18
HETATM   18  O   UNL     1      -0.531   2.051  35.471  1.00  0.00    -0.365 OA
ATOM     19  HO  UNL     1      -0.360   1.372  34.829  1.00  0.00     0.213 HD
ENDBRANCH  15  18
BRANCH  15  20
HETATM   20  O   UNL     1       1.585   2.822  35.240  1.00  0.00    -0.365 OA
ATOM     21  HO  UNL     1       1.756   2.143  34.598  1.00  0.00     0.213 HD
ENDBRANCH  15  20
ENDBRANCH   1  12
TORSDOF 3
