REMARK  1 active torsions:
REMARK  status: ('A' for Active; 'I' for Inactive)
REMARK    1  A    between atoms: C_22  and  C_24 
ROOT
HETATM    1  C   UNL     1     -68.854 -25.844   4.727  1.00  0.00     0.197 C 
HETATM    2  C   UNL     1     -68.516 -27.422   2.858  1.00  0.00     0.017 C 
HETATM    3  O   UNL     1     -62.186 -25.282   2.487  1.00  0.00    -0.273 OA
HETATM    4  C   UNL     1     -63.383 -25.125   2.227  1.00  0.00     0.225 C 
HETATM    5  O   UNL     1     -67.280 -23.893   6.460  1.00  0.00    -0.287 OA
HETATM    6  C   UNL     1     -66.983 -24.133   5.280  1.00  0.00     0.186 C 
HETATM    7  C   UNL     1     -65.664 -23.875   4.747  1.00  0.00     0.064 C 
HETATM    8  C   UNL     1     -65.259 -26.513   1.294  1.00  0.00     0.103 C 
HETATM    9  C   UNL     1     -67.985 -24.705   4.326  1.00  0.00     0.066 C 
HETATM   10  C   UNL     1     -64.119 -23.928   2.773  1.00  0.00     0.142 C 
HETATM   11  O   UNL     1     -69.097 -26.066   5.908  1.00  0.00    -0.286 OA
HETATM   12  C   UNL     1     -65.412 -24.308   3.448  1.00  0.00    -0.034 C 
HETATM   13  C   UNL     1     -66.434 -26.173   2.005  1.00  0.00    -0.010 C 
HETATM   14  N   UNL     1     -64.061 -25.934   1.325  1.00  0.00    -0.336 N 
ATOM     15  HN  UNL     1     -63.511 -26.131   0.489  1.00  0.00     0.168 HD
HETATM   16  C   UNL     1     -69.399 -26.708   3.645  1.00  0.00     0.026 C 
HETATM   17  C   UNL     1     -66.502 -24.939   2.730  1.00  0.00    -0.017 C 
HETATM   18  C   UNL     1     -67.787 -24.357   2.975  1.00  0.00     0.032 C 
HETATM   19  C   UNL     1     -67.501 -27.106   1.982  1.00  0.00     0.014 C 
ENDROOT
BRANCH  16  20
HETATM   20  C   UNL     1     -70.859 -26.860   3.433  1.00  0.00    -0.007 C 
HETATM   21  C   UNL     1     -71.790 -26.079   4.114  1.00  0.00     0.100 C 
HETATM   22  N   UNL     1     -73.113 -26.196   3.904  1.00  0.00    -0.374 N 
HETATM   23  C   UNL     1     -73.587 -27.190   3.122  1.00  0.00     0.087 C 
ATOM     24  HN  UNL     1     -73.758 -25.534   4.335  1.00  0.00     0.164 HD
HETATM   25  C   UNL     1     -72.737 -27.900   2.313  1.00  0.00     0.018 C 
HETATM   26  C   UNL     1     -71.364 -27.755   2.494  1.00  0.00     0.015 C 
ENDBRANCH  16  20
TORSDOF 1
