REMARK  1 active torsions:
REMARK  status: ('A' for Active; 'I' for Inactive)
REMARK    1  A    between atoms: C_18  and  O_22 
ROOT
HETATM    1  O   UNL     1      18.843  59.917  24.902  1.00  0.00    -0.261 OA
HETATM    2  O   UNL     1      17.657  60.750  23.187  1.00  0.00    -0.299 OA
HETATM    3  C   UNL     1      23.242  60.923  20.651  1.00  0.00     0.075 C 
HETATM    4  C   UNL     1      21.258  60.849  23.732  1.00  0.00     0.332 C 
HETATM    5  N   UNL     1      18.854  62.151  21.633  1.00  0.00    -0.355 N 
ATOM      6  HN  UNL     1      18.821  62.849  20.890  1.00  0.00     0.163 HD
HETATM    7  C   UNL     1      22.433  61.667  21.793  1.00  0.00     0.324 C 
HETATM    8  C   UNL     1      18.821  60.374  23.776  1.00  0.00     0.305 C 
HETATM    9  C   UNL     1      24.746  60.205  22.524  1.00  0.00    -0.040 C 
HETATM   10  N   UNL     1      22.355  60.542  22.793  1.00  0.00     0.119 N 
HETATM   11  C   UNL     1      26.603  59.238  20.697  1.00  0.00    -0.003 C 
HETATM   12  C   UNL     1      25.299  62.216  21.204  1.00  0.00     0.025 C 
HETATM   13  C   UNL     1      24.688  60.815  21.153  1.00  0.00     0.002 C 
HETATM   14  C   UNL     1      25.839  59.476  22.973  1.00  0.00     0.006 C 
HETATM   15  C   UNL     1      17.691  61.979  22.464  1.00  0.00     0.302 C 
HETATM   16  C   UNL     1      26.802  59.042  22.060  1.00  0.00     0.000 C 
HETATM   17  C   UNL     1      19.962  61.447  21.787  1.00  0.00     0.123 C 
HETATM   18  C   UNL     1      20.053  60.427  22.903  1.00  0.00     0.230 C 
HETATM   19  N   UNL     1      21.095  61.752  21.144  1.00  0.00    -0.347 N 
ATOM     20  HN  UNL     1      21.040  62.055  20.171  1.00  0.00     0.163 HD
HETATM   21  C   UNL     1      23.637  60.477  23.494  1.00  0.00     0.310 C 
HETATM   22  C   UNL     1      25.505  59.968  20.214  1.00  0.00    -0.013 C 
ENDROOT
BRANCH  18  23
HETATM   23  O   UNL     1      20.252  59.173  22.269  1.00  0.00    -0.371 OA
ATOM     24  HO  UNL     1      19.500  58.910  21.752  1.00  0.00     0.211 HD
ENDBRANCH  18  23
TORSDOF 1
