MODEL 1
REMARK VINA RESULT:     -10.7      0.000      0.000
REMARK  1 active torsions:
REMARK  status: ('A' for Active; 'I' for Inactive)
REMARK    1  A    between atoms: C_1  and  C_7 
ROOT
HETATM    1  C   UNL     1      -2.758  -9.666  24.508  1.00  0.00    -0.014 C 
HETATM    2  C   UNL     1      -2.477  -7.774  21.673  1.00  0.00     0.015 A 
HETATM    3  C   UNL     1      -0.533 -12.729  18.045  1.00  0.00    -0.013 C 
HETATM    4  C   UNL     1      -2.885 -10.306  25.872  1.00  0.00     0.096 C 
HETATM    5  C   UNL     1      -0.561  -9.996  17.891  1.00  0.00    -0.032 C 
HETATM    6  C   UNL     1      -0.336  -8.212  20.615  1.00  0.00    -0.046 C 
HETATM    7  C   UNL     1      -0.070 -12.339  19.296  1.00  0.00     0.028 C 
HETATM    8  C   UNL     1      -0.406 -10.044  19.342  1.00  0.00     0.223 A 
HETATM    9  O   UNL     1      -2.682 -12.665  17.198  1.00  0.00    -0.288 OA
HETATM   10  N   UNL     1      -0.685 -10.521  20.519  1.00  0.00     0.003 N 
HETATM   11  C   UNL     1       0.134 -10.169  21.547  1.00  0.00     0.140 C 
HETATM   12  N   UNL     1      -1.977  -8.605  24.344  1.00  0.00    -0.396 N 
ATOM     13  HN  UNL     1      -0.967  -8.750  24.356  1.00  0.00     0.159 HD
HETATM   14  C   UNL     1       0.079 -13.831  17.345  1.00  0.00     0.052 C 
HETATM   15  C   UNL     1       0.977 -11.416  23.565  1.00  0.00     0.019 C 
HETATM   16  C   UNL     1       0.719 -11.115  22.328  1.00  0.00     0.038 C 
HETATM   17  C   UNL     1      -2.751  -6.742  22.745  1.00  0.00     0.004 A 
HETATM   18  C   UNL     1      -0.912 -11.135  27.226  1.00  0.00     0.099 C 
HETATM   19  C   UNL     1      -1.448  -7.226  20.690  1.00  0.00     0.019 A 
HETATM   20  C   UNL     1       0.067  -8.756  19.470  1.00  0.00    -0.029 C 
HETATM   21  C   UNL     1      -1.018 -11.806  24.955  1.00  0.00     0.191 C 
HETATM   22  C   UNL     1       0.369 -11.512  24.794  1.00  0.00     0.030 C 
HETATM   23  C   UNL     1      -1.077  -5.839  21.167  1.00  0.00     0.010 A 
HETATM   24  C   UNL     1      -2.465  -7.246  24.148  1.00  0.00     0.123 C 
HETATM   25  C   UNL     1      -0.244  -8.702  17.187  1.00  0.00     0.042 C 
HETATM   26  O   UNL     1      -1.641 -12.616  24.174  1.00  0.00    -0.287 OA
HETATM   27  C   UNL     1      -1.639 -11.138  26.056  1.00  0.00     0.013 C 
HETATM   28  C   UNL     1      -1.613 -11.245  20.697  1.00  0.00     0.295 A 
HETATM   29  C   UNL     1      -1.586 -12.070  17.471  1.00  0.00     0.177 C 
HETATM   30  C   UNL     1       0.246  -8.834  21.668  1.00  0.00     0.045 C 
HETATM   31  N   UNL     1       0.436 -11.228  27.167  1.00  0.00    -0.374 N 
ATOM     32  HN  UNL     1       0.977 -11.264  28.031  1.00  0.00     0.164 HD
HETATM   33  C   UNL     1      -1.920  -5.520  22.390  1.00  0.00     0.007 A 
HETATM   34  C   UNL     1       1.077 -11.272  25.967  1.00  0.00     0.103 C 
HETATM   35  C   UNL     1       0.615  -8.093  18.279  1.00  0.00     0.042 C 
HETATM   36  C   UNL     1      -1.525 -10.719  17.203  1.00  0.00     0.061 C 
HETATM   37  C   UNL     1      -0.722 -11.164  19.811  1.00  0.00     0.222 A 
ENDROOT
BRANCH   1  38
HETATM   38  C   UNL     1      -3.457 -10.340  23.365  1.00  0.00     0.048 C 
HETATM   39  C   UNL     1      -4.627 -11.173  23.870  1.00  0.00     0.011 C 
ENDBRANCH   1  38
TORSDOF 1
ENDMDL
MODEL 2
REMARK VINA RESULT:      -9.5      2.739      5.629
REMARK  1 active torsions:
REMARK  status: ('A' for Active; 'I' for Inactive)
REMARK    1  A    between atoms: C_1  and  C_7 
ROOT
HETATM    1  C   UNL     1      -2.396  -9.818  27.894  1.00  0.00    -0.014 C 
HETATM    2  C   UNL     1      -0.103 -10.724  25.524  1.00  0.00     0.015 A 
HETATM    3  C   UNL     1      -2.923  -7.281  20.867  1.00  0.00    -0.013 C 
HETATM    4  C   UNL     1      -3.330  -9.592  29.062  1.00  0.00     0.096 C 
HETATM    5  C   UNL     1      -1.072  -9.289  21.062  1.00  0.00    -0.032 C 
HETATM    6  C   UNL     1      -1.258 -11.438  23.511  1.00  0.00    -0.046 C 
HETATM    7  C   UNL     1      -3.509  -8.162  21.766  1.00  0.00     0.028 C 
HETATM    8  C   UNL     1      -1.838  -9.702  22.234  1.00  0.00     0.223 A 
HETATM    9  O   UNL     1      -1.167  -5.814  21.194  1.00  0.00    -0.288 OA
HETATM   10  N   UNL     1      -2.489  -9.460  23.334  1.00  0.00     0.003 N 
HETATM   11  C   UNL     1      -3.225 -10.476  23.861  1.00  0.00     0.140 C 
HETATM   12  N   UNL     1      -2.126 -11.055  27.492  1.00  0.00    -0.396 N 
ATOM     13  HN  UNL     1      -2.856 -11.563  26.991  1.00  0.00     0.159 HD
HETATM   14  C   UNL     1      -3.708  -6.651  19.836  1.00  0.00     0.052 C 
HETATM   15  C   UNL     1      -5.443 -10.541  25.049  1.00  0.00     0.019 C 
HETATM   16  C   UNL     1      -4.544 -10.309  24.142  1.00  0.00     0.038 C 
HETATM   17  C   UNL     1       0.263 -11.599  26.704  1.00  0.00     0.004 A 
HETATM   18  C   UNL     1      -5.692 -10.498  29.170  1.00  0.00     0.099 C 
HETATM   19  C   UNL     1       0.040 -11.525  24.234  1.00  0.00     0.019 A 
HETATM   20  C   UNL     1      -1.358 -10.993  22.262  1.00  0.00    -0.029 C 
HETATM   21  C   UNL     1      -5.061  -9.372  27.183  1.00  0.00     0.191 C 
HETATM   22  C   UNL     1      -5.666 -10.399  26.399  1.00  0.00     0.030 C 
HETATM   23  C   UNL     1       0.494 -12.913  24.623  1.00  0.00     0.010 A 
HETATM   24  C   UNL     1      -0.858 -11.736  27.718  1.00  0.00     0.123 C 
HETATM   25  C   UNL     1      -0.125 -10.287  20.446  1.00  0.00     0.042 C 
HETATM   26  O   UNL     1      -4.852  -8.191  26.720  1.00  0.00    -0.287 OA
HETATM   27  C   UNL     1      -4.726  -9.767  28.515  1.00  0.00     0.013 C 
HETATM   28  C   UNL     1      -2.455  -8.392  23.859  1.00  0.00     0.295 A 
HETATM   29  C   UNL     1      -1.587  -6.997  20.963  1.00  0.00     0.177 C 
HETATM   30  C   UNL     1      -2.486 -11.580  24.065  1.00  0.00     0.045 C 
HETATM   31  N   UNL     1      -6.567 -11.234  28.450  1.00  0.00    -0.374 N 
ATOM     32  HN  UNL     1      -7.308 -11.747  28.927  1.00  0.00     0.164 HD
HETATM   33  C   UNL     1       0.690 -12.941  26.130  1.00  0.00     0.007 A 
HETATM   34  C   UNL     1      -6.469 -11.297  27.093  1.00  0.00     0.103 C 
HETATM   35  C   UNL     1      -0.748 -11.536  21.040  1.00  0.00     0.042 C 
HETATM   36  C   UNL     1      -0.635  -7.988  20.856  1.00  0.00     0.061 C 
HETATM   37  C   UNL     1      -2.570  -8.779  22.666  1.00  0.00     0.222 A 
ENDROOT
BRANCH   1  38
HETATM   38  C   UNL     1      -1.892  -8.605  27.172  1.00  0.00     0.048 C 
HETATM   39  C   UNL     1      -1.011  -7.765  28.086  1.00  0.00     0.011 C 
ENDBRANCH   1  38
TORSDOF 1
ENDMDL
MODEL 3
REMARK VINA RESULT:      -8.2      3.705      6.844
REMARK  1 active torsions:
REMARK  status: ('A' for Active; 'I' for Inactive)
REMARK    1  A    between atoms: C_1  and  C_7 
ROOT
HETATM    1  C   UNL     1      -1.548 -11.304  28.414  1.00  0.00    -0.014 C 
HETATM    2  C   UNL     1      -0.219 -10.597  25.342  1.00  0.00     0.015 A 
HETATM    3  C   UNL     1      -3.402  -5.026  24.773  1.00  0.00    -0.013 C 
HETATM    4  C   UNL     1      -2.065 -11.828  29.734  1.00  0.00     0.096 C 
HETATM    5  C   UNL     1      -2.030  -6.748  23.147  1.00  0.00    -0.032 C 
HETATM    6  C   UNL     1      -1.995  -9.942  23.822  1.00  0.00    -0.046 C 
HETATM    7  C   UNL     1      -3.897  -6.270  25.145  1.00  0.00     0.028 C 
HETATM    8  C   UNL     1      -2.521  -7.785  24.051  1.00  0.00     0.223 A 
HETATM    9  O   UNL     1      -1.357  -4.064  25.254  1.00  0.00    -0.288 OA
HETATM   10  N   UNL     1      -2.787  -8.256  25.234  1.00  0.00     0.003 N 
HETATM   11  C   UNL     1      -3.549  -9.381  25.302  1.00  0.00     0.140 C 
HETATM   12  N   UNL     1      -1.661 -12.045  27.317  1.00  0.00    -0.396 N 
ATOM     13  HN  UNL     1      -2.588 -12.143  26.902  1.00  0.00     0.159 HD
HETATM   14  C   UNL     1      -4.287  -3.897  24.627  1.00  0.00     0.052 C 
HETATM   15  C   UNL     1      -5.329 -10.144  26.910  1.00  0.00     0.019 C 
HETATM   16  C   UNL     1      -4.679  -9.413  26.056  1.00  0.00     0.038 C 
HETATM   17  C   UNL     1       0.260 -12.009  25.604  1.00  0.00     0.004 A 
HETATM   18  C   UNL     1      -4.446 -12.606  30.105  1.00  0.00     0.099 C 
HETATM   19  C   UNL     1      -0.599 -10.453  23.872  1.00  0.00     0.019 A 
HETATM   20  C   UNL     1      -2.332  -8.830  23.174  1.00  0.00    -0.029 C 
HETATM   21  C   UNL     1      -4.152 -10.508  29.042  1.00  0.00     0.191 C 
HETATM   22  C   UNL     1      -5.146 -10.848  28.077  1.00  0.00     0.030 C 
HETATM   23  C   UNL     1      -0.357 -11.796  23.220  1.00  0.00     0.010 A 
HETATM   24  C   UNL     1      -0.550 -12.728  26.667  1.00  0.00     0.123 C 
HETATM   25  C   UNL     1      -1.513  -7.173  21.796  1.00  0.00     0.042 C 
HETATM   26  O   UNL     1      -3.833  -9.289  29.295  1.00  0.00    -0.287 OA
HETATM   27  C   UNL     1      -3.561 -11.631  29.701  1.00  0.00     0.013 C 
HETATM   28  C   UNL     1      -2.391  -7.724  26.222  1.00  0.00     0.295 A 
HETATM   29  C   UNL     1      -2.062  -4.863  24.552  1.00  0.00     0.177 C 
HETATM   30  C   UNL     1      -3.030 -10.386  24.574  1.00  0.00     0.045 C 
HETATM   31  N   UNL     1      -5.617 -12.752  29.445  1.00  0.00    -0.374 N 
ATOM     32  HN  UNL     1      -6.292 -13.446  29.762  1.00  0.00     0.164 HD
HETATM   33  C   UNL     1       0.226 -12.731  24.266  1.00  0.00     0.007 A 
HETATM   34  C   UNL     1      -5.902 -11.981  28.360  1.00  0.00     0.103 C 
HETATM   35  C   UNL     1      -2.200  -8.524  21.742  1.00  0.00     0.042 C 
HETATM   36  C   UNL     1      -1.402  -5.591  23.584  1.00  0.00     0.061 C 
HETATM   37  C   UNL     1      -2.900  -7.309  25.148  1.00  0.00     0.222 A 
ENDROOT
BRANCH   1  38
HETATM   38  C   UNL     1      -1.015  -9.903  28.390  1.00  0.00     0.048 C 
HETATM   39  C   UNL     1      -0.123  -9.649  29.598  1.00  0.00     0.011 C 
ENDBRANCH   1  38
TORSDOF 1
ENDMDL
