MODEL 1
REMARK VINA RESULT:      -8.4      0.000      0.000
REMARK  2 active torsions:
REMARK  status: ('A' for Active; 'I' for Inactive)
REMARK    1  A    between atoms: C_8  and  C_14 
REMARK    2  A    between atoms: N_15  and  C_19 
ROOT
HETATM    1  C   UNL     1       3.649   6.539  22.333  1.00  0.00     0.128 C 
HETATM    2  C   UNL     1       5.792   8.392  21.626  1.00  0.00     0.058 C 
HETATM    3  C   UNL     1       5.807   7.840  23.077  1.00  0.00     0.008 C 
HETATM    4  C   UNL     1       4.698   6.835  23.422  1.00  0.00     0.021 C 
HETATM    5  C   UNL     1       5.261   7.407  20.544  1.00  0.00     0.021 C 
HETATM    6  N   UNL     1       4.078   6.568  20.886  1.00  0.00    -0.356 N 
ENDROOT
BRANCH   5   7
HETATM    7  C   UNL     1       6.154   7.198  19.324  1.00  0.00    -0.013 C 
HETATM    8  C   UNL     1       5.615   6.548  18.142  1.00  0.00     0.013 C 
HETATM    9  C   UNL     1       6.404   6.277  16.987  1.00  0.00     0.001 C 
HETATM   10  C   UNL     1       7.304   7.215  16.384  1.00  0.00     0.000 C 
HETATM   11  C   UNL     1       8.090   8.170  17.044  1.00  0.00     0.000 C 
HETATM   12  C   UNL     1       8.312   8.272  18.474  1.00  0.00     0.001 C 
HETATM   13  C   UNL     1       7.573   7.604  19.466  1.00  0.00     0.013 C 
ENDBRANCH   5   7
BRANCH   6  14
HETATM   14  C   UNL     1       3.013   6.125  19.977  1.00  0.00    -0.004 C 
HETATM   15  C   UNL     1       2.242   7.058  19.169  1.00  0.00     0.080 C 
HETATM   16  C   UNL     1       0.979   6.675  18.603  1.00  0.00    -0.021 C 
HETATM   17  C   UNL     1       0.692   5.286  18.462  1.00  0.00    -0.007 C 
HETATM   18  C   UNL     1       1.626   4.304  18.934  1.00  0.00    -0.021 C 
HETATM   19  C   UNL     1       2.700   4.696  19.814  1.00  0.00     0.080 C 
ENDBRANCH   6  14
TORSDOF 2
ENDMDL
MODEL 2
REMARK VINA RESULT:      -8.3      1.119      5.183
REMARK  2 active torsions:
REMARK  status: ('A' for Active; 'I' for Inactive)
REMARK    1  A    between atoms: C_8  and  C_14 
REMARK    2  A    between atoms: N_15  and  C_19 
ROOT
HETATM    1  C   UNL     1       5.957   7.693  21.246  1.00  0.00     0.128 C 
HETATM    2  C   UNL     1       3.564   6.064  21.631  1.00  0.00     0.058 C 
HETATM    3  C   UNL     1       4.010   6.933  22.838  1.00  0.00     0.008 C 
HETATM    4  C   UNL     1       5.245   7.815  22.607  1.00  0.00     0.021 C 
HETATM    5  C   UNL     1       3.837   6.683  20.228  1.00  0.00     0.021 C 
HETATM    6  N   UNL     1       5.129   7.395  20.019  1.00  0.00    -0.356 N 
ENDROOT
BRANCH   5   7
HETATM    7  C   UNL     1       2.650   6.734  19.270  1.00  0.00    -0.013 C 
HETATM    8  C   UNL     1       1.702   5.633  19.242  1.00  0.00     0.013 C 
HETATM    9  C   UNL     1       0.599   5.591  18.340  1.00  0.00     0.001 C 
HETATM   10  C   UNL     1      -0.274   6.697  18.079  1.00  0.00     0.000 C 
HETATM   11  C   UNL     1       0.078   8.054  18.030  1.00  0.00     0.000 C 
HETATM   12  C   UNL     1       1.421   8.602  18.031  1.00  0.00     0.001 C 
HETATM   13  C   UNL     1       2.594   7.892  18.347  1.00  0.00     0.013 C 
ENDBRANCH   5   7
BRANCH   6  14
HETATM   14  C   UNL     1       5.919   7.453  18.784  1.00  0.00    -0.004 C 
HETATM   15  C   UNL     1       5.988   6.339  17.850  1.00  0.00     0.080 C 
HETATM   16  C   UNL     1       7.041   6.253  16.878  1.00  0.00    -0.021 C 
HETATM   17  C   UNL     1       7.749   7.442  16.539  1.00  0.00    -0.007 C 
HETATM   18  C   UNL     1       7.446   8.678  17.203  1.00  0.00    -0.021 C 
HETATM   19  C   UNL     1       6.657   8.671  18.410  1.00  0.00     0.080 C 
ENDBRANCH   6  14
TORSDOF 2
ENDMDL
MODEL 3
REMARK VINA RESULT:      -8.2      1.406      4.521
REMARK  2 active torsions:
REMARK  status: ('A' for Active; 'I' for Inactive)
REMARK    1  A    between atoms: C_8  and  C_14 
REMARK    2  A    between atoms: N_15  and  C_19 
ROOT
HETATM    1  C   UNL     1       4.147   7.754  16.677  1.00  0.00     0.128 C 
HETATM    2  C   UNL     1       6.181   6.780  18.531  1.00  0.00     0.058 C 
HETATM    3  C   UNL     1       6.683   7.663  17.356  1.00  0.00     0.008 C 
HETATM    4  C   UNL     1       5.598   8.202  16.414  1.00  0.00     0.021 C 
HETATM    5  C   UNL     1       4.771   7.143  19.082  1.00  0.00     0.021 C 
HETATM    6  N   UNL     1       3.711   7.507  18.101  1.00  0.00    -0.356 N 
ENDROOT
BRANCH   5   7
HETATM    7  C   UNL     1       4.669   7.349  20.591  1.00  0.00    -0.013 C 
HETATM    8  C   UNL     1       3.550   6.777  21.320  1.00  0.00     0.013 C 
HETATM    9  C   UNL     1       3.365   6.970  22.720  1.00  0.00     0.001 C 
HETATM   10  C   UNL     1       4.406   6.848  23.697  1.00  0.00     0.000 C 
HETATM   11  C   UNL     1       5.754   7.201  23.539  1.00  0.00     0.000 C 
HETATM   12  C   UNL     1       6.332   7.948  22.438  1.00  0.00     0.001 C 
HETATM   13  C   UNL     1       5.699   8.217  21.211  1.00  0.00     0.013 C 
ENDBRANCH   5   7
BRANCH   6  14
HETATM   14  C   UNL     1       2.273   7.231  18.206  1.00  0.00    -0.004 C 
HETATM   15  C   UNL     1       1.753   5.896  18.461  1.00  0.00     0.080 C 
HETATM   16  C   UNL     1       0.384   5.570  18.177  1.00  0.00    -0.021 C 
HETATM   17  C   UNL     1      -0.557   6.633  18.063  1.00  0.00    -0.007 C 
HETATM   18  C   UNL     1      -0.123   7.997  18.173  1.00  0.00    -0.021 C 
HETATM   19  C   UNL     1       1.281   8.314  18.094  1.00  0.00     0.080 C 
ENDBRANCH   6  14
TORSDOF 2
ENDMDL
MODEL 4
REMARK VINA RESULT:      -8.0      1.230      5.111
REMARK  2 active torsions:
REMARK  status: ('A' for Active; 'I' for Inactive)
REMARK    1  A    between atoms: C_8  and  C_14 
REMARK    2  A    between atoms: N_15  and  C_19 
ROOT
HETATM    1  C   UNL     1       7.082   7.578  20.036  1.00  0.00     0.128 C 
HETATM    2  C   UNL     1       5.576   8.412  17.677  1.00  0.00     0.058 C 
HETATM    3  C   UNL     1       7.062   8.024  17.447  1.00  0.00     0.008 C 
HETATM    4  C   UNL     1       7.829   7.548  18.688  1.00  0.00     0.021 C 
HETATM    5  C   UNL     1       4.845   7.612  18.794  1.00  0.00     0.021 C 
HETATM    6  N   UNL     1       5.596   7.316  20.047  1.00  0.00    -0.356 N 
ENDROOT
BRANCH   5   7
HETATM    7  C   UNL     1       3.513   6.974  18.406  1.00  0.00    -0.013 C 
HETATM    8  C   UNL     1       3.343   5.536  18.528  1.00  0.00     0.013 C 
HETATM    9  C   UNL     1       2.145   4.869  18.139  1.00  0.00     0.001 C 
HETATM   10  C   UNL     1       0.825   5.319  18.467  1.00  0.00     0.000 C 
HETATM   11  C   UNL     1       0.389   6.649  18.561  1.00  0.00     0.000 C 
HETATM   12  C   UNL     1       1.119   7.832  18.149  1.00  0.00     0.001 C 
HETATM   13  C   UNL     1       2.489   7.879  17.833  1.00  0.00     0.013 C 
ENDBRANCH   5   7
BRANCH   6  14
HETATM   14  C   UNL     1       5.052   7.232  21.407  1.00  0.00    -0.004 C 
HETATM   15  C   UNL     1       5.853   7.531  22.585  1.00  0.00     0.080 C 
HETATM   16  C   UNL     1       5.449   7.078  23.887  1.00  0.00    -0.021 C 
HETATM   17  C   UNL     1       4.084   6.727  24.090  1.00  0.00    -0.007 C 
HETATM   18  C   UNL     1       3.156   6.772  22.995  1.00  0.00    -0.021 C 
HETATM   19  C   UNL     1       3.644   6.873  21.642  1.00  0.00     0.080 C 
ENDBRANCH   6  14
TORSDOF 2
ENDMDL
MODEL 5
REMARK VINA RESULT:      -8.0      0.878      1.346
REMARK  2 active torsions:
REMARK  status: ('A' for Active; 'I' for Inactive)
REMARK    1  A    between atoms: C_8  and  C_14 
REMARK    2  A    between atoms: N_15  and  C_19 
ROOT
HETATM    1  C   UNL     1       3.856   6.359  22.095  1.00  0.00     0.128 C 
HETATM    2  C   UNL     1       5.509   8.683  21.468  1.00  0.00     0.058 C 
HETATM    3  C   UNL     1       5.864   7.913  22.769  1.00  0.00     0.008 C 
HETATM    4  C   UNL     1       5.013   6.670  23.064  1.00  0.00     0.021 C 
HETATM    5  C   UNL     1       4.970   7.804  20.301  1.00  0.00     0.021 C 
HETATM    6  N   UNL     1       4.019   6.707  20.636  1.00  0.00    -0.356 N 
ENDROOT
BRANCH   5   7
HETATM    7  C   UNL     1       5.662   7.975  18.951  1.00  0.00    -0.013 C 
HETATM    8  C   UNL     1       5.887   9.310  18.423  1.00  0.00     0.013 C 
HETATM    9  C   UNL     1       6.483   9.542  17.150  1.00  0.00     0.001 C 
HETATM   10  C   UNL     1       7.653   8.869  16.670  1.00  0.00     0.000 C 
HETATM   11  C   UNL     1       8.015   7.535  16.911  1.00  0.00     0.000 C 
HETATM   12  C   UNL     1       7.190   6.509  17.519  1.00  0.00     0.001 C 
HETATM   13  C   UNL     1       5.986   6.732  18.212  1.00  0.00     0.013 C 
ENDBRANCH   5   7
BRANCH   6  14
HETATM   14  C   UNL     1       2.902   6.221  19.816  1.00  0.00    -0.004 C 
HETATM   15  C   UNL     1       2.182   7.084  18.892  1.00  0.00     0.080 C 
HETATM   16  C   UNL     1       0.881   6.722  18.404  1.00  0.00    -0.021 C 
HETATM   17  C   UNL     1       0.488   5.355  18.472  1.00  0.00    -0.007 C 
HETATM   18  C   UNL     1       1.358   4.381  19.069  1.00  0.00    -0.021 C 
HETATM   19  C   UNL     1       2.479   4.812  19.867  1.00  0.00     0.080 C 
ENDBRANCH   6  14
TORSDOF 2
ENDMDL
MODEL 6
REMARK VINA RESULT:      -7.9      1.299      5.203
REMARK  2 active torsions:
REMARK  status: ('A' for Active; 'I' for Inactive)
REMARK    1  A    between atoms: C_8  and  C_14 
REMARK    2  A    between atoms: N_15  and  C_19 
ROOT
HETATM    1  C   UNL     1       3.396   5.403  17.800  1.00  0.00     0.128 C 
HETATM    2  C   UNL     1       2.150   6.355  20.263  1.00  0.00     0.058 C 
HETATM    3  C   UNL     1       1.676   4.973  19.739  1.00  0.00     0.008 C 
HETATM    4  C   UNL     1       2.369   4.467  18.466  1.00  0.00     0.021 C 
HETATM    5  C   UNL     1       3.647   6.690  19.998  1.00  0.00     0.021 C 
HETATM    6  N   UNL     1       4.223   6.313  18.676  1.00  0.00    -0.356 N 
ENDROOT
BRANCH   5   7
HETATM    7  C   UNL     1       4.464   7.139  21.207  1.00  0.00    -0.013 C 
HETATM    8  C   UNL     1       4.178   6.575  22.516  1.00  0.00     0.013 C 
HETATM    9  C   UNL     1       4.866   6.982  23.695  1.00  0.00     0.001 C 
HETATM   10  C   UNL     1       6.287   7.150  23.785  1.00  0.00     0.000 C 
HETATM   11  C   UNL     1       7.143   7.624  22.780  1.00  0.00     0.000 C 
HETATM   12  C   UNL     1       6.752   8.232  21.523  1.00  0.00     0.001 C 
HETATM   13  C   UNL     1       5.458   8.212  20.972  1.00  0.00     0.013 C 
ENDBRANCH   5   7
BRANCH   6  14
HETATM   14  C   UNL     1       5.253   7.034  17.920  1.00  0.00    -0.004 C 
HETATM   15  C   UNL     1       6.605   6.520  17.760  1.00  0.00     0.080 C 
HETATM   16  C   UNL     1       7.684   7.385  17.373  1.00  0.00    -0.021 C 
HETATM   17  C   UNL     1       7.368   8.618  16.734  1.00  0.00    -0.007 C 
HETATM   18  C   UNL     1       5.998   9.002  16.541  1.00  0.00    -0.021 C 
HETATM   19  C   UNL     1       4.950   8.309  17.249  1.00  0.00     0.080 C 
ENDBRANCH   6  14
TORSDOF 2
ENDMDL
MODEL 7
REMARK VINA RESULT:      -7.8      1.685      5.239
REMARK  2 active torsions:
REMARK  status: ('A' for Active; 'I' for Inactive)
REMARK    1  A    between atoms: C_8  and  C_14 
REMARK    2  A    between atoms: N_15  and  C_19 
ROOT
HETATM    1  C   UNL     1       6.141   9.606  18.890  1.00  0.00     0.128 C 
HETATM    2  C   UNL     1       4.690   8.470  21.154  1.00  0.00     0.058 C 
HETATM    3  C   UNL     1       4.994   9.991  21.222  1.00  0.00     0.008 C 
HETATM    4  C   UNL     1       5.721  10.582  20.006  1.00  0.00     0.021 C 
HETATM    5  C   UNL     1       4.420   7.908  19.728  1.00  0.00     0.021 C 
HETATM    6  N   UNL     1       5.268   8.407  18.609  1.00  0.00    -0.356 N 
ENDROOT
BRANCH   5   7
HETATM    7  C   UNL     1       3.141   7.092  19.554  1.00  0.00    -0.013 C 
HETATM    8  C   UNL     1       2.130   7.535  18.609  1.00  0.00     0.013 C 
HETATM    9  C   UNL     1       0.893   6.850  18.431  1.00  0.00     0.001 C 
HETATM   10  C   UNL     1       0.766   5.428  18.306  1.00  0.00     0.000 C 
HETATM   11  C   UNL     1       1.535   4.454  18.959  1.00  0.00     0.000 C 
HETATM   12  C   UNL     1       2.474   4.673  20.043  1.00  0.00     0.001 C 
HETATM   13  C   UNL     1       2.976   5.923  20.450  1.00  0.00     0.013 C 
ENDBRANCH   5   7
BRANCH   6  14
HETATM   14  C   UNL     1       5.713   7.654  17.430  1.00  0.00    -0.004 C 
HETATM   15  C   UNL     1       6.787   6.673  17.493  1.00  0.00     0.080 C 
HETATM   16  C   UNL     1       7.465   6.244  16.302  1.00  0.00    -0.021 C 
HETATM   17  C   UNL     1       6.819   6.436  15.047  1.00  0.00    -0.007 C 
HETATM   18  C   UNL     1       5.547   7.097  14.982  1.00  0.00    -0.021 C 
HETATM   19  C   UNL     1       5.060   7.833  16.123  1.00  0.00     0.080 C 
ENDBRANCH   6  14
TORSDOF 2
ENDMDL
MODEL 8
REMARK VINA RESULT:      -7.6      1.177      4.958
REMARK  2 active torsions:
REMARK  status: ('A' for Active; 'I' for Inactive)
REMARK    1  A    between atoms: C_8  and  C_14 
REMARK    2  A    between atoms: N_15  and  C_19 
ROOT
HETATM    1  C   UNL     1       7.067   8.170  21.646  1.00  0.00     0.128 C 
HETATM    2  C   UNL     1       4.958   6.275  22.343  1.00  0.00     0.058 C 
HETATM    3  C   UNL     1       5.483   7.178  23.492  1.00  0.00     0.008 C 
HETATM    4  C   UNL     1       6.562   8.197  23.102  1.00  0.00     0.021 C 
HETATM    5  C   UNL     1       4.943   6.934  20.933  1.00  0.00     0.021 C 
HETATM    6  N   UNL     1       6.100   7.791  20.551  1.00  0.00    -0.356 N 
ENDROOT
BRANCH   5   7
HETATM    7  C   UNL     1       3.624   6.858  20.166  1.00  0.00    -0.013 C 
HETATM    8  C   UNL     1       3.380   7.775  19.066  1.00  0.00     0.013 C 
HETATM    9  C   UNL     1       2.154   7.793  18.339  1.00  0.00     0.001 C 
HETATM   10  C   UNL     1       1.481   6.622  17.861  1.00  0.00     0.000 C 
HETATM   11  C   UNL     1       1.415   5.372  18.493  1.00  0.00     0.000 C 
HETATM   12  C   UNL     1       1.835   5.061  19.846  1.00  0.00     0.001 C 
HETATM   13  C   UNL     1       2.623   5.887  20.668  1.00  0.00     0.013 C 
ENDBRANCH   5   7
BRANCH   6  14
HETATM   14  C   UNL     1       6.680   7.951  19.212  1.00  0.00    -0.004 C 
HETATM   15  C   UNL     1       7.087   9.247  18.690  1.00  0.00     0.080 C 
HETATM   16  C   UNL     1       7.276   9.449  17.281  1.00  0.00    -0.021 C 
HETATM   17  C   UNL     1       7.491   8.309  16.455  1.00  0.00    -0.007 C 
HETATM   18  C   UNL     1       7.458   6.990  17.020  1.00  0.00    -0.021 C 
HETATM   19  C   UNL     1       6.914   6.787  18.341  1.00  0.00     0.080 C 
ENDBRANCH   6  14
TORSDOF 2
ENDMDL
MODEL 9
REMARK VINA RESULT:      -7.6      1.889      5.216
REMARK  2 active torsions:
REMARK  status: ('A' for Active; 'I' for Inactive)
REMARK    1  A    between atoms: C_8  and  C_14 
REMARK    2  A    between atoms: N_15  and  C_19 
ROOT
HETATM    1  C   UNL     1       6.300   9.074  20.158  1.00  0.00     0.128 C 
HETATM    2  C   UNL     1       4.288   9.814  18.175  1.00  0.00     0.058 C 
HETATM    3  C   UNL     1       5.768  10.093  17.796  1.00  0.00     0.008 C 
HETATM    4  C   UNL     1       6.816   9.661  18.830  1.00  0.00     0.021 C 
HETATM    5  C   UNL     1       4.053   8.549  19.052  1.00  0.00     0.021 C 
HETATM    6  N   UNL     1       5.024   8.268  20.147  1.00  0.00    -0.356 N 
ENDROOT
BRANCH   5   7
HETATM    7  C   UNL     1       3.000   7.565  18.548  1.00  0.00    -0.013 C 
HETATM    8  C   UNL     1       3.293   6.141  18.539  1.00  0.00     0.013 C 
HETATM    9  C   UNL     1       2.377   5.172  18.038  1.00  0.00     0.001 C 
HETATM   10  C   UNL     1       0.977   5.150  18.341  1.00  0.00     0.000 C 
HETATM   11  C   UNL     1       0.139   6.260  18.527  1.00  0.00     0.000 C 
HETATM   12  C   UNL     1       0.462   7.647  18.252  1.00  0.00     0.001 C 
HETATM   13  C   UNL     1       1.752   8.152  18.007  1.00  0.00     0.013 C 
ENDBRANCH   5   7
BRANCH   6  14
HETATM   14  C   UNL     1       4.738   7.654  21.449  1.00  0.00    -0.004 C 
HETATM   15  C   UNL     1       3.451   7.049  21.758  1.00  0.00     0.080 C 
HETATM   16  C   UNL     1       3.053   6.814  23.118  1.00  0.00    -0.021 C 
HETATM   17  C   UNL     1       4.062   6.766  24.121  1.00  0.00    -0.007 C 
HETATM   18  C   UNL     1       5.435   7.006  23.778  1.00  0.00    -0.021 C 
HETATM   19  C   UNL     1       5.765   7.591  22.501  1.00  0.00     0.080 C 
ENDBRANCH   6  14
TORSDOF 2
ENDMDL
