MODEL 1
REMARK VINA RESULT:     -10.0      0.000      0.000
REMARK  0 active torsions:
REMARK  status: ('A' for Active; 'I' for Inactive)
ROOT
HETATM    1  O   UNL     1      -0.657   7.925  20.388  1.00  0.00    -0.288 OA
HETATM    2  C   UNL     1       4.088   9.056  20.890  1.00  0.00     0.049 C 
HETATM    3  N   UNL     1       4.586   7.136  18.474  1.00  0.00    -0.355 N 
ATOM      4  HN  UNL     1       3.957   7.091  19.275  1.00  0.00     0.166 HD
HETATM    5  C   UNL     1       5.788   7.833  18.575  1.00  0.00     0.039 C 
HETATM    6  C   UNL     1       3.138   5.533  17.234  1.00  0.00    -0.009 C 
HETATM    7  C   UNL     1       1.766   5.941  17.226  1.00  0.00     0.014 C 
HETATM    8  C   UNL     1       5.494   5.742  15.301  1.00  0.00     0.002 C 
HETATM    9  C   UNL     1       2.706   8.914  20.335  1.00  0.00    -0.047 C 
HETATM   10  C   UNL     1       0.552   7.949  20.042  1.00  0.00     0.182 C 
HETATM   11  C   UNL     1       2.612   9.466  19.077  1.00  0.00    -0.050 C 
HETATM   12  C   UNL     1       8.042   9.401  17.976  1.00  0.00     0.001 C 
HETATM   13  C   UNL     1       1.617   8.277  20.931  1.00  0.00     0.063 C 
HETATM   14  C   UNL     1       7.002   7.230  18.191  1.00  0.00     0.030 C 
HETATM   15  C   UNL     1       3.407   4.173  16.999  1.00  0.00     0.013 C 
HETATM   16  C   UNL     1       0.872   6.627  17.932  1.00  0.00     0.016 C 
HETATM   17  C   UNL     1       6.956   9.966  18.628  1.00  0.00     0.010 C 
HETATM   18  C   UNL     1       5.119   4.413  15.192  1.00  0.00     0.000 C 
HETATM   19  C   UNL     1       8.085   8.023  17.785  1.00  0.00     0.002 C 
HETATM   20  C   UNL     1       4.241   6.504  17.295  1.00  0.00     0.043 C 
HETATM   21  C   UNL     1       4.789   9.929  19.821  1.00  0.00     0.029 C 
HETATM   22  C   UNL     1       3.729  10.435  18.838  1.00  0.00     0.048 C 
HETATM   23  C   UNL     1       5.852   9.194  19.003  1.00  0.00    -0.027 C 
HETATM   24  C   UNL     1       1.659   8.997  18.159  1.00  0.00     0.023 C 
HETATM   25  C   UNL     1       4.196   3.697  15.928  1.00  0.00     0.001 C 
HETATM   26  C   UNL     1       4.957   6.777  16.089  1.00  0.00     0.030 C 
HETATM   27  C   UNL     1       0.984   7.853  18.645  1.00  0.00     0.015 C 
ENDROOT
TORSDOF 0
ENDMDL
MODEL 2
REMARK VINA RESULT:      -8.3      2.043      4.865
REMARK  0 active torsions:
REMARK  status: ('A' for Active; 'I' for Inactive)
ROOT
HETATM    1  O   UNL     1       8.149  10.378  18.662  1.00  0.00    -0.288 OA
HETATM    2  C   UNL     1       3.293  10.171  19.308  1.00  0.00     0.049 C 
HETATM    3  N   UNL     1       3.404   7.495  17.695  1.00  0.00    -0.355 N 
ATOM      4  HN  UNL     1       3.894   8.383  17.597  1.00  0.00     0.166 HD
HETATM    5  C   UNL     1       2.133   7.465  18.268  1.00  0.00     0.039 C 
HETATM    6  C   UNL     1       5.197   6.348  16.404  1.00  0.00    -0.009 C 
HETATM    7  C   UNL     1       6.500   6.628  16.924  1.00  0.00     0.014 C 
HETATM    8  C   UNL     1       3.179   4.069  16.670  1.00  0.00     0.002 C 
HETATM    9  C   UNL     1       4.753   9.853  19.360  1.00  0.00    -0.047 C 
HETATM   10  C   UNL     1       7.018   9.831  18.630  1.00  0.00     0.182 C 
HETATM   11  C   UNL     1       4.993   8.706  20.082  1.00  0.00    -0.050 C 
HETATM   12  C   UNL     1      -0.147   6.669  19.705  1.00  0.00     0.001 C 
HETATM   13  C   UNL     1       5.793  10.552  18.743  1.00  0.00     0.063 C 
HETATM   14  C   UNL     1       1.070   6.805  17.621  1.00  0.00     0.030 C 
HETATM   15  C   UNL     1       5.116   5.910  15.070  1.00  0.00     0.013 C 
HETATM   16  C   UNL     1       7.189   7.556  17.582  1.00  0.00     0.016 C 
HETATM   17  C   UNL     1       0.751   7.564  20.267  1.00  0.00     0.010 C 
HETATM   18  C   UNL     1       3.707   3.872  15.404  1.00  0.00     0.000 C 
HETATM   19  C   UNL     1      -0.011   6.312  18.366  1.00  0.00     0.002 C 
HETATM   20  C   UNL     1       4.001   6.329  17.260  1.00  0.00     0.043 C 
HETATM   21  C   UNL     1       2.686   9.106  20.255  1.00  0.00     0.029 C 
HETATM   22  C   UNL     1       3.832   8.391  20.976  1.00  0.00     0.048 C 
HETATM   23  C   UNL     1       1.855   8.034  19.548  1.00  0.00    -0.027 C 
HETATM   24  C   UNL     1       6.126   7.921  19.824  1.00  0.00     0.023 C 
HETATM   25  C   UNL     1       4.568   4.668  14.677  1.00  0.00     0.001 C 
HETATM   26  C   UNL     1       3.466   5.056  17.631  1.00  0.00     0.030 C 
HETATM   27  C   UNL     1       6.832   8.379  18.687  1.00  0.00     0.015 C 
ENDROOT
TORSDOF 0
ENDMDL
MODEL 3
REMARK VINA RESULT:      -7.9      4.078      7.922
REMARK  0 active torsions:
REMARK  status: ('A' for Active; 'I' for Inactive)
ROOT
HETATM    1  O   UNL     1      -1.027   1.309  15.306  1.00  0.00    -0.288 OA
HETATM    2  C   UNL     1       2.282   1.475  11.690  1.00  0.00     0.049 C 
HETATM    3  N   UNL     1       3.934   3.347  13.572  1.00  0.00    -0.355 N 
ATOM      4  HN  UNL     1       2.936   3.263  13.382  1.00  0.00     0.166 HD
HETATM    5  C   UNL     1       4.858   2.992  12.591  1.00  0.00     0.039 C 
HETATM    6  C   UNL     1       3.439   4.459  15.744  1.00  0.00    -0.009 C 
HETATM    7  C   UNL     1       2.513   3.708  16.536  1.00  0.00     0.014 C 
HETATM    8  C   UNL     1       6.475   4.783  15.649  1.00  0.00     0.002 C 
HETATM    9  C   UNL     1       1.621   1.228  13.009  1.00  0.00    -0.047 C 
HETATM   10  C   UNL     1       0.087   1.585  14.792  1.00  0.00     0.182 C 
HETATM   11  C   UNL     1       2.480   0.614  13.893  1.00  0.00    -0.050 C 
HETATM   12  C   UNL     1       7.157   2.040  11.285  1.00  0.00     0.001 C 
HETATM   13  C   UNL     1       0.326   1.586  13.387  1.00  0.00     0.063 C 
HETATM   14  C   UNL     1       5.898   3.872  12.232  1.00  0.00     0.030 C 
HETATM   15  C   UNL     1       3.567   5.830  16.029  1.00  0.00     0.013 C 
HETATM   16  C   UNL     1       1.506   2.846  16.435  1.00  0.00     0.016 C 
HETATM   17  C   UNL     1       6.025   1.242  11.371  1.00  0.00     0.010 C 
HETATM   18  C   UNL     1       6.055   5.963  16.242  1.00  0.00     0.000 C 
HETATM   19  C   UNL     1       7.088   3.371  11.685  1.00  0.00     0.002 C 
HETATM   20  C   UNL     1       4.362   3.813  14.799  1.00  0.00     0.043 C 
HETATM   21  C   UNL     1       3.648   0.767  11.863  1.00  0.00     0.029 C 
HETATM   22  C   UNL     1       3.613  -0.041  13.163  1.00  0.00     0.048 C 
HETATM   23  C   UNL     1       4.844   1.716  11.950  1.00  0.00    -0.027 C 
HETATM   24  C   UNL     1       2.319   0.776  15.277  1.00  0.00     0.023 C 
HETATM   25  C   UNL     1       4.775   6.447  16.426  1.00  0.00     0.001 C 
HETATM   26  C   UNL     1       5.731   3.681  15.188  1.00  0.00     0.030 C 
HETATM   27  C   UNL     1       1.315   1.726  15.580  1.00  0.00     0.015 C 
ENDROOT
TORSDOF 0
ENDMDL
MODEL 4
REMARK VINA RESULT:      -7.7      6.380     11.056
REMARK  0 active torsions:
REMARK  status: ('A' for Active; 'I' for Inactive)
ROOT
HETATM    1  O   UNL     1       9.975   0.126   9.932  1.00  0.00    -0.288 OA
HETATM    2  C   UNL     1       5.227  -0.993  10.437  1.00  0.00     0.049 C 
HETATM    3  N   UNL     1       5.036   1.548  12.247  1.00  0.00    -0.355 N 
ATOM      4  HN  UNL     1       5.749   0.827  12.139  1.00  0.00     0.166 HD
HETATM    5  C   UNL     1       3.701   1.247  11.986  1.00  0.00     0.039 C 
HETATM    6  C   UNL     1       6.733   3.098  13.206  1.00  0.00    -0.009 C 
HETATM    7  C   UNL     1       7.894   3.208  12.376  1.00  0.00     0.014 C 
HETATM    8  C   UNL     1       4.192   4.738  13.643  1.00  0.00     0.002 C 
HETATM    9  C   UNL     1       6.496  -0.283  10.086  1.00  0.00    -0.047 C 
HETATM   10  C   UNL     1       8.785   0.338  10.278  1.00  0.00     0.182 C 
HETATM   11  C   UNL     1       6.243   0.912   9.450  1.00  0.00    -0.050 C 
HETATM   12  C   UNL     1       1.010   1.433  11.198  1.00  0.00     0.001 C 
HETATM   13  C   UNL     1       7.800  -0.689  10.374  1.00  0.00     0.063 C 
HETATM   14  C   UNL     1       2.697   1.563  12.923  1.00  0.00     0.030 C 
HETATM   15  C   UNL     1       6.874   3.447  14.561  1.00  0.00     0.013 C 
HETATM   16  C   UNL     1       8.614   2.532  11.486  1.00  0.00     0.016 C 
HETATM   17  C   UNL     1       1.941   0.843  10.357  1.00  0.00     0.010 C 
HETATM   18  C   UNL     1       4.948   5.027  14.768  1.00  0.00     0.000 C 
HETATM   19  C   UNL     1       1.376   1.765  12.499  1.00  0.00     0.002 C 
HETATM   20  C   UNL     1       5.400   2.817  12.652  1.00  0.00     0.043 C 
HETATM   21  C   UNL     1       4.151  -0.104   9.768  1.00  0.00     0.029 C 
HETATM   22  C   UNL     1       4.857   0.926   8.881  1.00  0.00     0.048 C 
HETATM   23  C   UNL     1       3.272   0.671  10.752  1.00  0.00    -0.027 C 
HETATM   24  C   UNL     1       7.161   1.970   9.521  1.00  0.00     0.023 C 
HETATM   25  C   UNL     1       6.138   4.474  15.194  1.00  0.00     0.001 C 
HETATM   26  C   UNL     1       4.479   3.905  12.546  1.00  0.00     0.030 C 
HETATM   27  C   UNL     1       8.221   1.683  10.414  1.00  0.00     0.015 C 
ENDROOT
TORSDOF 0
ENDMDL
MODEL 5
REMARK VINA RESULT:      -7.2      3.311      6.612
REMARK  0 active torsions:
REMARK  status: ('A' for Active; 'I' for Inactive)
ROOT
HETATM    1  O   UNL     1      -1.172   1.473  16.346  1.00  0.00    -0.288 OA
HETATM    2  C   UNL     1      -2.621   4.447  19.966  1.00  0.00     0.049 C 
HETATM    3  N   UNL     1       0.036   6.014  19.459  1.00  0.00    -0.355 N 
ATOM      4  HN  UNL     1      -0.193   5.021  19.457  1.00  0.00     0.166 HD
HETATM    5  C   UNL     1      -0.701   6.893  20.250  1.00  0.00     0.039 C 
HETATM    6  C   UNL     1       2.049   5.566  18.062  1.00  0.00    -0.009 C 
HETATM    7  C   UNL     1       1.735   4.797  16.896  1.00  0.00     0.014 C 
HETATM    8  C   UNL     1       2.469   8.528  18.683  1.00  0.00     0.002 C 
HETATM    9  C   UNL     1      -2.220   3.925  18.622  1.00  0.00    -0.047 C 
HETATM   10  C   UNL     1      -1.120   2.505  17.063  1.00  0.00     0.182 C 
HETATM   11  C   UNL     1      -2.259   4.916  17.667  1.00  0.00    -0.050 C 
HETATM   12  C   UNL     1      -2.033   9.178  21.201  1.00  0.00     0.001 C 
HETATM   13  C   UNL     1      -1.802   2.631  18.308  1.00  0.00     0.063 C 
HETATM   14  C   UNL     1      -0.054   7.793  21.118  1.00  0.00     0.030 C 
HETATM   15  C   UNL     1       3.385   5.556  18.500  1.00  0.00     0.013 C 
HETATM   16  C   UNL     1       0.877   3.892  16.436  1.00  0.00     0.016 C 
HETATM   17  C   UNL     1      -2.751   8.156  20.597  1.00  0.00     0.010 C 
HETATM   18  C   UNL     1       3.758   8.021  18.692  1.00  0.00     0.000 C 
HETATM   19  C   UNL     1      -0.686   8.987  21.496  1.00  0.00     0.002 C 
HETATM   20  C   UNL     1       1.076   6.481  18.679  1.00  0.00     0.043 C 
HETATM   21  C   UNL     1      -3.064   5.895  19.642  1.00  0.00     0.029 C 
HETATM   22  C   UNL     1      -3.119   6.056  18.120  1.00  0.00     0.048 C 
HETATM   23  C   UNL     1      -2.126   6.977  20.179  1.00  0.00    -0.027 C 
HETATM   24  C   UNL     1      -1.440   4.846  16.530  1.00  0.00     0.023 C 
HETATM   25  C   UNL     1       4.190   6.713  18.609  1.00  0.00     0.001 C 
HETATM   26  C   UNL     1       1.240   7.882  18.450  1.00  0.00     0.030 C 
HETATM   27  C   UNL     1      -0.530   3.766  16.606  1.00  0.00     0.015 C 
ENDROOT
TORSDOF 0
ENDMDL
MODEL 6
REMARK VINA RESULT:      -7.1      5.435      9.752
REMARK  0 active torsions:
REMARK  status: ('A' for Active; 'I' for Inactive)
ROOT
HETATM    1  O   UNL     1       7.086   0.223   9.543  1.00  0.00    -0.288 OA
HETATM    2  C   UNL     1       3.256  -0.715  12.457  1.00  0.00     0.049 C 
HETATM    3  N   UNL     1       4.031   1.910  13.969  1.00  0.00    -0.355 N 
ATOM      4  HN  UNL     1       4.584   1.161  13.553  1.00  0.00     0.166 HD
HETATM    5  C   UNL     1       2.747   1.641  14.442  1.00  0.00     0.039 C 
HETATM    6  C   UNL     1       5.988   3.444  13.842  1.00  0.00    -0.009 C 
HETATM    7  C   UNL     1       6.563   3.478  12.532  1.00  0.00     0.014 C 
HETATM    8  C   UNL     1       4.036   5.185  15.421  1.00  0.00     0.002 C 
HETATM    9  C   UNL     1       4.171  -0.063  11.470  1.00  0.00    -0.047 C 
HETATM   10  C   UNL     1       6.241   0.489  10.435  1.00  0.00     0.182 C 
HETATM   11  C   UNL     1       3.636   1.109  10.987  1.00  0.00    -0.050 C 
HETATM   12  C   UNL     1       0.032   1.882  15.125  1.00  0.00     0.001 C 
HETATM   13  C   UNL     1       5.437  -0.499  11.076  1.00  0.00     0.063 C 
HETATM   14  C   UNL     1       2.364   2.032  15.739  1.00  0.00     0.030 C 
HETATM   15  C   UNL     1       6.803   3.848  14.914  1.00  0.00     0.013 C 
HETATM   16  C   UNL     1       6.724   2.739  11.438  1.00  0.00     0.016 C 
HETATM   17  C   UNL     1       0.400   1.224  13.961  1.00  0.00     0.010 C 
HETATM   18  C   UNL     1       5.261   5.499  15.986  1.00  0.00     0.000 C 
HETATM   19  C   UNL     1       1.013   2.259  16.038  1.00  0.00     0.002 C 
HETATM   20  C   UNL     1       4.557   3.183  14.061  1.00  0.00     0.043 C 
HETATM   21  C   UNL     1       1.994   0.179  12.383  1.00  0.00     0.029 C 
HETATM   22  C   UNL     1       2.154   1.144  11.204  1.00  0.00     0.048 C 
HETATM   23  C   UNL     1       1.745   1.026  13.632  1.00  0.00    -0.027 C 
HETATM   24  C   UNL     1       4.469   2.138  10.522  1.00  0.00     0.023 C 
HETATM   25  C   UNL     1       6.499   4.927  15.776  1.00  0.00     0.001 C 
HETATM   26  C   UNL     1       3.717   4.295  14.378  1.00  0.00     0.030 C 
HETATM   27  C   UNL     1       5.834   1.857  10.765  1.00  0.00     0.015 C 
ENDROOT
TORSDOF 0
ENDMDL
MODEL 7
REMARK VINA RESULT:      -7.1      2.455      4.089
REMARK  0 active torsions:
REMARK  status: ('A' for Active; 'I' for Inactive)
ROOT
HETATM    1  O   UNL     1      -3.460   3.370  18.453  1.00  0.00    -0.288 OA
HETATM    2  C   UNL     1      -0.454   6.363  20.913  1.00  0.00     0.049 C 
HETATM    3  N   UNL     1       1.644   5.750  18.678  1.00  0.00    -0.355 N 
ATOM      4  HN  UNL     1       0.953   5.173  19.156  1.00  0.00     0.166 HD
HETATM    5  C   UNL     1       2.189   6.857  19.326  1.00  0.00     0.039 C 
HETATM    6  C   UNL     1       1.708   4.130  16.788  1.00  0.00    -0.009 C 
HETATM    7  C   UNL     1       0.401   3.832  16.289  1.00  0.00     0.014 C 
HETATM    8  C   UNL     1       3.986   5.999  15.978  1.00  0.00     0.002 C 
HETATM    9  C   UNL     1      -1.321   5.773  19.846  1.00  0.00    -0.047 C 
HETATM   10  C   UNL     1      -2.422   4.060  18.616  1.00  0.00     0.182 C 
HETATM   11  C   UNL     1      -1.356   6.575  18.728  1.00  0.00    -0.050 C 
HETATM   12  C   UNL     1       3.281   9.392  19.853  1.00  0.00     0.001 C 
HETATM   13  C   UNL     1      -1.997   4.553  19.885  1.00  0.00     0.063 C 
HETATM   14  C   UNL     1       3.584   7.041  19.381  1.00  0.00     0.030 C 
HETATM   15  C   UNL     1       2.729   3.201  16.518  1.00  0.00     0.013 C 
HETATM   16  C   UNL     1      -0.874   3.766  16.661  1.00  0.00     0.016 C 
HETATM   17  C   UNL     1       1.935   9.153  20.087  1.00  0.00     0.010 C 
HETATM   18  C   UNL     1       4.444   4.755  15.573  1.00  0.00     0.000 C 
HETATM   19  C   UNL     1       4.120   8.329  19.532  1.00  0.00     0.002 C 
HETATM   20  C   UNL     1       2.036   5.430  17.393  1.00  0.00     0.043 C 
HETATM   21  C   UNL     1      -0.086   7.744  20.318  1.00  0.00     0.029 C 
HETATM   22  C   UNL     1      -0.936   7.973  19.064  1.00  0.00     0.048 C 
HETATM   23  C   UNL     1       1.380   7.883  19.903  1.00  0.00    -0.027 C 
HETATM   24  C   UNL     1      -1.606   6.027  17.461  1.00  0.00     0.023 C 
HETATM   25  C   UNL     1       3.905   3.504  15.795  1.00  0.00     0.001 C 
HETATM   26  C   UNL     1       2.781   6.363  16.608  1.00  0.00     0.030 C 
HETATM   27  C   UNL     1      -1.649   4.613  17.501  1.00  0.00     0.015 C 
ENDROOT
TORSDOF 0
ENDMDL
MODEL 8
REMARK VINA RESULT:      -7.1      6.516      9.745
REMARK  0 active torsions:
REMARK  status: ('A' for Active; 'I' for Inactive)
ROOT
HETATM    1  O   UNL     1       1.622  -0.790   8.164  1.00  0.00    -0.288 OA
HETATM    2  C   UNL     1       4.698   2.569   9.980  1.00  0.00     0.049 C 
HETATM    3  N   UNL     1       3.102   2.280  12.653  1.00  0.00    -0.355 N 
ATOM      4  HN  UNL     1       2.818   2.287  11.674  1.00  0.00     0.166 HD
HETATM    5  C   UNL     1       4.251   2.964  13.045  1.00  0.00     0.039 C 
HETATM    6  C   UNL     1       0.994   1.106  13.270  1.00  0.00    -0.009 C 
HETATM    7  C   UNL     1       0.773  -0.060  12.470  1.00  0.00     0.014 C 
HETATM    8  C   UNL     1       2.134   1.670  16.048  1.00  0.00     0.002 C 
HETATM    9  C   UNL     1       3.959   1.290   9.747  1.00  0.00    -0.047 C 
HETATM   10  C   UNL     1       2.152  -0.105   9.075  1.00  0.00     0.182 C 
HETATM   11  C   UNL     1       4.376   0.304  10.613  1.00  0.00    -0.050 C 
HETATM   12  C   UNL     1       6.615   3.704  14.372  1.00  0.00     0.001 C 
HETATM   13  C   UNL     1       2.934   1.061   8.827  1.00  0.00     0.063 C 
HETATM   14  C   UNL     1       4.217   3.864  14.128  1.00  0.00     0.030 C 
HETATM   15  C   UNL     1      -0.124   1.675  13.903  1.00  0.00     0.013 C 
HETATM   16  C   UNL     1       1.030  -0.574  11.271  1.00  0.00     0.016 C 
HETATM   17  C   UNL     1       6.679   3.064  13.143  1.00  0.00     0.010 C 
HETATM   18  C   UNL     1       0.770   1.824  16.234  1.00  0.00     0.000 C 
HETATM   19  C   UNL     1       5.384   4.138  14.855  1.00  0.00     0.002 C 
HETATM   20  C   UNL     1       2.347   1.593  13.583  1.00  0.00     0.043 C 
HETATM   21  C   UNL     1       5.753   2.157  11.036  1.00  0.00     0.029 C 
HETATM   22  C   UNL     1       5.723   0.632  11.180  1.00  0.00     0.048 C 
HETATM   23  C   UNL     1       5.521   2.749  12.426  1.00  0.00    -0.027 C 
HETATM   24  C   UNL     1       3.514  -0.743  10.974  1.00  0.00     0.023 C 
HETATM   25  C   UNL     1      -0.249   1.826  15.303  1.00  0.00     0.001 C 
HETATM   26  C   UNL     1       2.863   1.337  14.891  1.00  0.00     0.030 C 
HETATM   27  C   UNL     1       2.207  -0.542  10.472  1.00  0.00     0.015 C 
ENDROOT
TORSDOF 0
ENDMDL
