REMARK  3 active torsions:
REMARK  status: ('A' for Active; 'I' for Inactive)
REMARK    1  A    between atoms: O_3  and  C_5 
REMARK    2  A    between atoms: C_9  and  C_25 
REMARK    3  A    between atoms: C_10  and  O_18 
ROOT
HETATM    1  C   UNL     1      11.446   1.874 -64.169  1.00  0.00     0.187 C 
HETATM    2  C   UNL     1       9.556  -0.183 -64.047  1.00  0.00     0.085 C 
HETATM    3  C   UNL     1      12.411   0.025 -61.095  1.00  0.00     0.149 C 
HETATM    4  C   UNL     1       9.777   0.454 -65.272  1.00  0.00     0.032 C 
HETATM    5  C   UNL     1      11.813   1.281 -60.487  1.00  0.00     0.149 C 
HETATM    6  C   UNL     1      11.231   1.145 -62.870  1.00  0.00     0.100 C 
HETATM    7  O   UNL     1      12.471   2.509 -64.370  1.00  0.00    -0.290 OA
HETATM    8  C   UNL     1      12.443   0.253 -62.598  1.00  0.00     0.073 C 
HETATM    9  C   UNL     1      10.478   1.657 -65.274  1.00  0.00     0.016 C 
HETATM   10  C   UNL     1      11.140   2.033 -61.633  1.00  0.00     0.073 C 
HETATM   11  N   UNL     1      10.028   0.304 -62.923  1.00  0.00    -0.383 N 
ATOM     12  HN  UNL     1       9.541   0.090 -62.053  1.00  0.00     0.160 HD
ENDROOT
BRANCH   9  13
HETATM   13  C   UNL     1      10.255   2.728 -66.140  1.00  0.00     0.045 C 
HETATM   14  C   UNL     1      10.998   3.034 -67.310  1.00  0.00     0.039 C 
HETATM   15  N   UNL     1      12.256   3.484 -67.245  1.00  0.00    -0.389 N 
HETATM   16  C   UNL     1      10.357   2.808 -68.604  1.00  0.00    -0.003 C 
HETATM   17  C   UNL     1      12.889   4.061 -68.427  1.00  0.00     0.124 C 
ATOM     18  HN  UNL     1      12.774   3.424 -66.368  1.00  0.00     0.159 HD
HETATM   19  C   UNL     1      12.474   3.362 -69.725  1.00  0.00     0.060 C 
HETATM   20  C   UNL     1      10.974   3.317 -69.745  1.00  0.00    -0.038 C 
HETATM   21  C   UNL     1      10.166   3.641 -70.847  1.00  0.00    -0.055 C 
HETATM   22  C   UNL     1      10.450   4.798 -71.773  1.00  0.00     0.049 C 
HETATM   23  C   UNL     1       9.005   2.903 -71.034  1.00  0.00     0.007 C 
HETATM   24  C   UNL     1       8.466   2.188 -69.967  1.00  0.00     0.002 C 
HETATM   25  C   UNL     1       9.095   2.218 -68.728  1.00  0.00     0.014 C 
ENDBRANCH   9  13
BRANCH   3  26
HETATM   26  O   UNL     1      11.564  -1.097 -60.851  1.00  0.00    -0.393 OA
ATOM     27  HO  UNL     1      11.938  -1.883 -61.231  1.00  0.00     0.210 HD
ENDBRANCH   3  26
BRANCH   5  28
HETATM   28  O   UNL     1      10.831   0.939 -59.505  1.00  0.00    -0.393 OA
ATOM     29  HO  UNL     1      10.457   1.725 -59.125  1.00  0.00     0.210 HD
ENDBRANCH   5  28
TORSDOF 3
