MODEL 1
REMARK VINA RESULT:      -8.6      0.000      0.000
REMARK  2 active torsions:
REMARK  status: ('A' for Active; 'I' for Inactive)
REMARK    1  A    between atoms: C_2  and  N_10 
REMARK    2  A    between atoms: C_16  and  C_19 
ROOT
HETATM    1  C   UNL     1      -1.658   9.359  12.366  1.00  0.00     0.150 C 
HETATM    2  C   UNL     1      -0.960   8.295  14.948  1.00  0.00     0.051 C 
HETATM    3  C   UNL     1      -1.775  10.293  13.563  1.00  0.00     0.080 C 
HETATM    4  C   UNL     1      -1.089   6.020  13.919  1.00  0.00     0.042 C 
HETATM    5  C   UNL     1      -0.217   9.096  11.997  1.00  0.00     0.044 C 
HETATM    6  F   UNL     1      -0.438  10.551  15.470  1.00  0.00    -0.249 F 
HETATM    7  C   UNL     1      -2.156   8.017  12.795  1.00  0.00    -0.035 C 
HETATM    8  C   UNL     1       0.175   7.880  12.797  1.00  0.00     0.017 C 
HETATM    9  C   UNL     1      -3.547   5.336  13.478  1.00  0.00    -0.013 C 
HETATM   10  C   UNL     1      -1.014   7.502  13.650  1.00  0.00    -0.009 C 
HETATM   11  C   UNL     1      -3.626   6.061  12.276  1.00  0.00     0.014 C 
HETATM   12  C   UNL     1      -1.328   9.733  14.857  1.00  0.00     0.173 C 
HETATM   13  C   UNL     1      -2.382   5.377  14.236  1.00  0.00    -0.012 C 
HETATM   14  C   UNL     1      -3.088   7.331  12.118  1.00  0.00     0.007 C 
ENDROOT
BRANCH   9  15
HETATM   15  C   UNL     1      -4.704   4.664  13.934  1.00  0.00     0.044 C 
HETATM   16  C   UNL     1      -5.832   5.260  14.518  1.00  0.00     0.031 C 
HETATM   17  C   UNL     1      -6.647   4.481  15.345  1.00  0.00     0.016 C 
HETATM   18  C   UNL     1      -6.126   3.265  15.813  1.00  0.00    -0.009 C 
HETATM   19  C   UNL     1      -6.726   2.455  16.771  1.00  0.00     0.014 C 
HETATM   20  C   UNL     1      -4.938   2.807  15.226  1.00  0.00     0.044 C 
HETATM   21  C   UNL     1      -6.084   1.312  17.222  1.00  0.00     0.001 C 
HETATM   22  C   UNL     1      -4.744   1.125  16.899  1.00  0.00     0.002 C 
HETATM   23  C   UNL     1      -4.137   1.910  15.920  1.00  0.00     0.030 C 
HETATM   24  N   UNL     1      -4.674   3.300  13.986  1.00  0.00    -0.350 N 
HETATM   25  C   UNL     1      -4.842   2.508  12.769  1.00  0.00     0.156 C 
ENDBRANCH   9  15
BRANCH   1  26
HETATM   26  N   UNL     1      -2.385   9.827  11.217  1.00  0.00    -0.066 N 
ATOM     27  HN3 UNL     1      -1.853   9.671  10.361  1.00  0.00     0.275 HD
ATOM     28  HN2 UNL     1      -3.188   9.227  11.026  1.00  0.00     0.275 HD
ATOM     29  HN1 UNL     1      -2.670  10.803  11.296  1.00  0.00     0.275 HD
ENDBRANCH   1  26
TORSDOF 2
ENDMDL
MODEL 2
REMARK VINA RESULT:      -8.4      2.291      3.041
REMARK  2 active torsions:
REMARK  status: ('A' for Active; 'I' for Inactive)
REMARK    1  A    between atoms: C_2  and  N_10 
REMARK    2  A    between atoms: C_16  and  C_19 
ROOT
HETATM    1  C   UNL     1       0.483   5.651  11.570  1.00  0.00     0.150 C 
HETATM    2  C   UNL     1      -1.559   7.619  11.075  1.00  0.00     0.051 C 
HETATM    3  C   UNL     1       0.039   5.852  10.128  1.00  0.00     0.080 C 
HETATM    4  C   UNL     1      -2.027   7.585  13.531  1.00  0.00     0.042 C 
HETATM    5  C   UNL     1       1.316   6.809  12.068  1.00  0.00     0.044 C 
HETATM    6  F   UNL     1      -0.545   7.782   8.934  1.00  0.00    -0.249 F 
HETATM    7  C   UNL     1      -0.740   5.710  12.427  1.00  0.00    -0.035 C 
HETATM    8  C   UNL     1       0.323   7.776  12.663  1.00  0.00     0.017 C 
HETATM    9  C   UNL     1      -3.251   5.407  14.213  1.00  0.00    -0.013 C 
HETATM   10  C   UNL     1      -1.055   7.193  12.446  1.00  0.00    -0.009 C 
HETATM   11  C   UNL     1      -2.066   4.653  14.266  1.00  0.00     0.014 C 
HETATM   12  C   UNL     1      -0.950   6.928   9.906  1.00  0.00     0.173 C 
HETATM   13  C   UNL     1      -3.207   6.741  13.824  1.00  0.00    -0.012 C 
HETATM   14  C   UNL     1      -1.054   4.762  13.322  1.00  0.00     0.007 C 
ENDROOT
BRANCH   9  15
HETATM   15  C   UNL     1      -4.477   4.749  14.463  1.00  0.00     0.044 C 
HETATM   16  C   UNL     1      -5.628   5.326  15.022  1.00  0.00     0.031 C 
HETATM   17  C   UNL     1      -6.554   4.492  15.654  1.00  0.00     0.016 C 
HETATM   18  C   UNL     1      -6.140   3.194  15.989  1.00  0.00    -0.009 C 
HETATM   19  C   UNL     1      -6.867   2.299  16.765  1.00  0.00     0.014 C 
HETATM   20  C   UNL     1      -4.923   2.751  15.452  1.00  0.00     0.044 C 
HETATM   21  C   UNL     1      -6.327   1.068  17.105  1.00  0.00     0.001 C 
HETATM   22  C   UNL     1      -4.972   0.847  16.880  1.00  0.00     0.002 C 
HETATM   23  C   UNL     1      -4.237   1.720  16.081  1.00  0.00     0.030 C 
HETATM   24  N   UNL     1      -4.517   3.392  14.323  1.00  0.00    -0.350 N 
HETATM   25  C   UNL     1      -4.603   2.786  12.996  1.00  0.00     0.156 C 
ENDBRANCH   9  15
BRANCH   1  26
HETATM   26  N   UNL     1       1.186   4.413  11.774  1.00  0.00    -0.066 N 
ATOM     27  HN3 UNL     1       0.534   3.633  11.859  1.00  0.00     0.275 HD
ATOM     28  HN2 UNL     1       1.676   4.129  10.926  1.00  0.00     0.275 HD
ATOM     29  HN1 UNL     1       1.822   4.444  12.570  1.00  0.00     0.275 HD
ENDBRANCH   1  26
TORSDOF 2
ENDMDL
MODEL 3
REMARK VINA RESULT:      -8.2      1.506      2.008
REMARK  2 active torsions:
REMARK  status: ('A' for Active; 'I' for Inactive)
REMARK    1  A    between atoms: C_2  and  N_10 
REMARK    2  A    between atoms: C_16  and  C_19 
ROOT
HETATM    1  C   UNL     1       0.147   9.068  12.626  1.00  0.00     0.150 C 
HETATM    2  C   UNL     1      -1.936  10.347  14.147  1.00  0.00     0.051 C 
HETATM    3  C   UNL     1      -0.634  10.182  11.944  1.00  0.00     0.080 C 
HETATM    4  C   UNL     1      -1.789   8.429  15.745  1.00  0.00     0.042 C 
HETATM    5  C   UNL     1       1.087   9.604  13.681  1.00  0.00     0.044 C 
HETATM    6  F   UNL     1      -1.475  12.214  12.755  1.00  0.00    -0.249 F 
HETATM    7  C   UNL     1      -0.829   8.254  13.413  1.00  0.00    -0.035 C 
HETATM    8  C   UNL     1       0.279   9.616  14.953  1.00  0.00     0.017 C 
HETATM    9  C   UNL     1      -2.829   6.288  14.725  1.00  0.00    -0.013 C 
HETATM   10  C   UNL     1      -1.116   9.149  14.604  1.00  0.00    -0.009 C 
HETATM   11  C   UNL     1      -1.674   5.971  13.989  1.00  0.00     0.014 C 
HETATM   12  C   UNL     1      -1.638  10.868  12.787  1.00  0.00     0.173 C 
HETATM   13  C   UNL     1      -2.869   7.451  15.486  1.00  0.00    -0.012 C 
HETATM   14  C   UNL     1      -0.923   6.920  13.310  1.00  0.00     0.007 C 
ENDROOT
BRANCH   9  15
HETATM   15  C   UNL     1      -3.963   5.455  14.587  1.00  0.00     0.044 C 
HETATM   16  C   UNL     1      -5.286   5.798  14.904  1.00  0.00     0.031 C 
HETATM   17  C   UNL     1      -6.193   4.773  15.188  1.00  0.00     0.016 C 
HETATM   18  C   UNL     1      -5.671   3.501  15.467  1.00  0.00    -0.009 C 
HETATM   19  C   UNL     1      -6.410   2.419  15.932  1.00  0.00     0.014 C 
HETATM   20  C   UNL     1      -4.310   3.294  15.203  1.00  0.00     0.044 C 
HETATM   21  C   UNL     1      -5.779   1.227  16.255  1.00  0.00     0.001 C 
HETATM   22  C   UNL     1      -4.391   1.209  16.350  1.00  0.00     0.002 C 
HETATM   23  C   UNL     1      -3.636   2.275  15.863  1.00  0.00     0.030 C 
HETATM   24  N   UNL     1      -3.759   4.139  14.290  1.00  0.00    -0.350 N 
HETATM   25  C   UNL     1      -3.442   3.727  12.924  1.00  0.00     0.156 C 
ENDBRANCH   9  15
BRANCH   1  26
HETATM   26  N   UNL     1       0.867   8.238  11.698  1.00  0.00    -0.066 N 
ATOM     27  HN3 UNL     1       1.780   8.638  11.484  1.00  0.00     0.275 HD
ATOM     28  HN2 UNL     1       1.165   7.370  12.142  1.00  0.00     0.275 HD
ATOM     29  HN1 UNL     1       0.343   8.050  10.844  1.00  0.00     0.275 HD
ENDBRANCH   1  26
TORSDOF 2
ENDMDL
MODEL 4
REMARK VINA RESULT:      -7.5      2.036      3.202
REMARK  2 active torsions:
REMARK  status: ('A' for Active; 'I' for Inactive)
REMARK    1  A    between atoms: C_2  and  N_10 
REMARK    2  A    between atoms: C_16  and  C_19 
ROOT
HETATM    1  C   UNL     1       0.327   9.899  12.797  1.00  0.00     0.150 C 
HETATM    2  C   UNL     1      -1.970  10.664  14.354  1.00  0.00     0.051 C 
HETATM    3  C   UNL     1      -0.546  11.020  12.252  1.00  0.00     0.080 C 
HETATM    4  C   UNL     1      -1.678   8.530  15.624  1.00  0.00     0.042 C 
HETATM    5  C   UNL     1       1.140  10.348  13.989  1.00  0.00     0.044 C 
HETATM    6  F   UNL     1      -1.665  12.780  13.321  1.00  0.00    -0.249 F 
HETATM    7  C   UNL     1      -0.584   8.861  13.370  1.00  0.00    -0.035 C 
HETATM    8  C   UNL     1       0.271  10.055  15.186  1.00  0.00     0.017 C 
HETATM    9  C   UNL     1      -2.399   6.493  14.198  1.00  0.00    -0.013 C 
HETATM   10  C   UNL     1      -1.037   9.503  14.667  1.00  0.00    -0.009 C 
HETATM   11  C   UNL     1      -1.177   6.434  13.504  1.00  0.00     0.014 C 
HETATM   12  C   UNL     1      -1.667  11.439  13.121  1.00  0.00     0.173 C 
HETATM   13  C   UNL     1      -2.617   7.499  15.133  1.00  0.00    -0.012 C 
HETATM   14  C   UNL     1      -0.511   7.562  13.044  1.00  0.00     0.007 C 
ENDROOT
BRANCH   9  15
HETATM   15  C   UNL     1      -3.415   5.577  13.845  1.00  0.00     0.044 C 
HETATM   16  C   UNL     1      -4.308   4.949  14.729  1.00  0.00     0.031 C 
HETATM   17  C   UNL     1      -4.898   3.744  14.339  1.00  0.00     0.016 C 
HETATM   18  C   UNL     1      -4.328   3.061  13.254  1.00  0.00    -0.009 C 
HETATM   19  C   UNL     1      -4.678   1.779  12.846  1.00  0.00     0.014 C 
HETATM   20  C   UNL     1      -3.372   3.748  12.493  1.00  0.00     0.044 C 
HETATM   21  C   UNL     1      -3.992   1.164  11.809  1.00  0.00     0.001 C 
HETATM   22  C   UNL     1      -2.804   1.733  11.361  1.00  0.00     0.002 C 
HETATM   23  C   UNL     1      -2.455   3.028  11.740  1.00  0.00     0.030 C 
HETATM   24  N   UNL     1      -3.438   5.105  12.565  1.00  0.00    -0.350 N 
HETATM   25  C   UNL     1      -3.974   5.927  11.482  1.00  0.00     0.156 C 
ENDBRANCH   9  15
BRANCH   1  26
HETATM   26  N   UNL     1       1.188   9.323  11.800  1.00  0.00    -0.066 N 
ATOM     27  HN3 UNL     1       2.109   9.118  12.188  1.00  0.00     0.275 HD
ATOM     28  HN2 UNL     1       0.892   8.376  11.565  1.00  0.00     0.275 HD
ATOM     29  HN1 UNL     1       1.267   9.899  10.962  1.00  0.00     0.275 HD
ENDBRANCH   1  26
TORSDOF 2
ENDMDL
MODEL 5
REMARK VINA RESULT:      -7.4      1.769      2.123
REMARK  2 active torsions:
REMARK  status: ('A' for Active; 'I' for Inactive)
REMARK    1  A    between atoms: C_2  and  N_10 
REMARK    2  A    between atoms: C_16  and  C_19 
ROOT
HETATM    1  C   UNL     1      -0.621   7.088   9.990  1.00  0.00     0.150 C 
HETATM    2  C   UNL     1      -0.431   7.786  12.776  1.00  0.00     0.051 C 
HETATM    3  C   UNL     1      -0.822   8.551  10.360  1.00  0.00     0.080 C 
HETATM    4  C   UNL     1      -0.633   5.346  13.283  1.00  0.00     0.042 C 
HETATM    5  C   UNL     1       0.825   6.669  10.115  1.00  0.00     0.044 C 
HETATM    6  F   UNL     1       0.234   9.910  11.951  1.00  0.00    -0.249 F 
HETATM    7  C   UNL     1      -1.312   6.265  11.028  1.00  0.00    -0.035 C 
HETATM    8  C   UNL     1       0.967   6.177  11.532  1.00  0.00     0.017 C 
HETATM    9  C   UNL     1      -3.054   4.513  12.895  1.00  0.00    -0.013 C 
HETATM   10  C   UNL     1      -0.370   6.374  12.212  1.00  0.00    -0.009 C 
HETATM   11  C   UNL     1      -2.878   4.374  11.507  1.00  0.00     0.014 C 
HETATM   12  C   UNL     1      -0.633   8.881  11.790  1.00  0.00     0.173 C 
HETATM   13  C   UNL     1      -2.018   5.009  13.679  1.00  0.00    -0.012 C 
HETATM   14  C   UNL     1      -2.197   5.302  10.731  1.00  0.00     0.007 C 
ENDROOT
BRANCH   9  15
HETATM   15  C   UNL     1      -4.328   4.236  13.441  1.00  0.00     0.044 C 
HETATM   16  C   UNL     1      -5.286   5.186  13.832  1.00  0.00     0.031 C 
HETATM   17  C   UNL     1      -6.246   4.816  14.777  1.00  0.00     0.016 C 
HETATM   18  C   UNL     1      -6.010   3.652  15.525  1.00  0.00    -0.009 C 
HETATM   19  C   UNL     1      -6.767   3.235  16.613  1.00  0.00     0.014 C 
HETATM   20  C   UNL     1      -4.963   2.820  15.103  1.00  0.00     0.044 C 
HETATM   21  C   UNL     1      -6.396   2.109  17.333  1.00  0.00     0.001 C 
HETATM   22  C   UNL     1      -5.138   1.559  17.115  1.00  0.00     0.002 C 
HETATM   23  C   UNL     1      -4.379   1.948  16.012  1.00  0.00     0.030 C 
HETATM   24  N   UNL     1      -4.608   2.949  13.796  1.00  0.00    -0.350 N 
HETATM   25  C   UNL     1      -4.964   1.961  12.780  1.00  0.00     0.156 C 
ENDBRANCH   9  15
BRANCH   1  26
HETATM   26  N   UNL     1      -1.117   6.769   8.678  1.00  0.00    -0.066 N 
ATOM     27  HN3 UNL     1      -1.118   7.594   8.078  1.00  0.00     0.275 HD
ATOM     28  HN2 UNL     1      -0.449   6.192   8.167  1.00  0.00     0.275 HD
ATOM     29  HN1 UNL     1      -2.038   6.332   8.696  1.00  0.00     0.275 HD
ENDBRANCH   1  26
TORSDOF 2
ENDMDL
MODEL 6
REMARK VINA RESULT:      -7.3      4.081      5.559
REMARK  2 active torsions:
REMARK  status: ('A' for Active; 'I' for Inactive)
REMARK    1  A    between atoms: C_2  and  N_10 
REMARK    2  A    between atoms: C_16  and  C_19 
ROOT
HETATM    1  C   UNL     1      -5.157   8.647   7.856  1.00  0.00     0.150 C 
HETATM    2  C   UNL     1      -7.497   7.237   8.763  1.00  0.00     0.051 C 
HETATM    3  C   UNL     1      -5.825   7.695   6.874  1.00  0.00     0.080 C 
HETATM    4  C   UNL     1      -6.855   7.897  11.087  1.00  0.00     0.042 C 
HETATM    5  C   UNL     1      -5.974   9.901   8.067  1.00  0.00     0.044 C 
HETATM    6  F   UNL     1      -8.082   7.217   6.462  1.00  0.00    -0.249 F 
HETATM    7  C   UNL     1      -5.177   7.991   9.199  1.00  0.00    -0.035 C 
HETATM    8  C   UNL     1      -6.886   9.583   9.224  1.00  0.00     0.017 C 
HETATM    9  C   UNL     1      -4.810   6.538  11.908  1.00  0.00    -0.013 C 
HETATM   10  C   UNL     1      -6.627   8.146   9.618  1.00  0.00    -0.009 C 
HETATM   11  C   UNL     1      -3.884   7.363  11.246  1.00  0.00     0.014 C 
HETATM   12  C   UNL     1      -7.070   7.054   7.350  1.00  0.00     0.173 C 
HETATM   13  C   UNL     1      -6.173   6.780  11.776  1.00  0.00    -0.012 C 
HETATM   14  C   UNL     1      -4.083   7.847   9.961  1.00  0.00     0.007 C 
ENDROOT
BRANCH   9  15
HETATM   15  C   UNL     1      -4.323   5.414  12.614  1.00  0.00     0.044 C 
HETATM   16  C   UNL     1      -3.926   4.191  12.050  1.00  0.00     0.031 C 
HETATM   17  C   UNL     1      -3.945   3.047  12.854  1.00  0.00     0.016 C 
HETATM   18  C   UNL     1      -4.664   3.109  14.057  1.00  0.00    -0.009 C 
HETATM   19  C   UNL     1      -4.929   2.024  14.885  1.00  0.00     0.014 C 
HETATM   20  C   UNL     1      -5.100   4.372  14.480  1.00  0.00     0.044 C 
HETATM   21  C   UNL     1      -5.721   2.182  16.013  1.00  0.00     0.001 C 
HETATM   22  C   UNL     1      -6.445   3.360  16.162  1.00  0.00     0.002 C 
HETATM   23  C   UNL     1      -6.172   4.464  15.358  1.00  0.00     0.030 C 
HETATM   24  N   UNL     1      -4.404   5.427  13.976  1.00  0.00    -0.350 N 
HETATM   25  C   UNL     1      -3.440   6.188  14.768  1.00  0.00     0.156 C 
ENDBRANCH   9  15
BRANCH   1  26
HETATM   26  N   UNL     1      -3.813   8.990   7.479  1.00  0.00    -0.066 N 
ATOM     27  HN3 UNL     1      -3.134   8.473   8.038  1.00  0.00     0.275 HD
ATOM     28  HN2 UNL     1      -3.587   8.618   6.557  1.00  0.00     0.275 HD
ATOM     29  HN1 UNL     1      -3.631   9.992   7.523  1.00  0.00     0.275 HD
ENDBRANCH   1  26
TORSDOF 2
ENDMDL
MODEL 7
REMARK VINA RESULT:      -7.2      2.240      3.481
REMARK  2 active torsions:
REMARK  status: ('A' for Active; 'I' for Inactive)
REMARK    1  A    between atoms: C_2  and  N_10 
REMARK    2  A    between atoms: C_16  and  C_19 
ROOT
HETATM    1  C   UNL     1       0.423   7.986  12.253  1.00  0.00     0.150 C 
HETATM    2  C   UNL     1      -2.242   8.993  12.667  1.00  0.00     0.051 C 
HETATM    3  C   UNL     1      -0.204   8.791  11.123  1.00  0.00     0.080 C 
HETATM    4  C   UNL     1      -2.418   7.410  14.594  1.00  0.00     0.042 C 
HETATM    5  C   UNL     1       0.811   8.863  13.420  1.00  0.00     0.044 C 
HETATM    6  F   UNL     1      -1.578  10.690  11.144  1.00  0.00    -0.249 F 
HETATM    7  C   UNL     1      -0.643   7.105  12.820  1.00  0.00    -0.035 C 
HETATM    8  C   UNL     1      -0.405   8.888  14.311  1.00  0.00     0.017 C 
HETATM    9  C   UNL     1      -2.671   4.968  13.771  1.00  0.00    -0.013 C 
HETATM   10  C   UNL     1      -1.483   8.082  13.621  1.00  0.00    -0.009 C 
HETATM   11  C   UNL     1      -1.291   4.804  13.555  1.00  0.00     0.014 C 
HETATM   12  C   UNL     1      -1.539   9.360  11.408  1.00  0.00     0.173 C 
HETATM   13  C   UNL     1      -3.164   6.194  14.203  1.00  0.00    -0.012 C 
HETATM   14  C   UNL     1      -0.492   5.783  12.981  1.00  0.00     0.007 C 
ENDROOT
BRANCH   9  15
HETATM   15  C   UNL     1      -3.534   3.898  13.441  1.00  0.00     0.044 C 
HETATM   16  C   UNL     1      -4.329   3.168  14.339  1.00  0.00     0.031 C 
HETATM   17  C   UNL     1      -4.726   1.877  13.982  1.00  0.00     0.016 C 
HETATM   18  C   UNL     1      -4.049   1.257  12.921  1.00  0.00    -0.009 C 
HETATM   19  C   UNL     1      -4.197  -0.075  12.549  1.00  0.00     0.014 C 
HETATM   20  C   UNL     1      -3.202   2.060  12.144  1.00  0.00     0.044 C 
HETATM   21  C   UNL     1      -3.416  -0.608  11.534  1.00  0.00     0.001 C 
HETATM   22  C   UNL     1      -2.325   0.122  11.075  1.00  0.00     0.002 C 
HETATM   23  C   UNL     1      -2.179   1.465  11.417  1.00  0.00     0.030 C 
HETATM   24  N   UNL     1      -3.473   3.392  12.175  1.00  0.00    -0.350 N 
HETATM   25  C   UNL     1      -4.118   4.092  11.066  1.00  0.00     0.156 C 
ENDBRANCH   9  15
BRANCH   1  26
HETATM   26  N   UNL     1       1.552   7.205  11.824  1.00  0.00    -0.066 N 
ATOM     27  HN3 UNL     1       2.147   6.960  12.616  1.00  0.00     0.275 HD
ATOM     28  HN2 UNL     1       1.260   6.270  11.539  1.00  0.00     0.275 HD
ATOM     29  HN1 UNL     1       2.093   7.658  11.089  1.00  0.00     0.275 HD
ENDBRANCH   1  26
TORSDOF 2
ENDMDL
MODEL 8
REMARK VINA RESULT:      -6.8      2.376      7.646
REMARK  2 active torsions:
REMARK  status: ('A' for Active; 'I' for Inactive)
REMARK    1  A    between atoms: C_2  and  N_10 
REMARK    2  A    between atoms: C_16  and  C_19 
ROOT
HETATM    1  C   UNL     1      -3.984   3.368  14.724  1.00  0.00     0.150 C 
HETATM    2  C   UNL     1      -5.376   5.487  13.361  1.00  0.00     0.051 C 
HETATM    3  C   UNL     1      -5.291   3.853  15.335  1.00  0.00     0.080 C 
HETATM    4  C   UNL     1      -3.268   5.894  12.080  1.00  0.00     0.042 C 
HETATM    5  C   UNL     1      -4.217   2.563  13.466  1.00  0.00     0.044 C 
HETATM    6  F   UNL     1      -7.309   4.532  14.355  1.00  0.00    -0.249 F 
HETATM    7  C   UNL     1      -3.245   4.571  14.234  1.00  0.00    -0.035 C 
HETATM    8  C   UNL     1      -4.194   3.573  12.347  1.00  0.00     0.017 C 
HETATM    9  C   UNL     1      -1.478   7.025  13.570  1.00  0.00    -0.013 C 
HETATM   10  C   UNL     1      -4.011   4.936  12.976  1.00  0.00    -0.009 C 
HETATM   11  C   UNL     1      -1.075   5.814  14.160  1.00  0.00     0.014 C 
HETATM   12  C   UNL     1      -6.016   4.884  14.561  1.00  0.00     0.173 C 
HETATM   13  C   UNL     1      -2.522   7.036  12.652  1.00  0.00    -0.012 C 
HETATM   14  C   UNL     1      -1.970   4.830  14.558  1.00  0.00     0.007 C 
ENDROOT
BRANCH   9  15
HETATM   15  C   UNL     1      -0.867   8.221  14.010  1.00  0.00     0.044 C 
HETATM   16  C   UNL     1      -0.927   8.753  15.309  1.00  0.00     0.031 C 
HETATM   17  C   UNL     1      -0.720  10.124  15.479  1.00  0.00     0.016 C 
HETATM   18  C   UNL     1      -0.796  10.941  14.341  1.00  0.00    -0.009 C 
HETATM   19  C   UNL     1      -0.786  12.332  14.353  1.00  0.00     0.014 C 
HETATM   20  C   UNL     1      -0.829  10.302  13.093  1.00  0.00     0.044 C 
HETATM   21  C   UNL     1      -0.949  13.043  13.174  1.00  0.00     0.001 C 
HETATM   22  C   UNL     1      -1.372  12.364  12.036  1.00  0.00     0.002 C 
HETATM   23  C   UNL     1      -1.360  10.971  11.999  1.00  0.00     0.030 C 
HETATM   24  N   UNL     1      -0.314   9.043  13.071  1.00  0.00    -0.350 N 
HETATM   25  C   UNL     1       0.992   8.734  12.493  1.00  0.00     0.156 C 
ENDBRANCH   9  15
BRANCH   1  26
HETATM   26  N   UNL     1      -3.177   2.618  15.648  1.00  0.00    -0.066 N 
ATOM     27  HN3 UNL     1      -2.275   2.380  15.234  1.00  0.00     0.275 HD
ATOM     28  HN2 UNL     1      -2.858   3.209  16.415  1.00  0.00     0.275 HD
ATOM     29  HN1 UNL     1      -3.647   1.785  16.001  1.00  0.00     0.275 HD
ENDBRANCH   1  26
TORSDOF 2
ENDMDL
MODEL 9
REMARK VINA RESULT:      -6.6      3.692      5.563
REMARK  2 active torsions:
REMARK  status: ('A' for Active; 'I' for Inactive)
REMARK    1  A    between atoms: C_2  and  N_10 
REMARK    2  A    between atoms: C_16  and  C_19 
ROOT
HETATM    1  C   UNL     1      -4.524   9.757   9.353  1.00  0.00     0.150 C 
HETATM    2  C   UNL     1      -6.414   7.627   8.933  1.00  0.00     0.051 C 
HETATM    3  C   UNL     1      -4.802   9.341   7.915  1.00  0.00     0.080 C 
HETATM    4  C   UNL     1      -6.184   7.096  11.365  1.00  0.00     0.042 C 
HETATM    5  C   UNL     1      -5.686  10.513   9.954  1.00  0.00     0.044 C 
HETATM    6  F   UNL     1      -6.779   8.687   6.840  1.00  0.00    -0.249 F 
HETATM    7  C   UNL     1      -4.459   8.511  10.174  1.00  0.00    -0.035 C 
HETATM    8  C   UNL     1      -6.556   9.455  10.583  1.00  0.00     0.017 C 
HETATM    9  C   UNL     1      -3.904   5.973  11.860  1.00  0.00    -0.013 C 
HETATM   10  C   UNL     1      -5.920   8.116  10.286  1.00  0.00    -0.009 C 
HETATM   11  C   UNL     1      -3.209   7.196  11.897  1.00  0.00     0.014 C 
HETATM   12  C   UNL     1      -5.839   8.302   7.738  1.00  0.00     0.173 C 
HETATM   13  C   UNL     1      -5.262   5.957  11.565  1.00  0.00    -0.012 C 
HETATM   14  C   UNL     1      -3.436   8.225  10.993  1.00  0.00     0.007 C 
ENDROOT
BRANCH   9  15
HETATM   15  C   UNL     1      -3.168   4.778  12.027  1.00  0.00     0.044 C 
HETATM   16  C   UNL     1      -1.881   4.521  11.527  1.00  0.00     0.031 C 
HETATM   17  C   UNL     1      -1.492   3.192  11.336  1.00  0.00     0.016 C 
HETATM   18  C   UNL     1      -2.498   2.213  11.331  1.00  0.00    -0.009 C 
HETATM   19  C   UNL     1      -2.311   0.879  10.988  1.00  0.00     0.014 C 
HETATM   20  C   UNL     1      -3.775   2.603  11.759  1.00  0.00     0.044 C 
HETATM   21  C   UNL     1      -3.393   0.012  10.938  1.00  0.00     0.001 C 
HETATM   22  C   UNL     1      -4.678   0.541  10.985  1.00  0.00     0.002 C 
HETATM   23  C   UNL     1      -4.881   1.870  11.354  1.00  0.00     0.030 C 
HETATM   24  N   UNL     1      -3.809   3.700  12.564  1.00  0.00    -0.350 N 
HETATM   25  C   UNL     1      -4.038   3.615  14.004  1.00  0.00     0.156 C 
ENDBRANCH   9  15
BRANCH   1  26
HETATM   26  N   UNL     1      -3.313  10.520   9.492  1.00  0.00    -0.066 N 
ATOM     27  HN3 UNL     1      -2.684  10.353   8.706  1.00  0.00     0.275 HD
ATOM     28  HN2 UNL     1      -3.491  11.514   9.355  1.00  0.00     0.275 HD
ATOM     29  HN1 UNL     1      -2.838  10.353  10.378  1.00  0.00     0.275 HD
ENDBRANCH   1  26
TORSDOF 2
ENDMDL
