MODEL 1
REMARK VINA RESULT:     -11.7      0.000      0.000
REMARK  7 active torsions:
REMARK  status: ('A' for Active; 'I' for Inactive)
REMARK    1  A    between atoms: C_1  and  C_33 
REMARK    2  A    between atoms: N_8  and  C_21 
REMARK       I    between atoms: N_8  and  C_33 
REMARK    3  A    between atoms: C_11  and  N_16 
REMARK    4  A    between atoms: O_12  and  C_29 
REMARK    5  A    between atoms: O_14  and  C_35 
REMARK    6  A    between atoms: N_16  and  C_27 
REMARK    7  A    between atoms: C_20  and  C_21 
ROOT
HETATM    1  C   UNL     1       9.943  13.214  18.898  1.00  0.00     0.037 C 
HETATM    2  C   UNL     1       8.070  15.510  20.373  1.00  0.00     0.001 C 
HETATM    3  C   UNL     1      10.587  14.442  20.861  1.00  0.00     0.020 C 
HETATM    4  C   UNL     1      10.548  15.437  19.702  1.00  0.00     0.037 C 
HETATM    5  C   UNL     1      10.583  14.516  18.488  1.00  0.00     0.026 C 
HETATM    6  C   UNL     1       9.572  13.406  20.364  1.00  0.00     0.027 C 
HETATM    7  C   UNL     1       9.249  16.258  19.752  1.00  0.00     0.011 C 
HETATM    8  C   UNL     1       8.174  14.002  20.531  1.00  0.00     0.009 C 
ENDROOT
BRANCH   1   9
HETATM    9  C   UNL     1       9.151  12.376  17.938  1.00  0.00     0.250 C 
HETATM   10  O   UNL     1       9.707  11.403  17.416  1.00  0.00    -0.268 OA
HETATM   11  N   UNL     1       7.841  12.666  17.729  1.00  0.00    -0.353 N 
ATOM     12  HN  UNL     1       7.198  12.721  18.520  1.00  0.00     0.163 HD
BRANCH  11  13
HETATM   13  C   UNL     1       7.352  12.901  16.373  1.00  0.00     0.162 C 
BRANCH  13  14
HETATM   14  C   UNL     1       6.721  11.685  15.736  1.00  0.00    -0.034 C 
HETATM   15  C   UNL     1       6.299  10.632  16.569  1.00  0.00     0.021 C 
HETATM   16  C   UNL     1       6.032   9.379  15.989  1.00  0.00    -0.025 C 
HETATM   17  C   UNL     1       5.363   8.350  16.678  1.00  0.00     0.012 C 
HETATM   18  C   UNL     1       6.489   9.144  14.639  1.00  0.00    -0.025 C 
HETATM   19  C   UNL     1       5.468   7.036  16.187  1.00  0.00     0.001 C 
HETATM   20  C   UNL     1       6.244   6.757  15.045  1.00  0.00     0.001 C 
HETATM   21  C   UNL     1       6.696   7.812  14.241  1.00  0.00     0.012 C 
HETATM   22  C   UNL     1       6.621  10.252  13.771  1.00  0.00     0.019 C 
HETATM   23  C   UNL     1       6.534  11.542  14.321  1.00  0.00    -0.053 C 
HETATM   24  C   UNL     1       6.208  12.743  13.457  1.00  0.00     0.049 C 
ENDBRANCH  13  14
ENDBRANCH  11  13
ENDBRANCH   1   9
BRANCH   5  25
HETATM   25  N   UNL     1      10.299  15.051  17.188  1.00  0.00    -0.359 N 
ATOM     26  HN  UNL     1       9.665  15.843  17.082  1.00  0.00     0.166 HD
BRANCH  25  27
HETATM   27  C   UNL     1      10.903  14.473  16.065  1.00  0.00     0.035 C 
HETATM   28  C   UNL     1      10.123  14.129  14.962  1.00  0.00     0.029 C 
HETATM   29  C   UNL     1      10.378  13.022  14.169  1.00  0.00     0.005 C 
HETATM   30  C   UNL     1      11.329  12.077  14.411  1.00  0.00     0.039 C 
HETATM   31  C   UNL     1      12.416  12.065  15.258  1.00  0.00     0.098 C 
HETATM   32  C   UNL     1      13.030  13.219  15.755  1.00  0.00     0.100 C 
HETATM   33  C   UNL     1      12.282  14.340  16.075  1.00  0.00     0.068 C 
BRANCH  31  34
HETATM   34  O   UNL     1      12.918  10.871  15.693  1.00  0.00    -0.358 OA
ATOM     35  HO  UNL     1      12.852  10.105  15.135  1.00  0.00     0.217 HD
ENDBRANCH  31  34
BRANCH  32  36
HETATM   36  O   UNL     1      14.380  13.264  15.837  1.00  0.00    -0.358 OA
ATOM     37  HO  UNL     1      14.898  12.969  15.098  1.00  0.00     0.217 HD
ENDBRANCH  32  36
ENDBRANCH  25  27
ENDBRANCH   5  25
TORSDOF 7
ENDMDL
MODEL 2
REMARK VINA RESULT:     -11.6      1.901      4.529
REMARK  7 active torsions:
REMARK  status: ('A' for Active; 'I' for Inactive)
REMARK    1  A    between atoms: C_1  and  C_33 
REMARK    2  A    between atoms: N_8  and  C_21 
REMARK       I    between atoms: N_8  and  C_33 
REMARK    3  A    between atoms: C_11  and  N_16 
REMARK    4  A    between atoms: O_12  and  C_29 
REMARK    5  A    between atoms: O_14  and  C_35 
REMARK    6  A    between atoms: N_16  and  C_27 
REMARK    7  A    between atoms: C_20  and  C_21 
ROOT
HETATM    1  C   UNL     1      10.128  13.835  15.162  1.00  0.00     0.037 C 
HETATM    2  C   UNL     1      13.197  12.738  14.585  1.00  0.00     0.001 C 
HETATM    3  C   UNL     1      12.015  15.249  14.696  1.00  0.00     0.020 C 
HETATM    4  C   UNL     1      12.257  14.615  16.065  1.00  0.00     0.037 C 
HETATM    5  C   UNL     1      10.862  14.132  16.445  1.00  0.00     0.026 C 
HETATM    6  C   UNL     1      11.119  14.183  14.057  1.00  0.00     0.027 C 
HETATM    7  C   UNL     1      13.246  13.443  15.939  1.00  0.00     0.011 C 
HETATM    8  C   UNL     1      12.002  12.992  13.680  1.00  0.00     0.009 C 
ENDROOT
BRANCH   1   9
HETATM    9  C   UNL     1       9.111  12.738  15.059  1.00  0.00     0.250 C 
HETATM   10  O   UNL     1       9.051  12.094  14.007  1.00  0.00    -0.268 OA
HETATM   11  N   UNL     1       8.343  12.442  16.140  1.00  0.00    -0.353 N 
ATOM     12  HN  UNL     1       8.784  12.219  17.033  1.00  0.00     0.163 HD
BRANCH  11  13
HETATM   13  C   UNL     1       6.888  12.444  16.024  1.00  0.00     0.162 C 
BRANCH  13  14
HETATM   14  C   UNL     1       6.319  11.153  15.482  1.00  0.00    -0.034 C 
HETATM   15  C   UNL     1       6.011  10.122  16.388  1.00  0.00     0.021 C 
HETATM   16  C   UNL     1       5.810   8.823  15.888  1.00  0.00    -0.025 C 
HETATM   17  C   UNL     1       5.247   7.790  16.661  1.00  0.00     0.012 C 
HETATM   18  C   UNL     1       6.225   8.545  14.533  1.00  0.00    -0.025 C 
HETATM   19  C   UNL     1       5.426   6.461  16.236  1.00  0.00     0.001 C 
HETATM   20  C   UNL     1       6.171   6.173  15.076  1.00  0.00     0.001 C 
HETATM   21  C   UNL     1       6.511   7.210  14.197  1.00  0.00     0.012 C 
HETATM   22  C   UNL     1       6.240   9.609  13.603  1.00  0.00     0.019 C 
HETATM   23  C   UNL     1       6.083  10.919  14.087  1.00  0.00    -0.053 C 
HETATM   24  C   UNL     1       5.635  12.044  13.176  1.00  0.00     0.049 C 
ENDBRANCH  13  14
ENDBRANCH  11  13
ENDBRANCH   1   9
BRANCH   5  25
HETATM   25  N   UNL     1      10.702  13.243  17.559  1.00  0.00    -0.359 N 
ATOM     26  HN  UNL     1      10.812  12.236  17.436  1.00  0.00     0.166 HD
BRANCH  25  27
HETATM   27  C   UNL     1      10.392  13.772  18.817  1.00  0.00     0.035 C 
HETATM   28  C   UNL     1       9.830  12.950  19.792  1.00  0.00     0.029 C 
HETATM   29  C   UNL     1       8.896  13.397  20.713  1.00  0.00     0.005 C 
HETATM   30  C   UNL     1       8.326  14.635  20.726  1.00  0.00     0.039 C 
HETATM   31  C   UNL     1       8.665  15.807  20.086  1.00  0.00     0.098 C 
HETATM   32  C   UNL     1       9.947  16.091  19.604  1.00  0.00     0.100 C 
HETATM   33  C   UNL     1      10.737  15.092  19.060  1.00  0.00     0.068 C 
BRANCH  31  34
HETATM   34  O   UNL     1       7.703  16.750  19.854  1.00  0.00    -0.358 OA
ATOM     35  HO  UNL     1       7.211  17.107  20.584  1.00  0.00     0.217 HD
ENDBRANCH  31  34
BRANCH  32  36
HETATM   36  O   UNL     1      10.447  17.338  19.756  1.00  0.00    -0.358 OA
ATOM     37  HO  UNL     1       9.877  18.085  19.617  1.00  0.00     0.217 HD
ENDBRANCH  32  36
ENDBRANCH  25  27
ENDBRANCH   5  25
TORSDOF 7
ENDMDL
MODEL 3
REMARK VINA RESULT:     -11.0      1.239      1.744
REMARK  7 active torsions:
REMARK  status: ('A' for Active; 'I' for Inactive)
REMARK    1  A    between atoms: C_1  and  C_33 
REMARK    2  A    between atoms: N_8  and  C_21 
REMARK       I    between atoms: N_8  and  C_33 
REMARK    3  A    between atoms: C_11  and  N_16 
REMARK    4  A    between atoms: O_12  and  C_29 
REMARK    5  A    between atoms: O_14  and  C_35 
REMARK    6  A    between atoms: N_16  and  C_27 
REMARK    7  A    between atoms: C_20  and  C_21 
ROOT
HETATM    1  C   UNL     1       9.677  12.968  19.325  1.00  0.00     0.037 C 
HETATM    2  C   UNL     1       8.101  15.701  20.327  1.00  0.00     0.001 C 
HETATM    3  C   UNL     1      10.276  14.252  21.267  1.00  0.00     0.020 C 
HETATM    4  C   UNL     1      10.586  15.115  20.045  1.00  0.00     0.037 C 
HETATM    5  C   UNL     1      10.605  14.085  18.922  1.00  0.00     0.026 C 
HETATM    6  C   UNL     1       9.157  13.371  20.701  1.00  0.00     0.027 C 
HETATM    7  C   UNL     1       9.474  16.158  19.838  1.00  0.00     0.011 C 
HETATM    8  C   UNL     1       7.890  14.223  20.610  1.00  0.00     0.009 C 
ENDROOT
BRANCH   1   9
HETATM    9  C   UNL     1       8.875  12.194  18.321  1.00  0.00     0.250 C 
HETATM   10  O   UNL     1       9.350  11.142  17.881  1.00  0.00    -0.268 OA
HETATM   11  N   UNL     1       7.633  12.632  17.985  1.00  0.00    -0.353 N 
ATOM     12  HN  UNL     1       6.936  12.794  18.712  1.00  0.00     0.163 HD
BRANCH  11  13
HETATM   13  C   UNL     1       7.298  12.869  16.584  1.00  0.00     0.162 C 
BRANCH  13  14
HETATM   14  C   UNL     1       6.689  11.671  15.893  1.00  0.00    -0.034 C 
HETATM   15  C   UNL     1       6.250  10.592  16.683  1.00  0.00     0.021 C 
HETATM   16  C   UNL     1       6.004   9.356  16.057  1.00  0.00    -0.025 C 
HETATM   17  C   UNL     1       5.320   8.304  16.697  1.00  0.00     0.012 C 
HETATM   18  C   UNL     1       6.497   9.164  14.714  1.00  0.00    -0.025 C 
HETATM   19  C   UNL     1       5.444   7.007  16.169  1.00  0.00     0.001 C 
HETATM   20  C   UNL     1       6.251   6.765  15.040  1.00  0.00     0.001 C 
HETATM   21  C   UNL     1       6.720   7.845  14.281  1.00  0.00     0.012 C 
HETATM   22  C   UNL     1       6.647  10.298  13.884  1.00  0.00     0.019 C 
HETATM   23  C   UNL     1       6.540  11.571  14.470  1.00  0.00    -0.053 C 
HETATM   24  C   UNL     1       6.232  12.797  13.635  1.00  0.00     0.049 C 
ENDBRANCH  13  14
ENDBRANCH  11  13
ENDBRANCH   1   9
BRANCH   5  25
HETATM   25  N   UNL     1      10.608  14.529  17.558  1.00  0.00    -0.359 N 
ATOM     26  HN  UNL     1      10.358  15.491  17.327  1.00  0.00     0.166 HD
BRANCH  25  27
HETATM   27  C   UNL     1      10.955  13.626  16.547  1.00  0.00     0.035 C 
HETATM   28  C   UNL     1      12.126  12.878  16.661  1.00  0.00     0.029 C 
HETATM   29  C   UNL     1      12.914  12.532  15.576  1.00  0.00     0.005 C 
HETATM   30  C   UNL     1      12.725  12.956  14.294  1.00  0.00     0.039 C 
HETATM   31  C   UNL     1      11.650  13.554  13.675  1.00  0.00     0.098 C 
HETATM   32  C   UNL     1      10.334  13.471  14.142  1.00  0.00     0.100 C 
HETATM   33  C   UNL     1      10.063  13.460  15.500  1.00  0.00     0.068 C 
BRANCH  31  34
HETATM   34  O   UNL     1      11.855  14.321  12.562  1.00  0.00    -0.358 OA
ATOM     35  HO  UNL     1      12.080  15.239  12.660  1.00  0.00     0.217 HD
ENDBRANCH  31  34
BRANCH  32  36
HETATM   36  O   UNL     1       9.328  13.308  13.252  1.00  0.00    -0.358 OA
ATOM     37  HO  UNL     1       8.972  12.439  13.110  1.00  0.00     0.217 HD
ENDBRANCH  32  36
ENDBRANCH  25  27
ENDBRANCH   5  25
TORSDOF 7
ENDMDL
