MODEL 1
REMARK VINA RESULT:      -9.4      0.000      0.000
REMARK  4 active torsions:
REMARK  status: ('A' for Active; 'I' for Inactive)
REMARK    1  A    between atoms: C_3  and  C_4 
REMARK    2  A    between atoms: C_4  and  C_5 
REMARK    3  A    between atoms: C_7  and  N_9 
REMARK    4  A    between atoms: C_7  and  O_23 
ROOT
HETATM    1  N   UNL     1      -1.810   5.392 -49.792  1.00  0.00    -0.326 N 
ATOM      2  HN  UNL     1      -1.543   5.621 -48.834  1.00  0.00     0.169 HD
HETATM    3  C   UNL     1      -2.009   5.754 -52.091  1.00  0.00     0.047 C 
HETATM    4  C   UNL     1      -1.324   2.778 -48.502  1.00  0.00     0.016 C 
HETATM    5  C   UNL     1      -1.661   1.871 -52.129  1.00  0.00     0.226 C 
HETATM    6  C   UNL     1      -2.127   2.940 -49.771  1.00  0.00     0.037 C 
HETATM    7  C   UNL     1      -1.670   4.219 -50.434  1.00  0.00     0.024 C 
HETATM    8  C   UNL     1      -2.007   1.700 -50.649  1.00  0.00     0.079 C 
HETATM    9  O   UNL     1      -3.505   6.721 -50.504  1.00  0.00    -0.267 OA
HETATM   10  C   UNL     1      -2.377   6.182 -50.695  1.00  0.00     0.257 C 
HETATM   11  C   UNL     1      -2.209   3.180 -52.755  1.00  0.00     0.110 C 
HETATM   12  C   UNL     1      -1.919   4.374 -51.849  1.00  0.00    -0.014 C 
ENDROOT
BRANCH   3  13
HETATM   13  C   UNL     1      -1.721   6.794 -53.133  1.00  0.00    -0.035 C 
HETATM   14  C   UNL     1      -0.340   7.415 -53.147  1.00  0.00     0.050 C 
BRANCH  13  15
HETATM   15  C   UNL     1      -2.785   7.502 -53.943  1.00  0.00    -0.029 C 
HETATM   16  C   UNL     1      -2.880   8.893 -53.932  1.00  0.00     0.012 C 
HETATM   17  C   UNL     1      -3.708   9.549 -54.842  1.00  0.00     0.001 C 
HETATM   18  C   UNL     1      -4.441   8.803 -55.766  1.00  0.00     0.000 C 
HETATM   19  C   UNL     1      -4.381   7.409 -55.745  1.00  0.00     0.001 C 
HETATM   20  C   UNL     1      -3.624   6.762 -54.776  1.00  0.00     0.012 C 
ENDBRANCH  13  15
ENDBRANCH   3  13
BRANCH   5  21
HETATM   21  N   UNL     1      -2.253   0.752 -52.863  1.00  0.00    -0.047 N 
ATOM     22  HN3 UNL     1      -2.131  -0.142 -52.387  1.00  0.00     0.278 HD
ATOM     23  HN2 UNL     1      -3.273   0.771 -52.857  1.00  0.00     0.278 HD
ATOM     24  HN1 UNL     1      -1.863   0.753 -53.806  1.00  0.00     0.278 HD
ENDBRANCH   5  21
BRANCH   5  25
HETATM   25  O   UNL     1      -0.247   1.849 -52.278  1.00  0.00    -0.365 OA
ATOM     26  HO  UNL     1       0.164   2.168 -51.483  1.00  0.00     0.212 HD
ENDBRANCH   5  25
TORSDOF 4
ENDMDL
MODEL 2
REMARK VINA RESULT:      -9.3      1.543      2.489
REMARK  4 active torsions:
REMARK  status: ('A' for Active; 'I' for Inactive)
REMARK    1  A    between atoms: C_3  and  C_4 
REMARK    2  A    between atoms: C_4  and  C_5 
REMARK    3  A    between atoms: C_7  and  N_9 
REMARK    4  A    between atoms: C_7  and  O_23 
ROOT
HETATM    1  N   UNL     1      -1.499   3.287 -48.555  1.00  0.00    -0.326 N 
ATOM      2  HN  UNL     1      -1.038   3.202 -47.649  1.00  0.00     0.169 HD
HETATM    3  C   UNL     1      -2.409   4.421 -50.383  1.00  0.00     0.047 C 
HETATM    4  C   UNL     1      -0.074   0.701 -48.675  1.00  0.00     0.016 C 
HETATM    5  C   UNL     1      -1.184   1.210 -52.225  1.00  0.00     0.226 C 
HETATM    6  C   UNL     1      -1.213   1.064 -49.599  1.00  0.00     0.037 C 
HETATM    7  C   UNL     1      -1.271   2.572 -49.671  1.00  0.00     0.024 C 
HETATM    8  C   UNL     1      -1.055   0.375 -50.949  1.00  0.00     0.079 C 
HETATM    9  O   UNL     1      -3.588   4.142 -48.328  1.00  0.00    -0.267 OA
HETATM   10  C   UNL     1      -2.464   4.128 -48.907  1.00  0.00     0.257 C 
HETATM   11  C   UNL     1      -2.176   2.396 -52.102  1.00  0.00     0.110 C 
HETATM   12  C   UNL     1      -1.934   3.169 -50.808  1.00  0.00    -0.014 C 
ENDROOT
BRANCH   3  13
HETATM   13  C   UNL     1      -2.675   5.814 -50.872  1.00  0.00    -0.035 C 
HETATM   14  C   UNL     1      -3.498   6.727 -49.987  1.00  0.00     0.050 C 
BRANCH  13  15
HETATM   15  C   UNL     1      -2.476   6.264 -52.303  1.00  0.00    -0.029 C 
HETATM   16  C   UNL     1      -3.533   6.236 -53.212  1.00  0.00     0.012 C 
HETATM   17  C   UNL     1      -3.409   6.854 -54.456  1.00  0.00     0.001 C 
HETATM   18  C   UNL     1      -2.217   7.502 -54.785  1.00  0.00     0.000 C 
HETATM   19  C   UNL     1      -1.144   7.488 -53.893  1.00  0.00     0.001 C 
HETATM   20  C   UNL     1      -1.246   6.793 -52.695  1.00  0.00     0.012 C 
ENDBRANCH  13  15
ENDBRANCH   3  13
BRANCH   5  21
HETATM   21  N   UNL     1      -1.677   0.334 -53.289  1.00  0.00    -0.047 N 
ATOM     22  HN3 UNL     1      -1.111   0.384 -54.136  1.00  0.00     0.278 HD
ATOM     23  HN2 UNL     1      -1.531  -0.655 -53.086  1.00  0.00     0.278 HD
ATOM     24  HN1 UNL     1      -2.657   0.563 -53.455  1.00  0.00     0.278 HD
ENDBRANCH   5  21
BRANCH   5  25
HETATM   25  O   UNL     1       0.096   1.718 -52.575  1.00  0.00    -0.365 OA
ATOM     26  HO  UNL     1       0.774   1.196 -52.162  1.00  0.00     0.212 HD
ENDBRANCH   5  25
TORSDOF 4
ENDMDL
MODEL 3
REMARK VINA RESULT:      -8.5      1.486      2.415
REMARK  4 active torsions:
REMARK  status: ('A' for Active; 'I' for Inactive)
REMARK    1  A    between atoms: C_3  and  C_4 
REMARK    2  A    between atoms: C_4  and  C_5 
REMARK    3  A    between atoms: C_7  and  N_9 
REMARK    4  A    between atoms: C_7  and  O_23 
ROOT
HETATM    1  N   UNL     1      -1.711   4.591 -49.120  1.00  0.00    -0.326 N 
ATOM      2  HN  UNL     1      -1.315   5.114 -48.339  1.00  0.00     0.169 HD
HETATM    3  C   UNL     1      -2.498   4.289 -51.300  1.00  0.00     0.047 C 
HETATM    4  C   UNL     1      -0.264   2.572 -47.521  1.00  0.00     0.016 C 
HETATM    5  C   UNL     1      -1.123   0.697 -50.657  1.00  0.00     0.226 C 
HETATM    6  C   UNL     1      -1.337   2.221 -48.525  1.00  0.00     0.037 C 
HETATM    7  C   UNL     1      -1.401   3.349 -49.529  1.00  0.00     0.024 C 
HETATM    8  C   UNL     1      -1.079   0.849 -49.136  1.00  0.00     0.079 C 
HETATM    9  O   UNL     1      -3.817   5.296 -49.586  1.00  0.00    -0.267 OA
HETATM   10  C   UNL     1      -2.655   4.979 -49.971  1.00  0.00     0.257 C 
HETATM   11  C   UNL     1      -2.130   1.648 -51.356  1.00  0.00     0.110 C 
HETATM   12  C   UNL     1      -1.985   3.071 -50.821  1.00  0.00    -0.014 C 
ENDROOT
BRANCH   3  13
HETATM   13  C   UNL     1      -2.737   5.055 -52.566  1.00  0.00    -0.035 C 
HETATM   14  C   UNL     1      -3.354   4.313 -53.734  1.00  0.00     0.050 C 
BRANCH  13  15
HETATM   15  C   UNL     1      -2.115   6.399 -52.876  1.00  0.00    -0.029 C 
HETATM   16  C   UNL     1      -0.763   6.632 -52.629  1.00  0.00     0.012 C 
HETATM   17  C   UNL     1      -0.145   7.783 -53.117  1.00  0.00     0.001 C 
HETATM   18  C   UNL     1      -0.892   8.702 -53.857  1.00  0.00     0.000 C 
HETATM   19  C   UNL     1      -2.256   8.491 -54.063  1.00  0.00     0.001 C 
HETATM   20  C   UNL     1      -2.881   7.387 -53.495  1.00  0.00     0.012 C 
ENDBRANCH  13  15
ENDBRANCH   3  13
BRANCH   5  21
HETATM   21  N   UNL     1      -1.534  -0.675 -50.962  1.00  0.00    -0.047 N 
ATOM     22  HN3 UNL     1      -0.779  -1.350 -50.838  1.00  0.00     0.278 HD
ATOM     23  HN2 UNL     1      -2.174  -1.059 -50.267  1.00  0.00     0.278 HD
ATOM     24  HN1 UNL     1      -1.922  -0.685 -51.905  1.00  0.00     0.278 HD
ENDBRANCH   5  21
BRANCH   5  25
HETATM   25  O   UNL     1       0.175   0.937 -51.184  1.00  0.00    -0.365 OA
ATOM     26  HO  UNL     1       0.832   0.706 -50.537  1.00  0.00     0.212 HD
ENDBRANCH   5  25
TORSDOF 4
ENDMDL
MODEL 4
REMARK VINA RESULT:      -7.9      2.123      6.920
REMARK  4 active torsions:
REMARK  status: ('A' for Active; 'I' for Inactive)
REMARK    1  A    between atoms: C_3  and  C_4 
REMARK    2  A    between atoms: C_4  and  C_5 
REMARK    3  A    between atoms: C_7  and  N_9 
REMARK    4  A    between atoms: C_7  and  O_23 
ROOT
HETATM    1  N   UNL     1      -2.901   3.407 -53.801  1.00  0.00    -0.326 N 
ATOM      2  HN  UNL     1      -2.943   3.490 -54.817  1.00  0.00     0.169 HD
HETATM    3  C   UNL     1      -2.221   2.480 -51.767  1.00  0.00     0.047 C 
HETATM    4  C   UNL     1      -3.397   6.276 -54.300  1.00  0.00     0.016 C 
HETATM    5  C   UNL     1      -2.628   6.187 -50.627  1.00  0.00     0.226 C 
HETATM    6  C   UNL     1      -3.667   5.607 -52.973  1.00  0.00     0.037 C 
HETATM    7  C   UNL     1      -2.774   4.390 -52.893  1.00  0.00     0.024 C 
HETATM    8  C   UNL     1      -3.490   6.592 -51.824  1.00  0.00     0.079 C 
HETATM    9  O   UNL     1      -3.960   1.529 -53.095  1.00  0.00    -0.267 OA
HETATM   10  C   UNL     1      -2.959   2.302 -53.067  1.00  0.00     0.257 C 
HETATM   11  C   UNL     1      -2.667   4.669 -50.310  1.00  0.00     0.110 C 
HETATM   12  C   UNL     1      -2.486   3.848 -51.585  1.00  0.00    -0.014 C 
ENDROOT
BRANCH   3  13
HETATM   13  C   UNL     1      -1.399   1.351 -51.220  1.00  0.00    -0.035 C 
HETATM   14  C   UNL     1      -1.179   0.145 -52.110  1.00  0.00     0.050 C 
BRANCH  13  15
HETATM   15  C   UNL     1      -1.061   1.178 -49.756  1.00  0.00    -0.029 C 
HETATM   16  C   UNL     1      -0.815   2.286 -48.946  1.00  0.00     0.012 C 
HETATM   17  C   UNL     1      -0.725   2.140 -47.562  1.00  0.00     0.001 C 
HETATM   18  C   UNL     1      -0.882   0.875 -46.992  1.00  0.00     0.000 C 
HETATM   19  C   UNL     1      -1.081  -0.239 -47.808  1.00  0.00     0.001 C 
HETATM   20  C   UNL     1      -1.079  -0.097 -49.190  1.00  0.00     0.012 C 
ENDBRANCH  13  15
ENDBRANCH   3  13
BRANCH   5  21
HETATM   21  N   UNL     1      -3.132   6.893 -49.448  1.00  0.00    -0.047 N 
ATOM     22  HN3 UNL     1      -4.043   7.324 -49.605  1.00  0.00     0.278 HD
ATOM     23  HN2 UNL     1      -3.409   6.261 -48.697  1.00  0.00     0.278 HD
ATOM     24  HN1 UNL     1      -2.422   7.566 -49.157  1.00  0.00     0.278 HD
ENDBRANCH   5  21
BRANCH   5  25
HETATM   25  O   UNL     1      -1.282   6.569 -50.877  1.00  0.00    -0.365 OA
ATOM     26  HO  UNL     1      -0.885   5.962 -51.491  1.00  0.00     0.212 HD
ENDBRANCH   5  25
TORSDOF 4
ENDMDL
MODEL 5
REMARK VINA RESULT:      -7.9      3.563      7.576
REMARK  4 active torsions:
REMARK  status: ('A' for Active; 'I' for Inactive)
REMARK    1  A    between atoms: C_3  and  C_4 
REMARK    2  A    between atoms: C_4  and  C_5 
REMARK    3  A    between atoms: C_7  and  N_9 
REMARK    4  A    between atoms: C_7  and  O_23 
ROOT
HETATM    1  N   UNL     1      -4.260   7.277 -56.405  1.00  0.00    -0.326 N 
ATOM      2  HN  UNL     1      -4.393   6.627 -57.180  1.00  0.00     0.169 HD
HETATM    3  C   UNL     1      -3.215   8.131 -54.498  1.00  0.00     0.047 C 
HETATM    4  C   UNL     1      -5.554   8.885 -58.519  1.00  0.00     0.016 C 
HETATM    5  C   UNL     1      -4.539  11.476 -56.000  1.00  0.00     0.226 C 
HETATM    6  C   UNL     1      -5.539   9.288 -57.063  1.00  0.00     0.037 C 
HETATM    7  C   UNL     1      -4.344   8.619 -56.423  1.00  0.00     0.024 C 
HETATM    8  C   UNL     1      -5.559  10.805 -56.921  1.00  0.00     0.079 C 
HETATM    9  O   UNL     1      -4.715   6.277 -54.420  1.00  0.00    -0.267 OA
HETATM   10  C   UNL     1      -3.964   6.995 -55.142  1.00  0.00     0.257 C 
HETATM   11  C   UNL     1      -4.140  10.616 -54.772  1.00  0.00     0.110 C 
HETATM   12  C   UNL     1      -3.830   9.183 -55.196  1.00  0.00    -0.014 C 
ENDROOT
BRANCH   3  13
HETATM   13  C   UNL     1      -2.080   7.835 -53.563  1.00  0.00    -0.035 C 
HETATM   14  C   UNL     1      -0.744   8.490 -53.846  1.00  0.00     0.050 C 
BRANCH  13  15
HETATM   15  C   UNL     1      -2.072   6.690 -52.573  1.00  0.00    -0.029 C 
HETATM   16  C   UNL     1      -2.876   6.727 -51.435  1.00  0.00     0.012 C 
HETATM   17  C   UNL     1      -3.034   5.588 -50.647  1.00  0.00     0.001 C 
HETATM   18  C   UNL     1      -2.381   4.408 -51.007  1.00  0.00     0.000 C 
HETATM   19  C   UNL     1      -1.539   4.385 -52.120  1.00  0.00     0.001 C 
HETATM   20  C   UNL     1      -1.317   5.549 -52.845  1.00  0.00     0.012 C 
ENDBRANCH  13  15
ENDBRANCH   3  13
BRANCH   5  21
HETATM   21  N   UNL     1      -5.134  12.714 -55.493  1.00  0.00    -0.047 N 
ATOM     22  HN3 UNL     1      -4.501  13.511 -55.554  1.00  0.00     0.278 HD
ATOM     23  HN2 UNL     1      -5.869  13.076 -56.101  1.00  0.00     0.278 HD
ATOM     24  HN1 UNL     1      -5.459  12.540 -54.541  1.00  0.00     0.278 HD
ENDBRANCH   5  21
BRANCH   5  25
HETATM   25  O   UNL     1      -3.369  11.778 -56.748  1.00  0.00    -0.365 OA
ATOM     26  HO  UNL     1      -3.599  11.928 -57.657  1.00  0.00     0.212 HD
ENDBRANCH   5  25
TORSDOF 4
ENDMDL
MODEL 6
REMARK VINA RESULT:      -7.9      3.140      6.868
REMARK  4 active torsions:
REMARK  status: ('A' for Active; 'I' for Inactive)
REMARK    1  A    between atoms: C_3  and  C_4 
REMARK    2  A    between atoms: C_4  and  C_5 
REMARK    3  A    between atoms: C_7  and  N_9 
REMARK    4  A    between atoms: C_7  and  O_23 
ROOT
HETATM    1  N   UNL     1      -2.756   9.454 -53.350  1.00  0.00    -0.326 N 
ATOM      2  HN  UNL     1      -2.560  10.255 -52.749  1.00  0.00     0.169 HD
HETATM    3  C   UNL     1      -3.013   7.189 -53.863  1.00  0.00     0.047 C 
HETATM    4  C   UNL     1      -4.334  11.667 -54.509  1.00  0.00     0.016 C 
HETATM    5  C   UNL     1      -5.607   8.667 -56.371  1.00  0.00     0.226 C 
HETATM    6  C   UNL     1      -3.976  10.414 -55.274  1.00  0.00     0.037 C 
HETATM    7  C   UNL     1      -3.737   9.320 -54.259  1.00  0.00     0.024 C 
HETATM    8  C   UNL     1      -5.046  10.089 -56.309  1.00  0.00     0.079 C 
HETATM    9  O   UNL     1      -0.876   8.241 -53.727  1.00  0.00    -0.267 OA
HETATM   10  C   UNL     1      -2.101   8.301 -53.418  1.00  0.00     0.257 C 
HETATM   11  C   UNL     1      -4.581   7.569 -55.986  1.00  0.00     0.110 C 
HETATM   12  C   UNL     1      -3.840   7.949 -54.707  1.00  0.00    -0.014 C 
ENDROOT
BRANCH   3  13
HETATM   13  C   UNL     1      -2.892   5.834 -53.234  1.00  0.00    -0.035 C 
HETATM   14  C   UNL     1      -3.333   4.636 -54.049  1.00  0.00     0.050 C 
BRANCH  13  15
HETATM   15  C   UNL     1      -2.684   5.600 -51.753  1.00  0.00    -0.029 C 
HETATM   16  C   UNL     1      -3.299   6.421 -50.810  1.00  0.00     0.012 C 
HETATM   17  C   UNL     1      -3.288   6.074 -49.459  1.00  0.00     0.001 C 
HETATM   18  C   UNL     1      -2.656   4.895 -49.058  1.00  0.00     0.000 C 
HETATM   19  C   UNL     1      -2.001   4.098 -49.998  1.00  0.00     0.001 C 
HETATM   20  C   UNL     1      -1.940   4.500 -51.327  1.00  0.00     0.012 C 
ENDBRANCH  13  15
ENDBRANCH   3  13
BRANCH   5  21
HETATM   21  N   UNL     1      -6.029   8.408 -57.749  1.00  0.00    -0.047 N 
ATOM     22  HN3 UNL     1      -6.435   9.229 -58.198  1.00  0.00     0.278 HD
ATOM     23  HN2 UNL     1      -5.242   8.281 -58.386  1.00  0.00     0.278 HD
ATOM     24  HN1 UNL     1      -6.663   7.609 -57.739  1.00  0.00     0.278 HD
ENDBRANCH   5  21
BRANCH   5  25
HETATM   25  O   UNL     1      -6.727   8.573 -55.501  1.00  0.00    -0.365 OA
ATOM     26  HO  UNL     1      -7.031   9.444 -55.273  1.00  0.00     0.212 HD
ENDBRANCH   5  25
TORSDOF 4
ENDMDL
MODEL 7
REMARK VINA RESULT:      -7.5      2.458      6.596
REMARK  4 active torsions:
REMARK  status: ('A' for Active; 'I' for Inactive)
REMARK    1  A    between atoms: C_3  and  C_4 
REMARK    2  A    between atoms: C_4  and  C_5 
REMARK    3  A    between atoms: C_7  and  N_9 
REMARK    4  A    between atoms: C_7  and  O_23 
ROOT
HETATM    1  N   UNL     1      -0.543   6.935 -53.166  1.00  0.00    -0.326 N 
ATOM      2  HN  UNL     1       0.429   7.239 -53.222  1.00  0.00     0.169 HD
HETATM    3  C   UNL     1      -2.457   6.105 -52.113  1.00  0.00     0.047 C 
HETATM    4  C   UNL     1      -0.509   8.946 -55.330  1.00  0.00     0.016 C 
HETATM    5  C   UNL     1      -4.177   8.375 -54.776  1.00  0.00     0.226 C 
HETATM    6  C   UNL     1      -1.614   7.930 -55.160  1.00  0.00     0.037 C 
HETATM    7  C   UNL     1      -1.627   7.519 -53.705  1.00  0.00     0.024 C 
HETATM    8  C   UNL     1      -2.940   8.482 -55.669  1.00  0.00     0.079 C 
HETATM    9  O   UNL     1      -0.676   4.694 -52.840  1.00  0.00    -0.267 OA
HETATM   10  C   UNL     1      -1.033   5.870 -52.543  1.00  0.00     0.257 C 
HETATM   11  C   UNL     1      -4.191   7.118 -53.868  1.00  0.00     0.110 C 
HETATM   12  C   UNL     1      -2.840   6.937 -53.178  1.00  0.00    -0.014 C 
ENDROOT
BRANCH   3  13
HETATM   13  C   UNL     1      -2.923   5.597 -50.782  1.00  0.00    -0.035 C 
HETATM   14  C   UNL     1      -3.625   6.573 -49.861  1.00  0.00     0.050 C 
BRANCH  13  15
HETATM   15  C   UNL     1      -2.459   4.298 -50.159  1.00  0.00    -0.029 C 
HETATM   16  C   UNL     1      -2.584   3.093 -50.847  1.00  0.00     0.012 C 
HETATM   17  C   UNL     1      -1.959   1.941 -50.370  1.00  0.00     0.001 C 
HETATM   18  C   UNL     1      -1.206   2.004 -49.197  1.00  0.00     0.000 C 
HETATM   19  C   UNL     1      -1.120   3.200 -48.484  1.00  0.00     0.001 C 
HETATM   20  C   UNL     1      -1.820   4.319 -48.919  1.00  0.00     0.012 C 
ENDBRANCH  13  15
ENDBRANCH   3  13
BRANCH   5  21
HETATM   21  N   UNL     1      -5.354   8.302 -55.643  1.00  0.00    -0.047 N 
ATOM     22  HN3 UNL     1      -6.087   7.701 -55.264  1.00  0.00     0.278 HD
ATOM     23  HN2 UNL     1      -5.887   9.171 -55.661  1.00  0.00     0.278 HD
ATOM     24  HN1 UNL     1      -5.044   8.009 -56.570  1.00  0.00     0.278 HD
ENDBRANCH   5  21
BRANCH   5  25
HETATM   25  O   UNL     1      -4.257   9.533 -53.956  1.00  0.00    -0.365 OA
ATOM     26  HO  UNL     1      -4.882  10.146 -54.325  1.00  0.00     0.212 HD
ENDBRANCH   5  25
TORSDOF 4
ENDMDL
MODEL 8
REMARK VINA RESULT:      -7.3      2.646      5.773
REMARK  4 active torsions:
REMARK  status: ('A' for Active; 'I' for Inactive)
REMARK    1  A    between atoms: C_3  and  C_4 
REMARK    2  A    between atoms: C_4  and  C_5 
REMARK    3  A    between atoms: C_7  and  N_9 
REMARK    4  A    between atoms: C_7  and  O_23 
ROOT
HETATM    1  N   UNL     1      -2.684   4.002 -49.004  1.00  0.00    -0.326 N 
ATOM      2  HN  UNL     1      -3.200   4.219 -48.151  1.00  0.00     0.169 HD
HETATM    3  C   UNL     1      -1.818   2.617 -50.674  1.00  0.00     0.047 C 
HETATM    4  C   UNL     1      -3.655   6.765 -49.397  1.00  0.00     0.016 C 
HETATM    5  C   UNL     1      -2.346   5.847 -52.794  1.00  0.00     0.226 C 
HETATM    6  C   UNL     1      -2.516   6.166 -50.188  1.00  0.00     0.037 C 
HETATM    7  C   UNL     1      -2.697   4.666 -50.173  1.00  0.00     0.024 C 
HETATM    8  C   UNL     1      -2.446   6.777 -51.583  1.00  0.00     0.079 C 
HETATM    9  O   UNL     1      -0.788   2.847 -48.535  1.00  0.00    -0.267 OA
HETATM   10  C   UNL     1      -1.842   2.998 -49.218  1.00  0.00     0.257 C 
HETATM   11  C   UNL     1      -1.573   4.531 -52.514  1.00  0.00     0.110 C 
HETATM   12  C   UNL     1      -2.046   3.896 -51.209  1.00  0.00    -0.014 C 
ENDROOT
BRANCH   3  13
HETATM   13  C   UNL     1      -1.742   1.170 -51.060  1.00  0.00    -0.035 C 
HETATM   14  C   UNL     1      -1.030   0.225 -50.114  1.00  0.00     0.050 C 
BRANCH  13  15
HETATM   15  C   UNL     1      -2.017   0.646 -52.453  1.00  0.00    -0.029 C 
HETATM   16  C   UNL     1      -2.794   1.380 -53.349  1.00  0.00     0.012 C 
HETATM   17  C   UNL     1      -2.862   1.008 -54.691  1.00  0.00     0.001 C 
HETATM   18  C   UNL     1      -2.144  -0.106 -55.132  1.00  0.00     0.000 C 
HETATM   19  C   UNL     1      -1.405  -0.866 -54.225  1.00  0.00     0.001 C 
HETATM   20  C   UNL     1      -1.417  -0.540 -52.875  1.00  0.00     0.012 C 
ENDBRANCH  13  15
ENDBRANCH   3  13
BRANCH   5  21
HETATM   21  N   UNL     1      -1.629   6.560 -53.852  1.00  0.00    -0.047 N 
ATOM     22  HN3 UNL     1      -1.043   7.314 -53.493  1.00  0.00     0.278 HD
ATOM     23  HN2 UNL     1      -0.887   6.000 -54.272  1.00  0.00     0.278 HD
ATOM     24  HN1 UNL     1      -2.315   6.883 -54.534  1.00  0.00     0.278 HD
ENDBRANCH   5  21
BRANCH   5  25
HETATM   25  O   UNL     1      -3.657   5.523 -53.236  1.00  0.00    -0.365 OA
ATOM     26  HO  UNL     1      -4.129   6.318 -53.455  1.00  0.00     0.212 HD
ENDBRANCH   5  25
TORSDOF 4
ENDMDL
MODEL 9
REMARK VINA RESULT:      -7.2      4.051      6.744
REMARK  4 active torsions:
REMARK  status: ('A' for Active; 'I' for Inactive)
REMARK    1  A    between atoms: C_3  and  C_4 
REMARK    2  A    between atoms: C_4  and  C_5 
REMARK    3  A    between atoms: C_7  and  N_9 
REMARK    4  A    between atoms: C_7  and  O_23 
ROOT
HETATM    1  N   UNL     1      -2.237   9.663 -56.700  1.00  0.00    -0.326 N 
ATOM      2  HN  UNL     1      -1.300  10.040 -56.837  1.00  0.00     0.169 HD
HETATM    3  C   UNL     1      -4.350   8.916 -57.363  1.00  0.00     0.047 C 
HETATM    4  C   UNL     1      -0.651   8.563 -54.463  1.00  0.00     0.016 C 
HETATM    5  C   UNL     1      -3.862   6.633 -54.239  1.00  0.00     0.226 C 
HETATM    6  C   UNL     1      -2.160   8.626 -54.457  1.00  0.00     0.037 C 
HETATM    7  C   UNL     1      -2.616   8.653 -55.898  1.00  0.00     0.024 C 
HETATM    8  C   UNL     1      -2.746   7.485 -53.634  1.00  0.00     0.079 C 
HETATM    9  O   UNL     1      -3.817  11.231 -57.141  1.00  0.00    -0.267 OA
HETATM   10  C   UNL     1      -3.369  10.055 -57.272  1.00  0.00     0.257 C 
HETATM   11  C   UNL     1      -4.793   7.411 -55.206  1.00  0.00     0.110 C 
HETATM   12  C   UNL     1      -3.973   8.248 -56.185  1.00  0.00    -0.014 C 
ENDROOT
BRANCH   3  13
HETATM   13  C   UNL     1      -5.196   8.761 -58.591  1.00  0.00    -0.035 C 
HETATM   14  C   UNL     1      -5.673  10.022 -59.281  1.00  0.00     0.050 C 
BRANCH  13  15
HETATM   15  C   UNL     1      -5.879   7.473 -58.996  1.00  0.00    -0.029 C 
HETATM   16  C   UNL     1      -7.197   7.478 -59.449  1.00  0.00     0.012 C 
HETATM   17  C   UNL     1      -7.747   6.334 -60.027  1.00  0.00     0.001 C 
HETATM   18  C   UNL     1      -6.967   5.183 -60.149  1.00  0.00     0.000 C 
HETATM   19  C   UNL     1      -5.663   5.165 -59.652  1.00  0.00     0.001 C 
HETATM   20  C   UNL     1      -5.155   6.280 -58.997  1.00  0.00     0.012 C 
ENDBRANCH  13  15
ENDBRANCH   3  13
BRANCH   5  21
HETATM   21  N   UNL     1      -4.692   6.130 -53.143  1.00  0.00    -0.047 N 
ATOM     22  HN3 UNL     1      -5.462   5.545 -53.466  1.00  0.00     0.278 HD
ATOM     23  HN2 UNL     1      -4.215   5.428 -52.577  1.00  0.00     0.278 HD
ATOM     24  HN1 UNL     1      -5.008   6.931 -52.596  1.00  0.00     0.278 HD
ENDBRANCH   5  21
BRANCH   5  25
HETATM   25  O   UNL     1      -3.282   5.542 -54.941  1.00  0.00    -0.365 OA
ATOM     26  HO  UNL     1      -3.965   4.961 -55.256  1.00  0.00     0.212 HD
ENDBRANCH   5  25
TORSDOF 4
ENDMDL
