REMARK  5 active torsions:
REMARK  status: ('A' for Active; 'I' for Inactive)
REMARK    1  A    between atoms: C_1  and  C_10 
REMARK    2  A    between atoms: C_7  and  C_9 
REMARK    3  A    between atoms: C_8  and  C_9 
REMARK    4  A    between atoms: C_8  and  O_31 
REMARK    5  A    between atoms: N_14  and  C_17 
ROOT
HETATM    1  C   UNL     1     143.592 -24.773  72.417  1.00  0.00     0.020 C 
HETATM    2  C   UNL     1     142.474 -25.771  70.505  1.00  0.00     0.010 C 
HETATM    3  C   UNL     1     144.798 -24.841  71.704  1.00  0.00     0.016 C 
HETATM    4  C   UNL     1     142.482 -25.303  71.802  1.00  0.00     0.072 C 
HETATM    5  C   UNL     1     143.615 -25.616  69.731  1.00  0.00     0.015 C 
HETATM    6  N   UNL     1     140.918 -26.666  71.703  1.00  0.00    -0.266 N 
HETATM    7  C   UNL     1     141.321 -26.499  70.405  1.00  0.00     0.130 C 
HETATM    8  N   UNL     1     141.301 -25.598  72.369  1.00  0.00    -0.292 N 
ATOM      9  HN  UNL     1     140.820 -25.114  73.128  1.00  0.00     0.187 HD
HETATM   10  C   UNL     1     144.796 -25.182  70.345  1.00  0.00     0.002 C 
ENDROOT
BRANCH   1  11
HETATM   11  C   UNL     1     143.498 -24.183  73.695  1.00  0.00     0.045 C 
HETATM   12  N   UNL     1     143.912 -24.958  74.706  1.00  0.00    -0.355 N 
HETATM   13  C   UNL     1     143.782 -24.564  75.981  1.00  0.00     0.035 C 
ATOM     14  HN  UNL     1     144.334 -25.864  74.502  1.00  0.00     0.166 HD
HETATM   15  C   UNL     1     144.535 -25.298  76.926  1.00  0.00    -0.053 C 
HETATM   16  C   UNL     1     143.016 -23.433  76.282  1.00  0.00     0.030 C 
HETATM   17  C   UNL     1     145.231 -24.676  78.053  1.00  0.00     0.041 C 
HETATM   18  C   UNL     1     144.775 -26.758  76.836  1.00  0.00     0.037 C 
HETATM   19  C   UNL     1     145.690 -25.836  78.877  1.00  0.00    -0.008 C 
HETATM   20  C   UNL     1     145.456 -27.120  78.142  1.00  0.00     0.009 C 
HETATM   21  C   UNL     1     142.660 -22.572  75.246  1.00  0.00     0.005 C 
HETATM   22  C   UNL     1     143.013 -22.900  73.935  1.00  0.00     0.030 C 
BRANCH  19  23
HETATM   23  C   UNL     1     146.837 -25.566  79.778  1.00  0.00     0.031 C 
BRANCH  23  24
HETATM   24  C   UNL     1     147.111 -26.685  80.756  1.00  0.00     0.164 C 
BRANCH  24  25
HETATM   25  O   UNL     1     145.920 -26.983  81.453  1.00  0.00    -0.401 OA
ATOM     26  HO  UNL     1     146.092 -27.686  82.068  1.00  0.00     0.209 HD
ENDBRANCH  24  25
ENDBRANCH  23  24
ENDBRANCH  19  23
ENDBRANCH   1  11
BRANCH   6  27
HETATM   27  C   UNL     1     140.827 -27.870  72.324  1.00  0.00     0.056 C 
HETATM   28  C   UNL     1     140.966 -27.931  73.720  1.00  0.00     0.031 C 
HETATM   29  C   UNL     1     141.292 -28.940  74.567  1.00  0.00     0.002 C 
HETATM   30  C   UNL     1     141.349 -30.307  74.381  1.00  0.00     0.000 C 
HETATM   31  C   UNL     1     141.248 -30.932  73.148  1.00  0.00     0.000 C 
HETATM   32  C   UNL     1     140.904 -30.342  71.947  1.00  0.00     0.002 C 
HETATM   33  C   UNL     1     140.618 -29.047  71.595  1.00  0.00     0.031 C 
ENDBRANCH   6  27
TORSDOF 5
