REMARK  3 active torsions:
REMARK  status: ('A' for Active; 'I' for Inactive)
REMARK    1  A    between atoms: C_6  and  C_29 
REMARK    2  A    between atoms: C_7  and  C_13 
REMARK    3  A    between atoms: C_15  and  C_19 
ROOT
HETATM    1  C   UNL     1     143.056 -25.773  71.401  1.00  0.00    -0.048 C 
HETATM    2  C   UNL     1     141.955 -27.052  73.121  1.00  0.00     0.020 C 
HETATM    3  C   UNL     1     142.097 -26.138  70.450  1.00  0.00     0.008 C 
HETATM    4  C   UNL     1     141.143 -27.643  72.124  1.00  0.00    -0.048 C 
HETATM    5  C   UNL     1     141.134 -27.086  70.826  1.00  0.00     0.008 C 
HETATM    6  C   UNL     1     142.707 -25.907  72.782  1.00  0.00    -0.022 C 
ENDROOT
BRANCH   4   7
HETATM    7  C   UNL     1     140.202 -28.810  72.442  1.00  0.00    -0.010 C 
HETATM    8  C   UNL     1     140.247 -29.844  71.323  1.00  0.00     0.042 C 
HETATM    9  C   UNL     1     140.710 -31.250  71.594  1.00  0.00    -0.018 C 
HETATM   10  C   UNL     1     141.223 -31.611  72.825  1.00  0.00    -0.055 A 
HETATM   11  C   UNL     1     141.111 -30.750  73.940  1.00  0.00    -0.072 A 
HETATM   12  C   UNL     1     141.765 -32.943  73.280  1.00  0.00     0.023 A 
HETATM   13  C   UNL     1     141.726 -31.354  75.185  1.00  0.00     0.040 A 
HETATM   14  C   UNL     1     140.474 -29.406  73.831  1.00  0.00     0.049 C 
HETATM   15  C   UNL     1     142.089 -32.776  74.758  1.00  0.00    -0.002 A 
HETATM   16  C   UNL     1     143.518 -33.263  74.900  1.00  0.00     0.005 C 
HETATM   17  C   UNL     1     143.651 -34.281  73.763  1.00  0.00     0.001 C 
HETATM   18  C   UNL     1     143.017 -33.499  72.603  1.00  0.00     0.010 C 
HETATM   19  C   UNL     1     138.791 -28.250  72.468  1.00  0.00     0.021 C 
ENDBRANCH   4   7
BRANCH   6  20
HETATM   20  C   UNL     1     143.096 -24.899  73.762  1.00  0.00    -0.036 C 
HETATM   21  C   UNL     1     142.715 -23.455  73.666  1.00  0.00     0.045 C 
HETATM   22  C   UNL     1     143.079 -22.838  75.011  1.00  0.00     0.044 C 
HETATM   23  C   UNL     1     143.766 -23.936  75.762  1.00  0.00    -0.047 C 
HETATM   24  C   UNL     1     144.221 -23.945  77.081  1.00  0.00     0.008 C 
HETATM   25  C   UNL     1     143.917 -25.088  74.952  1.00  0.00    -0.023 C 
HETATM   26  C   UNL     1     145.041 -25.001  77.512  1.00  0.00     0.001 C 
HETATM   27  C   UNL     1     145.325 -26.058  76.643  1.00  0.00     0.001 C 
HETATM   28  C   UNL     1     144.725 -26.155  75.380  1.00  0.00     0.012 C 
ENDBRANCH   6  20
BRANCH   1  29
HETATM   29  C   UNL     1     144.395 -25.222  70.972  1.00  0.00     0.035 C 
HETATM   30  C   UNL     1     145.520 -26.082  71.506  1.00  0.00     0.010 C 
ENDBRANCH   1  29
TORSDOF 3
