REMARK  8 active torsions:
REMARK  status: ('A' for Active; 'I' for Inactive)
REMARK    1  A    between atoms: C_5  and  C_11 
REMARK    2  A    between atoms: C_9  and  N_38 
REMARK    3  A    between atoms: C_9  and  C_41 
REMARK    4  A    between atoms: O_17  and  C_27 
REMARK    5  A    between atoms: C_19  and  C_29 
REMARK    6  A    between atoms: C_23  and  C_32 
REMARK    7  A    between atoms: C_23  and  C_36 
REMARK    8  A    between atoms: C_23  and  N_38 
ROOT
HETATM    1  C   UNL     1     -25.110 -16.673   9.533  1.00  0.00     0.065 C 
ENDROOT
BRANCH   1   2
HETATM    2  C   UNL     1     -24.612 -15.277   9.644  1.00  0.00    -0.007 C 
HETATM    3  C   UNL     1     -24.088 -14.598   8.537  1.00  0.00     0.014 C 
HETATM    4  C   UNL     1     -23.754 -13.266   8.349  1.00  0.00     0.001 C 
HETATM    5  C   UNL     1     -23.504 -12.217   9.244  1.00  0.00     0.000 C 
HETATM    6  C   UNL     1     -23.920 -12.220  10.580  1.00  0.00     0.000 C 
HETATM    7  C   UNL     1     -24.541 -13.299  11.195  1.00  0.00     0.001 C 
HETATM    8  C   UNL     1     -24.619 -14.647  10.895  1.00  0.00     0.014 C 
ENDBRANCH   1   2
BRANCH   1   9
HETATM    9  C   UNL     1     -25.890 -17.193   8.383  1.00  0.00     0.059 C 
HETATM   10  N   UNL     1     -25.609 -16.752   7.123  1.00  0.00    -0.364 N 
HETATM   11  C   UNL     1     -25.876 -17.605   6.114  1.00  0.00     0.096 C 
ATOM     12  HN  UNL     1     -25.217 -15.826   6.953  1.00  0.00     0.165 HD
HETATM   13  C   UNL     1     -26.320 -18.909   6.345  1.00  0.00    -0.038 C 
HETATM   14  C   UNL     1     -27.113 -19.046   7.487  1.00  0.00     0.011 C 
HETATM   15  C   UNL     1     -26.922 -18.143   8.538  1.00  0.00     0.032 C 
BRANCH  13  16
HETATM   16  C   UNL     1     -25.860 -20.022   5.410  1.00  0.00     0.021 C 
HETATM   17  C   UNL     1     -25.840 -19.523   3.958  1.00  0.00     0.010 C 
HETATM   18  C   UNL     1     -25.957 -20.773   3.075  1.00  0.00     0.015 C 
HETATM   19  C   UNL     1     -26.710 -21.833   3.890  1.00  0.00    -0.015 C 
HETATM   20  C   UNL     1     -28.211 -21.798   3.600  1.00  0.00     0.020 C 
HETATM   21  C   UNL     1     -26.490 -21.419   5.364  1.00  0.00     0.023 C 
BRANCH  19  22
HETATM   22  C   UNL     1     -26.245 -23.230   3.486  1.00  0.00    -0.028 C 
HETATM   23  C   UNL     1     -25.264 -23.440   2.497  1.00  0.00     0.041 C 
HETATM   24 CL   UNL     1     -23.640 -22.893   2.745  1.00  0.00    -0.084 Cl
HETATM   25  C   UNL     1     -25.590 -24.227   1.389  1.00  0.00     0.024 C 
HETATM   26  C   UNL     1     -26.553 -25.214   1.568  1.00  0.00     0.002 C 
HETATM   27  C   UNL     1     -27.203 -25.333   2.792  1.00  0.00     0.001 C 
HETATM   28  C   UNL     1     -27.007 -24.371   3.793  1.00  0.00     0.009 C 
ENDBRANCH  19  22
ENDBRANCH  13  16
ENDBRANCH   1   9
BRANCH   1  29
HETATM   29  N   UNL     1     -24.659 -17.607  10.466  1.00  0.00    -0.387 N 
ATOM     30  HN  UNL     1     -23.773 -18.109  10.412  1.00  0.00     0.159 HD
BRANCH  29  31
HETATM   31  C   UNL     1     -25.659 -17.759  11.544  1.00  0.00     0.124 C 
BRANCH  31  32
HETATM   32  C   UNL     1     -25.004 -18.435  12.734  1.00  0.00     0.008 C 
HETATM   33  C   UNL     1     -26.015 -19.089  13.681  1.00  0.00     0.007 C 
HETATM   34  C   UNL     1     -25.452 -20.461  14.032  1.00  0.00     0.005 C 
HETATM   35  C   UNL     1     -24.468 -20.820  12.921  1.00  0.00    -0.008 C 
HETATM   36  C   UNL     1     -23.234 -21.551  13.442  1.00  0.00     0.036 C 
HETATM   37  C   UNL     1     -23.968 -19.487  12.388  1.00  0.00    -0.002 C 
HETATM   38  C   UNL     1     -22.034 -20.634  13.182  1.00  0.00     0.118 C 
HETATM   39  C   UNL     1     -22.648 -19.213  13.131  1.00  0.00     0.037 C 
BRANCH  38  40
HETATM   40  O   UNL     1     -21.190 -20.696  14.342  1.00  0.00    -0.396 OA
ATOM     41  HO  UNL     1     -20.446 -20.128  14.181  1.00  0.00     0.210 HD
ENDBRANCH  38  40
ENDBRANCH  31  32
ENDBRANCH  29  31
ENDBRANCH   1  29
TORSDOF 8
