MODEL 1
REMARK VINA RESULT:      -9.5      0.000      0.000
REMARK  1 active torsions:
REMARK  status: ('A' for Active; 'I' for Inactive)
REMARK    1  A    between atoms: C_22  and  N_24 
ROOT
HETATM    1  C   UNL     1      -4.258 -17.692  -7.654  1.00  0.00     0.316 C 
HETATM    2  C   UNL     1      -6.138 -17.634  -9.759  1.00  0.00     0.034 C 
HETATM    3  C   UNL     1      -6.632 -17.394  -8.352  1.00  0.00     0.131 C 
HETATM    4  C   UNL     1      -4.739 -17.078 -10.006  1.00  0.00     0.095 C 
HETATM    5  C   UNL     1      -7.072 -17.571 -10.933  1.00  0.00     0.037 C 
HETATM    6  N   UNL     1      -5.599 -17.786  -7.394  1.00  0.00    -0.343 N 
ATOM      7  HN  UNL     1      -5.892 -18.148  -6.487  1.00  0.00     0.164 HD
HETATM    8  N   UNL     1      -3.864 -17.628  -8.956  1.00  0.00    -0.338 N 
ATOM      9  HN  UNL     1      -2.938 -17.971  -9.211  1.00  0.00     0.164 HD
HETATM   10  O   UNL     1      -8.448 -16.885 -14.059  1.00  0.00    -0.247 OA
HETATM   11  C   UNL     1      -5.293 -17.737 -12.394  1.00  0.00     0.195 C 
HETATM   12  F   UNL     1      -4.767 -18.341 -13.534  1.00  0.00    -0.247 F 
HETATM   13  N   UNL     1      -7.426 -18.663 -13.091  1.00  0.00    -0.335 N 
ATOM     14  HN  UNL     1      -7.342 -19.398 -13.792  1.00  0.00     0.164 HD
HETATM   15  C   UNL     1      -6.515 -18.540 -11.951  1.00  0.00     0.126 C 
HETATM   16  C   UNL     1      -4.232 -17.690 -11.313  1.00  0.00     0.065 C 
HETATM   17  C   UNL     1      -8.399 -17.704 -13.131  1.00  0.00     0.319 C 
HETATM   18  N   UNL     1      -9.210 -17.573 -12.027  1.00  0.00    -0.324 N 
HETATM   19  C   UNL     1      -8.557 -17.785 -10.721  1.00  0.00     0.135 C 
HETATM   20  O   UNL     1      -3.454 -17.644  -6.726  1.00  0.00    -0.247 OA
ENDROOT
BRANCH  18  21
HETATM   21  C   UNL     1     -10.653 -17.300 -12.100  1.00  0.00     0.037 C 
HETATM   22  C   UNL     1     -11.469 -18.234 -12.998  1.00  0.00     0.036 C 
HETATM   23  C   UNL     1     -12.804 -17.509 -12.730  1.00  0.00    -0.012 C 
HETATM   24  C   UNL     1     -12.883 -17.480 -11.199  1.00  0.00     0.007 C 
HETATM   25  C   UNL     1     -12.439 -16.061 -13.104  1.00  0.00     0.007 C 
HETATM   26  C   UNL     1     -11.409 -17.370 -10.763  1.00  0.00     0.031 C 
HETATM   27  C   UNL     1     -10.957 -15.937 -12.737  1.00  0.00     0.031 C 
ENDBRANCH  18  21
TORSDOF 1
ENDMDL
MODEL 2
REMARK VINA RESULT:      -9.0      2.732      3.962
REMARK  1 active torsions:
REMARK  status: ('A' for Active; 'I' for Inactive)
REMARK    1  A    between atoms: C_22  and  N_24 
ROOT
HETATM    1  C   UNL     1      -5.354 -17.696  -8.164  1.00  0.00     0.316 C 
HETATM    2  C   UNL     1      -7.427 -17.468 -10.067  1.00  0.00     0.034 C 
HETATM    3  C   UNL     1      -6.009 -17.610 -10.567  1.00  0.00     0.131 C 
HETATM    4  C   UNL     1      -7.689 -18.246  -8.781  1.00  0.00     0.095 C 
HETATM    5  C   UNL     1      -8.584 -17.389 -11.019  1.00  0.00     0.037 C 
HETATM    6  N   UNL     1      -5.073 -17.383  -9.467  1.00  0.00    -0.343 N 
ATOM      7  HN  UNL     1      -4.165 -16.970  -9.681  1.00  0.00     0.164 HD
HETATM    8  N   UNL     1      -6.660 -17.836  -7.809  1.00  0.00    -0.338 N 
ATOM      9  HN  UNL     1      -6.935 -17.652  -6.845  1.00  0.00     0.164 HD
HETATM   10  O   UNL     1     -11.680 -17.870 -12.544  1.00  0.00    -0.247 OA
HETATM   11  C   UNL     1     -10.076 -17.527  -9.263  1.00  0.00     0.195 C 
HETATM   12  F   UNL     1     -11.232 -17.028  -8.667  1.00  0.00    -0.247 F 
HETATM   13  N   UNL     1     -10.749 -16.273 -11.229  1.00  0.00    -0.335 N 
ATOM     14  HN  UNL     1     -11.461 -15.568 -11.039  1.00  0.00     0.164 HD
HETATM   15  C   UNL     1      -9.623 -16.532 -10.331  1.00  0.00     0.126 C 
HETATM   16  C   UNL     1      -9.012 -17.737  -8.205  1.00  0.00     0.065 C 
HETATM   17  C   UNL     1     -10.762 -17.061 -12.346  1.00  0.00     0.319 C 
HETATM   18  N   UNL     1      -9.644 -17.048 -13.147  1.00  0.00    -0.324 N 
HETATM   19  C   UNL     1      -8.351 -16.933 -12.445  1.00  0.00     0.135 C 
HETATM   20  O   UNL     1      -4.438 -17.866  -7.362  1.00  0.00    -0.247 OA
ENDROOT
BRANCH  18  21
HETATM   21  C   UNL     1      -9.690 -17.083 -14.617  1.00  0.00     0.037 C 
HETATM   22  C   UNL     1      -8.405 -16.674 -15.340  1.00  0.00     0.036 C 
HETATM   23  C   UNL     1      -9.004 -16.859 -16.749  1.00  0.00    -0.012 C 
HETATM   24  C   UNL     1      -9.565 -18.285 -16.705  1.00  0.00     0.007 C 
HETATM   25  C   UNL     1     -10.259 -15.971 -16.659  1.00  0.00     0.007 C 
HETATM   26  C   UNL     1     -10.005 -18.454 -15.237  1.00  0.00     0.031 C 
HETATM   27  C   UNL     1     -10.689 -16.070 -15.192  1.00  0.00     0.031 C 
ENDBRANCH  18  21
TORSDOF 1
ENDMDL
MODEL 3
REMARK VINA RESULT:      -9.0      2.500      3.718
REMARK  1 active torsions:
REMARK  status: ('A' for Active; 'I' for Inactive)
REMARK    1  A    between atoms: C_22  and  N_24 
ROOT
HETATM    1  C   UNL     1      -3.411 -17.018 -14.185  1.00  0.00     0.316 C 
HETATM    2  C   UNL     1      -5.796 -17.068 -12.674  1.00  0.00     0.034 C 
HETATM    3  C   UNL     1      -5.904 -17.065 -14.180  1.00  0.00     0.131 C 
HETATM    4  C   UNL     1      -4.583 -17.838 -12.162  1.00  0.00     0.095 C 
HETATM    5  C   UNL     1      -7.018 -17.142 -11.806  1.00  0.00     0.037 C 
HETATM    6  N   UNL     1      -4.612 -16.708 -14.767  1.00  0.00    -0.343 N 
ATOM      7  HN  UNL     1      -4.605 -16.203 -15.652  1.00  0.00     0.164 HD
HETATM    8  N   UNL     1      -3.400 -17.292 -12.852  1.00  0.00    -0.338 N 
ATOM      9  HN  UNL     1      -2.551 -17.116 -12.317  1.00  0.00     0.164 HD
HETATM   10  O   UNL     1      -9.265 -18.001  -9.287  1.00  0.00    -0.247 OA
HETATM   11  C   UNL     1      -5.704 -17.401  -9.926  1.00  0.00     0.195 C 
HETATM   12  F   UNL     1      -5.455 -17.018  -8.611  1.00  0.00    -0.247 F 
HETATM   13  N   UNL     1      -7.841 -16.279  -9.673  1.00  0.00    -0.335 N 
ATOM     14  HN  UNL     1      -7.880 -15.653  -8.869  1.00  0.00     0.164 HD
HETATM   15  C   UNL     1      -6.669 -16.389 -10.543  1.00  0.00     0.126 C 
HETATM   16  C   UNL     1      -4.396 -17.464 -10.690  1.00  0.00     0.065 C 
HETATM   17  C   UNL     1      -8.879 -17.091 -10.034  1.00  0.00     0.319 C 
HETATM   18  N   UNL     1      -9.363 -16.974 -11.316  1.00  0.00    -0.324 N 
HETATM   19  C   UNL     1      -8.357 -16.699 -12.360  1.00  0.00     0.135 C 
HETATM   20  O   UNL     1      -2.392 -17.065 -14.870  1.00  0.00    -0.247 OA
ENDROOT
BRANCH  18  21
HETATM   21  C   UNL     1     -10.791 -17.051 -11.662  1.00  0.00     0.037 C 
HETATM   22  C   UNL     1     -11.185 -18.149 -12.653  1.00  0.00     0.036 C 
HETATM   23  C   UNL     1     -12.677 -17.762 -12.662  1.00  0.00    -0.012 C 
HETATM   24  C   UNL     1     -13.045 -17.755 -11.174  1.00  0.00     0.007 C 
HETATM   25  C   UNL     1     -12.597 -16.268 -13.025  1.00  0.00     0.007 C 
HETATM   26  C   UNL     1     -11.744 -17.301 -10.483  1.00  0.00     0.031 C 
HETATM   27  C   UNL     1     -11.279 -15.797 -12.400  1.00  0.00     0.031 C 
ENDBRANCH  18  21
TORSDOF 1
ENDMDL
MODEL 4
REMARK VINA RESULT:      -8.9      1.870      2.308
REMARK  1 active torsions:
REMARK  status: ('A' for Active; 'I' for Inactive)
REMARK    1  A    between atoms: C_22  and  N_24 
ROOT
HETATM    1  C   UNL     1      -2.728 -17.394 -11.178  1.00  0.00     0.316 C 
HETATM    2  C   UNL     1      -5.356 -17.710 -12.159  1.00  0.00     0.034 C 
HETATM    3  C   UNL     1      -5.154 -16.889 -10.908  1.00  0.00     0.131 C 
HETATM    4  C   UNL     1      -4.208 -17.576 -13.156  1.00  0.00     0.095 C 
HETATM    5  C   UNL     1      -6.718 -17.883 -12.766  1.00  0.00     0.037 C 
HETATM    6  N   UNL     1      -3.808 -17.114 -10.383  1.00  0.00    -0.343 N 
ATOM      7  HN  UNL     1      -3.666 -17.060  -9.375  1.00  0.00     0.164 HD
HETATM    8  N   UNL     1      -2.964 -17.881 -12.427  1.00  0.00    -0.338 N 
ATOM      9  HN  UNL     1      -2.261 -18.472 -12.870  1.00  0.00     0.164 HD
HETATM   10  O   UNL     1      -9.345 -18.095 -15.045  1.00  0.00    -0.247 OA
HETATM   11  C   UNL     1      -5.797 -18.918 -14.612  1.00  0.00     0.195 C 
HETATM   12  F   UNL     1      -5.857 -19.982 -15.508  1.00  0.00    -0.247 F 
HETATM   13  N   UNL     1      -8.033 -19.577 -13.937  1.00  0.00    -0.335 N 
ATOM     14  HN  UNL     1      -8.292 -20.515 -14.243  1.00  0.00     0.164 HD
HETATM   15  C   UNL     1      -6.703 -19.243 -13.426  1.00  0.00     0.126 C 
HETATM   16  C   UNL     1      -4.361 -18.704 -14.178  1.00  0.00     0.065 C 
HETATM   17  C   UNL     1      -8.898 -18.520 -13.969  1.00  0.00     0.319 C 
HETATM   18  N   UNL     1      -9.119 -17.841 -12.793  1.00  0.00    -0.324 N 
HETATM   19  C   UNL     1      -7.950 -17.701 -11.903  1.00  0.00     0.135 C 
HETATM   20  O   UNL     1      -1.590 -17.182 -10.764  1.00  0.00    -0.247 OA
ENDROOT
BRANCH  18  21
HETATM   21  C   UNL     1     -10.433 -17.325 -12.381  1.00  0.00     0.037 C 
HETATM   22  C   UNL     1     -11.642 -18.183 -12.762  1.00  0.00     0.036 C 
HETATM   23  C   UNL     1     -12.668 -17.211 -12.146  1.00  0.00    -0.012 C 
HETATM   24  C   UNL     1     -12.151 -17.018 -10.716  1.00  0.00     0.007 C 
HETATM   25  C   UNL     1     -12.294 -15.895 -12.850  1.00  0.00     0.007 C 
HETATM   26  C   UNL     1     -10.621 -17.129 -10.868  1.00  0.00     0.031 C 
HETATM   27  C   UNL     1     -10.781 -15.999 -13.070  1.00  0.00     0.031 C 
ENDBRANCH  18  21
TORSDOF 1
ENDMDL
MODEL 5
REMARK VINA RESULT:      -8.9      4.115      5.293
REMARK  1 active torsions:
REMARK  status: ('A' for Active; 'I' for Inactive)
REMARK    1  A    between atoms: C_22  and  N_24 
ROOT
HETATM    1  C   UNL     1      -4.448 -19.798 -15.848  1.00  0.00     0.316 C 
HETATM    2  C   UNL     1      -7.024 -18.827 -15.225  1.00  0.00     0.034 C 
HETATM    3  C   UNL     1      -6.019 -18.956 -14.106  1.00  0.00     0.131 C 
HETATM    4  C   UNL     1      -6.391 -18.436 -16.557  1.00  0.00     0.095 C 
HETATM    5  C   UNL     1      -8.397 -18.273 -14.978  1.00  0.00     0.037 C 
HETATM    6  N   UNL     1      -4.887 -19.768 -14.551  1.00  0.00    -0.343 N 
ATOM      7  HN  UNL     1      -4.400 -20.340 -13.861  1.00  0.00     0.164 HD
HETATM    8  N   UNL     1      -5.311 -19.402 -16.823  1.00  0.00    -0.338 N 
ATOM      9  HN  UNL     1      -5.206 -19.783 -17.763  1.00  0.00     0.164 HD
HETATM   10  O   UNL     1     -11.366 -16.476 -15.280  1.00  0.00    -0.247 OA
HETATM   11  C   UNL     1      -8.828 -18.250 -17.245  1.00  0.00     0.195 C 
HETATM   12  F   UNL     1      -9.723 -18.550 -18.270  1.00  0.00    -0.247 F 
HETATM   13  N   UNL     1     -10.698 -18.595 -15.737  1.00  0.00    -0.335 N 
ATOM     14  HN  UNL     1     -11.482 -19.086 -16.166  1.00  0.00     0.164 HD
HETATM   15  C   UNL     1      -9.301 -18.959 -15.977  1.00  0.00     0.126 C 
HETATM   16  C   UNL     1      -7.434 -18.690 -17.647  1.00  0.00     0.065 C 
HETATM   17  C   UNL     1     -10.858 -17.537 -14.888  1.00  0.00     0.319 C 
HETATM   18  N   UNL     1     -10.284 -17.628 -13.641  1.00  0.00    -0.324 N 
HETATM   19  C   UNL     1      -8.983 -18.321 -13.581  1.00  0.00     0.135 C 
HETATM   20  O   UNL     1      -3.298 -20.154 -16.099  1.00  0.00    -0.247 OA
ENDROOT
BRANCH  18  21
HETATM   21  C   UNL     1     -10.921 -17.136 -12.410  1.00  0.00     0.037 C 
HETATM   22  C   UNL     1     -10.184 -17.440 -11.103  1.00  0.00     0.036 C 
HETATM   23  C   UNL     1     -11.246 -16.764 -10.214  1.00  0.00    -0.012 C 
HETATM   24  C   UNL     1     -11.383 -15.368 -10.834  1.00  0.00     0.007 C 
HETATM   25  C   UNL     1     -12.524 -17.492 -10.668  1.00  0.00     0.007 C 
HETATM   26  C   UNL     1     -11.128 -15.614 -12.334  1.00  0.00     0.031 C 
HETATM   27  C   UNL     1     -12.277 -17.804 -12.148  1.00  0.00     0.031 C 
ENDBRANCH  18  21
TORSDOF 1
ENDMDL
MODEL 6
REMARK VINA RESULT:      -8.6      3.637      6.896
REMARK  1 active torsions:
REMARK  status: ('A' for Active; 'I' for Inactive)
REMARK    1  A    between atoms: C_22  and  N_24 
ROOT
HETATM    1  C   UNL     1      -8.793 -17.447 -17.577  1.00  0.00     0.316 C 
HETATM    2  C   UNL     1      -9.386 -17.266 -14.823  1.00  0.00     0.034 C 
HETATM    3  C   UNL     1      -7.984 -17.652 -15.229  1.00  0.00     0.131 C 
HETATM    4  C   UNL     1     -10.036 -16.275 -15.783  1.00  0.00     0.095 C 
HETATM    5  C   UNL     1      -9.761 -17.104 -13.379  1.00  0.00     0.037 C 
HETATM    6  N   UNL     1      -7.961 -18.010 -16.646  1.00  0.00    -0.343 N 
ATOM      7  HN  UNL     1      -7.294 -18.716 -16.957  1.00  0.00     0.164 HD
HETATM    8  N   UNL     1      -9.934 -16.851 -17.135  1.00  0.00    -0.338 N 
ATOM      9  HN  UNL     1     -10.741 -16.803 -17.757  1.00  0.00     0.164 HD
HETATM   10  O   UNL     1     -11.099 -15.880 -10.404  1.00  0.00    -0.247 OA
HETATM   11  C   UNL     1     -11.823 -16.256 -13.979  1.00  0.00     0.195 C 
HETATM   12  F   UNL     1     -13.200 -16.275 -13.775  1.00  0.00    -0.247 F 
HETATM   13  N   UNL     1     -11.665 -17.491 -11.896  1.00  0.00    -0.335 N 
ATOM     14  HN  UNL     1     -12.550 -17.900 -11.596  1.00  0.00     0.164 HD
HETATM   15  C   UNL     1     -11.223 -17.481 -13.291  1.00  0.00     0.126 C 
HETATM   16  C   UNL     1     -11.532 -16.252 -15.467  1.00  0.00     0.065 C 
HETATM   17  C   UNL     1     -10.787 -16.903 -11.030  1.00  0.00     0.319 C 
HETATM   18  N   UNL     1      -9.497 -17.381 -11.008  1.00  0.00    -0.324 N 
HETATM   19  C   UNL     1      -8.946 -17.803 -12.310  1.00  0.00     0.135 C 
HETATM   20  O   UNL     1      -8.486 -17.467 -18.767  1.00  0.00    -0.247 OA
ENDROOT
BRANCH  18  21
HETATM   21  C   UNL     1      -8.703 -17.537  -9.779  1.00  0.00     0.037 C 
HETATM   22  C   UNL     1      -7.736 -16.396  -9.454  1.00  0.00     0.036 C 
HETATM   23  C   UNL     1      -7.197 -17.067  -8.175  1.00  0.00    -0.012 C 
HETATM   24  C   UNL     1      -8.471 -17.383  -7.383  1.00  0.00     0.007 C 
HETATM   25  C   UNL     1      -6.756 -18.438  -8.719  1.00  0.00     0.007 C 
HETATM   26  C   UNL     1      -9.515 -17.673  -8.481  1.00  0.00     0.031 C 
HETATM   27  C   UNL     1      -7.741 -18.730  -9.856  1.00  0.00     0.031 C 
ENDBRANCH  18  21
TORSDOF 1
ENDMDL
MODEL 7
REMARK VINA RESULT:      -8.6      3.279      5.572
REMARK  1 active torsions:
REMARK  status: ('A' for Active; 'I' for Inactive)
REMARK    1  A    between atoms: C_22  and  N_24 
ROOT
HETATM    1  C   UNL     1      -4.189 -19.795 -16.234  1.00  0.00     0.316 C 
HETATM    2  C   UNL     1      -6.127 -18.920 -14.378  1.00  0.00     0.034 C 
HETATM    3  C   UNL     1      -4.758 -19.291 -13.860  1.00  0.00     0.131 C 
HETATM    4  C   UNL     1      -6.092 -18.281 -15.762  1.00  0.00     0.095 C 
HETATM    5  C   UNL     1      -7.193 -18.401 -13.457  1.00  0.00     0.037 C 
HETATM    6  N   UNL     1      -4.021 -20.019 -14.893  1.00  0.00    -0.343 N 
ATOM      7  HN  UNL     1      -3.349 -20.727 -14.601  1.00  0.00     0.164 HD
HETATM    8  N   UNL     1      -5.340 -19.193 -16.641  1.00  0.00    -0.338 N 
ATOM      9  HN  UNL     1      -5.691 -19.379 -17.580  1.00  0.00     0.164 HD
HETATM   10  O   UNL     1      -9.794 -16.523 -12.097  1.00  0.00    -0.247 OA
HETATM   11  C   UNL     1      -8.552 -17.912 -15.257  1.00  0.00     0.195 C 
HETATM   12  F   UNL     1      -9.827 -17.982 -15.814  1.00  0.00    -0.247 F 
HETATM   13  N   UNL     1      -9.616 -18.518 -13.161  1.00  0.00    -0.335 N 
ATOM     14  HN  UNL     1     -10.556 -18.898 -13.276  1.00  0.00     0.164 HD
HETATM   15  C   UNL     1      -8.506 -18.854 -14.054  1.00  0.00     0.126 C 
HETATM   16  C   UNL     1      -7.523 -18.290 -16.303  1.00  0.00     0.065 C 
HETATM   17  C   UNL     1      -9.282 -17.651 -12.160  1.00  0.00     0.319 C 
HETATM   18  N   UNL     1      -8.241 -18.003 -11.333  1.00  0.00    -0.324 N 
HETATM   19  C   UNL     1      -7.122 -18.718 -11.976  1.00  0.00     0.135 C 
HETATM   20  O   UNL     1      -3.304 -20.115 -17.025  1.00  0.00    -0.247 OA
ENDROOT
BRANCH  18  21
HETATM   21  C   UNL     1      -8.229 -17.757  -9.883  1.00  0.00     0.037 C 
HETATM   22  C   UNL     1      -7.988 -16.309  -9.448  1.00  0.00     0.036 C 
HETATM   23  C   UNL     1      -8.048 -16.632  -7.941  1.00  0.00    -0.012 C 
HETATM   24  C   UNL     1      -9.381 -17.376  -7.798  1.00  0.00     0.007 C 
HETATM   25  C   UNL     1      -6.994 -17.749  -7.832  1.00  0.00     0.007 C 
HETATM   26  C   UNL     1      -9.525 -18.121  -9.140  1.00  0.00     0.031 C 
HETATM   27  C   UNL     1      -7.070 -18.475  -9.179  1.00  0.00     0.031 C 
ENDBRANCH  18  21
TORSDOF 1
ENDMDL
MODEL 8
REMARK VINA RESULT:      -8.4      2.784      7.079
REMARK  1 active torsions:
REMARK  status: ('A' for Active; 'I' for Inactive)
REMARK    1  A    between atoms: C_22  and  N_24 
ROOT
HETATM    1  C   UNL     1     -13.338 -17.758 -13.240  1.00  0.00     0.316 C 
HETATM    2  C   UNL     1     -10.553 -17.602 -12.807  1.00  0.00     0.034 C 
HETATM    3  C   UNL     1     -11.042 -17.976 -14.185  1.00  0.00     0.131 C 
HETATM    4  C   UNL     1     -11.466 -16.608 -12.097  1.00  0.00     0.095 C 
HETATM    5  C   UNL     1      -9.088 -17.453 -12.514  1.00  0.00     0.037 C 
HETATM    6  N   UNL     1     -12.461 -18.324 -14.128  1.00  0.00    -0.343 N 
ATOM      7  HN  UNL     1     -12.816 -19.023 -14.780  1.00  0.00     0.164 HD
HETATM    8  N   UNL     1     -12.826 -17.174 -12.123  1.00  0.00    -0.338 N 
ATOM      9  HN  UNL     1     -13.399 -17.126 -11.281  1.00  0.00     0.164 HD
HETATM   10  O   UNL     1      -6.031 -16.260 -11.344  1.00  0.00    -0.247 OA
HETATM   11  C   UNL     1      -9.562 -16.614 -10.417  1.00  0.00     0.195 C 
HETATM   12  F   UNL     1      -9.279 -16.643  -9.053  1.00  0.00    -0.247 F 
HETATM   13  N   UNL     1      -7.501 -17.864 -10.702  1.00  0.00    -0.335 N 
ATOM     14  HN  UNL     1      -7.154 -18.280  -9.838  1.00  0.00     0.164 HD
HETATM   15  C   UNL     1      -8.919 -17.841 -11.063  1.00  0.00     0.126 C 
HETATM   16  C   UNL     1     -11.064 -16.597 -10.620  1.00  0.00     0.065 C 
HETATM   17  C   UNL     1      -6.683 -17.277 -11.625  1.00  0.00     0.319 C 
HETATM   18  N   UNL     1      -6.739 -17.747 -12.917  1.00  0.00    -0.324 N 
HETATM   19  C   UNL     1      -8.074 -18.155 -13.394  1.00  0.00     0.135 C 
HETATM   20  O   UNL     1     -14.544 -17.768 -13.478  1.00  0.00    -0.247 OA
ENDROOT
BRANCH  18  21
HETATM   21  C   UNL     1      -5.559 -17.907 -13.781  1.00  0.00     0.037 C 
HETATM   22  C   UNL     1      -4.220 -18.091 -13.063  1.00  0.00     0.036 C 
HETATM   23  C   UNL     1      -3.403 -18.174 -14.368  1.00  0.00    -0.012 C 
HETATM   24  C   UNL     1      -4.125 -19.268 -15.163  1.00  0.00     0.007 C 
HETATM   25  C   UNL     1      -3.829 -16.872 -15.071  1.00  0.00     0.007 C 
HETATM   26  C   UNL     1      -5.599 -19.110 -14.737  1.00  0.00     0.031 C 
HETATM   27  C   UNL     1      -5.277 -16.654 -14.619  1.00  0.00     0.031 C 
ENDBRANCH  18  21
TORSDOF 1
ENDMDL
MODEL 9
REMARK VINA RESULT:      -8.2      2.945      6.376
REMARK  1 active torsions:
REMARK  status: ('A' for Active; 'I' for Inactive)
REMARK    1  A    between atoms: C_22  and  N_24 
ROOT
HETATM    1  C   UNL     1      -9.518 -17.622 -17.924  1.00  0.00     0.316 C 
HETATM    2  C   UNL     1      -8.338 -17.960 -15.382  1.00  0.00     0.034 C 
HETATM    3  C   UNL     1      -9.726 -17.370 -15.453  1.00  0.00     0.131 C 
HETATM    4  C   UNL     1      -8.076 -19.006 -16.460  1.00  0.00     0.095 C 
HETATM    5  C   UNL     1      -7.667 -18.213 -14.063  1.00  0.00     0.037 C 
HETATM    6  N   UNL     1     -10.023 -16.973 -16.829  1.00  0.00    -0.343 N 
ATOM      7  HN  UNL     1     -10.636 -16.172 -16.981  1.00  0.00     0.164 HD
HETATM    8  N   UNL     1      -8.402 -18.384 -17.756  1.00  0.00    -0.338 N 
ATOM      9  HN  UNL     1      -7.776 -18.527 -18.547  1.00  0.00     0.164 HD
HETATM   10  O   UNL     1      -5.869 -19.694 -11.472  1.00  0.00    -0.247 OA
HETATM   11  C   UNL     1      -5.943 -19.325 -15.120  1.00  0.00     0.195 C 
HETATM   12  F   UNL     1      -4.567 -19.506 -15.242  1.00  0.00    -0.247 F 
HETATM   13  N   UNL     1      -5.437 -18.138 -13.065  1.00  0.00    -0.335 N 
ATOM     14  HN  UNL     1      -4.458 -17.866 -12.981  1.00  0.00     0.164 HD
HETATM   15  C   UNL     1      -6.186 -18.047 -14.319  1.00  0.00     0.126 C 
HETATM   16  C   UNL     1      -6.565 -19.248 -16.500  1.00  0.00     0.065 C 
HETATM   17  C   UNL     1      -6.167 -18.620 -12.015  1.00  0.00     0.319 C 
HETATM   18  N   UNL     1      -7.335 -17.966 -11.698  1.00  0.00    -0.324 N 
HETATM   19  C   UNL     1      -8.106 -17.435 -12.839  1.00  0.00     0.135 C 
HETATM   20  O   UNL     1     -10.084 -17.526 -19.011  1.00  0.00    -0.247 OA
ENDROOT
BRANCH  18  21
HETATM   21  C   UNL     1      -7.793 -17.734 -10.319  1.00  0.00     0.037 C 
HETATM   22  C   UNL     1      -7.904 -18.974  -9.429  1.00  0.00     0.036 C 
HETATM   23  C   UNL     1      -8.417 -18.189  -8.205  1.00  0.00    -0.012 C 
HETATM   24  C   UNL     1      -7.369 -17.084  -8.036  1.00  0.00     0.007 C 
HETATM   25  C   UNL     1      -9.628 -17.454  -8.807  1.00  0.00     0.007 C 
HETATM   26  C   UNL     1      -6.914 -16.793  -9.480  1.00  0.00     0.031 C 
HETATM   27  C   UNL     1      -9.231 -17.201 -10.266  1.00  0.00     0.031 C 
ENDBRANCH  18  21
TORSDOF 1
ENDMDL
