MODEL 1
REMARK VINA RESULT:      -6.9      0.000      0.000
REMARK  2 active torsions:
REMARK  status: ('A' for Active; 'I' for Inactive)
REMARK    1  A    between atoms: C_1  and  C_3 
REMARK    2  A    between atoms: C_3  and  C_4 
ROOT
HETATM    1  C   UNL     1      12.680  45.864  52.887  1.00  0.00    -0.014 C 
HETATM    2  C   UNL     1      10.066  45.819  52.724  1.00  0.00    -0.010 C 
HETATM    3  C   UNL     1      11.425  48.023  52.716  1.00  0.00    -0.014 C 
HETATM    4  C   UNL     1      10.083  47.317  52.535  1.00  0.00     0.009 C 
HETATM    5  C   UNL     1      11.688  48.370  54.178  1.00  0.00     0.005 C 
HETATM    6  C   UNL     1      13.061  46.158  54.352  1.00  0.00     0.005 C 
HETATM    7  C   UNL     1      12.584  47.192  52.129  1.00  0.00     0.009 C 
HETATM    8  C   UNL     1      12.797  47.577  54.852  1.00  0.00     0.001 C 
HETATM    9  C   UNL     1      11.380  45.063  52.797  1.00  0.00     0.009 C 
ENDROOT
BRANCH   2  10
HETATM   10  C   UNL     1       8.989  45.118  51.915  1.00  0.00     0.043 C 
BRANCH  10  11
HETATM   11  C   UNL     1       7.756  44.820  52.731  1.00  0.00    -0.055 C 
HETATM   12  C   UNL     1       7.862  44.649  54.111  1.00  0.00     0.049 C 
HETATM   13  C   UNL     1       6.718  44.811  54.894  1.00  0.00     0.116 C 
HETATM   14  F   UNL     1       6.697  44.446  56.192  1.00  0.00    -0.206 F 
HETATM   15  C   UNL     1       5.509  45.206  54.303  1.00  0.00     0.042 C 
HETATM   16  C   UNL     1       5.341  44.914  52.942  1.00  0.00     0.003 C 
HETATM   17  C   UNL     1       6.476  44.745  52.144  1.00  0.00     0.007 C 
ENDBRANCH  10  11
ENDBRANCH   2  10
TORSDOF 2
ENDMDL
MODEL 2
REMARK VINA RESULT:      -6.8      1.672      2.071
REMARK  2 active torsions:
REMARK  status: ('A' for Active; 'I' for Inactive)
REMARK    1  A    between atoms: C_1  and  C_3 
REMARK    2  A    between atoms: C_3  and  C_4 
ROOT
HETATM    1  C   UNL     1      12.487  45.638  54.027  1.00  0.00    -0.014 C 
HETATM    2  C   UNL     1       9.926  45.331  53.571  1.00  0.00    -0.010 C 
HETATM    3  C   UNL     1      11.283  47.320  52.619  1.00  0.00    -0.014 C 
HETATM    4  C   UNL     1       9.979  46.526  52.650  1.00  0.00     0.009 C 
HETATM    5  C   UNL     1      11.328  48.375  53.720  1.00  0.00     0.005 C 
HETATM    6  C   UNL     1      12.649  46.657  55.174  1.00  0.00     0.005 C 
HETATM    7  C   UNL     1      12.511  46.392  52.694  1.00  0.00     0.009 C 
HETATM    8  C   UNL     1      12.321  48.112  54.842  1.00  0.00     0.001 C 
HETATM    9  C   UNL     1      11.211  44.811  54.189  1.00  0.00     0.009 C 
ENDROOT
BRANCH   2  10
HETATM   10  C   UNL     1       8.977  44.243  53.099  1.00  0.00     0.043 C 
BRANCH  10  11
HETATM   11  C   UNL     1       7.556  44.733  52.971  1.00  0.00    -0.055 C 
HETATM   12  C   UNL     1       6.927  44.720  51.726  1.00  0.00     0.049 C 
HETATM   13  C   UNL     1       5.533  44.748  51.682  1.00  0.00     0.116 C 
HETATM   14  F   UNL     1       4.871  44.961  50.527  1.00  0.00    -0.206 F 
HETATM   15  C   UNL     1       4.789  44.719  52.870  1.00  0.00     0.042 C 
HETATM   16  C   UNL     1       5.422  45.192  54.028  1.00  0.00     0.003 C 
HETATM   17  C   UNL     1       6.818  45.174  54.088  1.00  0.00     0.007 C 
ENDBRANCH  10  11
ENDBRANCH   2  10
TORSDOF 2
ENDMDL
MODEL 3
REMARK VINA RESULT:      -6.6      0.952      2.055
REMARK  2 active torsions:
REMARK  status: ('A' for Active; 'I' for Inactive)
REMARK    1  A    between atoms: C_1  and  C_3 
REMARK    2  A    between atoms: C_3  and  C_4 
ROOT
HETATM    1  C   UNL     1      10.312  46.990  53.329  1.00  0.00    -0.014 C 
HETATM    2  C   UNL     1       9.726  44.945  51.800  1.00  0.00    -0.010 C 
HETATM    3  C   UNL     1      11.658  44.889  53.524  1.00  0.00    -0.014 C 
HETATM    4  C   UNL     1      10.770  44.138  52.533  1.00  0.00     0.009 C 
HETATM    5  C   UNL     1      12.864  45.518  52.835  1.00  0.00     0.005 C 
HETATM    6  C   UNL     1      11.499  47.738  52.691  1.00  0.00     0.005 C 
HETATM    7  C   UNL     1      10.857  45.947  54.309  1.00  0.00     0.009 C 
HETATM    8  C   UNL     1      12.856  47.037  52.753  1.00  0.00     0.001 C 
HETATM    9  C   UNL     1       9.413  46.355  52.266  1.00  0.00     0.009 C 
ENDROOT
BRANCH   2  10
HETATM   10  C   UNL     1       8.504  44.136  51.401  1.00  0.00     0.043 C 
BRANCH  10  11
HETATM   11  C   UNL     1       7.390  44.238  52.413  1.00  0.00    -0.055 C 
HETATM   12  C   UNL     1       7.659  44.031  53.766  1.00  0.00     0.049 C 
HETATM   13  C   UNL     1       6.767  44.541  54.710  1.00  0.00     0.116 C 
HETATM   14  F   UNL     1       6.844  44.190  56.010  1.00  0.00    -0.206 F 
HETATM   15  C   UNL     1       5.665  45.304  54.299  1.00  0.00     0.042 C 
HETATM   16  C   UNL     1       5.194  45.091  52.996  1.00  0.00     0.003 C 
HETATM   17  C   UNL     1       6.073  44.578  52.038  1.00  0.00     0.007 C 
ENDBRANCH  10  11
ENDBRANCH   2  10
TORSDOF 2
ENDMDL
MODEL 4
REMARK VINA RESULT:      -6.5      2.077      2.641
REMARK  2 active torsions:
REMARK  status: ('A' for Active; 'I' for Inactive)
REMARK    1  A    between atoms: C_1  and  C_3 
REMARK    2  A    between atoms: C_3  and  C_4 
ROOT
HETATM    1  C   UNL     1      11.211  44.254  52.002  1.00  0.00    -0.014 C 
HETATM    2  C   UNL     1       9.541  45.424  53.647  1.00  0.00    -0.010 C 
HETATM    3  C   UNL     1       9.638  45.991  51.122  1.00  0.00    -0.014 C 
HETATM    4  C   UNL     1       8.930  46.141  52.467  1.00  0.00     0.009 C 
HETATM    5  C   UNL     1      10.756  47.016  50.956  1.00  0.00     0.005 C 
HETATM    6  C   UNL     1      12.419  45.191  51.802  1.00  0.00     0.005 C 
HETATM    7  C   UNL     1      10.169  44.558  50.921  1.00  0.00     0.009 C 
HETATM    8  C   UNL     1      12.169  46.456  50.981  1.00  0.00     0.001 C 
HETATM    9  C   UNL     1      10.625  44.389  53.409  1.00  0.00     0.009 C 
ENDROOT
BRANCH   2  10
HETATM   10  C   UNL     1       8.530  45.032  54.710  1.00  0.00     0.043 C 
BRANCH  10  11
HETATM   11  C   UNL     1       7.215  44.587  54.118  1.00  0.00    -0.055 C 
HETATM   12  C   UNL     1       6.053  45.309  54.387  1.00  0.00     0.049 C 
HETATM   13  C   UNL     1       4.966  45.171  53.522  1.00  0.00     0.116 C 
HETATM   14  F   UNL     1       3.750  45.659  53.839  1.00  0.00    -0.206 F 
HETATM   15  C   UNL     1       5.076  44.375  52.373  1.00  0.00     0.042 C 
HETATM   16  C   UNL     1       6.033  43.351  52.397  1.00  0.00     0.003 C 
HETATM   17  C   UNL     1       7.126  43.472  53.260  1.00  0.00     0.007 C 
ENDBRANCH  10  11
ENDBRANCH   2  10
TORSDOF 2
ENDMDL
MODEL 5
REMARK VINA RESULT:      -6.4      1.940      5.810
REMARK  2 active torsions:
REMARK  status: ('A' for Active; 'I' for Inactive)
REMARK    1  A    between atoms: C_1  and  C_3 
REMARK    2  A    between atoms: C_3  and  C_4 
ROOT
HETATM    1  C   UNL     1       6.317  44.129  52.031  1.00  0.00    -0.014 C 
HETATM    2  C   UNL     1       8.513  45.525  52.339  1.00  0.00    -0.010 C 
HETATM    3  C   UNL     1       7.372  44.270  54.296  1.00  0.00    -0.014 C 
HETATM    4  C   UNL     1       8.574  45.053  53.771  1.00  0.00     0.009 C 
HETATM    5  C   UNL     1       6.281  45.197  54.821  1.00  0.00     0.005 C 
HETATM    6  C   UNL     1       5.130  45.000  52.487  1.00  0.00     0.005 C 
HETATM    7  C   UNL     1       6.814  43.310  53.227  1.00  0.00     0.009 C 
HETATM    8  C   UNL     1       5.008  45.250  53.990  1.00  0.00     0.001 C 
HETATM    9  C   UNL     1       7.434  44.978  51.422  1.00  0.00     0.009 C 
ENDROOT
BRANCH   2  10
HETATM   10  C   UNL     1       9.877  45.658  51.685  1.00  0.00     0.043 C 
BRANCH  10  11
HETATM   11  C   UNL     1      10.963  45.987  52.678  1.00  0.00    -0.055 C 
HETATM   12  C   UNL     1      11.055  47.276  53.204  1.00  0.00     0.049 C 
HETATM   13  C   UNL     1      11.745  47.459  54.403  1.00  0.00     0.116 C 
HETATM   14  F   UNL     1      12.062  48.692  54.849  1.00  0.00    -0.206 F 
HETATM   15  C   UNL     1      12.269  46.356  55.092  1.00  0.00     0.042 C 
HETATM   16  C   UNL     1      12.557  45.212  54.335  1.00  0.00     0.003 C 
HETATM   17  C   UNL     1      11.878  45.014  53.129  1.00  0.00     0.007 C 
ENDBRANCH  10  11
ENDBRANCH   2  10
TORSDOF 2
ENDMDL
MODEL 6
REMARK VINA RESULT:      -6.3      2.876      4.703
REMARK  2 active torsions:
REMARK  status: ('A' for Active; 'I' for Inactive)
REMARK    1  A    between atoms: C_1  and  C_3 
REMARK    2  A    between atoms: C_3  and  C_4 
ROOT
HETATM    1  C   UNL     1       9.590  45.824  47.926  1.00  0.00    -0.014 C 
HETATM    2  C   UNL     1       9.118  45.068  50.390  1.00  0.00    -0.010 C 
HETATM    3  C   UNL     1      10.736  43.788  48.824  1.00  0.00    -0.014 C 
HETATM    4  C   UNL     1      10.161  43.989  50.225  1.00  0.00     0.009 C 
HETATM    5  C   UNL     1       9.870  42.849  47.989  1.00  0.00     0.005 C 
HETATM    6  C   UNL     1       8.717  44.966  46.988  1.00  0.00     0.005 C 
HETATM    7  C   UNL     1      10.946  45.133  48.102  1.00  0.00     0.009 C 
HETATM    8  C   UNL     1       9.119  43.500  46.837  1.00  0.00     0.001 C 
HETATM    9  C   UNL     1       8.898  46.067  49.269  1.00  0.00     0.009 C 
ENDROOT
BRANCH   2  10
HETATM   10  C   UNL     1       9.090  45.677  51.781  1.00  0.00     0.043 C 
BRANCH  10  11
HETATM   11  C   UNL     1       7.970  45.127  52.629  1.00  0.00    -0.055 C 
HETATM   12  C   UNL     1       8.154  44.966  54.002  1.00  0.00     0.049 C 
HETATM   13  C   UNL     1       7.028  44.885  54.821  1.00  0.00     0.116 C 
HETATM   14  F   UNL     1       7.124  44.509  56.113  1.00  0.00    -0.206 F 
HETATM   15  C   UNL     1       5.745  45.034  54.274  1.00  0.00     0.042 C 
HETATM   16  C   UNL     1       5.594  44.729  52.914  1.00  0.00     0.003 C 
HETATM   17  C   UNL     1       6.713  44.801  52.079  1.00  0.00     0.007 C 
ENDBRANCH  10  11
ENDBRANCH   2  10
TORSDOF 2
ENDMDL
MODEL 7
REMARK VINA RESULT:      -6.2      2.679      3.769
REMARK  2 active torsions:
REMARK  status: ('A' for Active; 'I' for Inactive)
REMARK    1  A    between atoms: C_1  and  C_3 
REMARK    2  A    between atoms: C_3  and  C_4 
ROOT
HETATM    1  C   UNL     1      11.829  45.386  53.988  1.00  0.00    -0.014 C 
HETATM    2  C   UNL     1       9.375  45.841  53.191  1.00  0.00    -0.010 C 
HETATM    3  C   UNL     1      11.366  47.348  52.505  1.00  0.00    -0.014 C 
HETATM    4  C   UNL     1       9.897  46.969  52.334  1.00  0.00     0.009 C 
HETATM    5  C   UNL     1      11.563  48.342  53.645  1.00  0.00     0.005 C 
HETATM    6  C   UNL     1      12.120  46.311  55.186  1.00  0.00     0.005 C 
HETATM    7  C   UNL     1      12.251  46.101  52.701  1.00  0.00     0.009 C 
HETATM    8  C   UNL     1      12.276  47.799  54.874  1.00  0.00     0.001 C 
HETATM    9  C   UNL     1      10.358  44.967  53.949  1.00  0.00     0.009 C 
ENDROOT
BRANCH   2  10
HETATM   10  C   UNL     1       8.226  45.078  52.556  1.00  0.00     0.043 C 
BRANCH  10  11
HETATM   11  C   UNL     1       8.504  44.707  51.120  1.00  0.00    -0.055 C 
HETATM   12  C   UNL     1       7.803  45.339  50.092  1.00  0.00     0.049 C 
HETATM   13  C   UNL     1       8.347  45.325  48.807  1.00  0.00     0.116 C 
HETATM   14  F   UNL     1       7.627  45.716  47.736  1.00  0.00    -0.206 F 
HETATM   15  C   UNL     1       9.604  44.747  48.579  1.00  0.00     0.042 C 
HETATM   16  C   UNL     1      10.024  43.762  49.483  1.00  0.00     0.003 C 
HETATM   17  C   UNL     1       9.488  43.758  50.774  1.00  0.00     0.007 C 
ENDBRANCH  10  11
ENDBRANCH   2  10
TORSDOF 2
ENDMDL
MODEL 8
REMARK VINA RESULT:      -6.2      2.436      5.914
REMARK  2 active torsions:
REMARK  status: ('A' for Active; 'I' for Inactive)
REMARK    1  A    between atoms: C_1  and  C_3 
REMARK    2  A    between atoms: C_3  and  C_4 
ROOT
HETATM    1  C   UNL     1       9.351  45.030  51.205  1.00  0.00    -0.014 C 
HETATM    2  C   UNL     1      10.091  46.953  52.823  1.00  0.00    -0.010 C 
HETATM    3  C   UNL     1       9.510  44.573  53.660  1.00  0.00    -0.014 C 
HETATM    4  C   UNL     1      10.073  45.960  53.960  1.00  0.00     0.009 C 
HETATM    5  C   UNL     1       7.993  44.534  53.820  1.00  0.00     0.005 C 
HETATM    6  C   UNL     1       7.813  44.937  51.247  1.00  0.00     0.005 C 
HETATM    7  C   UNL     1       9.930  44.083  52.261  1.00  0.00     0.009 C 
HETATM    8  C   UNL     1       7.201  44.376  52.531  1.00  0.00     0.001 C 
HETATM    9  C   UNL     1       9.831  46.469  51.408  1.00  0.00     0.009 C 
ENDROOT
BRANCH   2  10
HETATM   10  C   UNL     1      11.203  47.982  52.933  1.00  0.00     0.043 C 
BRANCH  10  11
HETATM   11  C   UNL     1      12.552  47.350  53.174  1.00  0.00    -0.055 C 
HETATM   12  C   UNL     1      13.187  47.516  54.404  1.00  0.00     0.049 C 
HETATM   13  C   UNL     1      14.179  46.606  54.772  1.00  0.00     0.116 C 
HETATM   14  F   UNL     1      14.981  46.832  55.832  1.00  0.00    -0.206 F 
HETATM   15  C   UNL     1      14.473  45.511  53.946  1.00  0.00     0.042 C 
HETATM   16  C   UNL     1      14.173  45.644  52.583  1.00  0.00     0.003 C 
HETATM   17  C   UNL     1      13.184  46.553  52.197  1.00  0.00     0.007 C 
ENDBRANCH  10  11
ENDBRANCH   2  10
TORSDOF 2
ENDMDL
MODEL 9
REMARK VINA RESULT:      -6.1      1.297      2.481
REMARK  2 active torsions:
REMARK  status: ('A' for Active; 'I' for Inactive)
REMARK    1  A    between atoms: C_1  and  C_3 
REMARK    2  A    between atoms: C_3  and  C_4 
ROOT
HETATM    1  C   UNL     1      11.228  47.236  53.526  1.00  0.00    -0.014 C 
HETATM    2  C   UNL     1      10.316  45.042  52.425  1.00  0.00    -0.010 C 
HETATM    3  C   UNL     1      12.351  45.057  54.027  1.00  0.00    -0.014 C 
HETATM    4  C   UNL     1      11.318  44.256  53.236  1.00  0.00     0.009 C 
HETATM    5  C   UNL     1      13.565  45.409  53.173  1.00  0.00     0.005 C 
HETATM    6  C   UNL     1      12.440  47.716  52.702  1.00  0.00     0.005 C 
HETATM    7  C   UNL     1      11.728  46.322  54.648  1.00  0.00     0.009 C 
HETATM    8  C   UNL     1      13.714  46.880  52.818  1.00  0.00     0.001 C 
HETATM    9  C   UNL     1      10.192  46.538  52.644  1.00  0.00     0.009 C 
ENDROOT
BRANCH   2  10
HETATM   10  C   UNL     1       8.989  44.327  52.243  1.00  0.00     0.043 C 
BRANCH  10  11
HETATM   11  C   UNL     1       7.953  44.769  53.247  1.00  0.00    -0.055 C 
HETATM   12  C   UNL     1       6.631  44.955  52.845  1.00  0.00     0.049 C 
HETATM   13  C   UNL     1       5.628  44.930  53.814  1.00  0.00     0.116 C 
HETATM   14  F   UNL     1       4.368  45.321  53.532  1.00  0.00    -0.206 F 
HETATM   15  C   UNL     1       5.947  44.654  55.152  1.00  0.00     0.042 C 
HETATM   16  C   UNL     1       7.256  44.936  55.565  1.00  0.00     0.003 C 
HETATM   17  C   UNL     1       8.273  44.968  54.606  1.00  0.00     0.007 C 
ENDBRANCH  10  11
ENDBRANCH   2  10
TORSDOF 2
ENDMDL
