REMARK  2 active torsions:
REMARK  status: ('A' for Active; 'I' for Inactive)
REMARK    1  A    between atoms: C_6  and  O_10 
REMARK    2  A    between atoms: C_6  and  O_14 
ROOT
HETATM    1  C   UNL     1       7.395  44.947  52.145  1.00  0.00     0.021 C 
HETATM    2  C   UNL     1       5.958  44.739  52.004  1.00  0.00     0.165 C 
HETATM    3  O   UNL     1       5.307  44.680  50.986  1.00  0.00    -0.292 OA
HETATM    4  C   UNL     1       5.331  44.589  53.379  1.00  0.00     0.157 C 
HETATM    5  C   UNL     1      11.873  47.022  54.606  1.00  0.00     0.001 C 
HETATM    6  C   UNL     1       6.548  44.242  54.264  1.00  0.00     0.196 C 
HETATM    7  C   UNL     1       7.779  44.630  53.468  1.00  0.00     0.018 C 
HETATM    8  C   UNL     1      10.002  45.739  53.738  1.00  0.00    -0.025 C 
HETATM    9  C   UNL     1       9.307  46.334  51.400  1.00  0.00     0.013 C 
HETATM   10  C   UNL     1      11.070  45.869  54.644  1.00  0.00     0.012 C 
HETATM   11  C   UNL     1       8.148  45.628  51.213  1.00  0.00     0.017 C 
HETATM   12  C   UNL     1      10.577  47.892  52.750  1.00  0.00     0.012 C 
HETATM   13  C   UNL     1      11.565  48.070  53.725  1.00  0.00     0.001 C 
HETATM   14  C   UNL     1       9.036  44.733  53.985  1.00  0.00     0.026 C 
HETATM   15  C   UNL     1       9.946  46.636  52.625  1.00  0.00    -0.026 C 
ENDROOT
BRANCH   6  16
HETATM   16  O   UNL     1       6.505  44.821  55.525  1.00  0.00    -0.361 OA
ATOM     17  HO  UNL     1       7.254  44.608  56.069  1.00  0.00     0.213 HD
ENDBRANCH   6  16
BRANCH   6  18
HETATM   18  O   UNL     1       6.503  42.878  54.564  1.00  0.00    -0.361 OA
ATOM     19  HO  UNL     1       7.252  42.665  55.108  1.00  0.00     0.213 HD
ENDBRANCH   6  18
TORSDOF 2
