MODEL 1
REMARK VINA RESULT:     -13.0      0.000      0.000
REMARK  9 active torsions:
REMARK  status: ('A' for Active; 'I' for Inactive)
REMARK    1  A    between atoms: C_3  and  C_18 
REMARK    2  A    between atoms: C_7  and  C_42 
REMARK    3  A    between atoms: O_8  and  C_36 
REMARK    4  A    between atoms: O_8  and  C_43 
REMARK    5  A    between atoms: C_9  and  O_23 
REMARK    6  A    between atoms: O_10  and  C_27 
REMARK    7  A    between atoms: C_17  and  O_25 
REMARK    8  A    between atoms: C_17  and  O_40 
REMARK    9  A    between atoms: C_28  and  C_42 
ROOT
HETATM    1  C   UNL     1     -17.023   5.331  -6.833  1.00  0.00     0.013 C 
HETATM    2  C   UNL     1     -15.047   4.286  -7.791  1.00  0.00     0.013 C 
HETATM    3  C   UNL     1     -13.391   3.258  -6.371  1.00  0.00     0.006 C 
HETATM    4  C   UNL     1     -15.686   4.795  -6.654  1.00  0.00    -0.029 C 
HETATM    5  C   UNL     1     -15.010   4.764  -5.404  1.00  0.00    -0.042 C 
HETATM    6  C   UNL     1     -16.156   9.457  -4.424  1.00  0.00     0.004 C 
HETATM    7  C   UNL     1     -13.806   4.074  -5.300  1.00  0.00     0.028 C 
HETATM    8  C   UNL     1     -17.356   6.583  -6.436  1.00  0.00     0.013 C 
HETATM    9  C   UNL     1     -13.904   3.503  -7.655  1.00  0.00     0.020 C 
HETATM   10  C   UNL     1     -16.630   7.314  -5.431  1.00  0.00    -0.027 C 
HETATM   11  C   UNL     1     -15.550   5.376  -4.133  1.00  0.00     0.082 C 
HETATM   12  C   UNL     1     -16.472   7.481  -3.071  1.00  0.00     0.083 C 
HETATM   13  C   UNL     1     -16.238   6.709  -4.228  1.00  0.00    -0.010 C 
HETATM   14  C   UNL     1     -16.332   8.878  -3.168  1.00  0.00     0.038 C 
HETATM   15  C   UNL     1     -16.294   8.672  -5.582  1.00  0.00     0.012 C 
ENDROOT
BRANCH  12  16
HETATM   16  O   UNL     1     -16.761   6.875  -1.872  1.00  0.00    -0.310 OA
BRANCH  16  17
HETATM   17  C   UNL     1     -16.295   6.862  -0.586  1.00  0.00     0.078 C 
HETATM   18  C   UNL     1     -15.023   7.374  -0.288  1.00  0.00     0.038 C 
HETATM   19  C   UNL     1     -14.781   7.884   0.990  1.00  0.00     0.017 C 
HETATM   20  C   UNL     1     -15.831   7.934   1.920  1.00  0.00     0.005 C 
HETATM   21  C   UNL     1     -16.937   7.081   1.701  1.00  0.00     0.079 C 
HETATM   22  C   UNL     1     -17.130   6.463   0.460  1.00  0.00     0.074 C 
BRANCH  20  23
HETATM   23  C   UNL     1     -15.799   8.868   3.084  1.00  0.00    -0.006 C 
HETATM   24  C   UNL     1     -16.504  10.191   3.098  1.00  0.00     0.041 C 
HETATM   25  C   UNL     1     -16.385  10.768   4.496  1.00  0.00     0.010 C 
HETATM   26  C   UNL     1     -15.583   9.779   5.337  1.00  0.00     0.074 C 
HETATM   27  C   UNL     1     -15.041   8.692   4.400  1.00  0.00     0.185 C 
BRANCH  27  28
HETATM   28  O   UNL     1     -15.205   7.400   4.909  1.00  0.00    -0.362 OA
ATOM     29  HO  UNL     1     -14.850   6.729   4.338  1.00  0.00     0.213 HD
ENDBRANCH  27  28
BRANCH  27  30
HETATM   30  O   UNL     1     -13.653   8.904   4.229  1.00  0.00    -0.362 OA
ATOM     31  HO  UNL     1     -13.398   9.653   4.755  1.00  0.00     0.213 HD
ENDBRANCH  27  30
ENDBRANCH  20  23
BRANCH  21  32
HETATM   32  O   UNL     1     -17.767   6.757   2.715  1.00  0.00    -0.360 OA
ATOM     33  HO  UNL     1     -18.009   7.404   3.368  1.00  0.00     0.217 HD
ENDBRANCH  21  32
ENDBRANCH  16  17
ENDBRANCH  12  16
BRANCH   3  34
HETATM   34  C   UNL     1     -12.492   2.227  -6.188  1.00  0.00    -0.139 C 
BRANCH  34  35
HETATM   35  C   UNL     1     -11.813   1.127  -5.950  1.00  0.00     0.066 C 
HETATM   36  C   UNL     1     -10.553   0.828  -6.690  1.00  0.00     0.031 C 
HETATM   37  C   UNL     1     -10.505  -0.581  -7.069  1.00  0.00    -0.053 C 
HETATM   38  C   UNL     1      -9.312   1.284  -5.942  1.00  0.00     0.010 C 
HETATM   39  C   UNL     1     -10.244  -0.856  -8.405  1.00  0.00     0.134 C 
HETATM   40  C   UNL     1     -10.757  -1.591  -6.045  1.00  0.00     0.041 C 
HETATM   41  C   UNL     1     -11.230  -0.997  -4.707  1.00  0.00    -0.009 C 
HETATM   42  C   UNL     1     -12.304   0.059  -5.009  1.00  0.00     0.022 C 
HETATM   43  C   UNL     1     -10.053  -0.323  -3.993  1.00  0.00     0.005 C 
HETATM   44  C   UNL     1      -8.984   0.416  -4.736  1.00  0.00     0.001 C 
BRANCH  39  45
HETATM   45  O   UNL     1     -10.648  -2.157  -8.806  1.00  0.00    -0.372 OA
ATOM     46  HO  UNL     1     -10.201  -2.471  -9.583  1.00  0.00     0.216 HD
ENDBRANCH  39  45
ENDBRANCH  34  35
ENDBRANCH   3  34
TORSDOF 9
ENDMDL
MODEL 2
REMARK VINA RESULT:     -11.2      1.480      2.132
REMARK  9 active torsions:
REMARK  status: ('A' for Active; 'I' for Inactive)
REMARK    1  A    between atoms: C_3  and  C_18 
REMARK    2  A    between atoms: C_7  and  C_42 
REMARK    3  A    between atoms: O_8  and  C_36 
REMARK    4  A    between atoms: O_8  and  C_43 
REMARK    5  A    between atoms: C_9  and  O_23 
REMARK    6  A    between atoms: O_10  and  C_27 
REMARK    7  A    between atoms: C_17  and  O_25 
REMARK    8  A    between atoms: C_17  and  O_40 
REMARK    9  A    between atoms: C_28  and  C_42 
ROOT
HETATM    1  C   UNL     1     -16.937   4.850  -6.653  1.00  0.00     0.013 C 
HETATM    2  C   UNL     1     -15.057   3.890  -7.861  1.00  0.00     0.013 C 
HETATM    3  C   UNL     1     -13.003   3.359  -6.715  1.00  0.00     0.006 C 
HETATM    4  C   UNL     1     -15.523   4.524  -6.703  1.00  0.00    -0.029 C 
HETATM    5  C   UNL     1     -14.610   4.813  -5.653  1.00  0.00    -0.042 C 
HETATM    6  C   UNL     1     -16.268   9.432  -5.190  1.00  0.00     0.004 C 
HETATM    7  C   UNL     1     -13.315   4.306  -5.720  1.00  0.00     0.028 C 
HETATM    8  C   UNL     1     -17.378   6.105  -6.393  1.00  0.00     0.013 C 
HETATM    9  C   UNL     1     -13.800   3.293  -7.869  1.00  0.00     0.020 C 
HETATM   10  C   UNL     1     -16.588   7.096  -5.711  1.00  0.00    -0.027 C 
HETATM   11  C   UNL     1     -14.970   5.585  -4.405  1.00  0.00     0.082 C 
HETATM   12  C   UNL     1     -15.980   7.725  -3.506  1.00  0.00     0.083 C 
HETATM   13  C   UNL     1     -15.867   6.782  -4.549  1.00  0.00    -0.010 C 
HETATM   14  C   UNL     1     -16.088   9.084  -3.853  1.00  0.00     0.038 C 
HETATM   15  C   UNL     1     -16.512   8.431  -6.147  1.00  0.00     0.012 C 
ENDROOT
BRANCH  12  16
HETATM   16  O   UNL     1     -15.917   7.326  -2.193  1.00  0.00    -0.310 OA
BRANCH  16  17
HETATM   17  C   UNL     1     -16.503   7.631  -0.994  1.00  0.00     0.078 C 
HETATM   18  C   UNL     1     -16.659   6.643  -0.011  1.00  0.00     0.038 C 
HETATM   19  C   UNL     1     -16.699   7.026   1.332  1.00  0.00     0.017 C 
HETATM   20  C   UNL     1     -16.516   8.376   1.668  1.00  0.00     0.005 C 
HETATM   21  C   UNL     1     -16.744   9.336   0.656  1.00  0.00     0.079 C 
HETATM   22  C   UNL     1     -16.828   8.955  -0.688  1.00  0.00     0.074 C 
BRANCH  20  23
HETATM   23  C   UNL     1     -16.071   8.787   3.032  1.00  0.00    -0.006 C 
HETATM   24  C   UNL     1     -15.882  10.217   3.441  1.00  0.00     0.041 C 
HETATM   25  C   UNL     1     -15.597  10.243   4.931  1.00  0.00     0.010 C 
HETATM   26  C   UNL     1     -15.603   8.800   5.427  1.00  0.00     0.074 C 
HETATM   27  C   UNL     1     -15.693   7.880   4.203  1.00  0.00     0.185 C 
BRANCH  27  28
HETATM   28  O   UNL     1     -16.622   6.847   4.362  1.00  0.00    -0.362 OA
ATOM     29  HO  UNL     1     -17.519   7.159   4.406  1.00  0.00     0.213 HD
ENDBRANCH  27  28
BRANCH  27  30
HETATM   30  O   UNL     1     -14.427   7.280   4.004  1.00  0.00    -0.362 OA
ATOM     31  HO  UNL     1     -14.563   6.387   3.708  1.00  0.00     0.213 HD
ENDBRANCH  27  30
ENDBRANCH  20  23
BRANCH  21  32
HETATM   32  O   UNL     1     -16.998  10.623   0.974  1.00  0.00    -0.360 OA
ATOM     33  HO  UNL     1     -17.360  10.849   1.823  1.00  0.00     0.217 HD
ENDBRANCH  21  32
ENDBRANCH  16  17
ENDBRANCH  12  16
BRANCH   3  34
HETATM   34  C   UNL     1     -11.932   2.498  -6.582  1.00  0.00    -0.139 C 
BRANCH  34  35
HETATM   35  C   UNL     1     -11.052   1.555  -6.333  1.00  0.00     0.066 C 
HETATM   36  C   UNL     1     -11.487   0.164  -6.015  1.00  0.00     0.031 C 
HETATM   37  C   UNL     1     -10.688  -0.384  -4.922  1.00  0.00    -0.053 C 
HETATM   38  C   UNL     1     -11.516  -0.736  -7.238  1.00  0.00     0.010 C 
HETATM   39  C   UNL     1     -11.388  -0.927  -3.853  1.00  0.00     0.134 C 
HETATM   40  C   UNL     1      -9.233  -0.304  -5.010  1.00  0.00     0.041 C 
HETATM   41  C   UNL     1      -8.740   0.539  -6.200  1.00  0.00    -0.009 C 
HETATM   42  C   UNL     1      -9.574   1.827  -6.248  1.00  0.00     0.022 C 
HETATM   43  C   UNL     1      -8.945  -0.238  -7.505  1.00  0.00     0.005 C 
HETATM   44  C   UNL     1     -10.130  -1.125  -7.732  1.00  0.00     0.001 C 
BRANCH  39  45
HETATM   45  O   UNL     1     -10.621  -1.021  -2.662  1.00  0.00    -0.372 OA
ATOM     46  HO  UNL     1     -10.016  -1.754  -2.657  1.00  0.00     0.216 HD
ENDBRANCH  39  45
ENDBRANCH  34  35
ENDBRANCH   3  34
TORSDOF 9
ENDMDL
MODEL 3
REMARK VINA RESULT:     -10.8      2.069     10.889
REMARK  9 active torsions:
REMARK  status: ('A' for Active; 'I' for Inactive)
REMARK    1  A    between atoms: C_3  and  C_18 
REMARK    2  A    between atoms: C_7  and  C_42 
REMARK    3  A    between atoms: O_8  and  C_36 
REMARK    4  A    between atoms: O_8  and  C_43 
REMARK    5  A    between atoms: C_9  and  O_23 
REMARK    6  A    between atoms: O_10  and  C_27 
REMARK    7  A    between atoms: C_17  and  O_25 
REMARK    8  A    between atoms: C_17  and  O_40 
REMARK    9  A    between atoms: C_28  and  C_42 
ROOT
HETATM    1  C   UNL     1     -15.683   9.336  -5.326  1.00  0.00     0.013 C 
HETATM    2  C   UNL     1     -16.539   9.956  -3.136  1.00  0.00     0.013 C 
HETATM    3  C   UNL     1     -15.973   8.659  -1.184  1.00  0.00     0.006 C 
HETATM    4  C   UNL     1     -15.935   8.983  -3.941  1.00  0.00    -0.029 C 
HETATM    5  C   UNL     1     -15.605   7.721  -3.377  1.00  0.00    -0.042 C 
HETATM    6  C   UNL     1     -17.592   5.266  -7.162  1.00  0.00     0.004 C 
HETATM    7  C   UNL     1     -15.725   7.539  -2.002  1.00  0.00     0.028 C 
HETATM    8  C   UNL     1     -16.126   8.575  -6.356  1.00  0.00     0.013 C 
HETATM    9  C   UNL     1     -16.549   9.806  -1.752  1.00  0.00     0.020 C 
HETATM   10  C   UNL     1     -16.459   7.181  -6.224  1.00  0.00    -0.027 C 
HETATM   11  C   UNL     1     -15.050   6.558  -4.166  1.00  0.00     0.082 C 
HETATM   12  C   UNL     1     -15.395   5.061  -6.178  1.00  0.00     0.083 C 
HETATM   13  C   UNL     1     -15.623   6.294  -5.530  1.00  0.00    -0.010 C 
HETATM   14  C   UNL     1     -16.447   4.506  -6.929  1.00  0.00     0.038 C 
HETATM   15  C   UNL     1     -17.616   6.624  -6.798  1.00  0.00     0.012 C 
ENDROOT
BRANCH  12  16
HETATM   16  O   UNL     1     -14.203   4.397  -6.020  1.00  0.00    -0.310 OA
BRANCH  16  17
HETATM   17  C   UNL     1     -13.593   3.256  -6.464  1.00  0.00     0.078 C 
HETATM   18  C   UNL     1     -12.564   3.328  -7.414  1.00  0.00     0.038 C 
HETATM   19  C   UNL     1     -11.594   2.322  -7.439  1.00  0.00     0.017 C 
HETATM   20  C   UNL     1     -11.633   1.305  -6.472  1.00  0.00     0.005 C 
HETATM   21  C   UNL     1     -12.864   1.080  -5.814  1.00  0.00     0.079 C 
HETATM   22  C   UNL     1     -13.895   2.024  -5.879  1.00  0.00     0.074 C 
BRANCH  20  23
HETATM   23  C   UNL     1     -10.420   0.507  -6.130  1.00  0.00    -0.006 C 
HETATM   24  C   UNL     1      -9.623  -0.256  -7.145  1.00  0.00     0.041 C 
HETATM   25  C   UNL     1      -8.381  -0.791  -6.456  1.00  0.00     0.010 C 
HETATM   26  C   UNL     1      -8.438  -0.352  -4.996  1.00  0.00     0.074 C 
HETATM   27  C   UNL     1      -9.812   0.281  -4.746  1.00  0.00     0.185 C 
BRANCH  27  28
HETATM   28  O   UNL     1      -9.740   1.477  -4.024  1.00  0.00    -0.362 OA
ATOM     29  HO  UNL     1      -9.962   2.239  -4.546  1.00  0.00     0.213 HD
ENDBRANCH  27  28
BRANCH  27  30
HETATM   30  O   UNL     1     -10.587  -0.625  -3.983  1.00  0.00    -0.362 OA
ATOM     31  HO  UNL     1     -11.031  -1.216  -4.580  1.00  0.00     0.213 HD
ENDBRANCH  27  30
ENDBRANCH  20  23
BRANCH  21  32
HETATM   32  O   UNL     1     -13.111  -0.098  -5.203  1.00  0.00    -0.360 OA
ATOM     33  HO  UNL     1     -12.576  -0.862  -5.390  1.00  0.00     0.217 HD
ENDBRANCH  21  32
ENDBRANCH  16  17
ENDBRANCH  12  16
BRANCH   3  34
HETATM   34  C   UNL     1     -15.664   8.653   0.162  1.00  0.00    -0.139 C 
BRANCH  34  35
HETATM   35  C   UNL     1     -15.519   8.483   1.457  1.00  0.00     0.066 C 
HETATM   36  C   UNL     1     -16.504   9.055   2.420  1.00  0.00     0.031 C 
HETATM   37  C   UNL     1     -15.817   9.633   3.572  1.00  0.00    -0.053 C 
HETATM   38  C   UNL     1     -17.585   8.061   2.812  1.00  0.00     0.010 C 
HETATM   39  C   UNL     1     -16.154  10.937   3.905  1.00  0.00     0.134 C 
HETATM   40  C   UNL     1     -14.818   8.827   4.268  1.00  0.00     0.041 C 
HETATM   41  C   UNL     1     -14.495   7.504   3.551  1.00  0.00    -0.009 C 
HETATM   42  C   UNL     1     -14.316   7.805   2.056  1.00  0.00     0.022 C 
HETATM   43  C   UNL     1     -15.657   6.521   3.728  1.00  0.00     0.005 C 
HETATM   44  C   UNL     1     -17.087   6.966   3.743  1.00  0.00     0.001 C 
BRANCH  39  45
HETATM   45  O   UNL     1     -15.176  11.590   4.701  1.00  0.00    -0.372 OA
ATOM     46  HO  UNL     1     -14.291  11.486   4.375  1.00  0.00     0.216 HD
ENDBRANCH  39  45
ENDBRANCH  34  35
ENDBRANCH   3  34
TORSDOF 9
ENDMDL
