REMARK  4 active torsions:
REMARK  status: ('A' for Active; 'I' for Inactive)
REMARK    1  A    between atoms: O_2  and  C_29 
REMARK    2  A    between atoms: O_8  and  C_14 
REMARK    3  A    between atoms: O_15  and  C_23 
REMARK    4  A    between atoms: C_17  and  O_25 
ROOT
HETATM    1  C   UNL     1      13.353   9.778   4.879  1.00  0.00     0.001 C 
HETATM    2  C   UNL     1      14.095   2.175  -2.532  1.00  0.00     0.042 C 
HETATM    3  C   UNL     1      15.641   8.771   3.738  1.00  0.00    -0.047 C 
HETATM    4  C   UNL     1      14.496   8.942   2.968  1.00  0.00    -0.023 C 
HETATM    5  C   UNL     1      13.742   5.158  -1.573  1.00  0.00     0.014 C 
HETATM    6  C   UNL     1      15.461   6.330   0.221  1.00  0.00    -0.018 C 
HETATM    7  C   UNL     1      14.341   4.378  -0.575  1.00  0.00     0.011 C 
HETATM    8  C   UNL     1      15.598   8.963   5.106  1.00  0.00     0.008 C 
HETATM    9  C   UNL     1      14.399   9.343   5.696  1.00  0.00     0.001 C 
HETATM   10  C   UNL     1      13.231   4.537  -2.736  1.00  0.00     0.110 C 
HETATM   11  C   UNL     1      13.378   3.209  -3.130  1.00  0.00     0.099 C 
HETATM   12  C   UNL     1      13.329   9.452   3.517  1.00  0.00     0.012 C 
HETATM   13  C   UNL     1      16.271   8.299   1.515  1.00  0.00     0.057 C 
HETATM   14  C   UNL     1      14.783   8.501   1.613  1.00  0.00    -0.039 C 
HETATM   15  C   UNL     1      13.851   8.084   0.702  1.00  0.00     0.020 C 
HETATM   16  C   UNL     1      14.304   7.032  -0.172  1.00  0.00    -0.026 C 
HETATM   17  C   UNL     1      16.667   7.113   0.640  1.00  0.00     0.160 C 
HETATM   18  C   UNL     1      14.245   2.011  -1.183  1.00  0.00     0.040 C 
HETATM   19  C   UNL     1      13.562   6.526  -1.260  1.00  0.00     0.027 C 
HETATM   20  C   UNL     1      15.407   4.931   0.177  1.00  0.00     0.026 C 
HETATM   21  C   UNL     1      13.842   3.062  -0.368  1.00  0.00     0.076 C 
HETATM   22  C   UNL     1      16.748   8.111   2.957  1.00  0.00     0.051 C 
ENDROOT
BRANCH  10  23
HETATM   23  O   UNL     1      12.338   5.259  -3.458  1.00  0.00    -0.357 OA
ATOM     24  HO  UNL     1      11.995   4.842  -4.239  1.00  0.00     0.217 HD
ENDBRANCH  10  23
BRANCH  11  25
HETATM   25  O   UNL     1      12.566   2.779  -4.158  1.00  0.00    -0.358 OA
ATOM     26  HO  UNL     1      12.077   3.484  -4.566  1.00  0.00     0.217 HD
ENDBRANCH  11  25
BRANCH  21  27
HETATM   27  O   UNL     1      12.577   2.972   0.063  1.00  0.00    -0.360 OA
ATOM     28  HO  UNL     1      12.244   2.093   0.201  1.00  0.00     0.217 HD
ENDBRANCH  21  27
BRANCH  17  29
HETATM   29  O   UNL     1      17.121   7.788  -0.525  1.00  0.00    -0.390 OA
ATOM     30  HO  UNL     1      17.886   8.285  -0.259  1.00  0.00     0.210 HD
ENDBRANCH  17  29
TORSDOF 4
