REMARK  2 active torsions:
REMARK  status: ('A' for Active; 'I' for Inactive)
REMARK    1  A    between atoms: C_1  and  O_13 
REMARK    2  A    between atoms: C_3  and  O_7 
ROOT
HETATM    1  C   UNL     1      -5.466 -23.174  -5.911  1.00  0.00     0.101 C 
HETATM    2  C   UNL     1      -4.867 -22.120  -1.164  1.00  0.00     0.018 C 
HETATM    3  C   UNL     1      -6.293 -22.627  -4.919  1.00  0.00     0.126 C 
HETATM    4  N   UNL     1      -6.373 -21.471  -2.832  1.00  0.00    -0.363 N 
ATOM      5  HN  UNL     1      -7.331 -21.175  -3.018  1.00  0.00     0.165 HD
HETATM    6  C   UNL     1      -4.101 -23.324  -5.702  1.00  0.00     0.040 C 
HETATM    7  C   UNL     1      -5.664 -22.134  -3.770  1.00  0.00     0.078 C 
HETATM    8  C   UNL     1      -3.562 -23.057  -4.450  1.00  0.00     0.016 C 
HETATM    9  C   UNL     1      -5.798 -21.210  -1.658  1.00  0.00     0.088 C 
HETATM   10  C   UNL     1      -4.463 -22.768  -3.418  1.00  0.00    -0.006 C 
HETATM   11  C   UNL     1      -4.144 -22.879  -2.073  1.00  0.00     0.015 C 
ENDROOT
BRANCH   1  12
HETATM   12  O   UNL     1      -6.009 -24.192  -6.665  1.00  0.00    -0.358 OA
ATOM     13  HO  UNL     1      -5.449 -24.562  -7.337  1.00  0.00     0.217 HD
ENDBRANCH   1  12
BRANCH   3  14
HETATM   14  O   UNL     1      -7.432 -21.994  -5.346  1.00  0.00    -0.356 OA
ATOM     15  HO  UNL     1      -7.992 -21.624  -4.674  1.00  0.00     0.218 HD
ENDBRANCH   3  14
TORSDOF 2
