MODEL 1
REMARK VINA RESULT:      -7.8      0.000      0.000
REMARK  1 active torsions:
REMARK  status: ('A' for Active; 'I' for Inactive)
REMARK    1  A    between atoms: C_13  and  O_15 
ROOT
HETATM    1  C   UNL     1      -5.117  -5.383  13.451  1.00  0.00     0.061 C 
HETATM    2  C   UNL     1      -7.853  -4.761  15.765  1.00  0.00     0.045 C 
HETATM    3  O   UNL     1      -4.284  -1.287  12.294  1.00  0.00    -0.273 OA
HETATM    4  N   UNL     1      -7.639  -2.969  14.181  1.00  0.00    -0.286 N 
ATOM      5  HN  UNL     1      -8.000  -2.078  13.840  1.00  0.00     0.188 HD
HETATM    6  C   UNL     1      -6.972  -5.534  15.038  1.00  0.00     0.034 C 
HETATM    7  C   UNL     1      -3.325  -2.483  10.478  1.00  0.00     0.143 C 
HETATM    8  C   UNL     1      -4.356  -4.559  12.635  1.00  0.00     0.044 C 
HETATM    9  C   UNL     1      -7.861  -3.409  15.426  1.00  0.00     0.115 C 
HETATM   10  C   UNL     1      -6.329  -4.918  13.967  1.00  0.00     0.055 C 
HETATM   11  N   UNL     1      -6.907  -3.787  13.421  1.00  0.00    -0.273 N 
HETATM   12  C   UNL     1      -6.422  -3.312  12.126  1.00  0.00     0.282 C 
HETATM   13  C   UNL     1      -2.125  -3.416  10.563  1.00  0.00     0.200 C 
HETATM   14  N   UNL     1      -4.957  -3.427  12.092  1.00  0.00    -0.299 N 
HETATM   15  O   UNL     1      -1.850  -5.777  10.557  1.00  0.00    -0.290 OA
HETATM   16  C   UNL     1      -2.418  -4.796  11.141  1.00  0.00     0.180 C 
HETATM   17  C   UNL     1      -4.221  -2.344  11.697  1.00  0.00     0.228 C 
HETATM   18  C   UNL     1      -3.026  -4.932  12.361  1.00  0.00     0.082 C 
HETATM   19  S   UNL     1      -8.004  -2.235  16.701  1.00  0.00    -0.059 SA
ENDROOT
BRANCH  13  20
HETATM   20  O   UNL     1      -1.067  -2.855  11.314  1.00  0.00    -0.387 OA
ATOM     21  HO  UNL     1      -1.140  -3.055  12.239  1.00  0.00     0.210 HD
ENDBRANCH  13  20
TORSDOF 1
ENDMDL
MODEL 2
REMARK VINA RESULT:      -6.5      3.473      6.040
REMARK  1 active torsions:
REMARK  status: ('A' for Active; 'I' for Inactive)
REMARK    1  A    between atoms: C_13  and  O_15 
ROOT
HETATM    1  C   UNL     1      -3.851  -2.333  13.115  1.00  0.00     0.061 C 
HETATM    2  C   UNL     1      -1.128  -2.351  10.704  1.00  0.00     0.045 C 
HETATM    3  O   UNL     1      -5.888  -5.944  11.839  1.00  0.00    -0.273 OA
HETATM    4  N   UNL     1      -3.017  -3.585   9.881  1.00  0.00    -0.286 N 
ATOM      5  HN  UNL     1      -3.422  -4.123   9.114  1.00  0.00     0.188 HD
HETATM    6  C   UNL     1      -1.884  -1.851  11.743  1.00  0.00     0.034 C 
HETATM    7  C   UNL     1      -7.627  -4.821  13.006  1.00  0.00     0.143 C 
HETATM    8  C   UNL     1      -4.953  -3.152  13.309  1.00  0.00     0.044 C 
HETATM    9  C   UNL     1      -1.695  -3.437  10.038  1.00  0.00     0.115 C 
HETATM   10  C   UNL     1      -3.167  -2.373  11.898  1.00  0.00     0.055 C 
HETATM   11  N   UNL     1      -3.763  -2.975  10.806  1.00  0.00    -0.273 N 
HETATM   12  C   UNL     1      -5.198  -3.250  10.857  1.00  0.00     0.282 C 
HETATM   13  C   UNL     1      -7.650  -4.527  14.500  1.00  0.00     0.200 C 
HETATM   14  N   UNL     1      -5.541  -3.747  12.197  1.00  0.00    -0.299 N 
HETATM   15  O   UNL     1      -7.291  -2.582  15.818  1.00  0.00    -0.290 OA
HETATM   16  C   UNL     1      -6.780  -3.355  14.942  1.00  0.00     0.180 C 
HETATM   17  C   UNL     1      -6.283  -4.892  12.303  1.00  0.00     0.228 C 
HETATM   18  C   UNL     1      -5.450  -3.306  14.618  1.00  0.00     0.082 C 
HETATM   19  S   UNL     1      -0.655  -4.736   9.534  1.00  0.00    -0.059 SA
ENDROOT
BRANCH  13  20
HETATM   20  O   UNL     1      -7.273  -5.652  15.269  1.00  0.00    -0.387 OA
ATOM     21  HO  UNL     1      -8.010  -6.031  15.734  1.00  0.00     0.210 HD
ENDBRANCH  13  20
TORSDOF 1
ENDMDL
MODEL 3
REMARK VINA RESULT:      -5.1     10.988     12.311
REMARK  1 active torsions:
REMARK  status: ('A' for Active; 'I' for Inactive)
REMARK    1  A    between atoms: C_13  and  O_15 
ROOT
HETATM    1  C   UNL     1       1.857  -7.729  21.936  1.00  0.00     0.061 C 
HETATM    2  C   UNL     1       4.958  -9.535  21.347  1.00  0.00     0.045 C 
HETATM    3  O   UNL     1      -0.727  -9.959  19.259  1.00  0.00    -0.273 OA
HETATM    4  N   UNL     1       3.463  -9.758  19.481  1.00  0.00    -0.286 N 
ATOM      5  HN  UNL     1       3.308 -10.135  18.546  1.00  0.00     0.188 HD
HETATM    6  C   UNL     1       4.159  -8.553  21.893  1.00  0.00     0.034 C 
HETATM    7  C   UNL     1      -1.942  -7.929  19.488  1.00  0.00     0.143 C 
HETATM    8  C   UNL     1       0.583  -7.827  21.397  1.00  0.00     0.044 C 
HETATM    9  C   UNL     1       4.359 -10.277  20.331  1.00  0.00     0.115 C 
HETATM   10  C   UNL     1       2.936  -8.316  21.271  1.00  0.00     0.055 C 
HETATM   11  N   UNL     1       2.787  -8.707  19.953  1.00  0.00    -0.273 N 
HETATM   12  C   UNL     1       1.640  -8.201  19.201  1.00  0.00     0.282 C 
HETATM   13  C   UNL     1      -2.582  -7.417  20.770  1.00  0.00     0.200 C 
HETATM   14  N   UNL     1       0.454  -8.219  20.067  1.00  0.00    -0.299 N 
HETATM   15  O   UNL     1      -2.022  -5.733  22.351  1.00  0.00    -0.290 OA
HETATM   16  C   UNL     1      -1.617  -6.793  21.773  1.00  0.00     0.180 C 
HETATM   17  C   UNL     1      -0.696  -8.791  19.596  1.00  0.00     0.228 C 
HETATM   18  C   UNL     1      -0.516  -7.483  22.208  1.00  0.00     0.082 C 
HETATM   19  S   UNL     1       4.661 -11.988  20.262  1.00  0.00    -0.059 SA
ENDROOT
BRANCH  13  20
HETATM   20  O   UNL     1      -3.304  -8.428  21.446  1.00  0.00    -0.387 OA
ATOM     21  HO  UNL     1      -3.794  -8.978  20.846  1.00  0.00     0.210 HD
ENDBRANCH  13  20
TORSDOF 1
ENDMDL
MODEL 4
REMARK VINA RESULT:      -5.0     10.657     11.859
REMARK  1 active torsions:
REMARK  status: ('A' for Active; 'I' for Inactive)
REMARK    1  A    between atoms: C_13  and  O_15 
ROOT
HETATM    1  C   UNL     1       2.091  -7.750  19.982  1.00  0.00     0.061 C 
HETATM    2  C   UNL     1       5.064  -5.708  20.445  1.00  0.00     0.045 C 
HETATM    3  O   UNL     1      -0.729  -5.329  22.219  1.00  0.00    -0.273 OA
HETATM    4  N   UNL     1       3.471  -5.321  22.200  1.00  0.00    -0.286 N 
ATOM      5  HN  UNL     1       3.252  -4.830  23.067  1.00  0.00     0.188 HD
HETATM    6  C   UNL     1       4.343  -6.798  20.006  1.00  0.00     0.034 C 
HETATM    7  C   UNL     1      -1.828  -7.437  22.221  1.00  0.00     0.143 C 
HETATM    8  C   UNL     1       0.789  -7.652  20.450  1.00  0.00     0.044 C 
HETATM    9  C   UNL     1       4.380  -4.871  21.325  1.00  0.00     0.115 C 
HETATM   10  C   UNL     1       3.105  -7.018  20.604  1.00  0.00     0.055 C 
HETATM   11  N   UNL     1       2.873  -6.462  21.849  1.00  0.00    -0.273 N 
HETATM   12  C   UNL     1       1.718  -6.927  22.616  1.00  0.00     0.282 C 
HETATM   13  C   UNL     1      -2.378  -8.153  20.995  1.00  0.00     0.200 C 
HETATM   14  N   UNL     1       0.576  -7.093  21.706  1.00  0.00    -0.299 N 
HETATM   15  O   UNL     1      -1.658  -9.999  19.684  1.00  0.00    -0.290 OA
HETATM   16  C   UNL     1      -1.335  -8.850  20.129  1.00  0.00     0.180 C 
HETATM   17  C   UNL     1      -0.623  -6.528  22.047  1.00  0.00     0.228 C 
HETATM   18  C   UNL     1      -0.250  -8.164  19.649  1.00  0.00     0.082 C 
HETATM   19  S   UNL     1       4.592  -3.152  21.171  1.00  0.00    -0.059 SA
ENDROOT
BRANCH  13  20
HETATM   20  O   UNL     1      -3.117  -7.285  20.159  1.00  0.00    -0.387 OA
ATOM     21  HO  UNL     1      -3.044  -7.523  19.242  1.00  0.00     0.210 HD
ENDBRANCH  13  20
TORSDOF 1
ENDMDL
MODEL 5
REMARK VINA RESULT:      -4.9     10.651     11.626
REMARK  1 active torsions:
REMARK  status: ('A' for Active; 'I' for Inactive)
REMARK    1  A    between atoms: C_13  and  O_15 
ROOT
HETATM    1  C   UNL     1      -0.631 -10.756  18.694  1.00  0.00     0.061 C 
HETATM    2  C   UNL     1      -2.534  -7.762  19.497  1.00  0.00     0.045 C 
HETATM    3  O   UNL     1       2.264 -10.584  21.920  1.00  0.00    -0.273 OA
HETATM    4  N   UNL     1      -0.310  -7.636  20.394  1.00  0.00    -0.286 N 
ATOM      5  HN  UNL     1       0.377  -7.086  20.908  1.00  0.00     0.188 HD
HETATM    6  C   UNL     1      -2.192  -8.874  18.756  1.00  0.00     0.034 C 
HETATM    7  C   UNL     1       3.394 -11.976  20.360  1.00  0.00     0.143 C 
HETATM    8  C   UNL     1       0.497 -11.342  19.249  1.00  0.00     0.044 C 
HETATM    9  C   UNL     1      -1.629  -7.430  20.503  1.00  0.00     0.115 C 
HETATM   10  C   UNL     1      -0.934  -9.424  18.988  1.00  0.00     0.055 C 
HETATM   11  N   UNL     1       0.035  -8.620  19.559  1.00  0.00    -0.273 N 
HETATM   12  C   UNL     1       1.425  -9.074  19.529  1.00  0.00     0.282 C 
HETATM   13  C   UNL     1       2.951 -13.367  19.926  1.00  0.00     0.200 C 
HETATM   14  N   UNL     1       1.463 -10.515  19.815  1.00  0.00    -0.299 N 
HETATM   15  O   UNL     1       1.915 -14.249  17.978  1.00  0.00    -0.290 OA
HETATM   16  C   UNL     1       1.807 -13.397  18.918  1.00  0.00     0.180 C 
HETATM   17  C   UNL     1       2.329 -10.973  20.770  1.00  0.00     0.228 C 
HETATM   18  C   UNL     1       0.631 -12.742  19.172  1.00  0.00     0.082 C 
HETATM   19  S   UNL     1      -2.251  -6.874  22.029  1.00  0.00    -0.059 SA
ENDROOT
BRANCH  13  20
HETATM   20  O   UNL     1       2.573 -14.172  21.025  1.00  0.00    -0.387 OA
ATOM     21  HO  UNL     1       2.901 -15.060  20.947  1.00  0.00     0.210 HD
ENDBRANCH  13  20
TORSDOF 1
ENDMDL
