MODEL 1
REMARK VINA RESULT:      -8.2      0.000      0.000
REMARK  4 active torsions:
REMARK  status: ('A' for Active; 'I' for Inactive)
REMARK    1  A    between atoms: O_1  and  C_10 
REMARK       I    between atoms: C_3  and  N_5 
REMARK    2  A    between atoms: C_3  and  C_18 
REMARK    3  A    between atoms: C_4  and  O_6 
REMARK    4  A    between atoms: C_10  and  C_11 
ROOT
HETATM    1  C   UNL     1      -3.727  -3.746  12.984  1.00  0.00     0.330 C 
HETATM    2  N   UNL     1      -4.949  -4.149  13.511  1.00  0.00    -0.276 N 
HETATM    3  C   UNL     1      -5.452  -5.380  13.909  1.00  0.00     0.230 C 
HETATM    4  C   UNL     1      -7.267  -3.779  13.959  1.00  0.00     0.110 C 
HETATM    5  C   UNL     1      -6.969  -5.280  13.846  1.00  0.00     0.148 C 
HETATM    6  O   UNL     1      -4.821  -6.322  14.338  1.00  0.00    -0.273 OA
HETATM    7  O   UNL     1      -3.553  -2.561  12.722  1.00  0.00    -0.261 OA
HETATM    8  C   UNL     1      -5.951  -3.113  13.662  1.00  0.00     0.179 C 
ENDROOT
BRANCH   4   9
HETATM    9  O   UNL     1      -8.208  -3.396  12.978  1.00  0.00    -0.383 OA
ATOM     10  HO  UNL     1      -7.879  -2.634  12.516  1.00  0.00     0.211 HD
ENDBRANCH   4   9
BRANCH   4  11
HETATM   11  C   UNL     1      -7.823  -3.463  15.318  1.00  0.00    -0.022 C 
HETATM   12  C   UNL     1      -7.241  -2.518  16.144  1.00  0.00     0.013 C 
HETATM   13  C   UNL     1      -7.824  -2.231  17.367  1.00  0.00     0.037 C 
HETATM   14  C   UNL     1      -8.905  -2.976  17.826  1.00  0.00     0.065 C 
HETATM   15  C   UNL     1      -9.455  -3.960  17.022  1.00  0.00     0.037 C 
HETATM   16  C   UNL     1      -8.976  -4.123  15.732  1.00  0.00     0.013 C 
BRANCH  14  17
HETATM   17  O   UNL     1      -9.625  -2.481  18.880  1.00  0.00    -0.361 OA
ATOM     18  HO  UNL     1      -9.174  -1.926  19.506  1.00  0.00     0.217 HD
ENDBRANCH  14  17
ENDBRANCH   4  11
BRANCH   1  19
HETATM   19  C   UNL     1      -2.972  -4.687  12.059  1.00  0.00     0.389 C 
HETATM   20  F   UNL     1      -1.746  -4.396  11.853  1.00  0.00    -0.153 F 
HETATM   21  O   UNL     1      -3.458  -5.737  11.600  1.00  0.00    -0.249 OA
ENDBRANCH   1  19
TORSDOF 4
ENDMDL
MODEL 2
REMARK VINA RESULT:      -8.1      2.057      3.139
REMARK  4 active torsions:
REMARK  status: ('A' for Active; 'I' for Inactive)
REMARK    1  A    between atoms: O_1  and  C_10 
REMARK       I    between atoms: C_3  and  N_5 
REMARK    2  A    between atoms: C_3  and  C_18 
REMARK    3  A    between atoms: C_4  and  O_6 
REMARK    4  A    between atoms: C_10  and  C_11 
ROOT
HETATM    1  C   UNL     1      -3.056  -3.102  10.473  1.00  0.00     0.330 C 
HETATM    2  N   UNL     1      -3.640  -3.715  11.577  1.00  0.00    -0.276 N 
HETATM    3  C   UNL     1      -3.195  -3.969  12.868  1.00  0.00     0.230 C 
HETATM    4  C   UNL     1      -5.305  -5.114  12.565  1.00  0.00     0.110 C 
HETATM    5  C   UNL     1      -4.018  -5.132  13.400  1.00  0.00     0.148 C 
HETATM    6  O   UNL     1      -2.391  -3.320  13.503  1.00  0.00    -0.273 OA
HETATM    7  O   UNL     1      -3.699  -3.011   9.434  1.00  0.00    -0.261 OA
HETATM    8  C   UNL     1      -4.971  -4.250  11.380  1.00  0.00     0.179 C 
ENDROOT
BRANCH   4   9
HETATM    9  O   UNL     1      -5.610  -6.417  12.114  1.00  0.00    -0.383 OA
ATOM     10  HO  UNL     1      -5.256  -6.532  11.240  1.00  0.00     0.211 HD
ENDBRANCH   4   9
BRANCH   4  11
HETATM   11  C   UNL     1      -6.451  -4.605  13.393  1.00  0.00    -0.022 C 
HETATM   12  C   UNL     1      -7.264  -3.573  12.960  1.00  0.00     0.013 C 
HETATM   13  C   UNL     1      -8.336  -3.176  13.741  1.00  0.00     0.037 C 
HETATM   14  C   UNL     1      -8.520  -3.712  15.011  1.00  0.00     0.065 C 
HETATM   15  C   UNL     1      -7.673  -4.707  15.469  1.00  0.00     0.037 C 
HETATM   16  C   UNL     1      -6.711  -5.220  14.614  1.00  0.00     0.013 C 
BRANCH  14  17
HETATM   17  O   UNL     1      -9.730  -3.519  15.620  1.00  0.00    -0.361 OA
ATOM     18  HO  UNL     1      -9.830  -2.760  16.184  1.00  0.00     0.217 HD
ENDBRANCH  14  17
ENDBRANCH   4  11
BRANCH   1  19
HETATM   19  C   UNL     1      -1.560  -3.248  10.248  1.00  0.00     0.389 C 
HETATM   20  F   UNL     1      -1.187  -4.336   9.694  1.00  0.00    -0.153 F 
HETATM   21  O   UNL     1      -0.738  -2.343  10.483  1.00  0.00    -0.249 OA
ENDBRANCH   1  19
TORSDOF 4
ENDMDL
MODEL 3
REMARK VINA RESULT:      -8.1      0.244      1.120
REMARK  4 active torsions:
REMARK  status: ('A' for Active; 'I' for Inactive)
REMARK    1  A    between atoms: O_1  and  C_10 
REMARK       I    between atoms: C_3  and  N_5 
REMARK    2  A    between atoms: C_3  and  C_18 
REMARK    3  A    between atoms: C_4  and  O_6 
REMARK    4  A    between atoms: C_10  and  C_11 
ROOT
HETATM    1  C   UNL     1      -3.760  -3.812  12.982  1.00  0.00     0.330 C 
HETATM    2  N   UNL     1      -4.987  -4.173  13.529  1.00  0.00    -0.276 N 
HETATM    3  C   UNL     1      -5.518  -5.383  13.955  1.00  0.00     0.230 C 
HETATM    4  C   UNL     1      -7.290  -3.736  13.992  1.00  0.00     0.110 C 
HETATM    5  C   UNL     1      -7.032  -5.246  13.905  1.00  0.00     0.148 C 
HETATM    6  O   UNL     1      -4.906  -6.333  14.396  1.00  0.00    -0.273 OA
HETATM    7  O   UNL     1      -3.559  -2.637  12.696  1.00  0.00    -0.261 OA
HETATM    8  C   UNL     1      -5.961  -3.110  13.670  1.00  0.00     0.179 C 
ENDROOT
BRANCH   4   9
HETATM    9  O   UNL     1      -8.232  -3.347  13.013  1.00  0.00    -0.383 OA
ATOM     10  HO  UNL     1      -8.950  -3.970  13.012  1.00  0.00     0.211 HD
ENDBRANCH   4   9
BRANCH   4  11
HETATM   11  C   UNL     1      -7.824  -3.380  15.350  1.00  0.00    -0.022 C 
HETATM   12  C   UNL     1      -9.038  -3.860  15.808  1.00  0.00     0.013 C 
HETATM   13  C   UNL     1      -9.459  -3.539  17.087  1.00  0.00     0.037 C 
HETATM   14  C   UNL     1      -8.739  -2.636  17.862  1.00  0.00     0.065 C 
HETATM   15  C   UNL     1      -7.550  -2.113  17.383  1.00  0.00     0.037 C 
HETATM   16  C   UNL     1      -7.049  -2.571  16.176  1.00  0.00     0.013 C 
BRANCH  14  17
HETATM   17  O   UNL     1      -9.017  -2.574  19.201  1.00  0.00    -0.361 OA
ATOM     18  HO  UNL     1      -8.366  -2.185  19.774  1.00  0.00     0.217 HD
ENDBRANCH  14  17
ENDBRANCH   4  11
BRANCH   1  19
HETATM   19  C   UNL     1      -3.039  -4.789  12.068  1.00  0.00     0.389 C 
HETATM   20  F   UNL     1      -1.819  -4.512  11.813  1.00  0.00    -0.153 F 
HETATM   21  O   UNL     1      -3.544  -5.852  11.662  1.00  0.00    -0.249 OA
ENDBRANCH   1  19
TORSDOF 4
ENDMDL
MODEL 4
REMARK VINA RESULT:      -8.0      2.870      6.372
REMARK  4 active torsions:
REMARK  status: ('A' for Active; 'I' for Inactive)
REMARK    1  A    between atoms: O_1  and  C_10 
REMARK       I    between atoms: C_3  and  N_5 
REMARK    2  A    between atoms: C_3  and  C_18 
REMARK    3  A    between atoms: C_4  and  O_6 
REMARK    4  A    between atoms: C_10  and  C_11 
ROOT
HETATM    1  C   UNL     1      -7.827  -3.382  15.572  1.00  0.00     0.330 C 
HETATM    2  N   UNL     1      -7.105  -3.851  14.480  1.00  0.00    -0.276 N 
HETATM    3  C   UNL     1      -7.477  -4.355  13.241  1.00  0.00     0.230 C 
HETATM    4  C   UNL     1      -5.091  -4.671  13.490  1.00  0.00     0.110 C 
HETATM    5  C   UNL     1      -6.319  -5.206  12.742  1.00  0.00     0.148 C 
HETATM    6  O   UNL     1      -8.478  -4.083  12.613  1.00  0.00    -0.273 OA
HETATM    7  O   UNL     1      -7.222  -2.984  16.560  1.00  0.00    -0.261 OA
HETATM    8  C   UNL     1      -5.664  -3.875  14.630  1.00  0.00     0.179 C 
ENDROOT
BRANCH   4   9
HETATM    9  O   UNL     1      -4.335  -5.744  14.013  1.00  0.00    -0.383 OA
ATOM     10  HO  UNL     1      -4.600  -6.547  13.579  1.00  0.00     0.211 HD
ENDBRANCH   4   9
BRANCH   4  11
HETATM   11  C   UNL     1      -4.224  -3.873  12.558  1.00  0.00    -0.022 C 
HETATM   12  C   UNL     1      -3.176  -4.448  11.861  1.00  0.00     0.013 C 
HETATM   13  C   UNL     1      -2.441  -3.676  10.978  1.00  0.00     0.037 C 
HETATM   14  C   UNL     1      -2.660  -2.305  10.887  1.00  0.00     0.065 C 
HETATM   15  C   UNL     1      -3.673  -1.719  11.625  1.00  0.00     0.037 C 
HETATM   16  C   UNL     1      -4.516  -2.525  12.373  1.00  0.00     0.013 C 
BRANCH  14  17
HETATM   17  O   UNL     1      -2.132  -1.641   9.813  1.00  0.00    -0.361 OA
ATOM     18  HO  UNL     1      -1.239  -1.845   9.558  1.00  0.00     0.217 HD
ENDBRANCH  14  17
ENDBRANCH   4  11
BRANCH   1  19
HETATM   19  C   UNL     1      -9.170  -4.014  15.900  1.00  0.00     0.389 C 
HETATM   20  F   UNL     1     -10.154  -3.206  15.999  1.00  0.00    -0.153 F 
HETATM   21  O   UNL     1      -9.352  -5.244  15.972  1.00  0.00    -0.249 OA
ENDBRANCH   1  19
TORSDOF 4
ENDMDL
MODEL 5
REMARK VINA RESULT:      -7.7      2.817      7.233
REMARK  4 active torsions:
REMARK  status: ('A' for Active; 'I' for Inactive)
REMARK    1  A    between atoms: O_1  and  C_10 
REMARK       I    between atoms: C_3  and  N_5 
REMARK    2  A    between atoms: C_3  and  C_18 
REMARK    3  A    between atoms: C_4  and  O_6 
REMARK    4  A    between atoms: C_10  and  C_11 
ROOT
HETATM    1  C   UNL     1      -6.494  -3.868  12.764  1.00  0.00     0.330 C 
HETATM    2  N   UNL     1      -5.140  -4.183  12.801  1.00  0.00    -0.276 N 
HETATM    3  C   UNL     1      -4.404  -5.131  13.498  1.00  0.00     0.230 C 
HETATM    4  C   UNL     1      -2.848  -3.651  12.383  1.00  0.00     0.110 C 
HETATM    5  C   UNL     1      -2.973  -4.622  13.565  1.00  0.00     0.148 C 
HETATM    6  O   UNL     1      -4.789  -6.216  13.882  1.00  0.00    -0.273 OA
HETATM    7  O   UNL     1      -6.875  -2.959  12.035  1.00  0.00    -0.261 OA
HETATM    8  C   UNL     1      -4.270  -3.355  11.990  1.00  0.00     0.179 C 
ENDROOT
BRANCH   4   9
HETATM    9  O   UNL     1      -2.227  -2.453  12.802  1.00  0.00    -0.383 OA
ATOM     10  HO  UNL     1      -1.380  -2.381  12.378  1.00  0.00     0.211 HD
ENDBRANCH   4   9
BRANCH   4  11
HETATM   11  C   UNL     1      -2.026  -4.270  11.289  1.00  0.00    -0.022 C 
HETATM   12  C   UNL     1      -1.131  -3.529  10.538  1.00  0.00     0.013 C 
HETATM   13  C   UNL     1      -0.362  -4.161   9.576  1.00  0.00     0.037 C 
HETATM   14  C   UNL     1      -0.577  -5.500   9.268  1.00  0.00     0.065 C 
HETATM   15  C   UNL     1      -1.511  -6.230   9.982  1.00  0.00     0.037 C 
HETATM   16  C   UNL     1      -2.151  -5.637  11.058  1.00  0.00     0.013 C 
BRANCH  14  17
HETATM   17  O   UNL     1       0.380  -6.153   8.539  1.00  0.00    -0.361 OA
ATOM     18  HO  UNL     1       0.751  -6.949   8.902  1.00  0.00     0.217 HD
ENDBRANCH  14  17
ENDBRANCH   4  11
BRANCH   1  19
HETATM   19  C   UNL     1      -7.325  -4.016  14.028  1.00  0.00     0.389 C 
HETATM   20  F   UNL     1      -7.168  -3.101  14.904  1.00  0.00    -0.153 F 
HETATM   21  O   UNL     1      -8.185  -4.902  14.186  1.00  0.00    -0.249 OA
ENDBRANCH   1  19
TORSDOF 4
ENDMDL
MODEL 6
REMARK VINA RESULT:      -7.4      2.830      7.034
REMARK  4 active torsions:
REMARK  status: ('A' for Active; 'I' for Inactive)
REMARK    1  A    between atoms: O_1  and  C_10 
REMARK       I    between atoms: C_3  and  N_5 
REMARK    2  A    between atoms: C_3  and  C_18 
REMARK    3  A    between atoms: C_4  and  O_6 
REMARK    4  A    between atoms: C_10  and  C_11 
ROOT
HETATM    1  C   UNL     1      -6.900  -4.638  13.760  1.00  0.00     0.330 C 
HETATM    2  N   UNL     1      -5.848  -3.935  13.182  1.00  0.00    -0.276 N 
HETATM    3  C   UNL     1      -4.998  -2.943  13.651  1.00  0.00     0.230 C 
HETATM    4  C   UNL     1      -4.616  -3.193  11.275  1.00  0.00     0.110 C 
HETATM    5  C   UNL     1      -4.471  -2.198  12.434  1.00  0.00     0.148 C 
HETATM    6  O   UNL     1      -4.642  -2.769  14.797  1.00  0.00    -0.273 OA
HETATM    7  O   UNL     1      -7.488  -5.483  13.095  1.00  0.00    -0.261 OA
HETATM    8  C   UNL     1      -5.565  -4.238  11.794  1.00  0.00     0.179 C 
ENDROOT
BRANCH   4   9
HETATM    9  O   UNL     1      -5.200  -2.555  10.157  1.00  0.00    -0.383 OA
ATOM     10  HO  UNL     1      -5.368  -3.205   9.485  1.00  0.00     0.211 HD
ENDBRANCH   4   9
BRANCH   4  11
HETATM   11  C   UNL     1      -3.269  -3.727  10.881  1.00  0.00    -0.022 C 
HETATM   12  C   UNL     1      -2.928  -5.057  11.060  1.00  0.00     0.013 C 
HETATM   13  C   UNL     1      -1.690  -5.506  10.634  1.00  0.00     0.037 C 
HETATM   14  C   UNL     1      -0.741  -4.610  10.154  1.00  0.00     0.065 C 
HETATM   15  C   UNL     1      -1.061  -3.270  10.025  1.00  0.00     0.037 C 
HETATM   16  C   UNL     1      -2.357  -2.858  10.290  1.00  0.00     0.013 C 
BRANCH  14  17
HETATM   17  O   UNL     1       0.337  -5.117   9.480  1.00  0.00    -0.361 OA
ATOM     18  HO  UNL     1       0.705  -5.940   9.782  1.00  0.00     0.217 HD
ENDBRANCH  14  17
ENDBRANCH   4  11
BRANCH   1  19
HETATM   19  C   UNL     1      -7.792  -3.939  14.773  1.00  0.00     0.389 C 
HETATM   20  F   UNL     1      -8.644  -3.120  14.289  1.00  0.00    -0.153 F 
HETATM   21  O   UNL     1      -7.787  -4.200  15.990  1.00  0.00    -0.249 OA
ENDBRANCH   1  19
TORSDOF 4
ENDMDL
MODEL 7
REMARK VINA RESULT:      -6.8      2.827      6.834
REMARK  4 active torsions:
REMARK  status: ('A' for Active; 'I' for Inactive)
REMARK    1  A    between atoms: O_1  and  C_10 
REMARK       I    between atoms: C_3  and  N_5 
REMARK    2  A    between atoms: C_3  and  C_18 
REMARK    3  A    between atoms: C_4  and  O_6 
REMARK    4  A    between atoms: C_10  and  C_11 
ROOT
HETATM    1  C   UNL     1      -6.595  -3.312  14.441  1.00  0.00     0.330 C 
HETATM    2  N   UNL     1      -5.806  -4.035  13.552  1.00  0.00    -0.276 N 
HETATM    3  C   UNL     1      -6.097  -4.802  12.433  1.00  0.00     0.230 C 
HETATM    4  C   UNL     1      -3.754  -5.102  12.955  1.00  0.00     0.110 C 
HETATM    5  C   UNL     1      -4.938  -5.769  12.244  1.00  0.00     0.148 C 
HETATM    6  O   UNL     1      -7.033  -4.661  11.674  1.00  0.00    -0.273 OA
HETATM    7  O   UNL     1      -6.055  -2.710  15.363  1.00  0.00    -0.261 OA
HETATM    8  C   UNL     1      -4.385  -4.053  13.830  1.00  0.00     0.179 C 
ENDROOT
BRANCH   4   9
HETATM    9  O   UNL     1      -3.086  -6.042  13.772  1.00  0.00    -0.383 OA
ATOM     10  HO  UNL     1      -2.425  -5.591  14.283  1.00  0.00     0.211 HD
ENDBRANCH   4   9
BRANCH   4  11
HETATM   11  C   UNL     1      -2.784  -4.558  11.946  1.00  0.00    -0.022 C 
HETATM   12  C   UNL     1      -2.451  -3.216  11.900  1.00  0.00     0.013 C 
HETATM   13  C   UNL     1      -1.514  -2.777  10.981  1.00  0.00     0.037 C 
HETATM   14  C   UNL     1      -1.007  -3.645  10.020  1.00  0.00     0.065 C 
HETATM   15  C   UNL     1      -1.380  -4.978  10.030  1.00  0.00     0.037 C 
HETATM   16  C   UNL     1      -2.183  -5.446  11.059  1.00  0.00     0.013 C 
BRANCH  14  17
HETATM   17  O   UNL     1       0.113  -3.260   9.334  1.00  0.00    -0.361 OA
ATOM     18  HO  UNL     1       0.959  -3.520   9.679  1.00  0.00     0.217 HD
ENDBRANCH  14  17
ENDBRANCH   4  11
BRANCH   1  19
HETATM   19  C   UNL     1      -7.984  -3.824  14.786  1.00  0.00     0.389 C 
HETATM   20  F   UNL     1      -8.952  -3.050  14.478  1.00  0.00    -0.153 F 
HETATM   21  O   UNL     1      -8.204  -4.961  15.244  1.00  0.00    -0.249 OA
ENDBRANCH   1  19
TORSDOF 4
ENDMDL
MODEL 8
REMARK VINA RESULT:      -6.7      1.580      2.113
REMARK  4 active torsions:
REMARK  status: ('A' for Active; 'I' for Inactive)
REMARK    1  A    between atoms: O_1  and  C_10 
REMARK       I    between atoms: C_3  and  N_5 
REMARK    2  A    between atoms: C_3  and  C_18 
REMARK    3  A    between atoms: C_4  and  O_6 
REMARK    4  A    between atoms: C_10  and  C_11 
ROOT
HETATM    1  C   UNL     1      -2.620  -3.652  12.563  1.00  0.00     0.330 C 
HETATM    2  N   UNL     1      -3.955  -4.043  12.597  1.00  0.00    -0.276 N 
HETATM    3  C   UNL     1      -4.631  -5.156  12.115  1.00  0.00     0.230 C 
HETATM    4  C   UNL     1      -6.275  -3.566  12.905  1.00  0.00     0.110 C 
HETATM    5  C   UNL     1      -6.088  -4.752  11.950  1.00  0.00     0.148 C 
HETATM    6  O   UNL     1      -4.183  -6.272  11.964  1.00  0.00    -0.273 OA
HETATM    7  O   UNL     1      -2.297  -2.592  13.086  1.00  0.00    -0.261 OA
HETATM    8  C   UNL     1      -4.876  -3.115  13.222  1.00  0.00     0.179 C 
ENDROOT
BRANCH   4   9
HETATM    9  O   UNL     1      -6.959  -2.517  12.249  1.00  0.00    -0.383 OA
ATOM     10  HO  UNL     1      -7.403  -2.869  11.486  1.00  0.00     0.211 HD
ENDBRANCH   4   9
BRANCH   4  11
HETATM   11  C   UNL     1      -7.071  -3.989  14.106  1.00  0.00    -0.022 C 
HETATM   12  C   UNL     1      -6.817  -5.176  14.770  1.00  0.00     0.013 C 
HETATM   13  C   UNL     1      -7.549  -5.494  15.902  1.00  0.00     0.037 C 
HETATM   14  C   UNL     1      -8.620  -4.700  16.296  1.00  0.00     0.065 C 
HETATM   15  C   UNL     1      -8.910  -3.539  15.600  1.00  0.00     0.037 C 
HETATM   16  C   UNL     1      -8.067  -3.138  14.576  1.00  0.00     0.013 C 
BRANCH  14  17
HETATM   17  O   UNL     1      -9.120  -4.876  17.558  1.00  0.00    -0.361 OA
ATOM     18  HO  UNL     1     -10.030  -5.137  17.644  1.00  0.00     0.217 HD
ENDBRANCH  14  17
ENDBRANCH   4  11
BRANCH   1  19
HETATM   19  C   UNL     1      -1.773  -4.013  11.354  1.00  0.00     0.389 C 
HETATM   20  F   UNL     1      -1.607  -5.262  11.146  1.00  0.00    -0.153 F 
HETATM   21  O   UNL     1      -1.341  -3.174  10.541  1.00  0.00    -0.249 OA
ENDBRANCH   1  19
TORSDOF 4
ENDMDL
MODEL 9
REMARK VINA RESULT:      -6.5      2.893      4.694
REMARK  4 active torsions:
REMARK  status: ('A' for Active; 'I' for Inactive)
REMARK    1  A    between atoms: O_1  and  C_10 
REMARK       I    between atoms: C_3  and  N_5 
REMARK    2  A    between atoms: C_3  and  C_18 
REMARK    3  A    between atoms: C_4  and  O_6 
REMARK    4  A    between atoms: C_10  and  C_11 
ROOT
HETATM    1  C   UNL     1      -1.478  -5.448   9.869  1.00  0.00     0.330 C 
HETATM    2  N   UNL     1      -2.250  -4.565  10.618  1.00  0.00    -0.276 N 
HETATM    3  C   UNL     1      -2.716  -3.278  10.385  1.00  0.00     0.230 C 
HETATM    4  C   UNL     1      -3.204  -3.845  12.686  1.00  0.00     0.110 C 
HETATM    5  C   UNL     1      -2.990  -2.653  11.744  1.00  0.00     0.148 C 
HETATM    6  O   UNL     1      -2.972  -2.778   9.310  1.00  0.00    -0.273 OA
HETATM    7  O   UNL     1      -1.215  -6.551  10.333  1.00  0.00    -0.261 OA
HETATM    8  C   UNL     1      -2.644  -5.021  11.935  1.00  0.00     0.179 C 
ENDROOT
BRANCH   4   9
HETATM    9  O   UNL     1      -2.464  -3.664  13.876  1.00  0.00    -0.383 OA
ATOM     10  HO  UNL     1      -2.419  -4.491  14.340  1.00  0.00     0.211 HD
ENDBRANCH   4   9
BRANCH   4  11
HETATM   11  C   UNL     1      -4.660  -3.974  13.033  1.00  0.00    -0.022 C 
HETATM   12  C   UNL     1      -5.604  -3.073  12.575  1.00  0.00     0.013 C 
HETATM   13  C   UNL     1      -6.939  -3.268  12.885  1.00  0.00     0.037 C 
HETATM   14  C   UNL     1      -7.320  -4.281  13.759  1.00  0.00     0.065 C 
HETATM   15  C   UNL     1      -6.369  -5.151  14.262  1.00  0.00     0.037 C 
HETATM   16  C   UNL     1      -5.062  -5.056  13.811  1.00  0.00     0.013 C 
BRANCH  14  17
HETATM   17  O   UNL     1      -8.645  -4.623  13.806  1.00  0.00    -0.361 OA
ATOM     18  HO  UNL     1      -9.245  -4.024  14.234  1.00  0.00     0.217 HD
ENDBRANCH  14  17
ENDBRANCH   4  11
BRANCH   1  19
HETATM   19  C   UNL     1      -0.386  -4.896   8.967  1.00  0.00     0.389 C 
HETATM   20  F   UNL     1       0.098  -3.766   9.311  1.00  0.00    -0.153 F 
HETATM   21  O   UNL     1       0.098  -5.526   8.008  1.00  0.00    -0.249 OA
ENDBRANCH   1  19
TORSDOF 4
ENDMDL
