MODEL 1
REMARK VINA RESULT:      -9.0      0.000      0.000
REMARK  1 active torsions:
REMARK  status: ('A' for Active; 'I' for Inactive)
REMARK    1  A    between atoms: C_15  and  C_17 
ROOT
HETATM    1  C   UNL     1      17.919  77.584   9.493  1.00  0.00    -0.015 C 
HETATM    2  C   UNL     1      17.980  77.621  11.924  1.00  0.00     0.012 C 
HETATM    3  C   UNL     1      17.901  75.818   7.744  1.00  0.00     0.009 C 
HETATM    4  C   UNL     1      19.296  77.975  12.138  1.00  0.00     0.001 C 
HETATM    5  C   UNL     1      15.187  77.433   9.529  1.00  0.00     0.010 C 
HETATM    6  C   UNL     1      19.841  79.039  10.020  1.00  0.00     0.001 C 
HETATM    7  C   UNL     1      17.268  76.767   8.571  1.00  0.00    -0.018 C 
HETATM    8  C   UNL     1      15.868  77.811  10.696  1.00  0.00     0.013 C 
HETATM    9  C   UNL     1      16.716  77.124   4.791  1.00  0.00     0.016 C 
HETATM   10  C   UNL     1      15.902  76.996   8.410  1.00  0.00    -0.028 C 
HETATM   11  C   UNL     1      18.999  78.388   9.149  1.00  0.00     0.013 C 
HETATM   12  C   UNL     1      16.274  76.291   5.980  1.00  0.00     0.027 C 
HETATM   13  C   UNL     1      15.379  77.004   7.002  1.00  0.00     0.079 C 
HETATM   14  C   UNL     1      20.083  78.765  11.344  1.00  0.00     0.000 C 
HETATM   15  C   UNL     1      15.215  78.471   6.585  1.00  0.00     0.033 C 
HETATM   16  C   UNL     1      17.372  75.527   6.527  1.00  0.00    -0.020 C 
HETATM   17  C   UNL     1      17.268  77.694  10.727  1.00  0.00    -0.025 C 
ENDROOT
BRANCH  13  18
HETATM   18  C   UNL     1      13.997  76.355   6.938  1.00  0.00     0.187 C 
HETATM   19  O   UNL     1      13.007  77.086   6.762  1.00  0.00    -0.647 OA
HETATM   20  O   UNL     1      13.906  75.131   7.183  1.00  0.00    -0.647 OA
ENDBRANCH  13  18
TORSDOF 1
ENDMDL
MODEL 2
REMARK VINA RESULT:      -8.5      1.434      2.948
REMARK  1 active torsions:
REMARK  status: ('A' for Active; 'I' for Inactive)
REMARK    1  A    between atoms: C_15  and  C_17 
ROOT
HETATM    1  C   UNL     1      17.498  77.662   9.714  1.00  0.00    -0.015 C 
HETATM    2  C   UNL     1      19.826  78.297  10.021  1.00  0.00     0.012 C 
HETATM    3  C   UNL     1      15.466  78.758   8.794  1.00  0.00     0.009 C 
HETATM    4  C   UNL     1      19.845  78.538  11.380  1.00  0.00     0.001 C 
HETATM    5  C   UNL     1      18.038  76.771   7.183  1.00  0.00     0.010 C 
HETATM    6  C   UNL     1      17.921  77.240  12.108  1.00  0.00     0.001 C 
HETATM    7  C   UNL     1      16.576  77.896   8.696  1.00  0.00    -0.018 C 
HETATM    8  C   UNL     1      19.101  77.003   8.070  1.00  0.00     0.013 C 
HETATM    9  C   UNL     1      13.130  76.369   7.978  1.00  0.00     0.016 C 
HETATM   10  C   UNL     1      16.736  77.133   7.540  1.00  0.00    -0.028 C 
HETATM   11  C   UNL     1      17.119  77.267  10.991  1.00  0.00     0.013 C 
HETATM   12  C   UNL     1      14.189  77.256   7.348  1.00  0.00     0.027 C 
HETATM   13  C   UNL     1      15.489  76.554   6.934  1.00  0.00     0.079 C 
HETATM   14  C   UNL     1      19.089  77.925  12.342  1.00  0.00     0.000 C 
HETATM   15  C   UNL     1      15.419  75.082   7.354  1.00  0.00     0.033 C 
HETATM   16  C   UNL     1      14.343  78.494   8.077  1.00  0.00    -0.020 C 
HETATM   17  C   UNL     1      18.832  77.645   9.291  1.00  0.00    -0.025 C 
ENDROOT
BRANCH  13  18
HETATM   18  C   UNL     1      15.568  76.589   5.408  1.00  0.00     0.187 C 
HETATM   19  O   UNL     1      15.495  77.690   4.836  1.00  0.00    -0.647 OA
HETATM   20  O   UNL     1      15.585  75.500   4.790  1.00  0.00    -0.647 OA
ENDBRANCH  13  18
TORSDOF 1
ENDMDL
MODEL 3
REMARK VINA RESULT:      -8.1      2.785      5.660
REMARK  1 active torsions:
REMARK  status: ('A' for Active; 'I' for Inactive)
REMARK    1  A    between atoms: C_15  and  C_17 
ROOT
HETATM    1  C   UNL     1      15.772  76.734   8.398  1.00  0.00    -0.015 C 
HETATM    2  C   UNL     1      14.817  74.851   7.190  1.00  0.00     0.012 C 
HETATM    3  C   UNL     1      16.940  77.042  10.570  1.00  0.00     0.009 C 
HETATM    4  C   UNL     1      13.472  75.064   7.412  1.00  0.00     0.001 C 
HETATM    5  C   UNL     1      18.218  76.268   7.264  1.00  0.00     0.010 C 
HETATM    6  C   UNL     1      13.457  77.442   7.921  1.00  0.00     0.001 C 
HETATM    7  C   UNL     1      16.922  76.884   9.169  1.00  0.00    -0.018 C 
HETATM    8  C   UNL     1      17.079  75.664   6.709  1.00  0.00     0.013 C 
HETATM    9  C   UNL     1      18.689  80.004  10.535  1.00  0.00     0.016 C 
HETATM   10  C   UNL     1      18.122  76.975   8.466  1.00  0.00    -0.028 C 
HETATM   11  C   UNL     1      14.709  77.627   8.458  1.00  0.00     0.013 C 
HETATM   12  C   UNL     1      18.886  78.509  10.364  1.00  0.00     0.027 C 
HETATM   13  C   UNL     1      19.097  78.022   8.924  1.00  0.00     0.079 C 
HETATM   14  C   UNL     1      12.838  76.265   7.574  1.00  0.00     0.000 C 
HETATM   15  C   UNL     1      18.968  79.215   7.969  1.00  0.00     0.033 C 
HETATM   16  C   UNL     1      17.938  77.757  11.153  1.00  0.00    -0.020 C 
HETATM   17  C   UNL     1      15.864  75.747   7.410  1.00  0.00    -0.025 C 
ENDROOT
BRANCH  13  18
HETATM   18  C   UNL     1      20.531  77.504   8.816  1.00  0.00     0.187 C 
HETATM   19  O   UNL     1      21.095  77.103   9.847  1.00  0.00    -0.647 OA
HETATM   20  O   UNL     1      21.119  77.615   7.716  1.00  0.00    -0.647 OA
ENDBRANCH  13  18
TORSDOF 1
ENDMDL
MODEL 4
REMARK VINA RESULT:      -8.0      3.000      6.472
REMARK  1 active torsions:
REMARK  status: ('A' for Active; 'I' for Inactive)
REMARK    1  A    between atoms: C_15  and  C_17 
ROOT
HETATM    1  C   UNL     1      14.765  77.450   4.765  1.00  0.00    -0.015 C 
HETATM    2  C   UNL     1      14.339  78.404   2.569  1.00  0.00     0.012 C 
HETATM    3  C   UNL     1      16.475  75.933   5.741  1.00  0.00     0.009 C 
HETATM    4  C   UNL     1      13.282  77.620   2.154  1.00  0.00     0.001 C 
HETATM    5  C   UNL     1      16.411  79.543   5.395  1.00  0.00     0.010 C 
HETATM    6  C   UNL     1      12.425  76.829   4.288  1.00  0.00     0.001 C 
HETATM    7  C   UNL     1      15.932  77.208   5.486  1.00  0.00    -0.018 C 
HETATM    8  C   UNL     1      15.548  79.657   4.293  1.00  0.00     0.013 C 
HETATM    9  C   UNL     1      16.512  76.277   9.163  1.00  0.00     0.016 C 
HETATM   10  C   UNL     1      16.534  78.324   6.067  1.00  0.00    -0.028 C 
HETATM   11  C   UNL     1      13.556  76.836   5.070  1.00  0.00     0.013 C 
HETATM   12  C   UNL     1      17.261  76.718   7.919  1.00  0.00     0.027 C 
HETATM   13  C   UNL     1      17.029  78.168   7.477  1.00  0.00     0.079 C 
HETATM   14  C   UNL     1      12.316  77.048   2.936  1.00  0.00     0.000 C 
HETATM   15  C   UNL     1      15.987  78.812   8.399  1.00  0.00     0.033 C 
HETATM   16  C   UNL     1      17.189  75.720   6.877  1.00  0.00    -0.020 C 
HETATM   17  C   UNL     1      14.856  78.514   3.860  1.00  0.00    -0.025 C 
ENDROOT
BRANCH  13  18
HETATM   18  C   UNL     1      18.341  78.928   7.672  1.00  0.00     0.187 C 
HETATM   19  O   UNL     1      19.375  78.463   7.166  1.00  0.00    -0.647 OA
HETATM   20  O   UNL     1      18.341  79.923   8.432  1.00  0.00    -0.647 OA
ENDBRANCH  13  18
TORSDOF 1
ENDMDL
MODEL 5
REMARK VINA RESULT:      -7.8      2.477      5.973
REMARK  1 active torsions:
REMARK  status: ('A' for Active; 'I' for Inactive)
REMARK    1  A    between atoms: C_15  and  C_17 
ROOT
HETATM    1  C   UNL     1      14.292  77.185   5.477  1.00  0.00    -0.015 C 
HETATM    2  C   UNL     1      11.930  76.893   4.974  1.00  0.00     0.012 C 
HETATM    3  C   UNL     1      15.744  79.091   6.138  1.00  0.00     0.009 C 
HETATM    4  C   UNL     1      11.975  76.798   3.599  1.00  0.00     0.001 C 
HETATM    5  C   UNL     1      13.815  76.760   8.139  1.00  0.00     0.010 C 
HETATM    6  C   UNL     1      14.283  76.113   3.255  1.00  0.00     0.001 C 
HETATM    7  C   UNL     1      14.975  77.945   6.424  1.00  0.00    -0.018 C 
HETATM    8  C   UNL     1      12.833  76.405   7.200  1.00  0.00     0.013 C 
HETATM    9  C   UNL     1      18.637  77.902   7.570  1.00  0.00     0.016 C 
HETATM   10  C   UNL     1      14.955  77.457   7.730  1.00  0.00    -0.028 C 
HETATM   11  C   UNL     1      14.911  76.666   4.347  1.00  0.00     0.013 C 
HETATM   12  C   UNL     1      17.286  78.489   7.938  1.00  0.00     0.027 C 
HETATM   13  C   UNL     1      16.252  77.496   8.486  1.00  0.00     0.079 C 
HETATM   14  C   UNL     1      12.986  76.282   2.834  1.00  0.00     0.000 C 
HETATM   15  C   UNL     1      16.846  76.083   8.447  1.00  0.00     0.033 C 
HETATM   16  C   UNL     1      16.811  79.399   6.922  1.00  0.00    -0.020 C 
HETATM   17  C   UNL     1      13.001  76.806   5.864  1.00  0.00    -0.025 C 
ENDROOT
BRANCH  13  18
HETATM   18  C   UNL     1      16.008  77.846   9.954  1.00  0.00     0.187 C 
HETATM   19  O   UNL     1      15.333  78.855  10.217  1.00  0.00    -0.647 OA
HETATM   20  O   UNL     1      16.595  77.171  10.830  1.00  0.00    -0.647 OA
ENDBRANCH  13  18
TORSDOF 1
ENDMDL
MODEL 6
REMARK VINA RESULT:      -7.8      2.413      3.837
REMARK  1 active torsions:
REMARK  status: ('A' for Active; 'I' for Inactive)
REMARK    1  A    between atoms: C_15  and  C_17 
ROOT
HETATM    1  C   UNL     1      16.362  77.675   7.582  1.00  0.00    -0.015 C 
HETATM    2  C   UNL     1      17.376  76.672   9.552  1.00  0.00     0.012 C 
HETATM    3  C   UNL     1      17.190  78.931   5.603  1.00  0.00     0.009 C 
HETATM    4  C   UNL     1      17.031  77.600  10.513  1.00  0.00     0.001 C 
HETATM    5  C   UNL     1      16.762  75.371   6.159  1.00  0.00     0.010 C 
HETATM    6  C   UNL     1      15.110  78.662   9.465  1.00  0.00     0.001 C 
HETATM    7  C   UNL     1      16.754  77.755   6.247  1.00  0.00    -0.018 C 
HETATM    8  C   UNL     1      16.866  75.340   7.559  1.00  0.00     0.013 C 
HETATM    9  C   UNL     1      14.848  78.803   3.086  1.00  0.00     0.016 C 
HETATM   10  C   UNL     1      16.604  76.591   5.495  1.00  0.00    -0.028 C 
HETATM   11  C   UNL     1      15.394  78.508   8.128  1.00  0.00     0.013 C 
HETATM   12  C   UNL     1      16.150  78.160   3.527  1.00  0.00     0.027 C 
HETATM   13  C   UNL     1      16.034  76.747   4.114  1.00  0.00     0.079 C 
HETATM   14  C   UNL     1      15.907  78.380  10.548  1.00  0.00     0.000 C 
HETATM   15  C   UNL     1      14.554  76.355   4.184  1.00  0.00     0.033 C 
HETATM   16  C   UNL     1      16.972  79.088   4.271  1.00  0.00    -0.020 C 
HETATM   17  C   UNL     1      16.857  76.556   8.262  1.00  0.00    -0.025 C 
ENDROOT
BRANCH  13  18
HETATM   18  C   UNL     1      16.715  75.785   3.140  1.00  0.00     0.187 C 
HETATM   19  O   UNL     1      17.948  75.848   3.011  1.00  0.00    -0.647 OA
HETATM   20  O   UNL     1      15.990  75.054   2.427  1.00  0.00    -0.647 OA
ENDBRANCH  13  18
TORSDOF 1
ENDMDL
MODEL 7
REMARK VINA RESULT:      -7.5      3.052      5.485
REMARK  1 active torsions:
REMARK  status: ('A' for Active; 'I' for Inactive)
REMARK    1  A    between atoms: C_15  and  C_17 
ROOT
HETATM    1  C   UNL     1      16.411  77.469   8.280  1.00  0.00    -0.015 C 
HETATM    2  C   UNL     1      14.115  77.214   9.042  1.00  0.00     0.012 C 
HETATM    3  C   UNL     1      17.825  79.361   7.507  1.00  0.00     0.009 C 
HETATM    4  C   UNL     1      13.540  76.646   7.924  1.00  0.00     0.001 C 
HETATM    5  C   UNL     1      17.232  78.032  10.830  1.00  0.00     0.010 C 
HETATM    6  C   UNL     1      15.494  75.698   6.828  1.00  0.00     0.001 C 
HETATM    7  C   UNL     1      17.377  78.452   8.486  1.00  0.00    -0.018 C 
HETATM    8  C   UNL     1      15.968  77.455  10.628  1.00  0.00     0.013 C 
HETATM    9  C   UNL     1      21.147  78.511   7.777  1.00  0.00     0.016 C 
HETATM   10  C   UNL     1      17.995  78.450   9.735  1.00  0.00    -0.028 C 
HETATM   11  C   UNL     1      16.494  76.543   7.248  1.00  0.00     0.013 C 
HETATM   12  C   UNL     1      20.063  79.296   8.492  1.00  0.00     0.027 C 
HETATM   13  C   UNL     1      19.485  78.642   9.753  1.00  0.00     0.079 C 
HETATM   14  C   UNL     1      14.137  75.816   7.013  1.00  0.00     0.000 C 
HETATM   15  C   UNL     1      20.121  77.260   9.937  1.00  0.00     0.033 C 
HETATM   16  C   UNL     1      19.098  79.834   7.560  1.00  0.00    -0.020 C 
HETATM   17  C   UNL     1      15.476  77.354   9.315  1.00  0.00    -0.025 C 
ENDROOT
BRANCH  13  18
HETATM   18  C   UNL     1      19.901  79.498  10.950  1.00  0.00     0.187 C 
HETATM   19  O   UNL     1      20.398  78.932  11.938  1.00  0.00    -0.647 OA
HETATM   20  O   UNL     1      19.616  80.717  10.934  1.00  0.00    -0.647 OA
ENDBRANCH  13  18
TORSDOF 1
ENDMDL
MODEL 8
REMARK VINA RESULT:      -7.4      2.870      6.596
REMARK  1 active torsions:
REMARK  status: ('A' for Active; 'I' for Inactive)
REMARK    1  A    between atoms: C_15  and  C_17 
ROOT
HETATM    1  C   UNL     1      13.531  76.853   5.434  1.00  0.00    -0.015 C 
HETATM    2  C   UNL     1      13.085  76.829   3.043  1.00  0.00     0.012 C 
HETATM    3  C   UNL     1      14.925  75.511   6.995  1.00  0.00     0.009 C 
HETATM    4  C   UNL     1      11.826  76.264   3.027  1.00  0.00     0.001 C 
HETATM    5  C   UNL     1      15.703  78.473   5.049  1.00  0.00     0.010 C 
HETATM    6  C   UNL     1      11.070  76.752   5.287  1.00  0.00     0.001 C 
HETATM    7  C   UNL     1      14.683  76.642   6.188  1.00  0.00    -0.018 C 
HETATM    8  C   UNL     1      14.766  78.325   4.014  1.00  0.00     0.013 C 
HETATM    9  C   UNL     1      15.464  77.290   9.889  1.00  0.00     0.016 C 
HETATM   10  C   UNL     1      15.605  77.687   6.201  1.00  0.00    -0.028 C 
HETATM   11  C   UNL     1      12.256  76.790   5.983  1.00  0.00     0.013 C 
HETATM   12  C   UNL     1      16.141  76.921   8.581  1.00  0.00     0.027 C 
HETATM   13  C   UNL     1      16.216  78.034   7.529  1.00  0.00     0.079 C 
HETATM   14  C   UNL     1      10.853  76.379   3.983  1.00  0.00     0.000 C 
HETATM   15  C   UNL     1      15.485  79.273   8.058  1.00  0.00     0.033 C 
HETATM   16  C   UNL     1      15.699  75.630   8.105  1.00  0.00    -0.020 C 
HETATM   17  C   UNL     1      13.767  77.345   4.145  1.00  0.00    -0.025 C 
ENDROOT
BRANCH  13  18
HETATM   18  C   UNL     1      17.688  78.412   7.360  1.00  0.00     0.187 C 
HETATM   19  O   UNL     1      18.487  77.533   6.999  1.00  0.00    -0.647 OA
HETATM   20  O   UNL     1      18.048  79.561   7.706  1.00  0.00    -0.647 OA
ENDBRANCH  13  18
TORSDOF 1
ENDMDL
MODEL 9
REMARK VINA RESULT:      -7.3      2.825      6.035
REMARK  1 active torsions:
REMARK  status: ('A' for Active; 'I' for Inactive)
REMARK    1  A    between atoms: C_15  and  C_17 
ROOT
HETATM    1  C   UNL     1      13.563  75.535   7.010  1.00  0.00    -0.015 C 
HETATM    2  C   UNL     1      12.684  73.302   7.408  1.00  0.00     0.012 C 
HETATM    3  C   UNL     1      14.148  77.491   8.428  1.00  0.00     0.009 C 
HETATM    4  C   UNL     1      11.378  73.468   6.996  1.00  0.00     0.001 C 
HETATM    5  C   UNL     1      16.120  74.632   7.379  1.00  0.00     0.010 C 
HETATM    6  C   UNL     1      11.595  75.395   5.529  1.00  0.00     0.001 C 
HETATM    7  C   UNL     1      14.476  76.332   7.696  1.00  0.00    -0.018 C 
HETATM    8  C   UNL     1      15.090  73.704   7.166  1.00  0.00     0.013 C 
HETATM    9  C   UNL     1      16.278  79.573   6.707  1.00  0.00     0.016 C 
HETATM   10  C   UNL     1      15.819  75.987   7.550  1.00  0.00    -0.028 C 
HETATM   11  C   UNL     1      12.674  76.050   6.076  1.00  0.00     0.013 C 
HETATM   12  C   UNL     1      16.281  78.492   7.773  1.00  0.00     0.027 C 
HETATM   13  C   UNL     1      16.788  77.114   7.328  1.00  0.00     0.079 C 
HETATM   14  C   UNL     1      10.916  74.305   6.017  1.00  0.00     0.000 C 
HETATM   15  C   UNL     1      17.102  77.157   5.828  1.00  0.00     0.033 C 
HETATM   16  C   UNL     1      15.053  78.499   8.535  1.00  0.00    -0.020 C 
HETATM   17  C   UNL     1      13.760  74.159   7.176  1.00  0.00    -0.025 C 
ENDROOT
BRANCH  13  18
HETATM   18  C   UNL     1      18.102  76.845   8.061  1.00  0.00     0.187 C 
HETATM   19  O   UNL     1      18.080  76.751   9.300  1.00  0.00    -0.647 OA
HETATM   20  O   UNL     1      19.162  76.848   7.396  1.00  0.00    -0.647 OA
ENDBRANCH  13  18
TORSDOF 1
ENDMDL
