MODEL 1
REMARK VINA RESULT:     -12.7      0.000      0.000
REMARK  7 active torsions:
REMARK  status: ('A' for Active; 'I' for Inactive)
REMARK    1  A    between atoms: C_3  and  C_29 
REMARK    2  A    between atoms: C_5  and  N_12 
REMARK    3  A    between atoms: C_6  and  C_31 
REMARK    4  A    between atoms: C_19  and  C_22 
REMARK    5  A    between atoms: C_22  and  C_24 
REMARK    6  A    between atoms: C_24  and  C_30 
REMARK    7  A    between atoms: C_25  and  C_30 
ROOT
HETATM    1  C   UNL     1     -14.512   5.606  -5.470  1.00  0.00    -0.036 A 
HETATM    2  C   UNL     1     -13.311   5.866  -4.566  1.00  0.00     0.080 A 
HETATM    3  C   UNL     1     -14.645   6.471  -4.578  1.00  0.00    -0.036 A 
HETATM    4  C   UNL     1     -16.675   7.437  -5.635  1.00  0.00     0.013 C 
HETATM    5  C   UNL     1     -15.652   5.358  -6.383  1.00  0.00    -0.025 C 
HETATM    6  C   UNL     1     -15.904   7.297  -4.458  1.00  0.00    -0.027 C 
HETATM    7  C   UNL     1     -16.525   6.441  -6.654  1.00  0.00     0.013 C 
ENDROOT
BRANCH   6   8
HETATM    8  C   UNL     1     -16.316   7.807  -3.100  1.00  0.00    -0.068 C 
HETATM    9  C   UNL     1     -16.343   9.319  -2.926  1.00  0.00     0.036 C 
HETATM   10  C   UNL     1     -17.026   9.558  -1.578  1.00  0.00     0.014 C 
HETATM   11  C   UNL     1     -17.162   8.204  -0.835  1.00  0.00     0.023 C 
HETATM   12  C   UNL     1     -16.305   7.217  -1.679  1.00  0.00     0.044 C 
BRANCH  11  13
HETATM   13  C   UNL     1     -16.859   8.524   0.634  1.00  0.00    -0.052 C 
HETATM   14  C   UNL     1     -16.271   7.648   1.536  1.00  0.00     0.036 C 
HETATM   15  C   UNL     1     -15.707   8.166   2.709  1.00  0.00     0.026 C 
HETATM   16  C   UNL     1     -16.262   9.325   3.244  1.00  0.00     0.029 C 
HETATM   17  C   UNL     1     -16.841  10.219   2.364  1.00  0.00     0.003 C 
HETATM   18  C   UNL     1     -17.172   9.814   1.082  1.00  0.00     0.007 C 
BRANCH  15  19
HETATM   19  N   UNL     1     -14.544   7.679   3.243  1.00  0.00    -0.399 N 
ATOM     20  HN2 UNL     1     -13.750   8.279   3.466  1.00  0.00     0.156 HD
ATOM     21  HN1 UNL     1     -14.510   6.707   3.549  1.00  0.00     0.156 HD
ENDBRANCH  15  19
ENDBRANCH  11  13
ENDBRANCH   6   8
BRANCH   5  22
HETATM   22  C   UNL     1     -15.922   3.991  -6.883  1.00  0.00     0.071 C 
BRANCH  22  23
HETATM   23  C   UNL     1     -15.202   2.795  -6.357  1.00  0.00     0.223 C 
HETATM   24  O   UNL     1     -15.564   2.269  -5.328  1.00  0.00    -0.284 OA
BRANCH  23  25
HETATM   25  C   UNL     1     -14.002   2.235  -7.122  1.00  0.00     0.231 C 
HETATM   26  O   UNL     1     -14.165   1.970  -8.293  1.00  0.00    -0.283 OA
BRANCH  25  27
HETATM   27  C   UNL     1     -12.659   2.048  -6.451  1.00  0.00     0.018 C 
HETATM   28  C   UNL     1     -11.710   3.086  -6.538  1.00  0.00     0.015 C 
HETATM   29  C   UNL     1     -10.375   2.734  -6.760  1.00  0.00     0.001 C 
HETATM   30  C   UNL     1      -9.979   1.409  -6.577  1.00  0.00     0.000 C 
HETATM   31  C   UNL     1     -10.881   0.493  -6.046  1.00  0.00     0.001 C 
HETATM   32  C   UNL     1     -12.232   0.832  -5.926  1.00  0.00     0.015 C 
ENDBRANCH  25  27
ENDBRANCH  23  25
ENDBRANCH  22  23
ENDBRANCH   5  22
TORSDOF 7
ENDMDL
MODEL 2
REMARK VINA RESULT:     -12.5      1.041      1.614
REMARK  7 active torsions:
REMARK  status: ('A' for Active; 'I' for Inactive)
REMARK    1  A    between atoms: C_3  and  C_29 
REMARK    2  A    between atoms: C_5  and  N_12 
REMARK    3  A    between atoms: C_6  and  C_31 
REMARK    4  A    between atoms: C_19  and  C_22 
REMARK    5  A    between atoms: C_22  and  C_24 
REMARK    6  A    between atoms: C_24  and  C_30 
REMARK    7  A    between atoms: C_25  and  C_30 
ROOT
HETATM    1  C   UNL     1     -14.900   5.788  -5.574  1.00  0.00    -0.036 A 
HETATM    2  C   UNL     1     -13.840   5.466  -4.525  1.00  0.00     0.080 A 
HETATM    3  C   UNL     1     -14.881   6.498  -4.546  1.00  0.00    -0.036 A 
HETATM    4  C   UNL     1     -16.286   8.267  -5.580  1.00  0.00     0.013 C 
HETATM    5  C   UNL     1     -15.898   6.101  -6.624  1.00  0.00    -0.025 C 
HETATM    6  C   UNL     1     -15.801   7.685  -4.386  1.00  0.00    -0.027 C 
HETATM    7  C   UNL     1     -16.311   7.450  -6.757  1.00  0.00     0.013 C 
ENDROOT
BRANCH   6   8
HETATM    8  C   UNL     1     -16.233   8.093  -3.000  1.00  0.00    -0.068 C 
HETATM    9  C   UNL     1     -16.341   9.589  -2.739  1.00  0.00     0.036 C 
HETATM   10  C   UNL     1     -17.027   9.713  -1.378  1.00  0.00     0.014 C 
HETATM   11  C   UNL     1     -17.086   8.314  -0.714  1.00  0.00     0.023 C 
HETATM   12  C   UNL     1     -16.182   7.425  -1.615  1.00  0.00     0.044 C 
BRANCH  11  13
HETATM   13  C   UNL     1     -16.794   8.565   0.770  1.00  0.00    -0.052 C 
HETATM   14  C   UNL     1     -16.181   7.661   1.627  1.00  0.00     0.036 C 
HETATM   15  C   UNL     1     -15.632   8.133   2.826  1.00  0.00     0.026 C 
HETATM   16  C   UNL     1     -16.220   9.246   3.419  1.00  0.00     0.029 C 
HETATM   17  C   UNL     1     -16.825  10.168   2.587  1.00  0.00     0.003 C 
HETATM   18  C   UNL     1     -17.144   9.820   1.285  1.00  0.00     0.007 C 
BRANCH  15  19
HETATM   19  N   UNL     1     -14.456   7.653   3.336  1.00  0.00    -0.399 N 
ATOM     20  HN2 UNL     1     -14.408   7.149   4.222  1.00  0.00     0.156 HD
ATOM     21  HN1 UNL     1     -13.616   7.684   2.758  1.00  0.00     0.156 HD
ENDBRANCH  15  19
ENDBRANCH  11  13
ENDBRANCH   6   8
BRANCH   5  22
HETATM   22  C   UNL     1     -16.520   5.010  -7.409  1.00  0.00     0.071 C 
BRANCH  22  23
HETATM   23  C   UNL     1     -16.643   3.621  -6.880  1.00  0.00     0.223 C 
HETATM   24  O   UNL     1     -17.314   3.400  -5.896  1.00  0.00    -0.284 OA
BRANCH  23  25
HETATM   25  C   UNL     1     -15.918   2.473  -7.584  1.00  0.00     0.231 C 
HETATM   26  O   UNL     1     -16.603   1.593  -8.059  1.00  0.00    -0.283 OA
BRANCH  25  27
HETATM   27  C   UNL     1     -14.411   2.454  -7.711  1.00  0.00     0.018 C 
HETATM   28  C   UNL     1     -13.688   1.461  -7.020  1.00  0.00     0.015 C 
HETATM   29  C   UNL     1     -12.497   1.837  -6.393  1.00  0.00     0.001 C 
HETATM   30  C   UNL     1     -11.910   3.060  -6.720  1.00  0.00     0.000 C 
HETATM   31  C   UNL     1     -12.441   3.818  -7.758  1.00  0.00     0.001 C 
HETATM   32  C   UNL     1     -13.683   3.480  -8.304  1.00  0.00     0.015 C 
ENDBRANCH  25  27
ENDBRANCH  23  25
ENDBRANCH  22  23
ENDBRANCH   5  22
TORSDOF 7
ENDMDL
MODEL 3
REMARK VINA RESULT:     -12.4      1.113      1.642
REMARK  7 active torsions:
REMARK  status: ('A' for Active; 'I' for Inactive)
REMARK    1  A    between atoms: C_3  and  C_29 
REMARK    2  A    between atoms: C_5  and  N_12 
REMARK    3  A    between atoms: C_6  and  C_31 
REMARK    4  A    between atoms: C_19  and  C_22 
REMARK    5  A    between atoms: C_22  and  C_24 
REMARK    6  A    between atoms: C_24  and  C_30 
REMARK    7  A    between atoms: C_25  and  C_30 
ROOT
HETATM    1  C   UNL     1     -14.355   6.738  -5.950  1.00  0.00    -0.036 A 
HETATM    2  C   UNL     1     -14.421   8.256  -6.094  1.00  0.00     0.080 A 
HETATM    3  C   UNL     1     -15.116   7.353  -5.172  1.00  0.00    -0.036 A 
HETATM    4  C   UNL     1     -16.340   5.289  -4.528  1.00  0.00     0.013 C 
HETATM    5  C   UNL     1     -14.298   5.261  -5.854  1.00  0.00    -0.025 C 
HETATM    6  C   UNL     1     -16.008   6.622  -4.195  1.00  0.00    -0.027 C 
HETATM    7  C   UNL     1     -15.463   4.585  -5.416  1.00  0.00     0.013 C 
ENDROOT
BRANCH   6   8
HETATM    8  C   UNL     1     -16.381   7.299  -2.900  1.00  0.00    -0.068 C 
HETATM    9  C   UNL     1     -16.267   8.817  -2.874  1.00  0.00     0.036 C 
HETATM   10  C   UNL     1     -16.935   9.250  -1.568  1.00  0.00     0.014 C 
HETATM   11  C   UNL     1     -17.204   7.994  -0.700  1.00  0.00     0.023 C 
HETATM   12  C   UNL     1     -16.437   6.854  -1.429  1.00  0.00     0.044 C 
BRANCH  11  13
HETATM   13  C   UNL     1     -16.885   8.427   0.736  1.00  0.00    -0.052 C 
HETATM   14  C   UNL     1     -16.291   7.622   1.699  1.00  0.00     0.036 C 
HETATM   15  C   UNL     1     -15.712   8.228   2.821  1.00  0.00     0.026 C 
HETATM   16  C   UNL     1     -16.257   9.429   3.268  1.00  0.00     0.029 C 
HETATM   17  C   UNL     1     -16.842  10.253   2.327  1.00  0.00     0.003 C 
HETATM   18  C   UNL     1     -17.189   9.749   1.084  1.00  0.00     0.007 C 
BRANCH  15  19
HETATM   19  N   UNL     1     -14.546   7.780   3.380  1.00  0.00    -0.399 N 
ATOM     20  HN2 UNL     1     -14.324   6.788   3.465  1.00  0.00     0.156 HD
ATOM     21  HN1 UNL     1     -13.815   8.454   3.606  1.00  0.00     0.156 HD
ENDBRANCH  15  19
ENDBRANCH  11  13
ENDBRANCH   6   8
BRANCH   5  22
HETATM   22  C   UNL     1     -13.021   4.548  -6.090  1.00  0.00     0.071 C 
BRANCH  22  23
HETATM   23  C   UNL     1     -12.871   3.520  -7.160  1.00  0.00     0.223 C 
HETATM   24  O   UNL     1     -12.696   3.857  -8.310  1.00  0.00    -0.284 OA
BRANCH  23  25
HETATM   25  C   UNL     1     -12.941   2.035  -6.801  1.00  0.00     0.231 C 
HETATM   26  O   UNL     1     -13.960   1.443  -7.083  1.00  0.00    -0.283 OA
BRANCH  25  27
HETATM   27  C   UNL     1     -11.773   1.327  -6.150  1.00  0.00     0.018 C 
HETATM   28  C   UNL     1     -10.487   1.890  -6.276  1.00  0.00     0.015 C 
HETATM   29  C   UNL     1      -9.415   1.024  -6.513  1.00  0.00     0.001 C 
HETATM   30  C   UNL     1      -9.587  -0.345  -6.309  1.00  0.00     0.000 C 
HETATM   31  C   UNL     1     -10.769  -0.810  -5.743  1.00  0.00     0.001 C 
HETATM   32  C   UNL     1     -11.863   0.050  -5.607  1.00  0.00     0.015 C 
ENDBRANCH  25  27
ENDBRANCH  23  25
ENDBRANCH  22  23
ENDBRANCH   5  22
TORSDOF 7
ENDMDL
MODEL 4
REMARK VINA RESULT:     -12.3      1.338      2.062
REMARK  7 active torsions:
REMARK  status: ('A' for Active; 'I' for Inactive)
REMARK    1  A    between atoms: C_3  and  C_29 
REMARK    2  A    between atoms: C_5  and  N_12 
REMARK    3  A    between atoms: C_6  and  C_31 
REMARK    4  A    between atoms: C_19  and  C_22 
REMARK    5  A    between atoms: C_22  and  C_24 
REMARK    6  A    between atoms: C_24  and  C_30 
REMARK    7  A    between atoms: C_25  and  C_30 
ROOT
HETATM    1  C   UNL     1     -16.521   6.913  -6.579  1.00  0.00    -0.036 A 
HETATM    2  C   UNL     1     -15.995   8.341  -6.473  1.00  0.00     0.080 A 
HETATM    3  C   UNL     1     -16.605   7.471  -5.464  1.00  0.00    -0.036 A 
HETATM    4  C   UNL     1     -18.241   5.809  -4.608  1.00  0.00     0.013 C 
HETATM    5  C   UNL     1     -17.054   5.537  -6.717  1.00  0.00    -0.025 C 
HETATM    6  C   UNL     1     -17.285   6.801  -4.293  1.00  0.00    -0.027 C 
HETATM    7  C   UNL     1     -18.139   5.167  -5.885  1.00  0.00     0.013 C 
ENDROOT
BRANCH   6   8
HETATM    8  C   UNL     1     -16.829   7.136  -2.895  1.00  0.00    -0.068 C 
HETATM    9  C   UNL     1     -16.642   5.961  -1.945  1.00  0.00     0.036 C 
HETATM   10  C   UNL     1     -15.947   6.543  -0.714  1.00  0.00     0.014 C 
HETATM   11  C   UNL     1     -15.960   8.090  -0.812  1.00  0.00     0.023 C 
HETATM   12  C   UNL     1     -16.912   8.389  -2.006  1.00  0.00     0.044 C 
BRANCH  11  13
HETATM   13  C   UNL     1     -16.235   8.577   0.615  1.00  0.00    -0.052 C 
HETATM   14  C   UNL     1     -15.840   7.920   1.773  1.00  0.00     0.036 C 
HETATM   15  C   UNL     1     -15.809   8.634   2.977  1.00  0.00     0.026 C 
HETATM   16  C   UNL     1     -16.711   9.682   3.138  1.00  0.00     0.029 C 
HETATM   17  C   UNL     1     -17.110  10.361   2.002  1.00  0.00     0.003 C 
HETATM   18  C   UNL     1     -16.908   9.798   0.753  1.00  0.00     0.007 C 
BRANCH  15  19
HETATM   19  N   UNL     1     -14.829   8.453   3.915  1.00  0.00    -0.399 N 
ATOM     20  HN2 UNL     1     -14.454   9.221   4.472  1.00  0.00     0.156 HD
ATOM     21  HN1 UNL     1     -14.550   7.503   4.161  1.00  0.00     0.156 HD
ENDBRANCH  15  19
ENDBRANCH  11  13
ENDBRANCH   6   8
BRANCH   5  22
HETATM   22  C   UNL     1     -16.382   4.564  -7.608  1.00  0.00     0.071 C 
BRANCH  22  23
HETATM   23  C   UNL     1     -15.991   3.201  -7.145  1.00  0.00     0.223 C 
HETATM   24  O   UNL     1     -16.617   2.230  -7.510  1.00  0.00    -0.284 OA
BRANCH  23  25
HETATM   25  C   UNL     1     -14.796   3.032  -6.206  1.00  0.00     0.231 C 
HETATM   26  O   UNL     1     -14.973   3.279  -5.033  1.00  0.00    -0.283 OA
BRANCH  25  27
HETATM   27  C   UNL     1     -13.457   2.546  -6.715  1.00  0.00     0.018 C 
HETATM   28  C   UNL     1     -13.099   1.201  -6.496  1.00  0.00     0.015 C 
HETATM   29  C   UNL     1     -11.779   0.929  -6.124  1.00  0.00     0.001 C 
HETATM   30  C   UNL     1     -10.807   1.917  -6.284  1.00  0.00     0.000 C 
HETATM   31  C   UNL     1     -11.136   3.101  -6.936  1.00  0.00     0.001 C 
HETATM   32  C   UNL     1     -12.475   3.398  -7.209  1.00  0.00     0.015 C 
ENDBRANCH  25  27
ENDBRANCH  23  25
ENDBRANCH  22  23
ENDBRANCH   5  22
TORSDOF 7
ENDMDL
MODEL 5
REMARK VINA RESULT:     -12.2      2.035      3.428
REMARK  7 active torsions:
REMARK  status: ('A' for Active; 'I' for Inactive)
REMARK    1  A    between atoms: C_3  and  C_29 
REMARK    2  A    between atoms: C_5  and  N_12 
REMARK    3  A    between atoms: C_6  and  C_31 
REMARK    4  A    between atoms: C_19  and  C_22 
REMARK    5  A    between atoms: C_22  and  C_24 
REMARK    6  A    between atoms: C_24  and  C_30 
REMARK    7  A    between atoms: C_25  and  C_30 
ROOT
HETATM    1  C   UNL     1     -14.331   6.076  -5.615  1.00  0.00    -0.036 A 
HETATM    2  C   UNL     1     -13.199   6.077  -4.592  1.00  0.00     0.080 A 
HETATM    3  C   UNL     1     -14.460   6.823  -4.622  1.00  0.00    -0.036 A 
HETATM    4  C   UNL     1     -16.278   8.142  -5.685  1.00  0.00     0.013 C 
HETATM    5  C   UNL     1     -15.400   6.081  -6.641  1.00  0.00    -0.025 C 
HETATM    6  C   UNL     1     -15.638   7.760  -4.484  1.00  0.00    -0.027 C 
HETATM    7  C   UNL     1     -16.132   7.281  -6.821  1.00  0.00     0.013 C 
ENDROOT
BRANCH   6   8
HETATM    8  C   UNL     1     -16.122   8.125  -3.103  1.00  0.00    -0.068 C 
HETATM    9  C   UNL     1     -16.356   9.606  -2.839  1.00  0.00     0.036 C 
HETATM   10  C   UNL     1     -17.071   9.668  -1.489  1.00  0.00     0.014 C 
HETATM   11  C   UNL     1     -17.025   8.265  -0.830  1.00  0.00     0.023 C 
HETATM   12  C   UNL     1     -16.037   7.458  -1.719  1.00  0.00     0.044 C 
BRANCH  11  13
HETATM   13  C   UNL     1     -16.776   8.534   0.659  1.00  0.00    -0.052 C 
HETATM   14  C   UNL     1     -16.183   7.642   1.543  1.00  0.00     0.036 C 
HETATM   15  C   UNL     1     -15.671   8.129   2.752  1.00  0.00     0.026 C 
HETATM   16  C   UNL     1     -16.281   9.245   3.316  1.00  0.00     0.029 C 
HETATM   17  C   UNL     1     -16.867  10.155   2.458  1.00  0.00     0.003 C 
HETATM   18  C   UNL     1     -17.147   9.792   1.150  1.00  0.00     0.007 C 
BRANCH  15  19
HETATM   19  N   UNL     1     -14.508   7.661   3.300  1.00  0.00    -0.399 N 
ATOM     20  HN2 UNL     1     -14.112   6.752   3.056  1.00  0.00     0.156 HD
ATOM     21  HN1 UNL     1     -13.946   8.287   3.877  1.00  0.00     0.156 HD
ENDBRANCH  15  19
ENDBRANCH  11  13
ENDBRANCH   6   8
BRANCH   5  22
HETATM   22  C   UNL     1     -15.757   4.832  -7.351  1.00  0.00     0.071 C 
BRANCH  22  23
HETATM   23  C   UNL     1     -15.064   3.539  -7.081  1.00  0.00     0.223 C 
HETATM   24  O   UNL     1     -14.139   3.185  -7.778  1.00  0.00    -0.284 OA
BRANCH  23  25
HETATM   25  C   UNL     1     -15.526   2.659  -5.918  1.00  0.00     0.231 C 
HETATM   26  O   UNL     1     -14.939   1.613  -5.748  1.00  0.00    -0.283 OA
BRANCH  25  27
HETATM   27  C   UNL     1     -16.648   3.092  -5.001  1.00  0.00     0.018 C 
HETATM   28  C   UNL     1     -17.978   2.879  -5.413  1.00  0.00     0.015 C 
HETATM   29  C   UNL     1     -18.908   3.893  -5.167  1.00  0.00     0.001 C 
HETATM   30  C   UNL     1     -18.586   4.913  -4.271  1.00  0.00     0.000 C 
HETATM   31  C   UNL     1     -17.408   4.830  -3.537  1.00  0.00     0.001 C 
HETATM   32  C   UNL     1     -16.446   3.871  -3.866  1.00  0.00     0.015 C 
ENDBRANCH  25  27
ENDBRANCH  23  25
ENDBRANCH  22  23
ENDBRANCH   5  22
TORSDOF 7
ENDMDL
MODEL 6
REMARK VINA RESULT:     -12.2      3.136      9.423
REMARK  7 active torsions:
REMARK  status: ('A' for Active; 'I' for Inactive)
REMARK    1  A    between atoms: C_3  and  C_29 
REMARK    2  A    between atoms: C_5  and  N_12 
REMARK    3  A    between atoms: C_6  and  C_31 
REMARK    4  A    between atoms: C_19  and  C_22 
REMARK    5  A    between atoms: C_22  and  C_24 
REMARK    6  A    between atoms: C_24  and  C_30 
REMARK    7  A    between atoms: C_25  and  C_30 
ROOT
HETATM    1  C   UNL     1     -17.076   6.757  -5.694  1.00  0.00    -0.036 A 
HETATM    2  C   UNL     1     -17.604   5.813  -6.770  1.00  0.00     0.080 A 
HETATM    3  C   UNL     1     -16.231   6.127  -6.366  1.00  0.00    -0.036 A 
HETATM    4  C   UNL     1     -14.369   7.614  -5.662  1.00  0.00     0.013 C 
HETATM    5  C   UNL     1     -16.589   7.705  -4.665  1.00  0.00    -0.025 C 
HETATM    6  C   UNL     1     -14.748   6.359  -6.191  1.00  0.00    -0.027 C 
HETATM    7  C   UNL     1     -15.338   8.332  -4.888  1.00  0.00     0.013 C 
ENDROOT
BRANCH   6   8
HETATM    8  C   UNL     1     -13.794   5.225  -6.469  1.00  0.00    -0.068 C 
HETATM    9  C   UNL     1     -14.064   4.408  -7.725  1.00  0.00     0.036 C 
HETATM   10  C   UNL     1     -12.833   3.517  -7.899  1.00  0.00     0.014 C 
HETATM   11  C   UNL     1     -11.961   3.606  -6.620  1.00  0.00     0.023 C 
HETATM   12  C   UNL     1     -12.855   4.369  -5.601  1.00  0.00     0.044 C 
BRANCH  11  13
HETATM   13  C   UNL     1     -11.458   2.178  -6.381  1.00  0.00    -0.052 C 
HETATM   14  C   UNL     1     -10.130   1.821  -6.187  1.00  0.00     0.036 C 
HETATM   15  C   UNL     1      -9.843   0.578  -5.609  1.00  0.00     0.026 C 
HETATM   16  C   UNL     1     -10.739  -0.465  -5.825  1.00  0.00     0.029 C 
HETATM   17  C   UNL     1     -12.068  -0.137  -6.007  1.00  0.00     0.003 C 
HETATM   18  C   UNL     1     -12.424   1.165  -6.319  1.00  0.00     0.007 C 
BRANCH  15  19
HETATM   19  N   UNL     1      -8.822   0.401  -4.715  1.00  0.00    -0.399 N 
ATOM     20  HN2 UNL     1      -8.271   1.179  -4.350  1.00  0.00     0.156 HD
ATOM     21  HN1 UNL     1      -8.683  -0.520  -4.299  1.00  0.00     0.156 HD
ENDBRANCH  15  19
ENDBRANCH  11  13
ENDBRANCH   6   8
BRANCH   5  22
HETATM   22  C   UNL     1     -17.338   7.880  -3.399  1.00  0.00     0.071 C 
BRANCH  22  23
HETATM   23  C   UNL     1     -16.657   7.920  -2.072  1.00  0.00     0.223 C 
HETATM   24  O   UNL     1     -15.894   7.036  -1.751  1.00  0.00    -0.284 OA
BRANCH  23  25
HETATM   25  C   UNL     1     -16.927   9.083  -1.116  1.00  0.00     0.231 C 
HETATM   26  O   UNL     1     -16.973  10.195  -1.594  1.00  0.00    -0.283 OA
BRANCH  25  27
HETATM   27  C   UNL     1     -17.157   8.849   0.361  1.00  0.00     0.018 C 
HETATM   28  C   UNL     1     -17.093   9.951   1.237  1.00  0.00     0.015 C 
HETATM   29  C   UNL     1     -16.451   9.771   2.467  1.00  0.00     0.001 C 
HETATM   30  C   UNL     1     -16.185   8.478   2.914  1.00  0.00     0.000 C 
HETATM   31  C   UNL     1     -16.682   7.391   2.203  1.00  0.00     0.001 C 
HETATM   32  C   UNL     1     -17.229   7.582   0.930  1.00  0.00     0.015 C 
ENDBRANCH  25  27
ENDBRANCH  23  25
ENDBRANCH  22  23
ENDBRANCH   5  22
TORSDOF 7
ENDMDL
MODEL 7
REMARK VINA RESULT:     -12.0      1.575      2.860
REMARK  7 active torsions:
REMARK  status: ('A' for Active; 'I' for Inactive)
REMARK    1  A    between atoms: C_3  and  C_29 
REMARK    2  A    between atoms: C_5  and  N_12 
REMARK    3  A    between atoms: C_6  and  C_31 
REMARK    4  A    between atoms: C_19  and  C_22 
REMARK    5  A    between atoms: C_22  and  C_24 
REMARK    6  A    between atoms: C_24  and  C_30 
REMARK    7  A    between atoms: C_25  and  C_30 
ROOT
HETATM    1  C   UNL     1     -14.404   6.791  -5.958  1.00  0.00    -0.036 A 
HETATM    2  C   UNL     1     -14.478   8.309  -6.096  1.00  0.00     0.080 A 
HETATM    3  C   UNL     1     -15.163   7.399  -5.174  1.00  0.00    -0.036 A 
HETATM    4  C   UNL     1     -16.373   5.327  -4.531  1.00  0.00     0.013 C 
HETATM    5  C   UNL     1     -14.339   5.314  -5.869  1.00  0.00    -0.025 C 
HETATM    6  C   UNL     1     -16.045   6.661  -4.195  1.00  0.00    -0.027 C 
HETATM    7  C   UNL     1     -15.499   4.631  -5.427  1.00  0.00     0.013 C 
ENDROOT
BRANCH   6   8
HETATM    8  C   UNL     1     -16.414   7.331  -2.895  1.00  0.00    -0.068 C 
HETATM    9  C   UNL     1     -16.340   8.851  -2.874  1.00  0.00     0.036 C 
HETATM   10  C   UNL     1     -16.996   9.269  -1.557  1.00  0.00     0.014 C 
HETATM   11  C   UNL     1     -17.218   8.008  -0.682  1.00  0.00     0.023 C 
HETATM   12  C   UNL     1     -16.433   6.887  -1.422  1.00  0.00     0.044 C 
BRANCH  11  13
HETATM   13  C   UNL     1     -16.886   8.453   0.747  1.00  0.00    -0.052 C 
HETATM   14  C   UNL     1     -16.217   7.681   1.688  1.00  0.00     0.036 C 
HETATM   15  C   UNL     1     -15.645   8.316   2.798  1.00  0.00     0.026 C 
HETATM   16  C   UNL     1     -16.250   9.478   3.268  1.00  0.00     0.029 C 
HETATM   17  C   UNL     1     -16.911  10.270   2.350  1.00  0.00     0.003 C 
HETATM   18  C   UNL     1     -17.260   9.752   1.113  1.00  0.00     0.007 C 
BRANCH  15  19
HETATM   19  N   UNL     1     -14.439   7.937   3.322  1.00  0.00    -0.399 N 
ATOM     20  HN2 UNL     1     -13.559   8.067   2.822  1.00  0.00     0.156 HD
ATOM     21  HN1 UNL     1     -14.396   7.631   4.294  1.00  0.00     0.156 HD
ENDBRANCH  15  19
ENDBRANCH  11  13
ENDBRANCH   6   8
BRANCH   5  22
HETATM   22  C   UNL     1     -13.060   4.608  -6.116  1.00  0.00     0.071 C 
BRANCH  22  23
HETATM   23  C   UNL     1     -12.906   3.602  -7.206  1.00  0.00     0.223 C 
HETATM   24  O   UNL     1     -12.431   3.926  -8.272  1.00  0.00    -0.284 OA
BRANCH  23  25
HETATM   25  C   UNL     1     -13.349   2.157  -6.973  1.00  0.00     0.231 C 
HETATM   26  O   UNL     1     -12.559   1.414  -6.432  1.00  0.00    -0.283 OA
BRANCH  25  27
HETATM   27  C   UNL     1     -14.730   1.683  -7.373  1.00  0.00     0.018 C 
HETATM   28  C   UNL     1     -15.181   1.946  -8.682  1.00  0.00     0.015 C 
HETATM   29  C   UNL     1     -16.510   2.348  -8.845  1.00  0.00     0.001 C 
HETATM   30  C   UNL     1     -17.409   2.176  -7.793  1.00  0.00     0.000 C 
HETATM   31  C   UNL     1     -17.007   1.486  -6.655  1.00  0.00     0.001 C 
HETATM   32  C   UNL     1     -15.656   1.182  -6.464  1.00  0.00     0.015 C 
ENDBRANCH  25  27
ENDBRANCH  23  25
ENDBRANCH  22  23
ENDBRANCH   5  22
TORSDOF 7
ENDMDL
MODEL 8
REMARK VINA RESULT:     -11.9      3.314      9.376
REMARK  7 active torsions:
REMARK  status: ('A' for Active; 'I' for Inactive)
REMARK    1  A    between atoms: C_3  and  C_29 
REMARK    2  A    between atoms: C_5  and  N_12 
REMARK    3  A    between atoms: C_6  and  C_31 
REMARK    4  A    between atoms: C_19  and  C_22 
REMARK    5  A    between atoms: C_22  and  C_24 
REMARK    6  A    between atoms: C_24  and  C_30 
REMARK    7  A    between atoms: C_25  and  C_30 
ROOT
HETATM    1  C   UNL     1     -17.176   6.882  -4.859  1.00  0.00    -0.036 A 
HETATM    2  C   UNL     1     -18.090   5.664  -4.947  1.00  0.00     0.080 A 
HETATM    3  C   UNL     1     -16.732   5.878  -5.455  1.00  0.00    -0.036 A 
HETATM    4  C   UNL     1     -14.905   7.166  -6.539  1.00  0.00     0.013 C 
HETATM    5  C   UNL     1     -16.323   8.091  -4.788  1.00  0.00    -0.025 C 
HETATM    6  C   UNL     1     -15.389   5.897  -6.145  1.00  0.00    -0.027 C 
HETATM    7  C   UNL     1     -15.412   8.316  -5.850  1.00  0.00     0.013 C 
ENDROOT
BRANCH   6   8
HETATM    8  C   UNL     1     -14.609   4.611  -6.262  1.00  0.00    -0.068 C 
HETATM    9  C   UNL     1     -15.179   3.407  -5.526  1.00  0.00     0.036 C 
HETATM   10  C   UNL     1     -14.358   2.211  -6.012  1.00  0.00     0.014 C 
HETATM   11  C   UNL     1     -13.142   2.730  -6.821  1.00  0.00     0.023 C 
HETATM   12  C   UNL     1     -13.141   4.265  -6.566  1.00  0.00     0.044 C 
BRANCH  11  13
HETATM   13  C   UNL     1     -11.978   1.819  -6.417  1.00  0.00    -0.052 C 
HETATM   14  C   UNL     1     -12.101   0.491  -6.029  1.00  0.00     0.036 C 
HETATM   15  C   UNL     1     -10.965  -0.328  -6.057  1.00  0.00     0.026 C 
HETATM   16  C   UNL     1      -9.725   0.267  -5.841  1.00  0.00     0.029 C 
HETATM   17  C   UNL     1      -9.573   1.583  -6.231  1.00  0.00     0.003 C 
HETATM   18  C   UNL     1     -10.689   2.365  -6.482  1.00  0.00     0.007 C 
BRANCH  15  19
HETATM   19  N   UNL     1     -11.013  -1.638  -6.450  1.00  0.00    -0.399 N 
ATOM     20  HN2 UNL     1     -11.875  -2.088  -6.757  1.00  0.00     0.156 HD
ATOM     21  HN1 UNL     1     -10.139  -2.153  -6.563  1.00  0.00     0.156 HD
ENDBRANCH  15  19
ENDBRANCH  11  13
ENDBRANCH   6   8
BRANCH   5  22
HETATM   22  C   UNL     1     -16.347   8.951  -3.583  1.00  0.00     0.071 C 
BRANCH  22  23
HETATM   23  C   UNL     1     -17.058   8.549  -2.334  1.00  0.00     0.223 C 
HETATM   24  O   UNL     1     -18.183   8.943  -2.119  1.00  0.00    -0.284 OA
BRANCH  23  25
HETATM   25  C   UNL     1     -16.361   7.635  -1.325  1.00  0.00     0.231 C 
HETATM   26  O   UNL     1     -15.870   6.612  -1.749  1.00  0.00    -0.283 OA
BRANCH  25  27
HETATM   27  C   UNL     1     -16.262   8.010   0.138  1.00  0.00     0.018 C 
HETATM   28  C   UNL     1     -16.706   7.084   1.103  1.00  0.00     0.015 C 
HETATM   29  C   UNL     1     -17.428   7.576   2.195  1.00  0.00     0.001 C 
HETATM   30  C   UNL     1     -17.416   8.945   2.461  1.00  0.00     0.000 C 
HETATM   31  C   UNL     1     -16.581   9.778   1.724  1.00  0.00     0.001 C 
HETATM   32  C   UNL     1     -15.947   9.291   0.576  1.00  0.00     0.015 C 
ENDBRANCH  25  27
ENDBRANCH  23  25
ENDBRANCH  22  23
ENDBRANCH   5  22
TORSDOF 7
ENDMDL
MODEL 9
REMARK VINA RESULT:     -11.7      3.113      9.521
REMARK  7 active torsions:
REMARK  status: ('A' for Active; 'I' for Inactive)
REMARK    1  A    between atoms: C_3  and  C_29 
REMARK    2  A    between atoms: C_5  and  N_12 
REMARK    3  A    between atoms: C_6  and  C_31 
REMARK    4  A    between atoms: C_19  and  C_22 
REMARK    5  A    between atoms: C_22  and  C_24 
REMARK    6  A    between atoms: C_24  and  C_30 
REMARK    7  A    between atoms: C_25  and  C_30 
ROOT
HETATM    1  C   UNL     1     -17.615   6.843  -3.895  1.00  0.00    -0.036 A 
HETATM    2  C   UNL     1     -18.388   5.707  -4.556  1.00  0.00     0.080 A 
HETATM    3  C   UNL     1     -17.047   6.233  -4.826  1.00  0.00    -0.036 A 
HETATM    4  C   UNL     1     -15.340   8.012  -5.128  1.00  0.00     0.013 C 
HETATM    5  C   UNL     1     -16.899   7.974  -3.258  1.00  0.00    -0.025 C 
HETATM    6  C   UNL     1     -15.694   6.661  -5.344  1.00  0.00    -0.027 C 
HETATM    7  C   UNL     1     -15.989   8.708  -4.057  1.00  0.00     0.013 C 
ENDROOT
BRANCH   6   8
HETATM    8  C   UNL     1     -14.777   5.621  -5.937  1.00  0.00    -0.068 C 
HETATM    9  C   UNL     1     -15.362   4.757  -7.045  1.00  0.00     0.036 C 
HETATM   10  C   UNL     1     -14.175   3.988  -7.627  1.00  0.00     0.014 C 
HETATM   11  C   UNL     1     -12.945   4.187  -6.705  1.00  0.00     0.023 C 
HETATM   12  C   UNL     1     -13.525   4.879  -5.438  1.00  0.00     0.044 C 
BRANCH  11  13
HETATM   13  C   UNL     1     -12.252   2.820  -6.665  1.00  0.00    -0.052 C 
HETATM   14  C   UNL     1     -10.887   2.613  -6.807  1.00  0.00     0.036 C 
HETATM   15  C   UNL     1     -10.341   1.396  -6.377  1.00  0.00     0.026 C 
HETATM   16  C   UNL     1     -11.148   0.263  -6.431  1.00  0.00     0.029 C 
HETATM   17  C   UNL     1     -12.509   0.442  -6.279  1.00  0.00     0.003 C 
HETATM   18  C   UNL     1     -13.063   1.702  -6.431  1.00  0.00     0.007 C 
BRANCH  15  19
HETATM   19  N   UNL     1      -9.123   1.314  -5.758  1.00  0.00    -0.399 N 
ATOM     20  HN2 UNL     1      -8.299   0.925  -6.217  1.00  0.00     0.156 HD
ATOM     21  HN1 UNL     1      -8.996   1.771  -4.854  1.00  0.00     0.156 HD
ENDBRANCH  15  19
ENDBRANCH  11  13
ENDBRANCH   6   8
BRANCH   5  22
HETATM   22  C   UNL     1     -17.052   8.229  -1.807  1.00  0.00     0.071 C 
BRANCH  22  23
HETATM   23  C   UNL     1     -16.430   7.349  -0.776  1.00  0.00     0.223 C 
HETATM   24  O   UNL     1     -15.573   6.552  -1.090  1.00  0.00    -0.284 OA
BRANCH  23  25
HETATM   25  C   UNL     1     -16.878   7.454   0.683  1.00  0.00     0.231 C 
HETATM   26  O   UNL     1     -17.746   6.693   1.052  1.00  0.00    -0.283 OA
BRANCH  25  27
HETATM   27  C   UNL     1     -16.242   8.446   1.632  1.00  0.00     0.018 C 
HETATM   28  C   UNL     1     -15.161   8.020   2.429  1.00  0.00     0.015 C 
HETATM   29  C   UNL     1     -15.124   8.446   3.760  1.00  0.00     0.001 C 
HETATM   30  C   UNL     1     -15.948   9.497   4.163  1.00  0.00     0.000 C 
HETATM   31  C   UNL     1     -16.685  10.193   3.212  1.00  0.00     0.001 C 
HETATM   32  C   UNL     1     -16.791   9.694   1.910  1.00  0.00     0.015 C 
ENDBRANCH  25  27
ENDBRANCH  23  25
ENDBRANCH  22  23
ENDBRANCH   5  22
TORSDOF 7
ENDMDL
