MODEL 1
REMARK VINA RESULT:      -9.1      0.000      0.000
REMARK  1 active torsions:
REMARK  status: ('A' for Active; 'I' for Inactive)
REMARK    1  A    between atoms: P_2  and  C_5 
ROOT
HETATM    1  N   UNL     1     -24.381  -2.978  45.214  1.00  0.00    -0.096 NA
HETATM    2  C   UNL     1     -26.913  -1.896  45.171  1.00  0.00    -0.025 C 
HETATM    3  C   UNL     1     -27.490  -3.103  47.322  1.00  0.00     0.009 C 
HETATM    4  C   UNL     1     -29.427  -0.341  46.911  1.00  0.00     0.068 C 
HETATM    5  C   UNL     1     -27.710  -0.748  45.092  1.00  0.00     0.011 C 
HETATM    6  C   UNL     1     -28.516  -2.407  47.975  1.00  0.00     0.002 C 
HETATM    7  C   UNL     1     -28.552   0.061  45.830  1.00  0.00     0.022 C 
HETATM    8  C   UNL     1     -25.261  -3.442  46.309  1.00  0.00     0.181 C 
HETATM    9  C   UNL     1     -29.592  -1.688  47.350  1.00  0.00     0.021 C 
HETATM   10  C   UNL     1     -26.528  -2.609  46.399  1.00  0.00    -0.033 C 
HETATM   11  C   UNL     1     -26.183  -2.226  43.884  1.00  0.00     0.235 C 
HETATM   12  O   UNL     1     -25.064  -3.093  44.021  1.00  0.00    -0.282 OA
ENDROOT
BRANCH   4  13
HETATM   13  P   UNL     1     -30.362   0.902  47.809  1.00  0.00     0.295 P 
HETATM   14  O   UNL     1     -31.737   1.108  47.256  1.00  0.00    -0.636 OA
HETATM   15  O   UNL     1     -29.700   2.271  47.806  1.00  0.00    -0.636 OA
HETATM   16  O   UNL     1     -30.287   0.488  49.242  1.00  0.00    -0.636 OA
ENDBRANCH   4  13
TORSDOF 1
ENDMDL
MODEL 2
REMARK VINA RESULT:      -9.0      0.141      1.064
REMARK  1 active torsions:
REMARK  status: ('A' for Active; 'I' for Inactive)
REMARK    1  A    between atoms: P_2  and  C_5 
ROOT
HETATM    1  N   UNL     1     -24.384  -2.923  45.020  1.00  0.00    -0.096 NA
HETATM    2  C   UNL     1     -26.918  -1.848  45.089  1.00  0.00    -0.025 C 
HETATM    3  C   UNL     1     -27.424  -3.117  47.222  1.00  0.00     0.009 C 
HETATM    4  C   UNL     1     -29.378  -0.350  46.952  1.00  0.00     0.068 C 
HETATM    5  C   UNL     1     -27.719  -0.700  45.068  1.00  0.00     0.011 C 
HETATM    6  C   UNL     1     -28.429  -2.442  47.927  1.00  0.00     0.002 C 
HETATM    7  C   UNL     1     -28.538   0.085  45.855  1.00  0.00     0.022 C 
HETATM    8  C   UNL     1     -25.227  -3.421  46.130  1.00  0.00     0.181 C 
HETATM    9  C   UNL     1     -29.527  -1.709  47.357  1.00  0.00     0.021 C 
HETATM   10  C   UNL     1     -26.493  -2.594  46.283  1.00  0.00    -0.033 C 
HETATM   11  C   UNL     1     -26.228  -2.139  43.770  1.00  0.00     0.235 C 
HETATM   12  O   UNL     1     -25.104  -3.006  43.847  1.00  0.00    -0.282 OA
ENDROOT
BRANCH   4  13
HETATM   13  P   UNL     1     -30.286   0.864  47.914  1.00  0.00     0.295 P 
HETATM   14  O   UNL     1     -30.422   0.482  49.354  1.00  0.00    -0.636 OA
HETATM   15  O   UNL     1     -31.701   1.096  47.408  1.00  0.00    -0.636 OA
HETATM   16  O   UNL     1     -29.606   2.166  47.643  1.00  0.00    -0.636 OA
ENDBRANCH   4  13
TORSDOF 1
ENDMDL
MODEL 3
REMARK VINA RESULT:      -8.0      2.260      3.442
REMARK  1 active torsions:
REMARK  status: ('A' for Active; 'I' for Inactive)
REMARK    1  A    between atoms: P_2  and  C_5 
ROOT
HETATM    1  N   UNL     1     -23.612  -3.519  42.443  1.00  0.00    -0.096 NA
HETATM    2  C   UNL     1     -24.739  -2.676  44.809  1.00  0.00    -0.025 C 
HETATM    3  C   UNL     1     -26.326  -1.163  43.541  1.00  0.00     0.009 C 
HETATM    4  C   UNL     1     -27.602  -2.005  46.575  1.00  0.00     0.068 C 
HETATM    5  C   UNL     1     -25.347  -3.021  46.022  1.00  0.00     0.011 C 
HETATM    6  C   UNL     1     -27.468  -0.942  44.321  1.00  0.00     0.002 C 
HETATM    7  C   UNL     1     -26.552  -2.995  46.696  1.00  0.00     0.022 C 
HETATM    8  C   UNL     1     -24.651  -2.478  42.285  1.00  0.00     0.181 C 
HETATM    9  C   UNL     1     -27.516  -0.842  45.755  1.00  0.00     0.021 C 
HETATM   10  C   UNL     1     -25.425  -2.262  43.575  1.00  0.00    -0.033 C 
HETATM   11  C   UNL     1     -23.270  -3.046  44.732  1.00  0.00     0.235 C 
HETATM   12  O   UNL     1     -22.727  -3.115  43.420  1.00  0.00    -0.282 OA
ENDROOT
BRANCH   4  13
HETATM   13  P   UNL     1     -29.142  -2.226  47.473  1.00  0.00     0.295 P 
HETATM   14  O   UNL     1     -30.335  -1.750  46.707  1.00  0.00    -0.636 OA
HETATM   15  O   UNL     1     -29.175  -1.486  48.801  1.00  0.00    -0.636 OA
HETATM   16  O   UNL     1     -29.155  -3.662  47.880  1.00  0.00    -0.636 OA
ENDBRANCH   4  13
TORSDOF 1
ENDMDL
MODEL 4
REMARK VINA RESULT:      -7.3      3.596      6.210
REMARK  1 active torsions:
REMARK  status: ('A' for Active; 'I' for Inactive)
REMARK    1  A    between atoms: P_2  and  C_5 
ROOT
HETATM    1  N   UNL     1     -29.103   0.239  46.508  1.00  0.00    -0.096 NA
HETATM    2  C   UNL     1     -28.138  -2.320  46.822  1.00  0.00    -0.025 C 
HETATM    3  C   UNL     1     -26.406  -1.914  45.019  1.00  0.00     0.009 C 
HETATM    4  C   UNL     1     -25.403  -4.363  47.150  1.00  0.00     0.068 C 
HETATM    5  C   UNL     1     -27.640  -3.301  47.688  1.00  0.00     0.011 C 
HETATM    6  C   UNL     1     -25.323  -2.778  45.224  1.00  0.00     0.002 C 
HETATM    7  C   UNL     1     -26.491  -3.988  48.028  1.00  0.00     0.022 C 
HETATM    8  C   UNL     1     -28.020  -0.124  45.567  1.00  0.00     0.181 C 
HETATM    9  C   UNL     1     -25.384  -4.117  45.746  1.00  0.00     0.021 C 
HETATM   10  C   UNL     1     -27.344  -1.424  45.969  1.00  0.00    -0.033 C 
HETATM   11  C   UNL     1     -29.608  -2.009  47.030  1.00  0.00     0.235 C 
HETATM   12  O   UNL     1     -30.049  -0.765  46.501  1.00  0.00    -0.282 OA
ENDROOT
BRANCH   4  13
HETATM   13  P   UNL     1     -23.946  -5.166  47.829  1.00  0.00     0.295 P 
HETATM   14  O   UNL     1     -22.669  -4.518  47.395  1.00  0.00    -0.636 OA
HETATM   15  O   UNL     1     -23.827  -6.630  47.434  1.00  0.00    -0.636 OA
HETATM   16  O   UNL     1     -24.184  -5.226  49.302  1.00  0.00    -0.636 OA
ENDBRANCH   4  13
TORSDOF 1
ENDMDL
MODEL 5
REMARK VINA RESULT:      -7.2      3.275      6.042
REMARK  1 active torsions:
REMARK  status: ('A' for Active; 'I' for Inactive)
REMARK    1  A    between atoms: P_2  and  C_5 
ROOT
HETATM    1  N   UNL     1     -29.143  -0.920  48.614  1.00  0.00    -0.096 NA
HETATM    2  C   UNL     1     -27.839  -2.386  46.683  1.00  0.00    -0.025 C 
HETATM    3  C   UNL     1     -28.670  -0.804  44.887  1.00  0.00     0.009 C 
HETATM    4  C   UNL     1     -25.820  -2.374  43.910  1.00  0.00     0.068 C 
HETATM    5  C   UNL     1     -26.642  -2.957  46.235  1.00  0.00     0.011 C 
HETATM    6  C   UNL     1     -27.793  -0.851  43.796  1.00  0.00     0.002 C 
HETATM    7  C   UNL     1     -25.660  -2.842  45.271  1.00  0.00     0.022 C 
HETATM    8  C   UNL     1     -29.362  -0.438  47.233  1.00  0.00     0.181 C 
HETATM    9  C   UNL     1     -27.069  -2.003  43.332  1.00  0.00     0.021 C 
HETATM   10  C   UNL     1     -28.405  -1.098  46.253  1.00  0.00    -0.033 C 
HETATM   11  C   UNL     1     -28.415  -3.056  47.915  1.00  0.00     0.235 C 
HETATM   12  O   UNL     1     -29.357  -2.282  48.646  1.00  0.00    -0.282 OA
ENDROOT
BRANCH   4  13
HETATM   13  P   UNL     1     -24.378  -2.203  42.852  1.00  0.00     0.295 P 
HETATM   14  O   UNL     1     -24.228  -0.823  42.292  1.00  0.00    -0.636 OA
HETATM   15  O   UNL     1     -24.397  -3.140  41.654  1.00  0.00    -0.636 OA
HETATM   16  O   UNL     1     -23.234  -2.708  43.665  1.00  0.00    -0.636 OA
ENDBRANCH   4  13
TORSDOF 1
ENDMDL
MODEL 6
REMARK VINA RESULT:      -6.9      1.731      2.351
REMARK  1 active torsions:
REMARK  status: ('A' for Active; 'I' for Inactive)
REMARK    1  A    between atoms: P_2  and  C_5 
ROOT
HETATM    1  N   UNL     1     -22.468  -3.206  44.537  1.00  0.00    -0.096 NA
HETATM    2  C   UNL     1     -25.176  -2.716  44.438  1.00  0.00    -0.025 C 
HETATM    3  C   UNL     1     -25.510  -3.996  46.599  1.00  0.00     0.009 C 
HETATM    4  C   UNL     1     -28.005  -1.740  46.114  1.00  0.00     0.068 C 
HETATM    5  C   UNL     1     -26.207  -1.776  44.328  1.00  0.00     0.011 C 
HETATM    6  C   UNL     1     -26.677  -3.537  47.225  1.00  0.00     0.002 C 
HETATM    7  C   UNL     1     -27.222  -1.166  45.040  1.00  0.00     0.022 C 
HETATM    8  C   UNL     1     -23.242  -3.841  45.626  1.00  0.00     0.181 C 
HETATM    9  C   UNL     1     -27.875  -3.084  46.571  1.00  0.00     0.021 C 
HETATM   10  C   UNL     1     -24.665  -3.310  45.683  1.00  0.00    -0.033 C 
HETATM   11  C   UNL     1     -24.367  -2.890  43.167  1.00  0.00     0.235 C 
HETATM   12  O   UNL     1     -23.086  -3.484  43.336  1.00  0.00    -0.282 OA
ENDROOT
BRANCH   4  13
HETATM   13  P   UNL     1     -29.210  -0.726  46.978  1.00  0.00     0.295 P 
HETATM   14  O   UNL     1     -29.007   0.739  46.750  1.00  0.00    -0.636 OA
HETATM   15  O   UNL     1     -29.189  -0.921  48.486  1.00  0.00    -0.636 OA
HETATM   16  O   UNL     1     -30.540  -1.274  46.579  1.00  0.00    -0.636 OA
ENDBRANCH   4  13
TORSDOF 1
ENDMDL
MODEL 7
REMARK VINA RESULT:      -6.6      3.045      5.444
REMARK  1 active torsions:
REMARK  status: ('A' for Active; 'I' for Inactive)
REMARK    1  A    between atoms: P_2  and  C_5 
ROOT
HETATM    1  N   UNL     1     -30.036  -2.695  48.494  1.00  0.00    -0.096 NA
HETATM    2  C   UNL     1     -28.557  -1.226  46.695  1.00  0.00    -0.025 C 
HETATM    3  C   UNL     1     -26.797  -3.047  46.620  1.00  0.00     0.009 C 
HETATM    4  C   UNL     1     -26.756  -1.187  43.776  1.00  0.00     0.068 C 
HETATM    5  C   UNL     1     -28.516  -0.535  45.479  1.00  0.00     0.011 C 
HETATM    6  C   UNL     1     -26.112  -2.970  45.400  1.00  0.00     0.002 C 
HETATM    7  C   UNL     1     -28.008  -0.593  44.196  1.00  0.00     0.022 C 
HETATM    8  C   UNL     1     -28.745  -3.313  48.120  1.00  0.00     0.181 C 
HETATM    9  C   UNL     1     -25.808  -1.771  44.667  1.00  0.00     0.021 C 
HETATM   10  C   UNL     1     -28.115  -2.610  46.928  1.00  0.00    -0.033 C 
HETATM   11  C   UNL     1     -29.392  -0.543  47.761  1.00  0.00     0.235 C 
HETATM   12  O   UNL     1     -29.812  -1.377  48.834  1.00  0.00    -0.282 OA
ENDROOT
BRANCH   4  13
HETATM   13  P   UNL     1     -26.339  -1.245  42.030  1.00  0.00     0.295 P 
HETATM   14  O   UNL     1     -26.414   0.095  41.369  1.00  0.00    -0.636 OA
HETATM   15  O   UNL     1     -27.249  -2.160  41.225  1.00  0.00    -0.636 OA
HETATM   16  O   UNL     1     -25.016  -1.934  41.967  1.00  0.00    -0.636 OA
ENDBRANCH   4  13
TORSDOF 1
ENDMDL
MODEL 8
REMARK VINA RESULT:      -6.4      3.016      6.120
REMARK  1 active torsions:
REMARK  status: ('A' for Active; 'I' for Inactive)
REMARK    1  A    between atoms: P_2  and  C_5 
ROOT
HETATM    1  N   UNL     1     -30.077   0.353  47.742  1.00  0.00    -0.096 NA
HETATM    2  C   UNL     1     -28.549  -1.801  46.963  1.00  0.00    -0.025 C 
HETATM    3  C   UNL     1     -28.167  -0.740  44.695  1.00  0.00     0.009 C 
HETATM    4  C   UNL     1     -25.675  -2.920  45.461  1.00  0.00     0.068 C 
HETATM    5  C   UNL     1     -27.465  -2.645  47.234  1.00  0.00     0.011 C 
HETATM    6  C   UNL     1     -26.977  -1.241  44.152  1.00  0.00     0.002 C 
HETATM    7  C   UNL     1     -26.190  -2.969  46.814  1.00  0.00     0.022 C 
HETATM    8  C   UNL     1     -29.603   0.417  46.342  1.00  0.00     0.181 C 
HETATM    9  C   UNL     1     -26.454  -2.570  44.319  1.00  0.00     0.021 C 
HETATM   10  C   UNL     1     -28.546  -0.639  46.062  1.00  0.00    -0.033 C 
HETATM   11  C   UNL     1     -29.715  -1.975  47.917  1.00  0.00     0.235 C 
HETATM   12  O   UNL     1     -30.633  -0.891  47.963  1.00  0.00    -0.282 OA
ENDROOT
BRANCH   4  13
HETATM   13  P   UNL     1     -23.944  -3.285  45.154  1.00  0.00     0.295 P 
HETATM   14  O   UNL     1     -23.673  -3.665  43.732  1.00  0.00    -0.636 OA
HETATM   15  O   UNL     1     -23.411  -4.431  46.001  1.00  0.00    -0.636 OA
HETATM   16  O   UNL     1     -23.197  -2.100  45.670  1.00  0.00    -0.636 OA
ENDBRANCH   4  13
TORSDOF 1
ENDMDL
