MODEL 1
REMARK VINA RESULT:     -10.0      0.000      0.000
REMARK  13 active torsions:
REMARK  status: ('A' for Active; 'I' for Inactive)
REMARK    1  A    between atoms: C_1  and  C_12 
REMARK    2  A    between atoms: C_5  and  CA_10 
REMARK    3  A    between atoms: O_8  and  C_21 
REMARK    4  A    between atoms: CA_10  and  C_21 
REMARK    5  A    between atoms: CA_10  and  N_26 
REMARK    6  A    between atoms: C_12  and  C_19 
REMARK    7  A    between atoms: P_14  and  O_30 
REMARK    8  A    between atoms: P_14  and  O_31 
REMARK    9  A    between atoms: O_17  and  C_21 
REMARK   10  A    between atoms: C_21  and  O_24 
REMARK   11  A    between atoms: N_26  and  C_35 
REMARK   12  A    between atoms: O_30  and  P_32 
REMARK   13  A    between atoms: O_31  and  C_33 
ROOT
HETATM    1  C   UNL     1      42.783 146.091  21.959  1.00  0.00     0.003 C 
HETATM    2  C   UNL     1      43.061 145.191  20.936  1.00  0.00     0.029 C 
HETATM    3  C   UNL     1      41.483 147.413  20.421  1.00  0.00    -0.052 C 
HETATM    4  C   UNL     1      41.899 147.126  21.722  1.00  0.00     0.007 C 
HETATM    5  C   UNL     1      41.916 146.606  19.373  1.00  0.00     0.037 C 
HETATM    6  C   UNL     1      42.514 145.380  19.671  1.00  0.00     0.033 C 
ENDROOT
BRANCH   3   7
HETATM    7  C   UNL     1      40.521 148.554  20.212  1.00  0.00     0.077 C 
BRANCH   7   8
HETATM    8  C   UNL     1      39.058 148.267  20.453  1.00  0.00    -0.054 C 
HETATM    9  C   UNL     1      38.647 147.042  20.956  1.00  0.00     0.010 C 
HETATM   10  C   UNL     1      37.304 146.676  20.930  1.00  0.00     0.038 C 
HETATM   11  C   UNL     1      36.400 147.544  20.313  1.00  0.00     0.082 C 
HETATM   12  C   UNL     1      36.747 148.885  20.153  1.00  0.00     0.038 C 
HETATM   13  C   UNL     1      38.091 149.254  20.237  1.00  0.00     0.010 C 
BRANCH  11  14
HETATM   14  O   UNL     1      35.189 147.071  19.861  1.00  0.00    -0.247 OA
BRANCH  14  15
HETATM   15  P   UNL     1      34.031 146.643  20.853  1.00  0.00     0.423 P 
HETATM   16  O   UNL     1      34.259 145.291  21.434  1.00  0.00    -0.624 OA
HETATM   17  O   UNL     1      32.698 146.698  20.171  1.00  0.00    -0.624 OA
BRANCH  15  18
HETATM   18  O   UNL     1      34.057 147.741  21.991  1.00  0.00    -0.173 OA
BRANCH  18  19
HETATM   19  P   UNL     1      32.880 147.800  23.060  1.00  0.00     0.431 P 
HETATM   20  O   UNL     1      31.778 148.551  22.398  1.00  0.00    -0.616 OA
HETATM   21  O   UNL     1      33.401 148.415  24.317  1.00  0.00    -0.616 OA
HETATM   22  O   UNL     1      32.561 146.374  23.359  1.00  0.00    -0.616 OA
ENDBRANCH  18  19
ENDBRANCH  15  18
ENDBRANCH  14  15
ENDBRANCH  11  14
ENDBRANCH   7   8
ENDBRANCH   3   7
BRANCH   6  23
HETATM   23  N   UNL     1      42.479 144.381  18.722  1.00  0.00    -0.347 N 
ATOM     24  HN  UNL     1      43.222 143.683  18.746  1.00  0.00     0.166 HD
BRANCH  23  25
HETATM   25  CA  UNL     1      41.474 144.246  17.698  1.00  0.00     0.179 C 
BRANCH  25  26
HETATM   26  C   UNL     1      40.292 143.404  18.175  1.00  0.00     0.231 C 
HETATM   27  O   UNL     1      40.146 142.236  17.849  1.00  0.00    -0.643 OA
HETATM   28  OXT UNL     1      39.490 144.006  18.933  1.00  0.00    -0.643 OA
ENDBRANCH  25  26
BRANCH  25  29
HETATM   29  C   UNL     1      41.975 143.978  16.248  1.00  0.00     0.330 C 
BRANCH  29  30
HETATM   30  O   UNL     1      41.225 143.096  15.568  1.00  0.00    -0.338 OA
ATOM     31  HO  UNL     1      41.430 143.050  14.642  1.00  0.00     0.216 HD
ENDBRANCH  29  30
BRANCH  29  32
HETATM   32  O   UNL     1      41.967 145.222  15.641  1.00  0.00    -0.338 OA
ATOM     33  HO  UNL     1      42.794 145.673  15.760  1.00  0.00     0.216 HD
ENDBRANCH  29  32
BRANCH  29  34
HETATM   34  O   UNL     1      43.234 143.483  16.356  1.00  0.00    -0.338 OA
ATOM     35  HO  UNL     1      43.768 144.114  16.824  1.00  0.00     0.216 HD
ENDBRANCH  29  34
ENDBRANCH  25  29
ENDBRANCH  23  25
ENDBRANCH   6  23
TORSDOF 13
ENDMDL
MODEL 2
REMARK VINA RESULT:      -9.7      0.798      1.948
REMARK  13 active torsions:
REMARK  status: ('A' for Active; 'I' for Inactive)
REMARK    1  A    between atoms: C_1  and  C_12 
REMARK    2  A    between atoms: C_5  and  CA_10 
REMARK    3  A    between atoms: O_8  and  C_21 
REMARK    4  A    between atoms: CA_10  and  C_21 
REMARK    5  A    between atoms: CA_10  and  N_26 
REMARK    6  A    between atoms: C_12  and  C_19 
REMARK    7  A    between atoms: P_14  and  O_30 
REMARK    8  A    between atoms: P_14  and  O_31 
REMARK    9  A    between atoms: O_17  and  C_21 
REMARK   10  A    between atoms: C_21  and  O_24 
REMARK   11  A    between atoms: N_26  and  C_35 
REMARK   12  A    between atoms: O_30  and  P_32 
REMARK   13  A    between atoms: O_31  and  C_33 
ROOT
HETATM    1  C   UNL     1      42.879 145.629  20.923  1.00  0.00     0.003 C 
HETATM    2  C   UNL     1      42.807 145.050  19.661  1.00  0.00     0.029 C 
HETATM    3  C   UNL     1      41.344 147.342  20.209  1.00  0.00    -0.052 C 
HETATM    4  C   UNL     1      42.056 146.697  21.222  1.00  0.00     0.007 C 
HETATM    5  C   UNL     1      41.422 146.858  18.906  1.00  0.00     0.037 C 
HETATM    6  C   UNL     1      41.970 145.593  18.691  1.00  0.00     0.033 C 
ENDROOT
BRANCH   3   7
HETATM    7  C   UNL     1      40.462 148.505  20.583  1.00  0.00     0.077 C 
BRANCH   7   8
HETATM    8  C   UNL     1      38.987 148.220  20.741  1.00  0.00    -0.054 C 
HETATM    9  C   UNL     1      38.549 147.047  21.338  1.00  0.00     0.010 C 
HETATM   10  C   UNL     1      37.216 146.658  21.249  1.00  0.00     0.038 C 
HETATM   11  C   UNL     1      36.354 147.443  20.478  1.00  0.00     0.082 C 
HETATM   12  C   UNL     1      36.700 148.765  20.205  1.00  0.00     0.038 C 
HETATM   13  C   UNL     1      38.031 149.163  20.351  1.00  0.00     0.010 C 
BRANCH  11  14
HETATM   14  O   UNL     1      35.185 146.904  19.988  1.00  0.00    -0.247 OA
BRANCH  14  15
HETATM   15  P   UNL     1      33.944 146.599  20.923  1.00  0.00     0.423 P 
HETATM   16  O   UNL     1      34.004 145.232  21.510  1.00  0.00    -0.624 OA
HETATM   17  O   UNL     1      32.657 146.790  20.180  1.00  0.00    -0.624 OA
BRANCH  15  18
HETATM   18  O   UNL     1      34.029 147.691  22.064  1.00  0.00    -0.173 OA
BRANCH  18  19
HETATM   19  P   UNL     1      32.863 147.800  23.142  1.00  0.00     0.431 P 
HETATM   20  O   UNL     1      33.460 148.517  24.302  1.00  0.00    -0.616 OA
HETATM   21  O   UNL     1      32.353 146.428  23.440  1.00  0.00    -0.616 OA
HETATM   22  O   UNL     1      31.770 148.544  22.452  1.00  0.00    -0.616 OA
ENDBRANCH  18  19
ENDBRANCH  15  18
ENDBRANCH  14  15
ENDBRANCH  11  14
ENDBRANCH   7   8
ENDBRANCH   3   7
BRANCH   6  23
HETATM   23  N   UNL     1      41.607 144.901  17.554  1.00  0.00    -0.347 N 
ATOM     24  HN  UNL     1      41.334 145.447  16.738  1.00  0.00     0.166 HD
BRANCH  23  25
HETATM   25  CA  UNL     1      41.584 143.465  17.432  1.00  0.00     0.179 C 
BRANCH  25  26
HETATM   26  C   UNL     1      42.523 142.977  16.330  1.00  0.00     0.231 C 
HETATM   27  O   UNL     1      42.132 142.311  15.384  1.00  0.00    -0.643 OA
HETATM   28  OXT UNL     1      43.723 143.324  16.471  1.00  0.00    -0.643 OA
ENDBRANCH  25  26
BRANCH  25  29
HETATM   29  C   UNL     1      40.192 142.772  17.512  1.00  0.00     0.330 C 
BRANCH  29  30
HETATM   30  O   UNL     1      40.236 141.442  17.332  1.00  0.00    -0.338 OA
ATOM     31  HO  UNL     1      41.094 141.062  17.477  1.00  0.00     0.216 HD
ENDBRANCH  29  30
BRANCH  29  32
HETATM   32  O   UNL     1      39.712 143.097  18.769  1.00  0.00    -0.338 OA
ATOM     33  HO  UNL     1      38.850 143.493  18.722  1.00  0.00     0.216 HD
ENDBRANCH  29  32
BRANCH  29  34
HETATM   34  O   UNL     1      39.429 143.317  16.531  1.00  0.00    -0.338 OA
ATOM     35  HO  UNL     1      38.519 143.106  16.702  1.00  0.00     0.216 HD
ENDBRANCH  29  34
ENDBRANCH  25  29
ENDBRANCH  23  25
ENDBRANCH   6  23
TORSDOF 13
ENDMDL
MODEL 3
REMARK VINA RESULT:      -9.6      1.815      3.340
REMARK  13 active torsions:
REMARK  status: ('A' for Active; 'I' for Inactive)
REMARK    1  A    between atoms: C_1  and  C_12 
REMARK    2  A    between atoms: C_5  and  CA_10 
REMARK    3  A    between atoms: O_8  and  C_21 
REMARK    4  A    between atoms: CA_10  and  C_21 
REMARK    5  A    between atoms: CA_10  and  N_26 
REMARK    6  A    between atoms: C_12  and  C_19 
REMARK    7  A    between atoms: P_14  and  O_30 
REMARK    8  A    between atoms: P_14  and  O_31 
REMARK    9  A    between atoms: O_17  and  C_21 
REMARK   10  A    between atoms: C_21  and  O_24 
REMARK   11  A    between atoms: N_26  and  C_35 
REMARK   12  A    between atoms: O_30  and  P_32 
REMARK   13  A    between atoms: O_31  and  C_33 
ROOT
HETATM    1  C   UNL     1      43.682 144.014  17.840  1.00  0.00     0.003 C 
HETATM    2  C   UNL     1      42.516 143.655  17.173  1.00  0.00     0.029 C 
HETATM    3  C   UNL     1      42.366 145.200  19.472  1.00  0.00    -0.052 C 
HETATM    4  C   UNL     1      43.590 144.678  19.048  1.00  0.00     0.007 C 
HETATM    5  C   UNL     1      41.229 144.987  18.699  1.00  0.00     0.037 C 
HETATM    6  C   UNL     1      41.277 144.032  17.681  1.00  0.00     0.033 C 
ENDROOT
BRANCH   3   7
HETATM    7  C   UNL     1      42.315 145.921  20.794  1.00  0.00     0.077 C 
BRANCH   7   8
HETATM    8  C   UNL     1      41.123 146.816  21.038  1.00  0.00    -0.054 C 
HETATM    9  C   UNL     1      40.158 146.477  21.974  1.00  0.00     0.010 C 
HETATM   10  C   UNL     1      38.939 147.147  22.016  1.00  0.00     0.038 C 
HETATM   11  C   UNL     1      38.690 148.115  21.039  1.00  0.00     0.082 C 
HETATM   12  C   UNL     1      39.765 148.691  20.364  1.00  0.00     0.038 C 
HETATM   13  C   UNL     1      41.000 148.041  20.373  1.00  0.00     0.010 C 
BRANCH  11  14
HETATM   14  O   UNL     1      37.395 148.482  20.747  1.00  0.00    -0.247 OA
BRANCH  14  15
HETATM   15  P   UNL     1      36.278 147.415  20.399  1.00  0.00     0.423 P 
HETATM   16  O   UNL     1      36.388 146.190  21.239  1.00  0.00    -0.624 OA
HETATM   17  O   UNL     1      36.321 147.053  18.945  1.00  0.00    -0.624 OA
BRANCH  15  18
HETATM   18  O   UNL     1      34.914 148.160  20.689  1.00  0.00    -0.173 OA
BRANCH  18  19
HETATM   19  P   UNL     1      33.670 147.340  21.249  1.00  0.00     0.431 P 
HETATM   20  O   UNL     1      32.472 148.163  20.923  1.00  0.00    -0.616 OA
HETATM   21  O   UNL     1      33.881 147.078  22.704  1.00  0.00    -0.616 OA
HETATM   22  O   UNL     1      33.727 146.026  20.546  1.00  0.00    -0.616 OA
ENDBRANCH  18  19
ENDBRANCH  15  18
ENDBRANCH  14  15
ENDBRANCH  11  14
ENDBRANCH   7   8
ENDBRANCH   3   7
BRANCH   6  23
HETATM   23  N   UNL     1      40.098 143.451  17.265  1.00  0.00    -0.347 N 
ATOM     24  HN  UNL     1      39.260 144.032  17.267  1.00  0.00     0.166 HD
BRANCH  23  25
HETATM   25  CA  UNL     1      39.959 142.085  16.827  1.00  0.00     0.179 C 
BRANCH  25  26
HETATM   26  C   UNL     1      39.728 141.997  15.319  1.00  0.00     0.231 C 
HETATM   27  O   UNL     1      39.715 142.983  14.599  1.00  0.00    -0.643 OA
HETATM   28  OXT UNL     1      39.563 140.830  14.880  1.00  0.00    -0.643 OA
ENDBRANCH  25  26
BRANCH  25  29
HETATM   29  C   UNL     1      39.094 141.143  17.715  1.00  0.00     0.330 C 
BRANCH  29  30
HETATM   30  O   UNL     1      37.799 141.104  17.366  1.00  0.00    -0.338 OA
ATOM     31  HO  UNL     1      37.422 140.231  17.382  1.00  0.00     0.216 HD
ENDBRANCH  29  30
BRANCH  29  32
HETATM   32  O   UNL     1      39.691 139.900  17.589  1.00  0.00    -0.338 OA
ATOM     33  HO  UNL     1      39.167 139.219  17.995  1.00  0.00     0.216 HD
ENDBRANCH  29  32
BRANCH  29  34
HETATM   34  O   UNL     1      39.185 141.614  18.985  1.00  0.00    -0.338 OA
ATOM     35  HO  UNL     1      38.472 142.223  19.134  1.00  0.00     0.216 HD
ENDBRANCH  29  34
ENDBRANCH  25  29
ENDBRANCH  23  25
ENDBRANCH   6  23
TORSDOF 13
ENDMDL
MODEL 4
REMARK VINA RESULT:      -8.8      1.832      2.671
REMARK  13 active torsions:
REMARK  status: ('A' for Active; 'I' for Inactive)
REMARK    1  A    between atoms: C_1  and  C_12 
REMARK    2  A    between atoms: C_5  and  CA_10 
REMARK    3  A    between atoms: O_8  and  C_21 
REMARK    4  A    between atoms: CA_10  and  C_21 
REMARK    5  A    between atoms: CA_10  and  N_26 
REMARK    6  A    between atoms: C_12  and  C_19 
REMARK    7  A    between atoms: P_14  and  O_30 
REMARK    8  A    between atoms: P_14  and  O_31 
REMARK    9  A    between atoms: O_17  and  C_21 
REMARK   10  A    between atoms: C_21  and  O_24 
REMARK   11  A    between atoms: N_26  and  C_35 
REMARK   12  A    between atoms: O_30  and  P_32 
REMARK   13  A    between atoms: O_31  and  C_33 
ROOT
HETATM    1  C   UNL     1      42.216 147.646  24.256  1.00  0.00     0.003 C 
HETATM    2  C   UNL     1      42.747 146.662  23.430  1.00  0.00     0.029 C 
HETATM    3  C   UNL     1      41.100 148.619  22.356  1.00  0.00    -0.052 C 
HETATM    4  C   UNL     1      41.303 148.542  23.735  1.00  0.00     0.007 C 
HETATM    5  C   UNL     1      41.779 147.739  21.517  1.00  0.00     0.037 C 
HETATM    6  C   UNL     1      42.418 146.633  22.079  1.00  0.00     0.033 C 
ENDROOT
BRANCH   3   7
HETATM    7  C   UNL     1      40.097 149.614  21.834  1.00  0.00     0.077 C 
BRANCH   7   8
HETATM    8  C   UNL     1      39.003 149.077  20.941  1.00  0.00    -0.054 C 
HETATM    9  C   UNL     1      38.099 149.933  20.331  1.00  0.00     0.010 C 
HETATM   10  C   UNL     1      36.943 149.439  19.732  1.00  0.00     0.038 C 
HETATM   11  C   UNL     1      36.687 148.068  19.834  1.00  0.00     0.082 C 
HETATM   12  C   UNL     1      37.742 147.199  20.108  1.00  0.00     0.038 C 
HETATM   13  C   UNL     1      38.919 147.710  20.656  1.00  0.00     0.010 C 
BRANCH  11  14
HETATM   14  O   UNL     1      35.405 147.593  19.675  1.00  0.00    -0.247 OA
BRANCH  14  15
HETATM   15  P   UNL     1      34.612 146.900  20.857  1.00  0.00     0.423 P 
HETATM   16  O   UNL     1      35.487 146.019  21.680  1.00  0.00    -0.624 OA
HETATM   17  O   UNL     1      33.441 146.128  20.333  1.00  0.00    -0.624 OA
BRANCH  15  18
HETATM   18  O   UNL     1      34.069 148.103  21.730  1.00  0.00    -0.173 OA
BRANCH  18  19
HETATM   19  P   UNL     1      32.832 147.876  22.705  1.00  0.00     0.431 P 
HETATM   20  O   UNL     1      31.622 148.159  21.885  1.00  0.00    -0.616 OA
HETATM   21  O   UNL     1      33.000 148.746  23.907  1.00  0.00    -0.616 OA
HETATM   22  O   UNL     1      32.954 146.460  23.157  1.00  0.00    -0.616 OA
ENDBRANCH  18  19
ENDBRANCH  15  18
ENDBRANCH  14  15
ENDBRANCH  11  14
ENDBRANCH   7   8
ENDBRANCH   3   7
BRANCH   6  23
HETATM   23  N   UNL     1      42.638 145.525  21.287  1.00  0.00    -0.347 N 
ATOM     24  HN  UNL     1      42.430 144.611  21.688  1.00  0.00     0.166 HD
BRANCH  23  25
HETATM   25  CA  UNL     1      43.138 145.560  19.936  1.00  0.00     0.179 C 
BRANCH  25  26
HETATM   26  C   UNL     1      42.061 145.170  18.925  1.00  0.00     0.231 C 
HETATM   27  O   UNL     1      42.303 145.014  17.738  1.00  0.00    -0.643 OA
HETATM   28  OXT UNL     1      40.913 145.013  19.414  1.00  0.00    -0.643 OA
ENDBRANCH  25  26
BRANCH  25  29
HETATM   29  C   UNL     1      44.560 144.973  19.694  1.00  0.00     0.330 C 
BRANCH  29  30
HETATM   30  O   UNL     1      45.437 145.251  20.672  1.00  0.00    -0.338 OA
ATOM     31  HO  UNL     1      45.699 144.492  21.180  1.00  0.00     0.216 HD
ENDBRANCH  29  30
BRANCH  29  32
HETATM   32  O   UNL     1      44.357 143.609  19.569  1.00  0.00    -0.338 OA
ATOM     33  HO  UNL     1      45.068 143.193  19.096  1.00  0.00     0.216 HD
ENDBRANCH  29  32
BRANCH  29  34
HETATM   34  O   UNL     1      45.015 145.518  18.537  1.00  0.00    -0.338 OA
ATOM     35  HO  UNL     1      44.451 146.246  18.303  1.00  0.00     0.216 HD
ENDBRANCH  29  34
ENDBRANCH  25  29
ENDBRANCH  23  25
ENDBRANCH   6  23
TORSDOF 13
ENDMDL
MODEL 5
REMARK VINA RESULT:      -8.7      2.358      3.262
REMARK  13 active torsions:
REMARK  status: ('A' for Active; 'I' for Inactive)
REMARK    1  A    between atoms: C_1  and  C_12 
REMARK    2  A    between atoms: C_5  and  CA_10 
REMARK    3  A    between atoms: O_8  and  C_21 
REMARK    4  A    between atoms: CA_10  and  C_21 
REMARK    5  A    between atoms: CA_10  and  N_26 
REMARK    6  A    between atoms: C_12  and  C_19 
REMARK    7  A    between atoms: P_14  and  O_30 
REMARK    8  A    between atoms: P_14  and  O_31 
REMARK    9  A    between atoms: O_17  and  C_21 
REMARK   10  A    between atoms: C_21  and  O_24 
REMARK   11  A    between atoms: N_26  and  C_35 
REMARK   12  A    between atoms: O_30  and  P_32 
REMARK   13  A    between atoms: O_31  and  C_33 
ROOT
HETATM    1  C   UNL     1      41.826 150.482  22.962  1.00  0.00     0.003 C 
HETATM    2  C   UNL     1      42.865 149.581  22.755  1.00  0.00     0.029 C 
HETATM    3  C   UNL     1      40.861 149.828  20.853  1.00  0.00    -0.052 C 
HETATM    4  C   UNL     1      40.772 150.509  22.068  1.00  0.00     0.007 C 
HETATM    5  C   UNL     1      41.995 149.068  20.579  1.00  0.00     0.037 C 
HETATM    6  C   UNL     1      42.877 148.776  21.621  1.00  0.00     0.033 C 
ENDROOT
BRANCH   3   7
HETATM    7  C   UNL     1      39.688 149.890  19.910  1.00  0.00     0.077 C 
BRANCH   7   8
HETATM    8  C   UNL     1      38.460 149.097  20.293  1.00  0.00    -0.054 C 
HETATM    9  C   UNL     1      38.576 147.833  20.850  1.00  0.00     0.010 C 
HETATM   10  C   UNL     1      37.467 146.998  20.957  1.00  0.00     0.038 C 
HETATM   11  C   UNL     1      36.257 147.442  20.417  1.00  0.00     0.082 C 
HETATM   12  C   UNL     1      36.068 148.808  20.207  1.00  0.00     0.038 C 
HETATM   13  C   UNL     1      37.182 149.648  20.156  1.00  0.00     0.010 C 
BRANCH  11  14
HETATM   14  O   UNL     1      35.275 146.536  20.089  1.00  0.00    -0.247 OA
BRANCH  14  15
HETATM   15  P   UNL     1      33.999 146.312  21.001  1.00  0.00     0.423 P 
HETATM   16  O   UNL     1      33.926 144.925  21.536  1.00  0.00    -0.624 OA
HETATM   17  O   UNL     1      32.745 146.649  20.255  1.00  0.00    -0.624 OA
BRANCH  15  18
HETATM   18  O   UNL     1      34.171 147.349  22.184  1.00  0.00    -0.173 OA
BRANCH  18  19
HETATM   19  P   UNL     1      32.919 147.728  23.090  1.00  0.00     0.431 P 
HETATM   20  O   UNL     1      32.282 146.431  23.451  1.00  0.00    -0.616 OA
HETATM   21  O   UNL     1      32.045 148.673  22.333  1.00  0.00    -0.616 OA
HETATM   22  O   UNL     1      33.493 148.476  24.245  1.00  0.00    -0.616 OA
ENDBRANCH  18  19
ENDBRANCH  15  18
ENDBRANCH  14  15
ENDBRANCH  11  14
ENDBRANCH   7   8
ENDBRANCH   3   7
BRANCH   6  23
HETATM   23  N   UNL     1      43.679 147.659  21.514  1.00  0.00    -0.347 N 
ATOM     24  HN  UNL     1      44.429 147.552  22.196  1.00  0.00     0.166 HD
BRANCH  23  25
HETATM   25  CA  UNL     1      43.538 146.633  20.512  1.00  0.00     0.179 C 
BRANCH  25  26
HETATM   26  C   UNL     1      42.497 145.589  20.916  1.00  0.00     0.231 C 
HETATM   27  O   UNL     1      42.570 144.962  21.961  1.00  0.00    -0.643 OA
HETATM   28  OXT UNL     1      41.560 145.436  20.091  1.00  0.00    -0.643 OA
ENDBRANCH  25  26
BRANCH  25  29
HETATM   29  C   UNL     1      44.848 146.091  19.867  1.00  0.00     0.330 C 
BRANCH  29  30
HETATM   30  O   UNL     1      45.655 147.050  19.389  1.00  0.00    -0.338 OA
ATOM     31  HO  UNL     1      46.579 146.887  19.542  1.00  0.00     0.216 HD
ENDBRANCH  29  30
BRANCH  29  32
HETATM   32  O   UNL     1      45.461 145.370  20.878  1.00  0.00    -0.338 OA
ATOM     33  HO  UNL     1      45.422 145.831  21.707  1.00  0.00     0.216 HD
ENDBRANCH  29  32
BRANCH  29  34
HETATM   34  O   UNL     1      44.472 145.288  18.839  1.00  0.00    -0.338 OA
ATOM     35  HO  UNL     1      45.046 145.453  18.100  1.00  0.00     0.216 HD
ENDBRANCH  29  34
ENDBRANCH  25  29
ENDBRANCH  23  25
ENDBRANCH   6  23
TORSDOF 13
ENDMDL
MODEL 6
REMARK VINA RESULT:      -8.6      3.373      7.853
REMARK  13 active torsions:
REMARK  status: ('A' for Active; 'I' for Inactive)
REMARK    1  A    between atoms: C_1  and  C_12 
REMARK    2  A    between atoms: C_5  and  CA_10 
REMARK    3  A    between atoms: O_8  and  C_21 
REMARK    4  A    between atoms: CA_10  and  C_21 
REMARK    5  A    between atoms: CA_10  and  N_26 
REMARK    6  A    between atoms: C_12  and  C_19 
REMARK    7  A    between atoms: P_14  and  O_30 
REMARK    8  A    between atoms: P_14  and  O_31 
REMARK    9  A    between atoms: O_17  and  C_21 
REMARK   10  A    between atoms: C_21  and  O_24 
REMARK   11  A    between atoms: N_26  and  C_35 
REMARK   12  A    between atoms: O_30  and  P_32 
REMARK   13  A    between atoms: O_31  and  C_33 
ROOT
HETATM    1  C   UNL     1      40.260 146.209  22.890  1.00  0.00     0.003 C 
HETATM    2  C   UNL     1      39.037 146.365  22.247  1.00  0.00     0.029 C 
HETATM    3  C   UNL     1      41.343 146.000  20.749  1.00  0.00    -0.052 C 
HETATM    4  C   UNL     1      41.415 146.149  22.135  1.00  0.00     0.007 C 
HETATM    5  C   UNL     1      40.097 145.977  20.129  1.00  0.00     0.037 C 
HETATM    6  C   UNL     1      38.977 146.383  20.857  1.00  0.00     0.033 C 
ENDROOT
BRANCH   3   7
HETATM    7  C   UNL     1      42.630 145.935  19.968  1.00  0.00     0.077 C 
BRANCH   7   8
HETATM    8  C   UNL     1      42.593 145.194  18.652  1.00  0.00    -0.054 C 
HETATM    9  C   UNL     1      41.827 145.660  17.594  1.00  0.00     0.010 C 
HETATM   10  C   UNL     1      41.578 144.855  16.486  1.00  0.00     0.038 C 
HETATM   11  C   UNL     1      42.058 143.543  16.508  1.00  0.00     0.082 C 
HETATM   12  C   UNL     1      43.104 143.216  17.370  1.00  0.00     0.038 C 
HETATM   13  C   UNL     1      43.384 144.058  18.448  1.00  0.00     0.010 C 
BRANCH  11  14
HETATM   14  O   UNL     1      41.491 142.588  15.694  1.00  0.00    -0.247 OA
BRANCH  14  15
HETATM   15  P   UNL     1      39.930 142.521  15.438  1.00  0.00     0.423 P 
HETATM   16  O   UNL     1      39.524 143.290  14.230  1.00  0.00    -0.624 OA
HETATM   17  O   UNL     1      39.173 143.000  16.639  1.00  0.00    -0.624 OA
BRANCH  15  18
HETATM   18  O   UNL     1      39.627 140.981  15.237  1.00  0.00    -0.173 OA
BRANCH  18  19
HETATM   19  P   UNL     1      39.321 140.065  16.502  1.00  0.00     0.431 P 
HETATM   20  O   UNL     1      39.515 138.665  16.035  1.00  0.00    -0.616 OA
HETATM   21  O   UNL     1      37.951 140.380  17.005  1.00  0.00    -0.616 OA
HETATM   22  O   UNL     1      40.292 140.509  17.543  1.00  0.00    -0.616 OA
ENDBRANCH  18  19
ENDBRANCH  15  18
ENDBRANCH  14  15
ENDBRANCH  11  14
ENDBRANCH   7   8
ENDBRANCH   3   7
BRANCH   6  23
HETATM   23  N   UNL     1      37.876 146.849  20.170  1.00  0.00    -0.347 N 
ATOM     24  HN  UNL     1      37.820 146.640  19.173  1.00  0.00     0.166 HD
BRANCH  23  25
HETATM   25  CA  UNL     1      36.799 147.610  20.751  1.00  0.00     0.179 C 
BRANCH  25  26
HETATM   26  C   UNL     1      35.490 146.821  20.757  1.00  0.00     0.231 C 
HETATM   27  O   UNL     1      35.175 146.081  21.677  1.00  0.00    -0.643 OA
HETATM   28  OXT UNL     1      34.764 147.001  19.747  1.00  0.00    -0.643 OA
ENDBRANCH  25  26
BRANCH  25  29
HETATM   29  C   UNL     1      36.699 149.112  20.353  1.00  0.00     0.330 C 
BRANCH  29  30
HETATM   30  O   UNL     1      35.496 149.658  20.589  1.00  0.00    -0.338 OA
ATOM     31  HO  UNL     1      35.328 149.835  21.508  1.00  0.00     0.216 HD
ENDBRANCH  29  30
BRANCH  29  32
HETATM   32  O   UNL     1      37.692 149.734  21.089  1.00  0.00    -0.338 OA
ATOM     33  HO  UNL     1      38.530 149.700  20.642  1.00  0.00     0.216 HD
ENDBRANCH  29  32
BRANCH  29  34
HETATM   34  O   UNL     1      36.950 149.178  19.020  1.00  0.00    -0.338 OA
ATOM     35  HO  UNL     1      36.517 148.448  18.594  1.00  0.00     0.216 HD
ENDBRANCH  29  34
ENDBRANCH  25  29
ENDBRANCH  23  25
ENDBRANCH   6  23
TORSDOF 13
ENDMDL
MODEL 7
REMARK VINA RESULT:      -8.6      3.433      7.913
REMARK  13 active torsions:
REMARK  status: ('A' for Active; 'I' for Inactive)
REMARK    1  A    between atoms: C_1  and  C_12 
REMARK    2  A    between atoms: C_5  and  CA_10 
REMARK    3  A    between atoms: O_8  and  C_21 
REMARK    4  A    between atoms: CA_10  and  C_21 
REMARK    5  A    between atoms: CA_10  and  N_26 
REMARK    6  A    between atoms: C_12  and  C_19 
REMARK    7  A    between atoms: P_14  and  O_30 
REMARK    8  A    between atoms: P_14  and  O_31 
REMARK    9  A    between atoms: O_17  and  C_21 
REMARK   10  A    between atoms: C_21  and  O_24 
REMARK   11  A    between atoms: N_26  and  C_35 
REMARK   12  A    between atoms: O_30  and  P_32 
REMARK   13  A    between atoms: O_31  and  C_33 
ROOT
HETATM    1  C   UNL     1      41.373 150.244  19.500  1.00  0.00     0.003 C 
HETATM    2  C   UNL     1      40.069 150.352  19.969  1.00  0.00     0.029 C 
HETATM    3  C   UNL     1      41.692 148.295  20.880  1.00  0.00    -0.052 C 
HETATM    4  C   UNL     1      42.132 149.148  19.867  1.00  0.00     0.007 C 
HETATM    5  C   UNL     1      40.453 148.521  21.472  1.00  0.00     0.037 C 
HETATM    6  C   UNL     1      39.566 149.407  20.858  1.00  0.00     0.033 C 
ENDROOT
BRANCH   3   7
HETATM    7  C   UNL     1      42.556 147.116  21.249  1.00  0.00     0.077 C 
BRANCH   7   8
HETATM    8  C   UNL     1      42.602 145.970  20.265  1.00  0.00    -0.054 C 
HETATM    9  C   UNL     1      43.691 145.112  20.224  1.00  0.00     0.010 C 
HETATM   10  C   UNL     1      43.862 144.231  19.160  1.00  0.00     0.038 C 
HETATM   11  C   UNL     1      42.949 144.292  18.104  1.00  0.00     0.082 C 
HETATM   12  C   UNL     1      41.698 144.869  18.321  1.00  0.00     0.038 C 
HETATM   13  C   UNL     1      41.518 145.708  19.422  1.00  0.00     0.010 C 
BRANCH  11  14
HETATM   14  O   UNL     1      43.293 143.797  16.866  1.00  0.00    -0.247 OA
BRANCH  14  15
HETATM   15  P   UNL     1      42.302 142.902  16.015  1.00  0.00     0.423 P 
HETATM   16  O   UNL     1      43.017 141.839  15.254  1.00  0.00    -0.624 OA
HETATM   17  O   UNL     1      41.486 143.747  15.085  1.00  0.00    -0.624 OA
BRANCH  15  18
HETATM   18  O   UNL     1      41.333 142.255  17.084  1.00  0.00    -0.173 OA
BRANCH  18  19
HETATM   19  P   UNL     1      39.896 141.739  16.637  1.00  0.00     0.431 P 
HETATM   20  O   UNL     1      39.544 140.659  17.599  1.00  0.00    -0.616 OA
HETATM   21  O   UNL     1      39.959 141.317  15.206  1.00  0.00    -0.616 OA
HETATM   22  O   UNL     1      39.016 142.941  16.710  1.00  0.00    -0.616 OA
ENDBRANCH  18  19
ENDBRANCH  15  18
ENDBRANCH  14  15
ENDBRANCH  11  14
ENDBRANCH   7   8
ENDBRANCH   3   7
BRANCH   6  23
HETATM   23  N   UNL     1      38.216 149.267  21.104  1.00  0.00    -0.347 N 
ATOM     24  HN  UNL     1      37.874 149.546  22.023  1.00  0.00     0.166 HD
BRANCH  23  25
HETATM   25  CA  UNL     1      37.252 148.756  20.163  1.00  0.00     0.179 C 
BRANCH  25  26
HETATM   26  C   UNL     1      36.042 149.680  20.037  1.00  0.00     0.231 C 
HETATM   27  O   UNL     1      34.966 149.425  20.554  1.00  0.00    -0.643 OA
HETATM   28  OXT UNL     1      36.247 150.725  19.368  1.00  0.00    -0.643 OA
ENDBRANCH  25  26
BRANCH  25  29
HETATM   29  C   UNL     1      36.953 147.228  20.216  1.00  0.00     0.330 C 
BRANCH  29  30
HETATM   30  O   UNL     1      36.357 146.831  21.351  1.00  0.00    -0.338 OA
ATOM     31  HO  UNL     1      36.950 146.747  22.089  1.00  0.00     0.216 HD
ENDBRANCH  29  30
BRANCH  29  32
HETATM   32  O   UNL     1      36.152 146.991  19.112  1.00  0.00    -0.338 OA
ATOM     33  HO  UNL     1      36.549 147.324  18.316  1.00  0.00     0.216 HD
ENDBRANCH  29  32
BRANCH  29  34
HETATM   34  O   UNL     1      38.149 146.594  20.110  1.00  0.00    -0.338 OA
ATOM     35  HO  UNL     1      38.285 146.355  19.201  1.00  0.00     0.216 HD
ENDBRANCH  29  34
ENDBRANCH  25  29
ENDBRANCH  23  25
ENDBRANCH   6  23
TORSDOF 13
ENDMDL
MODEL 8
REMARK VINA RESULT:      -8.5      3.761      7.749
REMARK  13 active torsions:
REMARK  status: ('A' for Active; 'I' for Inactive)
REMARK    1  A    between atoms: C_1  and  C_12 
REMARK    2  A    between atoms: C_5  and  CA_10 
REMARK    3  A    between atoms: O_8  and  C_21 
REMARK    4  A    between atoms: CA_10  and  C_21 
REMARK    5  A    between atoms: CA_10  and  N_26 
REMARK    6  A    between atoms: C_12  and  C_19 
REMARK    7  A    between atoms: P_14  and  O_30 
REMARK    8  A    between atoms: P_14  and  O_31 
REMARK    9  A    between atoms: O_17  and  C_21 
REMARK   10  A    between atoms: C_21  and  O_24 
REMARK   11  A    between atoms: N_26  and  C_35 
REMARK   12  A    between atoms: O_30  and  P_32 
REMARK   13  A    between atoms: O_31  and  C_33 
ROOT
HETATM    1  C   UNL     1      41.509 150.719  19.418  1.00  0.00     0.003 C 
HETATM    2  C   UNL     1      40.218 150.466  19.867  1.00  0.00     0.029 C 
HETATM    3  C   UNL     1      42.372 149.243  21.115  1.00  0.00    -0.052 C 
HETATM    4  C   UNL     1      42.563 150.012  19.966  1.00  0.00     0.007 C 
HETATM    5  C   UNL     1      41.097 149.142  21.665  1.00  0.00     0.037 C 
HETATM    6  C   UNL     1      40.004 149.570  20.909  1.00  0.00     0.033 C 
ENDROOT
BRANCH   3   7
HETATM    7  C   UNL     1      43.551 148.495  21.680  1.00  0.00     0.077 C 
BRANCH   7   8
HETATM    8  C   UNL     1      43.795 147.102  21.147  1.00  0.00    -0.054 C 
HETATM    9  C   UNL     1      44.790 146.863  20.211  1.00  0.00     0.010 C 
HETATM   10  C   UNL     1      44.845 145.653  19.524  1.00  0.00     0.038 C 
HETATM   11  C   UNL     1      43.827 144.723  19.751  1.00  0.00     0.082 C 
HETATM   12  C   UNL     1      43.074 144.812  20.921  1.00  0.00     0.038 C 
HETATM   13  C   UNL     1      43.068 146.012  21.635  1.00  0.00     0.010 C 
BRANCH  11  14
HETATM   14  O   UNL     1      43.570 143.742  18.820  1.00  0.00    -0.247 OA
BRANCH  14  15
HETATM   15  P   UNL     1      42.653 144.003  17.555  1.00  0.00     0.423 P 
HETATM   16  O   UNL     1      43.341 143.656  16.281  1.00  0.00    -0.624 OA
HETATM   17  O   UNL     1      42.183 145.425  17.522  1.00  0.00    -0.624 OA
BRANCH  15  18
HETATM   18  O   UNL     1      41.399 143.065  17.775  1.00  0.00    -0.173 OA
BRANCH  18  19
HETATM   19  P   UNL     1      40.523 142.612  16.526  1.00  0.00     0.431 P 
HETATM   20  O   UNL     1      40.396 143.822  15.668  1.00  0.00    -0.616 OA
HETATM   21  O   UNL     1      39.232 142.048  17.021  1.00  0.00    -0.616 OA
HETATM   22  O   UNL     1      41.290 141.493  15.905  1.00  0.00    -0.616 OA
ENDBRANCH  18  19
ENDBRANCH  15  18
ENDBRANCH  14  15
ENDBRANCH  11  14
ENDBRANCH   7   8
ENDBRANCH   3   7
BRANCH   6  23
HETATM   23  N   UNL     1      38.762 149.036  21.183  1.00  0.00    -0.347 N 
ATOM     24  HN  UNL     1      38.194 149.504  21.889  1.00  0.00     0.166 HD
BRANCH  23  25
HETATM   25  CA  UNL     1      38.206 147.867  20.549  1.00  0.00     0.179 C 
BRANCH  25  26
HETATM   26  C   UNL     1      36.981 148.212  19.704  1.00  0.00     0.231 C 
HETATM   27  O   UNL     1      36.432 147.395  18.982  1.00  0.00    -0.643 OA
HETATM   28  OXT UNL     1      36.580 149.399  19.820  1.00  0.00    -0.643 OA
ENDBRANCH  25  26
BRANCH  25  29
HETATM   29  C   UNL     1      38.111 146.574  21.411  1.00  0.00     0.330 C 
BRANCH  29  30
HETATM   30  O   UNL     1      38.786 145.531  20.903  1.00  0.00    -0.338 OA
ATOM     31  HO  UNL     1      38.255 144.752  20.781  1.00  0.00     0.216 HD
ENDBRANCH  29  30
BRANCH  29  32
HETATM   32  O   UNL     1      38.606 146.943  22.650  1.00  0.00    -0.338 OA
ATOM     33  HO  UNL     1      39.192 146.283  23.002  1.00  0.00     0.216 HD
ENDBRANCH  29  32
BRANCH  29  34
HETATM   34  O   UNL     1      36.795 146.247  21.478  1.00  0.00    -0.338 OA
ATOM     35  HO  UNL     1      36.321 146.976  21.861  1.00  0.00     0.216 HD
ENDBRANCH  29  34
ENDBRANCH  25  29
ENDBRANCH  23  25
ENDBRANCH   6  23
TORSDOF 13
ENDMDL
MODEL 9
REMARK VINA RESULT:      -8.4      2.246      3.398
REMARK  13 active torsions:
REMARK  status: ('A' for Active; 'I' for Inactive)
REMARK    1  A    between atoms: C_1  and  C_12 
REMARK    2  A    between atoms: C_5  and  CA_10 
REMARK    3  A    between atoms: O_8  and  C_21 
REMARK    4  A    between atoms: CA_10  and  C_21 
REMARK    5  A    between atoms: CA_10  and  N_26 
REMARK    6  A    between atoms: C_12  and  C_19 
REMARK    7  A    between atoms: P_14  and  O_30 
REMARK    8  A    between atoms: P_14  and  O_31 
REMARK    9  A    between atoms: O_17  and  C_21 
REMARK   10  A    between atoms: C_21  and  O_24 
REMARK   11  A    between atoms: N_26  and  C_35 
REMARK   12  A    between atoms: O_30  and  P_32 
REMARK   13  A    between atoms: O_31  and  C_33 
ROOT
HETATM    1  C   UNL     1      43.243 150.189  20.834  1.00  0.00     0.003 C 
HETATM    2  C   UNL     1      43.662 148.878  21.037  1.00  0.00     0.029 C 
HETATM    3  C   UNL     1      40.979 149.409  20.576  1.00  0.00    -0.052 C 
HETATM    4  C   UNL     1      41.892 150.455  20.727  1.00  0.00     0.007 C 
HETATM    5  C   UNL     1      41.436 148.095  20.602  1.00  0.00     0.037 C 
HETATM    6  C   UNL     1      42.733 147.843  21.054  1.00  0.00     0.033 C 
ENDROOT
BRANCH   3   7
HETATM    7  C   UNL     1      39.515 149.748  20.458  1.00  0.00     0.077 C 
BRANCH   7   8
HETATM    8  C   UNL     1      38.547 148.590  20.423  1.00  0.00    -0.054 C 
HETATM    9  C   UNL     1      37.567 148.511  19.445  1.00  0.00     0.010 C 
HETATM   10  C   UNL     1      36.517 147.603  19.560  1.00  0.00     0.038 C 
HETATM   11  C   UNL     1      36.442 146.833  20.724  1.00  0.00     0.082 C 
HETATM   12  C   UNL     1      37.588 146.655  21.496  1.00  0.00     0.038 C 
HETATM   13  C   UNL     1      38.659 147.536  21.336  1.00  0.00     0.010 C 
BRANCH  11  14
HETATM   14  O   UNL     1      35.243 146.270  21.100  1.00  0.00    -0.247 OA
BRANCH  14  15
HETATM   15  P   UNL     1      33.907 147.117  21.187  1.00  0.00     0.423 P 
HETATM   16  O   UNL     1      33.018 146.887  20.014  1.00  0.00    -0.624 OA
HETATM   17  O   UNL     1      34.210 148.577  21.332  1.00  0.00    -0.624 OA
BRANCH  15  18
HETATM   18  O   UNL     1      33.206 146.617  22.514  1.00  0.00    -0.173 OA
BRANCH  18  19
HETATM   19  P   UNL     1      32.336 147.631  23.377  1.00  0.00     0.431 P 
HETATM   20  O   UNL     1      31.746 148.584  22.397  1.00  0.00    -0.616 OA
HETATM   21  O   UNL     1      33.211 148.253  24.416  1.00  0.00    -0.616 OA
HETATM   22  O   UNL     1      31.339 146.777  24.085  1.00  0.00    -0.616 OA
ENDBRANCH  18  19
ENDBRANCH  15  18
ENDBRANCH  14  15
ENDBRANCH  11  14
ENDBRANCH   7   8
ENDBRANCH   3   7
BRANCH   6  23
HETATM   23  N   UNL     1      43.024 146.595  21.562  1.00  0.00    -0.347 N 
ATOM     24  HN  UNL     1      42.628 146.352  22.469  1.00  0.00     0.166 HD
BRANCH  23  25
HETATM   25  CA  UNL     1      43.845 145.607  20.909  1.00  0.00     0.179 C 
BRANCH  25  26
HETATM   26  C   UNL     1      45.294 146.075  20.775  1.00  0.00     0.231 C 
HETATM   27  O   UNL     1      45.912 146.565  21.707  1.00  0.00    -0.643 OA
HETATM   28  OXT UNL     1      45.797 145.907  19.635  1.00  0.00    -0.643 OA
ENDBRANCH  25  26
BRANCH  25  29
HETATM   29  C   UNL     1      43.234 144.887  19.670  1.00  0.00     0.330 C 
BRANCH  29  30
HETATM   30  O   UNL     1      43.344 145.583  18.528  1.00  0.00    -0.338 OA
ATOM     31  HO  UNL     1      42.597 146.140  18.343  1.00  0.00     0.216 HD
ENDBRANCH  29  30
BRANCH  29  32
HETATM   32  O   UNL     1      43.912 143.682  19.597  1.00  0.00    -0.338 OA
ATOM     33  HO  UNL     1      44.824 143.810  19.365  1.00  0.00     0.216 HD
ENDBRANCH  29  32
BRANCH  29  34
HETATM   34  O   UNL     1      41.916 144.702  19.939  1.00  0.00    -0.338 OA
ATOM     35  HO  UNL     1      41.754 143.771  20.033  1.00  0.00     0.216 HD
ENDBRANCH  29  34
ENDBRANCH  25  29
ENDBRANCH  23  25
ENDBRANCH   6  23
TORSDOF 13
ENDMDL
