REMARK  8 active torsions:
REMARK  status: ('A' for Active; 'I' for Inactive)
REMARK    1  A    between atoms: C_1  and  C_8 
REMARK    2  A    between atoms: P_4  and  C_21 
REMARK    3  A    between atoms: P_4  and  O_31 
REMARK    4  A    between atoms: C_6  and  C_11 
REMARK    5  A    between atoms: C_7  and  O_9 
REMARK    6  A    between atoms: C_8  and  O_31 
REMARK    7  A    between atoms: C_12  and  P_33 
REMARK    8  A    between atoms: O_19  and  C_30 
ROOT
HETATM    1  C   UNL     1      39.798 146.162  20.611  1.00  0.00    -0.033 C 
HETATM    2  C   UNL     1      40.742 144.985  18.733  1.00  0.00    -0.029 C 
HETATM    3  C   UNL     1      42.016 146.706  19.862  1.00  0.00     0.001 C 
HETATM    4  C   UNL     1      39.672 145.239  19.583  1.00  0.00     0.021 C 
HETATM    5  C   UNL     1      41.923 145.694  18.915  1.00  0.00     0.012 C 
HETATM    6  C   UNL     1      40.920 146.977  20.673  1.00  0.00     0.009 C 
ENDROOT
BRANCH   1   7
HETATM    7  C   UNL     1      38.731 146.271  21.684  1.00  0.00     0.217 C 
BRANCH   7   8
HETATM    8  O   UNL     1      37.431 146.187  21.127  1.00  0.00    -0.307 OA
BRANCH   8   9
HETATM    9  P   UNL     1      36.594 147.341  20.428  1.00  0.00     0.256 P 
HETATM   10  O   UNL     1      37.183 148.652  20.720  1.00  0.00    -0.646 OA
HETATM   11  O   UNL     1      36.404 147.018  18.988  1.00  0.00    -0.646 OA
BRANCH   9  12
HETATM   12  C   UNL     1      35.116 147.098  21.233  1.00  0.00     0.136 C 
HETATM   13  C   UNL     1      34.635 145.709  21.528  1.00  0.00     0.135 C 
HETATM   14  C   UNL     1      33.564 145.876  22.592  1.00  0.00     0.051 C 
HETATM   15  C   UNL     1      32.948 147.228  22.276  1.00  0.00     0.119 C 
HETATM   16  C   UNL     1      34.089 148.078  21.733  1.00  0.00     0.038 C 
BRANCH  13  17
HETATM   17  O   UNL     1      33.972 145.093  20.453  1.00  0.00    -0.395 OA
ATOM     18  HO  UNL     1      33.667 144.213  20.640  1.00  0.00     0.210 HD
ENDBRANCH  13  17
BRANCH  15  19
HETATM   19  P   UNL     1      32.213 147.855  23.794  1.00  0.00     0.264 P 
HETATM   20  O   UNL     1      33.338 148.234  24.665  1.00  0.00    -0.639 OA
HETATM   21  O   UNL     1      31.317 148.986  23.405  1.00  0.00    -0.639 OA
HETATM   22  O   UNL     1      31.357 146.701  24.276  1.00  0.00    -0.639 OA
ENDBRANCH  15  19
ENDBRANCH   9  12
ENDBRANCH   8   9
ENDBRANCH   7   8
ENDBRANCH   1   7
BRANCH   2  23
HETATM   23  C   UNL     1      40.715 143.932  17.661  1.00  0.00    -0.037 C 
HETATM   24  C   UNL     1      39.983 142.624  17.557  1.00  0.00    -0.023 C 
HETATM   25  C   UNL     1      40.587 141.849  16.548  1.00  0.00    -0.044 C 
HETATM   26  C   UNL     1      38.920 142.125  18.281  1.00  0.00     0.015 C 
HETATM   27  C   UNL     1      40.079 140.605  16.240  1.00  0.00     0.044 C 
HETATM   28  C   UNL     1      41.866 142.461  16.092  1.00  0.00     0.044 C 
HETATM   29  C   UNL     1      38.870 140.200  16.808  1.00  0.00     0.066 C 
HETATM   30  C   UNL     1      38.367 140.905  17.903  1.00  0.00     0.037 C 
HETATM   31  C   UNL     1      41.933 143.817  16.775  1.00  0.00     0.045 C 
BRANCH  29  32
HETATM   32  O   UNL     1      38.207 139.172  16.225  1.00  0.00    -0.361 OA
ATOM     33  HO  UNL     1      38.549 138.692  15.480  1.00  0.00     0.217 HD
ENDBRANCH  29  32
ENDBRANCH   2  23
TORSDOF 8
