MODEL 1
REMARK VINA RESULT:      -4.5      0.000      0.000
REMARK  3 active torsions:
REMARK  status: ('A' for Active; 'I' for Inactive)
REMARK    1  A    between atoms: O_1  and  C_8 
REMARK    2  A    between atoms: C_3  and  C_18 
REMARK    3  A    between atoms: C_8  and  O_13 
ROOT
HETATM    1  C   UNL     1     -36.279 -16.908 -13.222  1.00  0.00     0.248 C 
HETATM    2  C   UNL     1     -35.390 -15.729 -13.071  1.00  0.00     0.169 C 
HETATM    3  C   UNL     1     -36.276 -14.541 -12.974  1.00  0.00     0.183 C 
HETATM    4  C   UNL     1     -37.649 -15.197 -13.112  1.00  0.00     0.285 C 
HETATM    5  O   UNL     1     -37.506 -16.527 -12.608  1.00  0.00    -0.313 OA
HETATM    6  O   UNL     1     -34.192 -15.814 -12.786  1.00  0.00    -0.294 OA
ENDROOT
BRANCH   1   7
HETATM    7  C   UNL     1     -35.727 -18.150 -12.648  1.00  0.00     0.065 C 
HETATM    8  N   UNL     1     -35.357 -18.116 -11.332  1.00  0.00    -0.308 N 
HETATM    9  C   UNL     1     -35.279 -19.374 -10.904  1.00  0.00     0.324 C 
ATOM     10  HN  UNL     1     -35.174 -17.278 -10.779  1.00  0.00     0.170 HD
HETATM   11  O   UNL     1     -35.081 -19.756  -9.755  1.00  0.00    -0.247 OA
HETATM   12  N   UNL     1     -35.838 -20.184 -11.822  1.00  0.00    -0.317 N 
HETATM   13  C   UNL     1     -36.033 -19.443 -12.956  1.00  0.00     0.121 C 
ATOM     14  HN  UNL     1     -36.073 -21.169 -11.697  1.00  0.00     0.170 HD
ENDBRANCH   1   7
BRANCH   4  15
HETATM   15  O   UNL     1     -37.900 -15.375 -14.479  1.00  0.00    -0.343 OA
ATOM     16  HO  UNL     1     -37.579 -16.235 -14.721  1.00  0.00     0.215 HD
ENDBRANCH   4  15
BRANCH   4  17
HETATM   17  O   UNL     1     -38.645 -14.504 -12.496  1.00  0.00    -0.343 OA
ATOM     18  HO  UNL     1     -39.412 -15.044 -12.343  1.00  0.00     0.215 HD
ENDBRANCH   4  17
TORSDOF 3
ENDMDL
MODEL 2
REMARK VINA RESULT:      -4.2      2.487      4.433
REMARK  3 active torsions:
REMARK  status: ('A' for Active; 'I' for Inactive)
REMARK    1  A    between atoms: O_1  and  C_8 
REMARK    2  A    between atoms: C_3  and  C_18 
REMARK    3  A    between atoms: C_8  and  O_13 
ROOT
HETATM    1  C   UNL     1     -37.410 -18.128 -13.289  1.00  0.00     0.248 C 
HETATM    2  C   UNL     1     -37.168 -19.303 -12.415  1.00  0.00     0.169 C 
HETATM    3  C   UNL     1     -37.210 -20.500 -13.295  1.00  0.00     0.183 C 
HETATM    4  C   UNL     1     -37.512 -19.850 -14.644  1.00  0.00     0.285 C 
HETATM    5  O   UNL     1     -36.968 -18.530 -14.582  1.00  0.00    -0.313 OA
HETATM    6  O   UNL     1     -36.728 -19.215 -11.265  1.00  0.00    -0.294 OA
ENDROOT
BRANCH   1   7
HETATM    7  C   UNL     1     -36.746 -16.894 -12.828  1.00  0.00     0.065 C 
HETATM    8  N   UNL     1     -35.389 -16.941 -12.670  1.00  0.00    -0.308 N 
HETATM    9  C   UNL     1     -34.942 -15.686 -12.655  1.00  0.00     0.324 C 
ATOM     10  HN  UNL     1     -34.821 -17.784 -12.580  1.00  0.00     0.170 HD
HETATM   11  O   UNL     1     -33.773 -15.315 -12.638  1.00  0.00    -0.247 OA
HETATM   12  N   UNL     1     -35.930 -14.866 -13.059  1.00  0.00    -0.317 N 
HETATM   13  C   UNL     1     -37.086 -15.596 -13.077  1.00  0.00     0.121 C 
ATOM     14  HN  UNL     1     -35.834 -13.881 -13.306  1.00  0.00     0.170 HD
ENDBRANCH   1   7
BRANCH   4  15
HETATM   15  O   UNL     1     -38.897 -19.647 -14.718  1.00  0.00    -0.343 OA
ATOM     16  HO  UNL     1     -39.313 -20.299 -14.167  1.00  0.00     0.215 HD
ENDBRANCH   4  15
BRANCH   4  17
HETATM   17  O   UNL     1     -37.045 -20.563 -15.705  1.00  0.00    -0.343 OA
ATOM     18  HO  UNL     1     -37.526 -21.372 -15.831  1.00  0.00     0.215 HD
ENDBRANCH   4  17
TORSDOF 3
ENDMDL
MODEL 3
REMARK VINA RESULT:      -4.2      4.654      5.511
REMARK  3 active torsions:
REMARK  status: ('A' for Active; 'I' for Inactive)
REMARK    1  A    between atoms: O_1  and  C_8 
REMARK    2  A    between atoms: C_3  and  C_18 
REMARK    3  A    between atoms: C_8  and  O_13 
ROOT
HETATM    1  C   UNL     1     -33.287 -14.843  -8.651  1.00  0.00     0.248 C 
HETATM    2  C   UNL     1     -34.305 -13.819  -8.307  1.00  0.00     0.169 C 
HETATM    3  C   UNL     1     -34.475 -12.970  -9.514  1.00  0.00     0.183 C 
HETATM    4  C   UNL     1     -33.466 -13.617 -10.462  1.00  0.00     0.285 C 
HETATM    5  O   UNL     1     -33.369 -14.987 -10.065  1.00  0.00    -0.313 OA
HETATM    6  O   UNL     1     -35.039 -13.897  -7.317  1.00  0.00    -0.294 OA
ENDROOT
BRANCH   1   7
HETATM    7  C   UNL     1     -33.468 -16.126  -7.945  1.00  0.00     0.065 C 
HETATM    8  N   UNL     1     -33.466 -16.088  -6.579  1.00  0.00    -0.308 N 
HETATM    9  C   UNL     1     -34.031 -17.213  -6.145  1.00  0.00     0.324 C 
ATOM     10  HN  UNL     1     -33.098 -15.335  -5.997  1.00  0.00     0.170 HD
HETATM   11  O   UNL     1     -34.310 -17.506  -4.986  1.00  0.00    -0.247 OA
HETATM   12  N   UNL     1     -34.622 -17.834  -7.183  1.00  0.00    -0.317 N 
HETATM   13  C   UNL     1     -34.195 -17.216  -8.326  1.00  0.00     0.121 C 
ATOM     14  HN  UNL     1     -35.269 -18.621  -7.128  1.00  0.00     0.170 HD
ENDBRANCH   1   7
BRANCH   4  15
HETATM   15  O   UNL     1     -32.204 -13.085 -10.166  1.00  0.00    -0.343 OA
ATOM     16  HO  UNL     1     -32.158 -12.220 -10.555  1.00  0.00     0.215 HD
ENDBRANCH   4  15
BRANCH   4  17
HETATM   17  O   UNL     1     -33.786 -13.470 -11.776  1.00  0.00    -0.343 OA
ATOM     18  HO  UNL     1     -33.972 -12.565 -11.999  1.00  0.00     0.215 HD
ENDBRANCH   4  17
TORSDOF 3
ENDMDL
MODEL 4
REMARK VINA RESULT:      -4.1      2.568      4.622
REMARK  3 active torsions:
REMARK  status: ('A' for Active; 'I' for Inactive)
REMARK    1  A    between atoms: O_1  and  C_8 
REMARK    2  A    between atoms: C_3  and  C_18 
REMARK    3  A    between atoms: C_8  and  O_13 
ROOT
HETATM    1  C   UNL     1     -37.076 -17.566 -13.110  1.00  0.00     0.248 C 
HETATM    2  C   UNL     1     -36.117 -18.422 -12.368  1.00  0.00     0.169 C 
HETATM    3  C   UNL     1     -36.116 -19.743 -13.047  1.00  0.00     0.183 C 
HETATM    4  C   UNL     1     -37.147 -19.498 -14.147  1.00  0.00     0.285 C 
HETATM    5  O   UNL     1     -37.102 -18.097 -14.431  1.00  0.00    -0.313 OA
HETATM    6  O   UNL     1     -35.297 -17.979 -11.557  1.00  0.00    -0.294 OA
ENDROOT
BRANCH   1   7
HETATM    7  C   UNL     1     -36.735 -16.130 -13.090  1.00  0.00     0.065 C 
HETATM    8  N   UNL     1     -35.456 -15.791 -13.432  1.00  0.00    -0.308 N 
HETATM    9  C   UNL     1     -35.454 -14.497 -13.747  1.00  0.00     0.324 C 
ATOM     10  HN  UNL     1     -34.649 -16.416 -13.444  1.00  0.00     0.170 HD
HETATM   11  O   UNL     1     -34.521 -13.846 -14.205  1.00  0.00    -0.247 OA
HETATM   12  N   UNL     1     -36.726 -14.075 -13.868  1.00  0.00    -0.317 N 
HETATM   13  C   UNL     1     -37.533 -15.059 -13.367  1.00  0.00     0.121 C 
ATOM     14  HN  UNL     1     -37.032 -13.185 -14.261  1.00  0.00     0.170 HD
ENDBRANCH   1   7
BRANCH   4  15
HETATM   15  O   UNL     1     -38.418 -19.694 -13.590  1.00  0.00    -0.343 OA
ATOM     16  HO  UNL     1     -38.770 -20.498 -13.953  1.00  0.00     0.215 HD
ENDBRANCH   4  15
BRANCH   4  17
HETATM   17  O   UNL     1     -36.952 -20.266 -15.254  1.00  0.00    -0.343 OA
ATOM     18  HO  UNL     1     -36.343 -19.864 -15.863  1.00  0.00     0.215 HD
ENDBRANCH   4  17
TORSDOF 3
ENDMDL
MODEL 5
REMARK VINA RESULT:      -4.1      2.009      2.508
REMARK  3 active torsions:
REMARK  status: ('A' for Active; 'I' for Inactive)
REMARK    1  A    between atoms: O_1  and  C_8 
REMARK    2  A    between atoms: C_3  and  C_18 
REMARK    3  A    between atoms: C_8  and  O_13 
ROOT
HETATM    1  C   UNL     1     -37.290 -17.327 -14.675  1.00  0.00     0.248 C 
HETATM    2  C   UNL     1     -37.387 -16.296 -13.611  1.00  0.00     0.169 C 
HETATM    3  C   UNL     1     -38.192 -15.182 -14.174  1.00  0.00     0.183 C 
HETATM    4  C   UNL     1     -38.463 -15.710 -15.582  1.00  0.00     0.285 C 
HETATM    5  O   UNL     1     -38.446 -17.136 -15.482  1.00  0.00    -0.313 OA
HETATM    6  O   UNL     1     -37.100 -16.510 -12.429  1.00  0.00    -0.294 OA
ENDROOT
BRANCH   1   7
HETATM    7  C   UNL     1     -37.185 -18.707 -14.162  1.00  0.00     0.065 C 
HETATM    8  N   UNL     1     -36.128 -18.985 -13.340  1.00  0.00    -0.308 N 
HETATM    9  C   UNL     1     -36.419 -20.103 -12.677  1.00  0.00     0.324 C 
ATOM     10  HN  UNL     1     -35.273 -18.436 -13.251  1.00  0.00     0.170 HD
HETATM   11  O   UNL     1     -35.771 -20.618 -11.772  1.00  0.00    -0.247 OA
HETATM   12  N   UNL     1     -37.721 -20.392 -12.857  1.00  0.00    -0.317 N 
HETATM   13  C   UNL     1     -38.185 -19.583 -13.857  1.00  0.00     0.121 C 
ATOM     14  HN  UNL     1     -38.262 -21.087 -12.342  1.00  0.00     0.170 HD
ENDBRANCH   1   7
BRANCH   4  15
HETATM   15  O   UNL     1     -37.345 -15.409 -16.371  1.00  0.00    -0.343 OA
ATOM     16  HO  UNL     1     -37.286 -16.070 -17.051  1.00  0.00     0.215 HD
ENDBRANCH   4  15
BRANCH   4  17
HETATM   17  O   UNL     1     -39.615 -15.233 -16.127  1.00  0.00    -0.343 OA
ATOM     18  HO  UNL     1     -39.996 -15.845 -16.746  1.00  0.00     0.215 HD
ENDBRANCH   4  17
TORSDOF 3
ENDMDL
MODEL 6
REMARK VINA RESULT:      -3.9      1.681      2.520
REMARK  3 active torsions:
REMARK  status: ('A' for Active; 'I' for Inactive)
REMARK    1  A    between atoms: O_1  and  C_8 
REMARK    2  A    between atoms: C_3  and  C_18 
REMARK    3  A    between atoms: C_8  and  O_13 
ROOT
HETATM    1  C   UNL     1     -37.002 -17.848 -13.139  1.00  0.00     0.248 C 
HETATM    2  C   UNL     1     -37.951 -18.428 -14.121  1.00  0.00     0.169 C 
HETATM    3  C   UNL     1     -38.185 -17.383 -15.151  1.00  0.00     0.183 C 
HETATM    4  C   UNL     1     -37.319 -16.249 -14.607  1.00  0.00     0.285 C 
HETATM    5  O   UNL     1     -36.266 -16.871 -13.867  1.00  0.00    -0.313 OA
HETATM    6  O   UNL     1     -38.215 -19.633 -14.182  1.00  0.00    -0.294 OA
ENDROOT
BRANCH   1   7
HETATM    7  C   UNL     1     -36.126 -18.845 -12.494  1.00  0.00     0.065 C 
HETATM    8  N   UNL     1     -35.611 -18.520 -11.270  1.00  0.00    -0.308 N 
HETATM    9  C   UNL     1     -35.209 -19.649 -10.690  1.00  0.00     0.324 C 
ATOM     10  HN  UNL     1     -35.546 -17.582 -10.873  1.00  0.00     0.170 HD
HETATM   11  O   UNL     1     -34.791 -19.788  -9.545  1.00  0.00    -0.247 OA
HETATM   12  N   UNL     1     -35.690 -20.695 -11.389  1.00  0.00    -0.317 N 
HETATM   13  C   UNL     1     -36.181 -20.206 -12.569  1.00  0.00     0.121 C 
ATOM     14  HN  UNL     1     -35.688 -21.671 -11.094  1.00  0.00     0.170 HD
ENDBRANCH   1   7
BRANCH   4  15
HETATM   15  O   UNL     1     -38.066 -15.572 -13.634  1.00  0.00    -0.343 OA
ATOM     16  HO  UNL     1     -37.478 -15.348 -12.923  1.00  0.00     0.215 HD
ENDBRANCH   4  15
BRANCH   4  17
HETATM   17  O   UNL     1     -36.858 -15.407 -15.572  1.00  0.00    -0.343 OA
ATOM     18  HO  UNL     1     -36.406 -15.874 -16.265  1.00  0.00     0.215 HD
ENDBRANCH   4  17
TORSDOF 3
ENDMDL
MODEL 7
REMARK VINA RESULT:      -3.9      3.144      5.536
REMARK  3 active torsions:
REMARK  status: ('A' for Active; 'I' for Inactive)
REMARK    1  A    between atoms: O_1  and  C_8 
REMARK    2  A    between atoms: C_3  and  C_18 
REMARK    3  A    between atoms: C_8  and  O_13 
ROOT
HETATM    1  C   UNL     1     -37.109 -17.676 -14.313  1.00  0.00     0.248 C 
HETATM    2  C   UNL     1     -38.218 -18.613 -14.622  1.00  0.00     0.169 C 
HETATM    3  C   UNL     1     -38.120 -19.723 -13.639  1.00  0.00     0.183 C 
HETATM    4  C   UNL     1     -36.887 -19.293 -12.847  1.00  0.00     0.285 C 
HETATM    5  O   UNL     1     -36.837 -17.867 -12.928  1.00  0.00    -0.313 OA
HETATM    6  O   UNL     1     -39.169 -18.323 -15.354  1.00  0.00    -0.294 OA
ENDROOT
BRANCH   1   7
HETATM    7  C   UNL     1     -37.408 -16.268 -14.637  1.00  0.00     0.065 C 
HETATM    8  N   UNL     1     -37.710 -15.982 -15.939  1.00  0.00    -0.308 N 
HETATM    9  C   UNL     1     -38.328 -14.802 -15.958  1.00  0.00     0.324 C 
ATOM     10  HN  UNL     1     -37.500 -16.566 -16.749  1.00  0.00     0.170 HD
HETATM   11  O   UNL     1     -38.849 -14.252 -16.924  1.00  0.00    -0.247 OA
HETATM   12  N   UNL     1     -38.659 -14.461 -14.699  1.00  0.00    -0.317 N 
HETATM   13  C   UNL     1     -38.005 -15.320 -13.858  1.00  0.00     0.121 C 
ATOM     14  HN  UNL     1     -39.281 -13.702 -14.422  1.00  0.00     0.170 HD
ENDBRANCH   1   7
BRANCH   4  15
HETATM   15  O   UNL     1     -35.756 -19.715 -13.559  1.00  0.00    -0.343 OA
ATOM     16  HO  UNL     1     -35.512 -20.573 -13.230  1.00  0.00     0.215 HD
ENDBRANCH   4  15
BRANCH   4  17
HETATM   17  O   UNL     1     -36.880 -19.748 -11.564  1.00  0.00    -0.343 OA
ATOM     18  HO  UNL     1     -36.261 -19.275 -11.021  1.00  0.00     0.215 HD
ENDBRANCH   4  17
TORSDOF 3
ENDMDL
MODEL 8
REMARK VINA RESULT:      -3.8      3.033      4.981
REMARK  3 active torsions:
REMARK  status: ('A' for Active; 'I' for Inactive)
REMARK    1  A    between atoms: O_1  and  C_8 
REMARK    2  A    between atoms: C_3  and  C_18 
REMARK    3  A    between atoms: C_8  and  O_13 
ROOT
HETATM    1  C   UNL     1     -37.329 -17.444 -14.616  1.00  0.00     0.248 C 
HETATM    2  C   UNL     1     -38.587 -17.835 -15.301  1.00  0.00     0.169 C 
HETATM    3  C   UNL     1     -38.944 -19.184 -14.791  1.00  0.00     0.183 C 
HETATM    4  C   UNL     1     -37.779 -19.446 -13.839  1.00  0.00     0.285 C 
HETATM    5  O   UNL     1     -37.337 -18.164 -13.388  1.00  0.00    -0.313 OA
HETATM    6  O   UNL     1     -39.300 -17.038 -15.919  1.00  0.00    -0.294 OA
ENDROOT
BRANCH   1   7
HETATM    7  C   UNL     1     -37.186 -15.990 -14.413  1.00  0.00     0.065 C 
HETATM    8  N   UNL     1     -37.954 -15.421 -13.435  1.00  0.00    -0.308 N 
HETATM    9  C   UNL     1     -37.411 -14.243 -13.132  1.00  0.00     0.324 C 
ATOM     10  HN  UNL     1     -38.790 -15.825 -13.013  1.00  0.00     0.170 HD
HETATM   11  O   UNL     1     -37.745 -13.482 -12.230  1.00  0.00    -0.247 OA
HETATM   12  N   UNL     1     -36.189 -14.168 -13.693  1.00  0.00    -0.317 N 
HETATM   13  C   UNL     1     -36.079 -15.209 -14.573  1.00  0.00     0.121 C 
ATOM     14  HN  UNL     1     -35.478 -13.464 -13.498  1.00  0.00     0.170 HD
ENDBRANCH   1   7
BRANCH   4  15
HETATM   15  O   UNL     1     -36.706 -19.928 -14.602  1.00  0.00    -0.343 OA
ATOM     16  HO  UNL     1     -36.273 -19.180 -14.994  1.00  0.00     0.215 HD
ENDBRANCH   4  15
BRANCH   4  17
HETATM   17  O   UNL     1     -38.094 -20.286 -12.815  1.00  0.00    -0.343 OA
ATOM     18  HO  UNL     1     -37.575 -20.111 -12.039  1.00  0.00     0.215 HD
ENDBRANCH   4  17
TORSDOF 3
ENDMDL
MODEL 9
REMARK VINA RESULT:      -3.8      2.055      3.355
REMARK  3 active torsions:
REMARK  status: ('A' for Active; 'I' for Inactive)
REMARK    1  A    between atoms: O_1  and  C_8 
REMARK    2  A    between atoms: C_3  and  C_18 
REMARK    3  A    between atoms: C_8  and  O_13 
ROOT
HETATM    1  C   UNL     1     -35.826 -15.272 -13.016  1.00  0.00     0.248 C 
HETATM    2  C   UNL     1     -36.937 -14.376 -13.424  1.00  0.00     0.169 C 
HETATM    3  C   UNL     1     -36.324 -13.274 -14.209  1.00  0.00     0.183 C 
HETATM    4  C   UNL     1     -34.848 -13.664 -14.142  1.00  0.00     0.285 C 
HETATM    5  O   UNL     1     -34.817 -15.086 -14.003  1.00  0.00    -0.313 OA
HETATM    6  O   UNL     1     -38.127 -14.696 -13.357  1.00  0.00    -0.294 OA
ENDROOT
BRANCH   1   7
HETATM    7  C   UNL     1     -36.220 -16.688 -12.878  1.00  0.00     0.065 C 
HETATM    8  N   UNL     1     -36.897 -17.249 -13.925  1.00  0.00    -0.308 N 
HETATM    9  C   UNL     1     -36.803 -18.572 -13.801  1.00  0.00     0.324 C 
ATOM     10  HN  UNL     1     -37.385 -16.746 -14.666  1.00  0.00     0.170 HD
HETATM   11  O   UNL     1     -37.187 -19.421 -14.598  1.00  0.00    -0.247 OA
HETATM   12  N   UNL     1     -35.876 -18.859 -12.867  1.00  0.00    -0.317 N 
HETATM   13  C   UNL     1     -35.576 -17.693 -12.217  1.00  0.00     0.121 C 
ATOM     14  HN  UNL     1     -35.473 -19.777 -12.679  1.00  0.00     0.170 HD
ENDBRANCH   1   7
BRANCH   4  15
HETATM   15  O   UNL     1     -34.338 -13.190 -12.926  1.00  0.00    -0.343 OA
ATOM     16  HO  UNL     1     -33.906 -13.916 -12.493  1.00  0.00     0.215 HD
ENDBRANCH   4  15
BRANCH   4  17
HETATM   17  O   UNL     1     -34.122 -13.222 -15.205  1.00  0.00    -0.343 OA
ATOM     18  HO  UNL     1     -34.446 -12.393 -15.538  1.00  0.00     0.215 HD
ENDBRANCH   4  17
TORSDOF 3
ENDMDL
