MODEL 1
REMARK VINA RESULT:      -5.9      0.000      0.000
REMARK  0 active torsions:
REMARK  status: ('A' for Active; 'I' for Inactive)
ROOT
HETATM    1  C   UNL     1     -35.411 -16.997 -12.097  1.00  0.00     0.045 C 
HETATM    2  C   UNL     1     -36.268 -19.183 -11.335  1.00  0.00     0.042 C 
HETATM    3  C   UNL     1     -36.539 -17.495 -12.943  1.00  0.00     0.019 C 
HETATM    4  C   UNL     1     -36.537 -18.908 -12.783  1.00  0.00    -0.019 C 
HETATM    5  C   UNL     1     -38.114 -19.871 -16.503  1.00  0.00    -0.002 C 
HETATM    6  C   UNL     1     -39.994 -19.097 -15.138  1.00  0.00     0.037 C 
HETATM    7  O   UNL     1     -37.291 -16.179 -14.829  1.00  0.00    -0.267 OA
HETATM    8  C   UNL     1     -38.649 -18.710 -15.712  1.00  0.00     0.112 C 
HETATM    9  C   UNL     1     -37.144 -17.241 -14.263  1.00  0.00     0.255 C 
HETATM   10  C   UNL     1     -36.855 -20.679 -14.584  1.00  0.00     0.030 C 
HETATM   11  C   UNL     1     -37.131 -19.491 -13.900  1.00  0.00     0.045 C 
HETATM   12  C   UNL     1     -37.378 -20.833 -15.885  1.00  0.00     0.000 C 
HETATM   13  N   UNL     1     -37.705 -18.442 -14.641  1.00  0.00    -0.305 N 
HETATM   14  C   UNL     1     -35.324 -18.029 -10.973  1.00  0.00     0.009 C 
ENDROOT
TORSDOF 0
ENDMDL
MODEL 2
REMARK VINA RESULT:      -5.9      1.953      3.635
REMARK  0 active torsions:
REMARK  status: ('A' for Active; 'I' for Inactive)
ROOT
HETATM    1  C   UNL     1     -36.926 -19.854 -12.401  1.00  0.00     0.045 C 
HETATM    2  C   UNL     1     -35.590 -17.936 -11.606  1.00  0.00     0.042 C 
HETATM    3  C   UNL     1     -36.938 -18.710 -13.365  1.00  0.00     0.019 C 
HETATM    4  C   UNL     1     -36.659 -17.554 -12.584  1.00  0.00    -0.019 C 
HETATM    5  C   UNL     1     -38.735 -14.816 -14.917  1.00  0.00    -0.002 C 
HETATM    6  C   UNL     1     -36.643 -15.283 -16.101  1.00  0.00     0.037 C 
HETATM    7  O   UNL     1     -38.207 -18.889 -15.417  1.00  0.00    -0.267 OA
HETATM    8  C   UNL     1     -37.908 -15.902 -15.548  1.00  0.00     0.112 C 
HETATM    9  C   UNL     1     -37.713 -18.233 -14.524  1.00  0.00     0.255 C 
HETATM   10  C   UNL     1     -37.776 -15.271 -12.728  1.00  0.00     0.030 C 
HETATM   11  C   UNL     1     -37.185 -16.436 -13.227  1.00  0.00     0.045 C 
HETATM   12  C   UNL     1     -38.537 -14.482 -13.614  1.00  0.00     0.000 C 
HETATM   13  N   UNL     1     -37.583 -16.862 -14.506  1.00  0.00    -0.305 N 
HETATM   14  C   UNL     1     -35.941 -19.402 -11.323  1.00  0.00     0.009 C 
ENDROOT
TORSDOF 0
ENDMDL
MODEL 3
REMARK VINA RESULT:      -5.7      2.222      4.079
REMARK  0 active torsions:
REMARK  status: ('A' for Active; 'I' for Inactive)
ROOT
HETATM    1  C   UNL     1     -36.069 -19.728 -13.230  1.00  0.00     0.045 C 
HETATM    2  C   UNL     1     -38.281 -19.377 -14.269  1.00  0.00     0.042 C 
HETATM    3  C   UNL     1     -36.550 -18.319 -13.090  1.00  0.00     0.019 C 
HETATM    4  C   UNL     1     -37.468 -18.124 -14.158  1.00  0.00    -0.019 C 
HETATM    5  C   UNL     1     -36.878 -14.040 -14.634  1.00  0.00    -0.002 C 
HETATM    6  C   UNL     1     -38.286 -14.305 -12.648  1.00  0.00     0.037 C 
HETATM    7  O   UNL     1     -35.163 -16.690 -11.960  1.00  0.00    -0.267 OA
HETATM    8  C   UNL     1     -36.950 -14.658 -13.266  1.00  0.00     0.112 C 
HETATM    9  C   UNL     1     -36.016 -16.982 -12.770  1.00  0.00     0.255 C 
HETATM   10  C   UNL     1     -37.688 -16.087 -15.670  1.00  0.00     0.030 C 
HETATM   11  C   UNL     1     -37.533 -16.764 -14.457  1.00  0.00     0.045 C 
HETATM   12  C   UNL     1     -37.357 -14.717 -15.712  1.00  0.00     0.000 C 
HETATM   13  N   UNL     1     -36.839 -16.097 -13.431  1.00  0.00    -0.305 N 
HETATM   14  C   UNL     1     -37.253 -20.446 -13.877  1.00  0.00     0.009 C 
ENDROOT
TORSDOF 0
ENDMDL
MODEL 4
REMARK VINA RESULT:      -5.7      2.338      3.320
REMARK  0 active torsions:
REMARK  status: ('A' for Active; 'I' for Inactive)
ROOT
HETATM    1  C   UNL     1     -34.583 -18.752 -10.715  1.00  0.00     0.045 C 
HETATM    2  C   UNL     1     -36.888 -19.509 -11.173  1.00  0.00     0.042 C 
HETATM    3  C   UNL     1     -35.429 -17.676 -11.318  1.00  0.00     0.019 C 
HETATM    4  C   UNL     1     -36.457 -18.356 -12.027  1.00  0.00    -0.019 C 
HETATM    5  C   UNL     1     -37.095 -15.471 -14.946  1.00  0.00    -0.002 C 
HETATM    6  C   UNL     1     -38.185 -14.647 -12.914  1.00  0.00     0.037 C 
HETATM    7  O   UNL     1     -34.465 -15.500 -11.753  1.00  0.00    -0.267 OA
HETATM    8  C   UNL     1     -36.865 -15.084 -13.512  1.00  0.00     0.112 C 
HETATM    9  C   UNL     1     -35.270 -16.375 -11.992  1.00  0.00     0.255 C 
HETATM   10  C   UNL     1     -37.381 -17.808 -14.336  1.00  0.00     0.030 C 
HETATM   11  C   UNL     1     -36.932 -17.528 -13.042  1.00  0.00     0.045 C 
HETATM   12  C   UNL     1     -37.457 -16.744 -15.257  1.00  0.00     0.000 C 
HETATM   13  N   UNL     1     -36.366 -16.259 -12.819  1.00  0.00    -0.305 N 
HETATM   14  C   UNL     1     -35.568 -19.900 -10.496  1.00  0.00     0.009 C 
ENDROOT
TORSDOF 0
ENDMDL
MODEL 5
REMARK VINA RESULT:      -5.3      2.286      4.843
REMARK  0 active torsions:
REMARK  status: ('A' for Active; 'I' for Inactive)
ROOT
HETATM    1  C   UNL     1     -38.487 -19.480 -14.915  1.00  0.00     0.045 C 
HETATM    2  C   UNL     1     -39.513 -17.603 -16.146  1.00  0.00     0.042 C 
HETATM    3  C   UNL     1     -38.110 -18.149 -14.346  1.00  0.00     0.019 C 
HETATM    4  C   UNL     1     -38.262 -17.224 -15.415  1.00  0.00    -0.019 C 
HETATM    5  C   UNL     1     -35.372 -14.505 -14.186  1.00  0.00    -0.002 C 
HETATM    6  C   UNL     1     -37.325 -14.126 -12.758  1.00  0.00     0.037 C 
HETATM    7  O   UNL     1     -36.623 -18.041 -12.440  1.00  0.00    -0.267 OA
HETATM    8  C   UNL     1     -36.300 -15.150 -13.195  1.00  0.00     0.112 C 
HETATM    9  C   UNL     1     -37.099 -17.563 -13.448  1.00  0.00     0.255 C 
HETATM   10  C   UNL     1     -36.704 -15.314 -16.054  1.00  0.00     0.030 C 
HETATM   11  C   UNL     1     -37.438 -16.124 -15.183  1.00  0.00     0.045 C 
HETATM   12  C   UNL     1     -35.682 -14.509 -15.510  1.00  0.00     0.000 C 
HETATM   13  N   UNL     1     -36.954 -16.259 -13.869  1.00  0.00    -0.305 N 
HETATM   14  C   UNL     1     -39.505 -19.130 -15.999  1.00  0.00     0.009 C 
ENDROOT
TORSDOF 0
ENDMDL
MODEL 6
REMARK VINA RESULT:      -5.2      2.806      4.884
REMARK  0 active torsions:
REMARK  status: ('A' for Active; 'I' for Inactive)
ROOT
HETATM    1  C   UNL     1     -35.824 -18.995 -12.726  1.00  0.00     0.045 C 
HETATM    2  C   UNL     1     -37.719 -18.127 -14.049  1.00  0.00     0.042 C 
HETATM    3  C   UNL     1     -35.977 -17.512 -12.600  1.00  0.00     0.019 C 
HETATM    4  C   UNL     1     -36.662 -17.102 -13.777  1.00  0.00    -0.019 C 
HETATM    5  C   UNL     1     -35.073 -13.271 -14.010  1.00  0.00    -0.002 C 
HETATM    6  C   UNL     1     -36.775 -13.204 -12.251  1.00  0.00     0.037 C 
HETATM    7  O   UNL     1     -34.427 -16.262 -11.227  1.00  0.00    -0.267 OA
HETATM    8  C   UNL     1     -35.484 -13.860 -12.690  1.00  0.00     0.112 C 
HETATM    9  C   UNL     1     -35.199 -16.341 -12.158  1.00  0.00     0.255 C 
HETATM   10  C   UNL     1     -36.180 -15.064 -15.226  1.00  0.00     0.030 C 
HETATM   11  C   UNL     1     -36.364 -15.764 -14.030  1.00  0.00     0.045 C 
HETATM   12  C   UNL     1     -35.536 -13.811 -15.169  1.00  0.00     0.000 C 
HETATM   13  N   UNL     1     -35.688 -15.284 -12.893  1.00  0.00    -0.305 N 
HETATM   14  C   UNL     1     -37.036 -19.410 -13.558  1.00  0.00     0.009 C 
ENDROOT
TORSDOF 0
ENDMDL
MODEL 7
REMARK VINA RESULT:      -5.1      2.859      4.281
REMARK  0 active torsions:
REMARK  status: ('A' for Active; 'I' for Inactive)
ROOT
HETATM    1  C   UNL     1     -38.065 -19.331 -13.952  1.00  0.00     0.045 C 
HETATM    2  C   UNL     1     -36.770 -17.230 -13.908  1.00  0.00     0.042 C 
HETATM    3  C   UNL     1     -38.290 -18.496 -15.171  1.00  0.00     0.019 C 
HETATM    4  C   UNL     1     -37.988 -17.163 -14.778  1.00  0.00    -0.019 C 
HETATM    5  C   UNL     1     -40.554 -15.231 -17.411  1.00  0.00    -0.002 C 
HETATM    6  C   UNL     1     -38.618 -15.940 -18.733  1.00  0.00     0.037 C 
HETATM    7  O   UNL     1     -39.815 -19.267 -16.885  1.00  0.00    -0.267 OA
HETATM    8  C   UNL     1     -39.748 -16.422 -17.849  1.00  0.00     0.112 C 
HETATM    9  C   UNL     1     -39.249 -18.378 -16.284  1.00  0.00     0.255 C 
HETATM   10  C   UNL     1     -39.272 -15.041 -15.352  1.00  0.00     0.030 C 
HETATM   11  C   UNL     1     -38.675 -16.279 -15.607  1.00  0.00     0.045 C 
HETATM   12  C   UNL     1     -40.202 -14.547 -16.290  1.00  0.00     0.000 C 
HETATM   13  N   UNL     1     -39.215 -17.050 -16.652  1.00  0.00    -0.305 N 
HETATM   14  C   UNL     1     -36.975 -18.573 -13.195  1.00  0.00     0.009 C 
ENDROOT
TORSDOF 0
ENDMDL
MODEL 8
REMARK VINA RESULT:      -5.1      2.052      3.329
REMARK  0 active torsions:
REMARK  status: ('A' for Active; 'I' for Inactive)
ROOT
HETATM    1  C   UNL     1     -34.505 -16.707 -10.216  1.00  0.00     0.045 C 
HETATM    2  C   UNL     1     -34.253 -15.803 -12.500  1.00  0.00     0.042 C 
HETATM    3  C   UNL     1     -35.029 -17.640 -11.261  1.00  0.00     0.019 C 
HETATM    4  C   UNL     1     -35.349 -16.817 -12.377  1.00  0.00    -0.019 C 
HETATM    5  C   UNL     1     -38.407 -19.168 -13.917  1.00  0.00    -0.002 C 
HETATM    6  C   UNL     1     -36.311 -20.270 -14.541  1.00  0.00     0.037 C 
HETATM    7  O   UNL     1     -36.008 -19.751 -10.597  1.00  0.00    -0.267 OA
HETATM    8  C   UNL     1     -37.149 -19.790 -13.377  1.00  0.00     0.112 C 
HETATM    9  C   UNL     1     -35.905 -18.820 -11.368  1.00  0.00     0.255 C 
HETATM   10  C   UNL     1     -37.406 -16.951 -13.871  1.00  0.00     0.030 C 
HETATM   11  C   UNL     1     -36.322 -17.454 -13.144  1.00  0.00     0.045 C 
HETATM   12  C   UNL     1     -38.425 -17.849 -14.248  1.00  0.00     0.000 C 
HETATM   13  N   UNL     1     -36.438 -18.761 -12.637  1.00  0.00    -0.305 N 
HETATM   14  C   UNL     1     -33.879 -15.575 -11.029  1.00  0.00     0.009 C 
ENDROOT
TORSDOF 0
ENDMDL
MODEL 9
REMARK VINA RESULT:      -5.1      1.618      4.657
REMARK  0 active torsions:
REMARK  status: ('A' for Active; 'I' for Inactive)
ROOT
HETATM    1  C   UNL     1     -38.172 -20.360 -16.475  1.00  0.00     0.045 C 
HETATM    2  C   UNL     1     -39.787 -18.827 -15.409  1.00  0.00     0.042 C 
HETATM    3  C   UNL     1     -37.712 -19.889 -15.132  1.00  0.00     0.019 C 
HETATM    4  C   UNL     1     -38.384 -18.655 -14.914  1.00  0.00    -0.019 C 
HETATM    5  C   UNL     1     -35.502 -16.900 -12.490  1.00  0.00    -0.002 C 
HETATM    6  C   UNL     1     -36.696 -18.511 -11.084  1.00  0.00     0.037 C 
HETATM    7  O   UNL     1     -35.577 -20.633 -14.272  1.00  0.00    -0.267 OA
HETATM    8  C   UNL     1     -35.863 -18.351 -12.338  1.00  0.00     0.112 C 
HETATM    9  C   UNL     1     -36.474 -19.820 -14.336  1.00  0.00     0.255 C 
HETATM   10  C   UNL     1     -37.419 -16.510 -13.937  1.00  0.00     0.030 C 
HETATM   11  C   UNL     1     -37.641 -17.888 -14.018  1.00  0.00     0.045 C 
HETATM   12  C   UNL     1     -36.341 -16.057 -13.150  1.00  0.00     0.000 C 
HETATM   13  N   UNL     1     -36.638 -18.732 -13.506  1.00  0.00    -0.305 N 
HETATM   14  C   UNL     1     -39.580 -19.777 -16.596  1.00  0.00     0.009 C 
ENDROOT
TORSDOF 0
ENDMDL
