REMARK  8 active torsions:
REMARK  status: ('A' for Active; 'I' for Inactive)
REMARK    1  A    between atoms: C_1  and  O_13 
REMARK    2  A    between atoms: C_2  and  C_10 
REMARK    3  A    between atoms: C_2  and  N_19 
REMARK    4  A    between atoms: C_6  and  N_19 
REMARK    5  A    between atoms: O_8  and  C_27 
REMARK    6  A    between atoms: C_10  and  C_24 
REMARK    7  A    between atoms: C_10  and  O_30 
REMARK    8  A    between atoms: C_21  and  O_32 
ROOT
HETATM    1  C   UNL     1      -7.174   1.736  15.810  1.00  0.00     0.166 C 
HETATM    2  C   UNL     1      -6.369   3.037  15.874  1.00  0.00     0.204 C 
HETATM    3  C   UNL     1      -4.424   6.002  13.313  1.00  0.00     0.077 A 
HETATM    4  O   UNL     1      -5.986   3.338  17.227  1.00  0.00    -0.278 OA
HETATM    5  C   UNL     1      -5.872   0.764  17.710  1.00  0.00     0.111 C 
HETATM    6  C   UNL     1      -4.876   5.377  14.435  1.00  0.00     0.036 A 
HETATM    7  O   UNL     1      -3.208   5.129  11.511  1.00  0.00    -0.268 OA
HETATM    8  C   UNL     1      -4.207   1.352  13.312  1.00  0.00     0.066 C 
HETATM    9  N   UNL     1      -4.257   3.836  13.028  1.00  0.00    -0.314 N 
HETATM   10  C   UNL     1      -3.943   2.550  12.431  1.00  0.00     0.136 C 
HETATM   11  C   UNL     1      -4.406   1.647  14.792  1.00  0.00     0.114 C 
HETATM   12  C   UNL     1      -5.106   2.950  15.066  1.00  0.00     0.016 C 
HETATM   13  O   UNL     1      -6.137   2.476  19.566  1.00  0.00    -0.222 OA
HETATM   14  C   UNL     1      -6.272   0.595  16.274  1.00  0.00     0.111 C 
HETATM   15  S   UNL     1      -5.845   2.258  18.255  1.00  0.00     0.203 S 
HETATM   16  C   UNL     1      -5.130   0.408  15.306  1.00  0.00     0.170 C 
HETATM   17  C   UNL     1      -4.761   4.047  14.257  1.00  0.00     0.045 A 
HETATM   18  C   UNL     1      -3.976   5.033  12.503  1.00  0.00     0.248 A 
ENDROOT
BRANCH   5  19
HETATM   19  N   UNL     1      -5.432  -0.313  18.443  1.00  0.00    -0.381 N 
ATOM     20  HN  UNL     1      -4.445  -0.565  18.385  1.00  0.00     0.160 HD
BRANCH  19  21
HETATM   21  C   UNL     1      -6.306  -1.121  19.305  1.00  0.00     0.163 C 
BRANCH  21  22
HETATM   22  C   UNL     1      -5.422  -2.052  20.164  1.00  0.00     0.236 C 
BRANCH  22  23
HETATM   23  C   UNL     1      -6.058  -3.443  20.352  1.00  0.00     0.204 C 
HETATM   24  O   UNL     1      -7.216  -3.523  20.815  1.00  0.00    -0.646 OA
HETATM   25  O   UNL     1      -5.390  -4.454  20.136  1.00  0.00    -0.646 OA
ENDBRANCH  22  23
BRANCH  22  26
HETATM   26  O   UNL     1      -5.217  -1.522  21.475  1.00  0.00    -0.383 OA
ATOM     27  HO  UNL     1      -4.673  -2.095  22.003  1.00  0.00     0.210 HD
ENDBRANCH  22  26
ENDBRANCH  21  22
ENDBRANCH  19  21
ENDBRANCH   5  19
BRANCH   1  28
HETATM   28  O   UNL     1      -8.298   1.853  16.672  1.00  0.00    -0.392 OA
ATOM     29  HO  UNL     1      -8.797   1.046  16.632  1.00  0.00     0.210 HD
ENDBRANCH   1  28
BRANCH  16  30
HETATM   30  O   UNL     1      -4.244  -0.642  15.595  1.00  0.00    -0.391 OA
ATOM     31  HO  UNL     1      -4.695  -1.414  15.915  1.00  0.00     0.210 HD
ENDBRANCH  16  30
BRANCH  11  32
HETATM   32  O   UNL     1      -3.136   1.745  15.420  1.00  0.00    -0.382 OA
ATOM     33  HO  UNL     1      -3.260   1.929  16.344  1.00  0.00     0.211 HD
ENDBRANCH  11  32
TORSDOF 8
