REMARK  3 active torsions:
REMARK  status: ('A' for Active; 'I' for Inactive)
REMARK    1  A    between atoms: C_6  and  O_22 
REMARK    2  A    between atoms: C_7  and  C_14 
REMARK    3  A    between atoms: O_11  and  C_14 
ROOT
HETATM    1  C   UNL     1      -0.701 -28.529 -16.675  1.00  0.00     0.084 A 
HETATM    2  C   UNL     1      -1.547 -31.405 -14.409  1.00  0.00     0.076 A 
HETATM    3  C   UNL     1      -1.583 -30.925 -15.740  1.00  0.00     0.002 A 
HETATM    4  C   UNL     1      -1.033 -29.628 -15.722  1.00  0.00    -0.020 A 
HETATM    5  C   UNL     1      -0.124 -27.904 -14.387  1.00  0.00     0.100 A 
HETATM    6  C   UNL     1      -1.892 -32.764 -14.178  1.00  0.00     0.093 C 
HETATM    7  N   UNL     1      -0.973 -30.406 -13.657  1.00  0.00    -0.356 N 
ATOM      8  HN  UNL     1      -0.772 -30.473 -12.659  1.00  0.00     0.166 HD
HETATM    9  C   UNL     1      -0.029 -27.411 -15.849  1.00  0.00     0.094 A 
HETATM   10  C   UNL     1      -2.661 -33.417 -15.139  1.00  0.00     0.039 C 
HETATM   11  C   UNL     1      -0.707 -29.301 -14.440  1.00  0.00     0.020 A 
HETATM   12  C   UNL     1      -2.126 -31.710 -16.758  1.00  0.00     0.014 C 
HETATM   13  C   UNL     1      -2.663 -32.959 -16.465  1.00  0.00     0.004 C 
ENDROOT
BRANCH   9  14
HETATM   14  C   UNL     1      -0.757 -26.105 -16.141  1.00  0.00    -0.023 C 
HETATM   15  C   UNL     1      -1.479 -25.954 -17.329  1.00  0.00     0.010 C 
HETATM   16  C   UNL     1      -2.412 -24.931 -17.441  1.00  0.00     0.001 C 
HETATM   17  C   UNL     1      -2.456 -23.929 -16.490  1.00  0.00     0.000 C 
HETATM   18  C   UNL     1      -1.483 -23.896 -15.496  1.00  0.00     0.001 C 
HETATM   19  C   UNL     1      -0.686 -25.019 -15.276  1.00  0.00     0.010 C 
ENDBRANCH   9  14
BRANCH   9  20
HETATM   20  O   UNL     1       1.346 -27.285 -16.225  1.00  0.00    -0.384 OA
ATOM     21  HO  UNL     1       1.759 -26.597 -15.717  1.00  0.00     0.211 HD
ENDBRANCH   9  20
BRANCH   6  22
HETATM   22  O   UNL     1      -1.461 -33.418 -13.052  1.00  0.00    -0.358 OA
ATOM     23  HO  UNL     1      -1.692 -34.327 -12.898  1.00  0.00     0.217 HD
ENDBRANCH   6  22
TORSDOF 3
