MODEL 1
REMARK VINA RESULT:      -8.1      0.000      0.000
REMARK  3 active torsions:
REMARK  status: ('A' for Active; 'I' for Inactive)
REMARK    1  A    between atoms: C_7  and  C_11 
REMARK    2  A    between atoms: C_15  and  C_26 
REMARK    3  A    between atoms: C_19  and  O_30 
ROOT
HETATM    1  C   UNL     1      27.125   0.184 -13.293  1.00  0.00     0.002 C 
HETATM    2  C   UNL     1      27.709  -2.141  -7.476  1.00  0.00     0.052 C 
HETATM    3  C   UNL     1      28.577  -0.026  -8.563  1.00  0.00     0.130 C 
HETATM    4  C   UNL     1      28.039   0.509 -12.295  1.00  0.00     0.008 C 
HETATM    5  C   UNL     1      25.874  -0.290 -12.954  1.00  0.00     0.016 C 
HETATM    6  C   UNL     1      27.719   0.348 -10.953  1.00  0.00    -0.045 C 
HETATM    7  C   UNL     1      27.755  -1.304  -8.746  1.00  0.00     0.095 C 
HETATM    8  C   UNL     1      26.389  -0.939  -9.309  1.00  0.00    -0.021 C 
HETATM    9  C   UNL     1      26.506  -0.278 -10.629  1.00  0.00    -0.007 C 
HETATM   10  C   UNL     1      25.508  -0.374 -11.617  1.00  0.00     0.019 C 
HETATM   11  C   UNL     1      25.293  -0.699  -8.458  1.00  0.00     0.023 C 
HETATM   12  C   UNL     1      28.715   0.716  -9.893  1.00  0.00     0.058 C 
ENDROOT
BRANCH  10  13
HETATM   13  C   UNL     1      24.132  -0.651 -11.271  1.00  0.00     0.117 C 
HETATM   14  N   UNL     1      23.278   0.262 -10.713  1.00  0.00    -0.339 N 
HETATM   15  C   UNL     1      22.087  -0.318 -10.926  1.00  0.00     0.067 C 
ATOM     16  HN  UNL     1      23.491   1.149 -10.256  1.00  0.00     0.167 HD
HETATM   17  C   UNL     1      22.290  -1.621 -11.451  1.00  0.00     0.043 C 
HETATM   18  C   UNL     1      20.726  -0.133 -10.686  1.00  0.00    -0.001 C 
HETATM   19  N   UNL     1      23.588  -1.866 -11.509  1.00  0.00    -0.343 N 
HETATM   20  C   UNL     1      20.995  -2.319 -11.630  1.00  0.00     0.099 C 
ATOM     21  HN  UNL     1      24.062  -2.751 -11.689  1.00  0.00     0.167 HD
HETATM   22  C   UNL     1      20.084  -1.357 -10.931  1.00  0.00    -0.040 C 
HETATM   23  C   UNL     1      18.950  -1.666 -10.193  1.00  0.00     0.008 C 
HETATM   24  C   UNL     1      18.296  -0.615  -9.537  1.00  0.00     0.001 C 
HETATM   25  C   UNL     1      18.731   0.706  -9.698  1.00  0.00     0.001 C 
HETATM   26  C   UNL     1      19.952   0.961 -10.322  1.00  0.00     0.014 C 
ENDBRANCH  10  13
BRANCH   7  27
HETATM   27  O   UNL     1      28.368  -2.149  -9.726  1.00  0.00    -0.384 OA
ATOM     28  HO  UNL     1      28.835  -1.557 -10.304  1.00  0.00     0.211 HD
ENDBRANCH   7  27
BRANCH   3  29
HETATM   29  C   UNL     1      27.910   0.881  -7.539  1.00  0.00     0.180 C 
HETATM   30  O   UNL     1      27.679   0.439  -6.397  1.00  0.00    -0.648 OA
HETATM   31  O   UNL     1      27.602   2.040  -7.905  1.00  0.00    -0.648 OA
ENDBRANCH   3  29
TORSDOF 3
ENDMDL
