MODEL 1
REMARK VINA RESULT:      -8.4      0.000      0.000
REMARK  2 active torsions:
REMARK  status: ('A' for Active; 'I' for Inactive)
REMARK    1  A    between atoms: CA_2  and  C_16 
REMARK    2  A    between atoms: N_8  and  C_17 
ROOT
HETATM    1  C   UNL     1       7.063  17.524  27.991  1.00  0.00     0.014 C 
HETATM    2  CA  UNL     1       7.636  19.061  24.370  1.00  0.00     0.110 C 
HETATM    3  C   UNL     1       8.152  21.470  31.001  1.00  0.00     0.117 C 
HETATM    4  C   UNL     1       7.444  19.531  26.629  1.00  0.00     0.044 C 
HETATM    5  C   UNL     1       8.496  17.495  25.959  1.00  0.00     0.016 C 
HETATM    6  C   UNL     1       8.419  17.937  24.642  1.00  0.00     0.037 C 
HETATM    7  C   UNL     1       6.961  19.394  29.636  1.00  0.00    -0.008 C 
HETATM    8  C   UNL     1       7.684  18.159  26.893  1.00  0.00    -0.009 C 
HETATM    9  N   UNL     1       7.035  20.895  31.486  1.00  0.00    -0.372 N 
ATOM     10  HN  UNL     1       6.634  21.240  32.358  1.00  0.00     0.164 HD
HETATM   11  C   UNL     1       7.826  20.287  28.953  1.00  0.00     0.005 C 
HETATM   12  C   UNL     1       8.708  21.030  29.792  1.00  0.00     0.052 C 
HETATM   13  C   UNL     1       6.432  19.867  30.842  1.00  0.00     0.100 C 
HETATM   14  C   UNL     1       6.701  18.090  29.170  1.00  0.00     0.014 C 
HETATM   15  C   UNL     1       7.778  20.524  27.561  1.00  0.00     0.045 C 
HETATM   16  N   UNL     1       7.061  19.800  25.349  1.00  0.00    -0.350 N 
ATOM     17  HN  UNL     1       6.374  20.523  25.138  1.00  0.00     0.166 HD
ENDROOT
BRANCH   2  18
HETATM   18  C   UNL     1       7.231  19.369  22.968  1.00  0.00     0.226 C 
HETATM   19  O   UNL     1       7.136  20.574  22.647  1.00  0.00    -0.643 OA
HETATM   20  OXT UNL     1       7.563  18.471  22.119  1.00  0.00    -0.643 OA
ENDBRANCH   2  18
BRANCH  12  21
HETATM   21  N   UNL     1       9.984  21.324  29.436  1.00  0.00    -0.397 N 
ATOM     22  HN2 UNL     1      10.237  22.186  28.952  1.00  0.00     0.156 HD
ATOM     23  HN1 UNL     1      10.765  20.707  29.659  1.00  0.00     0.156 HD
ENDBRANCH  12  21
TORSDOF 2
ENDMDL
MODEL 2
REMARK VINA RESULT:      -8.3      3.862      6.035
REMARK  2 active torsions:
REMARK  status: ('A' for Active; 'I' for Inactive)
REMARK    1  A    between atoms: CA_2  and  C_16 
REMARK    2  A    between atoms: N_8  and  C_17 
ROOT
HETATM    1  C   UNL     1       7.462  17.696  28.297  1.00  0.00     0.014 C 
HETATM    2  CA  UNL     1      11.310  18.648  27.989  1.00  0.00     0.110 C 
HETATM    3  C   UNL     1       6.409  16.017  23.619  1.00  0.00     0.117 C 
HETATM    4  C   UNL     1       9.523  17.588  26.967  1.00  0.00     0.044 C 
HETATM    5  C   UNL     1       9.113  19.555  28.256  1.00  0.00     0.016 C 
HETATM    6  C   UNL     1      10.490  19.708  28.384  1.00  0.00     0.037 C 
HETATM    7  C   UNL     1       6.832  16.308  26.325  1.00  0.00    -0.008 C 
HETATM    8  C   UNL     1       8.658  18.294  27.840  1.00  0.00    -0.009 C 
HETATM    9  N   UNL     1       5.837  15.161  24.487  1.00  0.00    -0.372 N 
ATOM     10  HN  UNL     1       5.254  14.405  24.131  1.00  0.00     0.164 HD
HETATM   11  C   UNL     1       7.746  16.875  25.401  1.00  0.00     0.005 C 
HETATM   12  C   UNL     1       7.235  17.050  24.082  1.00  0.00     0.052 C 
HETATM   13  C   UNL     1       6.020  15.284  25.824  1.00  0.00     0.100 C 
HETATM   14  C   UNL     1       6.698  16.784  27.645  1.00  0.00     0.014 C 
HETATM   15  C   UNL     1       9.096  17.163  25.701  1.00  0.00     0.045 C 
HETATM   16  N   UNL     1      10.822  17.543  27.376  1.00  0.00    -0.350 N 
ATOM     17  HN  UNL     1      11.400  16.716  27.228  1.00  0.00     0.166 HD
ENDROOT
BRANCH   2  18
HETATM   18  C   UNL     1      12.737  18.605  28.419  1.00  0.00     0.226 C 
HETATM   19  O   UNL     1      13.087  19.379  29.337  1.00  0.00    -0.643 OA
HETATM   20  OXT UNL     1      13.299  17.468  28.246  1.00  0.00    -0.643 OA
ENDBRANCH   2  18
BRANCH  12  21
HETATM   21  N   UNL     1       7.551  18.121  23.309  1.00  0.00    -0.397 N 
ATOM     22  HN2 UNL     1       7.439  19.084  23.629  1.00  0.00     0.156 HD
ATOM     23  HN1 UNL     1       7.944  18.017  22.374  1.00  0.00     0.156 HD
ENDBRANCH  12  21
TORSDOF 2
ENDMDL
MODEL 3
REMARK VINA RESULT:      -7.9      3.796      5.674
REMARK  2 active torsions:
REMARK  status: ('A' for Active; 'I' for Inactive)
REMARK    1  A    between atoms: CA_2  and  C_16 
REMARK    2  A    between atoms: N_8  and  C_17 
ROOT
HETATM    1  C   UNL     1       7.287  18.449  28.774  1.00  0.00     0.014 C 
HETATM    2  CA  UNL     1      11.086  19.048  27.770  1.00  0.00     0.110 C 
HETATM    3  C   UNL     1       5.782  15.089  25.273  1.00  0.00     0.117 C 
HETATM    4  C   UNL     1       9.208  17.739  27.421  1.00  0.00     0.044 C 
HETATM    5  C   UNL     1       8.926  20.072  27.846  1.00  0.00     0.016 C 
HETATM    6  C   UNL     1      10.309  20.209  27.779  1.00  0.00     0.037 C 
HETATM    7  C   UNL     1       6.467  16.416  27.588  1.00  0.00    -0.008 C 
HETATM    8  C   UNL     1       8.432  18.768  28.012  1.00  0.00    -0.009 C 
HETATM    9  N   UNL     1       5.297  14.673  26.459  1.00  0.00    -0.372 N 
ATOM     10  HN  UNL     1       4.682  13.861  26.488  1.00  0.00     0.164 HD
HETATM   11  C   UNL     1       7.287  16.532  26.436  1.00  0.00     0.005 C 
HETATM   12  C   UNL     1       6.650  16.188  25.208  1.00  0.00     0.052 C 
HETATM   13  C   UNL     1       5.609  15.311  27.613  1.00  0.00     0.100 C 
HETATM   14  C   UNL     1       6.462  17.384  28.613  1.00  0.00     0.014 C 
HETATM   15  C   UNL     1       8.659  16.863  26.474  1.00  0.00     0.045 C 
HETATM   16  N   UNL     1      10.541  17.810  27.697  1.00  0.00    -0.350 N 
ATOM     17  HN  UNL     1      11.101  16.970  27.841  1.00  0.00     0.166 HD
ENDROOT
BRANCH   2  18
HETATM   18  C   UNL     1      12.548  19.123  28.052  1.00  0.00     0.226 C 
HETATM   19  O   UNL     1      12.900  19.596  29.155  1.00  0.00    -0.643 OA
HETATM   20  OXT UNL     1      13.242  18.231  27.451  1.00  0.00    -0.643 OA
ENDBRANCH   2  18
BRANCH  12  21
HETATM   21  N   UNL     1       6.890  16.850  24.047  1.00  0.00    -0.397 N 
ATOM     22  HN2 UNL     1       6.879  16.388  23.138  1.00  0.00     0.156 HD
ATOM     23  HN1 UNL     1       7.068  17.854  24.023  1.00  0.00     0.156 HD
ENDBRANCH  12  21
TORSDOF 2
ENDMDL
MODEL 4
REMARK VINA RESULT:      -7.8      4.625      6.452
REMARK  2 active torsions:
REMARK  status: ('A' for Active; 'I' for Inactive)
REMARK    1  A    between atoms: CA_2  and  C_16 
REMARK    2  A    between atoms: N_8  and  C_17 
ROOT
HETATM    1  C   UNL     1      10.106  19.256  26.341  1.00  0.00     0.014 C 
HETATM    2  CA  UNL     1       8.771  20.679  29.804  1.00  0.00     0.110 C 
HETATM    3  C   UNL     1      14.591  17.272  27.670  1.00  0.00     0.117 C 
HETATM    4  C   UNL     1      10.374  19.359  28.779  1.00  0.00     0.044 C 
HETATM    5  C   UNL     1       9.586  21.307  27.646  1.00  0.00     0.016 C 
HETATM    6  C   UNL     1       8.878  21.640  28.796  1.00  0.00     0.037 C 
HETATM    7  C   UNL     1      12.015  17.721  26.801  1.00  0.00    -0.008 C 
HETATM    8  C   UNL     1      10.042  19.983  27.550  1.00  0.00    -0.009 C 
HETATM    9  N   UNL     1      13.989  16.385  26.854  1.00  0.00    -0.372 N 
ATOM     10  HN  UNL     1      14.494  15.546  26.569  1.00  0.00     0.164 HD
HETATM   11  C   UNL     1      12.489  18.363  27.974  1.00  0.00     0.005 C 
HETATM   12  C   UNL     1      13.909  18.420  28.095  1.00  0.00     0.052 C 
HETATM   13  C   UNL     1      12.726  16.583  26.404  1.00  0.00     0.100 C 
HETATM   14  C   UNL     1      10.941  18.228  26.043  1.00  0.00     0.014 C 
HETATM   15  C   UNL     1      11.653  18.833  29.010  1.00  0.00     0.045 C 
HETATM   16  N   UNL     1       9.430  19.497  29.753  1.00  0.00    -0.350 N 
ATOM     17  HN  UNL     1       9.231  18.745  30.413  1.00  0.00     0.166 HD
ENDROOT
BRANCH   2  18
HETATM   18  C   UNL     1       7.753  20.836  30.882  1.00  0.00     0.226 C 
HETATM   19  O   UNL     1       7.147  19.809  31.258  1.00  0.00    -0.643 OA
HETATM   20  OXT UNL     1       7.984  21.810  31.680  1.00  0.00    -0.643 OA
ENDBRANCH   2  18
BRANCH  12  21
HETATM   21  N   UNL     1      14.558  19.491  28.620  1.00  0.00    -0.397 N 
ATOM     22  HN2 UNL     1      14.210  20.445  28.527  1.00  0.00     0.156 HD
ATOM     23  HN1 UNL     1      15.418  19.392  29.159  1.00  0.00     0.156 HD
ENDBRANCH  12  21
TORSDOF 2
ENDMDL
MODEL 5
REMARK VINA RESULT:      -7.7      3.328      6.280
REMARK  2 active torsions:
REMARK  status: ('A' for Active; 'I' for Inactive)
REMARK    1  A    between atoms: CA_2  and  C_16 
REMARK    2  A    between atoms: N_8  and  C_17 
ROOT
HETATM    1  C   UNL     1       6.556  16.167  26.375  1.00  0.00     0.014 C 
HETATM    2  CA  UNL     1       8.959  18.768  28.183  1.00  0.00     0.110 C 
HETATM    3  C   UNL     1       6.263  18.083  21.678  1.00  0.00     0.117 C 
HETATM    4  C   UNL     1       8.098  18.065  26.151  1.00  0.00     0.044 C 
HETATM    5  C   UNL     1       6.710  17.961  28.091  1.00  0.00     0.016 C 
HETATM    6  C   UNL     1       7.710  18.628  28.792  1.00  0.00     0.037 C 
HETATM    7  C   UNL     1       6.703  16.535  23.914  1.00  0.00    -0.008 C 
HETATM    8  C   UNL     1       7.080  17.384  26.865  1.00  0.00    -0.009 C 
HETATM    9  N   UNL     1       6.430  16.752  21.556  1.00  0.00    -0.372 N 
ATOM     10  HN  UNL     1       6.397  16.328  20.629  1.00  0.00     0.164 HD
HETATM   11  C   UNL     1       6.976  17.926  23.951  1.00  0.00     0.005 C 
HETATM   12  C   UNL     1       6.329  18.693  22.939  1.00  0.00     0.052 C 
HETATM   13  C   UNL     1       6.639  15.964  22.638  1.00  0.00     0.100 C 
HETATM   14  C   UNL     1       6.446  15.783  25.079  1.00  0.00     0.014 C 
HETATM   15  C   UNL     1       7.890  18.528  24.844  1.00  0.00     0.045 C 
HETATM   16  N   UNL     1       9.188  18.394  26.901  1.00  0.00    -0.350 N 
ATOM     17  HN  UNL     1      10.131  18.360  26.515  1.00  0.00     0.166 HD
ENDROOT
BRANCH   2  18
HETATM   18  C   UNL     1      10.150  19.147  28.996  1.00  0.00     0.226 C 
HETATM   19  O   UNL     1      11.199  18.487  28.826  1.00  0.00    -0.643 OA
HETATM   20  OXT UNL     1      10.179  20.381  29.334  1.00  0.00    -0.643 OA
ENDBRANCH   2  18
BRANCH  12  21
HETATM   21  N   UNL     1       5.840  19.940  23.162  1.00  0.00    -0.397 N 
ATOM     22  HN2 UNL     1       5.584  20.273  24.091  1.00  0.00     0.156 HD
ATOM     23  HN1 UNL     1       5.729  20.620  22.410  1.00  0.00     0.156 HD
ENDBRANCH  12  21
TORSDOF 2
ENDMDL
MODEL 6
REMARK VINA RESULT:      -7.7      1.224      1.481
REMARK  2 active torsions:
REMARK  status: ('A' for Active; 'I' for Inactive)
REMARK    1  A    between atoms: CA_2  and  C_16 
REMARK    2  A    between atoms: N_8  and  C_17 
ROOT
HETATM    1  C   UNL     1       6.953  17.586  26.662  1.00  0.00     0.014 C 
HETATM    2  CA  UNL     1       7.265  19.432  23.155  1.00  0.00     0.110 C 
HETATM    3  C   UNL     1       9.374  20.796  29.768  1.00  0.00     0.117 C 
HETATM    4  C   UNL     1       7.551  19.632  25.444  1.00  0.00     0.044 C 
HETATM    5  C   UNL     1       7.996  17.529  24.405  1.00  0.00     0.016 C 
HETATM    6  C   UNL     1       7.808  18.146  23.172  1.00  0.00     0.037 C 
HETATM    7  C   UNL     1       7.543  19.206  28.463  1.00  0.00    -0.008 C 
HETATM    8  C   UNL     1       7.516  18.218  25.531  1.00  0.00    -0.009 C 
HETATM    9  N   UNL     1       8.250  20.404  30.398  1.00  0.00    -0.372 N 
ATOM     10  HN  UNL     1       8.084  20.707  31.357  1.00  0.00     0.164 HD
HETATM   11  C   UNL     1       8.464  19.984  27.716  1.00  0.00     0.005 C 
HETATM   12  C   UNL     1       9.614  20.413  28.442  1.00  0.00     0.052 C 
HETATM   13  C   UNL     1       7.335  19.615  29.785  1.00  0.00     0.100 C 
HETATM   14  C   UNL     1       6.923  18.054  27.935  1.00  0.00     0.014 C 
HETATM   15  C   UNL     1       8.247  20.404  26.386  1.00  0.00     0.045 C 
HETATM   16  N   UNL     1       7.037  20.139  24.288  1.00  0.00    -0.350 N 
ATOM     17  HN  UNL     1       6.506  21.009  24.277  1.00  0.00     0.166 HD
ENDROOT
BRANCH   2  18
HETATM   18  C   UNL     1       6.719  19.998  21.889  1.00  0.00     0.226 C 
HETATM   19  O   UNL     1       6.999  21.186  21.619  1.00  0.00    -0.643 OA
HETATM   20  OXT UNL     1       6.525  19.128  20.970  1.00  0.00    -0.643 OA
ENDBRANCH   2  18
BRANCH  12  21
HETATM   21  N   UNL     1      10.849  20.483  27.883  1.00  0.00    -0.397 N 
ATOM     22  HN2 UNL     1      11.334  19.666  27.512  1.00  0.00     0.156 HD
ATOM     23  HN1 UNL     1      11.348  21.367  27.782  1.00  0.00     0.156 HD
ENDBRANCH  12  21
TORSDOF 2
ENDMDL
MODEL 7
REMARK VINA RESULT:      -7.5      3.392      4.332
REMARK  2 active torsions:
REMARK  status: ('A' for Active; 'I' for Inactive)
REMARK    1  A    between atoms: CA_2  and  C_16 
REMARK    2  A    between atoms: N_8  and  C_17 
ROOT
HETATM    1  C   UNL     1       9.107  17.158  26.085  1.00  0.00     0.014 C 
HETATM    2  CA  UNL     1       5.851  14.886  26.280  1.00  0.00     0.110 C 
HETATM    3  C   UNL     1       8.185  20.641  29.667  1.00  0.00     0.117 C 
HETATM    4  C   UNL     1       7.057  16.577  27.304  1.00  0.00     0.044 C 
HETATM    5  C   UNL     1       7.023  16.465  24.919  1.00  0.00     0.016 C 
HETATM    6  C   UNL     1       6.079  15.448  25.022  1.00  0.00     0.037 C 
HETATM    7  C   UNL     1       9.190  18.596  28.119  1.00  0.00    -0.008 C 
HETATM    8  C   UNL     1       7.750  16.767  26.082  1.00  0.00    -0.009 C 
HETATM    9  N   UNL     1       9.469  20.257  29.805  1.00  0.00    -0.372 N 
ATOM     10  HN  UNL     1      10.059  20.728  30.491  1.00  0.00     0.164 HD
HETATM   11  C   UNL     1       7.791  18.708  28.323  1.00  0.00     0.005 C 
HETATM   12  C   UNL     1       7.347  19.994  28.749  1.00  0.00     0.052 C 
HETATM   13  C   UNL     1       9.994  19.261  29.052  1.00  0.00     0.100 C 
HETATM   14  C   UNL     1       9.741  17.917  27.013  1.00  0.00     0.014 C 
HETATM   15  C   UNL     1       6.889  17.627  28.218  1.00  0.00     0.045 C 
HETATM   16  N   UNL     1       6.416  15.379  27.408  1.00  0.00    -0.350 N 
ATOM     17  HN  UNL     1       6.365  14.877  28.294  1.00  0.00     0.166 HD
ENDROOT
BRANCH   2  18
HETATM   18  C   UNL     1       5.133  13.585  26.400  1.00  0.00     0.226 C 
HETATM   19  O   UNL     1       5.825  12.558  26.574  1.00  0.00    -0.643 OA
HETATM   20  OXT UNL     1       3.947  13.685  26.872  1.00  0.00    -0.643 OA
ENDBRANCH   2  18
BRANCH  12  21
HETATM   21  N   UNL     1       6.179  20.543  28.328  1.00  0.00    -0.397 N 
ATOM     22  HN2 UNL     1       6.121  21.486  27.942  1.00  0.00     0.156 HD
ATOM     23  HN1 UNL     1       5.299  20.028  28.352  1.00  0.00     0.156 HD
ENDBRANCH  12  21
TORSDOF 2
ENDMDL
MODEL 8
REMARK VINA RESULT:      -7.5      3.305      4.307
REMARK  2 active torsions:
REMARK  status: ('A' for Active; 'I' for Inactive)
REMARK    1  A    between atoms: CA_2  and  C_16 
REMARK    2  A    between atoms: N_8  and  C_17 
ROOT
HETATM    1  C   UNL     1       9.761  20.796  26.523  1.00  0.00     0.014 C 
HETATM    2  CA  UNL     1      11.321  17.141  26.600  1.00  0.00     0.110 C 
HETATM    3  C   UNL     1       7.999  21.295  31.263  1.00  0.00     0.117 C 
HETATM    4  C   UNL     1      10.445  18.863  27.874  1.00  0.00     0.044 C 
HETATM    5  C   UNL     1       9.540  18.460  25.702  1.00  0.00     0.016 C 
HETATM    6  C   UNL     1      10.332  17.318  25.630  1.00  0.00     0.037 C 
HETATM    7  C   UNL     1       9.345  21.526  28.870  1.00  0.00    -0.008 C 
HETATM    8  C   UNL     1       9.881  19.399  26.689  1.00  0.00    -0.009 C 
HETATM    9  N   UNL     1       8.616  22.449  30.943  1.00  0.00    -0.372 N 
ATOM     10  HN  UNL     1       8.583  23.230  31.598  1.00  0.00     0.164 HD
HETATM   11  C   UNL     1       9.094  20.244  29.420  1.00  0.00     0.005 C 
HETATM   12  C   UNL     1       8.051  20.199  30.390  1.00  0.00     0.052 C 
HETATM   13  C   UNL     1       9.278  22.596  29.770  1.00  0.00     0.100 C 
HETATM   14  C   UNL     1       9.580  21.726  27.495  1.00  0.00     0.014 C 
HETATM   15  C   UNL     1       9.863  19.095  29.129  1.00  0.00     0.045 C 
HETATM   16  N   UNL     1      11.450  17.967  27.665  1.00  0.00    -0.350 N 
ATOM     17  HN  UNL     1      12.260  17.921  28.282  1.00  0.00     0.166 HD
ENDROOT
BRANCH   2  18
HETATM   18  C   UNL     1      12.412  16.147  26.383  1.00  0.00     0.226 C 
HETATM   19  O   UNL     1      12.869  16.035  25.225  1.00  0.00    -0.643 OA
HETATM   20  OXT UNL     1      13.137  15.936  27.417  1.00  0.00    -0.643 OA
ENDBRANCH   2  18
BRANCH  12  21
HETATM   21  N   UNL     1       7.187  19.156  30.492  1.00  0.00    -0.397 N 
ATOM     22  HN2 UNL     1       6.268  19.242  30.926  1.00  0.00     0.156 HD
ATOM     23  HN1 UNL     1       7.405  18.234  30.114  1.00  0.00     0.156 HD
ENDBRANCH  12  21
TORSDOF 2
ENDMDL
MODEL 9
REMARK VINA RESULT:      -7.4      2.905      3.888
REMARK  2 active torsions:
REMARK  status: ('A' for Active; 'I' for Inactive)
REMARK    1  A    between atoms: CA_2  and  C_16 
REMARK    2  A    between atoms: N_8  and  C_17 
ROOT
HETATM    1  C   UNL     1       8.188  18.357  28.134  1.00  0.00     0.014 C 
HETATM    2  CA  UNL     1       7.316  16.935  24.526  1.00  0.00     0.110 C 
HETATM    3  C   UNL     1      13.249  18.746  27.926  1.00  0.00     0.117 C 
HETATM    4  C   UNL     1       8.969  17.853  25.862  1.00  0.00     0.044 C 
HETATM    5  C   UNL     1       7.364  16.391  26.854  1.00  0.00     0.016 C 
HETATM    6  C   UNL     1       6.876  16.128  25.577  1.00  0.00     0.037 C 
HETATM    7  C   UNL     1      10.537  19.190  28.109  1.00  0.00    -0.008 C 
HETATM    8  C   UNL     1       8.180  17.524  26.993  1.00  0.00    -0.009 C 
HETATM    9  N   UNL     1      12.786  19.871  28.504  1.00  0.00    -0.372 N 
ATOM     10  HN  UNL     1      13.450  20.555  28.865  1.00  0.00     0.164 HD
HETATM   11  C   UNL     1      11.042  18.286  27.140  1.00  0.00     0.005 C 
HETATM   12  C   UNL     1      12.358  17.801  27.399  1.00  0.00     0.052 C 
HETATM   13  C   UNL     1      11.458  20.113  28.616  1.00  0.00     0.100 C 
HETATM   14  C   UNL     1       9.211  19.126  28.584  1.00  0.00     0.014 C 
HETATM   15  C   UNL     1      10.366  17.946  25.948  1.00  0.00     0.045 C 
HETATM   16  N   UNL     1       8.286  17.868  24.683  1.00  0.00    -0.350 N 
ATOM     17  HN  UNL     1       8.495  18.549  23.954  1.00  0.00     0.166 HD
ENDROOT
BRANCH   2  18
HETATM   18  C   UNL     1       6.583  16.939  23.228  1.00  0.00     0.226 C 
HETATM   19  O   UNL     1       6.263  18.049  22.749  1.00  0.00    -0.643 OA
HETATM   20  OXT UNL     1       6.841  15.933  22.479  1.00  0.00    -0.643 OA
ENDBRANCH   2  18
BRANCH  12  21
HETATM   21  N   UNL     1      12.737  16.527  27.125  1.00  0.00    -0.397 N 
ATOM     22  HN2 UNL     1      13.496  16.305  26.480  1.00  0.00     0.156 HD
ATOM     23  HN1 UNL     1      12.297  15.722  27.572  1.00  0.00     0.156 HD
ENDBRANCH  12  21
TORSDOF 2
ENDMDL
