REMARK  3 active torsions:
REMARK  status: ('A' for Active; 'I' for Inactive)
REMARK    1  A    between atoms: C_1  and  O_2 
REMARK    2  A    between atoms: C_16  and  O_22 
REMARK    3  A    between atoms: C_18  and  C_21 
ROOT
HETATM    1  C   UNL     1       9.947  20.019  26.645  1.00  0.00     0.237 C 
HETATM    2  O   UNL     1      10.384  23.055  28.210  1.00  0.00    -0.297 OA
HETATM    3  C   UNL     1       9.923  21.955  27.972  1.00  0.00     0.140 C 
HETATM    4  C   UNL     1       8.238  18.431  26.125  1.00  0.00     0.268 C 
HETATM    5  N   UNL     1       9.534  18.620  26.728  1.00  0.00    -0.040 N 
ATOM      6  HN1 UNL     1       9.557  18.276  27.688  1.00  0.00     0.280 HD
ATOM      7  HN2 UNL     1      10.232  17.996  26.324  1.00  0.00     0.280 HD
HETATM    8  C   UNL     1       8.602  20.733  26.546  1.00  0.00     0.095 C 
HETATM    9  C   UNL     1      10.667  20.664  27.824  1.00  0.00     0.148 C 
HETATM   10  C   UNL     1       7.714  19.815  25.758  1.00  0.00     0.153 C 
HETATM   11  C   UNL     1       8.461  21.697  27.695  1.00  0.00     0.104 C 
ENDROOT
BRANCH  11  12
HETATM   12  C   UNL     1       7.840  21.244  28.966  1.00  0.00     0.011 C 
HETATM   13  C   UNL     1       6.579  20.721  29.074  1.00  0.00     0.086 C 
HETATM   14  C   UNL     1       6.293  20.228  30.416  1.00  0.00     0.245 C 
HETATM   15  N   UNL     1       7.317  19.473  30.960  1.00  0.00    -0.330 N 
HETATM   16  O   UNL     1       5.341  20.595  31.105  1.00  0.00    -0.268 OA
HETATM   17  C   UNL     1       8.546  20.107  30.943  1.00  0.00     0.146 C 
ATOM     18  HN  UNL     1       7.178  18.536  31.338  1.00  0.00     0.168 HD
HETATM   19  C   UNL     1       8.586  21.289  30.201  1.00  0.00     0.194 C 
HETATM   20  O   UNL     1       9.109  22.374  30.634  1.00  0.00    -0.286 OA
ENDBRANCH  11  12
BRANCH   1  21
HETATM   21  O   UNL     1      10.710  20.161  25.465  1.00  0.00    -0.364 OA
ATOM     22  HO  UNL     1      10.979  21.071  25.411  1.00  0.00     0.212 HD
ENDBRANCH   1  21
BRANCH  10  23
HETATM   23  O   UNL     1       7.959  20.041  24.377  1.00  0.00    -0.393 OA
ATOM     24  HO  UNL     1       7.633  20.903  24.148  1.00  0.00     0.210 HD
ENDBRANCH  10  23
TORSDOF 3
