MODEL 1
REMARK VINA RESULT:      -9.8      0.000      0.000
REMARK  4 active torsions:
REMARK  status: ('A' for Active; 'I' for Inactive)
REMARK    1  A    between atoms: O_3  and  C_6 
REMARK    2  A    between atoms: C_5  and  C_21 
REMARK    3  A    between atoms: C_10  and  O_23 
REMARK    4  A    between atoms: C_17  and  C_28 
ROOT
HETATM    1  C   UNL     1      15.012   4.802  11.803  1.00  0.00     0.079 C 
HETATM    2  C   UNL     1      16.735   5.025  13.433  1.00  0.00     0.086 C 
HETATM    3  C   UNL     1      16.323   4.520  12.193  1.00  0.00     0.041 C 
HETATM    4  C   UNL     1      14.683   6.169  13.724  1.00  0.00     0.013 C 
HETATM    5  C   UNL     1      14.323   5.846  12.422  1.00  0.00     0.038 C 
HETATM    6  C   UNL     1      15.801   5.590  14.303  1.00  0.00    -0.018 C 
ENDROOT
BRANCH   6   7
HETATM    7  C   UNL     1      15.944   5.590  15.793  1.00  0.00     0.052 C 
HETATM    8  C   UNL     1      15.600   4.163  16.255  1.00  0.00     0.020 C 
HETATM    9  C   UNL     1      16.195   4.075  17.637  1.00  0.00     0.045 C 
HETATM   10  C   UNL     1      16.058   2.774  18.393  1.00  0.00     0.035 C 
HETATM   11  C   UNL     1      15.282   4.935  18.506  1.00  0.00     0.325 C 
HETATM   12  C   UNL     1      16.197   3.269  19.816  1.00  0.00     0.171 C 
HETATM   13  O   UNL     1      15.865   4.676  19.794  1.00  0.00    -0.359 OA
HETATM   14  N   UNL     1      15.542   6.314  18.080  1.00  0.00    -0.044 N 
HETATM   15  C   UNL     1      15.138   6.542  16.678  1.00  0.00     0.193 C 
ATOM     16  HN2 UNL     1      15.100   6.986  18.707  1.00  0.00     0.280 HD
ATOM     17  HN1 UNL     1      16.517   6.571  18.232  1.00  0.00     0.280 HD
HETATM   18  C   UNL     1      15.357   8.009  16.327  1.00  0.00     0.041 C 
ENDBRANCH   6   7
BRANCH   2  19
HETATM   19  O   UNL     1      18.026   5.131  13.687  1.00  0.00    -0.359 OA
ATOM     20  HO  UNL     1      18.449   5.976  13.591  1.00  0.00     0.217 HD
ENDBRANCH   2  19
BRANCH   3  21
HETATM   21  C   UNL     1      17.219   3.883  11.320  1.00  0.00    -0.020 C 
HETATM   22  C   UNL     1      17.092   4.032   9.942  1.00  0.00     0.012 C 
HETATM   23  C   UNL     1      17.680   3.266   8.956  1.00  0.00     0.001 C 
HETATM   24  C   UNL     1      18.376   2.088   8.956  1.00  0.00     0.000 C 
HETATM   25  C   UNL     1      18.962   1.515  10.057  1.00  0.00     0.000 C 
HETATM   26  C   UNL     1      18.937   2.060  11.323  1.00  0.00     0.001 C 
HETATM   27  C   UNL     1      18.273   3.140  11.823  1.00  0.00     0.012 C 
ENDBRANCH   3  21
BRANCH   1  28
HETATM   28  O   UNL     1      14.449   4.136  10.783  1.00  0.00    -0.360 OA
ATOM     29  HO  UNL     1      14.077   4.609  10.048  1.00  0.00     0.217 HD
ENDBRANCH   1  28
TORSDOF 4
ENDMDL
MODEL 2
REMARK VINA RESULT:      -9.7      1.460      2.420
REMARK  4 active torsions:
REMARK  status: ('A' for Active; 'I' for Inactive)
REMARK    1  A    between atoms: O_3  and  C_6 
REMARK    2  A    between atoms: C_5  and  C_21 
REMARK    3  A    between atoms: C_10  and  O_23 
REMARK    4  A    between atoms: C_17  and  C_28 
ROOT
HETATM    1  C   UNL     1      15.727   4.351  11.430  1.00  0.00     0.079 C 
HETATM    2  C   UNL     1      16.801   4.887  13.488  1.00  0.00     0.086 C 
HETATM    3  C   UNL     1      16.859   4.252  12.241  1.00  0.00     0.041 C 
HETATM    4  C   UNL     1      14.675   5.806  12.995  1.00  0.00     0.013 C 
HETATM    5  C   UNL     1      14.787   5.351  11.687  1.00  0.00     0.038 C 
HETATM    6  C   UNL     1      15.590   5.402  13.954  1.00  0.00    -0.018 C 
ENDROOT
BRANCH   6   7
HETATM    7  C   UNL     1      15.240   5.526  15.404  1.00  0.00     0.052 C 
HETATM    8  C   UNL     1      15.325   7.026  15.737  1.00  0.00     0.020 C 
HETATM    9  C   UNL     1      14.535   7.160  17.014  1.00  0.00     0.045 C 
HETATM   10  C   UNL     1      14.392   8.535  17.625  1.00  0.00     0.035 C 
HETATM   11  C   UNL     1      15.423   6.531  18.084  1.00  0.00     0.325 C 
HETATM   12  C   UNL     1      14.121   8.164  19.068  1.00  0.00     0.171 C 
HETATM   13  O   UNL     1      14.635   6.826  19.251  1.00  0.00    -0.359 OA
HETATM   14  N   UNL     1      15.409   5.094  17.792  1.00  0.00    -0.044 N 
HETATM   15  C   UNL     1      16.031   4.792  16.488  1.00  0.00     0.193 C 
ATOM     16  HN2 UNL     1      15.843   4.558  18.543  1.00  0.00     0.280 HD
ATOM     17  HN1 UNL     1      14.464   4.713  17.849  1.00  0.00     0.280 HD
HETATM   18  C   UNL     1      16.059   3.282  16.284  1.00  0.00     0.041 C 
ENDBRANCH   6   7
BRANCH   2  19
HETATM   19  O   UNL     1      17.925   5.159  14.124  1.00  0.00    -0.359 OA
ATOM     20  HO  UNL     1      18.375   5.977  13.941  1.00  0.00     0.217 HD
ENDBRANCH   2  19
BRANCH   3  21
HETATM   21  C   UNL     1      18.042   3.661  11.768  1.00  0.00    -0.020 C 
HETATM   22  C   UNL     1      18.712   4.198  10.672  1.00  0.00     0.012 C 
HETATM   23  C   UNL     1      19.692   3.596   9.910  1.00  0.00     0.001 C 
HETATM   24  C   UNL     1      20.187   2.323   9.829  1.00  0.00     0.000 C 
HETATM   25  C   UNL     1      20.022   1.349  10.782  1.00  0.00     0.000 C 
HETATM   26  C   UNL     1      19.337   1.526  11.965  1.00  0.00     0.001 C 
HETATM   27  C   UNL     1      18.584   2.567  12.420  1.00  0.00     0.012 C 
ENDBRANCH   3  21
BRANCH   1  28
HETATM   28  O   UNL     1      15.586   3.554  10.360  1.00  0.00    -0.360 OA
ATOM     29  HO  UNL     1      16.203   3.604   9.640  1.00  0.00     0.217 HD
ENDBRANCH   1  28
TORSDOF 4
ENDMDL
MODEL 3
REMARK VINA RESULT:      -9.7      2.531      3.301
REMARK  4 active torsions:
REMARK  status: ('A' for Active; 'I' for Inactive)
REMARK    1  A    between atoms: O_3  and  C_6 
REMARK    2  A    between atoms: C_5  and  C_21 
REMARK    3  A    between atoms: C_10  and  O_23 
REMARK    4  A    between atoms: C_17  and  C_28 
ROOT
HETATM    1  C   UNL     1      16.680   4.769  12.506  1.00  0.00     0.079 C 
HETATM    2  C   UNL     1      18.203   3.107  13.274  1.00  0.00     0.086 C 
HETATM    3  C   UNL     1      17.576   3.745  12.196  1.00  0.00     0.041 C 
HETATM    4  C   UNL     1      17.211   4.599  14.820  1.00  0.00     0.013 C 
HETATM    5  C   UNL     1      16.733   5.367  13.766  1.00  0.00     0.038 C 
HETATM    6  C   UNL     1      17.776   3.357  14.579  1.00  0.00    -0.018 C 
ENDROOT
BRANCH   6   7
HETATM    7  C   UNL     1      17.889   2.369  15.697  1.00  0.00     0.052 C 
HETATM    8  C   UNL     1      16.531   2.388  16.422  1.00  0.00     0.020 C 
HETATM    9  C   UNL     1      16.517   1.096  17.200  1.00  0.00     0.045 C 
HETATM   10  C   UNL     1      15.294   0.775  18.028  1.00  0.00     0.035 C 
HETATM   11  C   UNL     1      17.506   1.321  18.339  1.00  0.00     0.325 C 
HETATM   12  C   UNL     1      15.895  -0.176  19.042  1.00  0.00     0.171 C 
HETATM   13  O   UNL     1      17.314   0.096  19.066  1.00  0.00    -0.359 OA
HETATM   14  N   UNL     1      18.824   1.349  17.697  1.00  0.00    -0.044 N 
HETATM   15  C   UNL     1      18.963   2.496  16.778  1.00  0.00     0.193 C 
ATOM     16  HN2 UNL     1      19.574   1.335  18.389  1.00  0.00     0.280 HD
ATOM     17  HN1 UNL     1      19.025   0.468  17.225  1.00  0.00     0.280 HD
HETATM   18  C   UNL     1      20.378   2.513  16.211  1.00  0.00     0.041 C 
ENDBRANCH   6   7
BRANCH   2  19
HETATM   19  O   UNL     1      19.311   2.421  13.059  1.00  0.00    -0.359 OA
ATOM     20  HO  UNL     1      19.798   2.568  12.256  1.00  0.00     0.217 HD
ENDBRANCH   2  19
BRANCH   3  21
HETATM   21  C   UNL     1      17.930   3.467  10.866  1.00  0.00    -0.020 C 
HETATM   22  C   UNL     1      16.965   3.458   9.863  1.00  0.00     0.012 C 
HETATM   23  C   UNL     1      17.077   2.930   8.593  1.00  0.00     0.001 C 
HETATM   24  C   UNL     1      18.003   2.137   7.971  1.00  0.00     0.000 C 
HETATM   25  C   UNL     1      19.286   1.927   8.410  1.00  0.00     0.000 C 
HETATM   26  C   UNL     1      19.825   2.500   9.543  1.00  0.00     0.001 C 
HETATM   27  C   UNL     1      19.255   3.250  10.528  1.00  0.00     0.012 C 
ENDBRANCH   3  21
BRANCH   1  28
HETATM   28  O   UNL     1      15.836   5.238  11.574  1.00  0.00    -0.360 OA
ATOM     29  HO  UNL     1      15.997   5.072  10.653  1.00  0.00     0.217 HD
ENDBRANCH   1  28
TORSDOF 4
ENDMDL
MODEL 4
REMARK VINA RESULT:      -9.2      3.260      5.951
REMARK  4 active torsions:
REMARK  status: ('A' for Active; 'I' for Inactive)
REMARK    1  A    between atoms: O_3  and  C_6 
REMARK    2  A    between atoms: C_5  and  C_21 
REMARK    3  A    between atoms: C_10  and  O_23 
REMARK    4  A    between atoms: C_17  and  C_28 
ROOT
HETATM    1  C   UNL     1      20.376   1.428  10.470  1.00  0.00     0.079 C 
HETATM    2  C   UNL     1      19.095   2.420  12.217  1.00  0.00     0.086 C 
HETATM    3  C   UNL     1      19.830   1.322  11.751  1.00  0.00     0.041 C 
HETATM    4  C   UNL     1      19.628   3.681  10.285  1.00  0.00     0.013 C 
HETATM    5  C   UNL     1      20.515   2.689   9.887  1.00  0.00     0.038 C 
HETATM    6  C   UNL     1      18.765   3.460  11.346  1.00  0.00    -0.018 C 
ENDROOT
BRANCH   6   7
HETATM    7  C   UNL     1      17.548   4.319  11.497  1.00  0.00     0.052 C 
HETATM    8  C   UNL     1      17.204   4.310  12.998  1.00  0.00     0.020 C 
HETATM    9  C   UNL     1      16.311   5.512  13.173  1.00  0.00     0.045 C 
HETATM   10  C   UNL     1      15.794   5.823  14.558  1.00  0.00     0.035 C 
HETATM   11  C   UNL     1      14.990   5.109  12.526  1.00  0.00     0.325 C 
HETATM   12  C   UNL     1      14.556   6.623  14.214  1.00  0.00     0.171 C 
HETATM   13  O   UNL     1      14.199   6.262  12.861  1.00  0.00    -0.359 OA
HETATM   14  N   UNL     1      15.270   5.065  11.087  1.00  0.00    -0.044 N 
HETATM   15  C   UNL     1      16.249   4.013  10.750  1.00  0.00     0.193 C 
ATOM     16  HN2 UNL     1      14.412   4.960  10.546  1.00  0.00     0.280 HD
ATOM     17  HN1 UNL     1      15.568   5.975  10.740  1.00  0.00     0.280 HD
HETATM   18  C   UNL     1      16.431   3.966   9.238  1.00  0.00     0.041 C 
ENDBRANCH   6   7
BRANCH   2  19
HETATM   19  O   UNL     1      18.886   2.550  13.514  1.00  0.00    -0.359 OA
ATOM     20  HO  UNL     1      18.508   1.824  13.996  1.00  0.00     0.217 HD
ENDBRANCH   2  19
BRANCH   3  21
HETATM   21  C   UNL     1      20.123   0.226  12.577  1.00  0.00    -0.020 C 
HETATM   22  C   UNL     1      19.186  -0.786  12.768  1.00  0.00     0.012 C 
HETATM   23  C   UNL     1      19.187  -1.757  13.749  1.00  0.00     0.001 C 
HETATM   24  C   UNL     1      19.917  -1.958  14.888  1.00  0.00     0.000 C 
HETATM   25  C   UNL     1      21.119  -1.358  15.173  1.00  0.00     0.000 C 
HETATM   26  C   UNL     1      21.764  -0.472  14.337  1.00  0.00     0.001 C 
HETATM   27  C   UNL     1      21.368   0.112  13.171  1.00  0.00     0.012 C 
ENDBRANCH   3  21
BRANCH   1  28
HETATM   28  O   UNL     1      20.846   0.340   9.841  1.00  0.00    -0.360 OA
ATOM     29  HO  UNL     1      21.689  -0.027  10.080  1.00  0.00     0.217 HD
ENDBRANCH   1  28
TORSDOF 4
ENDMDL
MODEL 5
REMARK VINA RESULT:      -9.1      2.381      4.084
REMARK  4 active torsions:
REMARK  status: ('A' for Active; 'I' for Inactive)
REMARK    1  A    between atoms: O_3  and  C_6 
REMARK    2  A    between atoms: C_5  and  C_21 
REMARK    3  A    between atoms: C_10  and  O_23 
REMARK    4  A    between atoms: C_17  and  C_28 
ROOT
HETATM    1  C   UNL     1      18.026   2.398   9.784  1.00  0.00     0.079 C 
HETATM    2  C   UNL     1      18.217   3.231  12.008  1.00  0.00     0.086 C 
HETATM    3  C   UNL     1      18.519   2.227  11.079  1.00  0.00     0.041 C 
HETATM    4  C   UNL     1      17.172   4.549  10.342  1.00  0.00     0.013 C 
HETATM    5  C   UNL     1      17.623   3.668   9.368  1.00  0.00     0.038 C 
HETATM    6  C   UNL     1      17.294   4.228  11.684  1.00  0.00    -0.018 C 
ENDROOT
BRANCH   6   7
HETATM    7  C   UNL     1      16.448   4.939  12.693  1.00  0.00     0.052 C 
HETATM    8  C   UNL     1      16.682   4.216  14.032  1.00  0.00     0.020 C 
HETATM    9  C   UNL     1      16.216   5.208  15.066  1.00  0.00     0.045 C 
HETATM   10  C   UNL     1      16.324   4.825  16.524  1.00  0.00     0.035 C 
HETATM   11  C   UNL     1      14.695   5.204  14.947  1.00  0.00     0.325 C 
HETATM   12  C   UNL     1      15.265   5.725  17.122  1.00  0.00     0.171 C 
HETATM   13  O   UNL     1      14.367   6.073  16.045  1.00  0.00    -0.359 OA
HETATM   14  N   UNL     1      14.413   5.852  13.662  1.00  0.00    -0.044 N 
HETATM   15  C   UNL     1      14.934   5.069  12.525  1.00  0.00     0.193 C 
ATOM     16  HN2 UNL     1      13.418   6.046  13.555  1.00  0.00     0.280 HD
ATOM     17  HN1 UNL     1      14.765   6.809  13.645  1.00  0.00     0.280 HD
HETATM   18  C   UNL     1      14.536   5.752  11.223  1.00  0.00     0.041 C 
ENDBRANCH   6   7
BRANCH   2  19
HETATM   19  O   UNL     1      18.945   3.333  13.104  1.00  0.00    -0.359 OA
ATOM     20  HO  UNL     1      18.509   3.450  13.940  1.00  0.00     0.217 HD
ENDBRANCH   2  19
BRANCH   3  21
HETATM   21  C   UNL     1      19.389   1.169  11.392  1.00  0.00    -0.020 C 
HETATM   22  C   UNL     1      18.977   0.140  12.233  1.00  0.00     0.012 C 
HETATM   23  C   UNL     1      19.770  -0.794  12.868  1.00  0.00     0.001 C 
HETATM   24  C   UNL     1      21.119  -0.933  13.047  1.00  0.00     0.000 C 
HETATM   25  C   UNL     1      22.083  -0.290  12.311  1.00  0.00     0.000 C 
HETATM   26  C   UNL     1      21.821   0.582  11.276  1.00  0.00     0.001 C 
HETATM   27  C   UNL     1      20.649   1.112  10.824  1.00  0.00     0.012 C 
ENDBRANCH   3  21
BRANCH   1  28
HETATM   28  O   UNL     1      18.024   1.373   8.918  1.00  0.00    -0.360 OA
ATOM     29  HO  UNL     1      17.278   1.227   8.349  1.00  0.00     0.217 HD
ENDBRANCH   1  28
TORSDOF 4
ENDMDL
MODEL 6
REMARK VINA RESULT:      -9.0      1.963      2.685
REMARK  4 active torsions:
REMARK  status: ('A' for Active; 'I' for Inactive)
REMARK    1  A    between atoms: O_3  and  C_6 
REMARK    2  A    between atoms: C_5  and  C_21 
REMARK    3  A    between atoms: C_10  and  O_23 
REMARK    4  A    between atoms: C_17  and  C_28 
ROOT
HETATM    1  C   UNL     1      15.479   4.926  12.446  1.00  0.00     0.079 C 
HETATM    2  C   UNL     1      17.259   3.866  13.622  1.00  0.00     0.086 C 
HETATM    3  C   UNL     1      16.655   4.174  12.396  1.00  0.00     0.041 C 
HETATM    4  C   UNL     1      15.679   5.172  14.805  1.00  0.00     0.013 C 
HETATM    5  C   UNL     1      15.177   5.649  13.601  1.00  0.00     0.038 C 
HETATM    6  C   UNL     1      16.587   4.126  14.818  1.00  0.00    -0.018 C 
ENDROOT
BRANCH   6   7
HETATM    7  C   UNL     1      16.791   3.341  16.076  1.00  0.00     0.052 C 
HETATM    8  C   UNL     1      17.601   4.249  17.019  1.00  0.00     0.020 C 
HETATM    9  C   UNL     1      17.380   3.646  18.382  1.00  0.00     0.045 C 
HETATM   10  C   UNL     1      18.030   4.313  19.573  1.00  0.00     0.035 C 
HETATM   11  C   UNL     1      18.201   2.360  18.372  1.00  0.00     0.325 C 
HETATM   12  C   UNL     1      18.089   3.149  20.539  1.00  0.00     0.171 C 
HETATM   13  O   UNL     1      18.017   1.948  19.737  1.00  0.00    -0.359 OA
HETATM   14  N   UNL     1      17.491   1.464  17.454  1.00  0.00    -0.044 N 
HETATM   15  C   UNL     1      17.490   1.981  16.072  1.00  0.00     0.193 C 
ATOM     16  HN2 UNL     1      17.867   0.516  17.495  1.00  0.00     0.280 HD
ATOM     17  HN1 UNL     1      16.544   1.274  17.780  1.00  0.00     0.280 HD
HETATM   18  C   UNL     1      16.812   0.967  15.159  1.00  0.00     0.041 C 
ENDBRANCH   6   7
BRANCH   2  19
HETATM   19  O   UNL     1      18.530   3.508  13.640  1.00  0.00    -0.359 OA
ATOM     20  HO  UNL     1      18.754   2.605  13.834  1.00  0.00     0.217 HD
ENDBRANCH   2  19
BRANCH   3  21
HETATM   21  C   UNL     1      17.269   3.865  11.172  1.00  0.00    -0.020 C 
HETATM   22  C   UNL     1      16.522   3.814   9.999  1.00  0.00     0.012 C 
HETATM   23  C   UNL     1      16.889   3.253   8.793  1.00  0.00     0.001 C 
HETATM   24  C   UNL     1      17.926   2.457   8.391  1.00  0.00     0.000 C 
HETATM   25  C   UNL     1      19.098   2.277   9.082  1.00  0.00     0.000 C 
HETATM   26  C   UNL     1      19.397   2.888  10.281  1.00  0.00     0.001 C 
HETATM   27  C   UNL     1      18.636   3.657  11.110  1.00  0.00     0.012 C 
ENDBRANCH   3  21
BRANCH   1  28
HETATM   28  O   UNL     1      14.692   5.027  11.364  1.00  0.00    -0.360 OA
ATOM     29  HO  UNL     1      13.778   4.775  11.409  1.00  0.00     0.217 HD
ENDBRANCH   1  28
TORSDOF 4
ENDMDL
MODEL 7
REMARK VINA RESULT:      -8.8      4.434      7.044
REMARK  4 active torsions:
REMARK  status: ('A' for Active; 'I' for Inactive)
REMARK    1  A    between atoms: O_3  and  C_6 
REMARK    2  A    between atoms: C_5  and  C_21 
REMARK    3  A    between atoms: C_10  and  O_23 
REMARK    4  A    between atoms: C_17  and  C_28 
ROOT
HETATM    1  C   UNL     1      19.475   2.923  11.077  1.00  0.00     0.079 C 
HETATM    2  C   UNL     1      18.807   1.870  13.106  1.00  0.00     0.086 C 
HETATM    3  C   UNL     1      18.664   2.939  12.214  1.00  0.00     0.041 C 
HETATM    4  C   UNL     1      20.336   0.782  11.663  1.00  0.00     0.013 C 
HETATM    5  C   UNL     1      20.071   1.725  10.679  1.00  0.00     0.038 C 
HETATM    6  C   UNL     1      19.858   0.964  12.951  1.00  0.00    -0.018 C 
ENDROOT
BRANCH   6   7
HETATM    7  C   UNL     1      20.482   0.210  14.082  1.00  0.00     0.052 C 
HETATM    8  C   UNL     1      21.997   0.464  13.981  1.00  0.00     0.020 C 
HETATM    9  C   UNL     1      22.518   0.106  15.349  1.00  0.00     0.045 C 
HETATM   10  C   UNL     1      23.998   0.261  15.614  1.00  0.00     0.035 C 
HETATM   11  C   UNL     1      22.439  -1.417  15.406  1.00  0.00     0.325 C 
HETATM   12  C   UNL     1      24.174  -0.714  16.758  1.00  0.00     0.171 C 
HETATM   13  O   UNL     1      23.067  -1.641  16.680  1.00  0.00    -0.359 OA
HETATM   14  N   UNL     1      21.006  -1.720  15.467  1.00  0.00    -0.044 N 
HETATM   15  C   UNL     1      20.302  -1.301  14.239  1.00  0.00     0.193 C 
ATOM     16  HN2 UNL     1      20.844  -2.706  15.669  1.00  0.00     0.280 HD
ATOM     17  HN1 UNL     1      20.576  -1.314  16.298  1.00  0.00     0.280 HD
HETATM   18  C   UNL     1      18.840  -1.718  14.333  1.00  0.00     0.041 C 
ENDBRANCH   6   7
BRANCH   2  19
HETATM   19  O   UNL     1      17.840   1.620  13.970  1.00  0.00    -0.359 OA
ATOM     20  HO  UNL     1      18.033   1.106  14.746  1.00  0.00     0.217 HD
ENDBRANCH   2  19
BRANCH   3  21
HETATM   21  C   UNL     1      17.662   3.909  12.377  1.00  0.00    -0.020 C 
HETATM   22  C   UNL     1      17.639   4.719  13.509  1.00  0.00     0.012 C 
HETATM   23  C   UNL     1      16.593   5.495  13.965  1.00  0.00     0.001 C 
HETATM   24  C   UNL     1      15.272   5.605  13.626  1.00  0.00     0.000 C 
HETATM   25  C   UNL     1      14.716   5.155  12.455  1.00  0.00     0.000 C 
HETATM   26  C   UNL     1      15.422   4.534  11.446  1.00  0.00     0.001 C 
HETATM   27  C   UNL     1      16.715   4.106  11.387  1.00  0.00     0.012 C 
ENDBRANCH   3  21
BRANCH   1  28
HETATM   28  O   UNL     1      19.610   4.025  10.323  1.00  0.00    -0.360 OA
ATOM     29  HO  UNL     1      20.023   3.976   9.470  1.00  0.00     0.217 HD
ENDBRANCH   1  28
TORSDOF 4
ENDMDL
MODEL 8
REMARK VINA RESULT:      -8.8      2.289      7.698
REMARK  4 active torsions:
REMARK  status: ('A' for Active; 'I' for Inactive)
REMARK    1  A    between atoms: O_3  and  C_6 
REMARK    2  A    between atoms: C_5  and  C_21 
REMARK    3  A    between atoms: C_10  and  O_23 
REMARK    4  A    between atoms: C_17  and  C_28 
ROOT
HETATM    1  C   UNL     1      15.321   7.403  17.469  1.00  0.00     0.079 C 
HETATM    2  C   UNL     1      15.418   5.318  16.322  1.00  0.00     0.086 C 
HETATM    3  C   UNL     1      15.324   6.009  17.537  1.00  0.00     0.041 C 
HETATM    4  C   UNL     1      15.306   7.335  15.089  1.00  0.00     0.013 C 
HETATM    5  C   UNL     1      15.020   8.029  16.258  1.00  0.00     0.038 C 
HETATM    6  C   UNL     1      15.706   6.010  15.144  1.00  0.00    -0.018 C 
ENDROOT
BRANCH   6   7
HETATM    7  C   UNL     1      16.416   5.404  13.974  1.00  0.00     0.052 C 
HETATM    8  C   UNL     1      15.337   5.151  12.905  1.00  0.00     0.020 C 
HETATM    9  C   UNL     1      16.122   5.000  11.627  1.00  0.00     0.045 C 
HETATM   10  C   UNL     1      15.359   4.757  10.345  1.00  0.00     0.035 C 
HETATM   11  C   UNL     1      16.797   3.637  11.747  1.00  0.00     0.325 C 
HETATM   12  C   UNL     1      16.431   4.088   9.513  1.00  0.00     0.171 C 
HETATM   13  O   UNL     1      17.399   3.554  10.444  1.00  0.00    -0.359 OA
HETATM   14  N   UNL     1      17.817   3.810  12.786  1.00  0.00    -0.044 N 
HETATM   15  C   UNL     1      17.217   4.108  14.102  1.00  0.00     0.193 C 
ATOM     16  HN2 UNL     1      18.437   3.002  12.835  1.00  0.00     0.280 HD
ATOM     17  HN1 UNL     1      18.500   4.519  12.521  1.00  0.00     0.280 HD
HETATM   18  C   UNL     1      18.321   4.192  15.148  1.00  0.00     0.041 C 
ENDBRANCH   6   7
BRANCH   2  19
HETATM   19  O   UNL     1      15.049   4.051  16.273  1.00  0.00    -0.359 OA
ATOM     20  HO  UNL     1      15.130   3.515  17.053  1.00  0.00     0.217 HD
ENDBRANCH   2  19
BRANCH   3  21
HETATM   21  C   UNL     1      15.105   5.340  18.752  1.00  0.00    -0.020 C 
HETATM   22  C   UNL     1      13.812   5.138  19.225  1.00  0.00     0.012 C 
HETATM   23  C   UNL     1      13.431   4.777  20.502  1.00  0.00     0.001 C 
HETATM   24  C   UNL     1      14.088   4.678  21.698  1.00  0.00     0.000 C 
HETATM   25  C   UNL     1      15.451   4.611  21.848  1.00  0.00     0.000 C 
HETATM   26  C   UNL     1      16.351   4.623  20.804  1.00  0.00     0.001 C 
HETATM   27  C   UNL     1      16.173   4.827  19.468  1.00  0.00     0.012 C 
ENDBRANCH   3  21
BRANCH   1  28
HETATM   28  O   UNL     1      15.516   8.137  18.575  1.00  0.00    -0.360 OA
ATOM     29  HO  UNL     1      16.098   7.830  19.259  1.00  0.00     0.217 HD
ENDBRANCH   1  28
TORSDOF 4
ENDMDL
MODEL 9
REMARK VINA RESULT:      -8.8      2.496      7.467
REMARK  4 active torsions:
REMARK  status: ('A' for Active; 'I' for Inactive)
REMARK    1  A    between atoms: O_3  and  C_6 
REMARK    2  A    between atoms: C_5  and  C_21 
REMARK    3  A    between atoms: C_10  and  O_23 
REMARK    4  A    between atoms: C_17  and  C_28 
ROOT
HETATM    1  C   UNL     1      15.580   7.785  17.040  1.00  0.00     0.079 C 
HETATM    2  C   UNL     1      15.305   5.493  16.454  1.00  0.00     0.086 C 
HETATM    3  C   UNL     1      15.423   6.462  17.458  1.00  0.00     0.041 C 
HETATM    4  C   UNL     1      15.306   7.149  14.762  1.00  0.00     0.013 C 
HETATM    5  C   UNL     1      15.230   8.137  15.736  1.00  0.00     0.038 C 
HETATM    6  C   UNL     1      15.548   5.833  15.121  1.00  0.00    -0.018 C 
ENDROOT
BRANCH   6   7
HETATM    7  C   UNL     1      16.052   4.869  14.094  1.00  0.00     0.052 C 
HETATM    8  C   UNL     1      17.539   4.637  14.420  1.00  0.00     0.020 C 
HETATM    9  C   UNL     1      17.873   3.356  13.700  1.00  0.00     0.045 C 
HETATM   10  C   UNL     1      19.278   2.812  13.824  1.00  0.00     0.035 C 
HETATM   11  C   UNL     1      17.913   3.742  12.224  1.00  0.00     0.325 C 
HETATM   12  C   UNL     1      19.358   1.974  12.566  1.00  0.00     0.171 C 
HETATM   13  O   UNL     1      18.356   2.495  11.663  1.00  0.00    -0.359 OA
HETATM   14  N   UNL     1      16.517   4.012  11.866  1.00  0.00    -0.044 N 
HETATM   15  C   UNL     1      15.976   5.175  12.598  1.00  0.00     0.193 C 
ATOM     16  HN2 UNL     1      16.408   4.125  10.858  1.00  0.00     0.280 HD
ATOM     17  HN1 UNL     1      15.934   3.186  11.998  1.00  0.00     0.280 HD
HETATM   18  C   UNL     1      14.556   5.450  12.119  1.00  0.00     0.041 C 
ENDBRANCH   6   7
BRANCH   2  19
HETATM   19  O   UNL     1      14.783   4.318  16.753  1.00  0.00    -0.359 OA
ATOM     20  HO  UNL     1      14.306   3.839  16.084  1.00  0.00     0.217 HD
ENDBRANCH   2  19
BRANCH   3  21
HETATM   21  C   UNL     1      15.254   6.143  18.815  1.00  0.00    -0.020 C 
HETATM   22  C   UNL     1      16.333   5.706  19.578  1.00  0.00     0.012 C 
HETATM   23  C   UNL     1      16.293   5.083  20.810  1.00  0.00     0.001 C 
HETATM   24  C   UNL     1      15.291   4.549  21.573  1.00  0.00     0.000 C 
HETATM   25  C   UNL     1      13.953   4.808  21.415  1.00  0.00     0.000 C 
HETATM   26  C   UNL     1      13.432   5.659  20.464  1.00  0.00     0.001 C 
HETATM   27  C   UNL     1      14.022   6.311  19.423  1.00  0.00     0.012 C 
ENDBRANCH   3  21
BRANCH   1  28
HETATM   28  O   UNL     1      15.976   8.728  17.909  1.00  0.00    -0.360 OA
ATOM     29  HO  UNL     1      16.417   8.485  18.714  1.00  0.00     0.217 HD
ENDBRANCH   1  28
TORSDOF 4
ENDMDL
