MODEL 1
REMARK VINA RESULT:      -6.7      0.000      0.000
REMARK  1 active torsions:
REMARK  status: ('A' for Active; 'I' for Inactive)
REMARK    1  A    between atoms: C_14  and  O_21 
ROOT
HETATM    1  C   UNL     1      17.468   7.730 110.768  1.00  0.00     0.040 C 
HETATM    2  C   UNL     1      18.804   6.221 112.980  1.00  0.00     0.033 C 
HETATM    3  N   UNL     1      14.619   5.638 115.177  1.00  0.00    -0.050 N 
ATOM      4  HN1 UNL     1      14.059   4.921 115.640  1.00  0.00     0.279 HD
ATOM      5  HN2 UNL     1      14.493   6.387 115.859  1.00  0.00     0.279 HD
HETATM    6  N   UNL     1      15.422   6.389 111.749  1.00  0.00    -0.038 N 
ATOM      7  HN1 UNL     1      15.007   6.004 110.901  1.00  0.00     0.281 HD
ATOM      8  HN2 UNL     1      14.892   7.260 111.792  1.00  0.00     0.281 HD
HETATM    9  C   UNL     1      14.076   5.995 113.858  1.00  0.00     0.298 C 
HETATM   10  C   UNL     1      19.560   7.106 111.989  1.00  0.00     0.007 C 
HETATM   11  C   UNL     1      17.316   8.119 113.550  1.00  0.00     0.033 C 
HETATM   12  C   UNL     1      16.022   3.713 114.922  1.00  0.00     0.057 C 
HETATM   13  C   UNL     1      16.846   6.624 111.600  1.00  0.00     0.217 C 
HETATM   14  C   UNL     1      15.103   4.035 112.570  1.00  0.00     0.176 C 
HETATM   15  C   UNL     1      16.008   5.247 115.052  1.00  0.00     0.285 C 
HETATM   16  N   UNL     1      16.404   5.764 113.731  1.00  0.00    -0.340 N 
HETATM   17  C   UNL     1      15.045   3.210 113.859  1.00  0.00     0.040 C 
HETATM   18  C   UNL     1      15.182   5.548 112.902  1.00  0.00     0.248 C 
HETATM   19  C   UNL     1      18.727   8.277 111.464  1.00  0.00    -0.012 C 
HETATM   20  C   UNL     1      17.349   6.672 113.061  1.00  0.00     0.061 C 
HETATM   21  C   UNL     1      18.196   9.019 112.689  1.00  0.00     0.007 C 
ENDROOT
BRANCH  14  22
HETATM   22  O   UNL     1      13.869   3.829 111.893  1.00  0.00    -0.391 OA
ATOM     23  HO  UNL     1      14.019   3.145 111.251  1.00  0.00     0.210 HD
ENDBRANCH  14  22
TORSDOF 1
ENDMDL
MODEL 2
REMARK VINA RESULT:      -6.5      2.317      3.512
REMARK  1 active torsions:
REMARK  status: ('A' for Active; 'I' for Inactive)
REMARK    1  A    between atoms: C_14  and  O_21 
ROOT
HETATM    1  C   UNL     1      14.445   6.803 113.696  1.00  0.00     0.040 C 
HETATM    2  C   UNL     1      15.836   4.634 112.175  1.00  0.00     0.033 C 
HETATM    3  N   UNL     1      16.889   2.390 116.243  1.00  0.00    -0.050 N 
ATOM      4  HN1 UNL     1      16.872   1.461 116.663  1.00  0.00     0.279 HD
ATOM      5  HN2 UNL     1      17.819   2.676 116.550  1.00  0.00     0.279 HD
HETATM    6  N   UNL     1      14.377   4.849 115.462  1.00  0.00    -0.038 N 
ATOM      7  HN1 UNL     1      13.399   4.872 115.753  1.00  0.00     0.281 HD
ATOM      8  HN2 UNL     1      14.754   5.489 116.162  1.00  0.00     0.281 HD
HETATM    9  C   UNL     1      15.836   3.260 116.789  1.00  0.00     0.298 C 
HETATM   10  C   UNL     1      15.499   5.999 111.576  1.00  0.00     0.007 C 
HETATM   11  C   UNL     1      17.026   5.741 114.045  1.00  0.00     0.033 C 
HETATM   12  C   UNL     1      15.948   1.091 114.463  1.00  0.00     0.057 C 
HETATM   13  C   UNL     1      14.556   5.348 114.113  1.00  0.00     0.217 C 
HETATM   14  C   UNL     1      13.928   2.380 115.327  1.00  0.00     0.176 C 
HETATM   15  C   UNL     1      16.786   2.337 114.799  1.00  0.00     0.285 C 
HETATM   16  N   UNL     1      15.939   3.493 114.460  1.00  0.00    -0.340 N 
HETATM   17  C   UNL     1      14.649   1.030 115.269  1.00  0.00     0.040 C 
HETATM   18  C   UNL     1      14.946   3.524 115.575  1.00  0.00     0.248 C 
HETATM   19  C   UNL     1      15.484   7.127 112.607  1.00  0.00    -0.012 C 
HETATM   20  C   UNL     1      15.919   4.749 113.694  1.00  0.00     0.061 C 
HETATM   21  C   UNL     1      16.827   7.075 113.333  1.00  0.00     0.007 C 
ENDROOT
BRANCH  14  22
HETATM   22  O   UNL     1      13.071   2.341 116.461  1.00  0.00    -0.391 OA
ATOM     23  HO  UNL     1      13.439   2.936 117.104  1.00  0.00     0.210 HD
ENDBRANCH  14  22
TORSDOF 1
ENDMDL
MODEL 3
REMARK VINA RESULT:      -6.2      1.575      2.322
REMARK  1 active torsions:
REMARK  status: ('A' for Active; 'I' for Inactive)
REMARK    1  A    between atoms: C_14  and  O_21 
ROOT
HETATM    1  C   UNL     1      18.385   9.133 112.379  1.00  0.00     0.040 C 
HETATM    2  C   UNL     1      18.377   6.763 110.551  1.00  0.00     0.033 C 
HETATM    3  N   UNL     1      16.697   4.007 114.052  1.00  0.00    -0.050 N 
ATOM      4  HN1 UNL     1      15.984   3.298 114.231  1.00  0.00     0.279 HD
ATOM      5  HN2 UNL     1      17.479   3.553 114.524  1.00  0.00     0.279 HD
HETATM    6  N   UNL     1      16.644   7.578 113.603  1.00  0.00    -0.038 N 
ATOM      7  HN1 UNL     1      15.878   8.229 113.775  1.00  0.00     0.281 HD
ATOM      8  HN2 UNL     1      17.157   7.718 114.474  1.00  0.00     0.281 HD
HETATM    9  C   UNL     1      16.356   5.298 114.667  1.00  0.00     0.298 C 
HETATM   10  C   UNL     1      19.157   8.046 110.263  1.00  0.00     0.007 C 
HETATM   11  C   UNL     1      19.490   6.575 112.756  1.00  0.00     0.033 C 
HETATM   12  C   UNL     1      15.619   3.878 111.916  1.00  0.00     0.057 C 
HETATM   13  C   UNL     1      17.429   7.956 112.442  1.00  0.00     0.217 C 
HETATM   14  C   UNL     1      14.767   6.099 112.826  1.00  0.00     0.176 C 
HETATM   15  C   UNL     1      16.944   4.183 112.636  1.00  0.00     0.285 C 
HETATM   16  N   UNL     1      17.155   5.633 112.490  1.00  0.00    -0.340 N 
HETATM   17  C   UNL     1      14.438   4.633 112.528  1.00  0.00     0.040 C 
HETATM   18  C   UNL     1      16.179   6.216 113.458  1.00  0.00     0.248 C 
HETATM   19  C   UNL     1      19.616   8.774 111.527  1.00  0.00    -0.012 C 
HETATM   20  C   UNL     1      18.136   6.638 112.052  1.00  0.00     0.061 C 
HETATM   21  C   UNL     1      20.378   7.752 112.368  1.00  0.00     0.007 C 
ENDROOT
BRANCH  14  22
HETATM   22  O   UNL     1      13.840   6.538 113.811  1.00  0.00    -0.391 OA
ATOM     23  HO  UNL     1      13.393   5.763 114.132  1.00  0.00     0.210 HD
ENDBRANCH  14  22
TORSDOF 1
ENDMDL
MODEL 4
REMARK VINA RESULT:      -6.1      1.666      2.730
REMARK  1 active torsions:
REMARK  status: ('A' for Active; 'I' for Inactive)
REMARK    1  A    between atoms: C_14  and  O_21 
ROOT
HETATM    1  C   UNL     1      20.128   7.049 112.187  1.00  0.00     0.040 C 
HETATM    2  C   UNL     1      17.883   8.935 112.789  1.00  0.00     0.033 C 
HETATM    3  N   UNL     1      14.710   5.445 112.125  1.00  0.00    -0.050 N 
ATOM      4  HN1 UNL     1      13.879   5.038 112.554  1.00  0.00     0.279 HD
ATOM      5  HN2 UNL     1      14.382   5.473 111.160  1.00  0.00     0.279 HD
HETATM    6  N   UNL     1      18.232   5.350 112.866  1.00  0.00    -0.038 N 
ATOM      7  HN1 UNL     1      18.727   4.747 113.523  1.00  0.00     0.281 HD
ATOM      8  HN2 UNL     1      18.420   4.824 112.012  1.00  0.00     0.281 HD
HETATM    9  C   UNL     1      15.890   4.582 112.282  1.00  0.00     0.298 C 
HETATM   10  C   UNL     1      19.296   9.396 112.433  1.00  0.00     0.007 C 
HETATM   11  C   UNL     1      17.793   7.585 110.713  1.00  0.00     0.033 C 
HETATM   12  C   UNL     1      14.491   6.793 114.094  1.00  0.00     0.057 C 
HETATM   13  C   UNL     1      18.798   6.685 112.820  1.00  0.00     0.217 C 
HETATM   14  C   UNL     1      16.479   5.308 114.666  1.00  0.00     0.176 C 
HETATM   15  C   UNL     1      14.994   6.769 112.640  1.00  0.00     0.285 C 
HETATM   16  N   UNL     1      16.464   6.810 112.723  1.00  0.00    -0.340 N 
HETATM   17  C   UNL     1      14.994   5.596 114.903  1.00  0.00     0.040 C 
HETATM   18  C   UNL     1      16.817   5.426 113.157  1.00  0.00     0.248 C 
HETATM   19  C   UNL     1      20.035   8.428 111.508  1.00  0.00    -0.012 C 
HETATM   20  C   UNL     1      17.647   7.534 112.233  1.00  0.00     0.061 C 
HETATM   21  C   UNL     1      19.127   8.198 110.300  1.00  0.00     0.007 C 
ENDROOT
BRANCH  14  22
HETATM   22  O   UNL     1      16.699   3.950 115.029  1.00  0.00    -0.391 OA
ATOM     23  HO  UNL     1      15.843   3.544 115.105  1.00  0.00     0.210 HD
ENDBRANCH  14  22
TORSDOF 1
ENDMDL
MODEL 5
REMARK VINA RESULT:      -6.1      2.052      3.063
REMARK  1 active torsions:
REMARK  status: ('A' for Active; 'I' for Inactive)
REMARK    1  A    between atoms: C_14  and  O_21 
ROOT
HETATM    1  C   UNL     1      15.004   5.630 111.809  1.00  0.00     0.040 C 
HETATM    2  C   UNL     1      17.102   5.789 113.939  1.00  0.00     0.033 C 
HETATM    3  N   UNL     1      14.514   2.965 116.768  1.00  0.00    -0.050 N 
ATOM      4  HN1 UNL     1      14.607   2.149 117.374  1.00  0.00     0.279 HD
ATOM      5  HN2 UNL     1      13.943   3.543 117.385  1.00  0.00     0.279 HD
HETATM    6  N   UNL     1      14.451   3.462 113.203  1.00  0.00    -0.038 N 
ATOM      7  HN1 UNL     1      14.370   2.763 112.466  1.00  0.00     0.281 HD
ATOM      8  HN2 UNL     1      13.474   3.754 113.239  1.00  0.00     0.281 HD
HETATM    9  C   UNL     1      13.818   2.642 115.514  1.00  0.00     0.298 C 
HETATM   10  C   UNL     1      17.016   6.767 112.767  1.00  0.00     0.007 C 
HETATM   11  C   UNL     1      14.748   6.285 114.533  1.00  0.00     0.033 C 
HETATM   12  C   UNL     1      16.838   2.447 116.499  1.00  0.00     0.057 C 
HETATM   13  C   UNL     1      15.332   4.552 112.826  1.00  0.00     0.217 C 
HETATM   14  C   UNL     1      15.844   1.673 114.285  1.00  0.00     0.176 C 
HETATM   15  C   UNL     1      15.794   3.578 116.480  1.00  0.00     0.285 C 
HETATM   16  N   UNL     1      15.679   3.994 115.072  1.00  0.00    -0.340 N 
HETATM   17  C   UNL     1      16.415   1.252 115.643  1.00  0.00     0.040 C 
HETATM   18  C   UNL     1      14.892   2.886 114.455  1.00  0.00     0.248 C 
HETATM   19  C   UNL     1      15.590   6.981 112.258  1.00  0.00    -0.012 C 
HETATM   20  C   UNL     1      15.731   5.168 114.187  1.00  0.00     0.061 C 
HETATM   21  C   UNL     1      14.749   7.378 113.470  1.00  0.00     0.007 C 
ENDROOT
BRANCH  14  22
HETATM   22  O   UNL     1      15.049   0.590 113.819  1.00  0.00    -0.391 OA
ATOM     23  HO  UNL     1      15.528  -0.207 114.015  1.00  0.00     0.210 HD
ENDBRANCH  14  22
TORSDOF 1
ENDMDL
MODEL 6
REMARK VINA RESULT:      -5.9      1.435      1.571
REMARK  1 active torsions:
REMARK  status: ('A' for Active; 'I' for Inactive)
REMARK    1  A    between atoms: C_14  and  O_21 
ROOT
HETATM    1  C   UNL     1      17.582   6.344 110.812  1.00  0.00     0.040 C 
HETATM    2  C   UNL     1      18.352   6.410 113.703  1.00  0.00     0.033 C 
HETATM    3  N   UNL     1      14.256   4.290 114.892  1.00  0.00    -0.050 N 
ATOM      4  HN1 UNL     1      13.894   3.535 115.475  1.00  0.00     0.279 HD
ATOM      5  HN2 UNL     1      13.568   5.005 115.131  1.00  0.00     0.279 HD
HETATM    6  N   UNL     1      16.043   4.431 111.770  1.00  0.00    -0.038 N 
ATOM      7  HN1 UNL     1      16.214   3.680 111.102  1.00  0.00     0.281 HD
ATOM      8  HN2 UNL     1      15.244   4.864 111.307  1.00  0.00     0.281 HD
HETATM    9  C   UNL     1      14.222   3.948 113.463  1.00  0.00     0.298 C 
HETATM   10  C   UNL     1      19.027   7.267 112.633  1.00  0.00     0.007 C 
HETATM   11  C   UNL     1      16.140   7.300 113.029  1.00  0.00     0.033 C 
HETATM   12  C   UNL     1      16.279   3.415 115.832  1.00  0.00     0.057 C 
HETATM   13  C   UNL     1      17.171   5.337 111.871  1.00  0.00     0.217 C 
HETATM   14  C   UNL     1      16.383   2.576 113.430  1.00  0.00     0.176 C 
HETATM   15  C   UNL     1      15.597   4.678 115.277  1.00  0.00     0.285 C 
HETATM   16  N   UNL     1      16.265   4.963 113.995  1.00  0.00    -0.340 N 
HETATM   17  C   UNL     1      16.129   2.215 114.897  1.00  0.00     0.040 C 
HETATM   18  C   UNL     1      15.702   3.925 113.082  1.00  0.00     0.248 C 
HETATM   19  C   UNL     1      18.099   7.634 111.474  1.00  0.00    -0.012 C 
HETATM   20  C   UNL     1      16.951   6.023 113.239  1.00  0.00     0.061 C 
HETATM   21  C   UNL     1      16.855   8.269 112.095  1.00  0.00     0.007 C 
ENDROOT
BRANCH  14  22
HETATM   22  O   UNL     1      15.744   1.579 112.644  1.00  0.00    -0.391 OA
ATOM     23  HO  UNL     1      15.062   2.016 112.147  1.00  0.00     0.210 HD
ENDBRANCH  14  22
TORSDOF 1
ENDMDL
MODEL 7
REMARK VINA RESULT:      -5.9      1.901      4.950
REMARK  1 active torsions:
REMARK  status: ('A' for Active; 'I' for Inactive)
REMARK    1  A    between atoms: C_14  and  O_21 
ROOT
HETATM    1  C   UNL     1      14.749   1.565 114.573  1.00  0.00     0.040 C 
HETATM    2  C   UNL     1      17.405   2.908 114.894  1.00  0.00     0.033 C 
HETATM    3  N   UNL     1      16.369   5.912 111.346  1.00  0.00    -0.050 N 
ATOM      4  HN1 UNL     1      16.406   6.904 111.110  1.00  0.00     0.279 HD
ATOM      5  HN2 UNL     1      16.742   5.538 110.473  1.00  0.00     0.279 HD
HETATM    6  N   UNL     1      14.255   3.898 113.452  1.00  0.00    -0.038 N 
ATOM      7  HN1 UNL     1      13.374   4.154 113.898  1.00  0.00     0.281 HD
ATOM      8  HN2 UNL     1      13.874   3.410 112.641  1.00  0.00     0.281 HD
HETATM    9  C   UNL     1      14.994   5.457 111.598  1.00  0.00     0.298 C 
HETATM   10  C   UNL     1      17.084   1.529 115.471  1.00  0.00     0.007 C 
HETATM   11  C   UNL     1      16.715   2.134 112.643  1.00  0.00     0.033 C 
HETATM   12  C   UNL     1      17.242   6.841 113.375  1.00  0.00     0.057 C 
HETATM   13  C   UNL     1      15.055   3.024 114.289  1.00  0.00     0.217 C 
HETATM   14  C   UNL     1      14.845   6.274 114.019  1.00  0.00     0.176 C 
HETATM   15  C   UNL     1      17.212   5.590 112.479  1.00  0.00     0.285 C 
HETATM   16  N   UNL     1      16.437   4.582 113.223  1.00  0.00    -0.340 N 
HETATM   17  C   UNL     1      15.841   7.382 113.665  1.00  0.00     0.040 C 
HETATM   18  C   UNL     1      15.030   5.059 113.073  1.00  0.00     0.248 C 
HETATM   19  C   UNL     1      16.055   0.752 114.649  1.00  0.00    -0.012 C 
HETATM   20  C   UNL     1      16.480   3.196 113.715  1.00  0.00     0.061 C 
HETATM   21  C   UNL     1      16.573   0.726 113.212  1.00  0.00     0.007 C 
ENDROOT
BRANCH  14  22
HETATM   22  O   UNL     1      13.545   6.794 113.768  1.00  0.00    -0.391 OA
ATOM     23  HO  UNL     1      12.935   6.073 113.876  1.00  0.00     0.210 HD
ENDBRANCH  14  22
TORSDOF 1
ENDMDL
MODEL 8
REMARK VINA RESULT:      -5.8      1.908      2.972
REMARK  1 active torsions:
REMARK  status: ('A' for Active; 'I' for Inactive)
REMARK    1  A    between atoms: C_14  and  O_21 
ROOT
HETATM    1  C   UNL     1      17.391   8.344 113.827  1.00  0.00     0.040 C 
HETATM    2  C   UNL     1      16.073   6.436 111.935  1.00  0.00     0.033 C 
HETATM    3  N   UNL     1      17.194   2.775 114.769  1.00  0.00    -0.050 N 
ATOM      4  HN1 UNL     1      16.783   1.938 115.182  1.00  0.00     0.279 HD
ATOM      5  HN2 UNL     1      18.076   2.369 114.455  1.00  0.00     0.279 HD
HETATM    6  N   UNL     1      16.931   6.304 115.432  1.00  0.00    -0.038 N 
ATOM      7  HN1 UNL     1      16.509   6.770 116.235  1.00  0.00     0.281 HD
ATOM      8  HN2 UNL     1      17.906   6.343 115.733  1.00  0.00     0.281 HD
HETATM    9  C   UNL     1      17.400   3.838 115.764  1.00  0.00     0.298 C 
HETATM   10  C   UNL     1      16.471   7.861 111.552  1.00  0.00     0.007 C 
HETATM   11  C   UNL     1      18.392   5.980 112.678  1.00  0.00     0.033 C 
HETATM   12  C   UNL     1      14.940   2.916 113.967  1.00  0.00     0.057 C 
HETATM   13  C   UNL     1      16.713   7.038 114.200  1.00  0.00     0.217 C 
HETATM   14  C   UNL     1      15.000   4.730 115.754  1.00  0.00     0.176 C 
HETATM   15  C   UNL     1      16.405   3.279 113.664  1.00  0.00     0.285 C 
HETATM   16  N   UNL     1      16.492   4.743 113.804  1.00  0.00    -0.340 N 
HETATM   17  C   UNL     1      14.522   3.323 115.381  1.00  0.00     0.040 C 
HETATM   18  C   UNL     1      16.462   4.944 115.282  1.00  0.00     0.248 C 
HETATM   19  C   UNL     1      17.690   8.377 112.317  1.00  0.00    -0.012 C 
HETATM   20  C   UNL     1      16.926   5.965 113.108  1.00  0.00     0.061 C 
HETATM   21  C   UNL     1      18.798   7.342 112.125  1.00  0.00     0.007 C 
ENDROOT
BRANCH  14  22
HETATM   22  O   UNL     1      15.015   4.796 117.175  1.00  0.00    -0.391 OA
ATOM     23  HO  UNL     1      14.397   4.144 117.487  1.00  0.00     0.210 HD
ENDBRANCH  14  22
TORSDOF 1
ENDMDL
MODEL 9
REMARK VINA RESULT:      -5.7      2.147      5.183
REMARK  1 active torsions:
REMARK  status: ('A' for Active; 'I' for Inactive)
REMARK    1  A    between atoms: C_14  and  O_21 
ROOT
HETATM    1  C   UNL     1      15.202   2.504 116.515  1.00  0.00     0.040 C 
HETATM    2  C   UNL     1      17.196   2.995 114.337  1.00  0.00     0.033 C 
HETATM    3  N   UNL     1      14.700   6.764 112.836  1.00  0.00    -0.050 N 
ATOM      4  HN1 UNL     1      14.825   7.734 112.547  1.00  0.00     0.279 HD
ATOM      5  HN2 UNL     1      14.065   6.468 112.093  1.00  0.00     0.279 HD
HETATM    6  N   UNL     1      14.746   5.048 116.001  1.00  0.00    -0.038 N 
ATOM      7  HN1 UNL     1      14.744   5.447 116.939  1.00  0.00     0.281 HD
ATOM      8  HN2 UNL     1      13.750   4.838 115.926  1.00  0.00     0.281 HD
HETATM    9  C   UNL     1      14.079   6.660 114.165  1.00  0.00     0.298 C 
HETATM   10  C   UNL     1      17.089   1.674 115.098  1.00  0.00     0.007 C 
HETATM   11  C   UNL     1      14.791   2.862 113.755  1.00  0.00     0.033 C 
HETATM   12  C   UNL     1      17.063   7.034 113.124  1.00  0.00     0.057 C 
HETATM   13  C   UNL     1      15.563   3.852 115.919  1.00  0.00     0.217 C 
HETATM   14  C   UNL     1      16.216   7.030 115.525  1.00  0.00     0.176 C 
HETATM   15  C   UNL     1      15.945   6.024 112.812  1.00  0.00     0.285 C 
HETATM   16  N   UNL     1      15.858   5.145 113.992  1.00  0.00    -0.340 N 
HETATM   17  C   UNL     1      16.760   7.871 114.367  1.00  0.00     0.040 C 
HETATM   18  C   UNL     1      15.176   6.004 115.004  1.00  0.00     0.248 C 
HETATM   19  C   UNL     1      15.674   1.368 115.588  1.00  0.00    -0.012 C 
HETATM   20  C   UNL     1      15.863   3.734 114.407  1.00  0.00     0.061 C 
HETATM   21  C   UNL     1      14.758   1.466 114.369  1.00  0.00     0.007 C 
ENDROOT
BRANCH  14  22
HETATM   22  O   UNL     1      15.518   7.919 116.388  1.00  0.00    -0.391 OA
ATOM     23  HO  UNL     1      15.912   8.776 116.276  1.00  0.00     0.210 HD
ENDBRANCH  14  22
TORSDOF 1
ENDMDL
