MODEL 1
REMARK VINA RESULT:      -9.7      0.000      0.000
REMARK  4 active torsions:
REMARK  status: ('A' for Active; 'I' for Inactive)
REMARK    1  A    between atoms: C_2  and  C_23 
REMARK    2  A    between atoms: C_5  and  C_25 
REMARK    3  A    between atoms: C_10  and  N_12 
REMARK    4  A    between atoms: C_24  and  C_31 
ROOT
HETATM    1  C   UNL     1      46.098  78.487  89.172  1.00  0.00     0.002 C 
HETATM    2  C   UNL     1      43.542  77.573  87.212  1.00  0.00    -0.017 C 
HETATM    3  C   UNL     1      43.991  78.825  87.685  1.00  0.00     0.013 C 
HETATM    4  C   UNL     1      46.313  74.494  86.771  1.00  0.00     0.096 C 
HETATM    5  C   UNL     1      44.963  79.091  88.635  1.00  0.00     0.001 C 
HETATM    6  C   UNL     1      46.545  77.223  88.828  1.00  0.00     0.030 C 
HETATM    7  C   UNL     1      45.104  74.118  87.366  1.00  0.00    -0.033 C 
HETATM    8  C   UNL     1      45.953  76.550  87.685  1.00  0.00     0.043 C 
HETATM    9  C   UNL     1      44.105  75.106  87.389  1.00  0.00     0.024 C 
HETATM   10  N   UNL     1      46.758  75.763  86.886  1.00  0.00    -0.365 N 
ATOM     11  HN  UNL     1      47.604  76.106  86.429  1.00  0.00     0.165 HD
HETATM   12  C   UNL     1      44.525  76.435  87.426  1.00  0.00     0.002 C 
ENDROOT
BRANCH   2  13
HETATM   13  C   UNL     1      42.143  77.388  86.754  1.00  0.00    -0.035 C 
HETATM   14  C   UNL     1      41.441  76.119  86.913  1.00  0.00     0.067 C 
HETATM   15  C   UNL     1      40.438  75.806  85.937  1.00  0.00    -0.026 C 
HETATM   16  C   UNL     1      40.122  76.712  84.889  1.00  0.00    -0.026 C 
HETATM   17  C   UNL     1      40.760  77.996  84.815  1.00  0.00     0.068 C 
HETATM   18  C   UNL     1      41.321  78.424  86.074  1.00  0.00    -0.021 C 
BRANCH  18  19
HETATM   19  C   UNL     1      40.811  79.625  86.771  1.00  0.00     0.040 C 
HETATM   20  C   UNL     1      40.147  80.652  86.073  1.00  0.00     0.030 C 
HETATM   21  C   UNL     1      40.447  81.969  86.457  1.00  0.00     0.006 C 
HETATM   22  C   UNL     1      41.091  82.208  87.663  1.00  0.00     0.048 C 
HETATM   23  C   UNL     1      41.169  81.116  88.555  1.00  0.00     0.099 C 
HETATM   24  N   UNL     1      41.071  79.822  88.109  1.00  0.00    -0.342 N 
ATOM     25  HN  UNL     1      41.187  79.034  88.746  1.00  0.00     0.167 HD
BRANCH  23  26
HETATM   26  N   UNL     1      41.246  81.387  89.895  1.00  0.00    -0.385 N 
ATOM     27  HN2 UNL     1      40.416  81.333  90.484  1.00  0.00     0.157 HD
ATOM     28  HN1 UNL     1      42.139  81.714  90.265  1.00  0.00     0.157 HD
ENDBRANCH  23  26
ENDBRANCH  18  19
ENDBRANCH   2  13
BRANCH   7  29
HETATM   29  C   UNL     1      44.880  72.703  87.829  1.00  0.00    -0.011 C 
HETATM   30  C   UNL     1      46.046  71.725  87.765  1.00  0.00     0.019 C 
HETATM   31  C   UNL     1      45.182  70.518  88.177  1.00  0.00    -0.013 C 
HETATM   32  C   UNL     1      44.080  70.562  87.117  1.00  0.00     0.005 C 
HETATM   33  C   UNL     1      44.529  71.008  89.489  1.00  0.00     0.005 C 
HETATM   34  C   UNL     1      43.897  72.050  86.849  1.00  0.00     0.015 C 
HETATM   35  C   UNL     1      44.411  72.523  89.272  1.00  0.00     0.015 C 
ENDBRANCH   7  29
TORSDOF 4
ENDMDL
MODEL 2
REMARK VINA RESULT:      -9.2      1.300      1.916
REMARK  4 active torsions:
REMARK  status: ('A' for Active; 'I' for Inactive)
REMARK    1  A    between atoms: C_2  and  C_23 
REMARK    2  A    between atoms: C_5  and  C_25 
REMARK    3  A    between atoms: C_10  and  N_12 
REMARK    4  A    between atoms: C_24  and  C_31 
ROOT
HETATM    1  C   UNL     1      46.932  78.797  88.892  1.00  0.00     0.002 C 
HETATM    2  C   UNL     1      44.231  77.463  87.432  1.00  0.00    -0.017 C 
HETATM    3  C   UNL     1      44.820  78.744  87.374  1.00  0.00     0.013 C 
HETATM    4  C   UNL     1      46.656  74.182  88.272  1.00  0.00     0.096 C 
HETATM    5  C   UNL     1      45.847  79.257  88.149  1.00  0.00     0.001 C 
HETATM    6  C   UNL     1      47.235  77.459  89.081  1.00  0.00     0.030 C 
HETATM    7  C   UNL     1      45.436  74.204  88.957  1.00  0.00    -0.033 C 
HETATM    8  C   UNL     1      46.539  76.457  88.293  1.00  0.00     0.043 C 
HETATM    9  C   UNL     1      44.544  75.221  88.578  1.00  0.00     0.024 C 
HETATM   10  N   UNL     1      47.231  75.337  87.879  1.00  0.00    -0.365 N 
ATOM     11  HN  UNL     1      48.091  75.379  87.331  1.00  0.00     0.165 HD
HETATM   12  C   UNL     1      45.099  76.404  88.089  1.00  0.00     0.002 C 
ENDROOT
BRANCH   2  13
HETATM   13  C   UNL     1      42.804  77.264  87.072  1.00  0.00    -0.035 C 
HETATM   14  C   UNL     1      42.116  76.001  87.319  1.00  0.00     0.067 C 
HETATM   15  C   UNL     1      41.052  75.656  86.421  1.00  0.00    -0.026 C 
HETATM   16  C   UNL     1      40.668  76.525  85.367  1.00  0.00    -0.026 C 
HETATM   17  C   UNL     1      41.298  77.806  85.208  1.00  0.00     0.068 C 
HETATM   18  C   UNL     1      41.939  78.276  86.413  1.00  0.00    -0.021 C 
BRANCH  18  19
HETATM   19  C   UNL     1      41.473  79.500  87.100  1.00  0.00     0.040 C 
HETATM   20  C   UNL     1      40.306  80.173  86.691  1.00  0.00     0.030 C 
HETATM   21  C   UNL     1      40.356  81.576  86.693  1.00  0.00     0.006 C 
HETATM   22  C   UNL     1      41.371  82.232  87.376  1.00  0.00     0.048 C 
HETATM   23  C   UNL     1      42.146  81.439  88.251  1.00  0.00     0.099 C 
HETATM   24  N   UNL     1      42.234  80.079  88.093  1.00  0.00    -0.342 N 
ATOM     25  HN  UNL     1      42.840  79.516  88.689  1.00  0.00     0.167 HD
BRANCH  23  26
HETATM   26  N   UNL     1      42.730  82.054  89.325  1.00  0.00    -0.385 N 
ATOM     27  HN2 UNL     1      43.557  81.652  89.766  1.00  0.00     0.157 HD
ATOM     28  HN1 UNL     1      42.271  82.880  89.710  1.00  0.00     0.157 HD
ENDBRANCH  23  26
ENDBRANCH  18  19
ENDBRANCH   2  13
BRANCH   7  29
HETATM   29  C   UNL     1      45.085  73.120  89.940  1.00  0.00    -0.011 C 
HETATM   30  C   UNL     1      44.199  73.474  91.127  1.00  0.00     0.019 C 
HETATM   31  C   UNL     1      44.353  72.088  91.781  1.00  0.00    -0.013 C 
HETATM   32  C   UNL     1      45.875  71.976  91.890  1.00  0.00     0.005 C 
HETATM   33  C   UNL     1      43.939  71.132  90.641  1.00  0.00     0.005 C 
HETATM   34  C   UNL     1      46.380  72.712  90.655  1.00  0.00     0.015 C 
HETATM   35  C   UNL     1      44.365  71.895  89.378  1.00  0.00     0.015 C 
ENDBRANCH   7  29
TORSDOF 4
ENDMDL
MODEL 3
REMARK VINA RESULT:      -9.0      3.466      7.509
REMARK  4 active torsions:
REMARK  status: ('A' for Active; 'I' for Inactive)
REMARK    1  A    between atoms: C_2  and  C_23 
REMARK    2  A    between atoms: C_5  and  C_25 
REMARK    3  A    between atoms: C_10  and  N_12 
REMARK    4  A    between atoms: C_24  and  C_31 
ROOT
HETATM    1  C   UNL     1      50.986  74.302  90.612  1.00  0.00     0.002 C 
HETATM    2  C   UNL     1      47.681  74.185  91.138  1.00  0.00    -0.017 C 
HETATM    3  C   UNL     1      48.688  73.196  91.129  1.00  0.00     0.013 C 
HETATM    4  C   UNL     1      48.729  78.095  92.119  1.00  0.00     0.096 C 
HETATM    5  C   UNL     1      50.010  73.314  90.731  1.00  0.00     0.001 C 
HETATM    6  C   UNL     1      50.771  75.644  90.874  1.00  0.00     0.030 C 
HETATM    7  C   UNL     1      47.872  77.973  91.020  1.00  0.00    -0.033 C 
HETATM    8  C   UNL     1      49.539  76.050  91.527  1.00  0.00     0.043 C 
HETATM    9  C   UNL     1      47.391  76.678  90.765  1.00  0.00     0.024 C 
HETATM   10  N   UNL     1      49.577  77.094  92.430  1.00  0.00    -0.365 N 
ATOM     11  HN  UNL     1      50.185  77.106  93.249  1.00  0.00     0.165 HD
HETATM   12  C   UNL     1      48.205  75.611  91.147  1.00  0.00     0.002 C 
ENDROOT
BRANCH   2  13
HETATM   13  C   UNL     1      46.256  73.823  90.935  1.00  0.00    -0.035 C 
HETATM   14  C   UNL     1      45.291  73.850  92.028  1.00  0.00     0.067 C 
HETATM   15  C   UNL     1      44.197  72.926  91.950  1.00  0.00    -0.026 C 
HETATM   16  C   UNL     1      44.048  72.054  90.839  1.00  0.00    -0.026 C 
HETATM   17  C   UNL     1      44.959  72.118  89.731  1.00  0.00     0.068 C 
HETATM   18  C   UNL     1      45.662  73.376  89.648  1.00  0.00    -0.021 C 
BRANCH  18  19
HETATM   19  C   UNL     1      45.476  74.283  88.495  1.00  0.00     0.040 C 
HETATM   20  C   UNL     1      46.556  74.654  87.670  1.00  0.00     0.030 C 
HETATM   21  C   UNL     1      46.591  75.992  87.247  1.00  0.00     0.006 C 
HETATM   22  C   UNL     1      45.458  76.784  87.360  1.00  0.00     0.048 C 
HETATM   23  C   UNL     1      44.253  76.109  87.656  1.00  0.00     0.099 C 
HETATM   24  N   UNL     1      44.255  74.877  88.261  1.00  0.00    -0.342 N 
ATOM     25  HN  UNL     1      43.385  74.419  88.528  1.00  0.00     0.167 HD
BRANCH  23  26
HETATM   26  N   UNL     1      43.080  76.675  87.234  1.00  0.00    -0.385 N 
ATOM     27  HN2 UNL     1      42.185  76.338  87.587  1.00  0.00     0.157 HD
ATOM     28  HN1 UNL     1      43.130  77.388  86.506  1.00  0.00     0.157 HD
ENDBRANCH  23  26
ENDBRANCH  18  19
ENDBRANCH   2  13
BRANCH   7  29
HETATM   29  C   UNL     1      47.418  79.189  90.258  1.00  0.00    -0.011 C 
HETATM   30  C   UNL     1      45.943  79.311  89.896  1.00  0.00     0.019 C 
HETATM   31  C   UNL     1      46.156  80.579  89.048  1.00  0.00    -0.013 C 
HETATM   32  C   UNL     1      47.214  80.100  88.053  1.00  0.00     0.005 C 
HETATM   33  C   UNL     1      46.891  81.518  90.030  1.00  0.00     0.005 C 
HETATM   34  C   UNL     1      48.055  79.122  88.864  1.00  0.00     0.015 C 
HETATM   35  C   UNL     1      47.683  80.543  90.913  1.00  0.00     0.015 C 
ENDBRANCH   7  29
TORSDOF 4
ENDMDL
MODEL 4
REMARK VINA RESULT:      -8.8      2.668      7.230
REMARK  4 active torsions:
REMARK  status: ('A' for Active; 'I' for Inactive)
REMARK    1  A    between atoms: C_2  and  C_23 
REMARK    2  A    between atoms: C_5  and  C_25 
REMARK    3  A    between atoms: C_10  and  N_12 
REMARK    4  A    between atoms: C_24  and  C_31 
ROOT
HETATM    1  C   UNL     1      42.131  77.153  87.157  1.00  0.00     0.002 C 
HETATM    2  C   UNL     1      44.477  74.772  87.350  1.00  0.00    -0.017 C 
HETATM    3  C   UNL     1      43.223  74.835  86.705  1.00  0.00     0.013 C 
HETATM    4  C   UNL     1      46.568  78.314  88.006  1.00  0.00     0.096 C 
HETATM    5  C   UNL     1      42.240  75.805  86.823  1.00  0.00     0.001 C 
HETATM    6  C   UNL     1      43.191  77.942  87.569  1.00  0.00     0.030 C 
HETATM    7  C   UNL     1      46.549  77.432  89.091  1.00  0.00    -0.033 C 
HETATM    8  C   UNL     1      44.544  77.431  87.442  1.00  0.00     0.043 C 
HETATM    9  C   UNL     1      45.977  76.173  88.841  1.00  0.00     0.024 C 
HETATM   10  N   UNL     1      45.558  78.307  87.111  1.00  0.00    -0.365 N 
ATOM     11  HN  UNL     1      45.546  78.890  86.273  1.00  0.00     0.165 HD
HETATM   12  C   UNL     1      44.984  76.108  87.863  1.00  0.00     0.002 C 
ENDROOT
BRANCH   2  13
HETATM   13  C   UNL     1      45.104  73.466  87.670  1.00  0.00    -0.035 C 
HETATM   14  C   UNL     1      46.044  72.819  86.760  1.00  0.00     0.067 C 
HETATM   15  C   UNL     1      46.089  71.385  86.786  1.00  0.00    -0.026 C 
HETATM   16  C   UNL     1      45.280  70.640  87.683  1.00  0.00    -0.026 C 
HETATM   17  C   UNL     1      44.436  71.306  88.635  1.00  0.00     0.068 C 
HETATM   18  C   UNL     1      44.840  72.667  88.896  1.00  0.00    -0.021 C 
BRANCH  18  19
HETATM   19  C   UNL     1      45.301  73.085  90.237  1.00  0.00     0.040 C 
HETATM   20  C   UNL     1      46.661  73.020  90.600  1.00  0.00     0.030 C 
HETATM   21  C   UNL     1      46.943  72.582  91.903  1.00  0.00     0.006 C 
HETATM   22  C   UNL     1      45.934  72.549  92.856  1.00  0.00     0.048 C 
HETATM   23  C   UNL     1      44.735  73.215  92.517  1.00  0.00     0.099 C 
HETATM   24  N   UNL     1      44.394  73.448  91.208  1.00  0.00    -0.342 N 
ATOM     25  HN  UNL     1      43.501  73.875  90.964  1.00  0.00     0.167 HD
BRANCH  23  26
HETATM   26  N   UNL     1      43.967  73.709  93.536  1.00  0.00    -0.385 N 
ATOM     27  HN2 UNL     1      44.120  74.653  93.890  1.00  0.00     0.157 HD
ATOM     28  HN1 UNL     1      43.292  73.081  93.973  1.00  0.00     0.157 HD
ENDBRANCH  23  26
ENDBRANCH  18  19
ENDBRANCH   2  13
BRANCH   7  29
HETATM   29  C   UNL     1      47.218  77.793  90.390  1.00  0.00    -0.011 C 
HETATM   30  C   UNL     1      48.730  77.976  90.403  1.00  0.00     0.019 C 
HETATM   31  C   UNL     1      48.794  78.146  91.932  1.00  0.00    -0.013 C 
HETATM   32  C   UNL     1      48.113  76.861  92.406  1.00  0.00     0.005 C 
HETATM   33  C   UNL     1      47.779  79.282  92.185  1.00  0.00     0.005 C 
HETATM   34  C   UNL     1      47.061  76.595  91.336  1.00  0.00     0.015 C 
HETATM   35  C   UNL     1      46.750  79.083  91.063  1.00  0.00     0.015 C 
ENDBRANCH   7  29
TORSDOF 4
ENDMDL
MODEL 5
REMARK VINA RESULT:      -8.5      2.847      7.232
REMARK  4 active torsions:
REMARK  status: ('A' for Active; 'I' for Inactive)
REMARK    1  A    between atoms: C_2  and  C_23 
REMARK    2  A    between atoms: C_5  and  C_25 
REMARK    3  A    between atoms: C_10  and  N_12 
REMARK    4  A    between atoms: C_24  and  C_31 
ROOT
HETATM    1  C   UNL     1      42.606  76.984  87.498  1.00  0.00     0.002 C 
HETATM    2  C   UNL     1      44.763  74.423  87.474  1.00  0.00    -0.017 C 
HETATM    3  C   UNL     1      43.467  74.593  86.940  1.00  0.00     0.013 C 
HETATM    4  C   UNL     1      47.177  77.781  87.968  1.00  0.00     0.096 C 
HETATM    5  C   UNL     1      42.578  75.635  87.147  1.00  0.00     0.001 C 
HETATM    6  C   UNL     1      43.757  77.681  87.822  1.00  0.00     0.030 C 
HETATM    7  C   UNL     1      47.181  76.890  89.046  1.00  0.00    -0.033 C 
HETATM    8  C   UNL     1      45.049  77.067  87.575  1.00  0.00     0.043 C 
HETATM    9  C   UNL     1      46.491  75.683  88.839  1.00  0.00     0.024 C 
HETATM   10  N   UNL     1      46.098  77.865  87.163  1.00  0.00    -0.365 N 
ATOM     11  HN  UNL     1      46.060  78.457  86.333  1.00  0.00     0.165 HD
HETATM   12  C   UNL     1      45.417  75.709  87.949  1.00  0.00     0.002 C 
ENDROOT
BRANCH   2  13
HETATM   13  C   UNL     1      45.309  73.068  87.732  1.00  0.00    -0.035 C 
HETATM   14  C   UNL     1      46.362  72.491  86.903  1.00  0.00     0.067 C 
HETATM   15  C   UNL     1      46.374  71.062  86.771  1.00  0.00    -0.026 C 
HETATM   16  C   UNL     1      45.425  70.253  87.448  1.00  0.00    -0.026 C 
HETATM   17  C   UNL     1      44.461  70.841  88.335  1.00  0.00     0.068 C 
HETATM   18  C   UNL     1      44.849  72.149  88.806  1.00  0.00    -0.021 C 
BRANCH  18  19
HETATM   19  C   UNL     1      45.111  72.400  90.240  1.00  0.00     0.040 C 
HETATM   20  C   UNL     1      44.060  72.526  91.168  1.00  0.00     0.030 C 
HETATM   21  C   UNL     1      44.205  73.518  92.150  1.00  0.00     0.006 C 
HETATM   22  C   UNL     1      45.449  74.089  92.380  1.00  0.00     0.048 C 
HETATM   23  C   UNL     1      46.551  73.439  91.783  1.00  0.00     0.099 C 
HETATM   24  N   UNL     1      46.394  72.627  90.688  1.00  0.00    -0.342 N 
ATOM     25  HN  UNL     1      47.198  72.207  90.222  1.00  0.00     0.167 HD
BRANCH  23  26
HETATM   26  N   UNL     1      47.773  73.564  92.388  1.00  0.00    -0.385 N 
ATOM     27  HN2 UNL     1      47.994  74.388  92.945  1.00  0.00     0.157 HD
ATOM     28  HN1 UNL     1      48.473  72.845  92.203  1.00  0.00     0.157 HD
ENDBRANCH  23  26
ENDBRANCH  18  19
ENDBRANCH   2  13
BRANCH   7  29
HETATM   29  C   UNL     1      47.985  77.181  90.285  1.00  0.00    -0.011 C 
HETATM   30  C   UNL     1      47.287  77.112  91.637  1.00  0.00     0.019 C 
HETATM   31  C   UNL     1      48.512  77.641  92.406  1.00  0.00    -0.013 C 
HETATM   32  C   UNL     1      48.775  78.961  91.678  1.00  0.00     0.005 C 
HETATM   33  C   UNL     1      49.632  76.678  91.954  1.00  0.00     0.005 C 
HETATM   34  C   UNL     1      48.381  78.663  90.237  1.00  0.00     0.015 C 
HETATM   35  C   UNL     1      49.208  76.299  90.528  1.00  0.00     0.015 C 
ENDBRANCH   7  29
TORSDOF 4
ENDMDL
MODEL 6
REMARK VINA RESULT:      -8.5      4.086      7.880
REMARK  4 active torsions:
REMARK  status: ('A' for Active; 'I' for Inactive)
REMARK    1  A    between atoms: C_2  and  C_23 
REMARK    2  A    between atoms: C_5  and  C_25 
REMARK    3  A    between atoms: C_10  and  N_12 
REMARK    4  A    between atoms: C_24  and  C_31 
ROOT
HETATM    1  C   UNL     1      50.516  73.199  91.518  1.00  0.00     0.002 C 
HETATM    2  C   UNL     1      47.202  72.753  91.344  1.00  0.00    -0.017 C 
HETATM    3  C   UNL     1      48.269  71.899  91.696  1.00  0.00     0.013 C 
HETATM    4  C   UNL     1      47.646  76.853  91.932  1.00  0.00     0.096 C 
HETATM    5  C   UNL     1      49.631  72.124  91.574  1.00  0.00     0.001 C 
HETATM    6  C   UNL     1      50.128  74.528  91.526  1.00  0.00     0.030 C 
HETATM    7  C   UNL     1      47.075  76.492  90.706  1.00  0.00    -0.033 C 
HETATM    8  C   UNL     1      48.749  74.861  91.836  1.00  0.00     0.043 C 
HETATM    9  C   UNL     1      46.782  75.126  90.551  1.00  0.00     0.024 C 
HETATM   10  N   UNL     1      48.488  76.007  92.561  1.00  0.00    -0.365 N 
ATOM     11  HN  UNL     1      48.891  76.195  93.479  1.00  0.00     0.165 HD
HETATM   12  C   UNL     1      47.580  74.221  91.251  1.00  0.00     0.002 C 
ENDROOT
BRANCH   2  13
HETATM   13  C   UNL     1      45.898  72.200  90.899  1.00  0.00    -0.035 C 
HETATM   14  C   UNL     1      44.686  72.345  91.699  1.00  0.00     0.067 C 
HETATM   15  C   UNL     1      43.702  71.309  91.579  1.00  0.00    -0.026 C 
HETATM   16  C   UNL     1      43.890  70.214  90.694  1.00  0.00    -0.026 C 
HETATM   17  C   UNL     1      45.048  70.148  89.847  1.00  0.00     0.068 C 
HETATM   18  C   UNL     1      45.678  71.431  89.646  1.00  0.00    -0.021 C 
BRANCH  18  19
HETATM   19  C   UNL     1      45.740  72.052  88.305  1.00  0.00     0.040 C 
HETATM   20  C   UNL     1      46.906  72.695  87.847  1.00  0.00     0.030 C 
HETATM   21  C   UNL     1      46.724  73.885  87.125  1.00  0.00     0.006 C 
HETATM   22  C   UNL     1      45.472  74.203  86.618  1.00  0.00     0.048 C 
HETATM   23  C   UNL     1      44.510  73.168  86.639  1.00  0.00     0.099 C 
HETATM   24  N   UNL     1      44.617  72.112  87.509  1.00  0.00    -0.342 N 
ATOM     25  HN  UNL     1      43.892  71.398  87.563  1.00  0.00     0.167 HD
BRANCH  23  26
HETATM   26  N   UNL     1      43.517  73.197  85.697  1.00  0.00    -0.385 N 
ATOM     27  HN2 UNL     1      43.560  73.855  84.919  1.00  0.00     0.157 HD
ATOM     28  HN1 UNL     1      42.706  72.596  85.840  1.00  0.00     0.157 HD
ENDBRANCH  23  26
ENDBRANCH  18  19
ENDBRANCH   2  13
BRANCH   7  29
HETATM   29  C   UNL     1      46.698  77.539  89.693  1.00  0.00    -0.011 C 
HETATM   30  C   UNL     1      47.784  78.092  88.781  1.00  0.00     0.019 C 
HETATM   31  C   UNL     1      46.858  79.154  88.159  1.00  0.00    -0.013 C 
HETATM   32  C   UNL     1      46.371  79.894  89.407  1.00  0.00     0.005 C 
HETATM   33  C   UNL     1      45.660  78.309  87.672  1.00  0.00     0.005 C 
HETATM   34  C   UNL     1      46.296  78.802  90.467  1.00  0.00     0.015 C 
HETATM   35  C   UNL     1      45.619  77.154  88.683  1.00  0.00     0.015 C 
ENDBRANCH   7  29
TORSDOF 4
ENDMDL
MODEL 7
REMARK VINA RESULT:      -8.4      2.882      5.871
REMARK  4 active torsions:
REMARK  status: ('A' for Active; 'I' for Inactive)
REMARK    1  A    between atoms: C_2  and  C_23 
REMARK    2  A    between atoms: C_5  and  C_25 
REMARK    3  A    between atoms: C_10  and  N_12 
REMARK    4  A    between atoms: C_24  and  C_31 
ROOT
HETATM    1  C   UNL     1      43.867  69.535  87.608  1.00  0.00     0.002 C 
HETATM    2  C   UNL     1      44.334  72.850  87.680  1.00  0.00    -0.017 C 
HETATM    3  C   UNL     1      43.687  71.991  86.767  1.00  0.00     0.013 C 
HETATM    4  C   UNL     1      44.574  71.703  91.677  1.00  0.00     0.096 C 
HETATM    5  C   UNL     1      43.691  70.606  86.733  1.00  0.00     0.001 C 
HETATM    6  C   UNL     1      44.184  69.670  88.949  1.00  0.00     0.030 C 
HETATM    7  C   UNL     1      45.755  72.232  91.144  1.00  0.00    -0.033 C 
HETATM    8  C   UNL     1      44.117  70.983  89.564  1.00  0.00     0.043 C 
HETATM    9  C   UNL     1      45.652  72.759  89.846  1.00  0.00     0.024 C 
HETATM   10  N   UNL     1      43.686  71.085  90.872  1.00  0.00    -0.365 N 
ATOM     11  HN  UNL     1      42.786  70.728  91.196  1.00  0.00     0.165 HD
HETATM   12  C   UNL     1      44.688  72.201  89.006  1.00  0.00     0.002 C 
ENDROOT
BRANCH   2  13
HETATM   13  C   UNL     1      44.803  74.194  87.260  1.00  0.00    -0.035 C 
HETATM   14  C   UNL     1      45.976  74.370  86.410  1.00  0.00     0.067 C 
HETATM   15  C   UNL     1      46.723  75.583  86.580  1.00  0.00    -0.026 C 
HETATM   16  C   UNL     1      46.313  76.576  87.507  1.00  0.00    -0.026 C 
HETATM   17  C   UNL     1      45.101  76.420  88.260  1.00  0.00     0.068 C 
HETATM   18  C   UNL     1      44.180  75.483  87.663  1.00  0.00    -0.021 C 
BRANCH  18  19
HETATM   19  C   UNL     1      42.856  75.919  87.169  1.00  0.00     0.040 C 
HETATM   20  C   UNL     1      42.035  75.061  86.411  1.00  0.00     0.030 C 
HETATM   21  C   UNL     1      41.348  75.641  85.333  1.00  0.00     0.006 C 
HETATM   22  C   UNL     1      41.230  77.021  85.249  1.00  0.00     0.048 C 
HETATM   23  C   UNL     1      41.590  77.749  86.405  1.00  0.00     0.099 C 
HETATM   24  N   UNL     1      42.435  77.219  87.347  1.00  0.00    -0.342 N 
ATOM     25  HN  UNL     1      42.741  77.768  88.150  1.00  0.00     0.167 HD
BRANCH  23  26
HETATM   26  N   UNL     1      40.994  78.964  86.608  1.00  0.00    -0.385 N 
ATOM     27  HN2 UNL     1      41.542  79.823  86.575  1.00  0.00     0.157 HD
ATOM     28  HN1 UNL     1      40.007  78.974  86.865  1.00  0.00     0.157 HD
ENDBRANCH  23  26
ENDBRANCH  18  19
ENDBRANCH   2  13
BRANCH   7  29
HETATM   29  C   UNL     1      47.003  72.327  91.980  1.00  0.00    -0.011 C 
HETATM   30  C   UNL     1      48.235  71.548  91.538  1.00  0.00     0.019 C 
HETATM   31  C   UNL     1      49.034  71.904  92.805  1.00  0.00    -0.013 C 
HETATM   32  C   UNL     1      48.092  71.407  93.904  1.00  0.00     0.005 C 
HETATM   33  C   UNL     1      48.945  73.445  92.836  1.00  0.00     0.005 C 
HETATM   34  C   UNL     1      46.704  71.659  93.329  1.00  0.00     0.015 C 
HETATM   35  C   UNL     1      47.583  73.726  92.182  1.00  0.00     0.015 C 
ENDBRANCH   7  29
TORSDOF 4
ENDMDL
MODEL 8
REMARK VINA RESULT:      -8.4      2.701      6.506
REMARK  4 active torsions:
REMARK  status: ('A' for Active; 'I' for Inactive)
REMARK    1  A    between atoms: C_2  and  C_23 
REMARK    2  A    between atoms: C_5  and  C_25 
REMARK    3  A    between atoms: C_10  and  N_12 
REMARK    4  A    between atoms: C_24  and  C_31 
ROOT
HETATM    1  C   UNL     1      45.946  75.432  87.426  1.00  0.00     0.002 C 
HETATM    2  C   UNL     1      43.987  78.054  88.130  1.00  0.00    -0.017 C 
HETATM    3  C   UNL     1      43.725  76.777  87.591  1.00  0.00     0.013 C 
HETATM    4  C   UNL     1      47.261  78.522  90.663  1.00  0.00     0.096 C 
HETATM    5  C   UNL     1      44.629  75.813  87.174  1.00  0.00     0.001 C 
HETATM    6  C   UNL     1      46.803  76.106  88.279  1.00  0.00     0.030 C 
HETATM    7  C   UNL     1      47.109  79.530  89.704  1.00  0.00    -0.033 C 
HETATM    8  C   UNL     1      46.268  77.138  89.149  1.00  0.00     0.043 C 
HETATM    9  C   UNL     1      45.931  79.469  88.940  1.00  0.00     0.024 C 
HETATM   10  N   UNL     1      46.796  77.279  90.417  1.00  0.00    -0.365 N 
ATOM     11  HN  UNL     1      46.832  76.521  91.099  1.00  0.00     0.165 HD
HETATM   12  C   UNL     1      45.374  78.207  88.730  1.00  0.00     0.002 C 
ENDROOT
BRANCH   2  13
HETATM   13  C   UNL     1      43.046  79.181  87.911  1.00  0.00    -0.035 C 
HETATM   14  C   UNL     1      43.440  80.569  88.133  1.00  0.00     0.067 C 
HETATM   15  C   UNL     1      42.408  81.479  88.537  1.00  0.00    -0.026 C 
HETATM   16  C   UNL     1      41.062  81.051  88.674  1.00  0.00    -0.026 C 
HETATM   17  C   UNL     1      40.686  79.703  88.354  1.00  0.00     0.068 C 
HETATM   18  C   UNL     1      41.629  79.043  87.483  1.00  0.00    -0.021 C 
BRANCH  18  19
HETATM   19  C   UNL     1      41.243  78.609  86.123  1.00  0.00     0.040 C 
HETATM   20  C   UNL     1      40.470  79.432  85.282  1.00  0.00     0.030 C 
HETATM   21  C   UNL     1      39.477  78.796  84.520  1.00  0.00     0.006 C 
HETATM   22  C   UNL     1      39.501  77.417  84.365  1.00  0.00     0.048 C 
HETATM   23  C   UNL     1      40.685  76.765  84.773  1.00  0.00     0.099 C 
HETATM   24  N   UNL     1      41.538  77.337  85.683  1.00  0.00    -0.342 N 
ATOM     25  HN  UNL     1      42.362  76.840  86.021  1.00  0.00     0.167 HD
BRANCH  23  26
HETATM   26  N   UNL     1      41.010  75.584  84.161  1.00  0.00    -0.385 N 
ATOM     27  HN2 UNL     1      41.457  74.833  84.686  1.00  0.00     0.157 HD
ATOM     28  HN1 UNL     1      40.859  75.511  83.155  1.00  0.00     0.157 HD
ENDBRANCH  23  26
ENDBRANCH  18  19
ENDBRANCH   2  13
BRANCH   7  29
HETATM   29  C   UNL     1      48.098  80.660  89.611  1.00  0.00    -0.011 C 
HETATM   30  C   UNL     1      48.388  81.478  90.863  1.00  0.00     0.019 C 
HETATM   31  C   UNL     1      49.271  82.494  90.113  1.00  0.00    -0.013 C 
HETATM   32  C   UNL     1      48.316  82.969  89.017  1.00  0.00     0.005 C 
HETATM   33  C   UNL     1      50.303  81.584  89.411  1.00  0.00     0.005 C 
HETATM   34  C   UNL     1      47.488  81.731  88.697  1.00  0.00     0.015 C 
HETATM   35  C   UNL     1      49.510  80.295  89.153  1.00  0.00     0.015 C 
ENDBRANCH   7  29
TORSDOF 4
ENDMDL
MODEL 9
REMARK VINA RESULT:      -8.0      2.073      8.106
REMARK  4 active torsions:
REMARK  status: ('A' for Active; 'I' for Inactive)
REMARK    1  A    between atoms: C_2  and  C_23 
REMARK    2  A    between atoms: C_5  and  C_25 
REMARK    3  A    between atoms: C_10  and  N_12 
REMARK    4  A    between atoms: C_24  and  C_31 
ROOT
HETATM    1  C   UNL     1      40.019  75.020  85.927  1.00  0.00     0.002 C 
HETATM    2  C   UNL     1      43.127  75.920  86.786  1.00  0.00    -0.017 C 
HETATM    3  C   UNL     1      42.563  74.698  86.361  1.00  0.00     0.013 C 
HETATM    4  C   UNL     1      41.342  79.478  85.560  1.00  0.00     0.096 C 
HETATM    5  C   UNL     1      41.227  74.377  86.190  1.00  0.00     0.001 C 
HETATM    6  C   UNL     1      39.877  76.392  85.808  1.00  0.00     0.030 C 
HETATM    7  C   UNL     1      41.710  79.438  86.909  1.00  0.00    -0.033 C 
HETATM    8  C   UNL     1      41.065  77.222  85.721  1.00  0.00     0.043 C 
HETATM    9  C   UNL     1      42.445  78.307  87.305  1.00  0.00     0.024 C 
HETATM   10  N   UNL     1      41.041  78.336  84.907  1.00  0.00    -0.365 N 
ATOM     11  HN  UNL     1      40.819  78.300  83.912  1.00  0.00     0.165 HD
HETATM   12  C   UNL     1      42.222  77.125  86.600  1.00  0.00     0.002 C 
ENDROOT
BRANCH   2  13
HETATM   13  C   UNL     1      44.404  75.948  87.542  1.00  0.00    -0.035 C 
HETATM   14  C   UNL     1      45.093  77.198  87.846  1.00  0.00     0.067 C 
HETATM   15  C   UNL     1      46.522  77.140  87.960  1.00  0.00    -0.026 C 
HETATM   16  C   UNL     1      47.222  75.912  87.820  1.00  0.00    -0.026 C 
HETATM   17  C   UNL     1      46.510  74.682  87.619  1.00  0.00     0.068 C 
HETATM   18  C   UNL     1      45.131  74.750  88.040  1.00  0.00    -0.021 C 
BRANCH  18  19
HETATM   19  C   UNL     1      44.627  73.913  89.150  1.00  0.00     0.040 C 
HETATM   20  C   UNL     1      44.436  74.442  90.441  1.00  0.00     0.030 C 
HETATM   21  C   UNL     1      44.807  73.621  91.517  1.00  0.00     0.006 C 
HETATM   22  C   UNL     1      45.021  72.266  91.313  1.00  0.00     0.048 C 
HETATM   23  C   UNL     1      44.592  71.748  90.070  1.00  0.00     0.099 C 
HETATM   24  N   UNL     1      44.434  72.560  88.975  1.00  0.00    -0.342 N 
ATOM     25  HN  UNL     1      44.181  72.175  88.065  1.00  0.00     0.167 HD
BRANCH  23  26
HETATM   26  N   UNL     1      44.244  70.425  90.013  1.00  0.00    -0.385 N 
ATOM     27  HN2 UNL     1      44.005  69.915  90.863  1.00  0.00     0.157 HD
ATOM     28  HN1 UNL     1      44.302  69.955  89.110  1.00  0.00     0.157 HD
ENDBRANCH  23  26
ENDBRANCH  18  19
ENDBRANCH   2  13
BRANCH   7  29
HETATM   29  C   UNL     1      41.430  80.603  87.819  1.00  0.00    -0.011 C 
HETATM   30  C   UNL     1      42.588  81.209  88.602  1.00  0.00     0.019 C 
HETATM   31  C   UNL     1      41.677  82.160  89.401  1.00  0.00    -0.013 C 
HETATM   32  C   UNL     1      40.686  81.175  90.022  1.00  0.00     0.005 C 
HETATM   33  C   UNL     1      40.902  82.896  88.286  1.00  0.00     0.005 C 
HETATM   34  C   UNL     1      40.543  80.091  88.961  1.00  0.00     0.015 C 
HETATM   35  C   UNL     1      40.819  81.844  87.170  1.00  0.00     0.015 C 
ENDBRANCH   7  29
TORSDOF 4
ENDMDL
