MODEL 1
REMARK VINA RESULT:      -8.5      0.000      0.000
REMARK  0 active torsions:
REMARK  status: ('A' for Active; 'I' for Inactive)
ROOT
HETATM    1  C   UNL     1      18.200   3.808  10.829  1.00  0.00    -0.009 C 
HETATM    2  C   UNL     1      17.305   4.091   9.713  1.00  0.00    -0.025 C 
HETATM    3  N   UNL     1      19.622   1.948  10.109  1.00  0.00    -0.374 N 
ATOM      4  HN  UNL     1      20.365   1.345  10.461  1.00  0.00     0.164 HD
HETATM    5  C   UNL     1      15.320   5.611  10.527  1.00  0.00     0.018 C 
HETATM    6  C   UNL     1      17.939   4.251  12.172  1.00  0.00     0.030 C 
HETATM    7  C   UNL     1      16.305   5.099   9.787  1.00  0.00     0.013 C 
HETATM    8  C   UNL     1      18.882   1.533   9.073  1.00  0.00     0.087 C 
HETATM    9  C   UNL     1      19.410   3.128  10.692  1.00  0.00     0.100 C 
HETATM   10  C   UNL     1      14.871   5.532  11.835  1.00  0.00     0.087 C 
HETATM   11  C   UNL     1      18.082   2.253   8.241  1.00  0.00     0.018 C 
HETATM   12  C   UNL     1      16.920   4.787  12.848  1.00  0.00     0.088 C 
HETATM   13  C   UNL     1      17.443   3.456   8.473  1.00  0.00     0.013 C 
HETATM   14  N   UNL     1      15.638   5.125  12.908  1.00  0.00    -0.375 N 
ATOM     15  HN  UNL     1      15.183   5.080  13.821  1.00  0.00     0.164 HD
ENDROOT
TORSDOF 0
ENDMDL
MODEL 2
REMARK VINA RESULT:      -8.2      1.024      4.859
REMARK  0 active torsions:
REMARK  status: ('A' for Active; 'I' for Inactive)
ROOT
HETATM    1  C   UNL     1      16.960   4.462  10.018  1.00  0.00    -0.009 C 
HETATM    2  C   UNL     1      17.720   4.127  11.217  1.00  0.00    -0.025 C 
HETATM    3  N   UNL     1      14.948   5.629  10.789  1.00  0.00    -0.374 N 
ATOM      4  HN  UNL     1      14.093   6.046  10.422  1.00  0.00     0.164 HD
HETATM    5  C   UNL     1      19.562   2.345  10.634  1.00  0.00     0.018 C 
HETATM    6  C   UNL     1      17.175   3.818   8.750  1.00  0.00     0.030 C 
HETATM    7  C   UNL     1      18.943   3.405  11.156  1.00  0.00     0.013 C 
HETATM    8  C   UNL     1      14.995   5.260  12.074  1.00  0.00     0.087 C 
HETATM    9  C   UNL     1      15.992   5.466   9.975  1.00  0.00     0.100 C 
HETATM   10  C   UNL     1      19.354   1.434   9.610  1.00  0.00     0.087 C 
HETATM   11  C   UNL     1      16.075   4.996  12.857  1.00  0.00     0.018 C 
HETATM   12  C   UNL     1      17.841   2.756   8.291  1.00  0.00     0.088 C 
HETATM   13  C   UNL     1      17.340   4.581  12.486  1.00  0.00     0.013 C 
HETATM   14  N   UNL     1      18.527   1.644   8.526  1.00  0.00    -0.375 N 
ATOM     15  HN  UNL     1      18.434   0.884   7.851  1.00  0.00     0.164 HD
ENDROOT
TORSDOF 0
ENDMDL
MODEL 3
REMARK VINA RESULT:      -7.1      1.732      2.554
REMARK  0 active torsions:
REMARK  status: ('A' for Active; 'I' for Inactive)
ROOT
HETATM    1  C   UNL     1      19.011   2.744  10.849  1.00  0.00    -0.009 C 
HETATM    2  C   UNL     1      17.946   3.740  10.813  1.00  0.00    -0.025 C 
HETATM    3  N   UNL     1      19.182   1.844   8.577  1.00  0.00    -0.374 N 
ATOM      4  HN  UNL     1      19.700   1.144   8.046  1.00  0.00     0.164 HD
HETATM    5  C   UNL     1      17.208   4.342  13.263  1.00  0.00     0.018 C 
HETATM    6  C   UNL     1      19.488   2.152  12.071  1.00  0.00     0.030 C 
HETATM    7  C   UNL     1      17.540   4.450  11.975  1.00  0.00     0.013 C 
HETATM    8  C   UNL     1      18.003   2.273   8.114  1.00  0.00     0.087 C 
HETATM    9  C   UNL     1      19.698   2.309   9.715  1.00  0.00     0.100 C 
HETATM   10  C   UNL     1      17.307   3.400  14.274  1.00  0.00     0.087 C 
HETATM   11  C   UNL     1      17.299   3.389   8.445  1.00  0.00     0.018 C 
HETATM   12  C   UNL     1      19.110   2.108  13.351  1.00  0.00     0.088 C 
HETATM   13  C   UNL     1      17.331   4.123   9.615  1.00  0.00     0.013 C 
HETATM   14  N   UNL     1      18.199   2.347  14.285  1.00  0.00    -0.375 N 
ATOM     15  HN  UNL     1      18.155   1.702  15.075  1.00  0.00     0.164 HD
ENDROOT
TORSDOF 0
ENDMDL
MODEL 4
REMARK VINA RESULT:      -7.1      1.700      4.528
REMARK  0 active torsions:
REMARK  status: ('A' for Active; 'I' for Inactive)
ROOT
HETATM    1  C   UNL     1      17.889   3.838  11.500  1.00  0.00    -0.009 C 
HETATM    2  C   UNL     1      18.884   2.772  11.509  1.00  0.00    -0.025 C 
HETATM    3  N   UNL     1      17.082   4.039  13.804  1.00  0.00    -0.374 N 
ATOM      4  HN  UNL     1      16.405   4.564  14.357  1.00  0.00     0.164 HD
HETATM    5  C   UNL     1      19.386   2.002   9.046  1.00  0.00     0.018 C 
HETATM    6  C   UNL     1      17.249   4.301  10.298  1.00  0.00     0.030 C 
HETATM    7  C   UNL     1      19.546   2.350  10.324  1.00  0.00     0.013 C 
HETATM    8  C   UNL     1      17.527   2.864  14.265  1.00  0.00     0.087 C 
HETATM    9  C   UNL     1      17.501   4.540  12.642  1.00  0.00     0.100 C 
HETATM   10  C   UNL     1      18.404   2.090   8.073  1.00  0.00     0.087 C 
HETATM   11  C   UNL     1      18.629   2.155  13.897  1.00  0.00     0.018 C 
HETATM   12  C   UNL     1      17.152   3.907   9.025  1.00  0.00     0.088 C 
HETATM   13  C   UNL     1      19.315   2.171  12.698  1.00  0.00     0.013 C 
HETATM   14  N   UNL     1      17.353   2.984   8.093  1.00  0.00    -0.375 N 
ATOM     15  HN  UNL     1      16.676   2.931   7.331  1.00  0.00     0.164 HD
ENDROOT
TORSDOF 0
ENDMDL
MODEL 5
REMARK VINA RESULT:      -7.0      1.552      2.988
REMARK  0 active torsions:
REMARK  status: ('A' for Active; 'I' for Inactive)
ROOT
HETATM    1  C   UNL     1      16.492   4.230  11.234  1.00  0.00    -0.009 C 
HETATM    2  C   UNL     1      17.442   3.822  12.263  1.00  0.00    -0.025 C 
HETATM    3  N   UNL     1      17.598   3.827   9.085  1.00  0.00    -0.374 N 
ATOM      4  HN  UNL     1      17.437   3.942   8.085  1.00  0.00     0.164 HD
HETATM    5  C   UNL     1      16.682   4.761  14.598  1.00  0.00     0.018 C 
HETATM    6  C   UNL     1      15.370   5.089  11.501  1.00  0.00     0.030 C 
HETATM    7  C   UNL     1      17.152   3.950  13.649  1.00  0.00     0.013 C 
HETATM    8  C   UNL     1      18.853   3.718   9.535  1.00  0.00     0.087 C 
HETATM    9  C   UNL     1      16.553   3.788   9.912  1.00  0.00     0.100 C 
HETATM   10  C   UNL     1      15.969   5.947  14.676  1.00  0.00     0.087 C 
HETATM   11  C   UNL     1      19.305   3.248  10.730  1.00  0.00     0.018 C 
HETATM   12  C   UNL     1      14.945   5.863  12.503  1.00  0.00     0.088 C 
HETATM   13  C   UNL     1      18.653   3.193  11.947  1.00  0.00     0.013 C 
HETATM   14  N   UNL     1      15.171   6.453  13.670  1.00  0.00    -0.375 N 
ATOM     15  HN  UNL     1      14.719   7.353  13.836  1.00  0.00     0.164 HD
ENDROOT
TORSDOF 0
ENDMDL
MODEL 6
REMARK VINA RESULT:      -7.0      1.756      2.430
REMARK  0 active torsions:
REMARK  status: ('A' for Active; 'I' for Inactive)
ROOT
HETATM    1  C   UNL     1      18.596   2.949  12.134  1.00  0.00    -0.009 C 
HETATM    2  C   UNL     1      18.871   2.941  10.702  1.00  0.00    -0.025 C 
HETATM    3  N   UNL     1      19.713   0.973  13.055  1.00  0.00    -0.374 N 
ATOM      4  HN  UNL     1      19.836   0.480  13.939  1.00  0.00     0.164 HD
HETATM    5  C   UNL     1      17.250   4.608   9.475  1.00  0.00     0.018 C 
HETATM    6  C   UNL     1      17.527   3.712  12.722  1.00  0.00     0.030 C 
HETATM    7  C   UNL     1      18.344   3.932   9.829  1.00  0.00     0.013 C 
HETATM    8  C   UNL     1      19.903   0.310  11.908  1.00  0.00     0.087 C 
HETATM    9  C   UNL     1      19.368   2.260  13.071  1.00  0.00     0.100 C 
HETATM   10  C   UNL     1      15.986   4.856   9.986  1.00  0.00     0.087 C 
HETATM   11  C   UNL     1      20.115   0.797  10.655  1.00  0.00     0.018 C 
HETATM   12  C   UNL     1      16.462   4.396  12.296  1.00  0.00     0.088 C 
HETATM   13  C   UNL     1      19.747   2.016  10.121  1.00  0.00     0.013 C 
HETATM   14  N   UNL     1      15.635   4.733  11.315  1.00  0.00    -0.375 N 
ATOM     15  HN  UNL     1      14.662   4.916  11.563  1.00  0.00     0.164 HD
ENDROOT
TORSDOF 0
ENDMDL
MODEL 7
REMARK VINA RESULT:      -6.9      1.207      4.445
REMARK  0 active torsions:
REMARK  status: ('A' for Active; 'I' for Inactive)
ROOT
HETATM    1  C   UNL     1      17.160   3.830  12.423  1.00  0.00    -0.009 C 
HETATM    2  C   UNL     1      16.389   4.246  11.258  1.00  0.00    -0.025 C 
HETATM    3  N   UNL     1      16.344   5.181  14.298  1.00  0.00    -0.374 N 
ATOM      4  HN  UNL     1      16.521   5.336  15.290  1.00  0.00     0.164 HD
HETATM    5  C   UNL     1      17.547   3.369   9.066  1.00  0.00     0.018 C 
HETATM    6  C   UNL     1      18.407   3.120  12.325  1.00  0.00     0.030 C 
HETATM    7  C   UNL     1      16.619   3.694   9.968  1.00  0.00     0.013 C 
HETATM    8  C   UNL     1      15.721   6.130  13.591  1.00  0.00     0.087 C 
HETATM    9  C   UNL     1      16.740   4.037  13.738  1.00  0.00     0.100 C 
HETATM   10  C   UNL     1      18.922   3.197   9.023  1.00  0.00     0.087 C 
HETATM   11  C   UNL     1      15.099   6.039  12.384  1.00  0.00     0.018 C 
HETATM   12  C   UNL     1      19.283   2.806  11.367  1.00  0.00     0.088 C 
HETATM   13  C   UNL     1      15.315   5.139  11.359  1.00  0.00     0.013 C 
HETATM   14  N   UNL     1      19.719   2.950  10.122  1.00  0.00    -0.375 N 
ATOM     15  HN  UNL     1      20.725   2.872   9.965  1.00  0.00     0.164 HD
ENDROOT
TORSDOF 0
ENDMDL
MODEL 8
REMARK VINA RESULT:      -6.9      2.732      4.304
REMARK  0 active torsions:
REMARK  status: ('A' for Active; 'I' for Inactive)
ROOT
HETATM    1  C   UNL     1      19.373   1.670   9.895  1.00  0.00    -0.009 C 
HETATM    2  C   UNL     1      18.805   2.703  10.753  1.00  0.00    -0.025 C 
HETATM    3  N   UNL     1      18.413   2.027   7.669  1.00  0.00    -0.374 N 
ATOM      4  HN  UNL     1      18.423   1.619   6.735  1.00  0.00     0.164 HD
HETATM    5  C   UNL     1      19.225   2.095  13.276  1.00  0.00     0.018 C 
HETATM    6  C   UNL     1      19.986   0.474  10.410  1.00  0.00     0.030 C 
HETATM    7  C   UNL     1      19.112   2.783  12.139  1.00  0.00     0.013 C 
HETATM    8  C   UNL     1      17.392   2.813   8.027  1.00  0.00     0.087 C 
HETATM    9  C   UNL     1      19.419   1.764   8.503  1.00  0.00     0.100 C 
HETATM   10  C   UNL     1      19.311   0.769  13.670  1.00  0.00     0.087 C 
HETATM   11  C   UNL     1      17.307   3.706   9.051  1.00  0.00     0.018 C 
HETATM   12  C   UNL     1      20.081  -0.150  11.587  1.00  0.00     0.088 C 
HETATM   13  C   UNL     1      18.004   3.732  10.243  1.00  0.00     0.013 C 
HETATM   14  N   UNL     1      19.700  -0.272  12.852  1.00  0.00    -0.375 N 
ATOM     15  HN  UNL     1      19.695  -1.211  13.252  1.00  0.00     0.164 HD
ENDROOT
TORSDOF 0
ENDMDL
MODEL 9
REMARK VINA RESULT:      -6.8      2.501      4.070
REMARK  0 active torsions:
REMARK  status: ('A' for Active; 'I' for Inactive)
ROOT
HETATM    1  C   UNL     1      15.826   5.006  12.471  1.00  0.00    -0.009 C 
HETATM    2  C   UNL     1      16.807   4.015  12.045  1.00  0.00    -0.025 C 
HETATM    3  N   UNL     1      15.132   6.194  10.445  1.00  0.00    -0.374 N 
ATOM      4  HN  UNL     1      14.527   6.961  10.152  1.00  0.00     0.164 HD
HETATM    5  C   UNL     1      18.107   3.094  14.137  1.00  0.00     0.018 C 
HETATM    6  C   UNL     1      15.692   5.438  13.837  1.00  0.00     0.030 C 
HETATM    7  C   UNL     1      17.461   3.157  12.971  1.00  0.00     0.013 C 
HETATM    8  C   UNL     1      16.141   5.820   9.650  1.00  0.00     0.087 C 
HETATM    9  C   UNL     1      14.897   5.590  11.609  1.00  0.00     0.100 C 
HETATM   10  C   UNL     1      18.301   3.898  15.249  1.00  0.00     0.087 C 
HETATM   11  C   UNL     1      16.859   4.665   9.653  1.00  0.00     0.018 C 
HETATM   12  C   UNL     1      16.377   5.313  14.976  1.00  0.00     0.088 C 
HETATM   13  C   UNL     1      17.090   3.786  10.693  1.00  0.00     0.013 C 
HETATM   14  N   UNL     1      17.481   4.947  15.614  1.00  0.00    -0.375 N 
ATOM     15  HN  UNL     1      17.746   5.485  16.440  1.00  0.00     0.164 HD
ENDROOT
TORSDOF 0
ENDMDL
