REMARK  0 active torsions:
REMARK  status: ('A' for Active; 'I' for Inactive)
ROOT
HETATM    1  C   UNL     1      16.784   4.192   9.800  1.00  0.00    -0.009 C 
HETATM    2  C   UNL     1      17.530   3.609  10.909  1.00  0.00    -0.025 C 
HETATM    3  N   UNL     1      14.887   5.376  10.801  1.00  0.00    -0.374 N 
ATOM      4  HN  UNL     1      14.064   5.913  10.529  1.00  0.00     0.164 HD
HETATM    5  C   UNL     1      19.210   1.803   9.999  1.00  0.00     0.018 C 
HETATM    6  C   UNL     1      16.927   3.746   8.440  1.00  0.00     0.030 C 
HETATM    7  C   UNL     1      18.688   2.811  10.700  1.00  0.00     0.013 C 
HETATM    8  C   UNL     1      14.921   4.802  12.009  1.00  0.00     0.087 C 
HETATM    9  C   UNL     1      15.902   5.264   9.944  1.00  0.00     0.100 C 
HETATM   10  C   UNL     1      18.913   1.089   8.849  1.00  0.00     0.087 C 
HETATM   11  C   UNL     1      15.987   4.330  12.711  1.00  0.00     0.018 C 
HETATM   12  C   UNL     1      17.496   2.722   7.799  1.00  0.00     0.088 C 
HETATM   13  C   UNL     1      17.207   3.881  12.244  1.00  0.00     0.013 C 
HETATM   14  N   UNL     1      18.090   1.536   7.835  1.00  0.00    -0.375 N 
ATOM     15  HN  UNL     1      17.925   0.904   7.051  1.00  0.00     0.164 HD
ENDROOT
TORSDOF 0
