MODEL 1
REMARK VINA RESULT:     -11.3      0.000      0.000
REMARK  2 active torsions:
REMARK  status: ('A' for Active; 'I' for Inactive)
REMARK    1  A    between atoms: O_20  and  C_31 
REMARK    2  A    between atoms: C_31  and  O_35 
ROOT
HETATM    1  C   UNL     1      21.669  60.738  21.755  1.00  0.00     0.026 C 
HETATM    2  N   UNL     1      24.268  63.620  17.572  1.00  0.00    -0.361 N 
ATOM      3  HN  UNL     1      24.226  63.459  16.566  1.00  0.00     0.166 HD
HETATM    4  C   UNL     1      22.782  60.438  22.531  1.00  0.00    -0.009 C 
HETATM    5  C   UNL     1      25.157  59.880  22.557  1.00  0.00     0.047 C 
HETATM    6  C   UNL     1      18.131  61.839  23.606  1.00  0.00     0.008 C 
HETATM    7  C   UNL     1      18.995  60.965  24.251  1.00  0.00     0.013 C 
HETATM    8  C   UNL     1      22.600  60.220  23.893  1.00  0.00     0.014 C 
HETATM    9  C   UNL     1      25.169  61.119  20.026  1.00  0.00     0.128 C 
HETATM   10  C   UNL     1      19.524  61.825  21.680  1.00  0.00     0.019 C 
HETATM   11  C   UNL     1      21.362  60.374  24.489  1.00  0.00     0.013 C 
HETATM   12  C   UNL     1      21.335  66.008  21.704  1.00  0.00     0.263 C 
HETATM   13  C   UNL     1      26.378  60.424  19.936  1.00  0.00     0.136 C 
HETATM   14  C   UNL     1      18.243  63.919  22.157  1.00  0.00     0.039 C 
HETATM   15  N   UNL     1      25.072  62.426  19.564  1.00  0.00    -0.303 N 
HETATM   16  C   UNL     1      25.444  63.508  20.362  1.00  0.00     0.100 C 
HETATM   17  C   UNL     1      18.599  62.499  22.470  1.00  0.00    -0.057 C 
HETATM   18  O   UNL     1      21.045  67.207  21.693  1.00  0.00    -0.265 OA
HETATM   19  C   UNL     1      20.511  64.944  22.374  1.00  0.00     0.111 C 
HETATM   20  C   UNL     1      24.020  60.314  21.887  1.00  0.00     0.045 C 
HETATM   21  C   UNL     1      23.980  65.204  19.307  1.00  0.00     0.050 C 
HETATM   22  C   UNL     1      24.021  64.864  17.997  1.00  0.00     0.104 C 
HETATM   23  N   UNL     1      24.071  60.556  20.555  1.00  0.00    -0.340 N 
ATOM     24  HN  UNL     1      23.281  60.312  19.958  1.00  0.00     0.167 HD
HETATM   25  C   UNL     1      19.396  64.577  21.411  1.00  0.00     0.014 C 
HETATM   26  C   UNL     1      20.481  61.089  22.368  1.00  0.00    -0.025 C 
HETATM   27  C   UNL     1      20.275  60.779  23.718  1.00  0.00    -0.026 C 
HETATM   28  C   UNL     1      26.288  59.390  22.029  1.00  0.00     0.090 C 
HETATM   29  C   UNL     1      22.934  66.208  19.867  1.00  0.00     0.318 C 
HETATM   30  N   UNL     1      26.865  59.595  20.846  1.00  0.00    -0.372 N 
ATOM     31  HN  UNL     1      27.725  59.089  20.631  1.00  0.00     0.164 HD
HETATM   32  C   UNL     1      24.921  64.740  20.225  1.00  0.00     0.034 C 
HETATM   33  O   UNL     1      22.400  65.494  20.992  1.00  0.00    -0.254 OA
HETATM   34  C   UNL     1      24.560  62.589  18.324  1.00  0.00     0.189 C 
ENDROOT
BRANCH  29  35
HETATM   35  O   UNL     1      23.516  67.391  20.143  1.00  0.00    -0.339 OA
ATOM     36  HO  UNL     1      23.289  67.676  21.021  1.00  0.00     0.216 HD
ENDBRANCH  29  35
BRANCH  29  37
HETATM   37  O   UNL     1      21.937  66.496  18.977  1.00  0.00    -0.339 OA
ATOM     38  HO  UNL     1      22.351  66.481  18.122  1.00  0.00     0.216 HD
ENDBRANCH  29  37
TORSDOF 2
ENDMDL
MODEL 2
REMARK VINA RESULT:     -10.8      2.961      5.869
REMARK  2 active torsions:
REMARK  status: ('A' for Active; 'I' for Inactive)
REMARK    1  A    between atoms: O_20  and  C_31 
REMARK    2  A    between atoms: C_31  and  O_35 
ROOT
HETATM    1  C   UNL     1      20.783  63.460  22.592  1.00  0.00     0.026 C 
HETATM    2  N   UNL     1      23.949  67.573  20.220  1.00  0.00    -0.361 N 
ATOM      3  HN  UNL     1      24.533  68.272  20.679  1.00  0.00     0.166 HD
HETATM    4  C   UNL     1      19.565  63.757  21.993  1.00  0.00    -0.009 C 
HETATM    5  C   UNL     1      18.079  65.500  21.153  1.00  0.00     0.047 C 
HETATM    6  C   UNL     1      21.920  59.503  23.049  1.00  0.00     0.008 C 
HETATM    7  C   UNL     1      20.571  59.834  23.075  1.00  0.00     0.013 C 
HETATM    8  C   UNL     1      18.635  62.734  21.843  1.00  0.00     0.014 C 
HETATM    9  C   UNL     1      20.451  67.008  20.950  1.00  0.00     0.128 C 
HETATM   10  C   UNL     1      22.500  61.804  22.907  1.00  0.00     0.019 C 
HETATM   11  C   UNL     1      18.931  61.431  22.201  1.00  0.00     0.013 C 
HETATM   12  C   UNL     1      24.052  62.200  18.639  1.00  0.00     0.263 C 
HETATM   13  C   UNL     1      19.522  68.049  20.879  1.00  0.00     0.136 C 
HETATM   14  C   UNL     1      24.027  60.163  21.798  1.00  0.00     0.039 C 
HETATM   15  N   UNL     1      21.563  66.995  20.117  1.00  0.00    -0.303 N 
HETATM   16  C   UNL     1      21.493  66.484  18.820  1.00  0.00     0.100 C 
HETATM   17  C   UNL     1      22.821  60.480  22.629  1.00  0.00    -0.057 C 
HETATM   18  O   UNL     1      24.899  61.765  17.855  1.00  0.00    -0.265 OA
HETATM   19  C   UNL     1      23.390  61.380  19.711  1.00  0.00     0.111 C 
HETATM   20  C   UNL     1      19.317  65.086  21.627  1.00  0.00     0.045 C 
HETATM   21  C   UNL     1      23.877  65.855  18.595  1.00  0.00     0.050 C 
HETATM   22  C   UNL     1      24.515  66.857  19.243  1.00  0.00     0.104 C 
HETATM   23  N   UNL     1      20.305  65.994  21.818  1.00  0.00    -0.340 N 
ATOM     24  HN  UNL     1      20.934  65.907  22.617  1.00  0.00     0.167 HD
HETATM   25  C   UNL     1      24.343  61.346  20.893  1.00  0.00     0.014 C 
HETATM   26  C   UNL     1      21.160  62.142  22.762  1.00  0.00    -0.025 C 
HETATM   27  C   UNL     1      20.195  61.128  22.702  1.00  0.00    -0.026 C 
HETATM   28  C   UNL     1      17.594  66.749  21.096  1.00  0.00     0.090 C 
HETATM   29  C   UNL     1      24.600  64.539  18.191  1.00  0.00     0.318 C 
HETATM   30  N   UNL     1      18.209  67.925  20.990  1.00  0.00    -0.372 N 
ATOM     31  HN  UNL     1      17.640  68.773  20.994  1.00  0.00     0.164 HD
HETATM   32  C   UNL     1      22.553  65.967  18.173  1.00  0.00     0.034 C 
HETATM   33  O   UNL     1      23.706  63.535  18.693  1.00  0.00    -0.254 OA
HETATM   34  C   UNL     1      22.715  67.464  20.644  1.00  0.00     0.189 C 
ENDROOT
BRANCH  29  35
HETATM   35  O   UNL     1      24.829  64.514  16.865  1.00  0.00    -0.339 OA
ATOM     36  HO  UNL     1      25.647  64.068  16.676  1.00  0.00     0.216 HD
ENDBRANCH  29  35
BRANCH  29  37
HETATM   37  O   UNL     1      25.831  64.404  18.772  1.00  0.00    -0.339 OA
ATOM     38  HO  UNL     1      25.658  64.137  19.667  1.00  0.00     0.216 HD
ENDBRANCH  29  37
TORSDOF 2
ENDMDL
MODEL 3
REMARK VINA RESULT:      -8.4      3.328      6.678
REMARK  2 active torsions:
REMARK  status: ('A' for Active; 'I' for Inactive)
REMARK    1  A    between atoms: O_20  and  C_31 
REMARK    2  A    between atoms: C_31  and  O_35 
ROOT
HETATM    1  C   UNL     1      20.880  67.580  20.599  1.00  0.00     0.026 C 
HETATM    2  N   UNL     1      26.448  66.412  21.029  1.00  0.00    -0.361 N 
ATOM      3  HN  UNL     1      27.092  66.646  21.785  1.00  0.00     0.166 HD
HETATM    4  C   UNL     1      20.890  68.212  19.361  1.00  0.00    -0.009 C 
HETATM    5  C   UNL     1      22.112  69.658  17.823  1.00  0.00     0.047 C 
HETATM    6  C   UNL     1      17.791  64.983  21.534  1.00  0.00     0.008 C 
HETATM    7  C   UNL     1      17.548  66.055  20.687  1.00  0.00     0.013 C 
HETATM    8  C   UNL     1      19.725  68.198  18.601  1.00  0.00     0.014 C 
HETATM    9  C   UNL     1      24.367  68.795  19.277  1.00  0.00     0.128 C 
HETATM   10  C   UNL     1      20.013  65.746  21.894  1.00  0.00     0.019 C 
HETATM   11  C   UNL     1      18.602  67.506  19.016  1.00  0.00     0.013 C 
HETATM   12  C   UNL     1      22.525  62.643  19.695  1.00  0.00     0.263 C 
HETATM   13  C   UNL     1      24.922  69.917  18.656  1.00  0.00     0.136 C 
HETATM   14  C   UNL     1      19.616  63.280  21.989  1.00  0.00     0.039 C 
HETATM   15  N   UNL     1      25.089  67.612  19.371  1.00  0.00    -0.303 N 
HETATM   16  C   UNL     1      25.111  66.688  18.325  1.00  0.00     0.100 C 
HETATM   17  C   UNL     1      19.118  64.684  21.843  1.00  0.00    -0.057 C 
HETATM   18  O   UNL     1      22.769  61.435  19.638  1.00  0.00    -0.265 OA
HETATM   19  C   UNL     1      21.180  63.219  20.042  1.00  0.00     0.111 C 
HETATM   20  C   UNL     1      22.057  68.882  18.974  1.00  0.00     0.045 C 
HETATM   21  C   UNL     1      25.570  64.672  19.687  1.00  0.00     0.050 C 
HETATM   22  C   UNL     1      26.420  65.135  20.633  1.00  0.00     0.104 C 
HETATM   23  N   UNL     1      23.130  68.820  19.799  1.00  0.00    -0.340 N 
ATOM     24  HN  UNL     1      23.000  68.792  20.810  1.00  0.00     0.167 HD
HETATM   25  C   UNL     1      21.075  63.213  21.557  1.00  0.00     0.014 C 
HETATM   26  C   UNL     1      19.843  66.725  20.923  1.00  0.00    -0.025 C 
HETATM   27  C   UNL     1      18.640  66.787  20.208  1.00  0.00    -0.026 C 
HETATM   28  C   UNL     1      23.007  70.608  17.511  1.00  0.00     0.090 C 
HETATM   29  C   UNL     1      24.880  63.283  19.804  1.00  0.00     0.318 C 
HETATM   30  N   UNL     1      24.276  70.771  17.877  1.00  0.00    -0.372 N 
ATOM     31  HN  UNL     1      24.776  71.596  17.542  1.00  0.00     0.164 HD
HETATM   32  C   UNL     1      25.317  65.372  18.508  1.00  0.00     0.034 C 
HETATM   33  O   UNL     1      23.503  63.607  19.561  1.00  0.00    -0.254 OA
HETATM   34  C   UNL     1      25.729  67.390  20.541  1.00  0.00     0.189 C 
ENDROOT
BRANCH  29  35
HETATM   35  O   UNL     1      25.439  62.406  18.949  1.00  0.00    -0.339 OA
ATOM     36  HO  UNL     1      25.843  62.863  18.220  1.00  0.00     0.216 HD
ENDBRANCH  29  35
BRANCH  29  37
HETATM   37  O   UNL     1      25.019  62.719  21.042  1.00  0.00    -0.339 OA
ATOM     38  HO  UNL     1      24.155  62.394  21.267  1.00  0.00     0.216 HD
ENDBRANCH  29  37
TORSDOF 2
ENDMDL
