MODEL 1
REMARK VINA RESULT:     -12.4      0.000      0.000
REMARK  1 active torsions:
REMARK  status: ('A' for Active; 'I' for Inactive)
REMARK    1  A    between atoms: O_3  and  C_34 
ROOT
HETATM    1  N   UNL     1      20.842  63.202  20.738  1.00  0.00    -0.355 N 
ATOM      2  HN  UNL     1      20.275  63.013  19.912  1.00  0.00     0.166 HD
HETATM    3  N   UNL     1      24.016  63.906  19.480  1.00  0.00    -0.264 NA
HETATM    4  C   UNL     1      18.231  61.213  23.913  1.00  0.00     0.009 C 
HETATM    5  C   UNL     1      24.113  60.260  22.754  1.00  0.00     0.026 C 
HETATM    6  C   UNL     1      21.321  64.492  20.960  1.00  0.00     0.040 C 
HETATM    7  C   UNL     1      27.383  59.635  21.275  1.00  0.00     0.037 C 
HETATM    8  C   UNL     1      27.533  60.153  20.030  1.00  0.00     0.005 C 
HETATM    9  C   UNL     1      21.895  65.298  19.944  1.00  0.00    -0.013 C 
HETATM   10  C   UNL     1      19.510  60.804  24.654  1.00  0.00     0.039 C 
HETATM   11  C   UNL     1      25.287  60.921  19.398  1.00  0.00     0.033 C 
HETATM   12  C   UNL     1      25.312  64.440  19.906  1.00  0.00     0.097 C 
HETATM   13  C   UNL     1      22.410  61.629  21.683  1.00  0.00     0.041 C 
HETATM   14  C   UNL     1      21.129  62.157  21.636  1.00  0.00     0.040 C 
HETATM   15  C   UNL     1      23.983  66.232  18.951  1.00  0.00     0.026 C 
HETATM   16  C   UNL     1      22.790  60.730  22.676  1.00  0.00    -0.033 C 
HETATM   17  C   UNL     1      24.978  59.965  21.691  1.00  0.00    -0.000 C 
HETATM   18  C   UNL     1      20.566  60.861  23.586  1.00  0.00    -0.049 C 
HETATM   19  C   UNL     1      21.346  66.585  19.869  1.00  0.00     0.011 C 
HETATM   20  C   UNL     1      20.969  67.212  21.062  1.00  0.00     0.001 C 
HETATM   21  C   UNL     1      24.262  63.021  18.344  1.00  0.00     0.055 C 
HETATM   22  C   UNL     1      21.162  65.112  22.201  1.00  0.00     0.030 C 
HETATM   23  C   UNL     1      18.693  61.899  22.628  1.00  0.00     0.042 C 
HETATM   24  C   UNL     1      26.670  60.843  19.220  1.00  0.00     0.029 C 
HETATM   25  C   UNL     1      23.089  64.990  19.074  1.00  0.00     0.099 C 
HETATM   26  C   UNL     1      24.616  60.200  20.371  1.00  0.00     0.043 C 
HETATM   27  N   UNL     1      24.534  61.640  18.518  1.00  0.00    -0.351 N 
ATOM     28  HN  UNL     1      24.061  61.053  17.830  1.00  0.00     0.167 HD
HETATM   29  C   UNL     1      24.425  63.563  16.938  1.00  0.00     0.082 C 
HETATM   30  C   UNL     1      20.967  66.489  22.248  1.00  0.00     0.002 C 
HETATM   31  C   UNL     1      20.164  61.653  22.521  1.00  0.00    -0.025 C 
HETATM   32  C   UNL     1      26.228  59.372  21.973  1.00  0.00     0.076 C 
HETATM   33  C   UNL     1      25.407  65.807  19.257  1.00  0.00     0.017 C 
HETATM   34  C   UNL     1      21.842  60.332  23.631  1.00  0.00     0.019 C 
ENDROOT
BRANCH  32  35
HETATM   35  O   UNL     1      26.253  58.397  22.900  1.00  0.00    -0.360 OA
ATOM     36  HO  UNL     1      25.439  57.954  23.109  1.00  0.00     0.217 HD
ENDBRANCH  32  35
TORSDOF 1
ENDMDL
MODEL 2
REMARK VINA RESULT:     -11.0      2.742      6.146
REMARK  1 active torsions:
REMARK  status: ('A' for Active; 'I' for Inactive)
REMARK    1  A    between atoms: O_3  and  C_34 
ROOT
HETATM    1  N   UNL     1      23.298  62.341  22.324  1.00  0.00    -0.355 N 
ATOM      2  HN  UNL     1      23.906  62.623  23.093  1.00  0.00     0.166 HD
HETATM    3  N   UNL     1      23.453  64.991  20.065  1.00  0.00    -0.264 NA
HETATM    4  C   UNL     1      20.837  59.136  24.453  1.00  0.00     0.009 C 
HETATM    5  C   UNL     1      18.843  63.984  21.391  1.00  0.00     0.026 C 
HETATM    6  C   UNL     1      23.855  62.057  21.078  1.00  0.00     0.040 C 
HETATM    7  C   UNL     1      18.210  67.294  20.007  1.00  0.00     0.037 C 
HETATM    8  C   UNL     1      19.310  68.086  19.946  1.00  0.00     0.005 C 
HETATM    9  C   UNL     1      24.850  62.860  20.466  1.00  0.00    -0.013 C 
HETATM   10  C   UNL     1      19.626  59.564  23.615  1.00  0.00     0.039 C 
HETATM   11  C   UNL     1      21.038  66.851  21.180  1.00  0.00     0.033 C 
HETATM   12  C   UNL     1      23.076  65.334  18.692  1.00  0.00     0.097 C 
HETATM   13  C   UNL     1      21.067  63.198  21.990  1.00  0.00     0.041 C 
HETATM   14  C   UNL     1      21.911  62.244  22.539  1.00  0.00     0.040 C 
HETATM   15  C   UNL     1      25.376  64.562  18.720  1.00  0.00     0.026 C 
HETATM   16  C   UNL     1      19.683  63.045  22.015  1.00  0.00    -0.033 C 
HETATM   17  C   UNL     1      19.022  65.372  21.316  1.00  0.00    -0.000 C 
HETATM   18  C   UNL     1      19.977  60.959  23.179  1.00  0.00    -0.049 C 
HETATM   19  C   UNL     1      25.963  62.136  20.020  1.00  0.00     0.011 C 
HETATM   20  C   UNL     1      25.750  60.853  19.500  1.00  0.00     0.001 C 
HETATM   21  C   UNL     1      23.502  66.237  20.828  1.00  0.00     0.055 C 
HETATM   22  C   UNL     1      23.529  60.882  20.399  1.00  0.00     0.030 C 
HETATM   23  C   UNL     1      21.965  60.097  24.079  1.00  0.00     0.042 C 
HETATM   24  C   UNL     1      20.607  67.876  20.335  1.00  0.00     0.029 C 
HETATM   25  C   UNL     1      24.778  64.326  20.114  1.00  0.00     0.099 C 
HETATM   26  C   UNL     1      20.163  65.987  21.816  1.00  0.00     0.043 C 
HETATM   27  N   UNL     1      22.360  66.750  21.495  1.00  0.00    -0.351 N 
ATOM     28  HN  UNL     1      22.577  67.127  22.418  1.00  0.00     0.167 HD
HETATM   29  C   UNL     1      24.718  67.141  20.791  1.00  0.00     0.082 C 
HETATM   30  C   UNL     1      24.497  60.265  19.612  1.00  0.00     0.002 C 
HETATM   31  C   UNL     1      21.343  61.184  23.262  1.00  0.00    -0.025 C 
HETATM   32  C   UNL     1      17.994  66.164  20.760  1.00  0.00     0.076 C 
HETATM   33  C   UNL     1      24.384  65.391  17.927  1.00  0.00     0.017 C 
HETATM   34  C   UNL     1      19.136  61.911  22.635  1.00  0.00     0.019 C 
ENDROOT
BRANCH  32  35
HETATM   35  O   UNL     1      16.728  65.859  21.099  1.00  0.00    -0.360 OA
ATOM     36  HO  UNL     1      16.102  66.569  21.187  1.00  0.00     0.217 HD
ENDBRANCH  32  35
TORSDOF 1
ENDMDL
MODEL 3
REMARK VINA RESULT:     -10.7      2.242      3.471
REMARK  1 active torsions:
REMARK  status: ('A' for Active; 'I' for Inactive)
REMARK    1  A    between atoms: O_3  and  C_34 
ROOT
HETATM    1  N   UNL     1      20.812  66.419  19.078  1.00  0.00    -0.355 N 
ATOM      2  HN  UNL     1      20.623  66.352  18.078  1.00  0.00     0.166 HD
HETATM    3  N   UNL     1      24.209  65.698  19.380  1.00  0.00    -0.264 NA
HETATM    4  C   UNL     1      16.554  66.001  20.675  1.00  0.00     0.009 C 
HETATM    5  C   UNL     1      21.459  62.750  22.166  1.00  0.00     0.026 C 
HETATM    6  C   UNL     1      21.621  67.449  19.555  1.00  0.00     0.040 C 
HETATM    7  C   UNL     1      24.500  60.746  22.242  1.00  0.00     0.037 C 
HETATM    8  C   UNL     1      25.354  61.001  21.218  1.00  0.00     0.005 C 
HETATM    9  C   UNL     1      22.837  67.837  18.938  1.00  0.00    -0.013 C 
HETATM   10  C   UNL     1      17.121  65.240  21.879  1.00  0.00     0.039 C 
HETATM   11  C   UNL     1      24.095  62.471  19.706  1.00  0.00     0.033 C 
HETATM   12  C   UNL     1      25.298  65.753  20.358  1.00  0.00     0.097 C 
HETATM   13  C   UNL     1      21.067  64.508  20.530  1.00  0.00     0.041 C 
HETATM   14  C   UNL     1      20.252  65.471  19.954  1.00  0.00     0.040 C 
HETATM   15  C   UNL     1      25.330  67.772  19.013  1.00  0.00     0.026 C 
HETATM   16  C   UNL     1      20.600  63.672  21.540  1.00  0.00    -0.033 C 
HETATM   17  C   UNL     1      22.495  62.013  21.577  1.00  0.00    -0.000 C 
HETATM   18  C   UNL     1      18.456  64.752  21.388  1.00  0.00    -0.049 C 
HETATM   19  C   UNL     1      22.933  69.214  18.697  1.00  0.00     0.011 C 
HETATM   20  C   UNL     1      22.371  70.088  19.636  1.00  0.00     0.001 C 
HETATM   21  C   UNL     1      24.538  64.644  18.421  1.00  0.00     0.055 C 
HETATM   22  C   UNL     1      21.214  68.240  20.631  1.00  0.00     0.030 C 
HETATM   23  C   UNL     1      17.745  66.286  19.762  1.00  0.00     0.042 C 
HETATM   24  C   UNL     1      25.267  61.853  20.149  1.00  0.00     0.029 C 
HETATM   25  C   UNL     1      24.056  66.989  18.665  1.00  0.00     0.099 C 
HETATM   26  C   UNL     1      22.851  62.192  20.246  1.00  0.00     0.043 C 
HETATM   27  N   UNL     1      24.138  63.299  18.624  1.00  0.00    -0.351 N 
ATOM     28  HN  UNL     1      23.810  62.850  17.769  1.00  0.00     0.167 HD
HETATM   29  C   UNL     1      25.479  64.896  17.261  1.00  0.00     0.082 C 
HETATM   30  C   UNL     1      21.582  69.582  20.661  1.00  0.00     0.002 C 
HETATM   31  C   UNL     1      18.892  65.490  20.298  1.00  0.00    -0.025 C 
HETATM   32  C   UNL     1      23.160  61.034  22.347  1.00  0.00     0.076 C 
HETATM   33  C   UNL     1      26.192  66.884  19.890  1.00  0.00     0.017 C 
HETATM   34  C   UNL     1      19.266  63.791  21.961  1.00  0.00     0.019 C 
ENDROOT
BRANCH  32  35
HETATM   35  O   UNL     1      22.402  60.252  23.138  1.00  0.00    -0.360 OA
ATOM     36  HO  UNL     1      22.372  60.448  24.067  1.00  0.00     0.217 HD
ENDBRANCH  32  35
TORSDOF 1
ENDMDL
MODEL 4
REMARK VINA RESULT:     -10.1      3.336      6.922
REMARK  1 active torsions:
REMARK  status: ('A' for Active; 'I' for Inactive)
REMARK    1  A    between atoms: O_3  and  C_34 
ROOT
HETATM    1  N   UNL     1      22.479  63.940  21.321  1.00  0.00    -0.355 N 
ATOM      2  HN  UNL     1      23.175  64.344  21.948  1.00  0.00     0.166 HD
HETATM    3  N   UNL     1      21.203  66.660  19.554  1.00  0.00    -0.264 NA
HETATM    4  C   UNL     1      21.772  59.964  23.453  1.00  0.00     0.009 C 
HETATM    5  C   UNL     1      17.669  64.126  21.814  1.00  0.00     0.026 C 
HETATM    6  C   UNL     1      22.709  63.945  19.947  1.00  0.00     0.040 C 
HETATM    7  C   UNL     1      15.736  67.149  21.187  1.00  0.00     0.037 C 
HETATM    8  C   UNL     1      16.494  68.255  20.979  1.00  0.00     0.005 C 
HETATM    9  C   UNL     1      23.209  65.069  19.242  1.00  0.00    -0.013 C 
HETATM   10  C   UNL     1      20.301  60.040  23.026  1.00  0.00     0.039 C 
HETATM   11  C   UNL     1      18.784  67.554  21.524  1.00  0.00     0.033 C 
HETATM   12  C   UNL     1      20.363  66.965  18.393  1.00  0.00     0.097 C 
HETATM   13  C   UNL     1      20.098  64.055  21.701  1.00  0.00     0.041 C 
HETATM   14  C   UNL     1      21.302  63.386  21.859  1.00  0.00     0.040 C 
HETATM   15  C   UNL     1      22.694  66.975  17.718  1.00  0.00     0.026 C 
HETATM   16  C   UNL     1      18.887  63.463  22.047  1.00  0.00    -0.033 C 
HETATM   17  C   UNL     1      17.409  65.499  21.922  1.00  0.00    -0.000 C 
HETATM   18  C   UNL     1      20.093  61.502  22.747  1.00  0.00    -0.049 C 
HETATM   19  C   UNL     1      24.305  64.777  18.419  1.00  0.00     0.011 C 
HETATM   20  C   UNL     1      24.331  63.537  17.770  1.00  0.00     0.001 C 
HETATM   21  C   UNL     1      21.108  67.794  20.471  1.00  0.00     0.055 C 
HETATM   22  C   UNL     1      22.554  62.782  19.190  1.00  0.00     0.030 C 
HETATM   23  C   UNL     1      22.416  61.261  22.968  1.00  0.00     0.042 C 
HETATM   24  C   UNL     1      17.850  68.446  20.991  1.00  0.00     0.029 C 
HETATM   25  C   UNL     1      22.619  66.456  19.161  1.00  0.00     0.099 C 
HETATM   26  C   UNL     1      18.418  66.410  22.212  1.00  0.00     0.043 C 
HETATM   27  N   UNL     1      20.111  67.860  21.477  1.00  0.00    -0.351 N 
ATOM     28  HN  UNL     1      20.466  68.218  22.364  1.00  0.00     0.167 HD
HETATM   29  C   UNL     1      21.946  69.042  20.276  1.00  0.00     0.082 C 
HETATM   30  C   UNL     1      23.389  62.570  18.097  1.00  0.00     0.002 C 
HETATM   31  C   UNL     1      21.299  62.148  22.520  1.00  0.00    -0.025 C 
HETATM   32  C   UNL     1      16.082  65.956  21.777  1.00  0.00     0.076 C 
HETATM   33  C   UNL     1      21.319  67.497  17.344  1.00  0.00     0.017 C 
HETATM   34  C   UNL     1      18.894  62.170  22.593  1.00  0.00     0.019 C 
ENDROOT
BRANCH  32  35
HETATM   35  O   UNL     1      15.112  65.235  22.369  1.00  0.00    -0.360 OA
ATOM     36  HO  UNL     1      14.637  64.604  21.842  1.00  0.00     0.217 HD
ENDBRANCH  32  35
TORSDOF 1
ENDMDL
MODEL 5
REMARK VINA RESULT:      -9.8      2.652      4.505
REMARK  1 active torsions:
REMARK  status: ('A' for Active; 'I' for Inactive)
REMARK    1  A    between atoms: O_3  and  C_34 
ROOT
HETATM    1  N   UNL     1      20.652  67.011  18.658  1.00  0.00    -0.355 N 
ATOM      2  HN  UNL     1      20.563  66.892  17.649  1.00  0.00     0.166 HD
HETATM    3  N   UNL     1      23.802  65.723  19.417  1.00  0.00    -0.264 NA
HETATM    4  C   UNL     1      16.245  67.500  19.748  1.00  0.00     0.009 C 
HETATM    5  C   UNL     1      20.263  63.566  22.034  1.00  0.00     0.026 C 
HETATM    6  C   UNL     1      21.584  67.917  19.161  1.00  0.00     0.040 C 
HETATM    7  C   UNL     1      22.849  61.065  22.610  1.00  0.00     0.037 C 
HETATM    8  C   UNL     1      23.840  61.074  21.683  1.00  0.00     0.005 C 
HETATM    9  C   UNL     1      22.910  68.026  18.673  1.00  0.00    -0.013 C 
HETATM   10  C   UNL     1      16.526  66.756  21.060  1.00  0.00     0.039 C 
HETATM   11  C   UNL     1      23.050  62.609  19.936  1.00  0.00     0.033 C 
HETATM   12  C   UNL     1      24.769  65.667  20.515  1.00  0.00     0.097 C 
HETATM   13  C   UNL     1      20.386  65.217  20.252  1.00  0.00     0.041 C 
HETATM   14  C   UNL     1      19.833  66.257  19.519  1.00  0.00     0.040 C 
HETATM   15  C   UNL     1      25.323  67.524  19.056  1.00  0.00     0.026 C 
HETATM   16  C   UNL     1      19.665  64.568  21.250  1.00  0.00    -0.033 C 
HETATM   17  C   UNL     1      21.201  62.607  21.625  1.00  0.00    -0.000 C 
HETATM   18  C   UNL     1      17.791  65.997  20.767  1.00  0.00    -0.049 C 
HETATM   19  C   UNL     1      23.288  69.338  18.357  1.00  0.00     0.011 C 
HETATM   20  C   UNL     1      22.801  70.376  19.161  1.00  0.00     0.001 C 
HETATM   21  C   UNL     1      24.028  64.549  18.576  1.00  0.00     0.055 C 
HETATM   22  C   UNL     1      21.219  68.858  20.126  1.00  0.00     0.030 C 
HETATM   23  C   UNL     1      17.559  67.487  18.970  1.00  0.00     0.042 C 
HETATM   24  C   UNL     1      24.030  61.832  20.558  1.00  0.00     0.029 C 
HETATM   25  C   UNL     1      23.970  66.954  18.607  1.00  0.00     0.099 C 
HETATM   26  C   UNL     1      21.725  62.605  20.338  1.00  0.00     0.043 C 
HETATM   27  N   UNL     1      23.364  63.319  18.817  1.00  0.00    -0.351 N 
ATOM     28  HN  UNL     1      23.051  62.864  17.959  1.00  0.00     0.167 HD
HETATM   29  C   UNL     1      25.119  64.527  17.526  1.00  0.00     0.082 C 
HETATM   30  C   UNL     1      21.826  70.110  20.113  1.00  0.00     0.002 C 
HETATM   31  C   UNL     1      18.472  66.549  19.692  1.00  0.00    -0.025 C 
HETATM   32  C   UNL     1      21.583  61.596  22.532  1.00  0.00     0.076 C 
HETATM   33  C   UNL     1      25.905  66.575  20.087  1.00  0.00     0.017 C 
HETATM   34  C   UNL     1      18.340  64.960  21.496  1.00  0.00     0.019 C 
ENDROOT
BRANCH  32  35
HETATM   35  O   UNL     1      20.611  61.033  23.275  1.00  0.00    -0.360 OA
ATOM     36  HO  UNL     1      20.494  61.338  24.167  1.00  0.00     0.217 HD
ENDBRANCH  32  35
TORSDOF 1
ENDMDL
MODEL 6
REMARK VINA RESULT:      -9.7      2.765      6.843
REMARK  1 active torsions:
REMARK  status: ('A' for Active; 'I' for Inactive)
REMARK    1  A    between atoms: O_3  and  C_34 
ROOT
HETATM    1  N   UNL     1      21.799  62.537  19.968  1.00  0.00    -0.355 N 
ATOM      2  HN  UNL     1      21.323  62.099  19.180  1.00  0.00     0.166 HD
HETATM    3  N   UNL     1      20.007  65.468  20.560  1.00  0.00    -0.264 NA
HETATM    4  C   UNL     1      25.814  60.376  19.710  1.00  0.00     0.009 C 
HETATM    5  C   UNL     1      24.769  66.355  19.812  1.00  0.00     0.026 C 
HETATM    6  C   UNL     1      21.150  62.625  21.198  1.00  0.00     0.040 C 
HETATM    7  C   UNL     1      23.581  69.760  19.294  1.00  0.00     0.037 C 
HETATM    8  C   UNL     1      22.265  69.842  18.972  1.00  0.00     0.005 C 
HETATM    9  C   UNL     1      19.796  63.019  21.341  1.00  0.00    -0.013 C 
HETATM   10  C   UNL     1      26.496  61.667  20.180  1.00  0.00     0.039 C 
HETATM   11  C   UNL     1      21.570  67.517  18.588  1.00  0.00     0.033 C 
HETATM   12  C   UNL     1      19.874  66.535  21.555  1.00  0.00     0.097 C 
HETATM   13  C   UNL     1      23.302  64.414  19.758  1.00  0.00     0.041 C 
HETATM   14  C   UNL     1      23.102  63.043  19.796  1.00  0.00     0.040 C 
HETATM   15  C   UNL     1      18.205  64.828  21.986  1.00  0.00     0.026 C 
HETATM   16  C   UNL     1      24.582  64.962  19.778  1.00  0.00    -0.033 C 
HETATM   17  C   UNL     1      23.998  67.336  19.172  1.00  0.00    -0.000 C 
HETATM   18  C   UNL     1      25.489  62.734  19.851  1.00  0.00    -0.049 C 
HETATM   19  C   UNL     1      19.033  62.142  22.125  1.00  0.00     0.011 C 
HETATM   20  C   UNL     1      19.653  61.529  23.220  1.00  0.00     0.001 C 
HETATM   21  C   UNL     1      19.602  66.022  19.270  1.00  0.00     0.055 C 
HETATM   22  C   UNL     1      21.786  62.221  22.374  1.00  0.00     0.030 C 
HETATM   23  C   UNL     1      24.331  60.714  19.571  1.00  0.00     0.042 C 
HETATM   24  C   UNL     1      21.312  68.877  18.779  1.00  0.00     0.029 C 
HETATM   25  C   UNL     1      19.147  64.306  20.893  1.00  0.00     0.099 C 
HETATM   26  C   UNL     1      22.851  67.009  18.458  1.00  0.00     0.043 C 
HETATM   27  N   UNL     1      20.532  66.654  18.404  1.00  0.00    -0.351 N 
ATOM     28  HN  UNL     1      20.391  66.408  17.424  1.00  0.00     0.167 HD
HETATM   29  C   UNL     1      18.143  66.121  18.873  1.00  0.00     0.082 C 
HETATM   30  C   UNL     1      21.026  61.650  23.391  1.00  0.00     0.002 C 
HETATM   31  C   UNL     1      24.219  62.199  19.701  1.00  0.00    -0.025 C 
HETATM   32  C   UNL     1      24.428  68.680  19.218  1.00  0.00     0.076 C 
HETATM   33  C   UNL     1      18.533  66.291  22.218  1.00  0.00     0.017 C 
HETATM   34  C   UNL     1      25.690  64.101  19.810  1.00  0.00     0.019 C 
ENDROOT
BRANCH  32  35
HETATM   35  O   UNL     1      25.743  68.913  19.049  1.00  0.00    -0.360 OA
ATOM     36  HO  UNL     1      26.175  68.525  18.298  1.00  0.00     0.217 HD
ENDBRANCH  32  35
TORSDOF 1
ENDMDL
