MODEL 1
REMARK VINA RESULT:     -11.7      0.000      0.000
REMARK  7 active torsions:
REMARK  status: ('A' for Active; 'I' for Inactive)
REMARK    1  A    between atoms: C_2  and  C_34 
REMARK    2  A    between atoms: C_3  and  C_7 
REMARK    3  A    between atoms: C_5  and  C_30 
REMARK    4  A    between atoms: C_13  and  C_16 
REMARK    5  A    between atoms: C_17  and  CA_31 
REMARK    6  A    between atoms: O_20  and  C_26 
REMARK    7  A    between atoms: O_24  and  C_28 
ROOT
HETATM    1  C   UNL     1      -0.656  34.892  53.963  1.00  0.00     0.040 C 
HETATM    2  C   UNL     1      -1.119  36.975  55.184  1.00  0.00     0.001 C 
HETATM    3  C   UNL     1      -1.032  35.805  56.156  1.00  0.00     0.006 C 
HETATM    4  C   UNL     1      -0.197  34.770  55.417  1.00  0.00    -0.001 C 
HETATM    5  C   UNL     1      -0.859  36.400  53.797  1.00  0.00     0.011 C 
ENDROOT
BRANCH   1   6
HETATM    6  C   UNL     1      -1.887  34.146  53.530  1.00  0.00     0.014 A 
HETATM    7  N   UNL     1      -2.002  32.813  53.522  1.00  0.00    -0.358 N 
HETATM    8  C   UNL     1      -3.131  32.457  52.849  1.00  0.00     0.045 A 
ATOM      9  HN  UNL     1      -1.344  32.163  53.955  1.00  0.00     0.166 HD
HETATM   10  C   UNL     1      -3.815  33.610  52.506  1.00  0.00     0.032 A 
HETATM   11  C   UNL     1      -3.059  34.676  52.984  1.00  0.00     0.027 A 
BRANCH   8  12
HETATM   12  C   UNL     1      -3.392  31.066  52.466  1.00  0.00     0.026 C 
HETATM   13  C   UNL     1      -2.427  30.079  52.687  1.00  0.00     0.017 C 
HETATM   14  C   UNL     1      -2.447  28.904  51.938  1.00  0.00     0.004 C 
HETATM   15  C   UNL     1      -3.413  28.735  50.950  1.00  0.00     0.039 C 
HETATM   16  C   UNL     1      -4.525  29.573  50.934  1.00  0.00     0.099 C 
HETATM   17  C   UNL     1      -4.576  30.675  51.802  1.00  0.00     0.111 C 
BRANCH  16  18
HETATM   18  O   UNL     1      -5.558  29.297  50.088  1.00  0.00    -0.358 OA
ATOM     19  HO  UNL     1      -5.407  28.740  49.333  1.00  0.00     0.217 HD
ENDBRANCH  16  18
BRANCH  17  20
HETATM   20  O   UNL     1      -5.753  31.309  52.010  1.00  0.00    -0.357 OA
ATOM     21  HO  UNL     1      -5.782  32.072  52.577  1.00  0.00     0.217 HD
ENDBRANCH  17  20
ENDBRANCH   8  12
ENDBRANCH   1   6
BRANCH   4  22
HETATM   22  C   UNL     1      -0.120  33.376  56.020  1.00  0.00    -0.009 C 
HETATM   23  C   UNL     1       0.320  33.418  57.480  1.00  0.00     0.005 C 
HETATM   24  C   UNL     1       1.091  32.126  57.691  1.00  0.00     0.010 C 
HETATM   25  C   UNL     1       1.637  31.722  56.333  1.00  0.00     0.020 C 
HETATM   26  C   UNL     1       0.986  32.612  55.273  1.00  0.00     0.014 C 
BRANCH  25  27
HETATM   27  C   UNL     1       3.147  31.659  56.309  1.00  0.00    -0.038 C 
HETATM   28  C   UNL     1       3.887  31.538  55.136  1.00  0.00     0.011 C 
HETATM   29  C   UNL     1       5.279  31.570  55.194  1.00  0.00     0.037 C 
HETATM   30  CA  UNL     1       5.884  31.968  56.387  1.00  0.00     0.109 C 
HETATM   31  N   UNL     1       5.168  32.045  57.532  1.00  0.00    -0.360 N 
HETATM   32  C   UNL     1       3.857  31.788  57.498  1.00  0.00     0.096 C 
ATOM     33  HN  UNL     1       5.624  32.296  58.411  1.00  0.00     0.165 HD
BRANCH  30  34
HETATM   34  C   UNL     1       7.348  32.261  56.459  1.00  0.00     0.226 C 
HETATM   35  O   UNL     1       8.131  31.477  57.016  1.00  0.00    -0.643 OA
HETATM   36  OXT UNL     1       7.649  33.475  56.247  1.00  0.00    -0.643 OA
ENDBRANCH  30  34
ENDBRANCH  25  27
ENDBRANCH   4  22
TORSDOF 7
ENDMDL
MODEL 2
REMARK VINA RESULT:     -11.3      2.072      3.027
REMARK  7 active torsions:
REMARK  status: ('A' for Active; 'I' for Inactive)
REMARK    1  A    between atoms: C_2  and  C_34 
REMARK    2  A    between atoms: C_3  and  C_7 
REMARK    3  A    between atoms: C_5  and  C_30 
REMARK    4  A    between atoms: C_13  and  C_16 
REMARK    5  A    between atoms: C_17  and  CA_31 
REMARK    6  A    between atoms: O_20  and  C_26 
REMARK    7  A    between atoms: O_24  and  C_28 
ROOT
HETATM    1  C   UNL     1      -0.507  34.734  54.071  1.00  0.00     0.040 C 
HETATM    2  C   UNL     1      -1.237  36.732  55.303  1.00  0.00     0.001 C 
HETATM    3  C   UNL     1      -1.150  35.538  56.244  1.00  0.00     0.006 C 
HETATM    4  C   UNL     1      -0.174  34.594  55.557  1.00  0.00    -0.001 C 
HETATM    5  C   UNL     1      -0.808  36.228  53.930  1.00  0.00     0.011 C 
ENDROOT
BRANCH   1   6
HETATM    6  C   UNL     1      -1.632  33.915  53.503  1.00  0.00     0.014 A 
HETATM    7  N   UNL     1      -2.796  34.418  53.077  1.00  0.00    -0.358 N 
HETATM    8  C   UNL     1      -3.679  33.404  52.861  1.00  0.00     0.045 A 
ATOM      9  HN  UNL     1      -2.992  35.410  52.936  1.00  0.00     0.166 HD
HETATM   10  C   UNL     1      -3.018  32.203  53.055  1.00  0.00     0.032 A 
HETATM   11  C   UNL     1      -1.711  32.523  53.406  1.00  0.00     0.027 A 
BRANCH   8  12
HETATM   12  C   UNL     1      -5.103  33.661  52.626  1.00  0.00     0.026 C 
HETATM   13  C   UNL     1      -5.823  32.876  51.721  1.00  0.00     0.017 C 
HETATM   14  C   UNL     1      -6.990  33.371  51.144  1.00  0.00     0.004 C 
HETATM   15  C   UNL     1      -7.416  34.660  51.451  1.00  0.00     0.039 C 
HETATM   16  C   UNL     1      -6.870  35.314  52.552  1.00  0.00     0.099 C 
HETATM   17  C   UNL     1      -5.786  34.738  53.234  1.00  0.00     0.111 C 
BRANCH  16  18
HETATM   18  O   UNL     1      -7.411  36.495  52.965  1.00  0.00    -0.358 OA
ATOM     19  HO  UNL     1      -8.321  36.521  53.239  1.00  0.00     0.217 HD
ENDBRANCH  16  18
BRANCH  17  20
HETATM   20  O   UNL     1      -5.446  35.197  54.460  1.00  0.00    -0.357 OA
ATOM     21  HO  UNL     1      -5.454  36.131  54.631  1.00  0.00     0.217 HD
ENDBRANCH  17  20
ENDBRANCH   8  12
ENDBRANCH   1   6
BRANCH   4  22
HETATM   22  C   UNL     1      -0.046  33.189  56.124  1.00  0.00    -0.009 C 
HETATM   23  C   UNL     1       0.375  33.209  57.590  1.00  0.00     0.005 C 
HETATM   24  C   UNL     1       1.197  31.946  57.777  1.00  0.00     0.010 C 
HETATM   25  C   UNL     1       1.775  31.601  56.416  1.00  0.00     0.020 C 
HETATM   26  C   UNL     1       1.100  32.492  55.372  1.00  0.00     0.014 C 
BRANCH  25  27
HETATM   27  C   UNL     1       3.286  31.602  56.411  1.00  0.00    -0.038 C 
HETATM   28  C   UNL     1       4.045  31.463  55.252  1.00  0.00     0.011 C 
HETATM   29  C   UNL     1       5.433  31.557  55.323  1.00  0.00     0.037 C 
HETATM   30  CA  UNL     1       6.006  32.030  56.504  1.00  0.00     0.109 C 
HETATM   31  N   UNL     1       5.275  32.125  57.637  1.00  0.00    -0.360 N 
HETATM   32  C   UNL     1       3.976  31.812  57.600  1.00  0.00     0.096 C 
ATOM     33  HN  UNL     1       5.709  32.432  58.509  1.00  0.00     0.165 HD
BRANCH  30  34
HETATM   34  C   UNL     1       7.456  32.388  56.579  1.00  0.00     0.226 C 
HETATM   35  O   UNL     1       7.887  33.430  56.062  1.00  0.00    -0.643 OA
HETATM   36  OXT UNL     1       8.219  31.417  56.871  1.00  0.00    -0.643 OA
ENDBRANCH  30  34
ENDBRANCH  25  27
ENDBRANCH   4  22
TORSDOF 7
ENDMDL
MODEL 3
REMARK VINA RESULT:      -9.8      2.108      8.094
REMARK  7 active torsions:
REMARK  status: ('A' for Active; 'I' for Inactive)
REMARK    1  A    between atoms: C_2  and  C_34 
REMARK    2  A    between atoms: C_3  and  C_7 
REMARK    3  A    between atoms: C_5  and  C_30 
REMARK    4  A    between atoms: C_13  and  C_16 
REMARK    5  A    between atoms: C_17  and  CA_31 
REMARK    6  A    between atoms: O_20  and  C_26 
REMARK    7  A    between atoms: O_24  and  C_28 
ROOT
HETATM    1  C   UNL     1      -0.416  36.801  54.537  1.00  0.00     0.040 C 
HETATM    2  C   UNL     1       0.035  37.661  52.279  1.00  0.00     0.001 C 
HETATM    3  C   UNL     1      -1.421  37.228  52.394  1.00  0.00     0.006 C 
HETATM    4  C   UNL     1      -1.709  37.293  53.887  1.00  0.00    -0.001 C 
HETATM    5  C   UNL     1       0.666  37.411  53.643  1.00  0.00     0.011 C 
ENDROOT
BRANCH   1   6
HETATM    6  C   UNL     1      -0.202  35.321  54.687  1.00  0.00     0.014 A 
HETATM    7  N   UNL     1       0.205  34.725  55.813  1.00  0.00    -0.358 N 
HETATM    8  C   UNL     1       0.538  33.431  55.548  1.00  0.00     0.045 A 
ATOM      9  HN  UNL     1       0.258  35.170  56.730  1.00  0.00     0.166 HD
HETATM   10  C   UNL     1       0.231  33.164  54.225  1.00  0.00     0.032 A 
HETATM   11  C   UNL     1      -0.288  34.342  53.695  1.00  0.00     0.027 A 
BRANCH   8  12
HETATM   12  C   UNL     1       1.246  32.602  56.529  1.00  0.00     0.026 C 
HETATM   13  C   UNL     1       0.816  32.560  57.859  1.00  0.00     0.017 C 
HETATM   14  C   UNL     1       1.703  32.186  58.866  1.00  0.00     0.004 C 
HETATM   15  C   UNL     1       3.024  31.886  58.543  1.00  0.00     0.039 C 
HETATM   16  C   UNL     1       3.363  31.650  57.214  1.00  0.00     0.099 C 
HETATM   17  C   UNL     1       2.415  31.879  56.204  1.00  0.00     0.111 C 
BRANCH  16  18
HETATM   18  O   UNL     1       4.607  31.177  56.914  1.00  0.00    -0.358 OA
ATOM     19  HO  UNL     1       5.203  30.953  57.620  1.00  0.00     0.217 HD
ENDBRANCH  16  18
BRANCH  17  20
HETATM   20  O   UNL     1       2.622  31.378  54.965  1.00  0.00    -0.357 OA
ATOM     21  HO  UNL     1       1.954  30.838  54.558  1.00  0.00     0.217 HD
ENDBRANCH  17  20
ENDBRANCH   8  12
ENDBRANCH   1   6
BRANCH   4  22
HETATM   22  C   UNL     1      -3.019  36.690  54.371  1.00  0.00    -0.009 C 
HETATM   23  C   UNL     1      -2.788  35.635  55.449  1.00  0.00     0.005 C 
HETATM   24  C   UNL     1      -3.915  34.633  55.261  1.00  0.00     0.010 C 
HETATM   25  C   UNL     1      -4.331  34.722  53.803  1.00  0.00     0.020 C 
HETATM   26  C   UNL     1      -3.648  35.942  53.185  1.00  0.00     0.014 C 
BRANCH  25  27
HETATM   27  C   UNL     1      -4.147  33.414  53.067  1.00  0.00    -0.038 C 
HETATM   28  C   UNL     1      -3.218  32.450  53.448  1.00  0.00     0.011 C 
HETATM   29  C   UNL     1      -3.168  31.236  52.765  1.00  0.00     0.037 C 
HETATM   30  CA  UNL     1      -4.208  30.925  51.888  1.00  0.00     0.109 C 
HETATM   31  N   UNL     1      -5.084  31.875  51.491  1.00  0.00    -0.360 N 
HETATM   32  C   UNL     1      -4.976  33.109  51.993  1.00  0.00     0.096 C 
ATOM     33  HN  UNL     1      -5.818  31.654  50.817  1.00  0.00     0.165 HD
BRANCH  30  34
HETATM   34  C   UNL     1      -4.356  29.555  51.307  1.00  0.00     0.226 C 
HETATM   35  O   UNL     1      -3.371  28.923  50.899  1.00  0.00    -0.643 OA
HETATM   36  OXT UNL     1      -5.538  29.265  50.948  1.00  0.00    -0.643 OA
ENDBRANCH  30  34
ENDBRANCH  25  27
ENDBRANCH   4  22
TORSDOF 7
ENDMDL
MODEL 4
REMARK VINA RESULT:      -9.3      3.261      5.127
REMARK  7 active torsions:
REMARK  status: ('A' for Active; 'I' for Inactive)
REMARK    1  A    between atoms: C_2  and  C_34 
REMARK    2  A    between atoms: C_3  and  C_7 
REMARK    3  A    between atoms: C_5  and  C_30 
REMARK    4  A    between atoms: C_13  and  C_16 
REMARK    5  A    between atoms: C_17  and  CA_31 
REMARK    6  A    between atoms: O_20  and  C_26 
REMARK    7  A    between atoms: O_24  and  C_28 
ROOT
HETATM    1  C   UNL     1      -1.401  35.189  53.420  1.00  0.00     0.040 C 
HETATM    2  C   UNL     1       0.022  37.174  53.701  1.00  0.00     0.001 C 
HETATM    3  C   UNL     1       0.300  36.169  54.809  1.00  0.00     0.006 C 
HETATM    4  C   UNL     1      -0.150  34.838  54.224  1.00  0.00    -0.001 C 
HETATM    5  C   UNL     1      -1.040  36.545  52.807  1.00  0.00     0.011 C 
ENDROOT
BRANCH   1   6
HETATM    6  C   UNL     1      -2.720  35.271  54.135  1.00  0.00     0.014 A 
HETATM    7  N   UNL     1      -3.513  36.348  54.143  1.00  0.00    -0.358 N 
HETATM    8  C   UNL     1      -4.494  36.185  55.074  1.00  0.00     0.045 A 
ATOM      9  HN  UNL     1      -3.400  37.167  53.545  1.00  0.00     0.166 HD
HETATM   10  C   UNL     1      -4.384  34.911  55.603  1.00  0.00     0.032 A 
HETATM   11  C   UNL     1      -3.298  34.312  54.971  1.00  0.00     0.027 A 
BRANCH   8  12
HETATM   12  C   UNL     1      -5.361  37.295  55.481  1.00  0.00     0.026 C 
HETATM   13  C   UNL     1      -4.813  38.542  55.791  1.00  0.00     0.017 C 
HETATM   14  C   UNL     1      -5.517  39.430  56.602  1.00  0.00     0.004 C 
HETATM   15  C   UNL     1      -6.752  39.054  57.125  1.00  0.00     0.039 C 
HETATM   16  C   UNL     1      -7.412  37.952  56.587  1.00  0.00     0.099 C 
HETATM   17  C   UNL     1      -6.756  37.141  55.648  1.00  0.00     0.111 C 
BRANCH  16  18
HETATM   18  O   UNL     1      -8.695  37.691  56.966  1.00  0.00    -0.358 OA
ATOM     19  HO  UNL     1      -9.292  37.290  56.345  1.00  0.00     0.217 HD
ENDBRANCH  16  18
BRANCH  17  20
HETATM   20  O   UNL     1      -7.470  36.265  54.905  1.00  0.00    -0.357 OA
ATOM     21  HO  UNL     1      -8.181  35.778  55.305  1.00  0.00     0.217 HD
ENDBRANCH  17  20
ENDBRANCH   8  12
ENDBRANCH   1   6
BRANCH   4  22
HETATM   22  C   UNL     1      -0.228  33.650  55.171  1.00  0.00    -0.009 C 
HETATM   23  C   UNL     1       0.162  34.037  56.594  1.00  0.00     0.005 C 
HETATM   24  C   UNL     1       0.798  32.786  57.177  1.00  0.00     0.010 C 
HETATM   25  C   UNL     1       1.349  31.996  56.004  1.00  0.00     0.020 C 
HETATM   26  C   UNL     1       0.825  32.627  54.714  1.00  0.00     0.014 C 
BRANCH  25  27
HETATM   27  C   UNL     1       2.846  31.803  56.088  1.00  0.00    -0.038 C 
HETATM   28  C   UNL     1       3.650  31.580  54.972  1.00  0.00     0.011 C 
HETATM   29  C   UNL     1       5.032  31.494  55.127  1.00  0.00     0.037 C 
HETATM   30  CA  UNL     1       5.588  31.879  56.347  1.00  0.00     0.109 C 
HETATM   31  N   UNL     1       4.808  32.055  57.437  1.00  0.00    -0.360 N 
HETATM   32  C   UNL     1       3.484  31.910  57.319  1.00  0.00     0.096 C 
ATOM     33  HN  UNL     1       5.224  32.295  58.338  1.00  0.00     0.165 HD
BRANCH  30  34
HETATM   34  C   UNL     1       7.065  32.048  56.513  1.00  0.00     0.226 C 
HETATM   35  O   UNL     1       7.760  31.150  57.012  1.00  0.00    -0.643 OA
HETATM   36  OXT UNL     1       7.463  33.251  56.449  1.00  0.00    -0.643 OA
ENDBRANCH  30  34
ENDBRANCH  25  27
ENDBRANCH   4  22
TORSDOF 7
ENDMDL
MODEL 5
REMARK VINA RESULT:      -9.3      4.824      7.484
REMARK  7 active torsions:
REMARK  status: ('A' for Active; 'I' for Inactive)
REMARK    1  A    between atoms: C_2  and  C_34 
REMARK    2  A    between atoms: C_3  and  C_7 
REMARK    3  A    between atoms: C_5  and  C_30 
REMARK    4  A    between atoms: C_13  and  C_16 
REMARK    5  A    between atoms: C_17  and  CA_31 
REMARK    6  A    between atoms: O_20  and  C_26 
REMARK    7  A    between atoms: O_24  and  C_28 
ROOT
HETATM    1  C   UNL     1      -5.616  35.114  54.529  1.00  0.00     0.040 C 
HETATM    2  C   UNL     1      -5.203  34.557  52.170  1.00  0.00     0.001 C 
HETATM    3  C   UNL     1      -3.941  35.127  52.804  1.00  0.00     0.006 C 
HETATM    4  C   UNL     1      -4.125  34.872  54.292  1.00  0.00    -0.001 C 
HETATM    5  C   UNL     1      -6.258  34.528  53.269  1.00  0.00     0.011 C 
ENDROOT
BRANCH   1   6
HETATM    6  C   UNL     1      -6.092  36.521  54.755  1.00  0.00     0.014 A 
HETATM    7  N   UNL     1      -5.818  37.248  55.844  1.00  0.00    -0.358 N 
HETATM    8  C   UNL     1      -6.594  38.368  55.851  1.00  0.00     0.045 A 
ATOM      9  HN  UNL     1      -5.134  37.002  56.560  1.00  0.00     0.166 HD
HETATM   10  C   UNL     1      -7.311  38.408  54.668  1.00  0.00     0.032 A 
HETATM   11  C   UNL     1      -6.954  37.271  53.950  1.00  0.00     0.027 A 
BRANCH   8  12
HETATM   12  C   UNL     1      -6.692  39.229  57.034  1.00  0.00     0.026 C 
HETATM   13  C   UNL     1      -6.673  40.620  56.899  1.00  0.00     0.017 C 
HETATM   14  C   UNL     1      -6.298  41.419  57.977  1.00  0.00     0.004 C 
HETATM   15  C   UNL     1      -5.913  40.822  59.175  1.00  0.00     0.039 C 
HETATM   16  C   UNL     1      -6.208  39.479  59.392  1.00  0.00     0.099 C 
HETATM   17  C   UNL     1      -6.735  38.706  58.346  1.00  0.00     0.111 C 
BRANCH  16  18
HETATM   18  O   UNL     1      -6.001  38.941  60.628  1.00  0.00    -0.358 OA
ATOM     19  HO  UNL     1      -5.467  39.411  61.257  1.00  0.00     0.217 HD
ENDBRANCH  16  18
BRANCH  17  20
HETATM   20  O   UNL     1      -7.300  37.507  58.617  1.00  0.00    -0.357 OA
ATOM     21  HO  UNL     1      -8.236  37.391  58.503  1.00  0.00     0.217 HD
ENDBRANCH  17  20
ENDBRANCH   8  12
ENDBRANCH   1   6
BRANCH   4  22
HETATM   22  C   UNL     1      -3.141  35.538  55.242  1.00  0.00    -0.009 C 
HETATM   23  C   UNL     1      -1.998  36.210  54.487  1.00  0.00     0.005 C 
HETATM   24  C   UNL     1      -0.801  36.102  55.417  1.00  0.00     0.010 C 
HETATM   25  C   UNL     1      -1.047  34.890  56.297  1.00  0.00     0.020 C 
HETATM   26  C   UNL     1      -2.489  34.428  56.082  1.00  0.00     0.014 C 
BRANCH  25  27
HETATM   27  C   UNL     1       0.019  33.830  56.137  1.00  0.00    -0.038 C 
HETATM   28  C   UNL     1       0.713  33.621  54.947  1.00  0.00     0.011 C 
HETATM   29  C   UNL     1       1.739  32.679  54.907  1.00  0.00     0.037 C 
HETATM   30  CA  UNL     1       2.205  32.153  56.112  1.00  0.00     0.109 C 
HETATM   31  N   UNL     1       1.506  32.325  57.257  1.00  0.00    -0.360 N 
HETATM   32  C   UNL     1       0.388  33.056  57.231  1.00  0.00     0.096 C 
ATOM     33  HN  UNL     1       1.829  31.903  58.128  1.00  0.00     0.165 HD
BRANCH  30  34
HETATM   34  C   UNL     1       3.452  31.330  56.174  1.00  0.00     0.226 C 
HETATM   35  O   UNL     1       3.662  30.423  55.356  1.00  0.00    -0.643 OA
HETATM   36  OXT UNL     1       4.060  31.388  57.286  1.00  0.00    -0.643 OA
ENDBRANCH  30  34
ENDBRANCH  25  27
ENDBRANCH   4  22
TORSDOF 7
ENDMDL
MODEL 6
REMARK VINA RESULT:      -9.1      2.679      4.112
REMARK  7 active torsions:
REMARK  status: ('A' for Active; 'I' for Inactive)
REMARK    1  A    between atoms: C_2  and  C_34 
REMARK    2  A    between atoms: C_3  and  C_7 
REMARK    3  A    between atoms: C_5  and  C_30 
REMARK    4  A    between atoms: C_13  and  C_16 
REMARK    5  A    between atoms: C_17  and  CA_31 
REMARK    6  A    between atoms: O_20  and  C_26 
REMARK    7  A    between atoms: O_24  and  C_28 
ROOT
HETATM    1  C   UNL     1      -1.164  35.494  53.663  1.00  0.00     0.040 C 
HETATM    2  C   UNL     1      -1.361  37.607  54.904  1.00  0.00     0.001 C 
HETATM    3  C   UNL     1      -1.332  36.431  55.871  1.00  0.00     0.006 C 
HETATM    4  C   UNL     1      -0.640  35.325  55.089  1.00  0.00    -0.001 C 
HETATM    5  C   UNL     1      -1.232  37.015  53.506  1.00  0.00     0.011 C 
ENDROOT
BRANCH   1   6
HETATM    6  C   UNL     1      -2.481  34.869  53.298  1.00  0.00     0.014 A 
HETATM    7  N   UNL     1      -3.583  35.556  52.974  1.00  0.00    -0.358 N 
HETATM    8  C   UNL     1      -4.653  34.714  52.944  1.00  0.00     0.045 A 
ATOM      9  HN  UNL     1      -3.616  36.557  52.778  1.00  0.00     0.166 HD
HETATM   10  C   UNL     1      -4.197  33.424  53.154  1.00  0.00     0.032 A 
HETATM   11  C   UNL     1      -2.819  33.514  53.323  1.00  0.00     0.027 A 
BRANCH   8  12
HETATM   12  C   UNL     1      -6.027  35.218  52.859  1.00  0.00     0.026 C 
HETATM   13  C   UNL     1      -6.642  35.386  51.615  1.00  0.00     0.017 C 
HETATM   14  C   UNL     1      -7.710  36.269  51.480  1.00  0.00     0.004 C 
HETATM   15  C   UNL     1      -8.138  37.005  52.582  1.00  0.00     0.039 C 
HETATM   16  C   UNL     1      -7.724  36.627  53.856  1.00  0.00     0.099 C 
HETATM   17  C   UNL     1      -6.755  35.622  54.001  1.00  0.00     0.111 C 
BRANCH  16  18
HETATM   18  O   UNL     1      -8.284  37.225  54.946  1.00  0.00    -0.358 OA
ATOM     19  HO  UNL     1      -8.841  36.716  55.522  1.00  0.00     0.217 HD
ENDBRANCH  16  18
BRANCH  17  20
HETATM   20  O   UNL     1      -6.566  35.043  55.208  1.00  0.00    -0.357 OA
ATOM     21  HO  UNL     1      -5.766  35.213  55.692  1.00  0.00     0.217 HD
ENDBRANCH  17  20
ENDBRANCH   8  12
ENDBRANCH   1   6
BRANCH   4  22
HETATM   22  C   UNL     1      -0.662  33.927  55.689  1.00  0.00    -0.009 C 
HETATM   23  C   UNL     1      -0.328  33.947  57.177  1.00  0.00     0.005 C 
HETATM   24  C   UNL     1       0.374  32.626  57.437  1.00  0.00     0.010 C 
HETATM   25  C   UNL     1       1.000  32.204  56.120  1.00  0.00     0.020 C 
HETATM   26  C   UNL     1       0.465  33.122  55.021  1.00  0.00     0.014 C 
BRANCH  25  27
HETATM   27  C   UNL     1       2.505  32.081  56.207  1.00  0.00    -0.038 C 
HETATM   28  C   UNL     1       3.191  31.954  57.411  1.00  0.00     0.011 C 
HETATM   29  C   UNL     1       4.571  31.762  57.399  1.00  0.00     0.037 C 
HETATM   30  CA  UNL     1       5.188  31.457  56.186  1.00  0.00     0.109 C 
HETATM   31  N   UNL     1       4.530  31.620  55.016  1.00  0.00    -0.360 N 
HETATM   32  C   UNL     1       3.257  32.026  55.038  1.00  0.00     0.096 C 
ATOM     33  HN  UNL     1       4.999  31.436  54.128  1.00  0.00     0.165 HD
BRANCH  30  34
HETATM   34  C   UNL     1       6.611  31.002  56.126  1.00  0.00     0.226 C 
HETATM   35  O   UNL     1       7.437  31.574  55.400  1.00  0.00    -0.643 OA
HETATM   36  OXT UNL     1       6.802  29.827  56.566  1.00  0.00    -0.643 OA
ENDBRANCH  30  34
ENDBRANCH  25  27
ENDBRANCH   4  22
TORSDOF 7
ENDMDL
MODEL 7
REMARK VINA RESULT:      -9.1      3.926      6.141
REMARK  7 active torsions:
REMARK  status: ('A' for Active; 'I' for Inactive)
REMARK    1  A    between atoms: C_2  and  C_34 
REMARK    2  A    between atoms: C_3  and  C_7 
REMARK    3  A    between atoms: C_5  and  C_30 
REMARK    4  A    between atoms: C_13  and  C_16 
REMARK    5  A    between atoms: C_17  and  CA_31 
REMARK    6  A    between atoms: O_20  and  C_26 
REMARK    7  A    between atoms: O_24  and  C_28 
ROOT
HETATM    1  C   UNL     1      -5.665  34.681  53.196  1.00  0.00     0.040 C 
HETATM    2  C   UNL     1      -4.723  32.786  51.944  1.00  0.00     0.001 C 
HETATM    3  C   UNL     1      -3.647  33.431  52.807  1.00  0.00     0.006 C 
HETATM    4  C   UNL     1      -4.427  34.134  53.908  1.00  0.00    -0.001 C 
HETATM    5  C   UNL     1      -6.008  33.564  52.207  1.00  0.00     0.011 C 
ENDROOT
BRANCH   1   6
HETATM    6  C   UNL     1      -5.564  36.001  52.484  1.00  0.00     0.014 A 
HETATM    7  N   UNL     1      -4.966  36.180  51.301  1.00  0.00    -0.358 N 
HETATM    8  C   UNL     1      -4.830  37.513  51.057  1.00  0.00     0.045 A 
ATOM      9  HN  UNL     1      -4.658  35.433  50.677  1.00  0.00     0.166 HD
HETATM   10  C   UNL     1      -5.461  38.209  52.074  1.00  0.00     0.032 A 
HETATM   11  C   UNL     1      -5.973  37.254  52.947  1.00  0.00     0.027 A 
BRANCH   8  12
HETATM   12  C   UNL     1      -3.996  38.014  49.960  1.00  0.00     0.026 C 
HETATM   13  C   UNL     1      -4.514  38.933  49.042  1.00  0.00     0.017 C 
HETATM   14  C   UNL     1      -3.940  39.054  47.778  1.00  0.00     0.004 C 
HETATM   15  C   UNL     1      -2.873  38.232  47.426  1.00  0.00     0.039 C 
HETATM   16  C   UNL     1      -2.189  37.540  48.421  1.00  0.00     0.099 C 
HETATM   17  C   UNL     1      -2.682  37.545  49.735  1.00  0.00     0.111 C 
BRANCH  16  18
HETATM   18  O   UNL     1      -1.035  36.884  48.107  1.00  0.00    -0.358 OA
ATOM     19  HO  UNL     1      -1.039  36.245  47.404  1.00  0.00     0.217 HD
ENDBRANCH  16  18
BRANCH  17  20
HETATM   20  O   UNL     1      -1.887  37.141  50.751  1.00  0.00    -0.357 OA
ATOM     21  HO  UNL     1      -0.980  37.423  50.780  1.00  0.00     0.217 HD
ENDBRANCH  17  20
ENDBRANCH   8  12
ENDBRANCH   1   6
BRANCH   4  22
HETATM   22  C   UNL     1      -3.656  35.083  54.813  1.00  0.00    -0.009 C 
HETATM   23  C   UNL     1      -2.633  35.901  54.031  1.00  0.00     0.005 C 
HETATM   24  C   UNL     1      -1.495  36.138  55.009  1.00  0.00     0.010 C 
HETATM   25  C   UNL     1      -1.538  34.995  56.006  1.00  0.00     0.020 C 
HETATM   26  C   UNL     1      -2.840  34.222  55.792  1.00  0.00     0.014 C 
BRANCH  25  27
HETATM   27  C   UNL     1      -0.270  34.171  55.999  1.00  0.00    -0.038 C 
HETATM   28  C   UNL     1       0.126  33.372  57.069  1.00  0.00     0.011 C 
HETATM   29  C   UNL     1       1.267  32.580  56.950  1.00  0.00     0.037 C 
HETATM   30  CA  UNL     1       1.835  32.422  55.686  1.00  0.00     0.109 C 
HETATM   31  N   UNL     1       1.476  33.228  54.660  1.00  0.00    -0.360 N 
HETATM   32  C   UNL     1       0.525  34.145  54.858  1.00  0.00     0.096 C 
ATOM     33  HN  UNL     1       1.926  33.136  53.748  1.00  0.00     0.165 HD
BRANCH  30  34
HETATM   34  C   UNL     1       2.903  31.406  55.432  1.00  0.00     0.226 C 
HETATM   35  O   UNL     1       3.413  30.766  56.363  1.00  0.00    -0.643 OA
HETATM   36  OXT UNL     1       3.469  31.516  54.302  1.00  0.00    -0.643 OA
ENDBRANCH  30  34
ENDBRANCH  25  27
ENDBRANCH   4  22
TORSDOF 7
ENDMDL
MODEL 8
REMARK VINA RESULT:      -9.0      3.055      4.665
REMARK  7 active torsions:
REMARK  status: ('A' for Active; 'I' for Inactive)
REMARK    1  A    between atoms: C_2  and  C_34 
REMARK    2  A    between atoms: C_3  and  C_7 
REMARK    3  A    between atoms: C_5  and  C_30 
REMARK    4  A    between atoms: C_13  and  C_16 
REMARK    5  A    between atoms: C_17  and  CA_31 
REMARK    6  A    between atoms: O_20  and  C_26 
REMARK    7  A    between atoms: O_24  and  C_28 
ROOT
HETATM    1  C   UNL     1      -4.492  37.274  53.791  1.00  0.00     0.040 C 
HETATM    2  C   UNL     1      -5.459  38.209  55.849  1.00  0.00     0.001 C 
HETATM    3  C   UNL     1      -3.955  38.448  55.820  1.00  0.00     0.006 C 
HETATM    4  C   UNL     1      -3.598  38.385  54.343  1.00  0.00    -0.001 C 
HETATM    5  C   UNL     1      -5.803  37.484  54.553  1.00  0.00     0.011 C 
ENDROOT
BRANCH   1   6
HETATM    6  C   UNL     1      -4.033  35.849  53.918  1.00  0.00     0.014 A 
HETATM    7  N   UNL     1      -3.920  34.995  52.895  1.00  0.00    -0.358 N 
HETATM    8  C   UNL     1      -3.726  33.734  53.373  1.00  0.00     0.045 A 
ATOM      9  HN  UNL     1      -3.971  35.249  51.908  1.00  0.00     0.166 HD
HETATM   10  C   UNL     1      -3.605  33.804  54.750  1.00  0.00     0.032 A 
HETATM   11  C   UNL     1      -3.744  35.146  55.091  1.00  0.00     0.027 A 
BRANCH   8  12
HETATM   12  C   UNL     1      -3.810  32.559  52.500  1.00  0.00     0.026 C 
HETATM   13  C   UNL     1      -4.875  32.419  51.605  1.00  0.00     0.017 C 
HETATM   14  C   UNL     1      -5.227  31.156  51.133  1.00  0.00     0.004 C 
HETATM   15  C   UNL     1      -4.533  30.036  51.583  1.00  0.00     0.039 C 
HETATM   16  C   UNL     1      -3.313  30.205  52.232  1.00  0.00     0.099 C 
HETATM   17  C   UNL     1      -2.881  31.497  52.572  1.00  0.00     0.111 C 
BRANCH  16  18
HETATM   18  O   UNL     1      -2.545  29.113  52.508  1.00  0.00    -0.358 OA
ATOM     19  HO  UNL     1      -2.954  28.257  52.559  1.00  0.00     0.217 HD
ENDBRANCH  16  18
BRANCH  17  20
HETATM   20  O   UNL     1      -1.591  31.701  52.921  1.00  0.00    -0.357 OA
ATOM     21  HO  UNL     1      -1.324  32.548  53.260  1.00  0.00     0.217 HD
ENDBRANCH  17  20
ENDBRANCH   8  12
ENDBRANCH   1   6
BRANCH   4  22
HETATM   22  C   UNL     1      -2.121  38.349  53.982  1.00  0.00    -0.009 C 
HETATM   23  C   UNL     1      -1.867  37.517  52.729  1.00  0.00     0.005 C 
HETATM   24  C   UNL     1      -0.487  36.917  52.933  1.00  0.00     0.010 C 
HETATM   25  C   UNL     1      -0.267  36.839  54.433  1.00  0.00     0.020 C 
HETATM   26  C   UNL     1      -1.387  37.621  55.120  1.00  0.00     0.014 C 
BRANCH  25  27
HETATM   27  C   UNL     1      -0.055  35.422  54.915  1.00  0.00    -0.038 C 
HETATM   28  C   UNL     1       0.684  34.478  54.207  1.00  0.00     0.011 C 
HETATM   29  C   UNL     1       0.901  33.218  54.761  1.00  0.00     0.037 C 
HETATM   30  CA  UNL     1       0.586  33.021  56.105  1.00  0.00     0.109 C 
HETATM   31  N   UNL     1      -0.167  33.922  56.778  1.00  0.00    -0.360 N 
HETATM   32  C   UNL     1      -0.560  35.035  56.152  1.00  0.00     0.096 C 
ATOM     33  HN  UNL     1      -0.430  33.753  57.749  1.00  0.00     0.165 HD
BRANCH  30  34
HETATM   34  C   UNL     1       1.009  31.786  56.834  1.00  0.00     0.226 C 
HETATM   35  O   UNL     1       1.355  31.830  58.023  1.00  0.00    -0.643 OA
HETATM   36  OXT UNL     1       1.322  30.816  56.078  1.00  0.00    -0.643 OA
ENDBRANCH  30  34
ENDBRANCH  25  27
ENDBRANCH   4  22
TORSDOF 7
ENDMDL
MODEL 9
REMARK VINA RESULT:      -8.9      3.986      8.746
REMARK  7 active torsions:
REMARK  status: ('A' for Active; 'I' for Inactive)
REMARK    1  A    between atoms: C_2  and  C_34 
REMARK    2  A    between atoms: C_3  and  C_7 
REMARK    3  A    between atoms: C_5  and  C_30 
REMARK    4  A    between atoms: C_13  and  C_16 
REMARK    5  A    between atoms: C_17  and  CA_31 
REMARK    6  A    between atoms: O_20  and  C_26 
REMARK    7  A    between atoms: O_24  and  C_28 
ROOT
HETATM    1  C   UNL     1      -6.317  36.533  55.472  1.00  0.00     0.040 C 
HETATM    2  C   UNL     1      -7.877  38.183  56.415  1.00  0.00     0.001 C 
HETATM    3  C   UNL     1      -7.967  38.185  54.895  1.00  0.00     0.006 C 
HETATM    4  C   UNL     1      -7.457  36.809  54.492  1.00  0.00    -0.001 C 
HETATM    5  C   UNL     1      -6.848  37.121  56.782  1.00  0.00     0.011 C 
ENDROOT
BRANCH   1   6
HETATM    6  C   UNL     1      -4.952  37.081  55.166  1.00  0.00     0.014 A 
HETATM    7  N   UNL     1      -3.857  36.333  54.989  1.00  0.00    -0.358 N 
HETATM    8  C   UNL     1      -2.755  37.134  54.977  1.00  0.00     0.045 A 
ATOM      9  HN  UNL     1      -3.848  35.318  54.880  1.00  0.00     0.166 HD
HETATM   10  C   UNL     1      -3.174  38.451  55.043  1.00  0.00     0.032 A 
HETATM   11  C   UNL     1      -4.564  38.422  55.106  1.00  0.00     0.027 A 
BRANCH   8  12
HETATM   12  C   UNL     1      -1.400  36.579  55.046  1.00  0.00     0.026 C 
HETATM   13  C   UNL     1      -0.364  37.150  54.302  1.00  0.00     0.017 C 
HETATM   14  C   UNL     1       0.764  36.397  53.985  1.00  0.00     0.004 C 
HETATM   15  C   UNL     1       0.837  35.065  54.387  1.00  0.00     0.039 C 
HETATM   16  C   UNL     1      -0.044  34.598  55.357  1.00  0.00     0.099 C 
HETATM   17  C   UNL     1      -1.096  35.419  55.793  1.00  0.00     0.111 C 
BRANCH  16  18
HETATM   18  O   UNL     1       0.141  33.354  55.886  1.00  0.00    -0.358 OA
ATOM     19  HO  UNL     1       0.472  33.269  56.772  1.00  0.00     0.217 HD
ENDBRANCH  16  18
BRANCH  17  20
HETATM   20  O   UNL     1      -1.765  35.106  56.927  1.00  0.00    -0.357 OA
ATOM     21  HO  UNL     1      -2.037  35.797  57.518  1.00  0.00     0.217 HD
ENDBRANCH  17  20
ENDBRANCH   8  12
ENDBRANCH   1   6
BRANCH   4  22
HETATM   22  C   UNL     1      -7.192  36.568  53.013  1.00  0.00    -0.009 C 
HETATM   23  C   UNL     1      -8.253  35.666  52.390  1.00  0.00     0.005 C 
HETATM   24  C   UNL     1      -7.521  34.900  51.302  1.00  0.00     0.010 C 
HETATM   25  C   UNL     1      -6.062  34.847  51.717  1.00  0.00     0.020 C 
HETATM   26  C   UNL     1      -5.869  35.792  52.904  1.00  0.00     0.014 C 
BRANCH  25  27
HETATM   27  C   UNL     1      -5.563  33.433  51.907  1.00  0.00    -0.038 C 
HETATM   28  C   UNL     1      -6.289  32.310  51.517  1.00  0.00     0.011 C 
HETATM   29  C   UNL     1      -5.722  31.044  51.653  1.00  0.00     0.037 C 
HETATM   30  CA  UNL     1      -4.360  30.955  51.941  1.00  0.00     0.109 C 
HETATM   31  N   UNL     1      -3.669  32.040  52.359  1.00  0.00    -0.360 N 
HETATM   32  C   UNL     1      -4.296  33.218  52.438  1.00  0.00     0.096 C 
ATOM     33  HN  UNL     1      -2.683  31.961  52.610  1.00  0.00     0.165 HD
BRANCH  30  34
HETATM   34  C   UNL     1      -3.629  29.652  51.864  1.00  0.00     0.226 C 
HETATM   35  O   UNL     1      -2.536  29.497  52.427  1.00  0.00    -0.643 OA
HETATM   36  OXT UNL     1      -4.018  28.891  50.927  1.00  0.00    -0.643 OA
ENDBRANCH  30  34
ENDBRANCH  25  27
ENDBRANCH   4  22
TORSDOF 7
ENDMDL
