REMARK  9 active torsions:
REMARK  status: ('A' for Active; 'I' for Inactive)
REMARK    1  A    between atoms: C_7  and  C_10 
REMARK    2  A    between atoms: C_8  and  C_10 
REMARK    3  A    between atoms: C_8  and  C_18 
REMARK    4  A    between atoms: C_9  and  C_25 
REMARK    5  A    between atoms: C_13  and  C_37 
REMARK    6  A    between atoms: C_17  and  O_22 
REMARK    7  A    between atoms: C_17  and  C_25 
REMARK    8  A    between atoms: C_26  and  O_27 
REMARK    9  A    between atoms: C_35  and  C_37 
ROOT
HETATM    1  C   UNL     1       0.266  33.496  54.829  1.00  0.00     0.020 C 
HETATM    2  O   UNL     1      -1.236  32.427  53.277  1.00  0.00    -0.351 OA
HETATM    3  C   UNL     1      -2.253  33.362  53.167  1.00  0.00     0.047 C 
HETATM    4  C   UNL     1       0.098  32.982  53.414  1.00  0.00     0.218 C 
HETATM    5  C   UNL     1      -0.366  34.687  55.200  1.00  0.00     0.013 C 
HETATM    6  C   UNL     1      -2.606  34.146  54.269  1.00  0.00     0.032 C 
HETATM    7  C   UNL     1      -1.747  34.929  55.034  1.00  0.00     0.003 C 
ENDROOT
BRANCH   1   8
HETATM    8  C   UNL     1       1.106  32.763  55.828  1.00  0.00     0.232 C 
HETATM    9  O   UNL     1       1.292  33.264  56.905  1.00  0.00    -0.283 OA
BRANCH   8  10
HETATM   10  C   UNL     1       1.799  31.416  55.549  1.00  0.00     0.253 C 
HETATM   11  O   UNL     1       1.372  30.366  56.002  1.00  0.00    -0.281 OA
BRANCH  10  12
HETATM   12  C   UNL     1       3.158  31.452  54.887  1.00  0.00     0.137 C 
HETATM   13  N   UNL     1       3.606  32.444  54.127  1.00  0.00    -0.294 N 
HETATM   14  N   UNL     1       4.951  32.609  54.416  1.00  0.00    -0.301 N 
ATOM     15  HN  UNL     1       3.061  32.984  53.455  1.00  0.00     0.187 HD
HETATM   16  C   UNL     1       5.208  31.936  55.544  1.00  0.00     0.063 C 
ATOM     17  HN  UNL     1       5.623  33.146  53.868  1.00  0.00     0.186 HD
HETATM   18  C   UNL     1       4.265  30.949  55.605  1.00  0.00     0.122 C 
BRANCH  16  19
HETATM   19  C   UNL     1       6.047  32.448  56.668  1.00  0.00     0.087 C 
BRANCH  19  20
HETATM   20  C   UNL     1       7.524  32.526  56.334  1.00  0.00     0.170 C 
BRANCH  20  21
HETATM   21  O   UNL     1       7.838  31.675  55.229  1.00  0.00    -0.400 OA
ATOM     22  HO  UNL     1       8.763  31.724  55.020  1.00  0.00     0.209 HD
ENDBRANCH  20  21
ENDBRANCH  19  20
ENDBRANCH  16  19
BRANCH  18  23
HETATM   23  O   UNL     1       4.366  29.727  56.176  1.00  0.00    -0.356 OA
ATOM     24  HO  UNL     1       3.710  29.041  56.218  1.00  0.00     0.218 HD
ENDBRANCH  18  23
ENDBRANCH  10  12
ENDBRANCH   8  10
ENDBRANCH   1   8
BRANCH   3  25
HETATM   25  C   UNL     1      -3.099  33.264  51.942  1.00  0.00     0.070 C 
BRANCH  25  26
HETATM   26  C   UNL     1      -4.097  32.092  51.968  1.00  0.00     0.002 C 
HETATM   27  C   UNL     1      -5.230  32.707  51.155  1.00  0.00     0.032 C 
HETATM   28  C   UNL     1      -6.270  31.615  51.075  1.00  0.00     0.171 C 
HETATM   29  O   UNL     1      -5.663  30.651  50.184  1.00  0.00    -0.360 OA
HETATM   30  C   UNL     1      -4.680  29.923  50.931  1.00  0.00     0.271 C 
HETATM   31  O   UNL     1      -4.160  28.959  50.005  1.00  0.00    -0.308 OA
HETATM   32  C   UNL     1      -3.524  30.913  51.180  1.00  0.00     0.046 C 
HETATM   33  C   UNL     1      -2.981  28.327  50.276  1.00  0.00     0.114 C 
HETATM   34  C   UNL     1      -1.917  29.072  51.043  1.00  0.00     0.084 C 
HETATM   35  N   UNL     1      -2.811  27.066  49.972  1.00  0.00    -0.383 N 
HETATM   36  C   UNL     1      -2.549  30.074  52.031  1.00  0.00     0.018 C 
ATOM     37  HN2 UNL     1      -1.930  26.594  50.175  1.00  0.00     0.157 HD
ATOM     38  HN1 UNL     1      -3.530  26.562  49.453  1.00  0.00     0.157 HD
ENDBRANCH  25  26
ENDBRANCH   3  25
TORSDOF 9
