REMARK  8 active torsions:
REMARK  status: ('A' for Active; 'I' for Inactive)
REMARK    1  A    between atoms: C_4  and  C_30 
REMARK    2  A    between atoms: C_4  and  C_33 
REMARK    3  A    between atoms: C_5  and  O_10 
REMARK    4  A    between atoms: C_5  and  N_22 
REMARK    5  A    between atoms: C_5  and  O_24 
REMARK    6  A    between atoms: C_5  and  O_34 
REMARK    7  A    between atoms: C_6  and  C_33 
REMARK    8  A    between atoms: C_12  and  C_26 
ROOT
HETATM    1  C   UNL     1       0.065  32.294  54.786  1.00  0.00     0.000 C 
HETATM    2  O   UNL     1       5.022  29.552  54.959  1.00  0.00    -0.246 OA
HETATM    3  C   UNL     1      -1.941  34.022  55.088  1.00  0.00     0.005 C 
HETATM    4  C   UNL     1       2.925  31.944  57.088  1.00  0.00    -0.019 C 
HETATM    5  C   UNL     1       1.885  32.441  58.034  1.00  0.00     0.047 C 
HETATM    6  C   UNL     1      -2.176  32.145  53.507  1.00  0.00     0.019 C 
HETATM    7  C   UNL     1       4.415  30.517  55.390  1.00  0.00     0.332 C 
HETATM    8  N   UNL     1       3.122  30.772  55.034  1.00  0.00    -0.311 N 
ATOM      9  HN  UNL     1       2.769  30.509  54.114  1.00  0.00     0.170 HD
HETATM   10  C   UNL     1      -2.932  33.010  54.520  1.00  0.00     0.010 C 
HETATM   11  C   UNL     1      -1.046  31.358  54.227  1.00  0.00     0.015 C 
HETATM   12  C   UNL     1       0.799  32.634  57.062  1.00  0.00     0.000 C 
HETATM   13  C   UNL     1      -0.003  33.816  56.810  1.00  0.00     0.010 C 
HETATM   14  C   UNL     1      -0.696  33.341  55.555  1.00  0.00    -0.009 C 
HETATM   15  N   UNL     1       5.039  31.465  56.206  1.00  0.00    -0.227 N 
HETATM   16  C   UNL     1       4.301  32.084  57.172  1.00  0.00     0.112 C 
HETATM   17  C   UNL     1       2.329  31.378  55.929  1.00  0.00     0.026 C 
HETATM   18  C   UNL     1       0.849  31.634  55.957  1.00  0.00     0.045 C 
ENDROOT
BRANCH   6  19
HETATM   19  C   UNL     1      -3.287  31.281  52.955  1.00  0.00    -0.053 C 
HETATM   20  C   UNL     1      -3.085  29.925  52.685  1.00  0.00     0.014 C 
HETATM   21  C   UNL     1      -3.377  29.565  51.362  1.00  0.00    -0.057 C 
HETATM   22  C   UNL     1      -4.548  30.060  50.797  1.00  0.00     0.007 C 
HETATM   23  C   UNL     1      -5.072  31.256  51.304  1.00  0.00     0.001 C 
HETATM   24  C   UNL     1      -4.437  31.871  52.389  1.00  0.00     0.007 C 
BRANCH  21  25
HETATM   25  C   UNL     1      -2.359  28.802  50.576  1.00  0.00     0.049 C 
BRANCH  25  26
HETATM   26  C   UNL     1      -1.959  27.532  51.306  1.00  0.00     0.117 C 
BRANCH  26  27
HETATM   27  C   UNL     1      -2.843  26.347  50.901  1.00  0.00     0.172 C 
HETATM   28  O   UNL     1      -2.810  25.372  51.668  1.00  0.00    -0.648 OA
HETATM   29  O   UNL     1      -3.502  26.467  49.856  1.00  0.00    -0.648 OA
ENDBRANCH  26  27
ENDBRANCH  25  26
ENDBRANCH  21  25
ENDBRANCH   6  19
BRANCH  15  30
HETATM   30  C   UNL     1       6.494  31.636  56.109  1.00  0.00     0.381 C 
BRANCH  30  31
HETATM   31  O   UNL     1       7.069  30.457  56.522  1.00  0.00    -0.325 OA
ATOM     32  HO  UNL     1       8.010  30.568  56.459  1.00  0.00     0.217 HD
ENDBRANCH  30  31
BRANCH  30  33
HETATM   33  O   UNL     1       6.847  31.945  54.831  1.00  0.00    -0.325 OA
ATOM     34  HO  UNL     1       6.450  32.759  54.546  1.00  0.00     0.217 HD
ENDBRANCH  30  33
BRANCH  30  35
HETATM   35  O   UNL     1       6.876  32.664  56.958  1.00  0.00    -0.325 OA
ATOM     36  HO  UNL     1       6.479  33.478  56.673  1.00  0.00     0.217 HD
ENDBRANCH  30  35
ENDBRANCH  15  30
TORSDOF 8
