MODEL 1
REMARK VINA RESULT:      -7.6      0.000      0.000
REMARK  6 active torsions:
REMARK  status: ('A' for Active; 'I' for Inactive)
REMARK    1  A    between atoms: C_1  and  C_18 
REMARK    2  A    between atoms: C_2  and  O_5 
REMARK    3  A    between atoms: C_2  and  N_30 
REMARK    4  A    between atoms: C_4  and  C_10 
REMARK    5  A    between atoms: C_4  and  C_29 
REMARK    6  A    between atoms: C_16  and  O_22 
ROOT
HETATM    1  C   UNL     1     -10.628  21.683  11.755  1.00  0.00     0.091 C 
HETATM    2  C   UNL     1      -9.368  21.278  10.937  1.00  0.00     0.259 C 
HETATM    3  C   UNL     1     -11.803  21.498  10.785  1.00  0.00     0.054 C 
HETATM    4  C   UNL     1     -12.052  17.692   5.416  1.00  0.00    -0.014 C 
HETATM    5  C   UNL     1     -10.830  18.541   7.334  1.00  0.00    -0.025 C 
HETATM    6  C   UNL     1     -11.244  20.678   9.648  1.00  0.00    -0.045 C 
HETATM    7  C   UNL     1     -12.323  20.015   6.101  1.00  0.00     0.049 C 
HETATM    8  C   UNL     1     -12.589  18.982   5.202  1.00  0.00     0.073 C 
HETATM    9  C   UNL     1      -9.346  19.212   9.331  1.00  0.00     0.013 C 
HETATM   10  C   UNL     1     -11.871  20.499   8.428  1.00  0.00     0.020 C 
HETATM   11  C   UNL     1     -11.651  19.701   7.298  1.00  0.00    -0.023 C 
HETATM   12  C   UNL     1     -11.079  17.507   6.403  1.00  0.00     0.022 C 
HETATM   13  C   UNL     1      -9.800  18.441   8.282  1.00  0.00     0.013 C 
HETATM   14  C   UNL     1      -9.908  20.337   9.890  1.00  0.00     0.011 C 
ENDROOT
BRANCH   1  15
HETATM   15  C   UNL     1     -10.900  20.899  13.028  1.00  0.00    -0.049 C 
HETATM   16  C   UNL     1     -10.993  19.510  12.964  1.00  0.00     0.007 C 
HETATM   17  C   UNL     1     -12.094  18.745  13.305  1.00  0.00     0.001 C 
HETATM   18  C   UNL     1     -13.124  19.134  14.152  1.00  0.00     0.000 C 
HETATM   19  C   UNL     1     -13.021  20.202  15.021  1.00  0.00     0.000 C 
HETATM   20  C   UNL     1     -11.999  21.092  15.183  1.00  0.00     0.001 C 
HETATM   21  C   UNL     1     -11.035  21.508  14.269  1.00  0.00     0.007 C 
ENDBRANCH   1  15
BRANCH   2  22
HETATM   22  O   UNL     1      -8.317  20.774  11.665  1.00  0.00    -0.361 OA
ATOM     23  HO  UNL     1      -7.449  20.960  11.326  1.00  0.00     0.213 HD
ENDBRANCH   2  22
BRANCH   2  24
HETATM   24  N   UNL     1      -8.813  22.471  10.327  1.00  0.00    -0.042 N 
ATOM     25  HN3 UNL     1      -8.982  22.511   9.321  1.00  0.00     0.278 HD
ATOM     26  HN2 UNL     1      -9.320  23.317  10.587  1.00  0.00     0.278 HD
ATOM     27  HN1 UNL     1      -7.821  22.522  10.560  1.00  0.00     0.278 HD
ENDBRANCH   2  24
BRANCH   8  28
HETATM   28  O   UNL     1     -13.454  19.154   4.154  1.00  0.00    -0.360 OA
ATOM     29  HO  UNL     1     -13.721  20.039   3.937  1.00  0.00     0.217 HD
ENDBRANCH   8  28
BRANCH   4  30
HETATM   30  C   UNL     1     -12.689  16.576   4.623  1.00  0.00     0.154 C 
BRANCH  30  31
HETATM   31  C   UNL     1     -14.000  15.948   5.074  1.00  0.00     0.177 C 
HETATM   32  O   UNL     1     -13.973  14.767   5.510  1.00  0.00    -0.648 OA
HETATM   33  O   UNL     1     -15.034  16.618   4.911  1.00  0.00    -0.648 OA
ENDBRANCH  30  31
ENDBRANCH   4  30
TORSDOF 6
ENDMDL
MODEL 2
REMARK VINA RESULT:      -7.0      0.804      1.495
REMARK  6 active torsions:
REMARK  status: ('A' for Active; 'I' for Inactive)
REMARK    1  A    between atoms: C_1  and  C_18 
REMARK    2  A    between atoms: C_2  and  O_5 
REMARK    3  A    between atoms: C_2  and  N_30 
REMARK    4  A    between atoms: C_4  and  C_10 
REMARK    5  A    between atoms: C_4  and  C_29 
REMARK    6  A    between atoms: C_16  and  O_22 
ROOT
HETATM    1  C   UNL     1     -10.860  21.581  12.006  1.00  0.00     0.091 C 
HETATM    2  C   UNL     1      -9.570  21.087  11.290  1.00  0.00     0.259 C 
HETATM    3  C   UNL     1     -11.957  21.513  10.936  1.00  0.00     0.054 C 
HETATM    4  C   UNL     1     -12.046  17.839   5.470  1.00  0.00    -0.014 C 
HETATM    5  C   UNL     1     -10.931  18.548   7.506  1.00  0.00    -0.025 C 
HETATM    6  C   UNL     1     -11.369  20.670   9.830  1.00  0.00    -0.045 C 
HETATM    7  C   UNL     1     -12.186  20.163   6.188  1.00  0.00     0.049 C 
HETATM    8  C   UNL     1     -12.456  19.173   5.244  1.00  0.00     0.073 C 
HETATM    9  C   UNL     1      -9.578  19.056   9.638  1.00  0.00     0.013 C 
HETATM   10  C   UNL     1     -11.901  20.565   8.556  1.00  0.00     0.020 C 
HETATM   11  C   UNL     1     -11.648  19.773   7.430  1.00  0.00    -0.023 C 
HETATM   12  C   UNL     1     -11.182  17.555   6.531  1.00  0.00     0.022 C 
HETATM   13  C   UNL     1     -10.000  18.345   8.535  1.00  0.00     0.013 C 
HETATM   14  C   UNL     1     -10.092  20.213  10.176  1.00  0.00     0.011 C 
ENDROOT
BRANCH   1  15
HETATM   15  C   UNL     1     -11.305  20.800  13.231  1.00  0.00    -0.049 C 
HETATM   16  C   UNL     1     -10.917  21.239  14.496  1.00  0.00     0.007 C 
HETATM   17  C   UNL     1     -10.155  20.533  15.410  1.00  0.00     0.001 C 
HETATM   18  C   UNL     1      -9.999  19.154  15.447  1.00  0.00     0.000 C 
HETATM   19  C   UNL     1     -10.841  18.283  14.783  1.00  0.00     0.000 C 
HETATM   20  C   UNL     1     -11.885  18.555  13.949  1.00  0.00     0.001 C 
HETATM   21  C   UNL     1     -12.112  19.672  13.149  1.00  0.00     0.007 C 
ENDBRANCH   1  15
BRANCH   2  22
HETATM   22  O   UNL     1      -8.631  20.484  12.091  1.00  0.00    -0.361 OA
ATOM     23  HO  UNL     1      -7.785  20.913  12.135  1.00  0.00     0.213 HD
ENDBRANCH   2  22
BRANCH   2  24
HETATM   24  N   UNL     1      -8.868  22.240  10.759  1.00  0.00    -0.042 N 
ATOM     25  HN3 UNL     1      -8.047  21.981  10.212  1.00  0.00     0.278 HD
ATOM     26  HN2 UNL     1      -9.389  22.708  10.016  1.00  0.00     0.278 HD
ATOM     27  HN1 UNL     1      -8.643  22.866  11.532  1.00  0.00     0.278 HD
ENDBRANCH   2  24
BRANCH   8  28
HETATM   28  O   UNL     1     -13.209  19.435   4.131  1.00  0.00    -0.360 OA
ATOM     29  HO  UNL     1     -12.930  20.141   3.559  1.00  0.00     0.217 HD
ENDBRANCH   8  28
BRANCH   4  30
HETATM   30  C   UNL     1     -12.701  16.795   4.597  1.00  0.00     0.154 C 
BRANCH  30  31
HETATM   31  C   UNL     1     -14.038  16.179   4.986  1.00  0.00     0.177 C 
HETATM   32  O   UNL     1     -15.065  16.905   4.928  1.00  0.00    -0.648 OA
HETATM   33  O   UNL     1     -14.021  15.012   5.413  1.00  0.00    -0.648 OA
ENDBRANCH  30  31
ENDBRANCH   4  30
TORSDOF 6
ENDMDL
MODEL 3
REMARK VINA RESULT:      -6.9      4.151      6.151
REMARK  6 active torsions:
REMARK  status: ('A' for Active; 'I' for Inactive)
REMARK    1  A    between atoms: C_1  and  C_18 
REMARK    2  A    between atoms: C_2  and  O_5 
REMARK    3  A    between atoms: C_2  and  N_30 
REMARK    4  A    between atoms: C_4  and  C_10 
REMARK    5  A    between atoms: C_4  and  C_29 
REMARK    6  A    between atoms: C_16  and  O_22 
ROOT
HETATM    1  C   UNL     1      -8.267  23.612   6.496  1.00  0.00     0.091 C 
HETATM    2  C   UNL     1      -9.152  23.199   7.708  1.00  0.00     0.259 C 
HETATM    3  C   UNL     1      -8.314  22.410   5.545  1.00  0.00     0.054 C 
HETATM    4  C   UNL     1     -12.892  17.685   5.225  1.00  0.00    -0.014 C 
HETATM    5  C   UNL     1     -12.045  19.725   6.233  1.00  0.00    -0.025 C 
HETATM    6  C   UNL     1      -9.463  21.566   6.041  1.00  0.00    -0.045 C 
HETATM    7  C   UNL     1     -10.495  17.976   5.553  1.00  0.00     0.049 C 
HETATM    8  C   UNL     1     -11.573  17.179   5.168  1.00  0.00     0.073 C 
HETATM    9  C   UNL     1     -11.421  21.928   7.413  1.00  0.00     0.013 C 
HETATM   10  C   UNL     1      -9.703  20.260   5.650  1.00  0.00     0.020 C 
HETATM   11  C   UNL     1     -10.737  19.334   5.837  1.00  0.00    -0.023 C 
HETATM   12  C   UNL     1     -13.136  18.901   5.870  1.00  0.00     0.022 C 
HETATM   13  C   UNL     1     -12.232  20.906   6.966  1.00  0.00     0.013 C 
HETATM   14  C   UNL     1     -10.099  22.178   7.127  1.00  0.00     0.011 C 
ENDROOT
BRANCH   1  15
HETATM   15  C   UNL     1      -8.681  24.865   5.742  1.00  0.00    -0.049 C 
HETATM   16  C   UNL     1      -8.012  26.062   5.993  1.00  0.00     0.007 C 
HETATM   17  C   UNL     1      -8.574  27.230   6.476  1.00  0.00     0.001 C 
HETATM   18  C   UNL     1      -9.916  27.580   6.395  1.00  0.00     0.000 C 
HETATM   19  C   UNL     1     -10.805  26.963   5.538  1.00  0.00     0.000 C 
HETATM   20  C   UNL     1     -10.606  25.908   4.696  1.00  0.00     0.001 C 
HETATM   21  C   UNL     1      -9.686  24.866   4.784  1.00  0.00     0.007 C 
ENDBRANCH   1  15
BRANCH   2  22
HETATM   22  O   UNL     1      -9.768  24.227   8.379  1.00  0.00    -0.361 OA
ATOM     23  HO  UNL     1      -9.278  24.606   9.099  1.00  0.00     0.213 HD
ENDBRANCH   2  22
BRANCH   2  24
HETATM   24  N   UNL     1      -8.299  22.600   8.717  1.00  0.00    -0.042 N 
ATOM     25  HN3 UNL     1      -8.036  21.641   8.488  1.00  0.00     0.278 HD
ATOM     26  HN2 UNL     1      -7.362  23.004   8.728  1.00  0.00     0.278 HD
ATOM     27  HN1 UNL     1      -8.767  22.673   9.620  1.00  0.00     0.278 HD
ENDBRANCH   2  24
BRANCH   8  28
HETATM   28  O   UNL     1     -11.384  15.934   4.632  1.00  0.00    -0.360 OA
ATOM     29  HO  UNL     1     -10.984  15.269   5.179  1.00  0.00     0.217 HD
ENDBRANCH   8  28
BRANCH   4  30
HETATM   30  C   UNL     1     -13.927  16.907   4.448  1.00  0.00     0.154 C 
BRANCH  30  31
HETATM   31  C   UNL     1     -14.691  15.761   5.097  1.00  0.00     0.177 C 
HETATM   32  O   UNL     1     -14.035  14.763   5.498  1.00  0.00    -0.648 OA
HETATM   33  O   UNL     1     -15.930  15.848   5.122  1.00  0.00    -0.648 OA
ENDBRANCH  30  31
ENDBRANCH   4  30
TORSDOF 6
ENDMDL
MODEL 4
REMARK VINA RESULT:      -6.9      5.103      6.914
REMARK  6 active torsions:
REMARK  status: ('A' for Active; 'I' for Inactive)
REMARK    1  A    between atoms: C_1  and  C_18 
REMARK    2  A    between atoms: C_2  and  O_5 
REMARK    3  A    between atoms: C_2  and  N_30 
REMARK    4  A    between atoms: C_4  and  C_10 
REMARK    5  A    between atoms: C_4  and  C_29 
REMARK    6  A    between atoms: C_16  and  O_22 
ROOT
HETATM    1  C   UNL     1      -8.280  25.731   6.678  1.00  0.00     0.091 C 
HETATM    2  C   UNL     1      -8.525  25.000   8.030  1.00  0.00     0.259 C 
HETATM    3  C   UNL     1      -8.460  24.648   5.606  1.00  0.00     0.054 C 
HETATM    4  C   UNL     1     -11.793  18.989   6.097  1.00  0.00    -0.014 C 
HETATM    5  C   UNL     1     -11.033  21.071   7.086  1.00  0.00    -0.025 C 
HETATM    6  C   UNL     1      -9.138  23.504   6.319  1.00  0.00    -0.045 C 
HETATM    7  C   UNL     1      -9.564  19.832   5.593  1.00  0.00     0.049 C 
HETATM    8  C   UNL     1     -10.530  18.833   5.482  1.00  0.00     0.073 C 
HETATM    9  C   UNL     1     -10.437  23.240   8.342  1.00  0.00     0.013 C 
HETATM   10  C   UNL     1      -9.254  22.222   5.811  1.00  0.00     0.020 C 
HETATM   11  C   UNL     1      -9.933  21.056   6.185  1.00  0.00    -0.023 C 
HETATM   12  C   UNL     1     -11.997  20.041   6.995  1.00  0.00     0.022 C 
HETATM   13  C   UNL     1     -11.143  22.096   8.038  1.00  0.00     0.013 C 
HETATM   14  C   UNL     1      -9.406  23.836   7.652  1.00  0.00     0.011 C 
ENDROOT
BRANCH   1  15
HETATM   15  C   UNL     1      -9.188  26.907   6.361  1.00  0.00    -0.049 C 
HETATM   16  C   UNL     1     -10.411  26.673   5.733  1.00  0.00     0.007 C 
HETATM   17  C   UNL     1     -10.809  27.167   4.504  1.00  0.00     0.001 C 
HETATM   18  C   UNL     1     -10.293  28.291   3.873  1.00  0.00     0.000 C 
HETATM   19  C   UNL     1      -9.548  29.249   4.533  1.00  0.00     0.000 C 
HETATM   20  C   UNL     1      -9.121  29.274   5.829  1.00  0.00     0.001 C 
HETATM   21  C   UNL     1      -8.865  28.216   6.696  1.00  0.00     0.007 C 
ENDBRANCH   1  15
BRANCH   2  22
HETATM   22  O   UNL     1      -9.017  25.776   9.051  1.00  0.00    -0.361 OA
ATOM     23  HO  UNL     1      -9.564  26.507   8.791  1.00  0.00     0.213 HD
ENDBRANCH   2  22
BRANCH   2  24
HETATM   24  N   UNL     1      -7.248  24.539   8.541  1.00  0.00    -0.042 N 
ATOM     25  HN3 UNL     1      -7.328  24.111   9.463  1.00  0.00     0.278 HD
ATOM     26  HN2 UNL     1      -6.895  23.725   8.038  1.00  0.00     0.278 HD
ATOM     27  HN1 UNL     1      -6.593  25.321   8.527  1.00  0.00     0.278 HD
ENDBRANCH   2  24
BRANCH   8  28
HETATM   28  O   UNL     1     -10.328  17.729   4.698  1.00  0.00    -0.360 OA
ATOM     29  HO  UNL     1     -11.079  17.354   4.254  1.00  0.00     0.217 HD
ENDBRANCH   8  28
BRANCH   4  30
HETATM   30  C   UNL     1     -12.878  18.055   5.615  1.00  0.00     0.154 C 
BRANCH  30  31
HETATM   31  C   UNL     1     -13.687  18.376   4.366  1.00  0.00     0.177 C 
HETATM   32  O   UNL     1     -14.135  17.416   3.686  1.00  0.00    -0.648 OA
HETATM   33  O   UNL     1     -13.792  19.574   4.053  1.00  0.00    -0.648 OA
ENDBRANCH  30  31
ENDBRANCH   4  30
TORSDOF 6
ENDMDL
MODEL 5
REMARK VINA RESULT:      -6.8      4.647      7.881
REMARK  6 active torsions:
REMARK  status: ('A' for Active; 'I' for Inactive)
REMARK    1  A    between atoms: C_1  and  C_18 
REMARK    2  A    between atoms: C_2  and  O_5 
REMARK    3  A    between atoms: C_2  and  N_30 
REMARK    4  A    between atoms: C_4  and  C_10 
REMARK    5  A    between atoms: C_4  and  C_29 
REMARK    6  A    between atoms: C_16  and  O_22 
ROOT
HETATM    1  C   UNL     1     -11.412  18.693   7.425  1.00  0.00     0.091 C 
HETATM    2  C   UNL     1      -9.873  18.920   7.476  1.00  0.00     0.259 C 
HETATM    3  C   UNL     1     -12.023  20.091   7.579  1.00  0.00     0.054 C 
HETATM    4  C   UNL     1      -9.190  25.901   6.313  1.00  0.00    -0.014 C 
HETATM    5  C   UNL     1      -9.075  23.477   6.375  1.00  0.00    -0.025 C 
HETATM    6  C   UNL     1     -10.878  21.045   7.338  1.00  0.00    -0.045 C 
HETATM    7  C   UNL     1     -10.266  24.678   8.124  1.00  0.00     0.049 C 
HETATM    8  C   UNL     1      -9.895  25.887   7.538  1.00  0.00     0.073 C 
HETATM    9  C   UNL     1      -8.715  20.929   6.260  1.00  0.00     0.013 C 
HETATM   10  C   UNL     1     -10.906  22.396   7.636  1.00  0.00     0.020 C 
HETATM   11  C   UNL     1     -10.069  23.491   7.390  1.00  0.00    -0.023 C 
HETATM   12  C   UNL     1      -8.675  24.706   5.802  1.00  0.00     0.022 C 
HETATM   13  C   UNL     1      -8.514  22.259   5.961  1.00  0.00     0.013 C 
HETATM   14  C   UNL     1      -9.707  20.347   7.016  1.00  0.00     0.011 C 
ENDROOT
BRANCH   1  15
HETATM   15  C   UNL     1     -11.967  18.038   6.171  1.00  0.00    -0.049 C 
HETATM   16  C   UNL     1     -12.721  18.802   5.282  1.00  0.00     0.007 C 
HETATM   17  C   UNL     1     -14.037  18.576   4.920  1.00  0.00     0.001 C 
HETATM   18  C   UNL     1     -14.709  17.364   5.009  1.00  0.00     0.000 C 
HETATM   19  C   UNL     1     -14.061  16.154   5.162  1.00  0.00     0.000 C 
HETATM   20  C   UNL     1     -12.731  15.898   5.321  1.00  0.00     0.001 C 
HETATM   21  C   UNL     1     -11.731  16.707   5.853  1.00  0.00     0.007 C 
ENDBRANCH   1  15
BRANCH   2  22
HETATM   22  O   UNL     1      -9.109  18.010   6.786  1.00  0.00    -0.361 OA
ATOM     23  HO  UNL     1      -9.328  17.096   6.923  1.00  0.00     0.213 HD
ENDBRANCH   2  22
BRANCH   2  24
HETATM   24  N   UNL     1      -9.430  18.762   8.848  1.00  0.00    -0.042 N 
ATOM     25  HN3 UNL     1      -8.940  19.586   9.198  1.00  0.00     0.278 HD
ATOM     26  HN2 UNL     1     -10.204  18.766   9.512  1.00  0.00     0.278 HD
ATOM     27  HN1 UNL     1      -8.865  17.915   8.909  1.00  0.00     0.278 HD
ENDBRANCH   2  24
BRANCH   8  28
HETATM   28  O   UNL     1     -10.287  27.087   8.069  1.00  0.00    -0.360 OA
ATOM     29  HO  UNL     1      -9.794  27.863   7.829  1.00  0.00     0.217 HD
ENDBRANCH   8  28
BRANCH   4  30
HETATM   30  C   UNL     1      -9.168  27.223   5.583  1.00  0.00     0.154 C 
BRANCH  30  31
HETATM   31  C   UNL     1     -10.303  27.616   4.646  1.00  0.00     0.177 C 
HETATM   32  O   UNL     1     -10.037  27.769   3.425  1.00  0.00    -0.648 OA
HETATM   33  O   UNL     1     -11.412  27.837   5.162  1.00  0.00    -0.648 OA
ENDBRANCH  30  31
ENDBRANCH   4  30
TORSDOF 6
ENDMDL
MODEL 6
REMARK VINA RESULT:      -6.8      2.179      2.431
REMARK  6 active torsions:
REMARK  status: ('A' for Active; 'I' for Inactive)
REMARK    1  A    between atoms: C_1  and  C_18 
REMARK    2  A    between atoms: C_2  and  O_5 
REMARK    3  A    between atoms: C_2  and  N_30 
REMARK    4  A    between atoms: C_4  and  C_10 
REMARK    5  A    between atoms: C_4  and  C_29 
REMARK    6  A    between atoms: C_16  and  O_22 
ROOT
HETATM    1  C   UNL     1      -9.007  19.277  11.673  1.00  0.00     0.091 C 
HETATM    2  C   UNL     1      -8.107  19.284  10.403  1.00  0.00     0.259 C 
HETATM    3  C   UNL     1     -10.439  19.422  11.143  1.00  0.00     0.054 C 
HETATM    4  C   UNL     1     -12.685  17.979   5.122  1.00  0.00    -0.014 C 
HETATM    5  C   UNL     1     -10.854  18.081   6.712  1.00  0.00    -0.025 C 
HETATM    6  C   UNL     1     -10.338  19.134   9.665  1.00  0.00    -0.045 C 
HETATM    7  C   UNL     1     -12.537  19.839   6.689  1.00  0.00     0.049 C 
HETATM    8  C   UNL     1     -13.157  19.221   5.603  1.00  0.00     0.073 C 
HETATM    9  C   UNL     1      -8.764  18.003   8.217  1.00  0.00     0.013 C 
HETATM   10  C   UNL     1     -11.332  19.408   8.743  1.00  0.00     0.020 C 
HETATM   11  C   UNL     1     -11.547  19.121   7.389  1.00  0.00    -0.023 C 
HETATM   12  C   UNL     1     -11.468  17.476   5.592  1.00  0.00     0.022 C 
HETATM   13  C   UNL     1      -9.588  17.675   7.161  1.00  0.00     0.013 C 
HETATM   14  C   UNL     1      -9.026  18.794   9.312  1.00  0.00     0.011 C 
ENDROOT
BRANCH   1  15
HETATM   15  C   UNL     1      -8.923  18.049  12.565  1.00  0.00    -0.049 C 
HETATM   16  C   UNL     1      -9.436  16.838  12.104  1.00  0.00     0.007 C 
HETATM   17  C   UNL     1     -10.456  16.105  12.686  1.00  0.00     0.001 C 
HETATM   18  C   UNL     1     -10.859  16.183  14.012  1.00  0.00     0.000 C 
HETATM   19  C   UNL     1     -10.085  16.758  15.002  1.00  0.00     0.000 C 
HETATM   20  C   UNL     1      -8.882  17.394  14.901  1.00  0.00     0.001 C 
HETATM   21  C   UNL     1      -8.328  18.073  13.820  1.00  0.00     0.007 C 
ENDBRANCH   1  15
BRANCH   2  22
HETATM   22  O   UNL     1      -6.925  18.592  10.502  1.00  0.00    -0.361 OA
ATOM     23  HO  UNL     1      -6.386  18.796  11.257  1.00  0.00     0.213 HD
ENDBRANCH   2  22
BRANCH   2  24
HETATM   24  N   UNL     1      -7.681  20.647  10.150  1.00  0.00    -0.042 N 
ATOM     25  HN3 UNL     1      -6.997  20.976  10.832  1.00  0.00     0.278 HD
ATOM     26  HN2 UNL     1      -7.097  20.726   9.317  1.00  0.00     0.278 HD
ATOM     27  HN1 UNL     1      -8.508  21.242  10.105  1.00  0.00     0.278 HD
ENDBRANCH   2  24
BRANCH   8  28
HETATM   28  O   UNL     1     -14.292  19.740   5.041  1.00  0.00    -0.360 OA
ATOM     29  HO  UNL     1     -14.698  20.487   5.464  1.00  0.00     0.217 HD
ENDBRANCH   8  28
BRANCH   4  30
HETATM   30  C   UNL     1     -13.629  17.224   4.216  1.00  0.00     0.154 C 
BRANCH  30  31
HETATM   31  C   UNL     1     -14.759  16.382   4.793  1.00  0.00     0.177 C 
HETATM   32  O   UNL     1     -14.626  15.130   4.791  1.00  0.00    -0.648 OA
HETATM   33  O   UNL     1     -15.782  16.984   5.162  1.00  0.00    -0.648 OA
ENDBRANCH  30  31
ENDBRANCH   4  30
TORSDOF 6
ENDMDL
MODEL 7
REMARK VINA RESULT:      -6.6      6.795      8.993
REMARK  6 active torsions:
REMARK  status: ('A' for Active; 'I' for Inactive)
REMARK    1  A    between atoms: C_1  and  C_18 
REMARK    2  A    between atoms: C_2  and  O_5 
REMARK    3  A    between atoms: C_2  and  N_30 
REMARK    4  A    between atoms: C_4  and  C_10 
REMARK    5  A    between atoms: C_4  and  C_29 
REMARK    6  A    between atoms: C_16  and  O_22 
ROOT
HETATM    1  C   UNL     1      -8.972  27.786   5.347  1.00  0.00     0.091 C 
HETATM    2  C   UNL     1     -10.229  27.343   4.544  1.00  0.00     0.259 C 
HETATM    3  C   UNL     1      -8.714  26.644   6.339  1.00  0.00     0.054 C 
HETATM    4  C   UNL     1     -10.679  20.374   5.883  1.00  0.00    -0.014 C 
HETATM    5  C   UNL     1     -10.588  22.619   4.964  1.00  0.00    -0.025 C 
HETATM    6  C   UNL     1      -9.549  25.493   5.832  1.00  0.00    -0.045 C 
HETATM    7  C   UNL     1     -10.838  22.302   7.364  1.00  0.00     0.049 C 
HETATM    8  C   UNL     1     -10.878  20.922   7.171  1.00  0.00     0.073 C 
HETATM    9  C   UNL     1     -10.570  24.879   3.727  1.00  0.00     0.013 C 
HETATM   10  C   UNL     1      -9.832  24.350   6.559  1.00  0.00     0.020 C 
HETATM   11  C   UNL     1     -10.435  23.116   6.287  1.00  0.00    -0.023 C 
HETATM   12  C   UNL     1     -10.660  21.221   4.771  1.00  0.00     0.022 C 
HETATM   13  C   UNL     1     -10.664  23.513   3.885  1.00  0.00     0.013 C 
HETATM   14  C   UNL     1     -10.205  25.838   4.644  1.00  0.00     0.011 C 
ENDROOT
BRANCH   1  15
HETATM   15  C   UNL     1      -7.707  28.052   4.547  1.00  0.00    -0.049 C 
HETATM   16  C   UNL     1      -7.595  29.240   3.828  1.00  0.00     0.007 C 
HETATM   17  C   UNL     1      -7.431  29.358   2.459  1.00  0.00     0.001 C 
HETATM   18  C   UNL     1      -6.927  28.379   1.613  1.00  0.00     0.000 C 
HETATM   19  C   UNL     1      -6.219  27.283   2.067  1.00  0.00     0.000 C 
HETATM   20  C   UNL     1      -5.939  26.903   3.347  1.00  0.00     0.001 C 
HETATM   21  C   UNL     1      -6.637  27.168   4.522  1.00  0.00     0.007 C 
ENDBRANCH   1  15
BRANCH   2  22
HETATM   22  O   UNL     1     -10.323  27.824   3.261  1.00  0.00    -0.361 OA
ATOM     23  HO  UNL     1     -10.483  27.176   2.585  1.00  0.00     0.213 HD
ENDBRANCH   2  22
BRANCH   2  24
HETATM   24  N   UNL     1     -11.406  27.887   5.195  1.00  0.00    -0.042 N 
ATOM     25  HN3 UNL     1     -11.438  28.906   5.156  1.00  0.00     0.278 HD
ATOM     26  HN2 UNL     1     -12.263  27.700   4.674  1.00  0.00     0.278 HD
ATOM     27  HN1 UNL     1     -11.442  27.530   6.149  1.00  0.00     0.278 HD
ENDBRANCH   2  24
BRANCH   8  28
HETATM   28  O   UNL     1     -11.005  20.058   8.225  1.00  0.00    -0.360 OA
ATOM     29  HO  UNL     1     -11.331  20.403   9.048  1.00  0.00     0.217 HD
ENDBRANCH   8  28
BRANCH   4  30
HETATM   30  C   UNL     1     -10.366  18.897   5.840  1.00  0.00     0.154 C 
BRANCH  30  31
HETATM   31  C   UNL     1     -11.478  17.868   5.693  1.00  0.00     0.177 C 
HETATM   32  O   UNL     1     -11.688  17.381   4.551  1.00  0.00    -0.648 OA
HETATM   33  O   UNL     1     -12.162  17.627   6.702  1.00  0.00    -0.648 OA
ENDBRANCH  30  31
ENDBRANCH   4  30
TORSDOF 6
ENDMDL
MODEL 8
REMARK VINA RESULT:      -6.5      2.768      4.017
REMARK  6 active torsions:
REMARK  status: ('A' for Active; 'I' for Inactive)
REMARK    1  A    between atoms: C_1  and  C_18 
REMARK    2  A    between atoms: C_2  and  O_5 
REMARK    3  A    between atoms: C_2  and  N_30 
REMARK    4  A    between atoms: C_4  and  C_10 
REMARK    5  A    between atoms: C_4  and  C_29 
REMARK    6  A    between atoms: C_16  and  O_22 
ROOT
HETATM    1  C   UNL     1     -11.025  18.080  14.177  1.00  0.00     0.091 C 
HETATM    2  C   UNL     1      -9.634  18.475  13.600  1.00  0.00     0.259 C 
HETATM    3  C   UNL     1     -12.039  18.594  13.146  1.00  0.00     0.054 C 
HETATM    4  C   UNL     1     -11.013  19.906   6.774  1.00  0.00    -0.014 C 
HETATM    5  C   UNL     1     -10.176  19.155   8.925  1.00  0.00    -0.025 C 
HETATM    6  C   UNL     1     -11.222  18.897  11.914  1.00  0.00    -0.045 C 
HETATM    7  C   UNL     1     -11.792  20.971   8.822  1.00  0.00     0.049 C 
HETATM    8  C   UNL     1     -11.764  20.908   7.429  1.00  0.00     0.073 C 
HETATM    9  C   UNL     1      -9.057  18.241  11.058  1.00  0.00     0.013 C 
HETATM   10  C   UNL     1     -11.677  19.629  10.831  1.00  0.00     0.020 C 
HETATM   11  C   UNL     1     -11.196  19.923   9.550  1.00  0.00    -0.023 C 
HETATM   12  C   UNL     1     -10.128  19.116   7.513  1.00  0.00     0.022 C 
HETATM   13  C   UNL     1      -9.247  18.455   9.709  1.00  0.00     0.013 C 
HETATM   14  C   UNL     1      -9.876  18.567  12.114  1.00  0.00     0.011 C 
ENDROOT
BRANCH   1  15
HETATM   15  C   UNL     1     -11.269  16.601  14.427  1.00  0.00    -0.049 C 
HETATM   16  C   UNL     1     -11.771  16.194  15.662  1.00  0.00     0.007 C 
HETATM   17  C   UNL     1     -11.151  15.343  16.559  1.00  0.00     0.001 C 
HETATM   18  C   UNL     1     -10.164  14.416  16.251  1.00  0.00     0.000 C 
HETATM   19  C   UNL     1      -9.904  13.992  14.963  1.00  0.00     0.000 C 
HETATM   20  C   UNL     1     -10.459  14.405  13.787  1.00  0.00     0.001 C 
HETATM   21  C   UNL     1     -11.037  15.630  13.462  1.00  0.00     0.007 C 
ENDBRANCH   1  15
BRANCH   2  22
HETATM   22  O   UNL     1      -8.585  17.661  13.955  1.00  0.00    -0.361 OA
ATOM     23  HO  UNL     1      -7.971  17.450  13.262  1.00  0.00     0.213 HD
ENDBRANCH   2  22
BRANCH   2  24
HETATM   24  N   UNL     1      -9.260  19.765  14.146  1.00  0.00    -0.042 N 
ATOM     25  HN3 UNL     1      -8.705  20.320  13.493  1.00  0.00     0.278 HD
ATOM     26  HN2 UNL     1     -10.053  20.401  14.230  1.00  0.00     0.278 HD
ATOM     27  HN1 UNL     1      -8.784  19.614  15.035  1.00  0.00     0.278 HD
ENDBRANCH   2  24
BRANCH   8  28
HETATM   28  O   UNL     1     -12.535  21.740   6.662  1.00  0.00    -0.360 OA
ATOM     29  HO  UNL     1     -13.299  21.371   6.234  1.00  0.00     0.217 HD
ENDBRANCH   8  28
BRANCH   4  30
HETATM   30  C   UNL     1     -11.342  19.687   5.316  1.00  0.00     0.154 C 
BRANCH  30  31
HETATM   31  C   UNL     1     -12.587  18.913   4.904  1.00  0.00     0.177 C 
HETATM   32  O   UNL     1     -13.667  19.548   4.782  1.00  0.00    -0.648 OA
HETATM   33  O   UNL     1     -12.474  17.681   4.787  1.00  0.00    -0.648 OA
ENDBRANCH  30  31
ENDBRANCH   4  30
TORSDOF 6
ENDMDL
MODEL 9
REMARK VINA RESULT:      -6.4      3.291      4.940
REMARK  6 active torsions:
REMARK  status: ('A' for Active; 'I' for Inactive)
REMARK    1  A    between atoms: C_1  and  C_18 
REMARK    2  A    between atoms: C_2  and  O_5 
REMARK    3  A    between atoms: C_2  and  N_30 
REMARK    4  A    between atoms: C_4  and  C_10 
REMARK    5  A    between atoms: C_4  and  C_29 
REMARK    6  A    between atoms: C_16  and  O_22 
ROOT
HETATM    1  C   UNL     1      -9.516  23.495  13.357  1.00  0.00     0.091 C 
HETATM    2  C   UNL     1     -11.046  23.578  13.088  1.00  0.00     0.259 C 
HETATM    3  C   UNL     1      -9.021  22.343  12.473  1.00  0.00     0.054 C 
HETATM    4  C   UNL     1     -11.872  19.889   7.066  1.00  0.00    -0.014 C 
HETATM    5  C   UNL     1     -11.866  21.480   8.899  1.00  0.00    -0.025 C 
HETATM    6  C   UNL     1     -10.150  22.084  11.504  1.00  0.00    -0.045 C 
HETATM    7  C   UNL     1     -11.093  19.202   9.270  1.00  0.00     0.049 C 
HETATM    8  C   UNL     1     -11.412  18.886   7.949  1.00  0.00     0.073 C 
HETATM    9  C   UNL     1     -12.059  23.324  10.687  1.00  0.00     0.013 C 
HETATM   10  C   UNL     1     -10.251  20.963  10.699  1.00  0.00     0.020 C 
HETATM   11  C   UNL     1     -11.084  20.559   9.649  1.00  0.00    -0.023 C 
HETATM   12  C   UNL     1     -12.216  21.146   7.571  1.00  0.00     0.022 C 
HETATM   13  C   UNL     1     -12.272  22.690   9.482  1.00  0.00     0.013 C 
HETATM   14  C   UNL     1     -11.199  22.989  11.707  1.00  0.00     0.011 C 
ENDROOT
BRANCH   1  15
HETATM   15  C   UNL     1      -8.699  24.742  13.061  1.00  0.00    -0.049 C 
HETATM   16  C   UNL     1      -8.320  25.572  14.114  1.00  0.00     0.007 C 
HETATM   17  C   UNL     1      -8.663  26.903  14.273  1.00  0.00     0.001 C 
HETATM   18  C   UNL     1      -9.060  27.767  13.261  1.00  0.00     0.000 C 
HETATM   19  C   UNL     1      -8.849  27.505  11.921  1.00  0.00     0.000 C 
HETATM   20  C   UNL     1      -8.316  26.397  11.329  1.00  0.00     0.001 C 
HETATM   21  C   UNL     1      -8.286  25.080  11.779  1.00  0.00     0.007 C 
ENDBRANCH   1  15
BRANCH   2  22
HETATM   22  O   UNL     1     -11.616  24.818  13.241  1.00  0.00    -0.361 OA
ATOM     23  HO  UNL     1     -12.226  24.909  13.964  1.00  0.00     0.213 HD
ENDBRANCH   2  22
BRANCH   2  24
HETATM   24  N   UNL     1     -11.732  22.767  14.076  1.00  0.00    -0.042 N 
ATOM     25  HN3 UNL     1     -11.445  21.788  14.046  1.00  0.00     0.278 HD
ATOM     26  HN2 UNL     1     -11.430  22.972  15.029  1.00  0.00     0.278 HD
ATOM     27  HN1 UNL     1     -12.737  22.886  13.950  1.00  0.00     0.278 HD
ENDBRANCH   2  24
BRANCH   8  28
HETATM   28  O   UNL     1     -11.193  17.633   7.443  1.00  0.00    -0.360 OA
ATOM     29  HO  UNL     1     -10.604  17.057   7.917  1.00  0.00     0.217 HD
ENDBRANCH   8  28
BRANCH   4  30
HETATM   30  C   UNL     1     -11.826  19.541   5.597  1.00  0.00     0.154 C 
BRANCH  30  31
HETATM   31  C   UNL     1     -13.020  18.890   4.911  1.00  0.00     0.177 C 
HETATM   32  O   UNL     1     -13.225  17.665   5.115  1.00  0.00    -0.648 OA
HETATM   33  O   UNL     1     -13.677  19.596   4.128  1.00  0.00    -0.648 OA
ENDBRANCH  30  31
ENDBRANCH   4  30
TORSDOF 6
ENDMDL
