REMARK  0 active torsions:
REMARK  status: ('A' for Active; 'I' for Inactive)
ROOT
HETATM    1  C   UNL     1      -3.370  16.607 -16.952  1.00  0.00    -0.003 C 
HETATM    2  C   UNL     1      -4.313  12.950 -17.241  1.00  0.00     0.008 C 
HETATM    3  C   UNL     1      -6.410  13.593 -18.456  1.00  0.00     0.171 C 
HETATM    4  C   UNL     1      -5.450  12.625 -17.938  1.00  0.00     0.055 C 
HETATM    5  C   UNL     1      -5.608  15.595 -17.197  1.00  0.00    -0.009 C 
HETATM    6  C   UNL     1      -4.036  15.612 -19.157  1.00  0.00     0.025 C 
HETATM    7  C   UNL     1      -3.287  17.852 -17.836  1.00  0.00     0.011 C 
HETATM    8  C   UNL     1      -2.044  13.993 -17.172  1.00  0.00     0.035 C 
HETATM    9  C   UNL     1      -1.649  14.918 -16.023  1.00  0.00     0.005 C 
HETATM   10  C   UNL     1      -4.135  15.473 -17.631  1.00  0.00     0.001 C 
HETATM   11  C   UNL     1      -6.591  14.962 -17.853  1.00  0.00     0.052 C 
HETATM   12  O   UNL     1      -7.142  13.294 -19.397  1.00  0.00    -0.289 OA
HETATM   13  C   UNL     1      -3.552  14.098 -17.357  1.00  0.00    -0.067 C 
HETATM   14  C   UNL     1      -2.015  16.359 -16.333  1.00  0.00     0.006 C 
ENDROOT
TORSDOF 0
