REMARK  2 active torsions:
REMARK  status: ('A' for Active; 'I' for Inactive)
REMARK    1  A    between atoms: O_2  and  C_14 
REMARK    2  A    between atoms: O_10  and  C_14 
ROOT
HETATM    1  C   UNL     1      82.175 -44.493  23.099  1.00  0.00     0.160 C 
HETATM    2  C   UNL     1      82.760 -46.790  22.819  1.00  0.00     0.049 C 
HETATM    3  O   UNL     1      81.416 -43.538  23.060  1.00  0.00    -0.292 OA
HETATM    4  C   UNL     1      83.270 -46.271  24.093  1.00  0.00    -0.001 C 
HETATM    5  C   UNL     1      83.871 -44.074  24.995  1.00  0.00     0.015 C 
HETATM    6  C   UNL     1      82.218 -45.597  22.072  1.00  0.00     0.088 C 
HETATM    7  C   UNL     1      84.992 -44.676  25.622  1.00  0.00     0.003 C 
HETATM    8  C   UNL     1      83.018 -44.886  24.233  1.00  0.00     0.018 C 
HETATM    9  C   UNL     1      85.197 -46.040  25.605  1.00  0.00     0.045 C 
HETATM   10  C   UNL     1      84.086 -46.944  25.165  1.00  0.00     0.206 C 
ENDROOT
BRANCH  10  11
HETATM   11  O   UNL     1      83.264 -47.289  26.231  1.00  0.00    -0.359 OA
ATOM     12  HO  UNL     1      83.779 -47.714  26.907  1.00  0.00     0.213 HD
ENDBRANCH  10  11
BRANCH  10  13
HETATM   13  O   UNL     1      84.595 -48.155  24.635  1.00  0.00    -0.359 OA
ATOM     14  HO  UNL     1      85.157 -47.919  23.906  1.00  0.00     0.213 HD
ENDBRANCH  10  13
TORSDOF 2
