MODEL 1
REMARK VINA RESULT:      -4.9      0.000      0.000
REMARK  1 active torsions:
REMARK  status: ('A' for Active; 'I' for Inactive)
REMARK    1  A    between atoms: O_10  and  C_12 
ROOT
HETATM    1  C   UNL     1      -5.060 -20.888  -5.402  1.00  0.00     0.000 C 
HETATM    2  C   UNL     1      -4.122 -23.459  -7.074  1.00  0.00     0.059 C 
HETATM    3  C   UNL     1      -4.752 -22.252  -7.526  1.00  0.00     0.032 C 
HETATM    4  C   UNL     1      -4.059 -21.453  -4.586  1.00  0.00     0.003 C 
HETATM    5  C   UNL     1      -5.367 -21.240  -6.740  1.00  0.00     0.002 C 
HETATM    6  C   UNL     1      -3.508 -22.724  -4.680  1.00  0.00     0.039 C 
HETATM    7  N   UNL     1      -4.249 -24.565  -7.830  1.00  0.00    -0.397 N 
ATOM      8  HN1 UNL     1      -3.802 -25.423  -7.509  1.00  0.00     0.156 HD
ATOM      9  HN2 UNL     1      -4.790 -24.502  -8.692  1.00  0.00     0.156 HD
HETATM   10  C   UNL     1      -3.342 -23.550  -5.831  1.00  0.00     0.091 C 
ENDROOT
BRANCH  10  11
HETATM   11  O   UNL     1      -2.308 -24.410  -5.862  1.00  0.00    -0.358 OA
ATOM     12  HO  UNL     1      -1.755 -24.408  -5.089  1.00  0.00     0.217 HD
ENDBRANCH  10  11
TORSDOF 1
ENDMDL
MODEL 2
REMARK VINA RESULT:      -4.7      1.415      2.432
REMARK  1 active torsions:
REMARK  status: ('A' for Active; 'I' for Inactive)
REMARK    1  A    between atoms: O_10  and  C_12 
ROOT
HETATM    1  C   UNL     1      -4.706 -20.915  -4.968  1.00  0.00     0.000 C 
HETATM    2  C   UNL     1      -3.267 -23.465  -6.276  1.00  0.00     0.059 C 
HETATM    3  C   UNL     1      -3.357 -23.068  -4.900  1.00  0.00     0.032 C 
HETATM    4  C   UNL     1      -5.395 -21.080  -6.188  1.00  0.00     0.003 C 
HETATM    5  C   UNL     1      -3.792 -21.821  -4.376  1.00  0.00     0.002 C 
HETATM    6  C   UNL     1      -5.012 -21.852  -7.277  1.00  0.00     0.039 C 
HETATM    7  N   UNL     1      -2.251 -24.266  -6.642  1.00  0.00    -0.397 N 
ATOM      8  HN1 UNL     1      -2.187 -24.548  -7.620  1.00  0.00     0.156 HD
ATOM      9  HN2 UNL     1      -1.584 -24.558  -5.929  1.00  0.00     0.156 HD
HETATM   10  C   UNL     1      -4.229 -23.044  -7.305  1.00  0.00     0.091 C 
ENDROOT
BRANCH  10  11
HETATM   11  O   UNL     1      -4.460 -23.942  -8.279  1.00  0.00    -0.358 OA
ATOM     12  HO  UNL     1      -4.732 -23.577  -9.113  1.00  0.00     0.217 HD
ENDBRANCH  10  11
TORSDOF 1
ENDMDL
MODEL 3
REMARK VINA RESULT:      -4.5      2.060      2.323
REMARK  1 active torsions:
REMARK  status: ('A' for Active; 'I' for Inactive)
REMARK    1  A    between atoms: O_10  and  C_12 
ROOT
HETATM    1  C   UNL     1      -4.924 -20.659  -5.735  1.00  0.00     0.000 C 
HETATM    2  C   UNL     1      -5.104 -23.742  -4.871  1.00  0.00     0.059 C 
HETATM    3  C   UNL     1      -4.877 -23.163  -6.165  1.00  0.00     0.032 C 
HETATM    4  C   UNL     1      -4.598 -20.626  -4.364  1.00  0.00     0.003 C 
HETATM    5  C   UNL     1      -5.038 -21.807  -6.557  1.00  0.00     0.002 C 
HETATM    6  C   UNL     1      -4.790 -21.630  -3.425  1.00  0.00     0.039 C 
HETATM    7  N   UNL     1      -5.605 -24.988  -4.810  1.00  0.00    -0.397 N 
ATOM      8  HN1 UNL     1      -5.766 -25.399  -3.891  1.00  0.00     0.156 HD
ATOM      9  HN2 UNL     1      -5.808 -25.472  -5.685  1.00  0.00     0.156 HD
HETATM   10  C   UNL     1      -4.811 -23.045  -3.610  1.00  0.00     0.091 C 
ENDROOT
BRANCH  10  11
HETATM   11  O   UNL     1      -4.409 -23.832  -2.597  1.00  0.00    -0.358 OA
ATOM     12  HO  UNL     1      -3.851 -24.560  -2.844  1.00  0.00     0.217 HD
ENDBRANCH  10  11
TORSDOF 1
ENDMDL
MODEL 4
REMARK VINA RESULT:      -4.4      2.633      3.037
REMARK  1 active torsions:
REMARK  status: ('A' for Active; 'I' for Inactive)
REMARK    1  A    between atoms: O_10  and  C_12 
ROOT
HETATM    1  C   UNL     1      -6.995 -21.977  -5.148  1.00  0.00     0.000 C 
HETATM    2  C   UNL     1      -3.924 -22.439  -4.349  1.00  0.00     0.059 C 
HETATM    3  C   UNL     1      -4.513 -21.432  -5.184  1.00  0.00     0.032 C 
HETATM    4  C   UNL     1      -7.084 -22.694  -3.937  1.00  0.00     0.003 C 
HETATM    5  C   UNL     1      -5.832 -21.393  -5.709  1.00  0.00     0.002 C 
HETATM    6  C   UNL     1      -6.073 -23.396  -3.293  1.00  0.00     0.039 C 
HETATM    7  N   UNL     1      -2.624 -22.735  -4.528  1.00  0.00    -0.397 N 
ATOM      8  HN1 UNL     1      -2.206 -23.450  -3.934  1.00  0.00     0.156 HD
ATOM      9  HN2 UNL     1      -2.109 -22.234  -5.251  1.00  0.00     0.156 HD
HETATM   10  C   UNL     1      -4.666 -23.161  -3.305  1.00  0.00     0.091 C 
ENDROOT
BRANCH  10  11
HETATM   11  O   UNL     1      -3.948 -23.506  -2.222  1.00  0.00    -0.358 OA
ATOM     12  HO  UNL     1      -3.421 -22.811  -1.845  1.00  0.00     0.217 HD
ENDBRANCH  10  11
TORSDOF 1
ENDMDL
MODEL 5
REMARK VINA RESULT:      -4.4      2.115      2.930
REMARK  1 active torsions:
REMARK  status: ('A' for Active; 'I' for Inactive)
REMARK    1  A    between atoms: O_10  and  C_12 
ROOT
HETATM    1  C   UNL     1      -4.349 -22.749  -8.116  1.00  0.00     0.000 C 
HETATM    2  C   UNL     1      -4.594 -21.467  -5.186  1.00  0.00     0.059 C 
HETATM    3  C   UNL     1      -5.426 -21.282  -6.341  1.00  0.00     0.032 C 
HETATM    4  C   UNL     1      -3.660 -23.673  -7.304  1.00  0.00     0.003 C 
HETATM    5  C   UNL     1      -5.161 -21.672  -7.681  1.00  0.00     0.002 C 
HETATM    6  C   UNL     1      -3.214 -23.487  -6.002  1.00  0.00     0.039 C 
HETATM    7  N   UNL     1      -4.587 -20.506  -4.246  1.00  0.00    -0.397 N 
ATOM      8  HN1 UNL     1      -3.996 -20.637  -3.426  1.00  0.00     0.156 HD
ATOM      9  HN2 UNL     1      -5.171 -19.683  -4.391  1.00  0.00     0.156 HD
HETATM   10  C   UNL     1      -3.752 -22.654  -4.976  1.00  0.00     0.091 C 
ENDROOT
BRANCH  10  11
HETATM   11  O   UNL     1      -3.601 -23.033  -3.695  1.00  0.00    -0.358 OA
ATOM     12  HO  UNL     1      -3.287 -22.358  -3.105  1.00  0.00     0.217 HD
ENDBRANCH  10  11
TORSDOF 1
ENDMDL
MODEL 6
REMARK VINA RESULT:      -4.4      3.873      4.476
REMARK  1 active torsions:
REMARK  status: ('A' for Active; 'I' for Inactive)
REMARK    1  A    between atoms: O_10  and  C_12 
ROOT
HETATM    1  C   UNL     1      -5.876 -21.500  -5.667  1.00  0.00     0.000 C 
HETATM    2  C   UNL     1      -7.100 -21.907  -2.731  1.00  0.00     0.059 C 
HETATM    3  C   UNL     1      -7.582 -22.376  -3.999  1.00  0.00     0.032 C 
HETATM    4  C   UNL     1      -4.755 -21.335  -4.828  1.00  0.00     0.003 C 
HETATM    5  C   UNL     1      -7.155 -21.985  -5.296  1.00  0.00     0.002 C 
HETATM    6  C   UNL     1      -4.749 -21.131  -3.455  1.00  0.00     0.039 C 
HETATM    7  N   UNL     1      -7.981 -21.779  -1.723  1.00  0.00    -0.397 N 
ATOM      8  HN1 UNL     1      -7.638 -21.445  -0.823  1.00  0.00     0.156 HD
ATOM      9  HN2 UNL     1      -8.956 -22.017  -1.900  1.00  0.00     0.156 HD
HETATM   10  C   UNL     1      -5.693 -21.564  -2.476  1.00  0.00     0.091 C 
ENDROOT
BRANCH  10  11
HETATM   11  O   UNL     1      -5.257 -21.812  -1.228  1.00  0.00    -0.358 OA
ATOM     12  HO  UNL     1      -5.803 -21.469  -0.531  1.00  0.00     0.217 HD
ENDBRANCH  10  11
TORSDOF 1
ENDMDL
MODEL 7
REMARK VINA RESULT:      -4.4      4.687      5.260
REMARK  1 active torsions:
REMARK  status: ('A' for Active; 'I' for Inactive)
REMARK    1  A    between atoms: O_10  and  C_12 
ROOT
HETATM    1  C   UNL     1      -5.413 -21.608  -4.068  1.00  0.00     0.000 C 
HETATM    2  C   UNL     1      -8.583 -21.780  -3.610  1.00  0.00     0.059 C 
HETATM    3  C   UNL     1      -7.804 -22.112  -4.769  1.00  0.00     0.032 C 
HETATM    4  C   UNL     1      -5.529 -21.707  -2.667  1.00  0.00     0.003 C 
HETATM    5  C   UNL     1      -6.441 -21.804  -5.024  1.00  0.00     0.002 C 
HETATM    6  C   UNL     1      -6.671 -21.530  -1.897  1.00  0.00     0.039 C 
HETATM    7  N   UNL     1      -9.881 -21.476  -3.781  1.00  0.00    -0.397 N 
ATOM      8  HN1 UNL     1     -10.434 -21.240  -2.958  1.00  0.00     0.156 HD
ATOM      9  HN2 UNL     1     -10.261 -21.490  -4.728  1.00  0.00     0.156 HD
HETATM   10  C   UNL     1      -8.035 -21.759  -2.245  1.00  0.00     0.091 C 
ENDROOT
BRANCH  10  11
HETATM   11  O   UNL     1      -8.895 -22.116  -1.275  1.00  0.00    -0.358 OA
ATOM     12  HO  UNL     1      -8.601 -21.944  -0.388  1.00  0.00     0.217 HD
ENDBRANCH  10  11
TORSDOF 1
ENDMDL
MODEL 8
REMARK VINA RESULT:      -4.3      3.972      4.762
REMARK  1 active torsions:
REMARK  status: ('A' for Active; 'I' for Inactive)
REMARK    1  A    between atoms: O_10  and  C_12 
ROOT
HETATM    1  C   UNL     1      -6.154 -21.757  -5.735  1.00  0.00     0.000 C 
HETATM    2  C   UNL     1      -5.494 -21.649  -2.599  1.00  0.00     0.059 C 
HETATM    3  C   UNL     1      -4.765 -21.105  -3.709  1.00  0.00     0.032 C 
HETATM    4  C   UNL     1      -7.419 -21.930  -5.136  1.00  0.00     0.003 C 
HETATM    5  C   UNL     1      -4.952 -21.370  -5.092  1.00  0.00     0.002 C 
HETATM    6  C   UNL     1      -7.691 -22.242  -3.811  1.00  0.00     0.039 C 
HETATM    7  N   UNL     1      -4.825 -21.902  -1.460  1.00  0.00    -0.397 N 
ATOM      8  HN1 UNL     1      -5.343 -22.288  -0.672  1.00  0.00     0.156 HD
ATOM      9  HN2 UNL     1      -3.825 -21.702  -1.431  1.00  0.00     0.156 HD
HETATM   10  C   UNL     1      -6.935 -21.938  -2.640  1.00  0.00     0.091 C 
ENDROOT
BRANCH  10  11
HETATM   11  O   UNL     1      -7.590 -21.768  -1.478  1.00  0.00    -0.358 OA
ATOM     12  HO  UNL     1      -7.045 -21.772  -0.699  1.00  0.00     0.217 HD
ENDBRANCH  10  11
TORSDOF 1
ENDMDL
MODEL 9
REMARK VINA RESULT:      -4.3      5.265      6.169
REMARK  1 active torsions:
REMARK  status: ('A' for Active; 'I' for Inactive)
REMARK    1  A    between atoms: O_10  and  C_12 
ROOT
HETATM    1  C   UNL     1      -5.907 -22.051  -3.440  1.00  0.00     0.000 C 
HETATM    2  C   UNL     1      -8.891 -21.515  -2.395  1.00  0.00     0.059 C 
HETATM    3  C   UNL     1      -7.634 -21.235  -1.762  1.00  0.00     0.032 C 
HETATM    4  C   UNL     1      -6.657 -21.992  -4.632  1.00  0.00     0.003 C 
HETATM    5  C   UNL     1      -6.344 -21.696  -2.139  1.00  0.00     0.002 C 
HETATM    6  C   UNL     1      -8.037 -22.059  -4.767  1.00  0.00     0.039 C 
HETATM    7  N   UNL     1      -9.979 -21.653  -1.616  1.00  0.00    -0.397 N 
ATOM      8  HN1 UNL     1     -10.872 -21.852  -2.066  1.00  0.00     0.156 HD
ATOM      9  HN2 UNL     1      -9.867 -21.557  -0.608  1.00  0.00     0.156 HD
HETATM   10  C   UNL     1      -9.052 -21.654  -3.850  1.00  0.00     0.091 C 
ENDROOT
BRANCH  10  11
HETATM   11  O   UNL     1     -10.231 -21.232  -4.341  1.00  0.00    -0.358 OA
ATOM     12  HO  UNL     1     -10.949 -21.849  -4.260  1.00  0.00     0.217 HD
ENDBRANCH  10  11
TORSDOF 1
ENDMDL
