MODEL 1
REMARK VINA RESULT:      -8.0      0.000      0.000
REMARK  5 active torsions:
REMARK  status: ('A' for Active; 'I' for Inactive)
REMARK    1  A    between atoms: C_5  and  O_7 
REMARK    2  A    between atoms: O_12  and  C_20 
REMARK    3  A    between atoms: C_15  and  O_22 
REMARK    4  A    between atoms: C_15  and  O_31 
REMARK    5  A    between atoms: N_16  and  C_18 
ROOT
HETATM    1  C   UNL     1      45.991  77.458  86.665  1.00  0.00     0.043 C 
HETATM    2  C   UNL     1      46.994  79.246  88.156  1.00  0.00    -0.010 C 
HETATM    3  C   UNL     1      44.216  74.327  92.633  1.00  0.00     0.016 C 
HETATM    4  C   UNL     1      46.291  78.941  89.479  1.00  0.00     0.041 C 
HETATM    5  C   UNL     1      45.549  74.763  93.290  1.00  0.00     0.125 C 
HETATM    6  C   UNL     1      46.094  78.935  86.971  1.00  0.00     0.008 C 
HETATM    7  C   UNL     1      46.101  75.166  89.650  1.00  0.00     0.047 C 
HETATM    8  C   UNL     1      44.693  73.857  91.278  1.00  0.00     0.017 C 
HETATM    9  C   UNL     1      46.049  76.472  88.968  1.00  0.00    -0.041 C 
HETATM   10  C   UNL     1      43.568  75.715  92.422  1.00  0.00     0.015 C 
HETATM   11  C   UNL     1      44.479  77.587  90.673  1.00  0.00     0.119 C 
HETATM   12  C   UNL     1      46.750  76.544  87.615  1.00  0.00     0.082 C 
HETATM   13  C   UNL     1      48.313  78.499  88.005  1.00  0.00     0.008 C 
HETATM   14  C   UNL     1      48.180  77.025  87.731  1.00  0.00     0.043 C 
HETATM   15  C   UNL     1      46.345  75.393  92.153  1.00  0.00     0.042 C 
HETATM   16  C   UNL     1      44.197  76.132  91.090  1.00  0.00     0.022 C 
HETATM   17  C   UNL     1      45.578  77.608  89.606  1.00  0.00    -0.051 C 
HETATM   18  C   UNL     1      45.375  75.172  90.979  1.00  0.00    -0.028 C 
ENDROOT
BRANCH  11  19
HETATM   19  N   UNL     1      43.231  78.255  90.239  1.00  0.00    -0.371 N 
HETATM   20  C   UNL     1      42.635  79.178  91.232  1.00  0.00     0.129 C 
HETATM   21  C   UNL     1      43.080  80.588  90.784  1.00  0.00     0.093 C 
HETATM   22  C   UNL     1      42.170  80.877  89.593  1.00  0.00     0.192 C 
HETATM   23  C   UNL     1      42.351  79.792  88.526  1.00  0.00     0.030 A 
HETATM   24  C   UNL     1      41.741  80.002  87.294  1.00  0.00     0.015 A 
HETATM   25  C   UNL     1      42.819  78.514  88.902  1.00  0.00     0.042 A 
HETATM   26  C   UNL     1      41.743  78.996  86.356  1.00  0.00     0.001 A 
HETATM   27  C   UNL     1      42.263  77.753  86.675  1.00  0.00     0.002 A 
HETATM   28  C   UNL     1      42.734  77.492  87.953  1.00  0.00     0.030 A 
BRANCH  22  29
HETATM   29  O   UNL     1      40.818  80.869  89.995  1.00  0.00    -0.361 OA
ATOM     30  HO  UNL     1      40.652  80.143  90.584  1.00  0.00     0.213 HD
ENDBRANCH  22  29
BRANCH  22  31
HETATM   31  O   UNL     1      42.438  82.156  89.048  1.00  0.00    -0.361 OA
ATOM     32  HO  UNL     1      42.018  82.261  88.203  1.00  0.00     0.213 HD
ENDBRANCH  22  31
ENDBRANCH  11  19
BRANCH  12  33
HETATM   33  O   UNL     1      46.765  75.247  87.042  1.00  0.00    -0.385 OA
ATOM     34  HO  UNL     1      47.455  74.753  87.469  1.00  0.00     0.211 HD
ENDBRANCH  12  33
BRANCH   5  35
HETATM   35  O   UNL     1      46.083  73.709  94.066  1.00  0.00    -0.390 OA
HETATM   36  C   UNL     1      47.063  72.785  93.701  1.00  0.00     0.202 C 
ENDBRANCH   5  35
TORSDOF 5
ENDMDL
MODEL 2
REMARK VINA RESULT:      -7.3      2.699      7.472
REMARK  5 active torsions:
REMARK  status: ('A' for Active; 'I' for Inactive)
REMARK    1  A    between atoms: C_5  and  O_7 
REMARK    2  A    between atoms: O_12  and  C_20 
REMARK    3  A    between atoms: C_15  and  O_22 
REMARK    4  A    between atoms: C_15  and  O_31 
REMARK    5  A    between atoms: N_16  and  C_18 
ROOT
HETATM    1  C   UNL     1      46.865  71.056  88.645  1.00  0.00     0.043 C 
HETATM    2  C   UNL     1      44.654  70.933  89.878  1.00  0.00    -0.010 C 
HETATM    3  C   UNL     1      45.422  77.839  87.962  1.00  0.00     0.016 C 
HETATM    4  C   UNL     1      44.433  72.408  90.213  1.00  0.00     0.041 C 
HETATM    5  C   UNL     1      43.920  77.526  87.749  1.00  0.00     0.125 C 
HETATM    6  C   UNL     1      46.134  70.585  89.881  1.00  0.00     0.008 C 
HETATM    7  C   UNL     1      45.658  74.306  87.178  1.00  0.00     0.047 C 
HETATM    8  C   UNL     1      46.071  76.790  87.089  1.00  0.00     0.017 C 
HETATM    9  C   UNL     1      45.705  73.228  88.182  1.00  0.00    -0.041 C 
HETATM   10  C   UNL     1      45.578  77.364  89.424  1.00  0.00     0.015 C 
HETATM   11  C   UNL     1      45.418  74.768  90.222  1.00  0.00     0.119 C 
HETATM   12  C   UNL     1      46.020  71.834  87.648  1.00  0.00     0.082 C 
HETATM   13  C   UNL     1      44.039  70.534  88.542  1.00  0.00     0.008 C 
HETATM   14  C   UNL     1      44.771  71.042  87.330  1.00  0.00     0.043 C 
HETATM   15  C   UNL     1      43.856  76.005  87.670  1.00  0.00     0.042 C 
HETATM   16  C   UNL     1      45.823  75.866  89.220  1.00  0.00     0.022 C 
HETATM   17  C   UNL     1      45.287  73.431  89.487  1.00  0.00    -0.051 C 
HETATM   18  C   UNL     1      45.351  75.658  87.786  1.00  0.00    -0.028 C 
ENDROOT
BRANCH  11  19
HETATM   19  N   UNL     1      46.371  74.721  91.354  1.00  0.00    -0.371 N 
HETATM   20  C   UNL     1      45.836  75.209  92.646  1.00  0.00     0.129 C 
HETATM   21  C   UNL     1      45.454  73.934  93.427  1.00  0.00     0.093 C 
HETATM   22  C   UNL     1      46.803  73.399  93.900  1.00  0.00     0.192 C 
HETATM   23  C   UNL     1      47.713  73.148  92.693  1.00  0.00     0.030 A 
HETATM   24  C   UNL     1      48.911  72.480  92.926  1.00  0.00     0.015 A 
HETATM   25  C   UNL     1      47.494  73.859  91.493  1.00  0.00     0.042 A 
HETATM   26  C   UNL     1      49.832  72.364  91.910  1.00  0.00     0.001 A 
HETATM   27  C   UNL     1      49.607  72.991  90.697  1.00  0.00     0.002 A 
HETATM   28  C   UNL     1      48.485  73.785  90.511  1.00  0.00     0.030 A 
BRANCH  22  29
HETATM   29  O   UNL     1      47.439  74.340  94.735  1.00  0.00    -0.361 OA
ATOM     30  HO  UNL     1      47.654  75.125  94.245  1.00  0.00     0.213 HD
ENDBRANCH  22  29
BRANCH  22  31
HETATM   31  O   UNL     1      46.642  72.211  94.653  1.00  0.00    -0.361 OA
ATOM     32  HO  UNL     1      45.946  72.305  95.292  1.00  0.00     0.213 HD
ENDBRANCH  22  31
ENDBRANCH  11  19
BRANCH  12  33
HETATM   33  O   UNL     1      46.776  71.965  86.455  1.00  0.00    -0.385 OA
ATOM     34  HO  UNL     1      47.045  71.094  86.189  1.00  0.00     0.211 HD
ENDBRANCH  12  33
BRANCH   5  35
HETATM   35  O   UNL     1      43.389  78.339  86.722  1.00  0.00    -0.390 OA
HETATM   36  C   UNL     1      42.055  78.470  86.334  1.00  0.00     0.202 C 
ENDBRANCH   5  35
TORSDOF 5
ENDMDL
MODEL 3
REMARK VINA RESULT:      -7.1      2.803      5.298
REMARK  5 active torsions:
REMARK  status: ('A' for Active; 'I' for Inactive)
REMARK    1  A    between atoms: C_5  and  O_7 
REMARK    2  A    between atoms: O_12  and  C_20 
REMARK    3  A    between atoms: C_15  and  O_22 
REMARK    4  A    between atoms: C_15  and  O_31 
REMARK    5  A    between atoms: N_16  and  C_18 
ROOT
HETATM    1  C   UNL     1      39.252  76.807  85.721  1.00  0.00     0.043 C 
HETATM    2  C   UNL     1      40.207  78.545  84.144  1.00  0.00    -0.010 C 
HETATM    3  C   UNL     1      45.536  76.951  88.729  1.00  0.00     0.016 C 
HETATM    4  C   UNL     1      41.420  79.020  84.945  1.00  0.00     0.041 C 
HETATM    5  C   UNL     1      46.223  77.102  87.349  1.00  0.00     0.125 C 
HETATM    6  C   UNL     1      39.062  78.154  85.061  1.00  0.00     0.008 C 
HETATM    7  C   UNL     1      42.803  75.905  86.587  1.00  0.00     0.047 C 
HETATM    8  C   UNL     1      44.514  75.877  88.435  1.00  0.00     0.017 C 
HETATM    9  C   UNL     1      41.727  76.792  86.111  1.00  0.00    -0.041 C 
HETATM   10  C   UNL     1      44.771  78.293  88.783  1.00  0.00     0.015 C 
HETATM   11  C   UNL     1      42.677  78.935  87.171  1.00  0.00     0.119 C 
HETATM   12  C   UNL     1      40.564  76.107  85.401  1.00  0.00     0.082 C 
HETATM   13  C   UNL     1      40.536  77.384  83.213  1.00  0.00     0.008 C 
HETATM   14  C   UNL     1      40.750  76.062  83.900  1.00  0.00     0.043 C 
HETATM   15  C   UNL     1      45.091  76.943  86.341  1.00  0.00     0.042 C 
HETATM   16  C   UNL     1      43.501  77.937  88.006  1.00  0.00     0.022 C 
HETATM   17  C   UNL     1      41.863  78.171  86.122  1.00  0.00    -0.051 C 
HETATM   18  C   UNL     1      43.913  76.658  87.289  1.00  0.00    -0.028 C 
ENDROOT
BRANCH  11  19
HETATM   19  N   UNL     1      41.844  79.786  88.051  1.00  0.00    -0.371 N 
HETATM   20  C   UNL     1      42.069  79.598  89.502  1.00  0.00     0.129 C 
HETATM   21  C   UNL     1      42.996  80.760  89.917  1.00  0.00     0.093 C 
HETATM   22  C   UNL     1      42.053  81.959  89.962  1.00  0.00     0.192 C 
HETATM   23  C   UNL     1      41.384  82.145  88.595  1.00  0.00     0.030 A 
HETATM   24  C   UNL     1      40.640  83.303  88.402  1.00  0.00     0.015 A 
HETATM   25  C   UNL     1      41.258  81.041  87.724  1.00  0.00     0.042 A 
HETATM   26  C   UNL     1      39.897  83.449  87.253  1.00  0.00     0.001 A 
HETATM   27  C   UNL     1      39.815  82.407  86.345  1.00  0.00     0.002 A 
HETATM   28  C   UNL     1      40.433  81.193  86.607  1.00  0.00     0.030 A 
BRANCH  22  29
HETATM   29  O   UNL     1      41.036  81.749  90.917  1.00  0.00    -0.361 OA
ATOM     30  HO  UNL     1      40.364  81.179  90.563  1.00  0.00     0.213 HD
ENDBRANCH  22  29
BRANCH  22  31
HETATM   31  O   UNL     1      42.744  83.136  90.337  1.00  0.00    -0.361 OA
ATOM     32  HO  UNL     1      42.282  83.597  91.027  1.00  0.00     0.213 HD
ENDBRANCH  22  31
ENDBRANCH  11  19
BRANCH  12  33
HETATM   33  O   UNL     1      40.465  74.774  85.874  1.00  0.00    -0.385 OA
ATOM     34  HO  UNL     1      40.293  74.216  85.124  1.00  0.00     0.211 HD
ENDBRANCH  12  33
BRANCH   5  35
HETATM   35  O   UNL     1      47.383  76.297  87.287  1.00  0.00    -0.390 OA
HETATM   36  C   UNL     1      48.431  76.227  88.206  1.00  0.00     0.202 C 
ENDBRANCH   5  35
TORSDOF 5
ENDMDL
MODEL 4
REMARK VINA RESULT:      -7.0      2.309      6.979
REMARK  5 active torsions:
REMARK  status: ('A' for Active; 'I' for Inactive)
REMARK    1  A    between atoms: C_5  and  O_7 
REMARK    2  A    between atoms: O_12  and  C_20 
REMARK    3  A    between atoms: C_15  and  O_22 
REMARK    4  A    between atoms: C_15  and  O_31 
REMARK    5  A    between atoms: N_16  and  C_18 
ROOT
HETATM    1  C   UNL     1      47.352  72.768  87.942  1.00  0.00     0.043 C 
HETATM    2  C   UNL     1      45.264  71.797  89.000  1.00  0.00    -0.010 C 
HETATM    3  C   UNL     1      44.351  78.946  89.125  1.00  0.00     0.016 C 
HETATM    4  C   UNL     1      44.714  73.026  89.725  1.00  0.00     0.041 C 
HETATM    5  C   UNL     1      42.959  78.368  88.771  1.00  0.00     0.125 C 
HETATM    6  C   UNL     1      46.783  71.813  88.967  1.00  0.00     0.008 C 
HETATM    7  C   UNL     1      45.383  75.930  87.395  1.00  0.00     0.047 C 
HETATM    8  C   UNL     1      45.203  78.364  88.020  1.00  0.00     0.017 C 
HETATM    9  C   UNL     1      45.706  74.654  88.058  1.00  0.00    -0.041 C 
HETATM   10  C   UNL     1      44.652  78.127  90.401  1.00  0.00     0.015 C 
HETATM   11  C   UNL     1      45.122  75.449  90.434  1.00  0.00     0.119 C 
HETATM   12  C   UNL     1      46.323  73.579  87.169  1.00  0.00     0.082 C 
HETATM   13  C   UNL     1      44.723  71.659  87.583  1.00  0.00     0.008 C 
HETATM   14  C   UNL     1      45.285  72.643  86.591  1.00  0.00     0.043 C 
HETATM   15  C   UNL     1      43.248  76.958  88.268  1.00  0.00     0.042 C 
HETATM   16  C   UNL     1      45.233  76.846  89.797  1.00  0.00     0.022 C 
HETATM   17  C   UNL     1      45.286  74.379  89.350  1.00  0.00    -0.051 C 
HETATM   18  C   UNL     1      44.785  76.947  88.344  1.00  0.00    -0.028 C 
ENDROOT
BRANCH  11  19
HETATM   19  N   UNL     1      46.090  75.307  91.546  1.00  0.00    -0.371 N 
HETATM   20  C   UNL     1      45.490  75.282  92.900  1.00  0.00     0.129 C 
HETATM   21  C   UNL     1      45.431  73.787  93.283  1.00  0.00     0.093 C 
HETATM   22  C   UNL     1      46.878  73.462  93.643  1.00  0.00     0.192 C 
HETATM   23  C   UNL     1      47.790  73.770  92.450  1.00  0.00     0.030 A 
HETATM   24  C   UNL     1      49.114  73.353  92.536  1.00  0.00     0.015 A 
HETATM   25  C   UNL     1      47.384  74.717  91.486  1.00  0.00     0.042 A 
HETATM   26  C   UNL     1      50.011  73.736  91.565  1.00  0.00     0.001 A 
HETATM   27  C   UNL     1      49.617  74.608  90.565  1.00  0.00     0.002 A 
HETATM   28  C   UNL     1      48.339  75.146  90.561  1.00  0.00     0.030 A 
BRANCH  22  29
HETATM   29  O   UNL     1      47.304  74.254  94.730  1.00  0.00    -0.361 OA
ATOM     30  HO  UNL     1      47.556  73.703  95.461  1.00  0.00     0.213 HD
ENDBRANCH  22  29
BRANCH  22  31
HETATM   31  O   UNL     1      47.013  72.108  94.031  1.00  0.00    -0.361 OA
ATOM     32  HO  UNL     1      46.170  71.733  94.257  1.00  0.00     0.213 HD
ENDBRANCH  22  31
ENDBRANCH  11  19
BRANCH  12  33
HETATM   33  O   UNL     1      46.996  74.211  86.092  1.00  0.00    -0.385 OA
ATOM     34  HO  UNL     1      47.414  73.531  85.577  1.00  0.00     0.211 HD
ENDBRANCH  12  33
BRANCH   5  35
HETATM   35  O   UNL     1      42.226  79.291  87.992  1.00  0.00    -0.390 OA
HETATM   36  C   UNL     1      41.864  79.185  86.648  1.00  0.00     0.202 C 
ENDBRANCH   5  35
TORSDOF 5
ENDMDL
MODEL 5
REMARK VINA RESULT:      -6.8      2.581      4.631
REMARK  5 active torsions:
REMARK  status: ('A' for Active; 'I' for Inactive)
REMARK    1  A    between atoms: C_5  and  O_7 
REMARK    2  A    between atoms: O_12  and  C_20 
REMARK    3  A    between atoms: C_15  and  O_22 
REMARK    4  A    between atoms: C_15  and  O_31 
REMARK    5  A    between atoms: N_16  and  C_18 
ROOT
HETATM    1  C   UNL     1      49.831  78.047  90.199  1.00  0.00     0.043 C 
HETATM    2  C   UNL     1      49.421  76.348  92.034  1.00  0.00    -0.010 C 
HETATM    3  C   UNL     1      45.145  74.373  86.578  1.00  0.00     0.016 C 
HETATM    4  C   UNL     1      48.093  75.747  91.574  1.00  0.00     0.041 C 
HETATM    5  C   UNL     1      45.694  73.047  87.160  1.00  0.00     0.125 C 
HETATM    6  C   UNL     1      49.518  77.817  91.660  1.00  0.00     0.008 C 
HETATM    7  C   UNL     1      48.349  75.547  87.805  1.00  0.00     0.047 C 
HETATM    8  C   UNL     1      46.425  75.102  86.241  1.00  0.00     0.017 C 
HETATM    9  C   UNL     1      48.562  76.173  89.122  1.00  0.00    -0.041 C 
HETATM   10  C   UNL     1      44.593  75.012  87.873  1.00  0.00     0.015 C 
HETATM   11  C   UNL     1      46.137  75.890  89.932  1.00  0.00     0.119 C 
HETATM   12  C   UNL     1      49.939  76.787  89.353  1.00  0.00     0.082 C 
HETATM   13  C   UNL     1      50.628  75.599  91.482  1.00  0.00     0.008 C 
HETATM   14  C   UNL     1      50.897  75.823  90.018  1.00  0.00     0.043 C 
HETATM   15  C   UNL     1      46.933  73.461  87.945  1.00  0.00     0.042 C 
HETATM   16  C   UNL     1      45.855  75.672  88.434  1.00  0.00     0.022 C 
HETATM   17  C   UNL     1      47.647  76.029  90.152  1.00  0.00    -0.051 C 
HETATM   18  C   UNL     1      46.957  74.971  87.650  1.00  0.00    -0.028 C 
ENDROOT
BRANCH  11  19
HETATM   19  N   UNL     1      45.363  77.045  90.444  1.00  0.00    -0.371 N 
HETATM   20  C   UNL     1      45.622  78.329  89.754  1.00  0.00     0.129 C 
HETATM   21  C   UNL     1      44.454  78.491  88.758  1.00  0.00     0.093 C 
HETATM   22  C   UNL     1      43.291  78.915  89.652  1.00  0.00     0.192 C 
HETATM   23  C   UNL     1      43.054  77.855  90.732  1.00  0.00     0.030 A 
HETATM   24  C   UNL     1      41.912  77.986  91.514  1.00  0.00     0.015 A 
HETATM   25  C   UNL     1      44.112  77.005  91.121  1.00  0.00     0.042 A 
HETATM   26  C   UNL     1      41.729  77.153  92.595  1.00  0.00     0.001 A 
HETATM   27  C   UNL     1      42.722  76.258  92.954  1.00  0.00     0.002 A 
HETATM   28  C   UNL     1      43.928  76.229  92.268  1.00  0.00     0.030 A 
BRANCH  22  29
HETATM   29  O   UNL     1      43.587  80.133  90.297  1.00  0.00    -0.361 OA
ATOM     30  HO  UNL     1      43.674  79.999  91.233  1.00  0.00     0.213 HD
ENDBRANCH  22  29
BRANCH  22  31
HETATM   31  O   UNL     1      42.115  79.117  88.891  1.00  0.00    -0.361 OA
ATOM     32  HO  UNL     1      41.611  79.847  89.231  1.00  0.00     0.213 HD
ENDBRANCH  22  31
ENDBRANCH  11  19
BRANCH  12  33
HETATM   33  O   UNL     1      50.487  77.159  88.098  1.00  0.00    -0.385 OA
ATOM     34  HO  UNL     1      49.884  76.867  87.425  1.00  0.00     0.211 HD
ENDBRANCH  12  33
BRANCH   5  35
HETATM   35  O   UNL     1      45.758  72.057  86.153  1.00  0.00    -0.390 OA
HETATM   36  C   UNL     1      46.164  70.728  86.281  1.00  0.00     0.202 C 
ENDBRANCH   5  35
TORSDOF 5
ENDMDL
MODEL 6
REMARK VINA RESULT:      -6.7      2.973      5.977
REMARK  5 active torsions:
REMARK  status: ('A' for Active; 'I' for Inactive)
REMARK    1  A    between atoms: C_5  and  O_7 
REMARK    2  A    between atoms: O_12  and  C_20 
REMARK    3  A    between atoms: C_15  and  O_22 
REMARK    4  A    between atoms: C_15  and  O_31 
REMARK    5  A    between atoms: N_16  and  C_18 
ROOT
HETATM    1  C   UNL     1      44.393  78.611  86.965  1.00  0.00     0.043 C 
HETATM    2  C   UNL     1      43.263  78.405  89.224  1.00  0.00    -0.010 C 
HETATM    3  C   UNL     1      49.487  74.821  89.838  1.00  0.00     0.016 C 
HETATM    4  C   UNL     1      44.031  77.225  89.820  1.00  0.00     0.041 C 
HETATM    5  C   UNL     1      49.312  75.559  91.188  1.00  0.00     0.125 C 
HETATM    6  C   UNL     1      43.127  78.267  87.717  1.00  0.00     0.008 C 
HETATM    7  C   UNL     1      47.612  77.708  88.696  1.00  0.00     0.047 C 
HETATM    8  C   UNL     1      49.430  75.973  88.861  1.00  0.00     0.017 C 
HETATM    9  C   UNL     1      46.148  77.741  88.528  1.00  0.00    -0.041 C 
HETATM   10  C   UNL     1      48.121  74.101  89.761  1.00  0.00     0.015 C 
HETATM   11  C   UNL     1      45.736  75.362  89.415  1.00  0.00     0.119 C 
HETATM   12  C   UNL     1      45.585  78.978  87.835  1.00  0.00     0.082 C 
HETATM   13  C   UNL     1      43.897  79.749  89.559  1.00  0.00     0.008 C 
HETATM   14  C   UNL     1      45.171  80.052  88.818  1.00  0.00     0.043 C 
HETATM   15  C   UNL     1      48.307  76.666  90.889  1.00  0.00     0.042 C 
HETATM   16  C   UNL     1      47.245  75.200  89.153  1.00  0.00     0.022 C 
HETATM   17  C   UNL     1      45.324  76.812  89.142  1.00  0.00    -0.051 C 
HETATM   18  C   UNL     1      48.092  76.446  89.381  1.00  0.00    -0.028 C 
ENDROOT
BRANCH  11  19
HETATM   19  N   UNL     1      44.963  74.376  88.627  1.00  0.00    -0.371 N 
HETATM   20  C   UNL     1      44.651  74.788  87.239  1.00  0.00     0.129 C 
HETATM   21  C   UNL     1      45.703  74.073  86.364  1.00  0.00     0.093 C 
HETATM   22  C   UNL     1      45.198  72.633  86.319  1.00  0.00     0.192 C 
HETATM   23  C   UNL     1      45.084  72.079  87.743  1.00  0.00     0.030 A 
HETATM   24  C   UNL     1      44.822  70.720  87.879  1.00  0.00     0.015 A 
HETATM   25  C   UNL     1      44.915  72.968  88.827  1.00  0.00     0.042 A 
HETATM   26  C   UNL     1      44.558  70.200  89.125  1.00  0.00     0.001 A 
HETATM   27  C   UNL     1      44.460  71.043  90.219  1.00  0.00     0.002 A 
HETATM   28  C   UNL     1      44.570  72.417  90.064  1.00  0.00     0.030 A 
BRANCH  22  29
HETATM   29  O   UNL     1      43.919  72.580  85.728  1.00  0.00    -0.361 OA
ATOM     30  HO  UNL     1      43.506  71.744  85.908  1.00  0.00     0.213 HD
ENDBRANCH  22  29
BRANCH  22  31
HETATM   31  O   UNL     1      46.055  71.819  85.539  1.00  0.00    -0.361 OA
ATOM     32  HO  UNL     1      45.795  71.829  84.626  1.00  0.00     0.213 HD
ENDBRANCH  22  31
ENDBRANCH  11  19
BRANCH  12  33
HETATM   33  O   UNL     1      46.585  79.518  86.987  1.00  0.00    -0.385 OA
ATOM     34  HO  UNL     1      47.395  79.550  87.482  1.00  0.00     0.211 HD
ENDBRANCH  12  33
BRANCH   5  35
HETATM   35  O   UNL     1      50.572  75.844  91.760  1.00  0.00    -0.390 OA
HETATM   36  C   UNL     1      51.153  77.095  91.980  1.00  0.00     0.202 C 
ENDBRANCH   5  35
TORSDOF 5
ENDMDL
MODEL 7
REMARK VINA RESULT:      -6.7      1.680      4.854
REMARK  5 active torsions:
REMARK  status: ('A' for Active; 'I' for Inactive)
REMARK    1  A    between atoms: C_5  and  O_7 
REMARK    2  A    between atoms: O_12  and  C_20 
REMARK    3  A    between atoms: C_15  and  O_22 
REMARK    4  A    between atoms: C_15  and  O_31 
REMARK    5  A    between atoms: N_16  and  C_18 
ROOT
HETATM    1  C   UNL     1      45.329  75.270  92.587  1.00  0.00     0.043 C 
HETATM    2  C   UNL     1      45.053  73.702  90.616  1.00  0.00    -0.010 C 
HETATM    3  C   UNL     1      48.525  79.467  88.034  1.00  0.00     0.016 C 
HETATM    4  C   UNL     1      45.290  74.664  89.452  1.00  0.00     0.041 C 
HETATM    5  C   UNL     1      49.187  78.252  87.337  1.00  0.00     0.125 C 
HETATM    6  C   UNL     1      44.383  74.407  91.783  1.00  0.00     0.008 C 
HETATM    7  C   UNL     1      48.053  76.969  90.621  1.00  0.00     0.047 C 
HETATM    8  C   UNL     1      48.725  79.118  89.491  1.00  0.00     0.017 C 
HETATM    9  C   UNL     1      46.831  76.163  90.791  1.00  0.00    -0.041 C 
HETATM   10  C   UNL     1      47.044  79.176  87.703  1.00  0.00     0.015 C 
HETATM   11  C   UNL     1      45.622  77.092  88.720  1.00  0.00     0.119 C 
HETATM   12  C   UNL     1      46.757  75.328  92.066  1.00  0.00     0.082 C 
HETATM   13  C   UNL     1      46.334  73.028  91.092  1.00  0.00     0.008 C 
HETATM   14  C   UNL     1      47.270  73.919  91.864  1.00  0.00     0.043 C 
HETATM   15  C   UNL     1      48.821  77.063  88.218  1.00  0.00     0.042 C 
HETATM   16  C   UNL     1      46.676  78.209  88.832  1.00  0.00     0.022 C 
HETATM   17  C   UNL     1      45.910  76.012  89.767  1.00  0.00    -0.051 C 
HETATM   18  C   UNL     1      48.046  77.776  89.339  1.00  0.00    -0.028 C 
ENDROOT
BRANCH  11  19
HETATM   19  N   UNL     1      44.256  77.655  88.821  1.00  0.00    -0.371 N 
HETATM   20  C   UNL     1      44.038  78.572  89.962  1.00  0.00     0.129 C 
HETATM   21  C   UNL     1      44.152  79.990  89.363  1.00  0.00     0.093 C 
HETATM   22  C   UNL     1      42.821  80.170  88.638  1.00  0.00     0.192 C 
HETATM   23  C   UNL     1      42.644  79.059  87.597  1.00  0.00     0.030 A 
HETATM   24  C   UNL     1      41.577  79.178  86.713  1.00  0.00     0.015 A 
HETATM   25  C   UNL     1      43.322  77.832  87.762  1.00  0.00     0.042 A 
HETATM   26  C   UNL     1      41.281  78.139  85.862  1.00  0.00     0.001 A 
HETATM   27  C   UNL     1      41.982  76.948  85.954  1.00  0.00     0.002 A 
HETATM   28  C   UNL     1      42.946  76.771  86.935  1.00  0.00     0.030 A 
BRANCH  22  29
HETATM   29  O   UNL     1      41.749  80.084  89.550  1.00  0.00    -0.361 OA
ATOM     30  HO  UNL     1      41.711  80.865  90.089  1.00  0.00     0.213 HD
ENDBRANCH  22  29
BRANCH  22  31
HETATM   31  O   UNL     1      42.746  81.441  88.021  1.00  0.00    -0.361 OA
ATOM     32  HO  UNL     1      43.582  81.686  87.642  1.00  0.00     0.213 HD
ENDBRANCH  22  31
ENDBRANCH  11  19
BRANCH  12  33
HETATM   33  O   UNL     1      47.552  75.949  93.062  1.00  0.00    -0.385 OA
ATOM     34  HO  UNL     1      48.436  75.611  92.976  1.00  0.00     0.211 HD
ENDBRANCH  12  33
BRANCH   5  35
HETATM   35  O   UNL     1      50.532  78.542  87.015  1.00  0.00    -0.390 OA
HETATM   36  C   UNL     1      51.672  78.293  87.782  1.00  0.00     0.202 C 
ENDBRANCH   5  35
TORSDOF 5
ENDMDL
MODEL 8
REMARK VINA RESULT:      -6.5      2.860      6.788
REMARK  5 active torsions:
REMARK  status: ('A' for Active; 'I' for Inactive)
REMARK    1  A    between atoms: C_5  and  O_7 
REMARK    2  A    between atoms: O_12  and  C_20 
REMARK    3  A    between atoms: C_15  and  O_22 
REMARK    4  A    between atoms: C_15  and  O_31 
REMARK    5  A    between atoms: N_16  and  C_18 
ROOT
HETATM    1  C   UNL     1      47.626  73.416  91.619  1.00  0.00     0.043 C 
HETATM    2  C   UNL     1      49.026  74.013  89.592  1.00  0.00    -0.010 C 
HETATM    3  C   UNL     1      43.299  78.384  89.346  1.00  0.00     0.016 C 
HETATM    4  C   UNL     1      47.996  74.761  88.746  1.00  0.00     0.041 C 
HETATM    5  C   UNL     1      44.496  79.262  88.904  1.00  0.00     0.125 C 
HETATM    6  C   UNL     1      48.371  72.909  90.405  1.00  0.00     0.008 C 
HETATM    7  C   UNL     1      45.948  76.762  91.219  1.00  0.00     0.047 C 
HETATM    8  C   UNL     1      43.765  77.909  90.703  1.00  0.00     0.017 C 
HETATM    9  C   UNL     1      46.692  75.577  90.759  1.00  0.00    -0.041 C 
HETATM   10  C   UNL     1      43.477  77.197  88.371  1.00  0.00     0.015 C 
HETATM   11  C   UNL     1      45.544  75.432  88.461  1.00  0.00     0.119 C 
HETATM   12  C   UNL     1      47.613  74.928  91.787  1.00  0.00     0.082 C 
HETATM   13  C   UNL     1      49.806  74.936  90.520  1.00  0.00     0.008 C 
HETATM   14  C   UNL     1      49.030  75.449  91.703  1.00  0.00     0.043 C 
HETATM   15  C   UNL     1      45.723  78.519  89.419  1.00  0.00     0.042 C 
HETATM   16  C   UNL     1      44.502  76.348  89.128  1.00  0.00     0.022 C 
HETATM   17  C   UNL     1      46.713  75.203  89.425  1.00  0.00    -0.051 C 
HETATM   18  C   UNL     1      45.050  77.341  90.145  1.00  0.00    -0.028 C 
ENDROOT
BRANCH  11  19
HETATM   19  N   UNL     1      44.912  74.174  88.002  1.00  0.00    -0.371 N 
HETATM   20  C   UNL     1      44.644  74.101  86.547  1.00  0.00     0.129 C 
HETATM   21  C   UNL     1      45.807  73.266  85.969  1.00  0.00     0.093 C 
HETATM   22  C   UNL     1      45.440  71.838  86.364  1.00  0.00     0.192 C 
HETATM   23  C   UNL     1      45.294  71.742  87.886  1.00  0.00     0.030 A 
HETATM   24  C   UNL     1      45.150  70.473  88.435  1.00  0.00     0.015 A 
HETATM   25  C   UNL     1      44.981  72.900  88.632  1.00  0.00     0.042 A 
HETATM   26  C   UNL     1      44.863  70.339  89.774  1.00  0.00     0.001 A 
HETATM   27  C   UNL     1      44.624  71.464  90.545  1.00  0.00     0.002 A 
HETATM   28  C   UNL     1      44.617  72.726  89.970  1.00  0.00     0.030 A 
BRANCH  22  29
HETATM   29  O   UNL     1      44.207  71.470  85.786  1.00  0.00    -0.361 OA
ATOM     30  HO  UNL     1      44.313  71.309  84.856  1.00  0.00     0.213 HD
ENDBRANCH  22  29
BRANCH  22  31
HETATM   31  O   UNL     1      46.411  70.917  85.902  1.00  0.00    -0.361 OA
ATOM     32  HO  UNL     1      46.292  70.732  84.979  1.00  0.00     0.213 HD
ENDBRANCH  22  31
ENDBRANCH  11  19
BRANCH  12  33
HETATM   33  O   UNL     1      47.114  75.210  93.085  1.00  0.00    -0.385 OA
ATOM     34  HO  UNL     1      46.756  76.090  93.069  1.00  0.00     0.211 HD
ENDBRANCH  12  33
BRANCH   5  35
HETATM   35  O   UNL     1      44.261  80.615  89.235  1.00  0.00    -0.390 OA
HETATM   36  C   UNL     1      45.133  81.697  89.097  1.00  0.00     0.202 C 
ENDBRANCH   5  35
TORSDOF 5
ENDMDL
MODEL 9
REMARK VINA RESULT:      -6.5      2.605      5.319
REMARK  5 active torsions:
REMARK  status: ('A' for Active; 'I' for Inactive)
REMARK    1  A    between atoms: C_5  and  O_7 
REMARK    2  A    between atoms: O_12  and  C_20 
REMARK    3  A    between atoms: C_15  and  O_22 
REMARK    4  A    between atoms: C_15  and  O_31 
REMARK    5  A    between atoms: N_16  and  C_18 
ROOT
HETATM    1  C   UNL     1      48.422  74.606  92.671  1.00  0.00     0.043 C 
HETATM    2  C   UNL     1      46.176  74.004  93.679  1.00  0.00    -0.010 C 
HETATM    3  C   UNL     1      45.284  73.537  86.541  1.00  0.00     0.016 C 
HETATM    4  C   UNL     1      45.262  74.188  92.467  1.00  0.00     0.041 C 
HETATM    5  C   UNL     1      44.488  72.344  87.126  1.00  0.00     0.125 C 
HETATM    6  C   UNL     1      47.333  74.988  93.648  1.00  0.00     0.008 C 
HETATM    7  C   UNL     1      47.258  72.909  89.518  1.00  0.00     0.047 C 
HETATM    8  C   UNL     1      46.665  73.273  87.097  1.00  0.00     0.017 C 
HETATM    9  C   UNL     1      47.081  73.612  90.802  1.00  0.00    -0.041 C 
HETATM   10  C   UNL     1      44.676  74.685  87.378  1.00  0.00     0.015 C 
HETATM   11  C   UNL     1      45.053  75.005  90.052  1.00  0.00     0.119 C 
HETATM   12  C   UNL     1      48.152  73.350  91.856  1.00  0.00     0.082 C 
HETATM   13  C   UNL     1      46.716  72.584  93.797  1.00  0.00     0.008 C 
HETATM   14  C   UNL     1      47.776  72.222  92.792  1.00  0.00     0.043 C 
HETATM   15  C   UNL     1      45.064  72.151  88.523  1.00  0.00     0.042 C 
HETATM   16  C   UNL     1      45.534  74.611  88.643  1.00  0.00     0.022 C 
HETATM   17  C   UNL     1      45.915  74.296  91.102  1.00  0.00    -0.051 C 
HETATM   18  C   UNL     1      46.163  73.228  88.522  1.00  0.00    -0.028 C 
ENDROOT
BRANCH  11  19
HETATM   19  N   UNL     1      45.040  76.478  90.204  1.00  0.00    -0.371 N 
HETATM   20  C   UNL     1      46.057  77.200  89.407  1.00  0.00     0.129 C 
HETATM   21  C   UNL     1      45.298  77.716  88.165  1.00  0.00     0.093 C 
HETATM   22  C   UNL     1      44.511  78.906  88.708  1.00  0.00     0.192 C 
HETATM   23  C   UNL     1      43.603  78.449  89.854  1.00  0.00     0.030 A 
HETATM   24  C   UNL     1      42.676  79.365  90.337  1.00  0.00     0.015 A 
HETATM   25  C   UNL     1      43.935  77.289  90.588  1.00  0.00     0.042 A 
HETATM   26  C   UNL     1      41.943  79.061  91.461  1.00  0.00     0.001 A 
HETATM   27  C   UNL     1      42.199  77.893  92.159  1.00  0.00     0.002 A 
HETATM   28  C   UNL     1      43.227  77.048  91.768  1.00  0.00     0.030 A 
BRANCH  22  29
HETATM   29  O   UNL     1      45.390  79.886  89.215  1.00  0.00    -0.361 OA
ATOM     30  HO  UNL     1      45.736  80.418  88.508  1.00  0.00     0.213 HD
ENDBRANCH  22  29
BRANCH  22  31
HETATM   31  O   UNL     1      43.747  79.518  87.685  1.00  0.00    -0.361 OA
ATOM     32  HO  UNL     1      43.544  78.898  86.995  1.00  0.00     0.213 HD
ENDBRANCH  22  31
ENDBRANCH  11  19
BRANCH  12  33
HETATM   33  O   UNL     1      49.359  72.997  91.200  1.00  0.00    -0.385 OA
ATOM     34  HO  UNL     1      49.822  73.801  90.999  1.00  0.00     0.211 HD
ENDBRANCH  12  33
BRANCH   5  35
HETATM   35  O   UNL     1      44.442  71.280  86.196  1.00  0.00    -0.390 OA
HETATM   36  C   UNL     1      43.340  70.501  85.837  1.00  0.00     0.202 C 
ENDBRANCH   5  35
TORSDOF 5
ENDMDL
