REMARK  3 active torsions:
REMARK  status: ('A' for Active; 'I' for Inactive)
REMARK    1  A    between atoms: O_8  and  C_31 
REMARK    2  A    between atoms: C_21  and  C_31 
REMARK    3  A    between atoms: O_28  and  C_31 
ROOT
HETATM    1  C   UNL     1       0.904  48.399   6.328  1.00  0.00     0.013 C 
HETATM    2  C   UNL     1       6.489  44.940   7.310  1.00  0.00    -0.025 C 
HETATM    3  C   UNL     1       2.325  46.345   6.115  1.00  0.00     0.236 C 
HETATM    4  C   UNL     1       6.544  44.401   5.894  1.00  0.00     0.060 C 
HETATM    5  C   UNL     1       1.757  47.380   7.116  1.00  0.00     0.029 C 
HETATM    6  C   UNL     1       4.380  44.273   3.116  1.00  0.00     0.216 C 
HETATM    7  C   UNL     1       4.595  46.728   7.219  1.00  0.00    -0.020 C 
HETATM    8  C   UNL     1       2.138  45.301   3.879  1.00  0.00     0.253 C 
HETATM    9  C   UNL     1       4.217  44.061   1.637  1.00  0.00     0.006 C 
HETATM   10  C   UNL     1       3.855  46.472   5.941  1.00  0.00     0.048 C 
HETATM   11  C   UNL     1      -0.300  47.516   5.975  1.00  0.00     0.015 C 
HETATM   12  C   UNL     1       1.840  44.830   1.311  1.00  0.00    -0.002 C 
HETATM   13  C   UNL     1       4.238  45.213   5.145  1.00  0.00     0.035 C 
HETATM   14  N   UNL     1       5.775  44.502   3.518  1.00  0.00    -0.062 N 
ATOM     15  HN1 UNL     1       6.312  45.011   2.816  1.00  0.00     0.278 HD
ATOM     16  HN2 UNL     1       6.333  43.648   3.520  1.00  0.00     0.278 HD
HETATM   17  N   UNL     1       1.665  46.452   4.769  1.00  0.00     0.103 N 
HETATM   18  C   UNL     1       0.733  46.572   7.953  1.00  0.00     0.054 C 
HETATM   19  C   UNL     1       2.990  44.021   1.020  1.00  0.00    -0.002 C 
HETATM   20  C   UNL     1       5.737  46.148   7.696  1.00  0.00    -0.008 C 
HETATM   21  C   UNL     1       0.171  46.422   4.984  1.00  0.00     0.278 C 
HETATM   22  C   UNL     1      -0.636  46.836   7.321  1.00  0.00     0.017 C 
HETATM   23  C   UNL     1       3.685  45.527   3.714  1.00  0.00     0.064 C 
HETATM   24  C   UNL     1       5.756  45.175   4.822  1.00  0.00     0.195 C 
HETATM   25  C   UNL     1       1.428  45.495   2.529  1.00  0.00     0.009 C 
ENDROOT
BRANCH  18  26
HETATM   26  C   UNL     1       0.886  46.656   9.484  1.00  0.00     0.159 C 
HETATM   27  C   UNL     1       0.252  47.882  10.123  1.00  0.00     0.079 C 
BRANCH  26  28
HETATM   28  O   UNL     1       0.361  45.485  10.068  1.00  0.00    -0.365 OA
ATOM     29  HO  UNL     1       0.757  44.719   9.669  1.00  0.00     0.213 HD
ENDBRANCH  26  28
BRANCH  26  30
HETATM   30  O   UNL     1       2.258  46.646   9.782  1.00  0.00    -0.365 OA
ATOM     31  HO  UNL     1       2.612  47.435   9.389  1.00  0.00     0.213 HD
ENDBRANCH  26  30
ENDBRANCH  18  26
TORSDOF 3
