MODEL 1
REMARK VINA RESULT:     -11.1      0.000      0.000
REMARK  1 active torsions:
REMARK  status: ('A' for Active; 'I' for Inactive)
REMARK    1  A    between atoms: O_10  and  C_13 
ROOT
HETATM    1  N   UNL     1       5.403  43.806   4.430  1.00  0.00    -0.351 N 
ATOM      2  HN  UNL     1       5.216  43.273   3.581  1.00  0.00     0.166 HD
HETATM    3  C   UNL     1       1.223  45.751   8.087  1.00  0.00     0.011 C 
HETATM    4  C   UNL     1       0.638  46.217   9.436  1.00  0.00     0.005 C 
HETATM    5  C   UNL     1      -0.184  47.411   6.845  1.00  0.00     0.028 C 
HETATM    6  C   UNL     1       2.667  45.411   3.602  1.00  0.00     0.052 C 
HETATM    7  C   UNL     1       1.451  48.184   8.299  1.00  0.00     0.015 C 
HETATM    8  C   UNL     1      -0.971  44.904   3.256  1.00  0.00     0.049 C 
HETATM    9  C   UNL     1       3.128  44.883   2.397  1.00  0.00     0.031 C 
HETATM   10  C   UNL     1       6.256  44.411   6.433  1.00  0.00     0.032 C 
HETATM   11  C   UNL     1      -0.384  46.980   5.393  1.00  0.00     0.153 C 
HETATM   12  C   UNL     1       4.662  44.820   4.939  1.00  0.00     0.122 C 
HETATM   13  C   UNL     1       1.317  45.864   3.758  1.00  0.00     0.003 C 
HETATM   14  C   UNL     1       0.426  45.815   1.402  1.00  0.00     0.007 C 
HETATM   15  C   UNL     1       0.283  47.690   9.182  1.00  0.00    -0.013 C 
HETATM   16  C   UNL     1       3.325  46.431   5.739  1.00  0.00     0.029 C 
HETATM   17  C   UNL     1       5.238  45.321   6.104  1.00  0.00     0.012 C 
HETATM   18  C   UNL     1       0.302  45.552   2.775  1.00  0.00    -0.049 C 
HETATM   19  N   UNL     1       3.515  45.543   4.696  1.00  0.00    -0.299 N 
HETATM   20  C   UNL     1       1.247  47.057   7.283  1.00  0.00    -0.021 C 
HETATM   21  C   UNL     1      -0.896  47.627   8.168  1.00  0.00     0.013 C 
HETATM   22  C   UNL     1       1.013  46.682   4.901  1.00  0.00    -0.027 C 
HETATM   23  C   UNL     1       2.548  44.650   1.169  1.00  0.00     0.002 C 
HETATM   24  C   UNL     1       1.324  45.047   0.630  1.00  0.00     0.001 C 
HETATM   25  C   UNL     1       2.010  47.086   5.957  1.00  0.00     0.077 C 
HETATM   26  C   UNL     1       6.449  43.644   5.289  1.00  0.00     0.090 C 
HETATM   27  C   UNL     1       4.462  46.425   6.544  1.00  0.00     0.041 C 
ENDROOT
BRANCH  11  28
HETATM   28  O   UNL     1      -0.870  48.057   4.601  1.00  0.00    -0.391 OA
ATOM     29  HO  UNL     1      -1.305  48.708   5.139  1.00  0.00     0.210 HD
ENDBRANCH  11  28
TORSDOF 1
ENDMDL
MODEL 2
REMARK VINA RESULT:     -10.2      2.032      4.678
REMARK  1 active torsions:
REMARK  status: ('A' for Active; 'I' for Inactive)
REMARK    1  A    between atoms: O_10  and  C_13 
ROOT
HETATM    1  N   UNL     1       0.124  45.723   1.624  1.00  0.00    -0.351 N 
ATOM      2  HN  UNL     1       0.939  45.509   1.049  1.00  0.00     0.166 HD
HETATM    3  C   UNL     1       0.322  48.905   6.570  1.00  0.00     0.011 C 
HETATM    4  C   UNL     1      -0.234  49.828   7.674  1.00  0.00     0.005 C 
HETATM    5  C   UNL     1       1.707  47.655   8.242  1.00  0.00     0.028 C 
HETATM    6  C   UNL     1       2.224  45.345   4.114  1.00  0.00     0.052 C 
HETATM    7  C   UNL     1      -0.606  47.555   8.396  1.00  0.00     0.015 C 
HETATM    8  C   UNL     1       5.214  46.900   5.613  1.00  0.00     0.049 C 
HETATM    9  C   UNL     1       2.794  44.611   3.075  1.00  0.00     0.031 C 
HETATM   10  C   UNL     1      -1.929  46.431   2.249  1.00  0.00     0.032 C 
HETATM   11  C   UNL     1       2.890  46.964   7.566  1.00  0.00     0.153 C 
HETATM   12  C   UNL     1       0.075  45.802   2.976  1.00  0.00     0.122 C 
HETATM   13  C   UNL     1       2.986  45.752   5.256  1.00  0.00     0.003 C 
HETATM   14  C   UNL     1       5.148  44.490   4.973  1.00  0.00     0.007 C 
HETATM   15  C   UNL     1      -0.194  48.945   8.931  1.00  0.00    -0.013 C 
HETATM   16  C   UNL     1       0.119  45.990   5.209  1.00  0.00     0.029 C 
HETATM   17  C   UNL     1      -1.215  46.095   3.411  1.00  0.00     0.012 C 
HETATM   18  C   UNL     1       4.430  45.661   5.265  1.00  0.00    -0.049 C 
HETATM   19  N   UNL     1       0.876  45.689   4.091  1.00  0.00    -0.299 N 
HETATM   20  C   UNL     1       0.481  47.576   7.318  1.00  0.00    -0.021 C 
HETATM   21  C   UNL     1       1.324  48.756   9.214  1.00  0.00     0.013 C 
HETATM   22  C   UNL     1       2.267  46.211   6.413  1.00  0.00    -0.027 C 
HETATM   23  C   UNL     1       4.058  44.121   2.831  1.00  0.00     0.002 C 
HETATM   24  C   UNL     1       5.187  44.019   3.642  1.00  0.00     0.001 C 
HETATM   25  C   UNL     1       0.765  46.309   6.508  1.00  0.00     0.077 C 
HETATM   26  C   UNL     1      -1.141  45.987   1.192  1.00  0.00     0.090 C 
HETATM   27  C   UNL     1      -1.217  46.089   4.830  1.00  0.00     0.041 C 
ENDROOT
BRANCH  11  28
HETATM   28  O   UNL     1       3.470  45.987   8.420  1.00  0.00    -0.391 OA
ATOM     29  HO  UNL     1       3.045  45.980   9.270  1.00  0.00     0.210 HD
ENDBRANCH  11  28
TORSDOF 1
ENDMDL
MODEL 3
REMARK VINA RESULT:      -9.7      1.894      2.652
REMARK  1 active torsions:
REMARK  status: ('A' for Active; 'I' for Inactive)
REMARK    1  A    between atoms: O_10  and  C_13 
ROOT
HETATM    1  N   UNL     1       5.027  43.797   3.690  1.00  0.00    -0.351 N 
ATOM      2  HN  UNL     1       5.182  43.118   2.944  1.00  0.00     0.166 HD
HETATM    3  C   UNL     1      -0.292  45.449   5.591  1.00  0.00     0.011 C 
HETATM    4  C   UNL     1      -1.318  45.992   6.606  1.00  0.00     0.005 C 
HETATM    5  C   UNL     1      -1.462  46.613   3.706  1.00  0.00     0.028 C 
HETATM    6  C   UNL     1       2.485  44.721   1.838  1.00  0.00     0.052 C 
HETATM    7  C   UNL     1      -0.469  47.886   5.373  1.00  0.00     0.015 C 
HETATM    8  C   UNL     1      -0.771  43.499   0.607  1.00  0.00     0.049 C 
HETATM    9  C   UNL     1       3.358  44.116   0.936  1.00  0.00     0.031 C 
HETATM   10  C   UNL     1       5.138  44.841   5.690  1.00  0.00     0.032 C 
HETATM   11  C   UNL     1      -1.150  45.942   2.370  1.00  0.00     0.153 C 
HETATM   12  C   UNL     1       4.037  44.719   3.764  1.00  0.00     0.122 C 
HETATM   13  C   UNL     1       1.103  44.933   1.522  1.00  0.00     0.003 C 
HETATM   14  C   UNL     1       0.990  44.369  -0.930  1.00  0.00     0.007 C 
HETATM   15  C   UNL     1      -1.773  47.319   5.978  1.00  0.00    -0.013 C 
HETATM   16  C   UNL     1       2.315  46.152   3.830  1.00  0.00     0.029 C 
HETATM   17  C   UNL     1       4.157  45.486   4.920  1.00  0.00     0.012 C 
HETATM   18  C   UNL     1       0.489  44.294   0.379  1.00  0.00    -0.049 C 
HETATM   19  N   UNL     1       2.932  45.171   3.076  1.00  0.00    -0.299 N 
HETATM   20  C   UNL     1      -0.200  46.602   4.584  1.00  0.00    -0.021 C 
HETATM   21  C   UNL     1      -2.566  46.887   4.711  1.00  0.00     0.013 C 
HETATM   22  C   UNL     1       0.358  45.840   2.352  1.00  0.00    -0.027 C 
HETATM   23  C   UNL     1       3.217  43.599  -0.333  1.00  0.00     0.002 C 
HETATM   24  C   UNL     1       2.176  43.675  -1.256  1.00  0.00     0.001 C 
HETATM   25  C   UNL     1       0.921  46.576   3.542  1.00  0.00     0.077 C 
HETATM   26  C   UNL     1       5.773  43.963   4.819  1.00  0.00     0.090 C 
HETATM   27  C   UNL     1       3.142  46.478   4.902  1.00  0.00     0.041 C 
ENDROOT
BRANCH  11  28
HETATM   28  O   UNL     1      -1.511  46.779   1.279  1.00  0.00    -0.391 OA
ATOM     29  HO  UNL     1      -2.409  46.622   1.010  1.00  0.00     0.210 HD
ENDBRANCH  11  28
TORSDOF 1
ENDMDL
MODEL 4
REMARK VINA RESULT:      -9.7      2.489      5.556
REMARK  1 active torsions:
REMARK  status: ('A' for Active; 'I' for Inactive)
REMARK    1  A    between atoms: O_10  and  C_13 
ROOT
HETATM    1  N   UNL     1       1.239  46.174   2.278  1.00  0.00    -0.351 N 
ATOM      2  HN  UNL     1       2.221  46.389   2.455  1.00  0.00     0.166 HD
HETATM    3  C   UNL     1      -3.247  48.601   5.212  1.00  0.00     0.011 C 
HETATM    4  C   UNL     1      -4.698  49.079   5.421  1.00  0.00     0.005 C 
HETATM    5  C   UNL     1      -3.081  47.892   7.609  1.00  0.00     0.028 C 
HETATM    6  C   UNL     1       0.956  46.467   5.531  1.00  0.00     0.052 C 
HETATM    7  C   UNL     1      -4.580  46.802   6.213  1.00  0.00     0.015 C 
HETATM    8  C   UNL     1       1.188  48.980   8.222  1.00  0.00     0.049 C 
HETATM    9  C   UNL     1       2.301  46.158   5.335  1.00  0.00     0.031 C 
HETATM   10  C   UNL     1      -0.726  45.872   1.205  1.00  0.00     0.032 C 
HETATM   11  C   UNL     1      -1.623  47.844   8.066  1.00  0.00     0.153 C 
HETATM   12  C   UNL     1       0.245  46.083   3.193  1.00  0.00     0.122 C 
HETATM   13  C   UNL     1       0.486  47.038   6.758  1.00  0.00     0.003 C 
HETATM   14  C   UNL     1       2.489  46.852   8.274  1.00  0.00     0.007 C 
HETATM   15  C   UNL     1      -5.214  48.171   6.548  1.00  0.00    -0.013 C 
HETATM   16  C   UNL     1      -1.343  46.037   4.774  1.00  0.00     0.029 C 
HETATM   17  C   UNL     1      -0.963  45.752   2.584  1.00  0.00     0.012 C 
HETATM   18  C   UNL     1       1.406  47.569   7.740  1.00  0.00    -0.049 C 
HETATM   19  N   UNL     1       0.011  46.205   4.545  1.00  0.00    -0.299 N 
HETATM   20  C   UNL     1      -3.170  47.396   6.157  1.00  0.00    -0.021 C 
HETATM   21  C   UNL     1      -4.400  48.617   7.798  1.00  0.00     0.013 C 
HETATM   22  C   UNL     1      -0.930  47.023   7.003  1.00  0.00    -0.027 C 
HETATM   23  C   UNL     1       3.435  46.281   6.108  1.00  0.00     0.002 C 
HETATM   24  C   UNL     1       3.610  46.584   7.457  1.00  0.00     0.001 C 
HETATM   25  C   UNL     1      -1.961  46.463   6.057  1.00  0.00     0.077 C 
HETATM   26  C   UNL     1       0.657  45.919   1.072  1.00  0.00     0.090 C 
HETATM   27  C   UNL     1      -1.944  45.597   3.598  1.00  0.00     0.041 C 
ENDROOT
BRANCH  11  28
HETATM   28  O   UNL     1      -1.491  47.123   9.284  1.00  0.00    -0.391 OA
ATOM     29  HO  UNL     1      -2.191  46.488   9.384  1.00  0.00     0.210 HD
ENDBRANCH  11  28
TORSDOF 1
ENDMDL
MODEL 5
REMARK VINA RESULT:      -9.7      1.419      2.101
REMARK  1 active torsions:
REMARK  status: ('A' for Active; 'I' for Inactive)
REMARK    1  A    between atoms: O_10  and  C_13 
ROOT
HETATM    1  N   UNL     1       3.179  44.388   2.881  1.00  0.00    -0.351 N 
ATOM      2  HN  UNL     1       2.668  43.994   2.091  1.00  0.00     0.166 HD
HETATM    3  C   UNL     1       0.682  45.918   7.986  1.00  0.00     0.011 C 
HETATM    4  C   UNL     1       0.635  46.200   9.501  1.00  0.00     0.005 C 
HETATM    5  C   UNL     1      -0.920  47.791   7.536  1.00  0.00     0.028 C 
HETATM    6  C   UNL     1       0.470  46.194   3.274  1.00  0.00     0.052 C 
HETATM    7  C   UNL     1       1.173  48.284   8.409  1.00  0.00     0.015 C 
HETATM    8  C   UNL     1      -3.095  45.872   4.164  1.00  0.00     0.049 C 
HETATM    9  C   UNL     1       0.445  45.834   1.927  1.00  0.00     0.031 C 
HETATM   10  C   UNL     1       4.713  44.661   4.517  1.00  0.00     0.032 C 
HETATM   11  C   UNL     1      -1.640  47.587   6.204  1.00  0.00     0.153 C 
HETATM   12  C   UNL     1       2.745  45.342   3.741  1.00  0.00     0.122 C 
HETATM   13  C   UNL     1      -0.702  46.666   3.949  1.00  0.00     0.003 C 
HETATM   14  C   UNL     1      -2.345  46.997   2.069  1.00  0.00     0.007 C 
HETATM   15  C   UNL     1       0.340  47.706   9.575  1.00  0.00    -0.013 C 
HETATM   16  C   UNL     1       1.904  46.862   5.156  1.00  0.00     0.029 C 
HETATM   17  C   UNL     1       3.725  45.645   4.683  1.00  0.00     0.012 C 
HETATM   18  C   UNL     1      -2.014  46.539   3.354  1.00  0.00    -0.049 C 
HETATM   19  N   UNL     1       1.649  46.132   4.009  1.00  0.00    -0.299 N 
HETATM   20  C   UNL     1       0.539  47.326   7.396  1.00  0.00    -0.021 C 
HETATM   21  C   UNL     1      -1.115  47.835   9.040  1.00  0.00     0.013 C 
HETATM   22  C   UNL     1      -0.526  47.316   5.219  1.00  0.00    -0.027 C 
HETATM   23  C   UNL     1      -0.538  45.805   0.962  1.00  0.00     0.002 C 
HETATM   24  C   UNL     1      -1.833  46.320   0.941  1.00  0.00     0.001 C 
HETATM   25  C   UNL     1       0.802  47.525   5.902  1.00  0.00     0.077 C 
HETATM   26  C   UNL     1       4.438  44.065   3.291  1.00  0.00     0.090 C 
HETATM   27  C   UNL     1       3.242  46.698   5.503  1.00  0.00     0.041 C 
ENDROOT
BRANCH  11  28
HETATM   28  O   UNL     1      -2.275  48.785   5.776  1.00  0.00    -0.391 OA
ATOM     29  HO  UNL     1      -1.667  49.515   5.780  1.00  0.00     0.210 HD
ENDBRANCH  11  28
TORSDOF 1
ENDMDL
MODEL 6
REMARK VINA RESULT:      -9.5      1.895      5.714
REMARK  1 active torsions:
REMARK  status: ('A' for Active; 'I' for Inactive)
REMARK    1  A    between atoms: O_10  and  C_13 
ROOT
HETATM    1  N   UNL     1       2.155  47.409   8.465  1.00  0.00    -0.351 N 
ATOM      2  HN  UNL     1       2.875  46.951   9.025  1.00  0.00     0.166 HD
HETATM    3  C   UNL     1      -0.275  45.049   3.654  1.00  0.00     0.011 C 
HETATM    4  C   UNL     1      -1.374  44.832   2.593  1.00  0.00     0.005 C 
HETATM    5  C   UNL     1       1.518  44.801   1.921  1.00  0.00     0.028 C 
HETATM    6  C   UNL     1       3.738  46.031   5.947  1.00  0.00     0.052 C 
HETATM    7  C   UNL     1       0.056  46.598   1.781  1.00  0.00     0.015 C 
HETATM    8  C   UNL     1       4.498  42.728   4.490  1.00  0.00     0.049 C 
HETATM    9  C   UNL     1       4.702  46.111   6.950  1.00  0.00     0.031 C 
HETATM   10  C   UNL     1       0.244  48.466   7.886  1.00  0.00     0.032 C 
HETATM   11  C   UNL     1       2.842  44.386   2.560  1.00  0.00     0.153 C 
HETATM   12  C   UNL     1       2.015  47.364   7.119  1.00  0.00     0.122 C 
HETATM   13  C   UNL     1       3.896  45.165   4.817  1.00  0.00     0.003 C 
HETATM   14  C   UNL     1       6.282  44.385   5.031  1.00  0.00     0.007 C 
HETATM   15  C   UNL     1      -0.732  45.359   1.301  1.00  0.00    -0.013 C 
HETATM   16  C   UNL     1       1.823  47.159   4.895  1.00  0.00     0.029 C 
HETATM   17  C   UNL     1       0.926  48.128   6.706  1.00  0.00     0.012 C 
HETATM   18  C   UNL     1       4.920  44.143   4.792  1.00  0.00    -0.049 C 
HETATM   19  N   UNL     1       2.590  46.814   5.994  1.00  0.00    -0.299 N 
HETATM   20  C   UNL     1       0.799  45.793   2.850  1.00  0.00    -0.021 C 
HETATM   21  C   UNL     1       0.405  44.339   0.999  1.00  0.00     0.013 C 
HETATM   22  C   UNL     1       3.035  45.376   3.685  1.00  0.00    -0.027 C 
HETATM   23  C   UNL     1       5.915  45.492   7.164  1.00  0.00     0.002 C 
HETATM   24  C   UNL     1       6.709  44.696   6.340  1.00  0.00     0.001 C 
HETATM   25  C   UNL     1       1.965  46.435   3.605  1.00  0.00     0.077 C 
HETATM   26  C   UNL     1       1.135  48.192   8.918  1.00  0.00     0.090 C 
HETATM   27  C   UNL     1       0.878  48.103   5.288  1.00  0.00     0.041 C 
ENDROOT
BRANCH  11  28
HETATM   28  O   UNL     1       3.927  44.579   1.661  1.00  0.00    -0.391 OA
ATOM     29  HO  UNL     1       3.930  45.462   1.312  1.00  0.00     0.210 HD
ENDBRANCH  11  28
TORSDOF 1
ENDMDL
MODEL 7
REMARK VINA RESULT:      -9.4      2.427      5.511
REMARK  1 active torsions:
REMARK  status: ('A' for Active; 'I' for Inactive)
REMARK    1  A    between atoms: O_10  and  C_13 
ROOT
HETATM    1  N   UNL     1       2.644  45.718   3.588  1.00  0.00    -0.351 N 
ATOM      2  HN  UNL     1       3.475  46.083   4.056  1.00  0.00     0.166 HD
HETATM    3  C   UNL     1      -2.721  48.085   4.074  1.00  0.00     0.011 C 
HETATM    4  C   UNL     1      -4.162  48.410   3.631  1.00  0.00     0.005 C 
HETATM    5  C   UNL     1      -3.450  47.871   6.462  1.00  0.00     0.028 C 
HETATM    6  C   UNL     1       1.132  46.588   6.363  1.00  0.00     0.052 C 
HETATM    7  C   UNL     1      -4.257  46.358   4.898  1.00  0.00     0.015 C 
HETATM    8  C   UNL     1       0.213  49.575   8.322  1.00  0.00     0.049 C 
HETATM    9  C   UNL     1       2.462  46.416   6.742  1.00  0.00     0.031 C 
HETATM   10  C   UNL     1       1.251  44.977   1.971  1.00  0.00     0.032 C 
HETATM   11  C   UNL     1      -2.276  48.092   7.415  1.00  0.00     0.153 C 
HETATM   12  C   UNL     1       1.381  45.681   4.075  1.00  0.00     0.122 C 
HETATM   13  C   UNL     1       0.205  47.319   7.175  1.00  0.00     0.003 C 
HETATM   14  C   UNL     1       1.486  47.674   9.315  1.00  0.00     0.007 C 
HETATM   15  C   UNL     1      -5.029  47.676   4.666  1.00  0.00    -0.013 C 
HETATM   16  C   UNL     1      -0.685  45.740   4.941  1.00  0.00     0.029 C 
HETATM   17  C   UNL     1       0.512  45.093   3.160  1.00  0.00     0.012 C 
HETATM   18  C   UNL     1       0.658  48.136   8.280  1.00  0.00    -0.049 C 
HETATM   19  N   UNL     1       0.645  46.028   5.186  1.00  0.00    -0.299 N 
HETATM   20  C   UNL     1      -2.958  47.100   5.226  1.00  0.00    -0.021 C 
HETATM   21  C   UNL     1      -4.772  48.449   5.992  1.00  0.00     0.013 C 
HETATM   22  C   UNL     1      -1.196  47.175   6.887  1.00  0.00    -0.027 C 
HETATM   23  C   UNL     1       3.209  46.823   7.826  1.00  0.00     0.002 C 
HETATM   24  C   UNL     1       2.843  47.397   9.043  1.00  0.00     0.001 C 
HETATM   25  C   UNL     1      -1.763  46.322   5.782  1.00  0.00     0.077 C 
HETATM   26  C   UNL     1       2.577  45.169   2.342  1.00  0.00     0.090 C 
HETATM   27  C   UNL     1      -0.774  45.014   3.756  1.00  0.00     0.041 C 
ENDROOT
BRANCH  11  28
HETATM   28  O   UNL     1      -2.587  47.637   8.725  1.00  0.00    -0.391 OA
ATOM     29  HO  UNL     1      -2.380  48.298   9.375  1.00  0.00     0.210 HD
ENDBRANCH  11  28
TORSDOF 1
ENDMDL
MODEL 8
REMARK VINA RESULT:      -8.7      2.002      4.921
REMARK  1 active torsions:
REMARK  status: ('A' for Active; 'I' for Inactive)
REMARK    1  A    between atoms: O_10  and  C_13 
ROOT
HETATM    1  N   UNL     1       0.833  45.411   0.064  1.00  0.00    -0.351 N 
ATOM      2  HN  UNL     1       1.819  45.392  -0.200  1.00  0.00     0.166 HD
HETATM    3  C   UNL     1      -1.238  48.057   4.894  1.00  0.00     0.011 C 
HETATM    4  C   UNL     1      -2.293  48.759   5.772  1.00  0.00     0.005 C 
HETATM    5  C   UNL     1      -0.286  46.881   6.891  1.00  0.00     0.028 C 
HETATM    6  C   UNL     1       2.008  45.122   3.111  1.00  0.00     0.052 C 
HETATM    7  C   UNL     1      -2.455  46.394   6.226  1.00  0.00     0.015 C 
HETATM    8  C   UNL     1       3.975  46.976   5.621  1.00  0.00     0.049 C 
HETATM    9  C   UNL     1       3.020  44.600   2.307  1.00  0.00     0.031 C 
HETATM   10  C   UNL     1      -1.404  45.710  -0.038  1.00  0.00     0.032 C 
HETATM   11  C   UNL     1       1.163  46.463   6.642  1.00  0.00     0.153 C 
HETATM   12  C   UNL     1       0.320  45.341   1.316  1.00  0.00     0.122 C 
HETATM   13  C   UNL     1       2.253  45.527   4.463  1.00  0.00     0.003 C 
HETATM   14  C   UNL     1       4.580  44.666   4.899  1.00  0.00     0.007 C 
HETATM   15  C   UNL     1      -2.514  47.770   6.927  1.00  0.00    -0.013 C 
HETATM   16  C   UNL     1      -0.423  45.303   3.429  1.00  0.00     0.029 C 
HETATM   17  C   UNL     1      -1.072  45.376   1.285  1.00  0.00     0.012 C 
HETATM   18  C   UNL     1       3.600  45.669   4.971  1.00  0.00    -0.049 C 
HETATM   19  N   UNL     1       0.707  45.244   2.634  1.00  0.00    -0.299 N 
HETATM   20  C   UNL     1      -1.093  46.701   5.596  1.00  0.00    -0.021 C 
HETATM   21  C   UNL     1      -1.171  47.800   7.713  1.00  0.00     0.013 C 
HETATM   22  C   UNL     1       1.114  45.742   5.314  1.00  0.00    -0.027 C 
HETATM   23  C   UNL     1       4.361  44.348   2.499  1.00  0.00     0.002 C 
HETATM   24  C   UNL     1       5.150  44.347   3.648  1.00  0.00     0.001 C 
HETATM   25  C   UNL     1      -0.322  45.587   4.884  1.00  0.00     0.077 C 
HETATM   26  C   UNL     1      -0.239  45.511  -0.771  1.00  0.00     0.090 C 
HETATM   27  C   UNL     1      -1.549  45.224   2.613  1.00  0.00     0.041 C 
ENDROOT
BRANCH  11  28
HETATM   28  O   UNL     1       1.594  45.509   7.604  1.00  0.00    -0.391 OA
ATOM     29  HO  UNL     1       2.417  45.770   8.000  1.00  0.00     0.210 HD
ENDBRANCH  11  28
TORSDOF 1
ENDMDL
MODEL 9
REMARK VINA RESULT:      -8.7      2.672      7.098
REMARK  1 active torsions:
REMARK  status: ('A' for Active; 'I' for Inactive)
REMARK    1  A    between atoms: O_10  and  C_13 
ROOT
HETATM    1  N   UNL     1      -1.498  46.205   5.716  1.00  0.00    -0.351 N 
ATOM      2  HN  UNL     1      -0.962  46.107   6.579  1.00  0.00     0.166 HD
HETATM    3  C   UNL     1      -0.387  43.191   0.786  1.00  0.00     0.011 C 
HETATM    4  C   UNL     1      -0.721  42.536  -0.570  1.00  0.00     0.005 C 
HETATM    5  C   UNL     1       1.879  43.866  -0.042  1.00  0.00     0.028 C 
HETATM    6  C   UNL     1       1.421  45.813   4.276  1.00  0.00     0.052 C 
HETATM    7  C   UNL     1      -0.003  44.793  -1.031  1.00  0.00     0.015 C 
HETATM    8  C   UNL     1       4.070  43.293   3.786  1.00  0.00     0.049 C 
HETATM    9  C   UNL     1       1.733  46.287   5.549  1.00  0.00     0.031 C 
HETATM   10  C   UNL     1      -3.234  46.288   4.273  1.00  0.00     0.032 C 
HETATM   11  C   UNL     1       2.846  44.081   1.122  1.00  0.00     0.153 C 
HETATM   12  C   UNL     1      -1.023  46.155   4.448  1.00  0.00     0.122 C 
HETATM   13  C   UNL     1       2.398  45.164   3.454  1.00  0.00     0.003 C 
HETATM   14  C   UNL     1       4.547  45.561   4.707  1.00  0.00     0.007 C 
HETATM   15  C   UNL     1       0.107  43.351  -1.575  1.00  0.00    -0.013 C 
HETATM   16  C   UNL     1      -0.150  45.976   2.392  1.00  0.00     0.029 C 
HETATM   17  C   UNL     1      -2.047  46.350   3.525  1.00  0.00     0.012 C 
HETATM   18  C   UNL     1       3.667  44.729   3.997  1.00  0.00    -0.049 C 
HETATM   19  N   UNL     1       0.147  45.978   3.743  1.00  0.00    -0.299 N 
HETATM   20  C   UNL     1       0.486  44.377   0.359  1.00  0.00    -0.021 C 
HETATM   21  C   UNL     1       1.581  42.982  -1.239  1.00  0.00     0.013 C 
HETATM   22  C   UNL     1       2.097  45.002   2.057  1.00  0.00    -0.027 C 
HETATM   23  C   UNL     1       2.876  46.287   6.317  1.00  0.00     0.002 C 
HETATM   24  C   UNL     1       4.201  45.980   6.010  1.00  0.00     0.001 C 
HETATM   25  C   UNL     1       0.820  45.452   1.395  1.00  0.00     0.077 C 
HETATM   26  C   UNL     1      -2.840  46.412   5.601  1.00  0.00     0.090 C 
HETATM   27  C   UNL     1      -1.477  46.363   2.225  1.00  0.00     0.041 C 
ENDROOT
BRANCH  11  28
HETATM   28  O   UNL     1       4.006  44.788   0.701  1.00  0.00    -0.391 OA
ATOM     29  HO  UNL     1       4.295  44.492  -0.154  1.00  0.00     0.210 HD
ENDBRANCH  11  28
TORSDOF 1
ENDMDL
