MODEL 1
REMARK VINA RESULT:     -11.8      0.000      0.000
REMARK  3 active torsions:
REMARK  status: ('A' for Active; 'I' for Inactive)
REMARK    1  A    between atoms: O_4  and  C_22 
REMARK    2  A    between atoms: C_9  and  C_13 
REMARK    3  A    between atoms: C_22  and  O_24 
ROOT
HETATM    1  C   UNL     1     -12.612  -5.542   8.407  1.00  0.00     0.005 C 
HETATM    2  C   UNL     1      -7.340  -3.715   8.236  1.00  0.00     0.010 C 
HETATM    3  C   UNL     1     -10.347  -4.630   9.064  1.00  0.00    -0.060 C 
HETATM    4  C   UNL     1      -6.097  -2.146   6.816  1.00  0.00     0.233 C 
HETATM    5  C   UNL     1      -8.677  -3.056   7.848  1.00  0.00     0.037 C 
HETATM    6  C   UNL     1      -8.435  -2.529   6.426  1.00  0.00     0.275 C 
HETATM    7  C   UNL     1      -9.741  -4.177   7.754  1.00  0.00     0.067 C 
HETATM    8  N   UNL     1     -10.859  -2.483   6.298  1.00  0.00    -0.341 N 
ATOM      9  HN  UNL     1     -11.736  -1.977   6.172  1.00  0.00     0.164 HD
HETATM   10  N   UNL     1      -7.359  -1.530   6.398  1.00  0.00    -0.063 N 
ATOM     11  HN1 UNL     1      -7.280  -1.078   5.487  1.00  0.00     0.277 HD
ATOM     12  HN2 UNL     1      -7.586  -0.706   6.953  1.00  0.00     0.277 HD
HETATM   13  C   UNL     1     -11.809  -4.717   6.288  1.00  0.00     0.053 C 
HETATM   14  C   UNL     1      -9.701  -1.906   5.841  1.00  0.00     0.274 C 
HETATM   15  C   UNL     1      -6.289  -2.602   8.263  1.00  0.00     0.028 C 
HETATM   16  C   UNL     1     -11.855  -4.518   9.245  1.00  0.00     0.036 C 
HETATM   17  C   UNL     1     -10.893  -3.680   6.902  1.00  0.00    -0.004 C 
HETATM   18  C   UNL     1     -13.067  -4.809   7.142  1.00  0.00     0.006 C 
ENDROOT
BRANCH   3  19
HETATM   19  C   UNL     1      -9.693  -5.442  10.110  1.00  0.00    -0.033 C 
HETATM   20  C   UNL     1     -10.351  -5.903  11.258  1.00  0.00     0.011 C 
HETATM   21  C   UNL     1      -9.857  -6.698  12.277  1.00  0.00     0.001 C 
HETATM   22  C   UNL     1      -8.561  -7.077  12.616  1.00  0.00     0.000 C 
HETATM   23  C   UNL     1      -7.426  -6.936  11.853  1.00  0.00     0.000 C 
HETATM   24  C   UNL     1      -7.351  -6.210  10.657  1.00  0.00     0.001 C 
HETATM   25  C   UNL     1      -8.358  -5.764   9.858  1.00  0.00     0.011 C 
ENDBRANCH   3  19
BRANCH  14  26
HETATM   26  O   UNL     1      -9.742  -0.618   6.192  1.00  0.00    -0.347 OA
ATOM     27  HO  UNL     1     -10.602  -0.428   6.548  1.00  0.00     0.215 HD
ENDBRANCH  14  26
BRANCH  14  28
HETATM   28  O   UNL     1      -9.582  -2.222   4.548  1.00  0.00    -0.347 OA
ATOM     29  HO  UNL     1      -9.765  -3.112   4.273  1.00  0.00     0.215 HD
ENDBRANCH  14  28
TORSDOF 3
ENDMDL
MODEL 2
REMARK VINA RESULT:     -10.3      4.348      6.623
REMARK  3 active torsions:
REMARK  status: ('A' for Active; 'I' for Inactive)
REMARK    1  A    between atoms: O_4  and  C_22 
REMARK    2  A    between atoms: C_9  and  C_13 
REMARK    3  A    between atoms: C_22  and  O_24 
ROOT
HETATM    1  C   UNL     1     -10.724  -5.421  10.593  1.00  0.00     0.005 C 
HETATM    2  C   UNL     1      -5.209  -6.191  10.201  1.00  0.00     0.010 C 
HETATM    3  C   UNL     1      -8.372  -5.645   9.691  1.00  0.00    -0.060 C 
HETATM    4  C   UNL     1      -3.629  -7.859  11.061  1.00  0.00     0.233 C 
HETATM    5  C   UNL     1      -6.382  -7.176  10.358  1.00  0.00     0.037 C 
HETATM    6  C   UNL     1      -5.972  -8.061  11.544  1.00  0.00     0.275 C 
HETATM    7  C   UNL     1      -7.623  -6.358  10.795  1.00  0.00     0.067 C 
HETATM    8  N   UNL     1      -8.338  -8.597  11.643  1.00  0.00    -0.341 N 
ATOM      9  HN  UNL     1      -9.102  -9.271  11.601  1.00  0.00     0.164 HD
HETATM   10  N   UNL     1      -4.735  -8.799  11.262  1.00  0.00    -0.063 N 
ATOM     11  HN1 UNL     1      -4.526  -9.488  11.985  1.00  0.00     0.277 HD
ATOM     12  HN2 UNL     1      -4.841  -9.439  10.475  1.00  0.00     0.277 HD
HETATM   13  C   UNL     1      -9.669  -6.693  12.349  1.00  0.00     0.053 C 
HETATM   14  C   UNL     1      -7.072  -9.059  11.900  1.00  0.00     0.274 C 
HETATM   15  C   UNL     1      -3.979  -7.024   9.830  1.00  0.00     0.028 C 
HETATM   16  C   UNL     1      -9.843  -5.976   9.479  1.00  0.00     0.036 C 
HETATM   17  C   UNL     1      -8.618  -7.299  11.444  1.00  0.00    -0.004 C 
HETATM   18  C   UNL     1     -10.970  -6.580  11.563  1.00  0.00     0.006 C 
ENDROOT
BRANCH   3  19
HETATM   19  C   UNL     1      -7.933  -4.443   8.954  1.00  0.00    -0.033 C 
HETATM   20  C   UNL     1      -6.705  -3.804   9.174  1.00  0.00     0.011 C 
HETATM   21  C   UNL     1      -6.172  -2.706   8.523  1.00  0.00     0.001 C 
HETATM   22  C   UNL     1      -6.738  -1.771   7.661  1.00  0.00     0.000 C 
HETATM   23  C   UNL     1      -7.962  -1.848   7.038  1.00  0.00     0.000 C 
HETATM   24  C   UNL     1      -8.940  -2.813   7.310  1.00  0.00     0.001 C 
HETATM   25  C   UNL     1      -8.819  -3.995   7.973  1.00  0.00     0.011 C 
ENDBRANCH   3  19
BRANCH  14  26
HETATM   26  O   UNL     1      -6.901 -10.160  11.163  1.00  0.00    -0.347 OA
ATOM     27  HO  UNL     1      -6.387 -10.782  11.664  1.00  0.00     0.215 HD
ENDBRANCH  14  26
BRANCH  14  28
HETATM   28  O   UNL     1      -6.940  -9.140  13.227  1.00  0.00    -0.347 OA
ATOM     29  HO  UNL     1      -7.689  -9.401  13.750  1.00  0.00     0.215 HD
ENDBRANCH  14  28
TORSDOF 3
ENDMDL
MODEL 3
REMARK VINA RESULT:     -10.2      3.717      5.958
REMARK  3 active torsions:
REMARK  status: ('A' for Active; 'I' for Inactive)
REMARK    1  A    between atoms: O_4  and  C_22 
REMARK    2  A    between atoms: C_9  and  C_13 
REMARK    3  A    between atoms: C_22  and  O_24 
ROOT
HETATM    1  C   UNL     1     -11.862  -3.865   8.646  1.00  0.00     0.005 C 
HETATM    2  C   UNL     1      -7.186  -6.214  10.591  1.00  0.00     0.010 C 
HETATM    3  C   UNL     1      -9.538  -4.849   8.811  1.00  0.00    -0.060 C 
HETATM    4  C   UNL     1      -6.683  -8.156  12.003  1.00  0.00     0.233 C 
HETATM    5  C   UNL     1      -8.562  -6.799  10.222  1.00  0.00     0.037 C 
HETATM    6  C   UNL     1      -8.959  -7.626  11.452  1.00  0.00     0.275 C 
HETATM    7  C   UNL     1      -9.558  -5.618  10.113  1.00  0.00     0.067 C 
HETATM    8  N   UNL     1     -11.201  -7.452  10.538  1.00  0.00    -0.341 N 
ATOM      9  HN  UNL     1     -12.049  -7.880  10.166  1.00  0.00     0.164 HD
HETATM   10  N   UNL     1      -8.004  -8.714  11.702  1.00  0.00    -0.063 N 
ATOM     11  HN1 UNL     1      -8.327  -9.348  12.432  1.00  0.00     0.277 HD
ATOM     12  HN2 UNL     1      -7.972  -9.380  10.930  1.00  0.00     0.277 HD
HETATM   13  C   UNL     1     -12.054  -5.181  10.657  1.00  0.00     0.053 C 
HETATM   14  C   UNL     1     -10.356  -8.224  11.294  1.00  0.00     0.274 C 
HETATM   15  C   UNL     1      -6.230  -7.399  10.755  1.00  0.00     0.028 C 
HETATM   16  C   UNL     1     -10.821  -4.769   7.993  1.00  0.00     0.036 C 
HETATM   17  C   UNL     1     -10.966  -6.159  10.265  1.00  0.00    -0.004 C 
HETATM   18  C   UNL     1     -12.821  -4.790   9.400  1.00  0.00     0.006 C 
ENDROOT
BRANCH   3  19
HETATM   19  C   UNL     1      -8.494  -3.912   8.350  1.00  0.00    -0.033 C 
HETATM   20  C   UNL     1      -7.205  -3.858   8.897  1.00  0.00     0.011 C 
HETATM   21  C   UNL     1      -6.139  -3.058   8.524  1.00  0.00     0.001 C 
HETATM   22  C   UNL     1      -6.062  -1.935   7.704  1.00  0.00     0.000 C 
HETATM   23  C   UNL     1      -7.028  -1.464   6.845  1.00  0.00     0.000 C 
HETATM   24  C   UNL     1      -8.343  -1.940   6.781  1.00  0.00     0.001 C 
HETATM   25  C   UNL     1      -8.866  -3.091   7.284  1.00  0.00     0.011 C 
ENDBRANCH   3  19
BRANCH  14  26
HETATM   26  O   UNL     1     -10.246  -9.403  10.675  1.00  0.00    -0.347 OA
ATOM     27  HO  UNL     1     -10.927  -9.463  10.016  1.00  0.00     0.215 HD
ENDBRANCH  14  26
BRANCH  14  28
HETATM   28  O   UNL     1     -10.805  -8.191  12.552  1.00  0.00    -0.347 OA
ATOM     29  HO  UNL     1     -11.725  -8.359  12.718  1.00  0.00     0.215 HD
ENDBRANCH  14  28
TORSDOF 3
ENDMDL
MODEL 4
REMARK VINA RESULT:      -9.8      4.160      6.158
REMARK  3 active torsions:
REMARK  status: ('A' for Active; 'I' for Inactive)
REMARK    1  A    between atoms: O_4  and  C_22 
REMARK    2  A    between atoms: C_9  and  C_13 
REMARK    3  A    between atoms: C_22  and  O_24 
ROOT
HETATM    1  C   UNL     1     -12.629  -3.288   9.776  1.00  0.00     0.005 C 
HETATM    2  C   UNL     1      -9.840  -8.123   9.693  1.00  0.00     0.010 C 
HETATM    3  C   UNL     1     -11.100  -5.186   9.102  1.00  0.00    -0.060 C 
HETATM    4  C   UNL     1     -10.447 -10.477  10.027  1.00  0.00     0.233 C 
HETATM    5  C   UNL     1     -11.298  -7.763   9.351  1.00  0.00     0.037 C 
HETATM    6  C   UNL     1     -12.131  -8.770  10.156  1.00  0.00     0.275 C 
HETATM    7  C   UNL     1     -11.581  -6.356   9.931  1.00  0.00     0.067 C 
HETATM    8  N   UNL     1     -13.935  -7.184   9.804  1.00  0.00    -0.341 N 
ATOM      9  HN  UNL     1     -14.856  -6.948   9.436  1.00  0.00     0.164 HD
HETATM   10  N   UNL     1     -11.848 -10.152   9.747  1.00  0.00    -0.063 N 
ATOM     11  HN1 UNL     1     -12.489 -10.818  10.179  1.00  0.00     0.277 HD
ATOM     12  HN2 UNL     1     -12.094 -10.322   8.772  1.00  0.00     0.277 HD
HETATM   13  C   UNL     1     -13.576  -5.118  11.029  1.00  0.00     0.053 C 
HETATM   14  C   UNL     1     -13.627  -8.507   9.999  1.00  0.00     0.274 C 
HETATM   15  C   UNL     1      -9.598  -9.540   9.167  1.00  0.00     0.028 C 
HETATM   16  C   UNL     1     -12.121  -4.158   8.631  1.00  0.00     0.036 C 
HETATM   17  C   UNL     1     -13.080  -6.185  10.076  1.00  0.00    -0.004 C 
HETATM   18  C   UNL     1     -13.967  -3.892  10.213  1.00  0.00     0.006 C 
ENDROOT
BRANCH   3  19
HETATM   19  C   UNL     1      -9.702  -4.745   8.916  1.00  0.00    -0.033 C 
HETATM   20  C   UNL     1      -8.642  -5.169   9.729  1.00  0.00     0.011 C 
HETATM   21  C   UNL     1      -7.297  -4.859   9.627  1.00  0.00     0.001 C 
HETATM   22  C   UNL     1      -6.619  -3.892   8.891  1.00  0.00     0.000 C 
HETATM   23  C   UNL     1      -7.119  -3.124   7.865  1.00  0.00     0.000 C 
HETATM   24  C   UNL     1      -8.470  -3.058   7.500  1.00  0.00     0.001 C 
HETATM   25  C   UNL     1      -9.491  -3.894   7.831  1.00  0.00     0.011 C 
ENDBRANCH   3  19
BRANCH  14  26
HETATM   26  O   UNL     1     -14.065  -9.171   8.926  1.00  0.00    -0.347 OA
ATOM     27  HO  UNL     1     -13.754 -10.067   8.978  1.00  0.00     0.215 HD
ENDBRANCH  14  26
BRANCH  14  28
HETATM   28  O   UNL     1     -14.087  -8.849  11.206  1.00  0.00    -0.347 OA
ATOM     29  HO  UNL     1     -14.671  -9.594  11.282  1.00  0.00     0.215 HD
ENDBRANCH  14  28
TORSDOF 3
ENDMDL
MODEL 5
REMARK VINA RESULT:      -9.7      3.742      6.421
REMARK  3 active torsions:
REMARK  status: ('A' for Active; 'I' for Inactive)
REMARK    1  A    between atoms: O_4  and  C_22 
REMARK    2  A    between atoms: C_9  and  C_13 
REMARK    3  A    between atoms: C_22  and  O_24 
ROOT
HETATM    1  C   UNL     1      -9.643  -6.319  10.744  1.00  0.00     0.005 C 
HETATM    2  C   UNL     1     -12.710  -5.640   6.130  1.00  0.00     0.010 C 
HETATM    3  C   UNL     1     -10.970  -5.292   8.853  1.00  0.00    -0.060 C 
HETATM    4  C   UNL     1     -14.735  -6.691   5.228  1.00  0.00     0.233 C 
HETATM    5  C   UNL     1     -13.074  -6.092   7.556  1.00  0.00     0.037 C 
HETATM    6  C   UNL     1     -13.857  -7.396   7.348  1.00  0.00     0.275 C 
HETATM    7  C   UNL     1     -11.754  -6.452   8.283  1.00  0.00     0.067 C 
HETATM    8  N   UNL     1     -13.327  -7.797   9.683  1.00  0.00    -0.341 N 
ATOM      9  HN  UNL     1     -13.615  -7.957  10.648  1.00  0.00     0.164 HD
HETATM   10  N   UNL     1     -15.081  -7.170   6.568  1.00  0.00    -0.063 N 
ATOM     11  HN1 UNL     1     -15.674  -7.999   6.538  1.00  0.00     0.277 HD
ATOM     12  HN2 UNL     1     -15.728  -6.542   7.045  1.00  0.00     0.277 HD
HETATM   13  C   UNL     1     -10.957  -8.205  10.017  1.00  0.00     0.053 C 
HETATM   14  C   UNL     1     -14.233  -8.038   8.682  1.00  0.00     0.274 C 
HETATM   15  C   UNL     1     -14.029  -5.348   5.408  1.00  0.00     0.028 C 
HETATM   16  C   UNL     1     -10.680  -5.273  10.347  1.00  0.00     0.036 C 
HETATM   17  C   UNL     1     -12.079  -7.360   9.453  1.00  0.00    -0.004 C 
HETATM   18  C   UNL     1     -10.428  -7.523  11.273  1.00  0.00     0.006 C 
ENDROOT
BRANCH   3  19
HETATM   19  C   UNL     1     -10.191  -4.291   8.095  1.00  0.00    -0.033 C 
HETATM   20  C   UNL     1     -10.703  -3.573   7.006  1.00  0.00     0.011 C 
HETATM   21  C   UNL     1     -10.086  -2.590   6.252  1.00  0.00     0.001 C 
HETATM   22  C   UNL     1      -8.758  -2.183   6.161  1.00  0.00     0.000 C 
HETATM   23  C   UNL     1      -7.725  -2.520   7.004  1.00  0.00     0.000 C 
HETATM   24  C   UNL     1      -7.798  -3.490   8.012  1.00  0.00     0.001 C 
HETATM   25  C   UNL     1      -8.896  -4.069   8.568  1.00  0.00     0.011 C 
ENDBRANCH   3  19
BRANCH  14  26
HETATM   26  O   UNL     1     -15.402  -7.530   9.082  1.00  0.00    -0.347 OA
ATOM     27  HO  UNL     1     -15.230  -6.802   9.668  1.00  0.00     0.215 HD
ENDBRANCH  14  26
BRANCH  14  28
HETATM   28  O   UNL     1     -14.160  -9.338   8.383  1.00  0.00    -0.347 OA
ATOM     29  HO  UNL     1     -13.329  -9.699   8.099  1.00  0.00     0.215 HD
ENDBRANCH  14  28
TORSDOF 3
ENDMDL
MODEL 6
REMARK VINA RESULT:      -9.7      3.653      5.543
REMARK  3 active torsions:
REMARK  status: ('A' for Active; 'I' for Inactive)
REMARK    1  A    between atoms: O_4  and  C_22 
REMARK    2  A    between atoms: C_9  and  C_13 
REMARK    3  A    between atoms: C_22  and  O_24 
ROOT
HETATM    1  C   UNL     1     -13.108  -2.883  10.608  1.00  0.00     0.005 C 
HETATM    2  C   UNL     1     -12.396  -7.817   8.097  1.00  0.00     0.010 C 
HETATM    3  C   UNL     1     -12.107  -4.828   9.340  1.00  0.00    -0.060 C 
HETATM    4  C   UNL     1     -13.700  -9.153   6.504  1.00  0.00     0.233 C 
HETATM    5  C   UNL     1     -13.125  -6.532   7.664  1.00  0.00     0.037 C 
HETATM    6  C   UNL     1     -14.517  -7.017   7.236  1.00  0.00     0.275 C 
HETATM    7  C   UNL     1     -13.306  -5.651   8.925  1.00  0.00     0.067 C 
HETATM    8  N   UNL     1     -15.147  -4.691   7.534  1.00  0.00    -0.341 N 
ATOM      9  HN  UNL     1     -15.509  -3.811   7.167  1.00  0.00     0.164 HD
HETATM   10  N   UNL     1     -14.438  -7.951   6.106  1.00  0.00    -0.063 N 
ATOM     11  HN1 UNL     1     -15.359  -8.175   5.728  1.00  0.00     0.277 HD
ATOM     12  HN2 UNL     1     -14.039  -7.514   5.275  1.00  0.00     0.277 HD
HETATM   13  C   UNL     1     -15.095  -4.031   9.870  1.00  0.00     0.053 C 
HETATM   14  C   UNL     1     -15.418  -5.847   6.846  1.00  0.00     0.274 C 
HETATM   15  C   UNL     1     -12.281  -8.702   6.853  1.00  0.00     0.028 C 
HETATM   16  C   UNL     1     -12.255  -3.315   9.420  1.00  0.00     0.036 C 
HETATM   17  C   UNL     1     -14.429  -4.664   8.668  1.00  0.00    -0.004 C 
HETATM   18  C   UNL     1     -14.515  -2.635  10.059  1.00  0.00     0.006 C 
ENDROOT
BRANCH   3  19
HETATM   19  C   UNL     1     -10.862  -5.326   9.959  1.00  0.00    -0.033 C 
HETATM   20  C   UNL     1      -9.601  -5.225   9.356  1.00  0.00     0.011 C 
HETATM   21  C   UNL     1      -8.370  -5.614   9.854  1.00  0.00     0.001 C 
HETATM   22  C   UNL     1      -8.016  -6.412  10.938  1.00  0.00     0.000 C 
HETATM   23  C   UNL     1      -8.832  -6.839  11.960  1.00  0.00     0.000 C 
HETATM   24  C   UNL     1     -10.225  -6.687  11.988  1.00  0.00     0.001 C 
HETATM   25  C   UNL     1     -11.017  -5.880  11.231  1.00  0.00     0.011 C 
ENDBRANCH   3  19
BRANCH  14  26
HETATM   26  O   UNL     1     -15.234  -5.583   5.550  1.00  0.00    -0.347 OA
ATOM     27  HO  UNL     1     -16.034  -5.207   5.202  1.00  0.00     0.215 HD
ENDBRANCH  14  26
BRANCH  14  28
HETATM   28  O   UNL     1     -16.614  -6.283   7.256  1.00  0.00    -0.347 OA
ATOM     29  HO  UNL     1     -17.174  -6.739   6.639  1.00  0.00     0.215 HD
ENDBRANCH  14  28
TORSDOF 3
ENDMDL
MODEL 7
REMARK VINA RESULT:      -9.6      2.570      3.633
REMARK  3 active torsions:
REMARK  status: ('A' for Active; 'I' for Inactive)
REMARK    1  A    between atoms: O_4  and  C_22 
REMARK    2  A    between atoms: C_9  and  C_13 
REMARK    3  A    between atoms: C_22  and  O_24 
ROOT
HETATM    1  C   UNL     1     -13.035  -9.334   9.349  1.00  0.00     0.005 C 
HETATM    2  C   UNL     1     -10.087  -4.781   8.031  1.00  0.00     0.010 C 
HETATM    3  C   UNL     1     -11.727  -7.175   9.494  1.00  0.00    -0.060 C 
HETATM    4  C   UNL     1     -10.310  -2.998   6.359  1.00  0.00     0.233 C 
HETATM    5  C   UNL     1     -11.589  -5.106   7.930  1.00  0.00     0.037 C 
HETATM    6  C   UNL     1     -11.954  -4.744   6.484  1.00  0.00     0.275 C 
HETATM    7  C   UNL     1     -11.746  -6.639   8.080  1.00  0.00     0.067 C 
HETATM    8  N   UNL     1     -13.884  -6.163   6.878  1.00  0.00    -0.341 N 
ATOM      9  HN  UNL     1     -14.893  -6.301   6.937  1.00  0.00     0.164 HD
HETATM   10  N   UNL     1     -11.732  -3.317   6.214  1.00  0.00    -0.063 N 
ATOM     11  HN1 UNL     1     -12.095  -3.039   5.302  1.00  0.00     0.277 HD
ATOM     12  HN2 UNL     1     -12.321  -2.721   6.795  1.00  0.00     0.277 HD
HETATM   13  C   UNL     1     -13.260  -8.499   7.098  1.00  0.00     0.053 C 
HETATM   14  C   UNL     1     -13.411  -5.083   6.177  1.00  0.00     0.274 C 
HETATM   15  C   UNL     1      -9.945  -3.271   7.819  1.00  0.00     0.028 C 
HETATM   16  C   UNL     1     -12.936  -7.955   9.993  1.00  0.00     0.036 C 
HETATM   17  C   UNL     1     -13.081  -7.048   7.489  1.00  0.00    -0.004 C 
HETATM   18  C   UNL     1     -14.041  -9.200   8.202  1.00  0.00     0.006 C 
ENDROOT
BRANCH   3  19
HETATM   19  C   UNL     1     -10.554  -7.284  10.385  1.00  0.00    -0.033 C 
HETATM   20  C   UNL     1     -10.506  -6.736  11.674  1.00  0.00     0.011 C 
HETATM   21  C   UNL     1      -9.487  -6.808  12.607  1.00  0.00     0.001 C 
HETATM   22  C   UNL     1      -8.157  -7.206  12.503  1.00  0.00     0.000 C 
HETATM   23  C   UNL     1      -7.567  -7.870  11.453  1.00  0.00     0.000 C 
HETATM   24  C   UNL     1      -8.173  -8.105  10.212  1.00  0.00     0.001 C 
HETATM   25  C   UNL     1      -9.487  -8.020   9.868  1.00  0.00     0.011 C 
ENDBRANCH   3  19
BRANCH  14  26
HETATM   26  O   UNL     1     -14.171  -4.036   6.513  1.00  0.00    -0.347 OA
ATOM     27  HO  UNL     1     -14.944  -4.035   5.961  1.00  0.00     0.215 HD
ENDBRANCH  14  26
BRANCH  14  28
HETATM   28  O   UNL     1     -13.337  -5.443   4.892  1.00  0.00    -0.347 OA
ATOM     29  HO  UNL     1     -12.883  -6.246   4.664  1.00  0.00     0.215 HD
ENDBRANCH  14  28
TORSDOF 3
ENDMDL
MODEL 8
REMARK VINA RESULT:      -9.5      4.379      6.630
REMARK  3 active torsions:
REMARK  status: ('A' for Active; 'I' for Inactive)
REMARK    1  A    between atoms: O_4  and  C_22 
REMARK    2  A    between atoms: C_9  and  C_13 
REMARK    3  A    between atoms: C_22  and  O_24 
ROOT
HETATM    1  C   UNL     1     -12.482  -8.179   7.166  1.00  0.00     0.005 C 
HETATM    2  C   UNL     1     -13.809  -3.310   9.552  1.00  0.00     0.010 C 
HETATM    3  C   UNL     1     -12.397  -6.056   8.538  1.00  0.00    -0.060 C 
HETATM    4  C   UNL     1     -15.766  -2.450  10.757  1.00  0.00     0.233 C 
HETATM    5  C   UNL     1     -14.213  -4.762   9.869  1.00  0.00     0.037 C 
HETATM    6  C   UNL     1     -15.745  -4.713   9.956  1.00  0.00     0.275 C 
HETATM    7  C   UNL     1     -13.844  -5.629   8.640  1.00  0.00     0.067 C 
HETATM    8  N   UNL     1     -15.593  -7.114   9.629  1.00  0.00    -0.341 N 
ATOM      9  HN  UNL     1     -15.758  -8.070   9.945  1.00  0.00     0.164 HD
HETATM   10  N   UNL     1     -16.195  -3.823  11.034  1.00  0.00    -0.063 N 
ATOM     11  HN1 UNL     1     -17.202  -3.885  11.188  1.00  0.00     0.277 HD
ATOM     12  HN2 UNL     1     -15.885  -4.144  11.951  1.00  0.00     0.277 HD
HETATM   13  C   UNL     1     -14.829  -7.677   7.394  1.00  0.00     0.053 C 
HETATM   14  C   UNL     1     -16.334  -6.104  10.188  1.00  0.00     0.274 C 
HETATM   15  C   UNL     1     -14.237  -2.459  10.751  1.00  0.00     0.028 C 
HETATM   16  C   UNL     1     -12.080  -7.545   8.494  1.00  0.00     0.036 C 
HETATM   17  C   UNL     1     -14.662  -6.905   8.685  1.00  0.00    -0.004 C 
HETATM   18  C   UNL     1     -13.843  -8.839   7.401  1.00  0.00     0.006 C 
ENDROOT
BRANCH   3  19
HETATM   19  C   UNL     1     -11.243  -5.203   8.188  1.00  0.00    -0.033 C 
HETATM   20  C   UNL     1     -10.032  -5.211   8.892  1.00  0.00     0.011 C 
HETATM   21  C   UNL     1      -8.877  -4.493   8.635  1.00  0.00     0.001 C 
HETATM   22  C   UNL     1      -8.623  -3.408   7.802  1.00  0.00     0.000 C 
HETATM   23  C   UNL     1      -9.440  -2.907   6.814  1.00  0.00     0.000 C 
HETATM   24  C   UNL     1     -10.767  -3.302   6.597  1.00  0.00     0.001 C 
HETATM   25  C   UNL     1     -11.424  -4.399   7.061  1.00  0.00     0.011 C 
ENDBRANCH   3  19
BRANCH  14  26
HETATM   26  O   UNL     1     -16.377  -6.333  11.503  1.00  0.00    -0.347 OA
ATOM     27  HO  UNL     1     -15.876  -7.118  11.690  1.00  0.00     0.215 HD
ENDBRANCH  14  26
BRANCH  14  28
HETATM   28  O   UNL     1     -17.480  -6.026   9.505  1.00  0.00    -0.347 OA
ATOM     29  HO  UNL     1     -18.248  -6.472   9.842  1.00  0.00     0.215 HD
ENDBRANCH  14  28
TORSDOF 3
ENDMDL
MODEL 9
REMARK VINA RESULT:      -9.4      2.373      5.066
REMARK  3 active torsions:
REMARK  status: ('A' for Active; 'I' for Inactive)
REMARK    1  A    between atoms: O_4  and  C_22 
REMARK    2  A    between atoms: C_9  and  C_13 
REMARK    3  A    between atoms: C_22  and  O_24 
ROOT
HETATM    1  C   UNL     1     -10.991  -7.342  10.444  1.00  0.00     0.005 C 
HETATM    2  C   UNL     1      -9.817  -2.874   7.310  1.00  0.00     0.010 C 
HETATM    3  C   UNL     1     -10.784  -5.740   8.498  1.00  0.00    -0.060 C 
HETATM    4  C   UNL     1      -7.834  -1.467   6.976  1.00  0.00     0.233 C 
HETATM    5  C   UNL     1      -8.945  -4.034   7.826  1.00  0.00     0.037 C 
HETATM    6  C   UNL     1      -7.743  -3.338   8.479  1.00  0.00     0.275 C 
HETATM    7  C   UNL     1      -9.736  -4.749   8.950  1.00  0.00     0.067 C 
HETATM    8  N   UNL     1      -7.433  -5.467   9.602  1.00  0.00    -0.341 N 
ATOM      9  HN  UNL     1      -6.872  -6.294   9.808  1.00  0.00     0.164 HD
HETATM   10  N   UNL     1      -6.988  -2.540   7.504  1.00  0.00    -0.063 N 
ATOM     11  HN1 UNL     1      -6.116  -2.183   7.894  1.00  0.00     0.277 HD
ATOM     12  HN2 UNL     1      -6.592  -3.117   6.761  1.00  0.00     0.277 HD
HETATM   13  C   UNL     1      -9.204  -5.913  11.203  1.00  0.00     0.053 C 
HETATM   14  C   UNL     1      -6.799  -4.348   9.126  1.00  0.00     0.274 C 
HETATM   15  C   UNL     1      -8.995  -2.142   6.245  1.00  0.00     0.028 C 
HETATM   16  C   UNL     1     -10.667  -7.186   8.962  1.00  0.00     0.036 C 
HETATM   17  C   UNL     1      -8.758  -5.526   9.809  1.00  0.00    -0.004 C 
HETATM   18  C   UNL     1      -9.647  -7.371  11.177  1.00  0.00     0.006 C 
ENDROOT
BRANCH   3  19
HETATM   19  C   UNL     1     -12.090  -5.431   7.880  1.00  0.00    -0.033 C 
HETATM   20  C   UNL     1     -12.432  -5.790   6.570  1.00  0.00     0.011 C 
HETATM   21  C   UNL     1     -13.628  -5.591   5.903  1.00  0.00     0.001 C 
HETATM   22  C   UNL     1     -14.736  -4.802   6.196  1.00  0.00     0.000 C 
HETATM   23  C   UNL     1     -15.020  -4.175   7.387  1.00  0.00     0.000 C 
HETATM   24  C   UNL     1     -14.138  -4.077   8.470  1.00  0.00     0.001 C 
HETATM   25  C   UNL     1     -12.998  -4.779   8.716  1.00  0.00     0.011 C 
ENDBRANCH   3  19
BRANCH  14  26
HETATM   26  O   UNL     1      -5.920  -4.758   8.207  1.00  0.00    -0.347 OA
ATOM     27  HO  UNL     1      -5.378  -4.019   7.957  1.00  0.00     0.215 HD
ENDBRANCH  14  26
BRANCH  14  28
HETATM   28  O   UNL     1      -6.357  -3.662  10.184  1.00  0.00    -0.347 OA
ATOM     29  HO  UNL     1      -6.634  -3.925  11.053  1.00  0.00     0.215 HD
ENDBRANCH  14  28
TORSDOF 3
ENDMDL
