MODEL 1
REMARK VINA RESULT:      -9.0      0.000      0.000
REMARK  1 active torsions:
REMARK  status: ('A' for Active; 'I' for Inactive)
REMARK    1  A    between atoms: C_6  and  C_13 
ROOT
HETATM    1  C   UNL     1       3.670  -2.852   3.597  1.00  0.00    -0.002 C 
HETATM    2  C   UNL     1       4.591  -1.379   6.249  1.00  0.00     0.012 C 
HETATM    3  C   UNL     1       5.395  -1.014   4.992  1.00  0.00     0.037 C 
HETATM    4  C   UNL     1       9.054  -3.357   7.003  1.00  0.00     0.038 C 
HETATM    5  C   UNL     1       7.874  -2.426   7.278  1.00  0.00     0.029 C 
HETATM    6  C   UNL     1       7.775  -4.106   4.853  1.00  0.00     0.153 C 
HETATM    7  N   UNL     1       6.815  -3.066   5.272  1.00  0.00    -0.397 N 
HETATM    8  C   UNL     1       6.085  -2.219   4.330  1.00  0.00     0.103 C 
HETATM    9  C   UNL     1       9.093  -3.910   5.586  1.00  0.00    -0.052 C 
HETATM   10  C   UNL     1       2.873  -2.374   4.667  1.00  0.00    -0.004 C 
HETATM   11  C   UNL     1       5.361  -2.300   7.200  1.00  0.00     0.033 C 
HETATM   12  C   UNL     1       3.242  -1.998   5.930  1.00  0.00    -0.022 C 
HETATM   13  C   UNL     1       6.590  -3.066   6.707  1.00  0.00     0.081 C 
HETATM   14  C   UNL     1       5.072  -3.069   3.551  1.00  0.00    -0.002 C 
ENDROOT
BRANCH   9  15
HETATM   15  C   UNL     1      10.389  -4.131   4.979  1.00  0.00    -0.032 C 
HETATM   16  C   UNL     1      11.214  -3.049   4.571  1.00  0.00     0.011 C 
HETATM   17  C   UNL     1      12.596  -3.048   4.600  1.00  0.00     0.001 C 
HETATM   18  C   UNL     1      13.511  -4.093   4.761  1.00  0.00     0.000 C 
HETATM   19  C   UNL     1      13.308  -5.409   5.078  1.00  0.00     0.000 C 
HETATM   20  C   UNL     1      12.060  -6.023   5.155  1.00  0.00     0.001 C 
HETATM   21  C   UNL     1      10.845  -5.462   4.812  1.00  0.00     0.011 C 
ENDBRANCH   9  15
TORSDOF 1
ENDMDL
MODEL 2
REMARK VINA RESULT:      -9.0      3.873      6.367
REMARK  1 active torsions:
REMARK  status: ('A' for Active; 'I' for Inactive)
REMARK    1  A    between atoms: C_6  and  C_13 
ROOT
HETATM    1  C   UNL     1       8.552  -5.585   4.109  1.00  0.00    -0.002 C 
HETATM    2  C   UNL     1      11.133  -7.194   5.003  1.00  0.00     0.012 C 
HETATM    3  C   UNL     1      10.563  -6.241   6.065  1.00  0.00     0.037 C 
HETATM    4  C   UNL     1      14.490  -3.590   5.374  1.00  0.00     0.038 C 
HETATM    5  C   UNL     1      13.957  -5.019   5.472  1.00  0.00     0.029 C 
HETATM    6  C   UNL     1      12.055  -2.880   4.750  1.00  0.00     0.153 C 
HETATM    7  N   UNL     1      11.761  -4.305   5.005  1.00  0.00    -0.397 N 
HETATM    8  C   UNL     1      10.515  -4.772   5.611  1.00  0.00     0.103 C 
HETATM    9  C   UNL     1      13.405  -2.523   5.351  1.00  0.00    -0.052 C 
HETATM   10  C   UNL     1       8.916  -6.919   3.796  1.00  0.00    -0.004 C 
HETATM   11  C   UNL     1      12.414  -6.664   4.354  1.00  0.00     0.033 C 
HETATM   12  C   UNL     1      10.128  -7.544   3.921  1.00  0.00    -0.022 C 
HETATM   13  C   UNL     1      12.788  -5.185   4.478  1.00  0.00     0.081 C 
HETATM   14  C   UNL     1       9.350  -4.538   4.639  1.00  0.00    -0.002 C 
ENDROOT
BRANCH   9  15
HETATM   15  C   UNL     1      13.689  -1.253   5.988  1.00  0.00    -0.032 C 
HETATM   16  C   UNL     1      12.660  -0.314   6.265  1.00  0.00     0.011 C 
HETATM   17  C   UNL     1      12.638   0.545   7.349  1.00  0.00     0.001 C 
HETATM   18  C   UNL     1      13.641   0.906   8.253  1.00  0.00     0.000 C 
HETATM   19  C   UNL     1      14.906   0.410   8.420  1.00  0.00     0.000 C 
HETATM   20  C   UNL     1      15.520  -0.502   7.565  1.00  0.00     0.001 C 
HETATM   21  C   UNL     1      15.024  -0.960   6.359  1.00  0.00     0.011 C 
ENDBRANCH   9  15
TORSDOF 1
ENDMDL
MODEL 3
REMARK VINA RESULT:      -8.9      2.022      7.453
REMARK  1 active torsions:
REMARK  status: ('A' for Active; 'I' for Inactive)
REMARK    1  A    between atoms: C_6  and  C_13 
ROOT
HETATM    1  C   UNL     1      13.738  -0.805   6.318  1.00  0.00    -0.002 C 
HETATM    2  C   UNL     1      14.551  -3.562   4.982  1.00  0.00     0.012 C 
HETATM    3  C   UNL     1      13.748  -2.615   4.077  1.00  0.00     0.037 C 
HETATM    4  C   UNL     1      10.160  -5.763   4.460  1.00  0.00     0.038 C 
HETATM    5  C   UNL     1      11.674  -5.616   4.322  1.00  0.00     0.029 C 
HETATM    6  C   UNL     1      10.162  -3.342   5.441  1.00  0.00     0.153 C 
HETATM    7  N   UNL     1      11.601  -3.400   5.119  1.00  0.00    -0.397 N 
HETATM    8  C   UNL     1      12.366  -2.247   4.644  1.00  0.00     0.103 C 
HETATM    9  C   UNL     1       9.428  -4.450   4.702  1.00  0.00    -0.052 C 
HETATM   10  C   UNL     1      14.934  -1.549   6.480  1.00  0.00    -0.004 C 
HETATM   11  C   UNL     1      13.718  -4.738   5.500  1.00  0.00     0.033 C 
HETATM   12  C   UNL     1      15.202  -2.851   6.154  1.00  0.00    -0.022 C 
HETATM   13  C   UNL     1      12.190  -4.688   5.442  1.00  0.00     0.081 C 
HETATM   14  C   UNL     1      12.494  -1.214   5.772  1.00  0.00    -0.002 C 
ENDROOT
BRANCH   9  15
HETATM   15  C   UNL     1       8.106  -4.294   4.133  1.00  0.00    -0.032 C 
HETATM   16  C   UNL     1       7.394  -5.397   3.590  1.00  0.00     0.011 C 
HETATM   17  C   UNL     1       6.021  -5.552   3.623  1.00  0.00     0.001 C 
HETATM   18  C   UNL     1       5.003  -4.642   3.922  1.00  0.00     0.000 C 
HETATM   19  C   UNL     1       5.069  -3.363   4.406  1.00  0.00     0.000 C 
HETATM   20  C   UNL     1       6.245  -2.633   4.559  1.00  0.00     0.001 C 
HETATM   21  C   UNL     1       7.507  -3.010   4.141  1.00  0.00     0.011 C 
ENDBRANCH   9  15
TORSDOF 1
ENDMDL
MODEL 4
REMARK VINA RESULT:      -8.5      4.772      9.077
REMARK  1 active torsions:
REMARK  status: ('A' for Active; 'I' for Inactive)
REMARK    1  A    between atoms: C_6  and  C_13 
ROOT
HETATM    1  C   UNL     1      14.694 -11.730   1.953  1.00  0.00    -0.002 C 
HETATM    2  C   UNL     1      11.668 -11.450   1.052  1.00  0.00     0.012 C 
HETATM    3  C   UNL     1      12.558 -10.242   0.720  1.00  0.00     0.037 C 
HETATM    4  C   UNL     1      10.057  -7.856   4.032  1.00  0.00     0.038 C 
HETATM    5  C   UNL     1       9.962  -8.885   2.907  1.00  0.00     0.029 C 
HETATM    6  C   UNL     1      12.580  -8.504   4.216  1.00  0.00     0.153 C 
HETATM    7  N   UNL     1      12.267  -9.355   3.051  1.00  0.00    -0.397 N 
HETATM    8  C   UNL     1      13.206  -9.597   1.957  1.00  0.00     0.103 C 
HETATM    9  C   UNL     1      11.482  -7.470   4.403  1.00  0.00    -0.052 C 
HETATM   10  C   UNL     1      13.825 -12.729   1.446  1.00  0.00    -0.004 C 
HETATM   11  C   UNL     1      10.723 -11.187   2.227  1.00  0.00     0.033 C 
HETATM   12  C   UNL     1      12.463 -12.716   1.317  1.00  0.00    -0.022 C 
HETATM   13  C   UNL     1      10.979 -10.015   3.177  1.00  0.00     0.081 C 
HETATM   14  C   UNL     1      14.382 -10.444   2.463  1.00  0.00    -0.002 C 
ENDROOT
BRANCH   9  15
HETATM   15  C   UNL     1      11.727  -6.107   4.825  1.00  0.00    -0.032 C 
HETATM   16  C   UNL     1      13.042  -5.573   4.890  1.00  0.00     0.011 C 
HETATM   17  C   UNL     1      13.379  -4.256   4.641  1.00  0.00     0.001 C 
HETATM   18  C   UNL     1      12.584  -3.111   4.530  1.00  0.00     0.000 C 
HETATM   19  C   UNL     1      11.222  -2.976   4.498  1.00  0.00     0.000 C 
HETATM   20  C   UNL     1      10.316  -4.007   4.735  1.00  0.00     0.001 C 
HETATM   21  C   UNL     1      10.621  -5.286   5.159  1.00  0.00     0.011 C 
ENDBRANCH   9  15
TORSDOF 1
ENDMDL
MODEL 5
REMARK VINA RESULT:      -8.5      4.996      7.580
REMARK  1 active torsions:
REMARK  status: ('A' for Active; 'I' for Inactive)
REMARK    1  A    between atoms: C_6  and  C_13 
ROOT
HETATM    1  C   UNL     1      12.947 -11.246   3.500  1.00  0.00    -0.002 C 
HETATM    2  C   UNL     1      10.056 -10.041   3.012  1.00  0.00     0.012 C 
HETATM    3  C   UNL     1      11.173  -9.405   2.172  1.00  0.00     0.037 C 
HETATM    4  C   UNL     1      10.542  -5.478   4.839  1.00  0.00     0.038 C 
HETATM    5  C   UNL     1       9.827  -6.637   4.144  1.00  0.00     0.029 C 
HETATM    6  C   UNL     1      12.670  -6.993   4.854  1.00  0.00     0.153 C 
HETATM    7  N   UNL     1      11.804  -7.917   4.095  1.00  0.00    -0.397 N 
HETATM    8  C   UNL     1      12.295  -8.774   3.017  1.00  0.00     0.103 C 
HETATM    9  C   UNL     1      12.059  -5.600   4.847  1.00  0.00    -0.052 C 
HETATM   10  C   UNL     1      11.699 -11.918   3.486  1.00  0.00    -0.004 C 
HETATM   11  C   UNL     1       9.588  -9.142   4.160  1.00  0.00     0.033 C 
HETATM   12  C   UNL     1      10.432 -11.406   3.562  1.00  0.00    -0.022 C 
HETATM   13  C   UNL     1      10.451  -7.966   4.620  1.00  0.00     0.081 C 
HETATM   14  C   UNL     1      13.217  -9.856   3.596  1.00  0.00    -0.002 C 
ENDROOT
BRANCH   9  15
HETATM   15  C   UNL     1      12.838  -4.383   4.754  1.00  0.00    -0.032 C 
HETATM   16  C   UNL     1      12.266  -3.166   4.300  1.00  0.00     0.011 C 
HETATM   17  C   UNL     1      12.624  -1.905   4.740  1.00  0.00     0.001 C 
HETATM   18  C   UNL     1      13.728  -1.472   5.480  1.00  0.00     0.000 C 
HETATM   19  C   UNL     1      14.711  -2.188   6.110  1.00  0.00     0.000 C 
HETATM   20  C   UNL     1      14.886  -3.565   5.996  1.00  0.00     0.001 C 
HETATM   21  C   UNL     1      14.199  -4.413   5.150  1.00  0.00     0.011 C 
ENDBRANCH   9  15
TORSDOF 1
ENDMDL
MODEL 6
REMARK VINA RESULT:      -8.3      1.050      1.198
REMARK  1 active torsions:
REMARK  status: ('A' for Active; 'I' for Inactive)
REMARK    1  A    between atoms: C_6  and  C_13 
ROOT
HETATM    1  C   UNL     1       4.261  -4.685   3.275  1.00  0.00    -0.002 C 
HETATM    2  C   UNL     1       4.589  -2.538   5.584  1.00  0.00     0.012 C 
HETATM    3  C   UNL     1       5.331  -2.207   4.280  1.00  0.00     0.037 C 
HETATM    4  C   UNL     1       9.374  -3.001   6.718  1.00  0.00     0.038 C 
HETATM    5  C   UNL     1       7.969  -2.406   6.802  1.00  0.00     0.029 C 
HETATM    6  C   UNL     1       8.474  -4.473   4.757  1.00  0.00     0.153 C 
HETATM    7  N   UNL     1       7.243  -3.685   4.962  1.00  0.00    -0.397 N 
HETATM    8  C   UNL     1       6.362  -3.272   3.870  1.00  0.00     0.103 C 
HETATM    9  C   UNL     1       9.643  -3.779   5.438  1.00  0.00    -0.052 C 
HETATM   10  C   UNL     1       3.303  -4.257   4.228  1.00  0.00    -0.004 C 
HETATM   11  C   UNL     1       5.527  -3.008   6.699  1.00  0.00     0.033 C 
HETATM   12  C   UNL     1       3.483  -3.560   5.392  1.00  0.00    -0.022 C 
HETATM   13  C   UNL     1       6.946  -3.477   6.368  1.00  0.00     0.081 C 
HETATM   14  C   UNL     1       5.668  -4.504   3.273  1.00  0.00    -0.002 C 
ENDROOT
BRANCH   9  15
HETATM   15  C   UNL     1      10.982  -3.738   4.888  1.00  0.00    -0.032 C 
HETATM   16  C   UNL     1      11.525  -2.546   4.340  1.00  0.00     0.011 C 
HETATM   17  C   UNL     1      12.859  -2.183   4.389  1.00  0.00     0.001 C 
HETATM   18  C   UNL     1      13.999  -2.924   4.712  1.00  0.00     0.000 C 
HETATM   19  C   UNL     1      14.121  -4.193   5.212  1.00  0.00     0.000 C 
HETATM   20  C   UNL     1      13.068  -5.093   5.359  1.00  0.00     0.001 C 
HETATM   21  C   UNL     1      11.769  -4.916   4.921  1.00  0.00     0.011 C 
ENDBRANCH   9  15
TORSDOF 1
ENDMDL
MODEL 7
REMARK VINA RESULT:      -8.0      1.211      2.604
REMARK  1 active torsions:
REMARK  status: ('A' for Active; 'I' for Inactive)
REMARK    1  A    between atoms: C_6  and  C_13 
ROOT
HETATM    1  C   UNL     1       4.385  -0.602   5.619  1.00  0.00    -0.002 C 
HETATM    2  C   UNL     1       3.651  -3.636   5.067  1.00  0.00     0.012 C 
HETATM    3  C   UNL     1       4.543  -3.398   6.295  1.00  0.00     0.037 C 
HETATM    4  C   UNL     1       8.037  -5.523   3.803  1.00  0.00     0.038 C 
HETATM    5  C   UNL     1       6.542  -5.551   4.119  1.00  0.00     0.029 C 
HETATM    6  C   UNL     1       7.986  -3.004   4.495  1.00  0.00     0.153 C 
HETATM    7  N   UNL     1       6.579  -3.304   4.827  1.00  0.00    -0.397 N 
HETATM    8  C   UNL     1       5.876  -2.706   5.962  1.00  0.00     0.103 C 
HETATM    9  C   UNL     1       8.764  -4.303   4.351  1.00  0.00    -0.052 C 
HETATM   10  C   UNL     1       3.169  -1.144   5.134  1.00  0.00    -0.004 C 
HETATM   11  C   UNL     1       4.417  -4.223   3.879  1.00  0.00     0.033 C 
HETATM   12  C   UNL     1       2.911  -2.387   4.622  1.00  0.00    -0.022 C 
HETATM   13  C   UNL     1       5.945  -4.156   3.836  1.00  0.00     0.081 C 
HETATM   14  C   UNL     1       5.666  -1.208   5.706  1.00  0.00    -0.002 C 
ENDROOT
BRANCH   9  15
HETATM   15  C   UNL     1      10.133  -4.470   4.792  1.00  0.00    -0.032 C 
HETATM   16  C   UNL     1      10.735  -5.753   4.880  1.00  0.00     0.011 C 
HETATM   17  C   UNL     1      12.072  -6.022   4.650  1.00  0.00     0.001 C 
HETATM   18  C   UNL     1      13.174  -5.169   4.543  1.00  0.00     0.000 C 
HETATM   19  C   UNL     1      13.236  -3.802   4.495  1.00  0.00     0.000 C 
HETATM   20  C   UNL     1      12.155  -2.950   4.708  1.00  0.00     0.001 C 
HETATM   21  C   UNL     1      10.889  -3.317   5.121  1.00  0.00     0.011 C 
ENDBRANCH   9  15
TORSDOF 1
ENDMDL
MODEL 8
REMARK VINA RESULT:      -7.4      7.736     10.355
REMARK  1 active torsions:
REMARK  status: ('A' for Active; 'I' for Inactive)
REMARK    1  A    between atoms: C_6  and  C_13 
ROOT
HETATM    1  C   UNL     1      12.962  -1.628  14.775  1.00  0.00    -0.002 C 
HETATM    2  C   UNL     1      14.609   1.077  14.650  1.00  0.00     0.012 C 
HETATM    3  C   UNL     1      13.305   1.075  13.839  1.00  0.00     0.037 C 
HETATM    4  C   UNL     1      16.075   1.150   9.934  1.00  0.00     0.038 C 
HETATM    5  C   UNL     1      15.919   1.684  11.358  1.00  0.00     0.029 C 
HETATM    6  C   UNL     1      14.547  -0.837  10.669  1.00  0.00     0.153 C 
HETATM    7  N   UNL     1      14.464  -0.078  11.932  1.00  0.00    -0.397 N 
HETATM    8  C   UNL     1      13.257  -0.016  12.754  1.00  0.00     0.103 C 
HETATM    9  C   UNL     1      15.073   0.066   9.564  1.00  0.00    -0.052 C 
HETATM   10  C   UNL     1      13.710  -0.999  15.802  1.00  0.00    -0.004 C 
HETATM   11  C   UNL     1      15.857   0.970  13.771  1.00  0.00     0.033 C 
HETATM   12  C   UNL     1      14.647  -0.005  15.714  1.00  0.00    -0.022 C 
HETATM   13  C   UNL     1      15.742   0.492  12.321  1.00  0.00     0.081 C 
HETATM   14  C   UNL     1      12.984  -1.393  13.375  1.00  0.00    -0.002 C 
ENDROOT
BRANCH   9  15
HETATM   15  C   UNL     1      14.603   0.015   8.196  1.00  0.00    -0.032 C 
HETATM   16  C   UNL     1      15.264  -0.765   7.210  1.00  0.00     0.011 C 
HETATM   17  C   UNL     1      14.643  -1.402   6.152  1.00  0.00     0.001 C 
HETATM   18  C   UNL     1      13.355  -1.264   5.625  1.00  0.00     0.000 C 
HETATM   19  C   UNL     1      12.279  -0.556   6.089  1.00  0.00     0.000 C 
HETATM   20  C   UNL     1      12.315   0.334   7.160  1.00  0.00     0.001 C 
HETATM   21  C   UNL     1      13.441   0.748   7.846  1.00  0.00     0.011 C 
ENDBRANCH   9  15
TORSDOF 1
ENDMDL
MODEL 9
REMARK VINA RESULT:      -7.2      2.760      7.264
REMARK  1 active torsions:
REMARK  status: ('A' for Active; 'I' for Inactive)
REMARK    1  A    between atoms: C_6  and  C_13 
ROOT
HETATM    1  C   UNL     1       9.797  -9.694   2.174  1.00  0.00    -0.002 C 
HETATM    2  C   UNL     1      12.218  -8.931   4.072  1.00  0.00     0.012 C 
HETATM    3  C   UNL     1      10.870  -9.118   4.784  1.00  0.00     0.037 C 
HETATM    4  C   UNL     1      10.950  -4.393   5.552  1.00  0.00     0.038 C 
HETATM    5  C   UNL     1      11.806  -5.658   5.501  1.00  0.00     0.029 C 
HETATM    6  C   UNL     1       9.264  -5.647   4.000  1.00  0.00     0.153 C 
HETATM    7  N   UNL     1      10.200  -6.773   4.186  1.00  0.00    -0.397 N 
HETATM    8  C   UNL     1       9.771  -8.168   4.280  1.00  0.00     0.103 C 
HETATM    9  C   UNL     1       9.522  -4.588   5.061  1.00  0.00    -0.052 C 
HETATM   10  C   UNL     1      11.152 -10.102   2.088  1.00  0.00    -0.004 C 
HETATM   11  C   UNL     1      12.627  -7.461   3.948  1.00  0.00     0.033 C 
HETATM   12  C   UNL     1      12.259  -9.583   2.702  1.00  0.00    -0.022 C 
HETATM   13  C   UNL     1      11.589  -6.352   4.140  1.00  0.00     0.081 C 
HETATM   14  C   UNL     1       9.225  -8.633   2.923  1.00  0.00    -0.002 C 
ENDROOT
BRANCH   9  15
HETATM   15  C   UNL     1       8.474  -3.820   5.699  1.00  0.00    -0.032 C 
HETATM   16  C   UNL     1       8.577  -3.398   7.051  1.00  0.00     0.011 C 
HETATM   17  C   UNL     1       8.058  -2.222   7.560  1.00  0.00     0.001 C 
HETATM   18  C   UNL     1       7.135  -1.319   7.023  1.00  0.00     0.000 C 
HETATM   19  C   UNL     1       6.578  -1.258   5.774  1.00  0.00     0.000 C 
HETATM   20  C   UNL     1       6.722  -2.235   4.791  1.00  0.00     0.001 C 
HETATM   21  C   UNL     1       7.330  -3.466   4.940  1.00  0.00     0.011 C 
ENDBRANCH   9  15
TORSDOF 1
ENDMDL
