REMARK  0 active torsions:
REMARK  status: ('A' for Active; 'I' for Inactive)
ROOT
HETATM    1  C   UNL     1      11.486  -6.802   3.952  1.00  0.00     0.082 C 
HETATM    2  N   UNL     1       9.130  -7.597   4.128  1.00  0.00    -0.361 N 
ATOM      3  HN  UNL     1       8.432  -8.312   3.924  1.00  0.00     0.162 HD
HETATM    4  N   UNL     1      15.081  -1.213   7.482  1.00  0.00    -0.388 N 
ATOM      5  HN  UNL     1      15.444  -1.729   8.284  1.00  0.00     0.159 HD
HETATM    6  C   UNL     1      10.417  -7.905   3.874  1.00  0.00     0.222 C 
HETATM    7  C   UNL     1      14.254  -3.713   4.903  1.00  0.00     0.002 C 
HETATM    8  C   UNL     1      13.365   0.309   6.952  1.00  0.00     0.104 C 
HETATM    9  C   UNL     1      12.076  -4.597   4.377  1.00  0.00    -0.004 C 
HETATM   10  C   UNL     1       8.642  -6.316   4.676  1.00  0.00     0.123 C 
HETATM   11  C   UNL     1      13.628  -1.517   5.601  1.00  0.00     0.013 C 
HETATM   12  C   UNL     1      15.059  -3.293   6.157  1.00  0.00     0.037 C 
HETATM   13  C   UNL     1       9.655  -5.181   4.724  1.00  0.00     0.025 C 
HETATM   14  C   UNL     1      13.299  -2.531   4.555  1.00  0.00     0.038 C 
HETATM   15  C   UNL     1      11.090  -5.653   4.943  1.00  0.00     0.004 C 
HETATM   16  O   UNL     1      10.722  -9.013   3.420  1.00  0.00    -0.273 OA
HETATM   17  C   UNL     1      12.780  -7.364   4.578  1.00  0.00     0.015 C 
HETATM   18  C   UNL     1      11.859  -3.093   4.665  1.00  0.00     0.016 C 
HETATM   19  C   UNL     1      14.619   0.067   7.536  1.00  0.00     0.100 C 
HETATM   20  C   UNL     1      14.990  -1.750   6.133  1.00  0.00     0.127 C 
HETATM   21  C   UNL     1      13.327  -4.903   5.234  1.00  0.00    -0.005 C 
HETATM   22  C   UNL     1      13.833  -6.253   4.714  1.00  0.00     0.006 C 
HETATM   23  N   UNL     1      12.905  -0.463   5.948  1.00  0.00    -0.369 N 
ATOM     24  HN  UNL     1      12.030  -0.243   5.472  1.00  0.00     0.165 HD
ENDROOT
TORSDOF 0
