REMARK  0 active torsions:
REMARK  status: ('A' for Active; 'I' for Inactive)
ROOT
HETATM    1  N   UNL     1       6.921  16.623  93.090  1.00  0.00    -0.337 N 
ATOM      2  HN  UNL     1       6.239  15.884  92.920  1.00  0.00     0.168 HD
HETATM    3  N   UNL     1       8.302  16.506  91.091  1.00  0.00    -0.340 N 
ATOM      4  HN  UNL     1       7.829  15.711  90.661  1.00  0.00     0.167 HD
HETATM    5  C   UNL     1      10.405  17.649  91.305  1.00  0.00    -0.007 C 
HETATM    6  C   UNL     1       9.423  17.283  89.086  1.00  0.00     0.030 C 
HETATM    7  C   UNL     1       8.851  17.696  93.105  1.00  0.00     0.078 C 
HETATM    8  C   UNL     1      11.723  17.972  89.298  1.00  0.00     0.001 C 
HETATM    9  C   UNL     1       7.965  16.976  92.307  1.00  0.00     0.134 C 
HETATM   10  C   UNL     1      11.616  17.980  90.679  1.00  0.00     0.014 C 
HETATM   11  C   UNL     1       9.324  17.173  90.475  1.00  0.00     0.044 C 
HETATM   12  C   UNL     1       6.976  17.452  94.134  1.00  0.00     0.182 C 
HETATM   13  C   UNL     1      10.575  17.801  88.515  1.00  0.00     0.002 C 
HETATM   14  N   UNL     1       8.082  18.199  94.131  1.00  0.00    -0.349 N 
ATOM     15  HN  UNL     1       8.309  18.974  94.754  1.00  0.00     0.166 HD
HETATM   16  C   UNL     1      10.027  18.205  92.552  1.00  0.00     0.047 C 
ENDROOT
TORSDOF 0
