REMARK  1 active torsions:
REMARK  status: ('A' for Active; 'I' for Inactive)
REMARK    1  A    between atoms: O_3  and  C_10 
ROOT
HETATM    1  C   UNL     1       8.851  16.876  91.225  1.00  0.00     0.081 C 
HETATM    2  C   UNL     1       9.456  16.984  88.282  1.00  0.00     0.005 C 
HETATM    3  C   UNL     1       9.536  16.924  93.536  1.00  0.00     0.101 C 
HETATM    4  C   UNL     1      10.649  17.381  92.613  1.00  0.00     0.138 C 
HETATM    5  C   UNL     1       8.193  16.757  88.834  1.00  0.00     0.002 C 
HETATM    6  C   UNL     1      11.104  17.031  90.231  1.00  0.00     0.247 C 
HETATM    7  C   UNL     1       8.016  16.551  90.183  1.00  0.00     0.031 C 
HETATM    8  C   UNL     1       8.314  17.009  92.634  1.00  0.00     0.248 C 
HETATM    9  O   UNL     1      12.294  16.769  90.414  1.00  0.00    -0.268 OA
HETATM   10  C   UNL     1      10.633  17.178  88.915  1.00  0.00     0.074 C 
HETATM   11  F   UNL     1       7.847  18.293  92.777  1.00  0.00    -0.204 F 
HETATM   12  N   UNL     1      10.255  16.851  91.298  1.00  0.00    -0.313 N 
ENDROOT
BRANCH   8  13
HETATM   13  O   UNL     1       7.295  16.120  92.945  1.00  0.00    -0.357 OA
ATOM     14  HO  UNL     1       6.958  16.203  93.829  1.00  0.00     0.213 HD
ENDBRANCH   8  13
TORSDOF 1
