MODEL 1
REMARK VINA RESULT:      -9.4      0.000      0.000
REMARK  12 active torsions:
REMARK  status: ('A' for Active; 'I' for Inactive)
REMARK    1  A    between atoms: O_2  and  S_4 
REMARK    2  A    between atoms: S_4  and  O_11 
REMARK    3  A    between atoms: S_4  and  O_13 
REMARK    4  A    between atoms: S_4  and  N_19 
REMARK    5  A    between atoms: S_4  and  C_24 
REMARK    6  A    between atoms: C_5  and  O_17 
REMARK    7  A    between atoms: C_5  and  C_20 
REMARK    8  A    between atoms: C_5  and  O_25 
REMARK    9  A    between atoms: C_5  and  O_28 
REMARK   10  A    between atoms: C_6  and  N_19 
REMARK   11  A    between atoms: C_6  and  C_27 
REMARK   12  A    between atoms: C_27  and  C_30 
ROOT
HETATM    1  C   UNL     1      37.548  26.324  33.971  1.00  0.00     0.131 C 
ENDROOT
BRANCH   1   2
HETATM    2  N   UNL     1      37.474  27.746  33.583  1.00  0.00    -0.137 NA
BRANCH   2   3
HETATM    3  S   UNL     1      39.026  28.366  33.356  1.00  0.00     0.100 SA
BRANCH   3   4
HETATM    4  O   UNL     1      38.625  28.604  31.789  1.00  0.00    -0.302 OA
ATOM      5  HO  UNL     1      39.572  28.655  31.848  1.00  0.00     0.231 HD
ENDBRANCH   3   4
BRANCH   3   6
HETATM    6  O   UNL     1      40.035  27.681  32.542  1.00  0.00    -0.302 OA
ATOM      7  HO  UNL     1      39.864  28.520  32.130  1.00  0.00     0.231 HD
ENDBRANCH   3   6
BRANCH   3   8
HETATM    8  O   UNL     1      38.888  29.798  33.193  1.00  0.00    -0.302 OA
ATOM      9  HO  UNL     1      38.099  29.415  32.828  1.00  0.00     0.231 HD
ENDBRANCH   3   8
BRANCH   3  10
HETATM   10  C   UNL     1      39.700  28.311  34.970  1.00  0.00     0.058 C 
HETATM   11  C   UNL     1      40.166  27.047  35.366  1.00  0.00     0.024 C 
HETATM   12  C   UNL     1      40.408  26.549  36.642  1.00  0.00     0.002 C 
HETATM   13  C   UNL     1      40.480  27.240  37.848  1.00  0.00     0.000 C 
HETATM   14  C   UNL     1      40.370  28.626  38.008  1.00  0.00     0.000 C 
HETATM   15  C   UNL     1      40.177  29.610  37.036  1.00  0.00     0.002 C 
HETATM   16  C   UNL     1      39.815  29.495  35.693  1.00  0.00     0.024 C 
ENDBRANCH   3  10
ENDBRANCH   2   3
ENDBRANCH   1   2
BRANCH   1  17
HETATM   17  C   UNL     1      37.403  25.402  32.745  1.00  0.00     0.055 C 
BRANCH  17  18
HETATM   18  C   UNL     1      35.956  25.018  32.569  1.00  0.00    -0.057 C 
HETATM   19  C   UNL     1      35.532  24.784  31.265  1.00  0.00     0.008 C 
HETATM   20  C   UNL     1      34.184  24.580  30.986  1.00  0.00     0.016 C 
HETATM   21  C   UNL     1      33.248  24.717  32.007  1.00  0.00     0.033 C 
HETATM   22  C   UNL     1      33.688  24.731  33.331  1.00  0.00     0.016 C 
HETATM   23  C   UNL     1      35.048  24.902  33.605  1.00  0.00     0.008 C 
BRANCH  21  24
HETATM   24  C   UNL     1      31.753  24.784  31.692  1.00  0.00     0.307 C 
BRANCH  24  25
HETATM   25  O   UNL     1      31.518  24.276  30.457  1.00  0.00    -0.340 OA
ATOM     26  HO  UNL     1      32.342  24.124  30.008  1.00  0.00     0.216 HD
ENDBRANCH  24  25
BRANCH  24  27
HETATM   27  O   UNL     1      31.328  26.082  31.684  1.00  0.00    -0.340 OA
ATOM     28  HO  UNL     1      31.323  26.371  30.778  1.00  0.00     0.216 HD
ENDBRANCH  24  27
BRANCH  24  29
HETATM   29  O   UNL     1      31.061  23.996  32.620  1.00  0.00    -0.340 OA
ATOM     30  HO  UNL     1      31.700  23.597  33.198  1.00  0.00     0.216 HD
ENDBRANCH  24  29
ENDBRANCH  21  24
ENDBRANCH  17  18
ENDBRANCH   1  17
TORSDOF 12
ENDMDL
MODEL 2
REMARK VINA RESULT:      -9.1      2.727      7.577
REMARK  12 active torsions:
REMARK  status: ('A' for Active; 'I' for Inactive)
REMARK    1  A    between atoms: O_2  and  S_4 
REMARK    2  A    between atoms: S_4  and  O_11 
REMARK    3  A    between atoms: S_4  and  O_13 
REMARK    4  A    between atoms: S_4  and  N_19 
REMARK    5  A    between atoms: S_4  and  C_24 
REMARK    6  A    between atoms: C_5  and  O_17 
REMARK    7  A    between atoms: C_5  and  C_20 
REMARK    8  A    between atoms: C_5  and  O_25 
REMARK    9  A    between atoms: C_5  and  O_28 
REMARK   10  A    between atoms: C_6  and  N_19 
REMARK   11  A    between atoms: C_6  and  C_27 
REMARK   12  A    between atoms: C_27  and  C_30 
ROOT
HETATM    1  C   UNL     1      33.896  25.762  33.240  1.00  0.00     0.131 C 
ENDROOT
BRANCH   1   2
HETATM    2  N   UNL     1      33.019  24.721  32.670  1.00  0.00    -0.137 NA
BRANCH   2   3
HETATM    3  S   UNL     1      32.572  25.137  31.098  1.00  0.00     0.100 SA
BRANCH   3   4
HETATM    4  O   UNL     1      31.038  25.276  31.647  1.00  0.00    -0.302 OA
ATOM      5  HO  UNL     1      31.615  25.531  32.357  1.00  0.00     0.231 HD
ENDBRANCH   3   4
BRANCH   3   6
HETATM    6  O   UNL     1      31.733  24.271  30.264  1.00  0.00    -0.302 OA
ATOM      7  HO  UNL     1      31.167  24.664  30.917  1.00  0.00     0.231 HD
ENDBRANCH   3   6
BRANCH   3   8
HETATM    8  O   UNL     1      32.278  26.555  31.105  1.00  0.00    -0.302 OA
ATOM      9  HO  UNL     1      31.581  26.139  31.599  1.00  0.00     0.231 HD
ENDBRANCH   3   8
BRANCH   3  10
HETATM   10  C   UNL     1      34.105  25.152  30.255  1.00  0.00     0.058 C 
HETATM   11  C   UNL     1      34.801  23.933  30.286  1.00  0.00     0.024 C 
HETATM   12  C   UNL     1      36.150  23.674  30.066  1.00  0.00     0.002 C 
HETATM   13  C   UNL     1      37.121  24.513  29.527  1.00  0.00     0.000 C 
HETATM   14  C   UNL     1      36.910  25.806  29.037  1.00  0.00     0.000 C 
HETATM   15  C   UNL     1      35.721  26.535  28.967  1.00  0.00     0.002 C 
HETATM   16  C   UNL     1      34.478  26.296  29.555  1.00  0.00     0.024 C 
ENDBRANCH   3  10
ENDBRANCH   2   3
ENDBRANCH   1   2
BRANCH   1  17
HETATM   17  C   UNL     1      35.038  25.138  34.066  1.00  0.00     0.055 C 
BRANCH  17  18
HETATM   18  C   UNL     1      36.304  25.929  33.857  1.00  0.00    -0.057 C 
HETATM   19  C   UNL     1      37.020  26.266  35.000  1.00  0.00     0.008 C 
HETATM   20  C   UNL     1      38.111  27.127  34.924  1.00  0.00     0.016 C 
HETATM   21  C   UNL     1      38.416  27.733  33.709  1.00  0.00     0.033 C 
HETATM   22  C   UNL     1      37.846  27.230  32.540  1.00  0.00     0.016 C 
HETATM   23  C   UNL     1      36.772  26.340  32.622  1.00  0.00     0.008 C 
BRANCH  21  24
HETATM   24  C   UNL     1      39.415  28.889  33.644  1.00  0.00     0.307 C 
BRANCH  24  25
HETATM   25  O   UNL     1      38.920  29.884  32.866  1.00  0.00    -0.340 OA
ATOM     26  HO  UNL     1      39.615  30.255  32.334  1.00  0.00     0.216 HD
ENDBRANCH  24  25
BRANCH  24  27
HETATM   27  O   UNL     1      40.584  28.473  33.073  1.00  0.00    -0.340 OA
ATOM     28  HO  UNL     1      40.561  28.736  32.160  1.00  0.00     0.216 HD
ENDBRANCH  24  27
BRANCH  24  29
HETATM   29  O   UNL     1      39.597  29.402  34.934  1.00  0.00    -0.340 OA
ATOM     30  HO  UNL     1      38.961  28.987  35.505  1.00  0.00     0.216 HD
ENDBRANCH  24  29
ENDBRANCH  21  24
ENDBRANCH  17  18
ENDBRANCH   1  17
TORSDOF 12
ENDMDL
MODEL 3
REMARK VINA RESULT:      -9.0      3.181      7.713
REMARK  12 active torsions:
REMARK  status: ('A' for Active; 'I' for Inactive)
REMARK    1  A    between atoms: O_2  and  S_4 
REMARK    2  A    between atoms: S_4  and  O_11 
REMARK    3  A    between atoms: S_4  and  O_13 
REMARK    4  A    between atoms: S_4  and  N_19 
REMARK    5  A    between atoms: S_4  and  C_24 
REMARK    6  A    between atoms: C_5  and  O_17 
REMARK    7  A    between atoms: C_5  and  C_20 
REMARK    8  A    between atoms: C_5  and  O_25 
REMARK    9  A    between atoms: C_5  and  O_28 
REMARK   10  A    between atoms: C_6  and  N_19 
REMARK   11  A    between atoms: C_6  and  C_27 
REMARK   12  A    between atoms: C_27  and  C_30 
ROOT
HETATM    1  C   UNL     1      37.874  27.048  31.991  1.00  0.00     0.131 C 
ENDROOT
BRANCH   1   2
HETATM    2  N   UNL     1      37.974  26.248  30.755  1.00  0.00    -0.137 NA
BRANCH   2   3
HETATM    3  S   UNL     1      37.352  24.702  31.014  1.00  0.00     0.100 SA
BRANCH   3   4
HETATM    4  O   UNL     1      38.856  24.127  30.729  1.00  0.00    -0.302 OA
ATOM      5  HO  UNL     1      38.242  23.462  30.441  1.00  0.00     0.231 HD
ENDBRANCH   3   4
BRANCH   3   6
HETATM    6  O   UNL     1      37.240  23.709  29.940  1.00  0.00    -0.302 OA
ATOM      7  HO  UNL     1      36.694  23.410  30.657  1.00  0.00     0.231 HD
ENDBRANCH   3   6
BRANCH   3   8
HETATM    8  O   UNL     1      37.858  24.254  32.295  1.00  0.00    -0.302 OA
ATOM      9  HO  UNL     1      37.585  25.155  32.421  1.00  0.00     0.231 HD
ENDBRANCH   3   8
BRANCH   3  10
HETATM   10  C   UNL     1      35.688  25.025  31.444  1.00  0.00     0.058 C 
HETATM   11  C   UNL     1      35.371  24.769  32.787  1.00  0.00     0.024 C 
HETATM   12  C   UNL     1      34.132  24.556  33.383  1.00  0.00     0.002 C 
HETATM   13  C   UNL     1      32.862  24.773  32.855  1.00  0.00     0.000 C 
HETATM   14  C   UNL     1      32.578  25.315  31.597  1.00  0.00     0.000 C 
HETATM   15  C   UNL     1      33.462  25.758  30.611  1.00  0.00     0.002 C 
HETATM   16  C   UNL     1      34.841  25.584  30.490  1.00  0.00     0.024 C 
ENDBRANCH   3  10
ENDBRANCH   2   3
ENDBRANCH   1   2
BRANCH   1  17
HETATM   17  C   UNL     1      39.097  27.972  32.158  1.00  0.00     0.055 C 
BRANCH  17  18
HETATM   18  C   UNL     1      39.572  27.928  33.588  1.00  0.00    -0.057 C 
HETATM   19  C   UNL     1      39.835  26.668  34.114  1.00  0.00     0.008 C 
HETATM   20  C   UNL     1      40.124  26.512  35.467  1.00  0.00     0.016 C 
HETATM   21  C   UNL     1      40.043  27.615  36.312  1.00  0.00     0.033 C 
HETATM   22  C   UNL     1      39.998  28.893  35.754  1.00  0.00     0.016 C 
HETATM   23  C   UNL     1      39.741  29.042  34.388  1.00  0.00     0.008 C 
BRANCH  21  24
HETATM   24  C   UNL     1      40.071  27.438  37.831  1.00  0.00     0.307 C 
BRANCH  24  25
HETATM   25  O   UNL     1      40.607  26.233  38.146  1.00  0.00    -0.340 OA
ATOM     26  HO  UNL     1      40.333  25.581  37.511  1.00  0.00     0.216 HD
ENDBRANCH  24  25
BRANCH  24  27
HETATM   27  O   UNL     1      38.801  27.460  38.333  1.00  0.00    -0.340 OA
ATOM     28  HO  UNL     1      38.321  28.127  37.857  1.00  0.00     0.216 HD
ENDBRANCH  24  27
BRANCH  24  29
HETATM   29  O   UNL     1      40.888  28.431  38.386  1.00  0.00    -0.340 OA
ATOM     30  HO  UNL     1      40.896  29.170  37.788  1.00  0.00     0.216 HD
ENDBRANCH  24  29
ENDBRANCH  21  24
ENDBRANCH  17  18
ENDBRANCH   1  17
TORSDOF 12
ENDMDL
MODEL 4
REMARK VINA RESULT:      -9.0      2.590      2.946
REMARK  12 active torsions:
REMARK  status: ('A' for Active; 'I' for Inactive)
REMARK    1  A    between atoms: O_2  and  S_4 
REMARK    2  A    between atoms: S_4  and  O_11 
REMARK    3  A    between atoms: S_4  and  O_13 
REMARK    4  A    between atoms: S_4  and  N_19 
REMARK    5  A    between atoms: S_4  and  C_24 
REMARK    6  A    between atoms: C_5  and  O_17 
REMARK    7  A    between atoms: C_5  and  C_20 
REMARK    8  A    between atoms: C_5  and  O_25 
REMARK    9  A    between atoms: C_5  and  O_28 
REMARK   10  A    between atoms: C_6  and  N_19 
REMARK   11  A    between atoms: C_6  and  C_27 
REMARK   12  A    between atoms: C_27  and  C_30 
ROOT
HETATM    1  C   UNL     1      36.927  26.658  33.543  1.00  0.00     0.131 C 
ENDROOT
BRANCH   1   2
HETATM    2  N   UNL     1      36.865  25.888  34.800  1.00  0.00    -0.137 NA
BRANCH   2   3
HETATM    3  S   UNL     1      36.296  26.864  36.051  1.00  0.00     0.100 SA
BRANCH   3   4
HETATM    4  O   UNL     1      34.787  26.380  35.648  1.00  0.00    -0.302 OA
ATOM      5  HO  UNL     1      35.207  25.651  36.089  1.00  0.00     0.231 HD
ENDBRANCH   3   4
BRANCH   3   6
HETATM    6  O   UNL     1      35.503  28.074  35.807  1.00  0.00    -0.302 OA
ATOM      7  HO  UNL     1      35.689  27.684  34.960  1.00  0.00     0.231 HD
ENDBRANCH   3   6
BRANCH   3   8
HETATM    8  O   UNL     1      35.863  25.979  37.112  1.00  0.00    -0.302 OA
ATOM      9  HO  UNL     1      35.072  26.270  36.675  1.00  0.00     0.231 HD
ENDBRANCH   3   8
BRANCH   3  10
HETATM   10  C   UNL     1      37.772  27.481  36.757  1.00  0.00     0.058 C 
HETATM   11  C   UNL     1      38.930  26.772  36.404  1.00  0.00     0.024 C 
HETATM   12  C   UNL     1      40.173  26.729  37.029  1.00  0.00     0.002 C 
HETATM   13  C   UNL     1      40.673  27.557  38.030  1.00  0.00     0.000 C 
HETATM   14  C   UNL     1      40.018  28.662  38.585  1.00  0.00     0.000 C 
HETATM   15  C   UNL     1      38.761  29.185  38.276  1.00  0.00     0.002 C 
HETATM   16  C   UNL     1      37.720  28.647  37.517  1.00  0.00     0.024 C 
ENDBRANCH   3  10
ENDBRANCH   2   3
ENDBRANCH   1   2
BRANCH   1  17
HETATM   17  C   UNL     1      36.936  25.726  32.316  1.00  0.00     0.055 C 
BRANCH  17  18
HETATM   18  C   UNL     1      35.550  25.650  31.727  1.00  0.00    -0.057 C 
HETATM   19  C   UNL     1      35.383  26.208  30.465  1.00  0.00     0.008 C 
HETATM   20  C   UNL     1      34.113  26.328  29.907  1.00  0.00     0.016 C 
HETATM   21  C   UNL     1      33.000  25.983  30.668  1.00  0.00     0.033 C 
HETATM   22  C   UNL     1      33.180  25.230  31.828  1.00  0.00     0.016 C 
HETATM   23  C   UNL     1      34.462  25.083  32.365  1.00  0.00     0.008 C 
BRANCH  21  24
HETATM   24  C   UNL     1      31.592  26.364  30.208  1.00  0.00     0.307 C 
BRANCH  24  25
HETATM   25  O   UNL     1      30.863  26.801  31.265  1.00  0.00    -0.340 OA
ATOM     26  HO  UNL     1      31.321  27.508  31.704  1.00  0.00     0.216 HD
ENDBRANCH  24  25
BRANCH  24  27
HETATM   27  O   UNL     1      30.950  25.273  29.696  1.00  0.00    -0.340 OA
ATOM     28  HO  UNL     1      30.708  25.482  28.802  1.00  0.00     0.216 HD
ENDBRANCH  24  27
BRANCH  24  29
HETATM   29  O   UNL     1      31.687  27.415  29.288  1.00  0.00    -0.340 OA
ATOM     30  HO  UNL     1      32.092  28.153  29.729  1.00  0.00     0.216 HD
ENDBRANCH  24  29
ENDBRANCH  21  24
ENDBRANCH  17  18
ENDBRANCH   1  17
TORSDOF 12
ENDMDL
MODEL 5
REMARK VINA RESULT:      -8.9      3.241      4.071
REMARK  12 active torsions:
REMARK  status: ('A' for Active; 'I' for Inactive)
REMARK    1  A    between atoms: O_2  and  S_4 
REMARK    2  A    between atoms: S_4  and  O_11 
REMARK    3  A    between atoms: S_4  and  O_13 
REMARK    4  A    between atoms: S_4  and  N_19 
REMARK    5  A    between atoms: S_4  and  C_24 
REMARK    6  A    between atoms: C_5  and  O_17 
REMARK    7  A    between atoms: C_5  and  C_20 
REMARK    8  A    between atoms: C_5  and  O_25 
REMARK    9  A    between atoms: C_5  and  O_28 
REMARK   10  A    between atoms: C_6  and  N_19 
REMARK   11  A    between atoms: C_6  and  C_27 
REMARK   12  A    between atoms: C_27  and  C_30 
ROOT
HETATM    1  C   UNL     1      35.214  25.557  34.134  1.00  0.00     0.131 C 
ENDROOT
BRANCH   1   2
HETATM    2  N   UNL     1      34.944  26.775  34.924  1.00  0.00    -0.137 NA
BRANCH   2   3
HETATM    3  S   UNL     1      36.072  26.920  36.169  1.00  0.00     0.100 SA
BRANCH   3   4
HETATM    4  O   UNL     1      34.836  26.707  37.218  1.00  0.00    -0.302 OA
ATOM      5  HO  UNL     1      35.634  26.763  37.731  1.00  0.00     0.231 HD
ENDBRANCH   3   4
BRANCH   3   6
HETATM    6  O   UNL     1      36.084  28.061  37.090  1.00  0.00    -0.302 OA
ATOM      7  HO  UNL     1      36.078  28.413  36.207  1.00  0.00     0.231 HD
ENDBRANCH   3   6
BRANCH   3   8
HETATM    8  O   UNL     1      36.250  25.598  36.732  1.00  0.00    -0.302 OA
ATOM      9  HO  UNL     1      36.743  25.605  35.920  1.00  0.00     0.231 HD
ENDBRANCH   3   8
BRANCH   3  10
HETATM   10  C   UNL     1      37.582  27.082  35.300  1.00  0.00     0.058 C 
HETATM   11  C   UNL     1      38.697  26.543  35.961  1.00  0.00     0.024 C 
HETATM   12  C   UNL     1      40.052  26.799  35.773  1.00  0.00     0.002 C 
HETATM   13  C   UNL     1      40.673  27.476  34.727  1.00  0.00     0.000 C 
HETATM   14  C   UNL     1      40.038  28.003  33.597  1.00  0.00     0.000 C 
HETATM   15  C   UNL     1      38.684  27.972  33.256  1.00  0.00     0.002 C 
HETATM   16  C   UNL     1      37.568  27.627  34.019  1.00  0.00     0.024 C 
ENDBRANCH   3  10
ENDBRANCH   2   3
ENDBRANCH   1   2
BRANCH   1  17
HETATM   17  C   UNL     1      33.921  25.002  33.505  1.00  0.00     0.055 C 
BRANCH  17  18
HETATM   18  C   UNL     1      33.868  25.376  32.045  1.00  0.00    -0.057 C 
HETATM   19  C   UNL     1      35.091  25.552  31.407  1.00  0.00     0.008 C 
HETATM   20  C   UNL     1      35.145  26.051  30.108  1.00  0.00     0.016 C 
HETATM   21  C   UNL     1      33.971  26.472  29.491  1.00  0.00     0.033 C 
HETATM   22  C   UNL     1      32.745  26.094  30.039  1.00  0.00     0.016 C 
HETATM   23  C   UNL     1      32.699  25.562  31.330  1.00  0.00     0.008 C 
BRANCH  21  24
HETATM   24  C   UNL     1      34.018  27.281  28.194  1.00  0.00     0.307 C 
BRANCH  24  25
HETATM   25  O   UNL     1      34.769  26.629  27.270  1.00  0.00    -0.340 OA
ATOM     26  HO  UNL     1      34.550  26.939  26.399  1.00  0.00     0.216 HD
ENDBRANCH  24  25
BRANCH  24  27
HETATM   27  O   UNL     1      34.609  28.493  28.412  1.00  0.00    -0.340 OA
ATOM     28  HO  UNL     1      35.490  28.324  28.725  1.00  0.00     0.216 HD
ENDBRANCH  24  27
BRANCH  24  29
HETATM   29  O   UNL     1      32.718  27.398  27.687  1.00  0.00    -0.340 OA
ATOM     30  HO  UNL     1      32.784  27.644  26.771  1.00  0.00     0.216 HD
ENDBRANCH  24  29
ENDBRANCH  21  24
ENDBRANCH  17  18
ENDBRANCH   1  17
TORSDOF 12
ENDMDL
MODEL 6
REMARK VINA RESULT:      -8.8      4.070      5.793
REMARK  12 active torsions:
REMARK  status: ('A' for Active; 'I' for Inactive)
REMARK    1  A    between atoms: O_2  and  S_4 
REMARK    2  A    between atoms: S_4  and  O_11 
REMARK    3  A    between atoms: S_4  and  O_13 
REMARK    4  A    between atoms: S_4  and  N_19 
REMARK    5  A    between atoms: S_4  and  C_24 
REMARK    6  A    between atoms: C_5  and  O_17 
REMARK    7  A    between atoms: C_5  and  C_20 
REMARK    8  A    between atoms: C_5  and  O_25 
REMARK    9  A    between atoms: C_5  and  O_28 
REMARK   10  A    between atoms: C_6  and  N_19 
REMARK   11  A    between atoms: C_6  and  C_27 
REMARK   12  A    between atoms: C_27  and  C_30 
ROOT
HETATM    1  C   UNL     1      35.808  26.283  32.364  1.00  0.00     0.131 C 
ENDROOT
BRANCH   1   2
HETATM    2  N   UNL     1      36.937  25.612  33.038  1.00  0.00    -0.137 NA
BRANCH   2   3
HETATM    3  S   UNL     1      38.307  25.656  32.056  1.00  0.00     0.100 SA
BRANCH   3   4
HETATM    4  O   UNL     1      39.199  25.723  33.426  1.00  0.00    -0.302 OA
ATOM      5  HO  UNL     1      38.323  26.020  33.645  1.00  0.00     0.231 HD
ENDBRANCH   3   4
BRANCH   3   6
HETATM    6  O   UNL     1      39.166  26.841  31.958  1.00  0.00    -0.302 OA
ATOM      7  HO  UNL     1      38.688  26.771  31.139  1.00  0.00     0.231 HD
ENDBRANCH   3   6
BRANCH   3   8
HETATM    8  O   UNL     1      38.953  24.365  32.177  1.00  0.00    -0.302 OA
ATOM      9  HO  UNL     1      39.307  24.763  31.390  1.00  0.00     0.231 HD
ENDBRANCH   3   8
BRANCH   3  10
HETATM   10  C   UNL     1      37.633  25.507  30.450  1.00  0.00     0.058 C 
HETATM   11  C   UNL     1      37.752  26.658  29.656  1.00  0.00     0.024 C 
HETATM   12  C   UNL     1      37.043  27.033  28.519  1.00  0.00     0.002 C 
HETATM   13  C   UNL     1      36.192  26.263  27.731  1.00  0.00     0.000 C 
HETATM   14  C   UNL     1      35.918  24.902  27.905  1.00  0.00     0.000 C 
HETATM   15  C   UNL     1      36.416  24.022  28.868  1.00  0.00     0.002 C 
HETATM   16  C   UNL     1      37.126  24.275  30.043  1.00  0.00     0.024 C 
ENDBRANCH   3  10
ENDBRANCH   2   3
ENDBRANCH   1   2
BRANCH   1  17
HETATM   17  C   UNL     1      34.522  25.439  32.456  1.00  0.00     0.055 C 
BRANCH  17  18
HETATM   18  C   UNL     1      33.831  25.422  31.116  1.00  0.00    -0.057 C 
HETATM   19  C   UNL     1      33.771  26.634  30.436  1.00  0.00     0.008 C 
HETATM   20  C   UNL     1      33.019  26.755  29.271  1.00  0.00     0.016 C 
HETATM   21  C   UNL     1      32.241  25.680  28.848  1.00  0.00     0.033 C 
HETATM   22  C   UNL     1      32.473  24.419  29.397  1.00  0.00     0.016 C 
HETATM   23  C   UNL     1      33.257  24.300  30.548  1.00  0.00     0.008 C 
BRANCH  21  24
HETATM   24  C   UNL     1      31.192  25.861  27.750  1.00  0.00     0.307 C 
BRANCH  24  25
HETATM   25  O   UNL     1      30.344  24.802  27.742  1.00  0.00    -0.340 OA
ATOM     26  HO  UNL     1      29.972  24.692  26.875  1.00  0.00     0.216 HD
ENDBRANCH  24  25
BRANCH  24  27
HETATM   27  O   UNL     1      31.793  25.907  26.525  1.00  0.00    -0.340 OA
ATOM     28  HO  UNL     1      31.614  26.764  26.155  1.00  0.00     0.216 HD
ENDBRANCH  24  27
BRANCH  24  29
HETATM   29  O   UNL     1      30.442  27.011  28.026  1.00  0.00    -0.340 OA
ATOM     30  HO  UNL     1      31.048  27.708  28.250  1.00  0.00     0.216 HD
ENDBRANCH  24  29
ENDBRANCH  21  24
ENDBRANCH  17  18
ENDBRANCH   1  17
TORSDOF 12
ENDMDL
MODEL 7
REMARK VINA RESULT:      -8.8      5.041      6.796
REMARK  12 active torsions:
REMARK  status: ('A' for Active; 'I' for Inactive)
REMARK    1  A    between atoms: O_2  and  S_4 
REMARK    2  A    between atoms: S_4  and  O_11 
REMARK    3  A    between atoms: S_4  and  O_13 
REMARK    4  A    between atoms: S_4  and  N_19 
REMARK    5  A    between atoms: S_4  and  C_24 
REMARK    6  A    between atoms: C_5  and  O_17 
REMARK    7  A    between atoms: C_5  and  C_20 
REMARK    8  A    between atoms: C_5  and  O_25 
REMARK    9  A    between atoms: C_5  and  O_28 
REMARK   10  A    between atoms: C_6  and  N_19 
REMARK   11  A    between atoms: C_6  and  C_27 
REMARK   12  A    between atoms: C_27  and  C_30 
ROOT
HETATM    1  C   UNL     1      36.579  24.165  29.382  1.00  0.00     0.131 C 
ENDROOT
BRANCH   1   2
HETATM    2  N   UNL     1      37.180  24.695  30.622  1.00  0.00    -0.137 NA
BRANCH   2   3
HETATM    3  S   UNL     1      36.636  26.265  30.905  1.00  0.00     0.100 SA
BRANCH   3   4
HETATM    4  O   UNL     1      38.174  26.765  30.666  1.00  0.00    -0.302 OA
ATOM      5  HO  UNL     1      37.649  27.126  29.961  1.00  0.00     0.231 HD
ENDBRANCH   3   4
BRANCH   3   6
HETATM    6  O   UNL     1      37.031  27.033  32.090  1.00  0.00    -0.302 OA
ATOM      7  HO  UNL     1      37.819  26.638  31.735  1.00  0.00     0.231 HD
ENDBRANCH   3   6
BRANCH   3   8
HETATM    8  O   UNL     1      36.640  26.948  29.628  1.00  0.00    -0.302 OA
ATOM      9  HO  UNL     1      36.581  26.021  29.429  1.00  0.00     0.231 HD
ENDBRANCH   3   8
BRANCH   3  10
HETATM   10  C   UNL     1      34.915  26.041  31.120  1.00  0.00     0.058 C 
HETATM   11  C   UNL     1      34.548  25.476  32.352  1.00  0.00     0.024 C 
HETATM   12  C   UNL     1      33.372  24.831  32.719  1.00  0.00     0.002 C 
HETATM   13  C   UNL     1      32.156  24.783  32.042  1.00  0.00     0.000 C 
HETATM   14  C   UNL     1      31.858  25.440  30.843  1.00  0.00     0.000 C 
HETATM   15  C   UNL     1      32.671  26.274  30.073  1.00  0.00     0.002 C 
HETATM   16  C   UNL     1      34.045  26.507  30.138  1.00  0.00     0.024 C 
ENDBRANCH   3  10
ENDBRANCH   2   3
ENDBRANCH   1   2
BRANCH   1  17
HETATM   17  C   UNL     1      35.448  23.165  29.692  1.00  0.00     0.055 C 
BRANCH  17  18
HETATM   18  C   UNL     1      34.459  23.152  28.555  1.00  0.00    -0.057 C 
HETATM   19  C   UNL     1      33.487  22.158  28.592  1.00  0.00     0.008 C 
HETATM   20  C   UNL     1      32.630  21.966  27.511  1.00  0.00     0.016 C 
HETATM   21  C   UNL     1      32.824  22.707  26.349  1.00  0.00     0.033 C 
HETATM   22  C   UNL     1      33.641  23.836  26.394  1.00  0.00     0.016 C 
HETATM   23  C   UNL     1      34.474  24.043  27.497  1.00  0.00     0.008 C 
BRANCH  21  24
HETATM   24  C   UNL     1      32.099  22.332  25.055  1.00  0.00     0.307 C 
BRANCH  24  25
HETATM   25  O   UNL     1      32.918  22.533  23.992  1.00  0.00    -0.340 OA
ATOM     26  HO  UNL     1      33.805  22.690  24.293  1.00  0.00     0.216 HD
ENDBRANCH  24  25
BRANCH  24  27
HETATM   27  O   UNL     1      31.003  23.127  24.879  1.00  0.00    -0.340 OA
ATOM     28  HO  UNL     1      30.301  22.759  25.403  1.00  0.00     0.216 HD
ENDBRANCH  24  27
BRANCH  24  29
HETATM   29  O   UNL     1      31.776  20.969  25.097  1.00  0.00    -0.340 OA
ATOM     30  HO  UNL     1      30.950  20.880  25.558  1.00  0.00     0.216 HD
ENDBRANCH  24  29
ENDBRANCH  21  24
ENDBRANCH  17  18
ENDBRANCH   1  17
TORSDOF 12
ENDMDL
MODEL 8
REMARK VINA RESULT:      -8.7      4.142      8.168
REMARK  12 active torsions:
REMARK  status: ('A' for Active; 'I' for Inactive)
REMARK    1  A    between atoms: O_2  and  S_4 
REMARK    2  A    between atoms: S_4  and  O_11 
REMARK    3  A    between atoms: S_4  and  O_13 
REMARK    4  A    between atoms: S_4  and  N_19 
REMARK    5  A    between atoms: S_4  and  C_24 
REMARK    6  A    between atoms: C_5  and  O_17 
REMARK    7  A    between atoms: C_5  and  C_20 
REMARK    8  A    between atoms: C_5  and  O_25 
REMARK    9  A    between atoms: C_5  and  O_28 
REMARK   10  A    between atoms: C_6  and  N_19 
REMARK   11  A    between atoms: C_6  and  C_27 
REMARK   12  A    between atoms: C_27  and  C_30 
ROOT
HETATM    1  C   UNL     1      32.170  25.970  31.026  1.00  0.00     0.131 C 
ENDROOT
BRANCH   1   2
HETATM    2  N   UNL     1      31.251  25.331  30.065  1.00  0.00    -0.137 NA
BRANCH   2   3
HETATM    3  S   UNL     1      31.132  26.266  28.666  1.00  0.00     0.100 SA
BRANCH   3   4
HETATM    4  O   UNL     1      29.547  26.463  29.018  1.00  0.00    -0.302 OA
ATOM      5  HO  UNL     1      30.014  27.191  29.409  1.00  0.00     0.231 HD
ENDBRANCH   3   4
BRANCH   3   6
HETATM    6  O   UNL     1      30.370  25.831  27.492  1.00  0.00    -0.302 OA
ATOM      7  HO  UNL     1      30.985  26.492  27.198  1.00  0.00     0.231 HD
ENDBRANCH   3   6
BRANCH   3   8
HETATM    8  O   UNL     1      30.985  27.642  29.092  1.00  0.00    -0.302 OA
ATOM      9  HO  UNL     1      30.777  27.631  28.165  1.00  0.00     0.231 HD
ENDBRANCH   3   8
BRANCH   3  10
HETATM   10  C   UNL     1      32.783  26.304  28.090  1.00  0.00     0.058 C 
HETATM   11  C   UNL     1      33.255  25.082  27.587  1.00  0.00     0.024 C 
HETATM   12  C   UNL     1      34.562  24.643  27.399  1.00  0.00     0.002 C 
HETATM   13  C   UNL     1      35.742  25.381  27.433  1.00  0.00     0.000 C 
HETATM   14  C   UNL     1      35.841  26.764  27.621  1.00  0.00     0.000 C 
HETATM   15  C   UNL     1      34.821  27.701  27.803  1.00  0.00     0.002 C 
HETATM   16  C   UNL     1      33.465  27.518  28.077  1.00  0.00     0.024 C 
ENDBRANCH   3  10
ENDBRANCH   2   3
ENDBRANCH   1   2
BRANCH   1  17
HETATM   17  C   UNL     1      32.856  24.922  31.924  1.00  0.00     0.055 C 
BRANCH  17  18
HETATM   18  C   UNL     1      34.292  25.318  32.158  1.00  0.00    -0.057 C 
HETATM   19  C   UNL     1      35.069  25.524  31.024  1.00  0.00     0.008 C 
HETATM   20  C   UNL     1      36.440  25.736  31.135  1.00  0.00     0.016 C 
HETATM   21  C   UNL     1      37.046  25.634  32.384  1.00  0.00     0.033 C 
HETATM   22  C   UNL     1      36.247  25.647  33.527  1.00  0.00     0.016 C 
HETATM   23  C   UNL     1      34.866  25.468  33.407  1.00  0.00     0.008 C 
BRANCH  21  24
HETATM   24  C   UNL     1      38.569  25.575  32.510  1.00  0.00     0.307 C 
BRANCH  24  25
HETATM   25  O   UNL     1      38.941  25.897  33.774  1.00  0.00    -0.340 OA
ATOM     26  HO  UNL     1      38.941  26.841  33.881  1.00  0.00     0.216 HD
ENDBRANCH  24  25
BRANCH  24  27
HETATM   27  O   UNL     1      39.149  26.486  31.674  1.00  0.00    -0.340 OA
ATOM     28  HO  UNL     1      38.640  26.496  30.872  1.00  0.00     0.216 HD
ENDBRANCH  24  27
BRANCH  24  29
HETATM   29  O   UNL     1      38.993  24.265  32.257  1.00  0.00    -0.340 OA
ATOM     30  HO  UNL     1      38.357  23.673  32.642  1.00  0.00     0.216 HD
ENDBRANCH  24  29
ENDBRANCH  21  24
ENDBRANCH  17  18
ENDBRANCH   1  17
TORSDOF 12
ENDMDL
MODEL 9
REMARK VINA RESULT:      -8.7      3.279      7.618
REMARK  12 active torsions:
REMARK  status: ('A' for Active; 'I' for Inactive)
REMARK    1  A    between atoms: O_2  and  S_4 
REMARK    2  A    between atoms: S_4  and  O_11 
REMARK    3  A    between atoms: S_4  and  O_13 
REMARK    4  A    between atoms: S_4  and  N_19 
REMARK    5  A    between atoms: S_4  and  C_24 
REMARK    6  A    between atoms: C_5  and  O_17 
REMARK    7  A    between atoms: C_5  and  C_20 
REMARK    8  A    between atoms: C_5  and  O_25 
REMARK    9  A    between atoms: C_5  and  O_28 
REMARK   10  A    between atoms: C_6  and  N_19 
REMARK   11  A    between atoms: C_6  and  C_27 
REMARK   12  A    between atoms: C_27  and  C_30 
ROOT
HETATM    1  C   UNL     1      32.298  25.484  32.122  1.00  0.00     0.131 C 
ENDROOT
BRANCH   1   2
HETATM    2  N   UNL     1      31.580  24.764  31.052  1.00  0.00    -0.137 NA
BRANCH   2   3
HETATM    3  S   UNL     1      31.822  25.536  29.572  1.00  0.00     0.100 SA
BRANCH   3   4
HETATM    4  O   UNL     1      30.252  25.990  29.633  1.00  0.00    -0.302 OA
ATOM      5  HO  UNL     1      30.696  26.590  29.046  1.00  0.00     0.231 HD
ENDBRANCH   3   4
BRANCH   3   6
HETATM    6  O   UNL     1      31.189  25.074  28.333  1.00  0.00    -0.302 OA
ATOM      7  HO  UNL     1      30.657  25.784  28.672  1.00  0.00     0.231 HD
ENDBRANCH   3   6
BRANCH   3   8
HETATM    8  O   UNL     1      31.828  26.960  29.836  1.00  0.00    -0.302 OA
ATOM      9  HO  UNL     1      30.915  26.712  29.751  1.00  0.00     0.231 HD
ENDBRANCH   3   8
BRANCH   3  10
HETATM   10  C   UNL     1      33.527  25.277  29.279  1.00  0.00     0.058 C 
HETATM   11  C   UNL     1      33.906  23.929  29.184  1.00  0.00     0.024 C 
HETATM   12  C   UNL     1      35.161  23.346  29.325  1.00  0.00     0.002 C 
HETATM   13  C   UNL     1      36.408  23.962  29.364  1.00  0.00     0.000 C 
HETATM   14  C   UNL     1      36.653  25.331  29.210  1.00  0.00     0.000 C 
HETATM   15  C   UNL     1      35.743  26.366  28.984  1.00  0.00     0.002 C 
HETATM   16  C   UNL     1      34.351  26.380  29.072  1.00  0.00     0.024 C 
ENDBRANCH   3  10
ENDBRANCH   2   3
ENDBRANCH   1   2
BRANCH   1  17
HETATM   17  C   UNL     1      33.247  24.542  32.889  1.00  0.00     0.055 C 
BRANCH  17  18
HETATM   18  C   UNL     1      34.482  25.299  33.308  1.00  0.00    -0.057 C 
HETATM   19  C   UNL     1      35.667  24.954  32.665  1.00  0.00     0.008 C 
HETATM   20  C   UNL     1      36.882  25.481  33.092  1.00  0.00     0.016 C 
HETATM   21  C   UNL     1      36.916  26.274  34.235  1.00  0.00     0.033 C 
HETATM   22  C   UNL     1      35.721  26.790  34.737  1.00  0.00     0.016 C 
HETATM   23  C   UNL     1      34.503  26.281  34.280  1.00  0.00     0.008 C 
BRANCH  21  24
HETATM   24  C   UNL     1      38.248  26.634  34.895  1.00  0.00     0.307 C 
BRANCH  24  25
HETATM   25  O   UNL     1      38.312  26.087  36.135  1.00  0.00    -0.340 OA
ATOM     26  HO  UNL     1      37.543  25.551  36.292  1.00  0.00     0.216 HD
ENDBRANCH  24  25
BRANCH  24  27
HETATM   27  O   UNL     1      38.353  27.987  35.044  1.00  0.00    -0.340 OA
ATOM     28  HO  UNL     1      38.341  28.170  35.977  1.00  0.00     0.216 HD
ENDBRANCH  24  27
BRANCH  24  29
HETATM   29  O   UNL     1      39.291  26.093  34.133  1.00  0.00    -0.340 OA
ATOM     30  HO  UNL     1      38.922  25.424  33.568  1.00  0.00     0.216 HD
ENDBRANCH  24  29
ENDBRANCH  21  24
ENDBRANCH  17  18
ENDBRANCH   1  17
TORSDOF 12
ENDMDL
