REMARK  8 active torsions:
REMARK  status: ('A' for Active; 'I' for Inactive)
REMARK    1  A    between atoms: O_2  and  C_12 
REMARK    2  A    between atoms: C_4  and  C_9 
REMARK    3  A    between atoms: C_4  and  C_22 
REMARK    4  A    between atoms: O_6  and  C_23 
REMARK    5  A    between atoms: O_6  and  C_25 
REMARK    6  A    between atoms: C_8  and  C_10 
REMARK    7  A    between atoms: C_8  and  C_16 
REMARK    8  A    between atoms: C_12  and  C_16 
ROOT
HETATM    1  C   UNL     1      35.003  23.818  30.674  1.00  0.00     0.018 C 
HETATM    2  C   UNL     1      34.497  23.086  29.591  1.00  0.00     0.038 C 
HETATM    3  C   UNL     1      33.108  25.278  30.627  1.00  0.00     0.018 C 
HETATM    4  C   UNL     1      34.078  24.599  31.395  1.00  0.00     0.014 C 
HETATM    5  C   UNL     1      33.206  23.384  29.154  1.00  0.00     0.077 C 
HETATM    6  C   UNL     1      32.645  24.635  29.465  1.00  0.00     0.038 C 
ENDROOT
BRANCH   4   7
HETATM    7  C   UNL     1      34.059  24.603  32.892  1.00  0.00     0.182 C 
HETATM    8  O   UNL     1      33.019  24.423  33.505  1.00  0.00    -0.288 OA
BRANCH   7   9
HETATM    9  C   UNL     1      35.341  24.654  33.612  1.00  0.00     0.059 C 
HETATM   10  C   UNL     1      35.409  24.644  34.976  1.00  0.00     0.054 C 
BRANCH  10  11
HETATM   11  C   UNL     1      35.798  25.936  35.628  1.00  0.00     0.151 C 
HETATM   12  O   UNL     1      35.732  26.074  36.836  1.00  0.00    -0.293 OA
BRANCH  11  13
HETATM   13  C   UNL     1      36.202  27.057  34.694  1.00  0.00     0.109 C 
BRANCH  13  14
HETATM   14  C   UNL     1      37.677  27.430  34.797  1.00  0.00     0.171 C 
BRANCH  14  15
HETATM   15  O   UNL     1      38.109  27.568  36.146  1.00  0.00    -0.400 OA
ATOM     16  HO  UNL     1      39.028  27.800  36.210  1.00  0.00     0.209 HD
ENDBRANCH  14  15
ENDBRANCH  13  14
ENDBRANCH  11  13
ENDBRANCH  10  11
ENDBRANCH   7   9
ENDBRANCH   4   7
BRANCH   5  17
HETATM   17  O   UNL     1      32.428  22.424  28.571  1.00  0.00    -0.294 OA
BRANCH  17  18
HETATM   18  C   UNL     1      32.722  21.512  27.598  1.00  0.00     0.152 C 
HETATM   19  N   UNL     1      31.834  20.457  27.553  1.00  0.00    -0.299 N 
HETATM   20  C   UNL     1      31.162  20.402  26.340  1.00  0.00     0.249 C 
HETATM   21  C   UNL     1      31.941  19.335  28.482  1.00  0.00     0.161 C 
HETATM   22  C   UNL     1      31.924  20.608  25.177  1.00  0.00     0.075 C 
HETATM   23  O   UNL     1      29.932  20.299  26.346  1.00  0.00    -0.268 OA
HETATM   24  C   UNL     1      33.221  21.117  25.291  1.00  0.00     0.010 C 
HETATM   25  C   UNL     1      33.619  21.656  26.534  1.00  0.00     0.057 C 
ENDBRANCH  17  18
ENDBRANCH   5  17
TORSDOF 8
