MODEL 1
REMARK VINA RESULT:      -8.9      0.000      0.000
REMARK  10 active torsions:
REMARK  status: ('A' for Active; 'I' for Inactive)
REMARK    1  A    between atoms: C_1  and  C_12 
REMARK    2  A    between atoms: C_5  and  C_14 
REMARK    3  A    between atoms: C_5  and  C_16 
REMARK    4  A    between atoms: C_12  and  C_16 
REMARK    5  A    between atoms: C_13  and  C_24 
REMARK       I    between atoms: C_13  and  N_29 
REMARK    6  A    between atoms: C_14  and  C_23 
REMARK    7  A    between atoms: C_15  and  O_27 
REMARK    8  A    between atoms: C_17  and  C_22 
REMARK       I    between atoms: C_17  and  N_29 
REMARK    9  A    between atoms: C_20  and  O_25 
REMARK   10  A    between atoms: C_22  and  C_23 
ROOT
HETATM    1  O   UNL     1      46.195  20.195  36.990  1.00  0.00    -0.264 OA
HETATM    2  C   UNL     1      43.803  21.618  35.943  1.00  0.00     0.261 C 
HETATM    3  C   UNL     1      45.000  20.013  37.063  1.00  0.00     0.294 C 
HETATM    4  O   UNL     1      44.316  22.693  35.645  1.00  0.00    -0.267 OA
HETATM    5  N   UNL     1      44.102  21.003  37.099  1.00  0.00    -0.287 N 
ATOM      6  HN  UNL     1      43.660  21.281  37.976  1.00  0.00     0.172 HD
ENDROOT
BRANCH   3   7
HETATM    7  C   UNL     1      44.394  18.634  37.114  1.00  0.00     0.216 C 
HETATM    8  O   UNL     1      44.267  17.988  36.058  1.00  0.00    -0.287 OA
BRANCH   7   9
HETATM    9  C   UNL     1      43.954  18.036  38.427  1.00  0.00     0.089 C 
BRANCH   9  10
HETATM   10  C   UNL     1      44.842  17.086  39.197  1.00  0.00     0.008 C 
BRANCH  10  11
HETATM   11  C   UNL     1      46.286  17.438  39.451  1.00  0.00     0.001 C 
BRANCH  11  12
HETATM   12  C   UNL     1      47.255  17.225  38.295  1.00  0.00     0.005 C 
BRANCH  12  13
HETATM   13  C   UNL     1      47.403  15.747  37.928  1.00  0.00     0.038 C 
BRANCH  13  14
HETATM   14  C   UNL     1      48.850  15.397  37.689  1.00  0.00    -0.056 C 
HETATM   15  C   UNL     1      49.173  14.220  37.019  1.00  0.00     0.007 C 
HETATM   16  C   UNL     1      50.465  13.718  37.081  1.00  0.00     0.003 C 
HETATM   17  C   UNL     1      51.494  14.542  37.524  1.00  0.00     0.036 C 
HETATM   18  C   UNL     1      51.201  15.785  38.064  1.00  0.00     0.066 C 
HETATM   19  C   UNL     1      49.869  16.172  38.223  1.00  0.00     0.043 C 
BRANCH  18  20
HETATM   20  O   UNL     1      52.168  16.770  38.113  1.00  0.00    -0.361 OA
ATOM     21  HO  UNL     1      53.078  16.558  37.939  1.00  0.00     0.217 HD
ENDBRANCH  18  20
ENDBRANCH  13  14
ENDBRANCH  12  13
ENDBRANCH  11  12
ENDBRANCH  10  11
ENDBRANCH   9  10
ENDBRANCH   7   9
ENDBRANCH   3   7
BRANCH   2  22
HETATM   22  C   UNL     1      42.872  20.991  35.018  1.00  0.00     0.065 C 
HETATM   23  C   UNL     1      41.710  20.410  35.483  1.00  0.00     0.020 C 
HETATM   24  C   UNL     1      40.468  20.533  34.896  1.00  0.00     0.001 C 
HETATM   25  C   UNL     1      40.074  21.129  33.731  1.00  0.00     0.000 C 
HETATM   26  C   UNL     1      40.885  21.419  32.660  1.00  0.00     0.003 C 
HETATM   27  C   UNL     1      42.257  21.365  32.656  1.00  0.00     0.037 C 
HETATM   28  C   UNL     1      43.157  21.099  33.666  1.00  0.00     0.081 C 
BRANCH  28  29
HETATM   29  O   UNL     1      44.480  20.944  33.307  1.00  0.00    -0.360 OA
ATOM     30  HO  UNL     1      44.670  20.847  32.381  1.00  0.00     0.217 HD
ENDBRANCH  28  29
ENDBRANCH   2  22
TORSDOF 10
ENDMDL
MODEL 2
REMARK VINA RESULT:      -8.7      3.599      5.843
REMARK  10 active torsions:
REMARK  status: ('A' for Active; 'I' for Inactive)
REMARK    1  A    between atoms: C_1  and  C_12 
REMARK    2  A    between atoms: C_5  and  C_14 
REMARK    3  A    between atoms: C_5  and  C_16 
REMARK    4  A    between atoms: C_12  and  C_16 
REMARK    5  A    between atoms: C_13  and  C_24 
REMARK       I    between atoms: C_13  and  N_29 
REMARK    6  A    between atoms: C_14  and  C_23 
REMARK    7  A    between atoms: C_15  and  O_27 
REMARK    8  A    between atoms: C_17  and  C_22 
REMARK       I    between atoms: C_17  and  N_29 
REMARK    9  A    between atoms: C_20  and  O_25 
REMARK   10  A    between atoms: C_22  and  C_23 
ROOT
HETATM    1  O   UNL     1      46.522  20.009  37.563  1.00  0.00    -0.264 OA
HETATM    2  C   UNL     1      44.194  21.465  36.419  1.00  0.00     0.261 C 
HETATM    3  C   UNL     1      45.323  19.832  37.568  1.00  0.00     0.294 C 
HETATM    4  O   UNL     1      44.727  22.543  36.171  1.00  0.00    -0.267 OA
HETATM    5  N   UNL     1      44.429  20.824  37.577  1.00  0.00    -0.287 N 
ATOM      6  HN  UNL     1      43.942  21.087  38.433  1.00  0.00     0.172 HD
ENDROOT
BRANCH   3   7
HETATM    7  C   UNL     1      44.710  18.454  37.558  1.00  0.00     0.216 C 
HETATM    8  O   UNL     1      44.802  17.757  36.531  1.00  0.00    -0.287 OA
BRANCH   7   9
HETATM    9  C   UNL     1      44.001  17.920  38.777  1.00  0.00     0.089 C 
BRANCH   9  10
HETATM   10  C   UNL     1      44.685  16.971  39.734  1.00  0.00     0.008 C 
BRANCH  10  11
HETATM   11  C   UNL     1      43.864  16.042  40.592  1.00  0.00     0.001 C 
BRANCH  11  12
HETATM   12  C   UNL     1      44.317  15.867  42.037  1.00  0.00     0.005 C 
BRANCH  12  13
HETATM   13  C   UNL     1      43.155  15.983  43.026  1.00  0.00     0.038 C 
BRANCH  13  14
HETATM   14  C   UNL     1      42.108  14.934  42.746  1.00  0.00    -0.056 C 
HETATM   15  C   UNL     1      40.776  15.311  42.603  1.00  0.00     0.007 C 
HETATM   16  C   UNL     1      39.771  14.358  42.680  1.00  0.00     0.003 C 
HETATM   17  C   UNL     1      40.103  13.011  42.570  1.00  0.00     0.036 C 
HETATM   18  C   UNL     1      41.434  12.626  42.565  1.00  0.00     0.066 C 
HETATM   19  C   UNL     1      42.433  13.586  42.740  1.00  0.00     0.043 C 
BRANCH  18  20
HETATM   20  O   UNL     1      41.803  11.401  42.044  1.00  0.00    -0.361 OA
ATOM     21  HO  UNL     1      41.571  11.168  41.153  1.00  0.00     0.217 HD
ENDBRANCH  18  20
ENDBRANCH  13  14
ENDBRANCH  12  13
ENDBRANCH  11  12
ENDBRANCH  10  11
ENDBRANCH   9  10
ENDBRANCH   7   9
ENDBRANCH   3   7
BRANCH   2  22
HETATM   22  C   UNL     1      43.311  20.862  35.433  1.00  0.00     0.065 C 
HETATM   23  C   UNL     1      42.127  20.272  35.823  1.00  0.00     0.020 C 
HETATM   24  C   UNL     1      40.917  20.411  35.176  1.00  0.00     0.001 C 
HETATM   25  C   UNL     1      40.584  21.035  34.006  1.00  0.00     0.000 C 
HETATM   26  C   UNL     1      41.450  21.348  32.986  1.00  0.00     0.003 C 
HETATM   27  C   UNL     1      42.820  21.292  33.051  1.00  0.00     0.037 C 
HETATM   28  C   UNL     1      43.666  21.001  34.100  1.00  0.00     0.081 C 
BRANCH  28  29
HETATM   29  O   UNL     1      45.006  20.851  33.806  1.00  0.00    -0.360 OA
ATOM     30  HO  UNL     1      45.564  20.498  34.489  1.00  0.00     0.217 HD
ENDBRANCH  28  29
ENDBRANCH   2  22
TORSDOF 10
ENDMDL
MODEL 3
REMARK VINA RESULT:      -8.6      3.270      4.704
REMARK  10 active torsions:
REMARK  status: ('A' for Active; 'I' for Inactive)
REMARK    1  A    between atoms: C_1  and  C_12 
REMARK    2  A    between atoms: C_5  and  C_14 
REMARK    3  A    between atoms: C_5  and  C_16 
REMARK    4  A    between atoms: C_12  and  C_16 
REMARK    5  A    between atoms: C_13  and  C_24 
REMARK       I    between atoms: C_13  and  N_29 
REMARK    6  A    between atoms: C_14  and  C_23 
REMARK    7  A    between atoms: C_15  and  O_27 
REMARK    8  A    between atoms: C_17  and  C_22 
REMARK       I    between atoms: C_17  and  N_29 
REMARK    9  A    between atoms: C_20  and  O_25 
REMARK   10  A    between atoms: C_22  and  C_23 
ROOT
HETATM    1  O   UNL     1      46.485  20.023  37.341  1.00  0.00    -0.264 OA
HETATM    2  C   UNL     1      44.118  21.482  36.283  1.00  0.00     0.261 C 
HETATM    3  C   UNL     1      45.288  19.840  37.379  1.00  0.00     0.294 C 
HETATM    4  O   UNL     1      44.639  22.565  36.033  1.00  0.00    -0.267 OA
HETATM    5  N   UNL     1      44.390  20.829  37.426  1.00  0.00    -0.287 N 
ATOM      6  HN  UNL     1      43.927  21.080  38.300  1.00  0.00     0.172 HD
ENDROOT
BRANCH   3   7
HETATM    7  C   UNL     1      44.680  18.460  37.372  1.00  0.00     0.216 C 
HETATM    8  O   UNL     1      44.600  17.839  36.296  1.00  0.00    -0.287 OA
BRANCH   7   9
HETATM    9  C   UNL     1      44.182  17.833  38.649  1.00  0.00     0.089 C 
BRANCH   9  10
HETATM   10  C   UNL     1      45.131  17.191  39.634  1.00  0.00     0.008 C 
BRANCH  10  11
HETATM   11  C   UNL     1      44.719  15.946  40.379  1.00  0.00     0.001 C 
BRANCH  11  12
HETATM   12  C   UNL     1      43.488  16.058  41.269  1.00  0.00     0.005 C 
BRANCH  12  13
HETATM   13  C   UNL     1      43.427  14.945  42.317  1.00  0.00     0.038 C 
BRANCH  13  14
HETATM   14  C   UNL     1      44.362  15.238  43.464  1.00  0.00    -0.056 C 
HETATM   15  C   UNL     1      44.048  16.250  44.367  1.00  0.00     0.007 C 
HETATM   16  C   UNL     1      45.025  16.756  45.212  1.00  0.00     0.003 C 
HETATM   17  C   UNL     1      46.207  16.043  45.388  1.00  0.00     0.036 C 
HETATM   18  C   UNL     1      46.473  14.940  44.591  1.00  0.00     0.066 C 
HETATM   19  C   UNL     1      45.584  14.593  43.571  1.00  0.00     0.043 C 
BRANCH  18  20
HETATM   20  O   UNL     1      47.385  13.987  45.002  1.00  0.00    -0.361 OA
ATOM     21  HO  UNL     1      47.140  13.336  45.649  1.00  0.00     0.217 HD
ENDBRANCH  18  20
ENDBRANCH  13  14
ENDBRANCH  12  13
ENDBRANCH  11  12
ENDBRANCH  10  11
ENDBRANCH   9  10
ENDBRANCH   7   9
ENDBRANCH   3   7
BRANCH   2  22
HETATM   22  C   UNL     1      43.210  20.886  35.317  1.00  0.00     0.065 C 
HETATM   23  C   UNL     1      42.043  20.282  35.736  1.00  0.00     0.020 C 
HETATM   24  C   UNL     1      40.812  20.420  35.129  1.00  0.00     0.001 C 
HETATM   25  C   UNL     1      40.438  21.059  33.980  1.00  0.00     0.000 C 
HETATM   26  C   UNL     1      41.268  21.394  32.938  1.00  0.00     0.003 C 
HETATM   27  C   UNL     1      42.640  21.348  32.959  1.00  0.00     0.037 C 
HETATM   28  C   UNL     1      43.521  21.048  33.976  1.00  0.00     0.081 C 
BRANCH  28  29
HETATM   29  O   UNL     1      44.852  20.913  33.637  1.00  0.00    -0.360 OA
ATOM     30  HO  UNL     1      45.087  21.067  32.730  1.00  0.00     0.217 HD
ENDBRANCH  28  29
ENDBRANCH   2  22
TORSDOF 10
ENDMDL
MODEL 4
REMARK VINA RESULT:      -8.3      3.861      6.106
REMARK  10 active torsions:
REMARK  status: ('A' for Active; 'I' for Inactive)
REMARK    1  A    between atoms: C_1  and  C_12 
REMARK    2  A    between atoms: C_5  and  C_14 
REMARK    3  A    between atoms: C_5  and  C_16 
REMARK    4  A    between atoms: C_12  and  C_16 
REMARK    5  A    between atoms: C_13  and  C_24 
REMARK       I    between atoms: C_13  and  N_29 
REMARK    6  A    between atoms: C_14  and  C_23 
REMARK    7  A    between atoms: C_15  and  O_27 
REMARK    8  A    between atoms: C_17  and  C_22 
REMARK       I    between atoms: C_17  and  N_29 
REMARK    9  A    between atoms: C_20  and  O_25 
REMARK   10  A    between atoms: C_22  and  C_23 
ROOT
HETATM    1  O   UNL     1      46.466  19.810  37.899  1.00  0.00    -0.264 OA
HETATM    2  C   UNL     1      44.189  21.294  36.689  1.00  0.00     0.261 C 
HETATM    3  C   UNL     1      45.278  19.599  37.787  1.00  0.00     0.294 C 
HETATM    4  O   UNL     1      44.702  22.404  36.579  1.00  0.00    -0.267 OA
HETATM    5  N   UNL     1      44.351  20.562  37.804  1.00  0.00    -0.287 N 
ATOM      6  HN  UNL     1      43.786  20.735  38.636  1.00  0.00     0.172 HD
ENDROOT
BRANCH   3   7
HETATM    7  C   UNL     1      44.717  18.211  37.609  1.00  0.00     0.216 C 
HETATM    8  O   UNL     1      44.732  17.692  36.479  1.00  0.00    -0.287 OA
BRANCH   7   9
HETATM    9  C   UNL     1      44.152  17.454  38.785  1.00  0.00     0.089 C 
BRANCH   9  10
HETATM   10  C   UNL     1      45.042  16.939  39.892  1.00  0.00     0.008 C 
BRANCH  10  11
HETATM   11  C   UNL     1      44.492  15.981  40.919  1.00  0.00     0.001 C 
BRANCH  11  12
HETATM   12  C   UNL     1      43.011  16.112  41.252  1.00  0.00     0.005 C 
BRANCH  12  13
HETATM   13  C   UNL     1      42.693  15.648  42.674  1.00  0.00     0.038 C 
BRANCH  13  14
HETATM   14  C   UNL     1      41.824  14.416  42.654  1.00  0.00    -0.056 C 
HETATM   15  C   UNL     1      42.384  13.182  42.333  1.00  0.00     0.007 C 
HETATM   16  C   UNL     1      41.566  12.117  41.985  1.00  0.00     0.003 C 
HETATM   17  C   UNL     1      40.207  12.182  42.272  1.00  0.00     0.036 C 
HETATM   18  C   UNL     1      39.654  13.367  42.733  1.00  0.00     0.066 C 
HETATM   19  C   UNL     1      40.453  14.507  42.841  1.00  0.00     0.043 C 
BRANCH  18  20
HETATM   20  O   UNL     1      38.451  13.357  43.413  1.00  0.00    -0.361 OA
ATOM     21  HO  UNL     1      37.753  12.771  43.145  1.00  0.00     0.217 HD
ENDBRANCH  18  20
ENDBRANCH  13  14
ENDBRANCH  12  13
ENDBRANCH  11  12
ENDBRANCH  10  11
ENDBRANCH   9  10
ENDBRANCH   7   9
ENDBRANCH   3   7
BRANCH   2  22
HETATM   22  C   UNL     1      43.412  20.754  35.584  1.00  0.00     0.065 C 
HETATM   23  C   UNL     1      42.189  20.159  35.816  1.00  0.00     0.020 C 
HETATM   24  C   UNL     1      41.056  20.346  35.052  1.00  0.00     0.001 C 
HETATM   25  C   UNL     1      40.853  21.034  33.889  1.00  0.00     0.000 C 
HETATM   26  C   UNL     1      41.824  21.390  32.984  1.00  0.00     0.003 C 
HETATM   27  C   UNL     1      43.179  21.314  33.191  1.00  0.00     0.037 C 
HETATM   28  C   UNL     1      43.907  20.958  34.306  1.00  0.00     0.081 C 
BRANCH  28  29
HETATM   29  O   UNL     1      45.270  20.808  34.147  1.00  0.00    -0.360 OA
ATOM     30  HO  UNL     1      45.628  20.980  33.284  1.00  0.00     0.217 HD
ENDBRANCH  28  29
ENDBRANCH   2  22
TORSDOF 10
ENDMDL
MODEL 5
REMARK VINA RESULT:      -7.7      3.702      5.298
REMARK  10 active torsions:
REMARK  status: ('A' for Active; 'I' for Inactive)
REMARK    1  A    between atoms: C_1  and  C_12 
REMARK    2  A    between atoms: C_5  and  C_14 
REMARK    3  A    between atoms: C_5  and  C_16 
REMARK    4  A    between atoms: C_12  and  C_16 
REMARK    5  A    between atoms: C_13  and  C_24 
REMARK       I    between atoms: C_13  and  N_29 
REMARK    6  A    between atoms: C_14  and  C_23 
REMARK    7  A    between atoms: C_15  and  O_27 
REMARK    8  A    between atoms: C_17  and  C_22 
REMARK       I    between atoms: C_17  and  N_29 
REMARK    9  A    between atoms: C_20  and  O_25 
REMARK   10  A    between atoms: C_22  and  C_23 
ROOT
HETATM    1  O   UNL     1      46.605  17.605  37.789  1.00  0.00    -0.264 OA
HETATM    2  C   UNL     1      45.982  20.186  36.448  1.00  0.00     0.261 C 
HETATM    3  C   UNL     1      45.799  18.489  37.980  1.00  0.00     0.294 C 
HETATM    4  O   UNL     1      47.002  20.322  35.779  1.00  0.00    -0.267 OA
HETATM    5  N   UNL     1      46.041  19.778  37.727  1.00  0.00    -0.287 N 
ATOM      6  HN  UNL     1      46.263  20.431  38.479  1.00  0.00     0.172 HD
ENDROOT
BRANCH   3   7
HETATM    7  C   UNL     1      44.420  18.220  38.526  1.00  0.00     0.216 C 
HETATM    8  O   UNL     1      43.589  19.146  38.557  1.00  0.00    -0.287 OA
BRANCH   7   9
HETATM    9  C   UNL     1      44.043  16.846  39.022  1.00  0.00     0.089 C 
BRANCH   9  10
HETATM   10  C   UNL     1      43.914  16.548  40.498  1.00  0.00     0.008 C 
BRANCH  10  11
HETATM   11  C   UNL     1      42.772  15.701  41.000  1.00  0.00     0.001 C 
BRANCH  11  12
HETATM   12  C   UNL     1      43.028  14.888  42.263  1.00  0.00     0.005 C 
BRANCH  12  13
HETATM   13  C   UNL     1      43.060  15.761  43.518  1.00  0.00     0.038 C 
BRANCH  13  14
HETATM   14  C   UNL     1      44.459  15.847  44.075  1.00  0.00    -0.056 C 
HETATM   15  C   UNL     1      45.356  14.807  43.851  1.00  0.00     0.007 C 
HETATM   16  C   UNL     1      46.509  14.706  44.615  1.00  0.00     0.003 C 
HETATM   17  C   UNL     1      46.928  15.803  45.361  1.00  0.00     0.036 C 
HETATM   18  C   UNL     1      46.105  16.913  45.479  1.00  0.00     0.066 C 
HETATM   19  C   UNL     1      44.833  16.895  44.903  1.00  0.00     0.043 C 
BRANCH  18  20
HETATM   20  O   UNL     1      46.635  18.139  45.831  1.00  0.00    -0.361 OA
ATOM     21  HO  UNL     1      46.801  18.346  46.743  1.00  0.00     0.217 HD
ENDBRANCH  18  20
ENDBRANCH  13  14
ENDBRANCH  12  13
ENDBRANCH  11  12
ENDBRANCH  10  11
ENDBRANCH   9  10
ENDBRANCH   7   9
ENDBRANCH   3   7
BRANCH   2  22
HETATM   22  C   UNL     1      44.688  20.450  35.839  1.00  0.00     0.065 C 
HETATM   23  C   UNL     1      44.075  19.492  35.060  1.00  0.00     0.020 C 
HETATM   24  C   UNL     1      42.734  19.169  35.103  1.00  0.00     0.001 C 
HETATM   25  C   UNL     1      41.694  19.720  35.796  1.00  0.00     0.000 C 
HETATM   26  C   UNL     1      41.661  20.988  36.327  1.00  0.00     0.003 C 
HETATM   27  C   UNL     1      42.735  21.834  36.447  1.00  0.00     0.037 C 
HETATM   28  C   UNL     1      44.072  21.649  36.163  1.00  0.00     0.081 C 
BRANCH  28  29
HETATM   29  O   UNL     1      44.889  22.759  36.224  1.00  0.00    -0.360 OA
ATOM     30  HO  UNL     1      44.501  23.597  36.000  1.00  0.00     0.217 HD
ENDBRANCH  28  29
ENDBRANCH   2  22
TORSDOF 10
ENDMDL
MODEL 6
REMARK VINA RESULT:      -7.5      4.253      6.709
REMARK  10 active torsions:
REMARK  status: ('A' for Active; 'I' for Inactive)
REMARK    1  A    between atoms: C_1  and  C_12 
REMARK    2  A    between atoms: C_5  and  C_14 
REMARK    3  A    between atoms: C_5  and  C_16 
REMARK    4  A    between atoms: C_12  and  C_16 
REMARK    5  A    between atoms: C_13  and  C_24 
REMARK       I    between atoms: C_13  and  N_29 
REMARK    6  A    between atoms: C_14  and  C_23 
REMARK    7  A    between atoms: C_15  and  O_27 
REMARK    8  A    between atoms: C_17  and  C_22 
REMARK       I    between atoms: C_17  and  N_29 
REMARK    9  A    between atoms: C_20  and  O_25 
REMARK   10  A    between atoms: C_22  and  C_23 
ROOT
HETATM    1  O   UNL     1      47.077  17.327  37.667  1.00  0.00    -0.264 OA
HETATM    2  C   UNL     1      45.906  19.921  36.802  1.00  0.00     0.261 C 
HETATM    3  C   UNL     1      46.323  18.130  38.173  1.00  0.00     0.294 C 
HETATM    4  O   UNL     1      46.648  20.179  35.859  1.00  0.00    -0.267 OA
HETATM    5  N   UNL     1      46.395  19.447  37.961  1.00  0.00    -0.287 N 
ATOM      6  HN  UNL     1      46.807  20.071  38.655  1.00  0.00     0.172 HD
ENDROOT
BRANCH   3   7
HETATM    7  C   UNL     1      45.209  17.718  39.101  1.00  0.00     0.216 C 
HETATM    8  O   UNL     1      44.091  18.250  38.981  1.00  0.00    -0.287 OA
BRANCH   7   9
HETATM    9  C   UNL     1      45.439  16.668  40.159  1.00  0.00     0.089 C 
BRANCH   9  10
HETATM   10  C   UNL     1      44.305  16.145  41.011  1.00  0.00     0.008 C 
BRANCH  10  11
HETATM   11  C   UNL     1      44.556  15.753  42.445  1.00  0.00     0.001 C 
BRANCH  11  12
HETATM   12  C   UNL     1      43.333  15.641  43.347  1.00  0.00     0.005 C 
BRANCH  12  13
HETATM   13  C   UNL     1      42.023  15.716  42.560  1.00  0.00     0.038 C 
BRANCH  13  14
HETATM   14  C   UNL     1      41.328  14.377  42.550  1.00  0.00    -0.056 C 
HETATM   15  C   UNL     1      42.035  13.236  42.181  1.00  0.00     0.007 C 
HETATM   16  C   UNL     1      41.354  12.075  41.844  1.00  0.00     0.003 C 
HETATM   17  C   UNL     1      40.012  11.951  42.188  1.00  0.00     0.036 C 
HETATM   18  C   UNL     1      39.324  13.043  42.695  1.00  0.00     0.066 C 
HETATM   19  C   UNL     1      39.967  14.279  42.794  1.00  0.00     0.043 C 
BRANCH  18  20
HETATM   20  O   UNL     1      38.165  12.860  43.423  1.00  0.00    -0.361 OA
ATOM     21  HO  UNL     1      38.197  12.800  44.371  1.00  0.00     0.217 HD
ENDBRANCH  18  20
ENDBRANCH  13  14
ENDBRANCH  12  13
ENDBRANCH  11  12
ENDBRANCH  10  11
ENDBRANCH   9  10
ENDBRANCH   7   9
ENDBRANCH   3   7
BRANCH   2  22
HETATM   22  C   UNL     1      44.472  20.113  36.655  1.00  0.00     0.065 C 
HETATM   23  C   UNL     1      43.875  21.278  37.090  1.00  0.00     0.020 C 
HETATM   24  C   UNL     1      42.908  21.982  36.402  1.00  0.00     0.001 C 
HETATM   25  C   UNL     1      42.244  21.706  35.240  1.00  0.00     0.000 C 
HETATM   26  C   UNL     1      42.100  20.464  34.670  1.00  0.00     0.003 C 
HETATM   27  C   UNL     1      42.774  19.328  35.043  1.00  0.00     0.037 C 
HETATM   28  C   UNL     1      43.771  19.130  35.975  1.00  0.00     0.081 C 
BRANCH  28  29
HETATM   29  O   UNL     1      44.127  17.825  36.249  1.00  0.00    -0.360 OA
ATOM     30  HO  UNL     1      44.917  17.495  35.835  1.00  0.00     0.217 HD
ENDBRANCH  28  29
ENDBRANCH   2  22
TORSDOF 10
ENDMDL
MODEL 7
REMARK VINA RESULT:      -7.3      1.524      2.424
REMARK  10 active torsions:
REMARK  status: ('A' for Active; 'I' for Inactive)
REMARK    1  A    between atoms: C_1  and  C_12 
REMARK    2  A    between atoms: C_5  and  C_14 
REMARK    3  A    between atoms: C_5  and  C_16 
REMARK    4  A    between atoms: C_12  and  C_16 
REMARK    5  A    between atoms: C_13  and  C_24 
REMARK       I    between atoms: C_13  and  N_29 
REMARK    6  A    between atoms: C_14  and  C_23 
REMARK    7  A    between atoms: C_15  and  O_27 
REMARK    8  A    between atoms: C_17  and  C_22 
REMARK       I    between atoms: C_17  and  N_29 
REMARK    9  A    between atoms: C_20  and  O_25 
REMARK   10  A    between atoms: C_22  and  C_23 
ROOT
HETATM    1  O   UNL     1      43.055  19.251  38.268  1.00  0.00    -0.264 OA
HETATM    2  C   UNL     1      42.510  19.136  35.346  1.00  0.00     0.261 C 
HETATM    3  C   UNL     1      43.712  19.463  37.273  1.00  0.00     0.294 C 
HETATM    4  O   UNL     1      41.473  18.480  35.356  1.00  0.00    -0.267 OA
HETATM    5  N   UNL     1      43.552  18.798  36.125  1.00  0.00    -0.287 N 
ATOM      6  HN  UNL     1      44.198  18.058  35.850  1.00  0.00     0.172 HD
ENDROOT
BRANCH   3   7
HETATM    7  C   UNL     1      44.789  20.518  37.225  1.00  0.00     0.216 C 
HETATM    8  O   UNL     1      44.511  21.647  36.782  1.00  0.00    -0.287 OA
BRANCH   7   9
HETATM    9  C   UNL     1      46.183  20.217  37.713  1.00  0.00     0.089 C 
BRANCH   9  10
HETATM   10  C   UNL     1      46.421  19.474  39.007  1.00  0.00     0.008 C 
BRANCH  10  11
HETATM   11  C   UNL     1      46.435  17.966  39.021  1.00  0.00     0.001 C 
BRANCH  11  12
HETATM   12  C   UNL     1      46.848  17.274  37.728  1.00  0.00     0.005 C 
BRANCH  12  13
HETATM   13  C   UNL     1      47.156  15.790  37.938  1.00  0.00     0.038 C 
BRANCH  13  14
HETATM   14  C   UNL     1      48.575  15.476  37.533  1.00  0.00    -0.056 C 
HETATM   15  C   UNL     1      48.813  14.576  36.499  1.00  0.00     0.007 C 
HETATM   16  C   UNL     1      50.076  14.024  36.334  1.00  0.00     0.003 C 
HETATM   17  C   UNL     1      51.161  14.608  36.979  1.00  0.00     0.036 C 
HETATM   18  C   UNL     1      50.953  15.612  37.912  1.00  0.00     0.066 C 
HETATM   19  C   UNL     1      49.649  15.984  38.248  1.00  0.00     0.043 C 
BRANCH  18  20
HETATM   20  O   UNL     1      51.975  16.481  38.241  1.00  0.00    -0.361 OA
ATOM     21  HO  UNL     1      51.954  17.383  37.940  1.00  0.00     0.217 HD
ENDBRANCH  18  20
ENDBRANCH  13  14
ENDBRANCH  12  13
ENDBRANCH  11  12
ENDBRANCH  10  11
ENDBRANCH   9  10
ENDBRANCH   7   9
ENDBRANCH   3   7
BRANCH   2  22
HETATM   22  C   UNL     1      42.605  20.311  34.494  1.00  0.00     0.065 C 
HETATM   23  C   UNL     1      43.807  20.657  33.913  1.00  0.00     0.020 C 
HETATM   24  C   UNL     1      43.968  21.080  32.610  1.00  0.00     0.001 C 
HETATM   25  C   UNL     1      43.057  21.352  31.628  1.00  0.00     0.000 C 
HETATM   26  C   UNL     1      41.728  21.644  31.822  1.00  0.00     0.003 C 
HETATM   27  C   UNL     1      41.039  21.499  33.000  1.00  0.00     0.037 C 
HETATM   28  C   UNL     1      41.426  20.987  34.220  1.00  0.00     0.081 C 
BRANCH  28  29
HETATM   29  O   UNL     1      40.550  21.140  35.275  1.00  0.00    -0.360 OA
ATOM     30  HO  UNL     1      39.739  21.604  35.102  1.00  0.00     0.217 HD
ENDBRANCH  28  29
ENDBRANCH   2  22
TORSDOF 10
ENDMDL
MODEL 8
REMARK VINA RESULT:      -7.1      4.251      6.575
REMARK  10 active torsions:
REMARK  status: ('A' for Active; 'I' for Inactive)
REMARK    1  A    between atoms: C_1  and  C_12 
REMARK    2  A    between atoms: C_5  and  C_14 
REMARK    3  A    between atoms: C_5  and  C_16 
REMARK    4  A    between atoms: C_12  and  C_16 
REMARK    5  A    between atoms: C_13  and  C_24 
REMARK       I    between atoms: C_13  and  N_29 
REMARK    6  A    between atoms: C_14  and  C_23 
REMARK    7  A    between atoms: C_15  and  O_27 
REMARK    8  A    between atoms: C_17  and  C_22 
REMARK       I    between atoms: C_17  and  N_29 
REMARK    9  A    between atoms: C_20  and  O_25 
REMARK   10  A    between atoms: C_22  and  C_23 
ROOT
HETATM    1  O   UNL     1      46.396  17.566  37.580  1.00  0.00    -0.264 OA
HETATM    2  C   UNL     1      45.950  20.228  36.331  1.00  0.00     0.261 C 
HETATM    3  C   UNL     1      45.658  18.499  37.810  1.00  0.00     0.294 C 
HETATM    4  O   UNL     1      46.971  20.312  35.654  1.00  0.00    -0.267 OA
HETATM    5  N   UNL     1      45.991  19.775  37.596  1.00  0.00    -0.287 N 
ATOM      6  HN  UNL     1      46.267  20.384  38.366  1.00  0.00     0.172 HD
ENDROOT
BRANCH   3   7
HETATM    7  C   UNL     1      44.268  18.312  38.363  1.00  0.00     0.216 C 
HETATM    8  O   UNL     1      43.472  19.268  38.336  1.00  0.00    -0.287 OA
BRANCH   7   9
HETATM    9  C   UNL     1      43.840  16.984  38.935  1.00  0.00     0.089 C 
BRANCH   9  10
HETATM   10  C   UNL     1      44.458  16.434  40.199  1.00  0.00     0.008 C 
BRANCH  10  11
HETATM   11  C   UNL     1      43.586  16.104  41.385  1.00  0.00     0.001 C 
BRANCH  11  12
HETATM   12  C   UNL     1      43.575  14.651  41.842  1.00  0.00     0.005 C 
BRANCH  12  13
HETATM   13  C   UNL     1      42.607  14.416  43.003  1.00  0.00     0.038 C 
BRANCH  13  14
HETATM   14  C   UNL     1      41.474  13.515  42.580  1.00  0.00    -0.056 C 
HETATM   15  C   UNL     1      40.158  13.923  42.778  1.00  0.00     0.007 C 
HETATM   16  C   UNL     1      39.126  12.998  42.712  1.00  0.00     0.003 C 
HETATM   17  C   UNL     1      39.363  11.755  42.134  1.00  0.00     0.036 C 
HETATM   18  C   UNL     1      40.655  11.386  41.795  1.00  0.00     0.066 C 
HETATM   19  C   UNL     1      41.720  12.237  42.100  1.00  0.00     0.043 C 
BRANCH  18  20
HETATM   20  O   UNL     1      40.875  10.389  40.865  1.00  0.00    -0.361 OA
ATOM     21  HO  UNL     1      41.173   9.530  41.143  1.00  0.00     0.217 HD
ENDBRANCH  18  20
ENDBRANCH  13  14
ENDBRANCH  12  13
ENDBRANCH  11  12
ENDBRANCH  10  11
ENDBRANCH   9  10
ENDBRANCH   7   9
ENDBRANCH   3   7
BRANCH   2  22
HETATM   22  C   UNL     1      44.673  20.606  35.747  1.00  0.00     0.065 C 
HETATM   23  C   UNL     1      44.019  19.749  34.885  1.00  0.00     0.020 C 
HETATM   24  C   UNL     1      42.665  19.487  34.899  1.00  0.00     0.001 C 
HETATM   25  C   UNL     1      41.648  20.024  35.636  1.00  0.00     0.000 C 
HETATM   26  C   UNL     1      41.672  21.240  36.276  1.00  0.00     0.003 C 
HETATM   27  C   UNL     1      42.784  22.021  36.472  1.00  0.00     0.037 C 
HETATM   28  C   UNL     1      44.112  21.799  36.174  1.00  0.00     0.081 C 
BRANCH  28  29
HETATM   29  O   UNL     1      44.979  22.859  36.334  1.00  0.00    -0.360 OA
ATOM     30  HO  UNL     1      45.074  23.215  37.209  1.00  0.00     0.217 HD
ENDBRANCH  28  29
ENDBRANCH   2  22
TORSDOF 10
ENDMDL
MODEL 9
REMARK VINA RESULT:      -7.1      3.447      4.979
REMARK  10 active torsions:
REMARK  status: ('A' for Active; 'I' for Inactive)
REMARK    1  A    between atoms: C_1  and  C_12 
REMARK    2  A    between atoms: C_5  and  C_14 
REMARK    3  A    between atoms: C_5  and  C_16 
REMARK    4  A    between atoms: C_12  and  C_16 
REMARK    5  A    between atoms: C_13  and  C_24 
REMARK       I    between atoms: C_13  and  N_29 
REMARK    6  A    between atoms: C_14  and  C_23 
REMARK    7  A    between atoms: C_15  and  O_27 
REMARK    8  A    between atoms: C_17  and  C_22 
REMARK       I    between atoms: C_17  and  N_29 
REMARK    9  A    between atoms: C_20  and  O_25 
REMARK   10  A    between atoms: C_22  and  C_23 
ROOT
HETATM    1  O   UNL     1      43.044  19.469  38.228  1.00  0.00    -0.264 OA
HETATM    2  C   UNL     1      42.406  19.281  35.329  1.00  0.00     0.261 C 
HETATM    3  C   UNL     1      43.679  19.621  37.207  1.00  0.00     0.294 C 
HETATM    4  O   UNL     1      41.343  18.670  35.391  1.00  0.00    -0.267 OA
HETATM    5  N   UNL     1      43.456  18.925  36.088  1.00  0.00    -0.287 N 
ATOM      6  HN  UNL     1      44.063  18.150  35.820  1.00  0.00     0.172 HD
ENDROOT
BRANCH   3   7
HETATM    7  C   UNL     1      44.795  20.627  37.091  1.00  0.00     0.216 C 
HETATM    8  O   UNL     1      44.525  21.798  36.768  1.00  0.00    -0.287 OA
BRANCH   7   9
HETATM    9  C   UNL     1      46.222  20.228  37.371  1.00  0.00     0.089 C 
BRANCH   9  10
HETATM   10  C   UNL     1      46.561  18.885  37.974  1.00  0.00     0.008 C 
BRANCH  10  11
HETATM   11  C   UNL     1      46.224  18.596  39.415  1.00  0.00     0.001 C 
BRANCH  11  12
HETATM   12  C   UNL     1      45.912  17.147  39.767  1.00  0.00     0.005 C 
BRANCH  12  13
HETATM   13  C   UNL     1      44.409  16.862  39.767  1.00  0.00     0.038 C 
BRANCH  13  14
HETATM   14  C   UNL     1      44.009  16.100  41.006  1.00  0.00    -0.056 C 
HETATM   15  C   UNL     1      42.665  15.827  41.243  1.00  0.00     0.007 C 
HETATM   16  C   UNL     1      42.248  15.436  42.507  1.00  0.00     0.003 C 
HETATM   17  C   UNL     1      43.194  15.003  43.431  1.00  0.00     0.036 C 
HETATM   18  C   UNL     1      44.545  15.135  43.150  1.00  0.00     0.066 C 
HETATM   19  C   UNL     1      44.947  15.764  41.970  1.00  0.00     0.043 C 
BRANCH  18  20
HETATM   20  O   UNL     1      45.474  14.360  43.816  1.00  0.00    -0.361 OA
ATOM     21  HO  UNL     1      46.002  13.729  43.340  1.00  0.00     0.217 HD
ENDBRANCH  18  20
ENDBRANCH  13  14
ENDBRANCH  12  13
ENDBRANCH  11  12
ENDBRANCH  10  11
ENDBRANCH   9  10
ENDBRANCH   7   9
ENDBRANCH   3   7
BRANCH   2  22
HETATM   22  C   UNL     1      42.522  20.421  34.434  1.00  0.00     0.065 C 
HETATM   23  C   UNL     1      43.746  20.768  33.900  1.00  0.00     0.020 C 
HETATM   24  C   UNL     1      43.966  21.141  32.591  1.00  0.00     0.001 C 
HETATM   25  C   UNL     1      43.102  21.355  31.554  1.00  0.00     0.000 C 
HETATM   26  C   UNL     1      41.759  21.628  31.668  1.00  0.00     0.003 C 
HETATM   27  C   UNL     1      41.013  21.516  32.815  1.00  0.00     0.037 C 
HETATM   28  C   UNL     1      41.347  21.062  34.073  1.00  0.00     0.081 C 
BRANCH  28  29
HETATM   29  O   UNL     1      40.415  21.240  35.075  1.00  0.00    -0.360 OA
ATOM     30  HO  UNL     1      39.698  21.838  34.900  1.00  0.00     0.217 HD
ENDBRANCH  28  29
ENDBRANCH   2  22
TORSDOF 10
ENDMDL
