REMARK  2 active torsions:
REMARK  status: ('A' for Active; 'I' for Inactive)
REMARK    1  A    between atoms: O_10  and  C_14 
REMARK    2  A    between atoms: C_15  and  C_23 
ROOT
HETATM    1  C   UNL     1       6.781  19.000  15.902  1.00  0.00     0.011 C 
HETATM    2  C   UNL     1       7.977  18.094  17.921  1.00  0.00    -0.015 C 
HETATM    3  C   UNL     1       7.452  18.278  13.617  1.00  0.00    -0.027 C 
HETATM    4  C   UNL     1       7.466  17.506  19.245  1.00  0.00     0.019 C 
HETATM    5  C   UNL     1       7.208  19.440  12.978  1.00  0.00     0.022 C 
HETATM    6  C   UNL     1       7.673  15.247  14.449  1.00  0.00     0.009 C 
HETATM    7  C   UNL     1       9.658  19.312  19.547  1.00  0.00    -0.003 C 
HETATM    8  C   UNL     1       6.106  19.548  19.693  1.00  0.00     0.010 C 
HETATM    9  C   UNL     1       6.814  18.862  17.268  1.00  0.00    -0.071 C 
HETATM   10  C   UNL     1       8.384  16.922  17.031  1.00  0.00     0.024 C 
HETATM   11  C   UNL     1       8.920  16.091  14.686  1.00  0.00    -0.003 C 
HETATM   12  C   UNL     1       7.849  17.033  12.831  1.00  0.00     0.085 C 
HETATM   13  C   UNL     1       8.511  19.391  20.526  1.00  0.00     0.095 C 
HETATM   14  C   UNL     1       6.978  15.849  13.239  1.00  0.00     0.043 C 
HETATM   15  C   UNL     1       9.149  19.044  18.130  1.00  0.00     0.019 C 
HETATM   16  C   UNL     1       7.592  18.218  15.020  1.00  0.00    -0.045 C 
HETATM   17  C   UNL     1       8.659  17.299  15.584  1.00  0.00     0.024 C 
HETATM   18  C   UNL     1       6.070  19.816  18.188  1.00  0.00     0.035 C 
HETATM   19  C   UNL     1       7.229  18.654  20.237  1.00  0.00     0.001 C 
HETATM   20  C   UNL     1       9.254  16.645  13.299  1.00  0.00     0.048 C 
HETATM   21  C   UNL     1      10.404  20.646  19.553  1.00  0.00     0.011 C 
ENDROOT
BRANCH  13  22
HETATM   22  C   UNL     1       8.706  20.095  21.823  1.00  0.00     0.177 C 
HETATM   23  O   UNL     1       7.850  20.965  22.171  1.00  0.00    -0.648 OA
HETATM   24  O   UNL     1       9.784  19.922  22.441  1.00  0.00    -0.648 OA
ENDBRANCH  13  22
BRANCH  12  25
HETATM   25  O   UNL     1       7.856  17.195  11.415  1.00  0.00    -0.385 OA
ATOM     26  HO  UNL     1       8.103  16.419  10.925  1.00  0.00     0.211 HD
ENDBRANCH  12  25
TORSDOF 2
