MODEL 1
REMARK VINA RESULT:     -11.8      0.000      0.000
REMARK  3 active torsions:
REMARK  status: ('A' for Active; 'I' for Inactive)
REMARK    1  A    between atoms: O_1  and  C_9 
REMARK    2  A    between atoms: O_6  and  C_14 
REMARK    3  A    between atoms: C_17  and  O_21 
ROOT
HETATM    1  N   UNL     1       0.319  31.598   8.044  1.00  0.00    -0.389 N 
ATOM      2  HN  UNL     1       0.200  32.066   7.146  1.00  0.00     0.159 HD
HETATM    3  C   UNL     1       2.859  26.421  10.439  1.00  0.00     0.051 C 
HETATM    4  C   UNL     1      -3.307  32.942  11.128  1.00  0.00     0.003 C 
HETATM    5  C   UNL     1       1.040  25.356  11.639  1.00  0.00     0.133 C 
HETATM    6  C   UNL     1      -0.971  30.252   9.598  1.00  0.00     0.172 C 
HETATM    7  C   UNL     1       0.314  29.038  11.503  1.00  0.00     0.050 C 
HETATM    8  O   UNL     1      -2.164  29.972  10.235  1.00  0.00    -0.374 OA
HETATM    9  C   UNL     1       1.046  27.730  11.349  1.00  0.00    -0.011 C 
HETATM   10  C   UNL     1       0.663  26.619  12.102  1.00  0.00     0.108 C 
HETATM   11  C   UNL     1       2.168  30.456   7.021  1.00  0.00     0.026 C 
HETATM   12  C   UNL     1      -3.200  31.573   8.688  1.00  0.00     0.042 C 
HETATM   13  C   UNL     1       2.241  25.261  10.924  1.00  0.00     0.102 C 
HETATM   14  C   UNL     1       1.543  30.833   8.367  1.00  0.00     0.090 C 
HETATM   15  C   UNL     1      -3.369  30.665   9.923  1.00  0.00     0.123 C 
HETATM   16  C   UNL     1      -1.981  32.462   8.945  1.00  0.00     0.036 C 
HETATM   17  C   UNL     1       0.323  29.892  10.270  1.00  0.00     0.035 C 
HETATM   18  C   UNL     1       1.132  29.515   9.058  1.00  0.00     0.045 C 
HETATM   19  C   UNL     1       2.306  28.641   9.380  1.00  0.00    -0.062 C 
HETATM   20  C   UNL     1      -2.170  33.314  10.200  1.00  0.00     0.011 C 
HETATM   21  C   UNL     1      -0.707  31.648   9.076  1.00  0.00     0.016 C 
HETATM   22  C   UNL     1      -3.725  31.498  11.168  1.00  0.00     0.032 C 
HETATM   23  C   UNL     1       3.296  28.425   8.281  1.00  0.00     0.036 C 
HETATM   24  C   UNL     1       2.076  27.582  10.396  1.00  0.00    -0.021 C 
HETATM   25  C   UNL     1       3.020  29.203   7.016  1.00  0.00     0.006 C 
ENDROOT
BRANCH   5  26
HETATM   26  O   UNL     1       0.251  24.257  11.765  1.00  0.00    -0.356 OA
ATOM     27  HO  UNL     1      -0.083  23.772  11.020  1.00  0.00     0.218 HD
ENDBRANCH   5  26
BRANCH  10  28
HETATM   28  O   UNL     1       0.087  26.782  13.327  1.00  0.00    -0.357 OA
ATOM     29  HO  UNL     1       0.366  27.472  13.915  1.00  0.00     0.217 HD
ENDBRANCH  10  28
BRANCH  13  30
HETATM   30  O   UNL     1       2.794  24.034  10.721  1.00  0.00    -0.358 OA
ATOM     31  HO  UNL     1       3.726  23.936  10.564  1.00  0.00     0.217 HD
ENDBRANCH  13  30
TORSDOF 3
ENDMDL
MODEL 2
REMARK VINA RESULT:     -10.5      2.222      5.651
REMARK  3 active torsions:
REMARK  status: ('A' for Active; 'I' for Inactive)
REMARK    1  A    between atoms: O_1  and  C_9 
REMARK    2  A    between atoms: O_6  and  C_14 
REMARK    3  A    between atoms: C_17  and  O_21 
ROOT
HETATM    1  N   UNL     1       1.196  31.580   7.722  1.00  0.00    -0.389 N 
ATOM      2  HN  UNL     1       1.710  32.441   7.537  1.00  0.00     0.159 HD
HETATM    3  C   UNL     1      -3.608  29.522  11.140  1.00  0.00     0.051 C 
HETATM    4  C   UNL     1       4.117  27.673   6.905  1.00  0.00     0.003 C 
HETATM    5  C   UNL     1      -2.693  27.670  12.412  1.00  0.00     0.133 C 
HETATM    6  C   UNL     1       1.442  29.535   9.005  1.00  0.00     0.172 C 
HETATM    7  C   UNL     1      -0.650  28.019   9.280  1.00  0.00     0.050 C 
HETATM    8  O   UNL     1       2.235  28.513   9.490  1.00  0.00    -0.374 OA
HETATM    9  C   UNL     1      -1.746  28.240  10.290  1.00  0.00    -0.011 C 
HETATM   10  C   UNL     1      -2.012  27.271  11.260  1.00  0.00     0.108 C 
HETATM   11  C   UNL     1      -0.606  33.000   8.432  1.00  0.00     0.026 C 
HETATM   12  C   UNL     1       4.156  29.823   8.698  1.00  0.00     0.042 C 
HETATM   13  C   UNL     1      -3.611  28.721  12.289  1.00  0.00     0.102 C 
HETATM   14  C   UNL     1      -0.263  31.583   7.969  1.00  0.00     0.090 C 
HETATM   15  C   UNL     1       3.648  28.498   9.301  1.00  0.00     0.123 C 
HETATM   16  C   UNL     1       3.329  30.092   7.438  1.00  0.00     0.036 C 
HETATM   17  C   UNL     1      -0.021  29.284   8.776  1.00  0.00     0.035 C 
HETATM   18  C   UNL     1      -0.563  30.636   9.151  1.00  0.00     0.045 C 
HETATM   19  C   UNL     1      -2.017  30.609   9.514  1.00  0.00    -0.062 C 
HETATM   20  C   UNL     1       3.485  28.961   6.422  1.00  0.00     0.011 C 
HETATM   21  C   UNL     1       1.859  30.284   7.758  1.00  0.00     0.016 C 
HETATM   22  C   UNL     1       3.947  27.319   8.357  1.00  0.00     0.032 C 
HETATM   23  C   UNL     1      -2.691  31.936   9.657  1.00  0.00     0.036 C 
HETATM   24  C   UNL     1      -2.469  29.450  10.326  1.00  0.00    -0.021 C 
HETATM   25  C   UNL     1      -1.827  33.128   9.320  1.00  0.00     0.006 C 
ENDROOT
BRANCH   5  26
HETATM   26  O   UNL     1      -2.428  27.157  13.642  1.00  0.00    -0.356 OA
ATOM     27  HO  UNL     1      -2.496  26.231  13.841  1.00  0.00     0.218 HD
ENDBRANCH   5  26
BRANCH  10  28
HETATM   28  O   UNL     1      -1.759  25.955  11.006  1.00  0.00    -0.357 OA
ATOM     29  HO  UNL     1      -2.464  25.336  10.860  1.00  0.00     0.217 HD
ENDBRANCH  10  28
BRANCH  13  30
HETATM   30  O   UNL     1      -4.504  28.939  13.293  1.00  0.00    -0.358 OA
ATOM     31  HO  UNL     1      -5.365  28.536  13.279  1.00  0.00     0.217 HD
ENDBRANCH  13  30
TORSDOF 3
ENDMDL
MODEL 3
REMARK VINA RESULT:     -10.3      2.333      5.914
REMARK  3 active torsions:
REMARK  status: ('A' for Active; 'I' for Inactive)
REMARK    1  A    between atoms: O_1  and  C_9 
REMARK    2  A    between atoms: O_6  and  C_14 
REMARK    3  A    between atoms: C_17  and  O_21 
ROOT
HETATM    1  N   UNL     1       2.107  31.255   7.180  1.00  0.00    -0.389 N 
ATOM      2  HN  UNL     1       2.804  31.961   6.942  1.00  0.00     0.159 HD
HETATM    3  C   UNL     1      -3.152  30.657  10.492  1.00  0.00     0.051 C 
HETATM    4  C   UNL     1       4.129  26.748   6.924  1.00  0.00     0.003 C 
HETATM    5  C   UNL     1      -2.712  28.801  11.992  1.00  0.00     0.133 C 
HETATM    6  C   UNL     1       1.852  29.356   8.670  1.00  0.00     0.172 C 
HETATM    7  C   UNL     1      -0.530  28.363   8.967  1.00  0.00     0.050 C 
HETATM    8  O   UNL     1       2.384  28.247   9.298  1.00  0.00    -0.374 OA
HETATM    9  C   UNL     1      -1.587  28.921   9.884  1.00  0.00    -0.011 C 
HETATM   10  C   UNL     1      -2.094  28.143  10.927  1.00  0.00     0.108 C 
HETATM   11  C   UNL     1       0.635  33.097   7.639  1.00  0.00     0.026 C 
HETATM   12  C   UNL     1       4.573  29.022   8.497  1.00  0.00     0.042 C 
HETATM   13  C   UNL     1      -3.373  30.005  11.712  1.00  0.00     0.102 C 
HETATM   14  C   UNL     1       0.677  31.597   7.338  1.00  0.00     0.090 C 
HETATM   15  C   UNL     1       3.764  27.910   9.196  1.00  0.00     0.123 C 
HETATM   16  C   UNL     1       3.872  29.323   7.170  1.00  0.00     0.036 C 
HETATM   17  C   UNL     1       0.379  29.401   8.380  1.00  0.00     0.035 C 
HETATM   18  C   UNL     1       0.133  30.871   8.587  1.00  0.00     0.045 C 
HETATM   19  C   UNL     1      -1.304  31.195   8.865  1.00  0.00    -0.062 C 
HETATM   20  C   UNL     1       3.812  28.081   6.281  1.00  0.00     0.011 C 
HETATM   21  C   UNL     1       2.469  29.859   7.382  1.00  0.00     0.016 C 
HETATM   22  C   UNL     1       3.832  26.598   8.391  1.00  0.00     0.032 C 
HETATM   23  C   UNL     1      -1.676  32.643   8.837  1.00  0.00     0.036 C 
HETATM   24  C   UNL     1      -2.028  30.255   9.758  1.00  0.00    -0.021 C 
HETATM   25  C   UNL     1      -0.559  33.578   8.437  1.00  0.00     0.006 C 
ENDROOT
BRANCH   5  26
HETATM   26  O   UNL     1      -2.612  28.380  13.279  1.00  0.00    -0.356 OA
ATOM     27  HO  UNL     1      -2.046  27.666  13.547  1.00  0.00     0.218 HD
ENDBRANCH   5  26
BRANCH  10  28
HETATM   28  O   UNL     1      -2.126  26.784  10.819  1.00  0.00    -0.357 OA
ATOM     29  HO  UNL     1      -1.430  26.307  10.384  1.00  0.00     0.217 HD
ENDBRANCH  10  28
BRANCH  13  30
HETATM   30  O   UNL     1      -4.233  30.516  12.636  1.00  0.00    -0.358 OA
ATOM     31  HO  UNL     1      -4.352  31.455  12.726  1.00  0.00     0.217 HD
ENDBRANCH  13  30
TORSDOF 3
ENDMDL
MODEL 4
REMARK VINA RESULT:     -10.0      2.472      4.785
REMARK  3 active torsions:
REMARK  status: ('A' for Active; 'I' for Inactive)
REMARK    1  A    between atoms: O_1  and  C_9 
REMARK    2  A    between atoms: O_6  and  C_14 
REMARK    3  A    between atoms: C_17  and  O_21 
ROOT
HETATM    1  N   UNL     1      -0.851  29.881  10.347  1.00  0.00    -0.389 N 
ATOM      2  HN  UNL     1      -1.771  30.317  10.279  1.00  0.00     0.159 HD
HETATM    3  C   UNL     1       4.229  28.864   6.861  1.00  0.00     0.051 C 
HETATM    4  C   UNL     1      -0.932  26.327  13.786  1.00  0.00     0.003 C 
HETATM    5  C   UNL     1       4.562  26.463   6.966  1.00  0.00     0.133 C 
HETATM    6  C   UNL     1       0.137  27.665  10.308  1.00  0.00     0.172 C 
HETATM    7  C   UNL     1       2.719  27.495  10.072  1.00  0.00     0.050 C 
HETATM    8  O   UNL     1       0.088  26.326  10.642  1.00  0.00    -0.374 OA
HETATM    9  C   UNL     1       3.473  27.595   8.772  1.00  0.00    -0.011 C 
HETATM   10  C   UNL     1       4.250  26.523   8.327  1.00  0.00     0.108 C 
HETATM   11  C   UNL     1      -0.224  31.294   8.509  1.00  0.00     0.026 C 
HETATM   12  C   UNL     1      -2.231  26.733  11.340  1.00  0.00     0.042 C 
HETATM   13  C   UNL     1       4.693  27.677   6.279  1.00  0.00     0.102 C 
HETATM   14  C   UNL     1       0.329  30.442   9.653  1.00  0.00     0.090 C 
HETATM   15  C   UNL     1      -1.048  25.746  11.278  1.00  0.00     0.123 C 
HETATM   16  C   UNL     1      -1.710  28.023  11.977  1.00  0.00     0.036 C 
HETATM   17  C   UNL     1       1.472  28.327  10.121  1.00  0.00     0.035 C 
HETATM   18  C   UNL     1       1.119  29.281   9.012  1.00  0.00     0.045 C 
HETATM   19  C   UNL     1       2.312  29.753   8.237  1.00  0.00    -0.062 C 
HETATM   20  C   UNL     1      -1.169  27.767  13.383  1.00  0.00     0.011 C 
HETATM   21  C   UNL     1      -0.632  28.675  11.133  1.00  0.00     0.016 C 
HETATM   22  C   UNL     1      -0.595  25.348  12.695  1.00  0.00     0.032 C 
HETATM   23  C   UNL     1       2.083  30.884   7.286  1.00  0.00     0.036 C 
HETATM   24  C   UNL     1       3.352  28.733   7.946  1.00  0.00    -0.021 C 
HETATM   25  C   UNL     1       0.687  31.460   7.309  1.00  0.00     0.006 C 
ENDROOT
BRANCH   5  26
HETATM   26  O   UNL     1       4.639  25.296   6.277  1.00  0.00    -0.356 OA
ATOM     27  HO  UNL     1       3.887  24.740   6.115  1.00  0.00     0.218 HD
ENDBRANCH   5  26
BRANCH  10  28
HETATM   28  O   UNL     1       4.815  25.664   9.222  1.00  0.00    -0.357 OA
ATOM     29  HO  UNL     1       5.406  25.973   9.897  1.00  0.00     0.217 HD
ENDBRANCH  10  28
BRANCH  13  30
HETATM   30  O   UNL     1       5.284  27.682   5.053  1.00  0.00    -0.358 OA
ATOM     31  HO  UNL     1       6.154  28.043   4.930  1.00  0.00     0.217 HD
ENDBRANCH  13  30
TORSDOF 3
ENDMDL
MODEL 5
REMARK VINA RESULT:     -10.0      1.307      1.876
REMARK  3 active torsions:
REMARK  status: ('A' for Active; 'I' for Inactive)
REMARK    1  A    between atoms: O_1  and  C_9 
REMARK    2  A    between atoms: O_6  and  C_14 
REMARK    3  A    between atoms: C_17  and  O_21 
ROOT
HETATM    1  N   UNL     1       0.474  30.605   8.957  1.00  0.00    -0.389 N 
ATOM      2  HN  UNL     1       0.605  30.899   7.989  1.00  0.00     0.159 HD
HETATM    3  C   UNL     1       1.510  25.664  12.632  1.00  0.00     0.051 C 
HETATM    4  C   UNL     1      -3.299  33.089  10.971  1.00  0.00     0.003 C 
HETATM    5  C   UNL     1      -0.661  25.159  13.591  1.00  0.00     0.133 C 
HETATM    6  C   UNL     1      -1.301  29.814  10.411  1.00  0.00     0.172 C 
HETATM    7  C   UNL     1      -0.624  28.810  12.711  1.00  0.00     0.050 C 
HETATM    8  O   UNL     1      -2.617  29.858  10.827  1.00  0.00    -0.374 OA
HETATM    9  C   UNL     1      -0.144  27.399  12.925  1.00  0.00    -0.011 C 
HETATM   10  C   UNL     1      -0.859  26.532  13.754  1.00  0.00     0.108 C 
HETATM   11  C   UNL     1       2.215  29.004   8.535  1.00  0.00     0.026 C 
HETATM   12  C   UNL     1      -3.040  31.267   8.861  1.00  0.00     0.042 C 
HETATM   13  C   UNL     1       0.605  24.736  13.162  1.00  0.00     0.102 C 
HETATM   14  C   UNL     1       1.452  29.733   9.644  1.00  0.00     0.090 C 
HETATM   15  C   UNL     1      -3.593  30.658  10.166  1.00  0.00     0.123 C 
HETATM   16  C   UNL     1      -1.735  31.983   9.214  1.00  0.00     0.036 C 
HETATM   17  C   UNL     1      -0.237  29.392  11.384  1.00  0.00     0.035 C 
HETATM   18  C   UNL     1       0.680  28.661  10.441  1.00  0.00     0.045 C 
HETATM   19  C   UNL     1       1.589  27.691  11.135  1.00  0.00    -0.062 C 
HETATM   20  C   UNL     1      -1.970  33.085  10.247  1.00  0.00     0.011 C 
HETATM   21  C   UNL     1      -0.685  31.020   9.734  1.00  0.00     0.016 C 
HETATM   22  C   UNL     1      -3.990  31.767  11.159  1.00  0.00     0.032 C 
HETATM   23  C   UNL     1       2.693  27.109  10.312  1.00  0.00     0.036 C 
HETATM   24  C   UNL     1       0.986  26.903  12.241  1.00  0.00    -0.021 C 
HETATM   25  C   UNL     1       2.795  27.656   8.908  1.00  0.00     0.006 C 
ENDROOT
BRANCH   5  26
HETATM   26  O   UNL     1      -1.657  24.247  13.729  1.00  0.00    -0.356 OA
ATOM     27  HO  UNL     1      -1.570  23.342  13.456  1.00  0.00     0.218 HD
ENDBRANCH   5  26
BRANCH  10  28
HETATM   28  O   UNL     1      -1.595  27.023  14.792  1.00  0.00    -0.357 OA
ATOM     29  HO  UNL     1      -1.382  27.853  15.199  1.00  0.00     0.217 HD
ENDBRANCH  10  28
BRANCH  13  30
HETATM   30  O   UNL     1       0.936  23.421  13.279  1.00  0.00    -0.358 OA
ATOM     31  HO  UNL     1       0.301  22.781  13.583  1.00  0.00     0.217 HD
ENDBRANCH  13  30
TORSDOF 3
ENDMDL
MODEL 6
REMARK VINA RESULT:     -10.0      1.950      6.390
REMARK  3 active torsions:
REMARK  status: ('A' for Active; 'I' for Inactive)
REMARK    1  A    between atoms: O_1  and  C_9 
REMARK    2  A    between atoms: O_6  and  C_14 
REMARK    3  A    between atoms: C_17  and  O_21 
ROOT
HETATM    1  N   UNL     1       3.371  26.674   9.836  1.00  0.00    -0.389 N 
ATOM      2  HN  UNL     1       4.376  26.514   9.907  1.00  0.00     0.159 HD
HETATM    3  C   UNL     1      -0.686  31.364   9.105  1.00  0.00     0.051 C 
HETATM    4  C   UNL     1       0.930  23.052  12.158  1.00  0.00     0.003 C 
HETATM    5  C   UNL     1      -2.207  31.144  10.982  1.00  0.00     0.133 C 
HETATM    6  C   UNL     1       1.425  26.796  11.281  1.00  0.00     0.172 C 
HETATM    7  C   UNL     1      -0.773  27.746  10.273  1.00  0.00     0.050 C 
HETATM    8  O   UNL     1       0.717  26.344  12.377  1.00  0.00    -0.374 OA
HETATM    9  C   UNL     1      -1.088  29.212  10.123  1.00  0.00    -0.011 C 
HETATM   10  C   UNL     1      -2.192  29.763  10.776  1.00  0.00     0.108 C 
HETATM   11  C   UNL     1       3.939  28.734   8.739  1.00  0.00     0.026 C 
HETATM   12  C   UNL     1       2.722  25.049  12.957  1.00  0.00     0.042 C 
HETATM   13  C   UNL     1      -1.559  31.946  10.033  1.00  0.00     0.102 C 
HETATM   14  C   UNL     1       2.810  27.724   8.958  1.00  0.00     0.090 C 
HETATM   15  C   UNL     1       1.243  25.360  13.263  1.00  0.00     0.123 C 
HETATM   16  C   UNL     1       2.812  24.706  11.469  1.00  0.00     0.036 C 
HETATM   17  C   UNL     1       0.683  27.417  10.132  1.00  0.00     0.035 C 
HETATM   18  C   UNL     1       1.690  28.459   9.725  1.00  0.00     0.045 C 
HETATM   19  C   UNL     1       1.089  29.582   8.934  1.00  0.00    -0.062 C 
HETATM   20  C   UNL     1       1.943  23.498  11.125  1.00  0.00     0.011 C 
HETATM   21  C   UNL     1       2.414  25.879  10.594  1.00  0.00     0.016 C 
HETATM   22  C   UNL     1       0.373  24.102  13.080  1.00  0.00     0.032 C 
HETATM   23  C   UNL     1       2.050  30.524   8.283  1.00  0.00     0.036 C 
HETATM   24  C   UNL     1      -0.240  30.066   9.387  1.00  0.00    -0.021 C 
HETATM   25  C   UNL     1       3.506  30.154   8.437  1.00  0.00     0.006 C 
ENDROOT
BRANCH   5  26
HETATM   26  O   UNL     1      -2.725  31.720  12.098  1.00  0.00    -0.356 OA
ATOM     27  HO  UNL     1      -2.196  32.193  12.728  1.00  0.00     0.218 HD
ENDBRANCH   5  26
BRANCH  10  28
HETATM   28  O   UNL     1      -3.285  28.994  11.051  1.00  0.00    -0.357 OA
ATOM     29  HO  UNL     1      -3.652  28.408  10.400  1.00  0.00     0.217 HD
ENDBRANCH  10  28
BRANCH  13  30
HETATM   30  O   UNL     1      -1.802  33.285  10.024  1.00  0.00    -0.358 OA
ATOM     31  HO  UNL     1      -2.630  33.635  10.332  1.00  0.00     0.217 HD
ENDBRANCH  13  30
TORSDOF 3
ENDMDL
MODEL 7
REMARK VINA RESULT:      -9.6      1.919      5.291
REMARK  3 active torsions:
REMARK  status: ('A' for Active; 'I' for Inactive)
REMARK    1  A    between atoms: O_1  and  C_9 
REMARK    2  A    between atoms: O_6  and  C_14 
REMARK    3  A    between atoms: C_17  and  O_21 
ROOT
HETATM    1  N   UNL     1       0.486  31.005   8.750  1.00  0.00    -0.389 N 
ATOM      2  HN  UNL     1       0.708  31.980   8.555  1.00  0.00     0.159 HD
HETATM    3  C   UNL     1      -2.486  27.538  13.010  1.00  0.00     0.051 C 
HETATM    4  C   UNL     1       3.860  28.061   6.647  1.00  0.00     0.003 C 
HETATM    5  C   UNL     1      -0.834  25.910  13.722  1.00  0.00     0.133 C 
HETATM    6  C   UNL     1       1.565  29.015   9.624  1.00  0.00     0.172 C 
HETATM    7  C   UNL     1       0.057  26.989  10.237  1.00  0.00     0.050 C 
HETATM    8  O   UNL     1       2.680  28.206   9.732  1.00  0.00    -0.374 OA
HETATM    9  C   UNL     1      -0.713  26.847  11.524  1.00  0.00    -0.011 C 
HETATM   10  C   UNL     1      -0.450  25.780  12.385  1.00  0.00     0.108 C 
HETATM   11  C   UNL     1      -1.306  31.853  10.106  1.00  0.00     0.026 C 
HETATM   12  C   UNL     1       3.925  30.023   8.644  1.00  0.00     0.042 C 
HETATM   13  C   UNL     1      -1.966  26.690  13.996  1.00  0.00     0.102 C 
HETATM   14  C   UNL     1      -0.795  30.609   9.376  1.00  0.00     0.090 C 
HETATM   15  C   UNL     1       3.938  28.574   9.172  1.00  0.00     0.123 C 
HETATM   16  C   UNL     1       2.725  30.149   7.702  1.00  0.00     0.036 C 
HETATM   17  C   UNL     1       0.200  28.405   9.762  1.00  0.00     0.035 C 
HETATM   18  C   UNL     1      -0.506  29.540  10.452  1.00  0.00     0.045 C 
HETATM   19  C   UNL     1      -1.742  29.109  11.185  1.00  0.00    -0.062 C 
HETATM   20  C   UNL     1       2.833  29.168   6.535  1.00  0.00     0.011 C 
HETATM   21  C   UNL     1       1.412  29.928   8.427  1.00  0.00     0.016 C 
HETATM   22  C   UNL     1       4.211  27.579   8.028  1.00  0.00     0.032 C 
HETATM   23  C   UNL     1      -2.632  30.201  11.685  1.00  0.00     0.036 C 
HETATM   24  C   UNL     1      -1.653  27.821  11.919  1.00  0.00    -0.021 C 
HETATM   25  C   UNL     1      -2.206  31.597  11.298  1.00  0.00     0.006 C 
ENDROOT
BRANCH   5  26
HETATM   26  O   UNL     1      -0.108  25.404  14.752  1.00  0.00    -0.356 OA
ATOM     27  HO  UNL     1      -0.320  24.583  15.179  1.00  0.00     0.218 HD
ENDBRANCH   5  26
BRANCH  10  28
HETATM   28  O   UNL     1       0.016  24.597  11.893  1.00  0.00    -0.357 OA
ATOM     29  HO  UNL     1       0.743  24.568  11.284  1.00  0.00     0.217 HD
ENDBRANCH  10  28
BRANCH  13  30
HETATM   30  O   UNL     1      -2.549  26.599  15.222  1.00  0.00    -0.358 OA
ATOM     31  HO  UNL     1      -2.474  27.306  15.854  1.00  0.00     0.217 HD
ENDBRANCH  13  30
TORSDOF 3
ENDMDL
MODEL 8
REMARK VINA RESULT:      -9.5      2.038      3.068
REMARK  3 active torsions:
REMARK  status: ('A' for Active; 'I' for Inactive)
REMARK    1  A    between atoms: O_1  and  C_9 
REMARK    2  A    between atoms: O_6  and  C_14 
REMARK    3  A    between atoms: C_17  and  O_21 
ROOT
HETATM    1  N   UNL     1       0.725  29.496   9.626  1.00  0.00    -0.389 N 
ATOM      2  HN  UNL     1       0.973  29.681   8.654  1.00  0.00     0.159 HD
HETATM    3  C   UNL     1       0.698  24.799  13.740  1.00  0.00     0.051 C 
HETATM    4  C   UNL     1      -2.759  32.681  11.105  1.00  0.00     0.003 C 
HETATM    5  C   UNL     1      -1.592  24.709  14.538  1.00  0.00     0.133 C 
HETATM    6  C   UNL     1      -1.257  29.109  10.973  1.00  0.00     0.172 C 
HETATM    7  C   UNL     1      -0.922  28.222  13.392  1.00  0.00     0.050 C 
HETATM    8  O   UNL     1      -2.578  29.384  11.266  1.00  0.00    -0.374 OA
HETATM    9  C   UNL     1      -0.684  26.779  13.754  1.00  0.00    -0.011 C 
HETATM   10  C   UNL     1      -1.586  26.105  14.579  1.00  0.00     0.108 C 
HETATM   11  C   UNL     1       2.223  27.624   9.482  1.00  0.00     0.026 C 
HETATM   12  C   UNL     1      -2.626  30.663   9.169  1.00  0.00     0.042 C 
HETATM   13  C   UNL     1      -0.379  24.066  14.256  1.00  0.00     0.102 C 
HETATM   14  C   UNL     1       1.501  28.553  10.461  1.00  0.00     0.090 C 
HETATM   15  C   UNL     1      -3.364  30.260  10.462  1.00  0.00     0.123 C 
HETATM   16  C   UNL     1      -1.256  31.205   9.582  1.00  0.00     0.036 C 
HETATM   17  C   UNL     1      -0.348  28.621  12.065  1.00  0.00     0.035 C 
HETATM   18  C   UNL     1       0.513  27.681  11.265  1.00  0.00     0.045 C 
HETATM   19  C   UNL     1       1.204  26.652  12.108  1.00  0.00    -0.062 C 
HETATM   20  C   UNL     1      -1.395  32.416  10.504  1.00  0.00     0.011 C 
HETATM   21  C   UNL     1      -0.412  30.146  10.264  1.00  0.00     0.016 C 
HETATM   22  C   UNL     1      -3.659  31.498  11.330  1.00  0.00     0.032 C 
HETATM   23  C   UNL     1       2.263  25.842  11.432  1.00  0.00     0.036 C 
HETATM   24  C   UNL     1       0.404  26.063  13.212  1.00  0.00    -0.021 C 
HETATM   25  C   UNL     1       2.557  26.242  10.006  1.00  0.00     0.006 C 
ENDROOT
BRANCH   5  26
HETATM   26  O   UNL     1      -2.725  23.970  14.656  1.00  0.00    -0.356 OA
ATOM     27  HO  UNL     1      -3.418  24.182  15.269  1.00  0.00     0.218 HD
ENDBRANCH   5  26
BRANCH  10  28
HETATM   28  O   UNL     1      -2.314  26.789  15.508  1.00  0.00    -0.357 OA
ATOM     29  HO  UNL     1      -2.726  26.343  16.238  1.00  0.00     0.217 HD
ENDBRANCH  10  28
BRANCH  13  30
HETATM   30  O   UNL     1      -0.266  22.732  14.501  1.00  0.00    -0.358 OA
ATOM     31  HO  UNL     1      -1.034  22.171  14.524  1.00  0.00     0.217 HD
ENDBRANCH  13  30
TORSDOF 3
ENDMDL
MODEL 9
REMARK VINA RESULT:      -9.2      2.916      6.935
REMARK  3 active torsions:
REMARK  status: ('A' for Active; 'I' for Inactive)
REMARK    1  A    between atoms: O_1  and  C_9 
REMARK    2  A    between atoms: O_6  and  C_14 
REMARK    3  A    between atoms: C_17  and  O_21 
ROOT
HETATM    1  N   UNL     1      -1.447  25.881  12.276  1.00  0.00    -0.389 N 
ATOM      2  HN  UNL     1      -2.389  25.521  12.425  1.00  0.00     0.159 HD
HETATM    3  C   UNL     1       1.572  30.073   8.769  1.00  0.00     0.051 C 
HETATM    4  C   UNL     1       1.880  22.444  13.536  1.00  0.00     0.003 C 
HETATM    5  C   UNL     1       3.332  28.799   7.688  1.00  0.00     0.133 C 
HETATM    6  C   UNL     1       0.611  25.236  11.164  1.00  0.00     0.172 C 
HETATM    7  C   UNL     1       2.458  27.043  10.890  1.00  0.00     0.050 C 
HETATM    8  O   UNL     1       1.521  24.263  10.799  1.00  0.00    -0.374 OA
HETATM    9  C   UNL     1       2.482  28.093   9.809  1.00  0.00    -0.011 C 
HETATM   10  C   UNL     1       3.541  28.141   8.902  1.00  0.00     0.108 C 
HETATM   11  C   UNL     1      -2.511  27.833  11.368  1.00  0.00     0.026 C 
HETATM   12  C   UNL     1      -0.128  22.626  11.594  1.00  0.00     0.042 C 
HETATM   13  C   UNL     1       2.436  29.877   7.683  1.00  0.00     0.102 C 
HETATM   14  C   UNL     1      -1.199  27.303  11.953  1.00  0.00     0.090 C 
HETATM   15  C   UNL     1       1.298  22.881  11.064  1.00  0.00     0.123 C 
HETATM   16  C   UNL     1      -0.341  23.564  12.784  1.00  0.00     0.036 C 
HETATM   17  C   UNL     1       1.078  26.653  11.332  1.00  0.00     0.035 C 
HETATM   18  C   UNL     1      -0.143  27.375  10.830  1.00  0.00     0.045 C 
HETATM   19  C   UNL     1       0.141  28.780  10.392  1.00  0.00    -0.062 C 
HETATM   20  C   UNL     1       0.682  23.300  13.888  1.00  0.00     0.011 C 
HETATM   21  C   UNL     1      -0.275  25.022  12.373  1.00  0.00     0.016 C 
HETATM   22  C   UNL     1       2.350  22.463  12.108  1.00  0.00     0.032 C 
HETATM   23  C   UNL     1      -1.048  29.643  10.115  1.00  0.00     0.036 C 
HETATM   24  C   UNL     1       1.407  28.992   9.645  1.00  0.00    -0.021 C 
HETATM   25  C   UNL     1      -2.383  28.999  10.409  1.00  0.00     0.006 C 
ENDROOT
BRANCH   5  26
HETATM   26  O   UNL     1       3.874  28.379   6.516  1.00  0.00    -0.356 OA
ATOM     27  HO  UNL     1       4.743  28.002   6.454  1.00  0.00     0.218 HD
ENDBRANCH   5  26
BRANCH  10  28
HETATM   28  O   UNL     1       4.780  27.702   9.265  1.00  0.00    -0.357 OA
ATOM     29  HO  UNL     1       5.473  27.596   8.625  1.00  0.00     0.217 HD
ENDBRANCH  10  28
BRANCH  13  30
HETATM   30  O   UNL     1       2.430  30.726   6.619  1.00  0.00    -0.358 OA
ATOM     31  HO  UNL     1       2.149  31.629   6.715  1.00  0.00     0.217 HD
ENDBRANCH  13  30
TORSDOF 3
ENDMDL
