REMARK  1 active torsions:
REMARK  status: ('A' for Active; 'I' for Inactive)
REMARK    1  A    between atoms: C_6  and  C_16 
ROOT
HETATM    1  C   UNL     1      -1.484  33.035   8.975  1.00  0.00    -0.049 C 
HETATM    2  C   UNL     1      -0.652  30.713   8.397  1.00  0.00     0.120 C 
HETATM    3  C   UNL     1      -2.882  31.172   9.785  1.00  0.00    -0.045 C 
HETATM    4  C   UNL     1      -1.091  28.569   9.628  1.00  0.00     0.035 C 
HETATM    5  C   UNL     1      -1.505  26.126  11.286  1.00  0.00     0.000 C 
HETATM    6  C   UNL     1      -0.993  27.257   9.144  1.00  0.00     0.029 C 
HETATM    7  C   UNL     1      -2.078  28.909  10.583  1.00  0.00    -0.028 C 
HETATM    8  C   UNL     1      -3.135  33.386  10.726  1.00  0.00     0.001 C 
HETATM    9  C   UNL     1      -1.880  27.088  12.200  1.00  0.00     0.001 C 
HETATM   10  C   UNL     1      -2.036  33.830   9.989  1.00  0.00     0.007 C 
HETATM   11  C   UNL     1      -0.487  33.660   8.020  1.00  0.00     0.040 C 
HETATM   12  C   UNL     1       0.676  31.524   8.455  1.00  0.00     0.018 C 
HETATM   13  C   UNL     1      -3.251  29.734  10.083  1.00  0.00     0.080 C 
HETATM   14  N   UNL     1      -0.261  29.543   9.206  1.00  0.00    -0.380 N 
ATOM     15  HN  UNL     1       0.722  29.465   9.468  1.00  0.00     0.160 HD
HETATM   16  C   UNL     1      -1.174  26.137   9.954  1.00  0.00     0.002 C 
HETATM   17  C   UNL     1      -1.735  31.614   9.049  1.00  0.00    -0.022 C 
HETATM   18  C   UNL     1       0.557  32.698   7.474  1.00  0.00     0.012 C 
HETATM   19  C   UNL     1      -2.025  28.470  11.917  1.00  0.00     0.010 C 
HETATM   20  C   UNL     1      -3.643  32.105  10.493  1.00  0.00     0.008 C 
ENDROOT
BRANCH  12  21
HETATM   21  C   UNL     1       1.920  30.691   8.285  1.00  0.00     0.000 C 
HETATM   22  C   UNL     1       2.187  29.920   6.973  1.00  0.00     0.044 C 
HETATM   23  C   UNL     1       3.222  28.945   7.478  1.00  0.00    -0.055 C 
HETATM   24  C   UNL     1       3.278  28.860   8.877  1.00  0.00    -0.055 C 
HETATM   25  C   UNL     1       4.072  27.967   6.928  1.00  0.00    -0.015 C 
HETATM   26  C   UNL     1       3.984  27.714   9.267  1.00  0.00    -0.015 C 
HETATM   27  C   UNL     1       2.516  29.985   9.507  1.00  0.00     0.044 C 
HETATM   28  C   UNL     1       4.540  27.216   8.059  1.00  0.00     0.055 C 
ENDBRANCH  12  21
TORSDOF 1
