REMARK  7 active torsions:
REMARK  status: ('A' for Active; 'I' for Inactive)
REMARK    1  A    between atoms: N_2  and  C_34 
REMARK    2  A    between atoms: O_6  and  C_12 
REMARK    3  A    between atoms: C_12  and  C_13 
REMARK    4  A    between atoms: C_12  and  C_22 
REMARK    5  A    between atoms: C_12  and  O_26 
REMARK    6  A    between atoms: C_14  and  N_24 
REMARK    7  A    between atoms: C_20  and  N_24 
ROOT
HETATM    1  C   UNL     1      16.039   8.186   2.875  1.00  0.00     0.037 C 
HETATM    2  C   UNL     1      14.017   9.346   1.309  1.00  0.00     0.016 C 
HETATM    3  C   UNL     1      15.959   6.201   1.189  1.00  0.00     0.081 C 
HETATM    4  C   UNL     1      15.313   9.279   3.349  1.00  0.00     0.032 C 
HETATM    5  C   UNL     1      14.394   9.923   2.517  1.00  0.00     0.030 C 
HETATM    6  C   UNL     1      14.476   7.377  -0.245  1.00  0.00     0.050 C 
HETATM    7  C   UNL     1      15.162   6.140  -0.061  1.00  0.00    -0.013 C 
HETATM    8  C   UNL     1      14.779   5.369  -1.134  1.00  0.00     0.032 C 
HETATM    9  C   UNL     1      14.645   8.175   0.902  1.00  0.00    -0.002 C 
HETATM   10  C   UNL     1      15.605   7.550   1.732  1.00  0.00    -0.039 C 
HETATM   11  N   UNL     1      13.905   7.420  -1.480  1.00  0.00    -0.364 N 
ATOM     12  HN  UNL     1      13.306   8.153  -1.860  1.00  0.00     0.165 HD
HETATM   13  C   UNL     1      14.308   6.267  -2.104  1.00  0.00     0.102 C 
ENDROOT
BRANCH   4  14
HETATM   14  N   UNL     1      15.507   9.638   4.682  1.00  0.00    -0.361 N 
ATOM     15  HN  UNL     1      16.467   9.813   4.978  1.00  0.00     0.165 HD
BRANCH  14  16
HETATM   16  C   UNL     1      14.516   9.780   5.645  1.00  0.00     0.017 C 
HETATM   17  C   UNL     1      13.305  10.640   5.439  1.00  0.00     0.054 C 
HETATM   18  C   UNL     1      12.897  11.335   6.727  1.00  0.00     0.006 C 
HETATM   19  C   UNL     1      12.705  10.279   7.814  1.00  0.00     0.003 C 
HETATM   20  C   UNL     1      14.083   9.710   8.121  1.00  0.00     0.039 C 
HETATM   21  C   UNL     1      14.568   8.941   6.897  1.00  0.00     0.228 C 
BRANCH  21  22
HETATM   22  N   UNL     1      15.884   8.338   7.077  1.00  0.00    -0.070 N 
ATOM     23  HN3 UNL     1      16.166   7.803   6.256  1.00  0.00     0.275 HD
ATOM     24  HN2 UNL     1      16.623   9.041   7.067  1.00  0.00     0.275 HD
ATOM     25  HN1 UNL     1      15.919   7.771   7.924  1.00  0.00     0.275 HD
ENDBRANCH  21  22
ENDBRANCH  14  16
ENDBRANCH   4  14
BRANCH   8  26
HETATM   26  C   UNL     1      14.568   3.862  -1.241  1.00  0.00     0.220 C 
BRANCH  26  27
HETATM   27  O   UNL     1      13.671   3.400  -0.305  1.00  0.00    -0.358 OA
ATOM     28  HO  UNL     1      13.901   3.641   0.585  1.00  0.00     0.213 HD
ENDBRANCH  26  27
BRANCH  26  29
HETATM   29  C   UNL     1      14.208   3.485  -2.635  1.00  0.00     0.008 C 
HETATM   30  C   UNL     1      12.946   3.773  -3.102  1.00  0.00     0.013 C 
HETATM   31  C   UNL     1      12.335   3.185  -4.188  1.00  0.00     0.001 C 
HETATM   32  C   UNL     1      12.770   2.220  -5.048  1.00  0.00     0.000 C 
HETATM   33  C   UNL     1      13.967   1.559  -5.090  1.00  0.00     0.000 C 
HETATM   34  C   UNL     1      15.061   1.876  -4.317  1.00  0.00     0.001 C 
HETATM   35  C   UNL     1      15.187   2.919  -3.421  1.00  0.00     0.013 C 
ENDBRANCH  26  29
BRANCH  26  36
HETATM   36  O   UNL     1      15.683   3.179  -0.774  1.00  0.00    -0.358 OA
ATOM     37  HO  UNL     1      16.302   3.498  -1.420  1.00  0.00     0.213 HD
ENDBRANCH  26  36
ENDBRANCH   8  26
TORSDOF 7
