REMARK  6 active torsions:
REMARK  status: ('A' for Active; 'I' for Inactive)
REMARK    1  A    between atoms: O_1  and  C_10 
REMARK    2  A    between atoms: O_3  and  C_19 
REMARK    3  A    between atoms: O_6  and  C_11 
REMARK    4  A    between atoms: O_8  and  C_16 
REMARK    5  A    between atoms: C_10  and  C_20 
REMARK    6  A    between atoms: O_12  and  C_15 
ROOT
HETATM    1  C   UNL     1      27.638  21.217 -24.306  1.00  0.00     0.317 C 
HETATM    2  C   UNL     1      26.317  20.474 -24.605  1.00  0.00     0.266 C 
HETATM    3  C   UNL     1      26.117  19.509 -23.465  1.00  0.00     0.254 C 
HETATM    4  C   UNL     1      27.560  19.072 -23.508  1.00  0.00     0.248 C 
HETATM    5  O   UNL     1      28.397  20.213 -23.618  1.00  0.00    -0.298 OA
HETATM    6  O   UNL     1      26.702  19.493 -25.642  1.00  0.00    -0.312 OA
HETATM    7  C   UNL     1      27.505  18.504 -24.921  1.00  0.00     0.326 C 
ENDROOT
BRANCH   1   8
HETATM    8  O   UNL     1      28.196  21.577 -25.571  1.00  0.00    -0.353 OA
ATOM      9  HO  UNL     1      29.008  22.034 -25.387  1.00  0.00     0.213 HD
ENDBRANCH   1   8
BRANCH   1  10
HETATM   10  C   UNL     1      27.861  22.394 -23.387  1.00  0.00     0.245 C 
HETATM   11  O   UNL     1      26.964  22.978 -22.842  1.00  0.00    -0.644 OA
HETATM   12  O   UNL     1      29.075  22.799 -23.434  1.00  0.00    -0.644 OA
ENDBRANCH   1  10
BRANCH   2  13
HETATM   13  O   UNL     1      25.232  21.279 -24.881  1.00  0.00    -0.358 OA
ATOM     14  HO  UNL     1      24.420  20.822 -25.065  1.00  0.00     0.213 HD
ENDBRANCH   2  13
BRANCH   3  15
HETATM   15  O   UNL     1      25.534  19.976 -22.307  1.00  0.00    -0.384 OA
ATOM     16  HO  UNL     1      25.408  19.368 -21.588  1.00  0.00     0.210 HD
ENDBRANCH   3  15
BRANCH   4  17
HETATM   17  O   UNL     1      27.945  18.168 -22.519  1.00  0.00    -0.359 OA
ATOM     18  HO  UNL     1      28.854  17.893 -22.546  1.00  0.00     0.213 HD
ENDBRANCH   4  17
BRANCH   7  19
HETATM   19  O   UNL     1      26.846  17.261 -24.832  1.00  0.00    -0.366 OA
ATOM     20  HO  UNL     1      26.812  16.907 -25.713  1.00  0.00     0.212 HD
ENDBRANCH   7  19
TORSDOF 6
