MODEL 1
REMARK VINA RESULT:      -9.9      0.000      0.000
REMARK  1 active torsions:
REMARK  status: ('A' for Active; 'I' for Inactive)
REMARK    1  A    between atoms: C_1  and  O_14 
ROOT
HETATM    1  C   UNL     1       6.785   1.716  35.659  1.00  0.00     0.066 C 
HETATM    2  C   UNL     1       1.135   3.901  33.837  1.00  0.00     0.018 C 
HETATM    3  C   UNL     1       1.980   2.314  35.275  1.00  0.00    -0.046 C 
HETATM    4  C   UNL     1       4.440   1.355  34.925  1.00  0.00    -0.023 C 
HETATM    5  C   UNL     1       5.739   0.380  37.471  1.00  0.00     0.004 C 
HETATM    6  C   UNL     1       5.749   1.785  34.743  1.00  0.00     0.048 C 
HETATM    7  C   UNL     1       2.417   1.955  33.971  1.00  0.00    -0.046 C 
HETATM    8  C   UNL     1       3.829   1.195  36.193  1.00  0.00    -0.025 C 
HETATM    9  C   UNL     1       0.726   3.110  35.056  1.00  0.00     0.020 C 
HETATM   10  C   UNL     1       2.559   1.790  36.419  1.00  0.00     0.020 C 
HETATM   11  C   UNL     1      -0.338   2.123  34.572  1.00  0.00     0.010 C 
HETATM   12  C   UNL     1       4.377   0.343  37.156  1.00  0.00     0.012 C 
HETATM   13  C   UNL     1       0.167   1.748  33.182  1.00  0.00     0.010 C 
HETATM   14  C   UNL     1       3.599   1.267  33.792  1.00  0.00     0.020 C 
HETATM   15  C   UNL     1       6.675   1.204  36.935  1.00  0.00     0.036 C 
HETATM   16  C   UNL     1       1.436   2.619  33.053  1.00  0.00     0.020 C 
ENDROOT
BRANCH   1  17
HETATM   17  O   UNL     1       8.026   2.058  35.201  1.00  0.00    -0.361 OA
ATOM     18  HO  UNL     1       8.186   2.985  35.064  1.00  0.00     0.217 HD
ENDBRANCH   1  17
TORSDOF 1
ENDMDL
MODEL 2
REMARK VINA RESULT:      -9.6      2.250      5.375
REMARK  1 active torsions:
REMARK  status: ('A' for Active; 'I' for Inactive)
REMARK    1  A    between atoms: C_1  and  O_14 
ROOT
HETATM    1  C   UNL     1       0.803   2.203  33.614  1.00  0.00     0.066 C 
HETATM    2  C   UNL     1       6.569  -0.069  34.880  1.00  0.00     0.018 C 
HETATM    3  C   UNL     1       4.813   0.891  36.019  1.00  0.00    -0.046 C 
HETATM    4  C   UNL     1       3.019   2.372  34.723  1.00  0.00    -0.023 C 
HETATM    5  C   UNL     1       0.299   2.412  36.035  1.00  0.00     0.004 C 
HETATM    6  C   UNL     1       2.182   2.326  33.614  1.00  0.00     0.048 C 
HETATM    7  C   UNL     1       5.249   1.847  35.060  1.00  0.00    -0.046 C 
HETATM    8  C   UNL     1       2.673   1.856  35.997  1.00  0.00    -0.025 C 
HETATM    9  C   UNL     1       6.017   0.033  36.281  1.00  0.00     0.020 C 
HETATM   10  C   UNL     1       3.584   0.984  36.650  1.00  0.00     0.020 C 
HETATM   11  C   UNL     1       7.011   0.901  37.056  1.00  0.00     0.010 C 
HETATM   12  C   UNL     1       1.538   2.309  36.675  1.00  0.00     0.012 C 
HETATM   13  C   UNL     1       7.445   1.921  36.008  1.00  0.00     0.010 C 
HETATM   14  C   UNL     1       4.363   2.764  34.533  1.00  0.00     0.020 C 
HETATM   15  C   UNL     1       0.021   2.094  34.745  1.00  0.00     0.036 C 
HETATM   16  C   UNL     1       6.663   1.456  34.759  1.00  0.00     0.020 C 
ENDROOT
BRANCH   1  17
HETATM   17  O   UNL     1       0.180   2.339  32.405  1.00  0.00    -0.361 OA
ATOM     18  HO  UNL     1      -0.495   1.701  32.203  1.00  0.00     0.217 HD
ENDBRANCH   1  17
TORSDOF 1
ENDMDL
MODEL 3
REMARK VINA RESULT:      -9.4      1.318      2.494
REMARK  1 active torsions:
REMARK  status: ('A' for Active; 'I' for Inactive)
REMARK    1  A    between atoms: C_1  and  O_14 
ROOT
HETATM    1  C   UNL     1       5.834   0.155  36.096  1.00  0.00     0.066 C 
HETATM    2  C   UNL     1       0.101   1.286  33.673  1.00  0.00     0.018 C 
HETATM    3  C   UNL     1       2.132   2.358  33.854  1.00  0.00    -0.046 C 
HETATM    4  C   UNL     1       3.871   1.633  35.735  1.00  0.00    -0.023 C 
HETATM    5  C   UNL     1       6.749   2.190  35.010  1.00  0.00     0.004 C 
HETATM    6  C   UNL     1       4.502   0.504  36.243  1.00  0.00     0.048 C 
HETATM    7  C   UNL     1       1.676   2.120  35.180  1.00  0.00    -0.046 C 
HETATM    8  C   UNL     1       4.349   2.374  34.626  1.00  0.00    -0.025 C 
HETATM    9  C   UNL     1       0.883   2.400  33.021  1.00  0.00     0.020 C 
HETATM   10  C   UNL     1       3.449   2.678  33.570  1.00  0.00     0.020 C 
HETATM   11  C   UNL     1       0.154   3.692  33.394  1.00  0.00     0.010 C 
HETATM   12  C   UNL     1       5.629   2.935  34.629  1.00  0.00     0.012 C 
HETATM   13  C   UNL     1      -0.306   3.411  34.821  1.00  0.00     0.010 C 
HETATM   14  C   UNL     1       2.578   1.950  36.210  1.00  0.00     0.020 C 
HETATM   15  C   UNL     1       6.768   0.888  35.395  1.00  0.00     0.036 C 
HETATM   16  C   UNL     1       0.192   1.966  35.043  1.00  0.00     0.020 C 
ENDROOT
BRANCH   1  17
HETATM   17  O   UNL     1       6.263  -0.924  36.817  1.00  0.00    -0.361 OA
ATOM     18  HO  UNL     1       5.859  -1.759  36.612  1.00  0.00     0.217 HD
ENDBRANCH   1  17
TORSDOF 1
ENDMDL
MODEL 4
REMARK VINA RESULT:      -9.0      2.242      5.696
REMARK  1 active torsions:
REMARK  status: ('A' for Active; 'I' for Inactive)
REMARK    1  A    between atoms: C_1  and  O_14 
ROOT
HETATM    1  C   UNL     1       1.349   2.487  35.945  1.00  0.00     0.066 C 
HETATM    2  C   UNL     1       7.585   1.709  36.672  1.00  0.00     0.018 C 
HETATM    3  C   UNL     1       6.089   2.089  34.963  1.00  0.00    -0.046 C 
HETATM    4  C   UNL     1       3.515   1.478  35.268  1.00  0.00    -0.023 C 
HETATM    5  C   UNL     1       1.659   3.152  33.574  1.00  0.00     0.004 C 
HETATM    6  C   UNL     1       2.456   1.679  36.144  1.00  0.00     0.048 C 
HETATM    7  C   UNL     1       5.725   0.848  35.555  1.00  0.00    -0.046 C 
HETATM    8  C   UNL     1       3.875   2.385  34.240  1.00  0.00    -0.025 C 
HETATM    9  C   UNL     1       7.553   2.242  35.260  1.00  0.00     0.020 C 
HETATM   10  C   UNL     1       5.231   2.793  34.135  1.00  0.00     0.020 C 
HETATM   11  C   UNL     1       8.282   1.202  34.408  1.00  0.00     0.010 C 
HETATM   12  C   UNL     1       2.960   2.755  33.251  1.00  0.00     0.012 C 
HETATM   13  C   UNL     1       7.860  -0.112  35.057  1.00  0.00     0.010 C 
HETATM   14  C   UNL     1       4.414   0.420  35.533  1.00  0.00     0.020 C 
HETATM   15  C   UNL     1       1.123   3.248  34.817  1.00  0.00     0.036 C 
HETATM   16  C   UNL     1       6.977   0.374  36.227  1.00  0.00     0.020 C 
ENDROOT
BRANCH   1  17
HETATM   17  O   UNL     1       0.359   2.405  36.883  1.00  0.00    -0.361 OA
ATOM     18  HO  UNL     1      -0.381   2.990  36.769  1.00  0.00     0.217 HD
ENDBRANCH   1  17
TORSDOF 1
ENDMDL
MODEL 5
REMARK VINA RESULT:      -8.5      1.686      3.044
REMARK  1 active torsions:
REMARK  status: ('A' for Active; 'I' for Inactive)
REMARK    1  A    between atoms: C_1  and  O_14 
ROOT
HETATM    1  C   UNL     1       8.222  -0.277  35.054  1.00  0.00     0.066 C 
HETATM    2  C   UNL     1       2.275   1.303  33.586  1.00  0.00     0.018 C 
HETATM    3  C   UNL     1       4.202   2.342  34.301  1.00  0.00    -0.046 C 
HETATM    4  C   UNL     1       6.110   0.943  35.523  1.00  0.00    -0.023 C 
HETATM    5  C   UNL     1       8.875   2.113  35.196  1.00  0.00     0.004 C 
HETATM    6  C   UNL     1       6.874  -0.207  35.363  1.00  0.00     0.048 C 
HETATM    7  C   UNL     1       3.850   1.399  35.306  1.00  0.00    -0.046 C 
HETATM    8  C   UNL     1       6.449   2.201  34.967  1.00  0.00    -0.025 C 
HETATM    9  C   UNL     1       2.908   2.673  33.614  1.00  0.00     0.020 C 
HETATM   10  C   UNL     1       5.463   2.908  34.227  1.00  0.00     0.020 C 
HETATM   11  C   UNL     1       2.083   3.490  34.610  1.00  0.00     0.010 C 
HETATM   12  C   UNL     1       7.668   2.817  35.263  1.00  0.00     0.012 C 
HETATM   13  C   UNL     1       1.736   2.458  35.678  1.00  0.00     0.010 C 
HETATM   14  C   UNL     1       4.823   0.819  36.094  1.00  0.00     0.020 C 
HETATM   15  C   UNL     1       9.039   0.813  34.841  1.00  0.00     0.036 C 
HETATM   16  C   UNL     1       2.382   1.175  35.109  1.00  0.00     0.020 C 
ENDROOT
BRANCH   1  17
HETATM   17  O   UNL     1       8.793  -1.517  35.103  1.00  0.00    -0.361 OA
ATOM     18  HO  UNL     1       8.669  -2.071  34.340  1.00  0.00     0.217 HD
ENDBRANCH   1  17
TORSDOF 1
ENDMDL
MODEL 6
REMARK VINA RESULT:      -8.4      4.693      7.795
REMARK  1 active torsions:
REMARK  status: ('A' for Active; 'I' for Inactive)
REMARK    1  A    between atoms: C_1  and  O_14 
ROOT
HETATM    1  C   UNL     1      -2.516   7.957  32.077  1.00  0.00     0.066 C 
HETATM    2  C   UNL     1       0.601   2.483  32.655  1.00  0.00     0.018 C 
HETATM    3  C   UNL     1      -0.726   3.849  33.950  1.00  0.00    -0.046 C 
HETATM    4  C   UNL     1      -1.017   6.422  33.328  1.00  0.00    -0.023 C 
HETATM    5  C   UNL     1      -3.629   7.612  34.269  1.00  0.00     0.004 C 
HETATM    6  C   UNL     1      -1.344   7.241  32.254  1.00  0.00     0.048 C 
HETATM    7  C   UNL     1       0.412   4.617  33.580  1.00  0.00    -0.046 C 
HETATM    8  C   UNL     1      -1.973   5.824  34.186  1.00  0.00    -0.025 C 
HETATM    9  C   UNL     1      -0.261   2.422  33.892  1.00  0.00     0.020 C 
HETATM   10  C   UNL     1      -1.882   4.430  34.442  1.00  0.00     0.020 C 
HETATM   11  C   UNL     1       0.705   2.231  35.063  1.00  0.00     0.010 C 
HETATM   12  C   UNL     1      -2.893   6.601  34.895  1.00  0.00     0.012 C 
HETATM   13  C   UNL     1       1.904   3.077  34.643  1.00  0.00     0.010 C 
HETATM   14  C   UNL     1       0.321   5.989  33.458  1.00  0.00     0.020 C 
HETATM   15  C   UNL     1      -3.578   7.962  32.958  1.00  0.00     0.036 C 
HETATM   16  C   UNL     1       1.462   3.599  33.258  1.00  0.00     0.020 C 
ENDROOT
BRANCH   1  17
HETATM   17  O   UNL     1      -2.549   8.818  31.016  1.00  0.00    -0.361 OA
ATOM     18  HO  UNL     1      -2.045   8.566  30.251  1.00  0.00     0.217 HD
ENDBRANCH   1  17
TORSDOF 1
ENDMDL
MODEL 7
REMARK VINA RESULT:      -8.0      2.834      5.628
REMARK  1 active torsions:
REMARK  status: ('A' for Active; 'I' for Inactive)
REMARK    1  A    between atoms: C_1  and  O_14 
ROOT
HETATM    1  C   UNL     1      -0.615   3.781  36.999  1.00  0.00     0.066 C 
HETATM    2  C   UNL     1       5.284   2.737  34.966  1.00  0.00     0.018 C 
HETATM    3  C   UNL     1       3.161   2.866  34.084  1.00  0.00    -0.046 C 
HETATM    4  C   UNL     1       1.032   2.508  35.644  1.00  0.00    -0.023 C 
HETATM    5  C   UNL     1      -1.446   3.929  34.664  1.00  0.00     0.004 C 
HETATM    6  C   UNL     1       0.486   2.955  36.841  1.00  0.00     0.048 C 
HETATM    7  C   UNL     1       3.148   1.799  35.024  1.00  0.00    -0.046 C 
HETATM    8  C   UNL     1       0.853   3.162  34.399  1.00  0.00    -0.025 C 
HETATM    9  C   UNL     1       4.593   2.975  33.646  1.00  0.00     0.020 C 
HETATM   10  C   UNL     1       1.997   3.445  33.607  1.00  0.00     0.020 C 
HETATM   11  C   UNL     1       4.885   1.736  32.797  1.00  0.00     0.010 C 
HETATM   12  C   UNL     1      -0.424   3.386  33.879  1.00  0.00     0.012 C 
HETATM   13  C   UNL     1       4.848   0.612  33.828  1.00  0.00     0.010 C 
HETATM   14  C   UNL     1       1.987   1.467  35.690  1.00  0.00     0.020 C 
HETATM   15  C   UNL     1      -1.356   4.312  35.964  1.00  0.00     0.036 C 
HETATM   16  C   UNL     1       4.583   1.385  35.139  1.00  0.00     0.020 C 
ENDROOT
BRANCH   1  17
HETATM   17  O   UNL     1      -1.063   3.959  38.277  1.00  0.00    -0.361 OA
ATOM     18  HO  UNL     1      -1.584   3.254  38.645  1.00  0.00     0.217 HD
ENDBRANCH   1  17
TORSDOF 1
ENDMDL
MODEL 8
REMARK VINA RESULT:      -7.8      2.365      5.890
REMARK  1 active torsions:
REMARK  status: ('A' for Active; 'I' for Inactive)
REMARK    1  A    between atoms: C_1  and  O_14 
ROOT
HETATM    1  C   UNL     1       2.969   2.546  34.014  1.00  0.00     0.066 C 
HETATM    2  C   UNL     1       8.941   0.486  33.677  1.00  0.00     0.018 C 
HETATM    3  C   UNL     1       7.221   0.525  35.208  1.00  0.00    -0.046 C 
HETATM    4  C   UNL     1       5.248   2.297  34.970  1.00  0.00    -0.023 C 
HETATM    5  C   UNL     1       2.638   1.382  36.181  1.00  0.00     0.004 C 
HETATM    6  C   UNL     1       4.335   2.775  34.038  1.00  0.00     0.048 C 
HETATM    7  C   UNL     1       7.525   1.879  34.902  1.00  0.00    -0.046 C 
HETATM    8  C   UNL     1       5.031   1.152  35.775  1.00  0.00    -0.025 C 
HETATM    9  C   UNL     1       8.491  -0.227  34.930  1.00  0.00     0.020 C 
HETATM   10  C   UNL     1       6.039   0.154  35.828  1.00  0.00     0.020 C 
HETATM   11  C   UNL     1       9.486   0.180  36.018  1.00  0.00     0.010 C 
HETATM   12  C   UNL     1       3.926   1.067  36.626  1.00  0.00     0.012 C 
HETATM   13  C   UNL     1       9.778   1.636  35.671  1.00  0.00     0.010 C 
HETATM   14  C   UNL     1       6.548   2.851  34.979  1.00  0.00     0.020 C 
HETATM   15  C   UNL     1       2.283   1.778  34.932  1.00  0.00     0.036 C 
HETATM   16  C   UNL     1       8.934   1.840  34.394  1.00  0.00     0.020 C 
ENDROOT
BRANCH   1  17
HETATM   17  O   UNL     1       2.250   3.248  33.089  1.00  0.00    -0.361 OA
ATOM     18  HO  UNL     1       1.737   3.978  33.417  1.00  0.00     0.217 HD
ENDBRANCH   1  17
TORSDOF 1
ENDMDL
MODEL 9
REMARK VINA RESULT:      -7.3      4.497      7.520
REMARK  1 active torsions:
REMARK  status: ('A' for Active; 'I' for Inactive)
REMARK    1  A    between atoms: C_1  and  O_14 
ROOT
HETATM    1  C   UNL     1      -2.746   7.610  34.096  1.00  0.00     0.066 C 
HETATM    2  C   UNL     1       0.579   2.480  35.721  1.00  0.00     0.018 C 
HETATM    3  C   UNL     1       0.634   4.123  34.109  1.00  0.00    -0.046 C 
HETATM    4  C   UNL     1      -1.566   5.503  33.519  1.00  0.00    -0.023 C 
HETATM    5  C   UNL     1      -1.013   8.271  32.446  1.00  0.00     0.004 C 
HETATM    6  C   UNL     1      -2.574   6.237  34.131  1.00  0.00     0.048 C 
HETATM    7  C   UNL     1      -0.604   3.441  33.954  1.00  0.00    -0.046 C 
HETATM    8  C   UNL     1      -0.310   6.043  33.144  1.00  0.00    -0.025 C 
HETATM    9  C   UNL     1       1.546   3.120  34.756  1.00  0.00     0.020 C 
HETATM   10  C   UNL     1       0.871   5.364  33.542  1.00  0.00     0.020 C 
HETATM   11  C   UNL     1       1.844   2.055  33.699  1.00  0.00     0.010 C 
HETATM   12  C   UNL     1      -0.224   7.130  32.269  1.00  0.00     0.012 C 
HETATM   13  C   UNL     1       0.497   1.356  33.546  1.00  0.00     0.010 C 
HETATM   14  C   UNL     1      -1.707   4.098  33.447  1.00  0.00     0.020 C 
HETATM   15  C   UNL     1      -1.914   8.492  33.438  1.00  0.00     0.036 C 
HETATM   16  C   UNL     1      -0.374   2.101  34.582  1.00  0.00     0.020 C 
ENDROOT
BRANCH   1  17
HETATM   17  O   UNL     1      -3.901   8.093  34.644  1.00  0.00    -0.361 OA
ATOM     18  HO  UNL     1      -4.506   7.449  34.991  1.00  0.00     0.217 HD
ENDBRANCH   1  17
TORSDOF 1
ENDMDL
