REMARK  3 active torsions:
REMARK  status: ('A' for Active; 'I' for Inactive)
REMARK    1  A    between atoms: C_1  and  C_8 
REMARK    2  A    between atoms: C_1  and  C_26 
REMARK       I    between atoms: C_6  and  N_10 
REMARK    3  A    between atoms: O_14  and  C_26 
ROOT
HETATM    1  O   UNL     1      21.213  15.078 -19.359  1.00  0.00    -0.630 OA
HETATM    2  C   UNL     1      23.248  16.994 -15.970  1.00  0.00    -0.033 C 
HETATM    3  C   UNL     1      24.431  18.403 -17.508  1.00  0.00     0.021 C 
HETATM    4  C   UNL     1      21.858  14.955 -18.292  1.00  0.00     0.286 C 
HETATM    5  C   UNL     1      29.487  16.474 -15.285  1.00  0.00     0.001 C 
HETATM    6  C   UNL     1      26.863  18.418 -16.976  1.00  0.00    -0.015 C 
HETATM    7  C   UNL     1      21.909  18.223 -17.684  1.00  0.00     0.059 C 
HETATM    8  N   UNL     1      21.650  15.827 -17.272  1.00  0.00    -0.322 N 
HETATM    9  C   UNL     1      26.152  18.565 -14.273  1.00  0.00     0.024 C 
HETATM   10  C   UNL     1      20.930  17.083 -17.524  1.00  0.00     0.134 C 
HETATM   11  C   UNL     1      30.095  17.351 -14.456  1.00  0.00     0.000 C 
HETATM   12  O   UNL     1      22.741  14.074 -18.194  1.00  0.00    -0.630 OA
HETATM   13  C   UNL     1      25.209  18.115 -15.225  1.00  0.00    -0.024 C 
HETATM   14  C   UNL     1      27.485  18.492 -14.718  1.00  0.00    -0.024 C 
HETATM   15  C   UNL     1      23.219  17.884 -17.061  1.00  0.00    -0.048 C 
HETATM   16  C   UNL     1      27.689  17.883 -15.967  1.00  0.00    -0.015 C 
HETATM   17  C   UNL     1      24.119  17.284 -14.927  1.00  0.00     0.021 C 
HETATM   18  C   UNL     1      25.497  18.345 -16.608  1.00  0.00    -0.014 C 
HETATM   19  C   UNL     1      22.398  15.773 -16.018  1.00  0.00     0.168 C 
HETATM   20  C   UNL     1      28.484  16.769 -16.185  1.00  0.00     0.013 C 
HETATM   21  C   UNL     1      28.528  19.147 -14.062  1.00  0.00     0.012 C 
HETATM   22  C   UNL     1      29.781  18.563 -13.990  1.00  0.00     0.001 C 
ENDROOT
BRANCH   6  23
HETATM   23  C   UNL     1      27.386  19.279 -17.921  1.00  0.00     0.017 C 
BRANCH  23  24
HETATM   24  C   UNL     1      27.264  19.235 -19.390  1.00  0.00     0.137 C 
HETATM   25  C   UNL     1      27.656  17.876 -19.927  1.00  0.00     0.043 C 
BRANCH  24  26
HETATM   26  O   UNL     1      28.148  20.197 -19.951  1.00  0.00    -0.392 OA
ATOM     27  HO  UNL     1      28.069  20.169 -20.897  1.00  0.00     0.210 HD
ENDBRANCH  24  26
ENDBRANCH  23  24
ENDBRANCH   6  23
TORSDOF 3
