MODEL 1
REMARK VINA RESULT:      -7.4      0.000      0.000
REMARK  2 active torsions:
REMARK  status: ('A' for Active; 'I' for Inactive)
REMARK    1  A    between atoms: O_3  and  C_14 
REMARK    2  A    between atoms: N_15  and  C_18 
ROOT
HETATM    1  N   UNL     1      -8.843  -3.643   8.522  1.00  0.00     0.117 N 
HETATM    2  O   UNL     1      -6.730  -1.740   5.509  1.00  0.00    -0.298 OA
HETATM    3  C   UNL     1      -6.695  -2.615   7.710  1.00  0.00     0.108 C 
HETATM    4  C   UNL     1      -8.878  -2.113   6.468  1.00  0.00     0.114 C 
HETATM    5  C   UNL     1     -12.059  -5.206   8.885  1.00  0.00    -0.007 C 
HETATM    6  C   UNL     1      -9.355  -3.386   7.151  1.00  0.00     0.233 C 
HETATM    7  C   UNL     1     -12.043  -6.362   7.876  1.00  0.00     0.010 C 
HETATM    8  C   UNL     1     -11.927  -5.749  10.307  1.00  0.00     0.058 C 
HETATM    9  C   UNL     1     -10.923  -4.219   8.647  1.00  0.00     0.045 C 
HETATM   10  C   UNL     1     -10.848  -3.621   7.246  1.00  0.00     0.045 C 
HETATM   11  C   UNL     1     -10.524  -6.227  10.664  1.00  0.00     0.224 C 
HETATM   12  N   UNL     1      -9.440  -5.515   9.994  1.00  0.00    -0.301 N 
HETATM   13  C   UNL     1      -7.379  -2.057   6.504  1.00  0.00     0.130 C 
HETATM   14  C   UNL     1      -7.365  -3.804   8.401  1.00  0.00     0.283 C 
HETATM   15  C   UNL     1      -9.570  -4.971   8.639  1.00  0.00     0.333 C 
ENDROOT
BRANCH  11  16
HETATM   16  O   UNL     1     -10.315  -6.063  12.059  1.00  0.00    -0.377 OA
ATOM     17  HO  UNL     1     -10.693  -5.237  12.338  1.00  0.00     0.212 HD
ENDBRANCH  11  16
BRANCH  12  18
HETATM   18  C   UNL     1      -8.259  -6.024  10.177  1.00  0.00     0.354 C 
HETATM   19  O   UNL     1      -7.401  -6.526  10.650  1.00  0.00    -0.283 OA
ENDBRANCH  12  18
TORSDOF 2
ENDMDL
MODEL 2
REMARK VINA RESULT:      -7.2      2.133      4.837
REMARK  2 active torsions:
REMARK  status: ('A' for Active; 'I' for Inactive)
REMARK    1  A    between atoms: O_3  and  C_14 
REMARK    2  A    between atoms: N_15  and  C_18 
ROOT
HETATM    1  N   UNL     1     -10.002  -5.850   9.833  1.00  0.00     0.117 N 
HETATM    2  O   UNL     1      -7.470  -7.017  12.897  1.00  0.00    -0.298 OA
HETATM    3  C   UNL     1      -7.728  -6.630  10.574  1.00  0.00     0.108 C 
HETATM    4  C   UNL     1      -9.728  -6.907  12.150  1.00  0.00     0.114 C 
HETATM    5  C   UNL     1     -13.310  -4.476   9.546  1.00  0.00    -0.007 C 
HETATM    6  C   UNL     1     -10.341  -5.821  11.280  1.00  0.00     0.233 C 
HETATM    7  C   UNL     1     -13.236  -3.132  10.282  1.00  0.00     0.010 C 
HETATM    8  C   UNL     1     -13.368  -4.246   8.036  1.00  0.00     0.058 C 
HETATM    9  C   UNL     1     -12.109  -5.363   9.845  1.00  0.00     0.045 C 
HETATM   10  C   UNL     1     -11.845  -5.646  11.320  1.00  0.00     0.045 C 
HETATM   11  C   UNL     1     -12.040  -3.822   7.419  1.00  0.00     0.224 C 
HETATM   12  N   UNL     1     -10.853  -4.349   8.086  1.00  0.00    -0.301 N 
HETATM   13  C   UNL     1      -8.242  -6.934  11.944  1.00  0.00     0.130 C 
HETATM   14  C   UNL     1      -8.530  -5.632   9.737  1.00  0.00     0.283 C 
HETATM   15  C   UNL     1     -10.802  -4.595   9.531  1.00  0.00     0.333 C 
ENDROOT
BRANCH  11  16
HETATM   16  O   UNL     1     -11.984  -4.275   6.075  1.00  0.00    -0.377 OA
ATOM     17  HO  UNL     1     -12.857  -4.258   5.701  1.00  0.00     0.212 HD
ENDBRANCH  11  16
BRANCH  12  18
HETATM   18  C   UNL     1      -9.727  -3.863   7.659  1.00  0.00     0.354 C 
HETATM   19  O   UNL     1      -8.997  -3.265   7.092  1.00  0.00    -0.283 OA
ENDBRANCH  12  18
TORSDOF 2
ENDMDL
MODEL 3
REMARK VINA RESULT:      -7.0      2.371      3.437
REMARK  2 active torsions:
REMARK  status: ('A' for Active; 'I' for Inactive)
REMARK    1  A    between atoms: O_3  and  C_14 
REMARK    2  A    between atoms: N_15  and  C_18 
ROOT
HETATM    1  N   UNL     1     -10.053  -4.272   7.170  1.00  0.00     0.117 N 
HETATM    2  O   UNL     1      -8.109  -0.771   6.107  1.00  0.00    -0.298 OA
HETATM    3  C   UNL     1      -9.820  -2.327   5.592  1.00  0.00     0.108 C 
HETATM    4  C   UNL     1      -7.905  -2.876   7.202  1.00  0.00     0.114 C 
HETATM    5  C   UNL     1     -10.024  -6.545   9.954  1.00  0.00    -0.007 C 
HETATM    6  C   UNL     1      -8.995  -3.605   7.973  1.00  0.00     0.233 C 
HETATM    7  C   UNL     1     -10.454  -5.692  11.154  1.00  0.00     0.010 C 
HETATM    8  C   UNL     1     -11.159  -7.480   9.540  1.00  0.00     0.058 C 
HETATM    9  C   UNL     1      -9.647  -5.694   8.748  1.00  0.00     0.045 C 
HETATM   10  C   UNL     1      -8.570  -4.643   8.990  1.00  0.00     0.045 C 
HETATM   11  C   UNL     1     -12.305  -6.786   8.814  1.00  0.00     0.224 C 
HETATM   12  N   UNL     1     -11.918  -5.623   8.019  1.00  0.00    -0.301 N 
HETATM   13  C   UNL     1      -8.532  -1.919   6.232  1.00  0.00     0.130 C 
HETATM   14  C   UNL     1     -10.765  -3.194   6.426  1.00  0.00     0.283 C 
HETATM   15  C   UNL     1     -10.813  -4.738   8.399  1.00  0.00     0.333 C 
ENDROOT
BRANCH  11  16
HETATM   16  O   UNL     1     -12.917  -7.703   7.919  1.00  0.00    -0.377 OA
ATOM     17  HO  UNL     1     -12.261  -8.040   7.319  1.00  0.00     0.212 HD
ENDBRANCH  11  16
BRANCH  12  18
HETATM   18  C   UNL     1     -12.911  -4.942   7.531  1.00  0.00     0.354 C 
HETATM   19  O   UNL     1     -13.903  -4.688   7.126  1.00  0.00    -0.283 OA
ENDBRANCH  12  18
TORSDOF 2
ENDMDL
MODEL 4
REMARK VINA RESULT:      -6.8      2.485      3.872
REMARK  2 active torsions:
REMARK  status: ('A' for Active; 'I' for Inactive)
REMARK    1  A    between atoms: O_3  and  C_14 
REMARK    2  A    between atoms: N_15  and  C_18 
ROOT
HETATM    1  N   UNL     1     -10.491  -5.673   8.073  1.00  0.00     0.117 N 
HETATM    2  O   UNL     1     -10.028  -1.837   6.577  1.00  0.00    -0.298 OA
HETATM    3  C   UNL     1     -11.102  -3.938   6.358  1.00  0.00     0.108 C 
HETATM    4  C   UNL     1      -8.993  -3.616   7.774  1.00  0.00     0.114 C 
HETATM    5  C   UNL     1      -9.420  -7.500  10.977  1.00  0.00    -0.007 C 
HETATM    6  C   UNL     1      -9.682  -4.600   8.709  1.00  0.00     0.233 C 
HETATM    7  C   UNL     1     -10.028  -6.737  12.161  1.00  0.00     0.010 C 
HETATM    8  C   UNL     1     -10.173  -8.811  10.754  1.00  0.00     0.058 C 
HETATM    9  C   UNL     1      -9.474  -6.697   9.684  1.00  0.00     0.045 C 
HETATM   10  C   UNL     1      -8.830  -5.315   9.736  1.00  0.00     0.045 C 
HETATM   11  C   UNL     1     -11.548  -8.639  10.118  1.00  0.00     0.224 C 
HETATM   12  N   UNL     1     -11.670  -7.500   9.211  1.00  0.00    -0.301 N 
HETATM   13  C   UNL     1      -9.999  -3.042   6.821  1.00  0.00     0.130 C 
HETATM   14  C   UNL     1     -11.601  -4.994   7.346  1.00  0.00     0.283 C 
HETATM   15  C   UNL     1     -10.930  -6.250   9.407  1.00  0.00     0.333 C 
ENDROOT
BRANCH  11  16
HETATM   16  O   UNL     1     -11.860  -9.797   9.358  1.00  0.00    -0.377 OA
ATOM     17  HO  UNL     1     -12.277  -9.535   8.545  1.00  0.00     0.212 HD
ENDBRANCH  11  16
BRANCH  12  18
HETATM   18  C   UNL     1     -12.878  -7.263   8.794  1.00  0.00     0.354 C 
HETATM   19  O   UNL     1     -13.952  -7.385   8.584  1.00  0.00    -0.283 OA
ENDBRANCH  12  18
TORSDOF 2
ENDMDL
MODEL 5
REMARK VINA RESULT:      -6.5      2.798      4.201
REMARK  2 active torsions:
REMARK  status: ('A' for Active; 'I' for Inactive)
REMARK    1  A    between atoms: O_3  and  C_14 
REMARK    2  A    between atoms: N_15  and  C_18 
ROOT
HETATM    1  N   UNL     1     -11.382  -5.637   8.819  1.00  0.00     0.117 N 
HETATM    2  O   UNL     1      -7.321  -4.929   9.234  1.00  0.00    -0.298 OA
HETATM    3  C   UNL     1      -9.289  -5.827  10.201  1.00  0.00     0.108 C 
HETATM    4  C   UNL     1      -9.352  -4.190   8.232  1.00  0.00     0.114 C 
HETATM    5  C   UNL     1     -13.846  -5.322   6.221  1.00  0.00    -0.007 C 
HETATM    6  C   UNL     1     -10.502  -5.069   7.764  1.00  0.00     0.233 C 
HETATM    7  C   UNL     1     -13.354  -6.254   5.106  1.00  0.00     0.010 C 
HETATM    8  C   UNL     1     -15.052  -5.939   6.928  1.00  0.00     0.058 C 
HETATM    9  C   UNL     1     -12.770  -5.055   7.265  1.00  0.00     0.045 C 
HETATM   10  C   UNL     1     -11.453  -4.500   6.733  1.00  0.00     0.045 C 
HETATM   11  C   UNL     1     -14.705  -7.097   7.857  1.00  0.00     0.224 C 
HETATM   12  N   UNL     1     -13.388  -7.012   8.483  1.00  0.00    -0.301 N 
HETATM   13  C   UNL     1      -8.551  -4.923   9.268  1.00  0.00     0.130 C 
HETATM   14  C   UNL     1     -10.528  -6.534   9.648  1.00  0.00     0.283 C 
HETATM   15  C   UNL     1     -12.234  -6.398   7.818  1.00  0.00     0.333 C 
ENDROOT
BRANCH  11  16
HETATM   16  O   UNL     1     -15.653  -7.150   8.913  1.00  0.00    -0.377 OA
ATOM     17  HO  UNL     1     -16.458  -7.539   8.592  1.00  0.00     0.212 HD
ENDBRANCH  11  16
BRANCH  12  18
HETATM   18  C   UNL     1     -13.031  -8.070   9.147  1.00  0.00     0.354 C 
HETATM   19  O   UNL     1     -13.082  -8.988   9.753  1.00  0.00    -0.283 OA
ENDBRANCH  12  18
TORSDOF 2
ENDMDL
MODEL 6
REMARK VINA RESULT:      -6.4      2.453      5.225
REMARK  2 active torsions:
REMARK  status: ('A' for Active; 'I' for Inactive)
REMARK    1  A    between atoms: O_3  and  C_14 
REMARK    2  A    between atoms: N_15  and  C_18 
ROOT
HETATM    1  N   UNL     1     -11.665  -4.204  10.112  1.00  0.00     0.117 N 
HETATM    2  O   UNL     1     -15.787  -3.799  10.049  1.00  0.00    -0.298 OA
HETATM    3  C   UNL     1     -13.693  -2.883   9.428  1.00  0.00     0.108 C 
HETATM    4  C   UNL     1     -13.919  -4.693  11.225  1.00  0.00     0.114 C 
HETATM    5  C   UNL     1      -9.293  -6.719  11.097  1.00  0.00    -0.007 C 
HETATM    6  C   UNL     1     -12.631  -5.218  10.611  1.00  0.00     0.233 C 
HETATM    7  C   UNL     1      -9.610  -7.922  10.200  1.00  0.00     0.010 C 
HETATM    8  C   UNL     1      -7.997  -6.050  10.640  1.00  0.00     0.058 C 
HETATM    9  C   UNL     1     -10.401  -5.674  11.071  1.00  0.00     0.045 C 
HETATM   10  C   UNL     1     -11.794  -6.177  11.432  1.00  0.00     0.045 C 
HETATM   11  C   UNL     1      -8.134  -5.236   9.358  1.00  0.00     0.224 C 
HETATM   12  N   UNL     1      -9.446  -4.628   9.150  1.00  0.00    -0.301 N 
HETATM   13  C   UNL     1     -14.579  -3.743  10.269  1.00  0.00     0.130 C 
HETATM   14  C   UNL     1     -12.347  -3.476   9.005  1.00  0.00     0.283 C 
HETATM   15  C   UNL     1     -10.689  -5.255   9.609  1.00  0.00     0.333 C 
ENDROOT
BRANCH  11  16
HETATM   16  O   UNL     1      -7.194  -4.173   9.376  1.00  0.00    -0.377 OA
ATOM     17  HO  UNL     1      -6.413  -4.453   9.839  1.00  0.00     0.212 HD
ENDBRANCH  11  16
BRANCH  12  18
HETATM   18  C   UNL     1      -9.610  -4.070   7.989  1.00  0.00     0.354 C 
HETATM   19  O   UNL     1      -9.455  -3.425   7.110  1.00  0.00    -0.283 OA
ENDBRANCH  12  18
TORSDOF 2
ENDMDL
MODEL 7
REMARK VINA RESULT:      -6.4      3.818      5.653
REMARK  2 active torsions:
REMARK  status: ('A' for Active; 'I' for Inactive)
REMARK    1  A    between atoms: O_3  and  C_14 
REMARK    2  A    between atoms: N_15  and  C_18 
ROOT
HETATM    1  N   UNL     1     -13.048  -7.006   7.307  1.00  0.00     0.117 N 
HETATM    2  O   UNL     1     -15.136  -7.174   3.733  1.00  0.00    -0.298 OA
HETATM    3  C   UNL     1     -14.595  -8.258   5.768  1.00  0.00     0.108 C 
HETATM    4  C   UNL     1     -13.225  -6.297   4.852  1.00  0.00     0.114 C 
HETATM    5  C   UNL     1     -11.120  -4.562   9.104  1.00  0.00    -0.007 C 
HETATM    6  C   UNL     1     -13.138  -5.900   6.318  1.00  0.00     0.233 C 
HETATM    7  C   UNL     1     -12.104  -3.419   9.381  1.00  0.00     0.010 C 
HETATM    8  C   UNL     1     -10.844  -5.341  10.390  1.00  0.00     0.058 C 
HETATM    9  C   UNL     1     -11.649  -5.540   8.063  1.00  0.00     0.045 C 
HETATM   10  C   UNL     1     -12.051  -4.928   6.725  1.00  0.00     0.045 C 
HETATM   11  C   UNL     1     -11.989  -6.246  10.828  1.00  0.00     0.224 C 
HETATM   12  N   UNL     1     -12.796  -6.791   9.740  1.00  0.00    -0.301 N 
HETATM   13  C   UNL     1     -14.341  -7.282   4.665  1.00  0.00     0.130 C 
HETATM   14  C   UNL     1     -14.317  -7.780   7.195  1.00  0.00     0.283 C 
HETATM   15  C   UNL     1     -13.043  -6.058   8.494  1.00  0.00     0.333 C 
ENDROOT
BRANCH  11  16
HETATM   16  O   UNL     1     -11.462  -7.357  11.537  1.00  0.00    -0.377 OA
ATOM     17  HO  UNL     1     -11.111  -7.061  12.369  1.00  0.00     0.212 HD
ENDBRANCH  11  16
BRANCH  12  18
HETATM   18  C   UNL     1     -13.862  -7.431  10.119  1.00  0.00     0.354 C 
HETATM   19  O   UNL     1     -14.570  -8.004  10.738  1.00  0.00    -0.283 OA
ENDBRANCH  12  18
TORSDOF 2
ENDMDL
MODEL 8
REMARK VINA RESULT:      -6.3      4.025      5.127
REMARK  2 active torsions:
REMARK  status: ('A' for Active; 'I' for Inactive)
REMARK    1  A    between atoms: O_3  and  C_14 
REMARK    2  A    between atoms: N_15  and  C_18 
ROOT
HETATM    1  N   UNL     1     -12.155  -7.143   7.721  1.00  0.00     0.117 N 
HETATM    2  O   UNL     1     -14.341  -6.857   4.213  1.00  0.00    -0.298 OA
HETATM    3  C   UNL     1     -13.028  -8.231   5.628  1.00  0.00     0.108 C 
HETATM    4  C   UNL     1     -13.026  -5.676   5.810  1.00  0.00     0.114 C 
HETATM    5  C   UNL     1     -11.542  -5.084  10.603  1.00  0.00    -0.007 C 
HETATM    6  C   UNL     1     -12.948  -5.957   7.303  1.00  0.00     0.233 C 
HETATM    7  C   UNL     1     -12.926  -4.878  11.232  1.00  0.00     0.010 C 
HETATM    8  C   UNL     1     -10.720  -6.055  11.449  1.00  0.00     0.058 C 
HETATM    9  C   UNL     1     -11.630  -5.644   9.189  1.00  0.00     0.045 C 
HETATM   10  C   UNL     1     -12.479  -4.839   8.210  1.00  0.00     0.045 C 
HETATM   11  C   UNL     1     -11.150  -7.512  11.320  1.00  0.00     0.224 C 
HETATM   12  N   UNL     1     -11.703  -7.880  10.019  1.00  0.00    -0.301 N 
HETATM   13  C   UNL     1     -13.481  -6.912   5.091  1.00  0.00     0.130 C 
HETATM   14  C   UNL     1     -12.837  -8.336   7.142  1.00  0.00     0.283 C 
HETATM   15  C   UNL     1     -12.472  -6.943   9.193  1.00  0.00     0.333 C 
ENDROOT
BRANCH  11  16
HETATM   16  O   UNL     1     -10.027  -8.353  11.534  1.00  0.00    -0.377 OA
ATOM     17  HO  UNL     1     -10.305  -9.261  11.507  1.00  0.00     0.212 HD
ENDBRANCH  11  16
BRANCH  12  18
HETATM   18  C   UNL     1     -12.213  -9.074   9.961  1.00  0.00     0.354 C 
HETATM   19  O   UNL     1     -12.385 -10.144  10.150  1.00  0.00    -0.283 OA
ENDBRANCH  12  18
TORSDOF 2
ENDMDL
MODEL 9
REMARK VINA RESULT:      -6.3      2.955      6.440
REMARK  2 active torsions:
REMARK  status: ('A' for Active; 'I' for Inactive)
REMARK    1  A    between atoms: O_3  and  C_14 
REMARK    2  A    between atoms: N_15  and  C_18 
ROOT
HETATM    1  N   UNL     1     -11.909  -8.276  10.530  1.00  0.00     0.117 N 
HETATM    2  O   UNL     1     -15.147 -10.413  11.984  1.00  0.00    -0.298 OA
HETATM    3  C   UNL     1     -12.790 -10.188  11.908  1.00  0.00     0.108 C 
HETATM    4  C   UNL     1     -14.333  -9.042  10.215  1.00  0.00     0.114 C 
HETATM    5  C   UNL     1     -11.389  -5.224   8.705  1.00  0.00    -0.007 C 
HETATM    6  C   UNL     1     -13.335  -7.901  10.341  1.00  0.00     0.233 C 
HETATM    7  C   UNL     1     -11.977  -4.130   9.605  1.00  0.00     0.010 C 
HETATM    8  C   UNL     1      -9.863  -5.161   8.731  1.00  0.00     0.058 C 
HETATM    9  C   UNL     1     -11.813  -6.620   9.143  1.00  0.00     0.045 C 
HETATM   10  C   UNL     1     -13.316  -6.853   9.248  1.00  0.00     0.045 C 
HETATM   11  C   UNL     1      -9.238  -5.688  10.018  1.00  0.00     0.224 C 
HETATM   12  N   UNL     1      -9.990  -6.753  10.677  1.00  0.00    -0.301 N 
HETATM   13  C   UNL     1     -14.171  -9.979  11.375  1.00  0.00     0.130 C 
HETATM   14  C   UNL     1     -11.830  -8.999  11.832  1.00  0.00     0.283 C 
HETATM   15  C   UNL     1     -11.453  -6.831  10.634  1.00  0.00     0.333 C 
ENDROOT
BRANCH  11  16
HETATM   16  O   UNL     1      -7.952  -6.217   9.731  1.00  0.00    -0.377 OA
ATOM     17  HO  UNL     1      -7.490  -6.376  10.546  1.00  0.00     0.212 HD
ENDBRANCH  11  16
BRANCH  12  18
HETATM   18  C   UNL     1      -9.542  -7.090  11.849  1.00  0.00     0.354 C 
HETATM   19  O   UNL     1      -8.892  -7.171  12.734  1.00  0.00    -0.283 OA
ENDBRANCH  12  18
TORSDOF 2
ENDMDL
