REMARK  3 active torsions:
REMARK  status: ('A' for Active; 'I' for Inactive)
REMARK    1  A    between atoms: C_1  and  O_10 
REMARK    2  A    between atoms: O_6  and  C_16 
REMARK    3  A    between atoms: C_16  and  O_18 
ROOT
HETATM    1  C   UNL     1      -7.461  -2.012   6.085  1.00  0.00     0.080 C 
HETATM    2  C   UNL     1      -8.448  -2.341   6.910  1.00  0.00     0.072 C 
HETATM    3  C   UNL     1      -6.135  -1.987   6.407  1.00  0.00     0.037 C 
HETATM    4  C   UNL     1     -10.751  -6.120   8.245  1.00  0.00     0.002 C 
HETATM    5  C   UNL     1      -7.424  -3.550   8.678  1.00  0.00     0.014 C 
HETATM    6  C   UNL     1      -6.131  -3.155   8.568  1.00  0.00     0.001 C 
HETATM    7  C   UNL     1     -12.261  -4.915   6.837  1.00  0.00     0.017 C 
HETATM    8  C   UNL     1      -5.618  -2.379   7.593  1.00  0.00     0.003 C 
HETATM    9  C   UNL     1      -9.795  -5.181   8.482  1.00  0.00     0.031 C 
HETATM   10  C   UNL     1     -11.902  -6.010   7.547  1.00  0.00     0.001 C 
HETATM   11  C   UNL     1      -8.334  -3.428   7.711  1.00  0.00     0.007 C 
HETATM   12  C   UNL     1      -9.794  -2.221   6.734  1.00  0.00     0.285 C 
HETATM   13  C   UNL     1     -11.539  -3.828   6.567  1.00  0.00     0.097 C 
HETATM   14  N   UNL     1     -10.388  -3.391   7.030  1.00  0.00    -0.297 N 
HETATM   15  C   UNL     1      -9.513  -4.096   7.756  1.00  0.00     0.050 C 
ENDROOT
BRANCH  12  16
HETATM   16  O   UNL     1     -10.195  -1.616   5.596  1.00  0.00    -0.344 OA
ATOM     17  HO  UNL     1     -11.133  -1.532   5.473  1.00  0.00     0.215 HD
ENDBRANCH  12  16
BRANCH  12  18
HETATM   18  O   UNL     1     -10.250  -1.306   7.633  1.00  0.00    -0.344 OA
ATOM     19  HO  UNL     1     -11.188  -1.222   7.510  1.00  0.00     0.215 HD
ENDBRANCH  12  18
BRANCH   1  20
HETATM   20  O   UNL     1      -7.709  -2.003   4.761  1.00  0.00    -0.360 OA
ATOM     21  HO  UNL     1      -7.003  -1.768   4.171  1.00  0.00     0.217 HD
ENDBRANCH   1  20
TORSDOF 3
