REMARK  4 active torsions:
REMARK  status: ('A' for Active; 'I' for Inactive)
REMARK    1  A    between atoms: C_2  and  O_22 
REMARK    2  A    between atoms: O_4  and  C_35 
REMARK    3  A    between atoms: C_12  and  C_27 
REMARK    4  A    between atoms: C_27  and  C_32 
ROOT
HETATM    1  C   UNL     1      14.207  22.280 -15.226  1.00  0.00     0.062 C 
HETATM    2  C   UNL     1      13.578  24.377 -15.233  1.00  0.00     0.018 C 
HETATM    3  C   UNL     1      15.545  23.021 -15.013  1.00  0.00     0.073 C 
HETATM    4  C   UNL     1      15.074  24.450 -15.099  1.00  0.00    -0.061 C 
HETATM    5  C   UNL     1      13.214  23.131 -14.443  1.00  0.00     0.047 C 
HETATM    6  C   UNL     1      13.338  23.957 -16.691  1.00  0.00     0.012 C 
HETATM    7  C   UNL     1      15.792  25.616 -14.938  1.00  0.00    -0.010 C 
HETATM    8  C   UNL     1      13.773  22.493 -16.687  1.00  0.00     0.039 C 
ENDROOT
BRANCH   7   9
HETATM    9  C   UNL     1      15.358  26.539 -14.048  1.00  0.00     0.003 C 
HETATM   10  C   UNL     1      15.005  26.374 -12.747  1.00  0.00     0.015 C 
HETATM   11  C   UNL     1      15.236  27.575 -12.130  1.00  0.00     0.015 C 
HETATM   12  C   UNL     1      15.680  28.404 -13.080  1.00  0.00     0.003 C 
HETATM   13  C   UNL     1      16.407  29.543 -13.144  1.00  0.00    -0.012 C 
HETATM   14  C   UNL     1      15.416  27.861 -14.278  1.00  0.00     0.054 C 
HETATM   15  C   UNL     1      17.549  29.688 -12.396  1.00  0.00     0.013 C 
HETATM   16  C   UNL     1      16.018  30.459 -14.106  1.00  0.00    -0.007 C 
HETATM   17  C   UNL     1      18.176  30.890 -12.155  1.00  0.00     0.004 C 
HETATM   18  C   UNL     1      17.664  32.123 -12.315  1.00  0.00     0.036 C 
HETATM   19  C   UNL     1      16.559  32.589 -12.995  1.00  0.00     0.066 C 
HETATM   20  C   UNL     1      15.810  31.808 -13.860  1.00  0.00     0.050 C 
HETATM   21  C   UNL     1      15.657  29.913 -15.341  1.00  0.00     0.100 C 
HETATM   22  N   UNL     1      15.282  28.608 -15.352  1.00  0.00    -0.364 N 
ATOM     23  HN  UNL     1      14.892  28.203 -16.203  1.00  0.00     0.165 HD
BRANCH  19  24
HETATM   24  O   UNL     1      16.270  33.928 -12.886  1.00  0.00    -0.361 OA
ATOM     25  HO  UNL     1      16.784  34.464 -12.293  1.00  0.00     0.217 HD
ENDBRANCH  19  24
ENDBRANCH   7   9
BRANCH   7  26
HETATM   26  C   UNL     1      16.915  25.880 -15.676  1.00  0.00    -0.018 A 
HETATM   27  C   UNL     1      18.187  25.927 -15.143  1.00  0.00     0.013 A 
HETATM   28  C   UNL     1      19.032  26.337 -16.179  1.00  0.00     0.008 A 
HETATM   29  C   UNL     1      18.261  26.497 -17.299  1.00  0.00    -0.051 A 
HETATM   30  C   UNL     1      18.425  26.787 -18.751  1.00  0.00     0.039 A 
HETATM   31  C   UNL     1      16.980  26.217 -16.991  1.00  0.00    -0.041 A 
HETATM   32  C   UNL     1      17.036  26.647 -19.354  1.00  0.00     0.009 A 
HETATM   33  C   UNL     1      16.099  26.371 -18.177  1.00  0.00     0.040 A 
ENDBRANCH   7  26
BRANCH   1  34
HETATM   34  O   UNL     1      14.244  20.894 -14.933  1.00  0.00    -0.390 OA
ATOM     35  HO  UNL     1      13.421  20.438 -15.064  1.00  0.00     0.210 HD
ENDBRANCH   1  34
TORSDOF 4
