REMARK  2 active torsions:
REMARK  status: ('A' for Active; 'I' for Inactive)
REMARK    1  A    between atoms: C_4  and  O_14 
REMARK    2  A    between atoms: C_15  and  O_16 
ROOT
HETATM    1  C   UNL     1     -52.492 118.252   8.467  1.00  0.00     0.044 C 
HETATM    2  C   UNL     1     -53.357 118.718   6.268  1.00  0.00     0.008 C 
HETATM    3  C   UNL     1     -50.200 118.548   7.960  1.00  0.00    -0.014 C 
HETATM    4  C   UNL     1     -51.607 119.713   4.754  1.00  0.00     0.121 C 
HETATM    5  C   UNL     1     -51.163 118.742   8.924  1.00  0.00    -0.048 C 
HETATM    6  C   UNL     1     -52.292 117.907   6.978  1.00  0.00    -0.002 C 
HETATM    7  C   UNL     1     -50.821 118.157   6.647  1.00  0.00     0.029 C 
HETATM    8  C   UNL     1     -50.497 119.186   5.585  1.00  0.00     0.042 C 
HETATM    9  C   UNL     1     -53.005 119.173   4.871  1.00  0.00     0.032 C 
HETATM   10  C   UNL     1     -48.506 119.115   9.524  1.00  0.00     0.037 C 
HETATM   11  C   UNL     1     -49.488 119.636  10.365  1.00  0.00     0.003 C 
HETATM   12  C   UNL     1     -50.833 119.450  10.065  1.00  0.00     0.008 C 
HETATM   13  C   UNL     1     -48.871 118.453   8.356  1.00  0.00     0.072 C 
ENDROOT
BRANCH   4  14
HETATM   14  O   UNL     1     -51.365 120.492   3.618  1.00  0.00    -0.391 OA
HETATM   15  C   UNL     1     -52.223 121.641   3.593  1.00  0.00     0.202 C 
ENDBRANCH   4  14
BRANCH  13  16
HETATM   16  O   UNL     1     -48.071 117.517   7.786  1.00  0.00    -0.360 OA
ATOM     17  HO  UNL     1     -47.163 117.452   8.057  1.00  0.00     0.217 HD
ENDBRANCH  13  16
TORSDOF 2
