MODEL 1
REMARK VINA RESULT:      -7.2      0.000      0.000
REMARK  2 active torsions:
REMARK  status: ('A' for Active; 'I' for Inactive)
REMARK    1  A    between atoms: N_5  and  C_9 
REMARK       I    between atoms: N_5  and  C_16 
REMARK    2  A    between atoms: C_11  and  C_14 
REMARK       I    between atoms: N_12  and  C_16 
ROOT
HETATM    1  C   UNL     1      15.413 -35.118   8.964  1.00  0.00     0.065 C 
HETATM    2  C   UNL     1      13.105 -36.027   8.944  1.00  0.00     0.177 C 
HETATM    3  O   UNL     1      12.144 -35.589   8.316  1.00  0.00    -0.291 OA
HETATM    4  C   UNL     1      12.981 -36.299  10.414  1.00  0.00     0.098 C 
HETATM    5  C   UNL     1      13.776 -35.583  11.294  1.00  0.00     0.121 C 
HETATM    6  C   UNL     1      15.918 -35.556  10.229  1.00  0.00     0.019 C 
HETATM    7  C   UNL     1      14.466 -36.063   8.263  1.00  0.00     0.091 C 
HETATM    8  N   UNL     1      15.133 -35.648  11.335  1.00  0.00    -0.366 N 
ATOM      9  HN  UNL     1      15.585 -35.773  12.241  1.00  0.00     0.165 HD
ENDROOT
BRANCH   4  10
HETATM   10  N   UNL     1      12.058 -37.211  10.910  1.00  0.00    -0.304 N 
HETATM   11  C   UNL     1      10.753 -36.914  11.243  1.00  0.00     0.320 C 
HETATM   12  O   UNL     1      10.369 -35.781  11.465  1.00  0.00    -0.247 OA
HETATM   13  N   UNL     1       9.957 -37.964  11.436  1.00  0.00    -0.347 N 
HETATM   14  C   UNL     1       9.991 -39.047  12.391  1.00  0.00     0.151 C 
ATOM     15  HN  UNL     1       9.174 -38.013  10.785  1.00  0.00     0.163 HD
ATOM     16  HN  UNL     1      12.369 -38.174  11.036  1.00  0.00     0.171 HD
ENDBRANCH   4  10
BRANCH   6  17
HETATM   17  C   UNL     1      17.291 -35.963  10.216  1.00  0.00    -0.013 C 
HETATM   18  C   UNL     1      17.928 -35.998   8.965  1.00  0.00     0.015 C 
HETATM   19  C   UNL     1      19.217 -36.511   8.860  1.00  0.00     0.027 C 
HETATM   20  C   UNL     1      19.814 -37.074   9.989  1.00  0.00     0.046 C 
HETATM   21  C   UNL     1      19.336 -36.709  11.252  1.00  0.00     0.027 C 
HETATM   22  N   UNL     1      20.676 -38.170   9.826  1.00  0.00    -0.102 NA
HETATM   23  C   UNL     1      18.041 -36.189  11.366  1.00  0.00     0.015 C 
ENDBRANCH   6  17
TORSDOF 2
ENDMDL
MODEL 2
REMARK VINA RESULT:      -6.8      2.739      3.276
REMARK  2 active torsions:
REMARK  status: ('A' for Active; 'I' for Inactive)
REMARK    1  A    between atoms: N_5  and  C_9 
REMARK       I    between atoms: N_5  and  C_16 
REMARK    2  A    between atoms: C_11  and  C_14 
REMARK       I    between atoms: N_12  and  C_16 
ROOT
HETATM    1  C   UNL     1      13.924 -35.284   9.584  1.00  0.00     0.065 C 
HETATM    2  C   UNL     1      12.761 -36.975  10.979  1.00  0.00     0.177 C 
HETATM    3  O   UNL     1      11.551 -37.069  11.169  1.00  0.00    -0.291 OA
HETATM    4  C   UNL     1      13.706 -36.961  12.145  1.00  0.00     0.098 C 
HETATM    5  C   UNL     1      14.480 -35.833  12.362  1.00  0.00     0.121 C 
HETATM    6  C   UNL     1      15.228 -35.228  10.171  1.00  0.00     0.019 C 
HETATM    7  C   UNL     1      13.255 -36.640   9.579  1.00  0.00     0.091 C 
HETATM    8  N   UNL     1      15.432 -35.375  11.506  1.00  0.00    -0.366 N 
ATOM      9  HN  UNL     1      16.347 -35.130  11.886  1.00  0.00     0.165 HD
ENDROOT
BRANCH   4  10
HETATM   10  N   UNL     1      13.783 -38.027  13.031  1.00  0.00    -0.304 N 
HETATM   11  C   UNL     1      12.900 -38.262  14.065  1.00  0.00     0.320 C 
HETATM   12  O   UNL     1      12.176 -37.399  14.523  1.00  0.00    -0.247 OA
HETATM   13  N   UNL     1      12.980 -39.468  14.624  1.00  0.00    -0.347 N 
HETATM   14  C   UNL     1      14.042 -40.143  15.331  1.00  0.00     0.151 C 
ATOM     15  HN  UNL     1      12.128 -40.021  14.535  1.00  0.00     0.163 HD
ATOM     16  HN  UNL     1      14.551 -38.687  12.908  1.00  0.00     0.171 HD
ENDBRANCH   4  10
BRANCH   6  17
HETATM   17  C   UNL     1      16.299 -35.085   9.233  1.00  0.00    -0.013 C 
HETATM   18  C   UNL     1      17.027 -33.885   9.282  1.00  0.00     0.015 C 
HETATM   19  C   UNL     1      17.991 -33.621   8.314  1.00  0.00     0.027 C 
HETATM   20  C   UNL     1      18.147 -34.515   7.255  1.00  0.00     0.046 C 
HETATM   21  C   UNL     1      17.698 -35.830   7.415  1.00  0.00     0.027 C 
HETATM   22  N   UNL     1      18.495 -34.016   5.990  1.00  0.00    -0.102 NA
HETATM   23  C   UNL     1      16.729 -36.104   8.389  1.00  0.00     0.015 C 
ENDBRANCH   6  17
TORSDOF 2
ENDMDL
MODEL 3
REMARK VINA RESULT:      -6.7      3.952      5.183
REMARK  2 active torsions:
REMARK  status: ('A' for Active; 'I' for Inactive)
REMARK    1  A    between atoms: N_5  and  C_9 
REMARK       I    between atoms: N_5  and  C_16 
REMARK    2  A    between atoms: C_11  and  C_14 
REMARK       I    between atoms: N_12  and  C_16 
ROOT
HETATM    1  C   UNL     1      18.545 -35.572  12.702  1.00  0.00     0.065 C 
HETATM    2  C   UNL     1      17.470 -36.903  14.499  1.00  0.00     0.177 C 
HETATM    3  O   UNL     1      17.678 -36.816  15.707  1.00  0.00    -0.291 OA
HETATM    4  C   UNL     1      17.522 -38.240  13.822  1.00  0.00     0.098 C 
HETATM    5  C   UNL     1      18.478 -38.454  12.842  1.00  0.00     0.121 C 
HETATM    6  C   UNL     1      18.441 -36.433  11.563  1.00  0.00     0.019 C 
HETATM    7  C   UNL     1      17.394 -35.622  13.679  1.00  0.00     0.091 C 
HETATM    8  N   UNL     1      18.533 -37.785  11.660  1.00  0.00    -0.366 N 
ATOM      9  HN  UNL     1      18.651 -38.326  10.803  1.00  0.00     0.165 HD
ENDROOT
BRANCH   4  10
HETATM   10  N   UNL     1      16.672 -39.275  14.188  1.00  0.00    -0.304 N 
HETATM   11  C   UNL     1      15.372 -39.424  13.748  1.00  0.00     0.320 C 
HETATM   12  O   UNL     1      14.726 -38.509  13.276  1.00  0.00    -0.247 OA
HETATM   13  N   UNL     1      14.819 -40.611  13.989  1.00  0.00    -0.347 N 
HETATM   14  C   UNL     1      14.521 -41.312  15.216  1.00  0.00     0.151 C 
ATOM     15  HN  UNL     1      14.555 -41.122  13.148  1.00  0.00     0.163 HD
ATOM     16  HN  UNL     1      17.035 -39.978  14.832  1.00  0.00     0.171 HD
ENDBRANCH   4  10
BRANCH   6  17
HETATM   17  C   UNL     1      18.154 -35.761  10.332  1.00  0.00    -0.013 C 
HETATM   18  C   UNL     1      18.518 -36.425   9.149  1.00  0.00     0.015 C 
HETATM   19  C   UNL     1      18.392 -35.775   7.925  1.00  0.00     0.027 C 
HETATM   20  C   UNL     1      17.998 -34.437   7.908  1.00  0.00     0.046 C 
HETATM   21  C   UNL     1      17.310 -33.927   9.013  1.00  0.00     0.027 C 
HETATM   22  N   UNL     1      18.526 -33.586   6.924  1.00  0.00    -0.102 NA
HETATM   23  C   UNL     1      17.429 -34.576  10.248  1.00  0.00     0.015 C 
ENDBRANCH   6  17
TORSDOF 2
ENDMDL
MODEL 4
REMARK VINA RESULT:      -6.7      5.040      6.436
REMARK  2 active torsions:
REMARK  status: ('A' for Active; 'I' for Inactive)
REMARK    1  A    between atoms: N_5  and  C_9 
REMARK       I    between atoms: N_5  and  C_16 
REMARK    2  A    between atoms: C_11  and  C_14 
REMARK       I    between atoms: N_12  and  C_16 
ROOT
HETATM    1  C   UNL     1      18.143 -35.344  12.750  1.00  0.00     0.065 C 
HETATM    2  C   UNL     1      17.632 -37.138  14.386  1.00  0.00     0.177 C 
HETATM    3  O   UNL     1      17.542 -37.021  15.606  1.00  0.00    -0.291 OA
HETATM    4  C   UNL     1      18.504 -38.206  13.796  1.00  0.00     0.098 C 
HETATM    5  C   UNL     1      19.585 -37.829  13.017  1.00  0.00     0.121 C 
HETATM    6  C   UNL     1      18.716 -36.065  11.655  1.00  0.00     0.019 C 
HETATM    7  C   UNL     1      17.039 -36.048  13.505  1.00  0.00     0.091 C 
HETATM    8  N   UNL     1      19.489 -37.168  11.834  1.00  0.00    -0.366 N 
ATOM      9  HN  UNL     1      20.027 -37.517  11.039  1.00  0.00     0.165 HD
ENDROOT
BRANCH   4  10
HETATM   10  N   UNL     1      18.279 -39.552  14.053  1.00  0.00    -0.304 N 
HETATM   11  C   UNL     1      18.692 -40.221  15.187  1.00  0.00     0.320 C 
HETATM   12  O   UNL     1      19.576 -39.807  15.912  1.00  0.00    -0.247 OA
HETATM   13  N   UNL     1      18.150 -41.423  15.372  1.00  0.00    -0.347 N 
HETATM   14  C   UNL     1      18.194 -42.640  14.596  1.00  0.00     0.151 C 
ATOM     15  HN  UNL     1      17.597 -41.498  16.226  1.00  0.00     0.163 HD
ATOM     16  HN  UNL     1      17.770 -40.087  13.349  1.00  0.00     0.171 HD
ENDBRANCH   4  10
BRANCH   6  17
HETATM   17  C   UNL     1      18.343 -35.580  10.361  1.00  0.00    -0.013 C 
HETATM   18  C   UNL     1      18.775 -36.330   9.255  1.00  0.00     0.015 C 
HETATM   19  C   UNL     1      18.566 -35.846   7.967  1.00  0.00     0.027 C 
HETATM   20  C   UNL     1      18.016 -34.575   7.804  1.00  0.00     0.046 C 
HETATM   21  C   UNL     1      17.279 -34.023   8.857  1.00  0.00     0.027 C 
HETATM   22  N   UNL     1      18.433 -33.789   6.719  1.00  0.00    -0.102 NA
HETATM   23  C   UNL     1      17.482 -34.506  10.156  1.00  0.00     0.015 C 
ENDBRANCH   6  17
TORSDOF 2
ENDMDL
MODEL 5
REMARK VINA RESULT:      -6.5      3.549      5.697
REMARK  2 active torsions:
REMARK  status: ('A' for Active; 'I' for Inactive)
REMARK    1  A    between atoms: N_5  and  C_9 
REMARK       I    between atoms: N_5  and  C_16 
REMARK    2  A    between atoms: C_11  and  C_14 
REMARK       I    between atoms: N_12  and  C_16 
ROOT
HETATM    1  C   UNL     1      20.834 -37.728   9.960  1.00  0.00     0.065 C 
HETATM    2  C   UNL     1      18.879 -36.664   8.864  1.00  0.00     0.177 C 
HETATM    3  O   UNL     1      18.900 -35.886   7.912  1.00  0.00    -0.291 OA
HETATM    4  C   UNL     1      18.117 -36.311  10.106  1.00  0.00     0.098 C 
HETATM    5  C   UNL     1      18.811 -36.163  11.295  1.00  0.00     0.121 C 
HETATM    6  C   UNL     1      20.354 -37.991  11.282  1.00  0.00     0.019 C 
HETATM    7  C   UNL     1      19.821 -37.860   8.846  1.00  0.00     0.091 C 
HETATM    8  N   UNL     1      19.489 -37.161  11.921  1.00  0.00    -0.366 N 
ATOM      9  HN  UNL     1      19.341 -37.294  12.922  1.00  0.00     0.165 HD
ENDROOT
BRANCH   4  10
HETATM   10  N   UNL     1      16.747 -36.084  10.079  1.00  0.00    -0.304 N 
HETATM   11  C   UNL     1      16.146 -34.923   9.637  1.00  0.00     0.320 C 
HETATM   12  O   UNL     1      16.739 -33.865   9.550  1.00  0.00    -0.247 OA
HETATM   13  N   UNL     1      14.832 -34.999   9.432  1.00  0.00    -0.347 N 
HETATM   14  C   UNL     1      13.726 -35.277  10.316  1.00  0.00     0.151 C 
ATOM     15  HN  UNL     1      14.556 -34.830   8.466  1.00  0.00     0.163 HD
ATOM     16  HN  UNL     1      16.138 -36.833  10.410  1.00  0.00     0.171 HD
ENDBRANCH   4  10
BRANCH   6  17
HETATM   17  C   UNL     1      20.796 -39.233  11.841  1.00  0.00    -0.013 C 
HETATM   18  C   UNL     1      21.929 -39.187  12.669  1.00  0.00     0.015 C 
HETATM   19  C   UNL     1      22.492 -40.370  13.137  1.00  0.00     0.027 C 
HETATM   20  C   UNL     1      21.975 -41.587  12.691  1.00  0.00     0.046 C 
HETATM   21  C   UNL     1      20.671 -41.616  12.187  1.00  0.00     0.027 C 
HETATM   22  N   UNL     1      22.848 -42.671  12.511  1.00  0.00    -0.102 NA
HETATM   23  C   UNL     1      20.095 -40.429  11.717  1.00  0.00     0.015 C 
ENDBRANCH   6  17
TORSDOF 2
ENDMDL
MODEL 6
REMARK VINA RESULT:      -6.5      5.702      8.948
REMARK  2 active torsions:
REMARK  status: ('A' for Active; 'I' for Inactive)
REMARK    1  A    between atoms: N_5  and  C_9 
REMARK       I    between atoms: N_5  and  C_16 
REMARK    2  A    between atoms: C_11  and  C_14 
REMARK       I    between atoms: N_12  and  C_16 
ROOT
HETATM    1  C   UNL     1      19.586 -38.828  11.724  1.00  0.00     0.065 C 
HETATM    2  C   UNL     1      21.638 -39.366  13.011  1.00  0.00     0.177 C 
HETATM    3  O   UNL     1      21.956 -40.462  13.468  1.00  0.00    -0.291 OA
HETATM    4  C   UNL     1      21.650 -38.152  13.892  1.00  0.00     0.098 C 
HETATM    5  C   UNL     1      20.459 -37.486  14.125  1.00  0.00     0.121 C 
HETATM    6  C   UNL     1      19.409 -37.430  11.976  1.00  0.00     0.019 C 
HETATM    7  C   UNL     1      21.014 -39.310  11.624  1.00  0.00     0.091 C 
HETATM    8  N   UNL     1      19.726 -36.859  13.168  1.00  0.00    -0.366 N 
ATOM      9  HN  UNL     1      19.396 -35.911  13.354  1.00  0.00     0.165 HD
ENDROOT
BRANCH   4  10
HETATM   10  N   UNL     1      22.814 -37.716  14.512  1.00  0.00    -0.304 N 
HETATM   11  C   UNL     1      23.886 -37.138  13.864  1.00  0.00     0.320 C 
HETATM   12  O   UNL     1      24.077 -37.256  12.669  1.00  0.00    -0.247 OA
HETATM   13  N   UNL     1      24.779 -36.543  14.653  1.00  0.00    -0.347 N 
HETATM   14  C   UNL     1      25.637 -37.044  15.700  1.00  0.00     0.151 C 
ATOM     15  HN  UNL     1      24.875 -35.542  14.485  1.00  0.00     0.163 HD
ATOM     16  HN  UNL     1      22.881 -37.831  15.523  1.00  0.00     0.171 HD
ENDBRANCH   4  10
BRANCH   6  17
HETATM   17  C   UNL     1      18.950 -36.674  10.850  1.00  0.00    -0.013 C 
HETATM   18  C   UNL     1      18.140 -35.560  11.124  1.00  0.00     0.015 C 
HETATM   19  C   UNL     1      17.550 -34.861  10.076  1.00  0.00     0.027 C 
HETATM   20  C   UNL     1      17.695 -35.343   8.776  1.00  0.00     0.046 C 
HETATM   21  C   UNL     1      18.765 -36.198   8.494  1.00  0.00     0.027 C 
HETATM   22  N   UNL     1      16.637 -35.179   7.868  1.00  0.00    -0.102 NA
HETATM   23  C   UNL     1      19.367 -36.904   9.543  1.00  0.00     0.015 C 
ENDBRANCH   6  17
TORSDOF 2
ENDMDL
MODEL 7
REMARK VINA RESULT:      -6.4      2.203      2.632
REMARK  2 active torsions:
REMARK  status: ('A' for Active; 'I' for Inactive)
REMARK    1  A    between atoms: N_5  and  C_9 
REMARK       I    between atoms: N_5  and  C_16 
REMARK    2  A    between atoms: C_11  and  C_14 
REMARK       I    between atoms: N_12  and  C_16 
ROOT
HETATM    1  C   UNL     1      13.485 -35.677   9.437  1.00  0.00     0.065 C 
HETATM    2  C   UNL     1      11.772 -36.632  10.957  1.00  0.00     0.177 C 
HETATM    3  O   UNL     1      10.565 -36.728  10.742  1.00  0.00    -0.291 OA
HETATM    4  C   UNL     1      12.261 -36.010  12.231  1.00  0.00     0.098 C 
HETATM    5  C   UNL     1      13.012 -34.850  12.161  1.00  0.00     0.121 C 
HETATM    6  C   UNL     1      14.511 -35.252  10.340  1.00  0.00     0.019 C 
HETATM    7  C   UNL     1      12.740 -36.934   9.822  1.00  0.00     0.091 C 
HETATM    8  N   UNL     1      14.235 -34.757  11.575  1.00  0.00    -0.366 N 
ATOM      9  HN  UNL     1      14.984 -34.291  12.089  1.00  0.00     0.165 HD
ENDROOT
BRANCH   4  10
HETATM   10  N   UNL     1      11.936 -36.544  13.472  1.00  0.00    -0.304 N 
HETATM   11  C   UNL     1      12.674 -37.502  14.138  1.00  0.00     0.320 C 
HETATM   12  O   UNL     1      13.480 -38.220  13.580  1.00  0.00    -0.247 OA
HETATM   13  N   UNL     1      12.355 -37.682  15.418  1.00  0.00    -0.347 N 
HETATM   14  C   UNL     1      11.140 -38.117  16.065  1.00  0.00     0.151 C 
ATOM     15  HN  UNL     1      13.114 -37.472  16.066  1.00  0.00     0.163 HD
ATOM     16  HN  UNL     1      11.089 -36.203  13.925  1.00  0.00     0.171 HD
ENDBRANCH   4  10
BRANCH   6  17
HETATM   17  C   UNL     1      15.846 -35.466   9.870  1.00  0.00    -0.013 C 
HETATM   18  C   UNL     1      16.006 -35.668   8.490  1.00  0.00     0.015 C 
HETATM   19  C   UNL     1      17.254 -36.015   7.982  1.00  0.00     0.027 C 
HETATM   20  C   UNL     1      18.302 -36.252   8.870  1.00  0.00     0.046 C 
HETATM   21  C   UNL     1      18.228 -35.706  10.156  1.00  0.00     0.027 C 
HETATM   22  N   UNL     1      19.255 -37.233   8.551  1.00  0.00    -0.102 NA
HETATM   23  C   UNL     1      16.976 -35.352  10.674  1.00  0.00     0.015 C 
ENDBRANCH   6  17
TORSDOF 2
ENDMDL
MODEL 8
REMARK VINA RESULT:      -6.4      1.645      2.289
REMARK  2 active torsions:
REMARK  status: ('A' for Active; 'I' for Inactive)
REMARK    1  A    between atoms: N_5  and  C_9 
REMARK       I    between atoms: N_5  and  C_16 
REMARK    2  A    between atoms: C_11  and  C_14 
REMARK       I    between atoms: N_12  and  C_16 
ROOT
HETATM    1  C   UNL     1      17.749 -35.330  10.083  1.00  0.00     0.065 C 
HETATM    2  C   UNL     1      15.363 -35.556   9.437  1.00  0.00     0.177 C 
HETATM    3  O   UNL     1      14.723 -34.806   8.704  1.00  0.00    -0.291 OA
HETATM    4  C   UNL     1      14.822 -35.931  10.786  1.00  0.00     0.098 C 
HETATM    5  C   UNL     1      15.531 -35.558  11.915  1.00  0.00     0.121 C 
HETATM    6  C   UNL     1      17.806 -36.018  11.337  1.00  0.00     0.019 C 
HETATM    7  C   UNL     1      16.797 -35.899   9.056  1.00  0.00     0.091 C 
HETATM    8  N   UNL     1      16.778 -36.001  12.225  1.00  0.00    -0.366 N 
ATOM      9  HN  UNL     1      16.950 -36.337  13.173  1.00  0.00     0.165 HD
ENDROOT
BRANCH   4  10
HETATM   10  N   UNL     1      13.611 -36.596  10.923  1.00  0.00    -0.304 N 
HETATM   11  C   UNL     1      12.374 -35.987  10.966  1.00  0.00     0.320 C 
HETATM   12  O   UNL     1      12.227 -34.809  11.229  1.00  0.00    -0.247 OA
HETATM   13  N   UNL     1      11.329 -36.801  10.826  1.00  0.00    -0.347 N 
HETATM   14  C   UNL     1      10.849 -37.910  11.616  1.00  0.00     0.151 C 
ATOM     15  HN  UNL     1      10.760 -36.603  10.003  1.00  0.00     0.163 HD
ATOM     16  HN  UNL     1      13.638 -37.613  10.999  1.00  0.00     0.171 HD
ENDBRANCH   4  10
BRANCH   6  17
HETATM   17  C   UNL     1      18.996 -36.787  11.542  1.00  0.00    -0.013 C 
HETATM   18  C   UNL     1      19.613 -37.315  10.396  1.00  0.00     0.015 C 
HETATM   19  C   UNL     1      20.693 -38.182  10.531  1.00  0.00     0.027 C 
HETATM   20  C   UNL     1      21.080 -38.586  11.808  1.00  0.00     0.046 C 
HETATM   21  C   UNL     1      20.713 -37.795  12.902  1.00  0.00     0.027 C 
HETATM   22  N   UNL     1      21.581 -39.885  11.988  1.00  0.00    -0.102 NA
HETATM   23  C   UNL     1      19.629 -36.918  12.774  1.00  0.00     0.015 C 
ENDBRANCH   6  17
TORSDOF 2
ENDMDL
MODEL 9
REMARK VINA RESULT:      -6.4      5.026      7.344
REMARK  2 active torsions:
REMARK  status: ('A' for Active; 'I' for Inactive)
REMARK    1  A    between atoms: N_5  and  C_9 
REMARK       I    between atoms: N_5  and  C_16 
REMARK    2  A    between atoms: C_11  and  C_14 
REMARK       I    between atoms: N_12  and  C_16 
ROOT
HETATM    1  C   UNL     1      21.283 -38.178  10.805  1.00  0.00     0.065 C 
HETATM    2  C   UNL     1      21.502 -39.694  12.757  1.00  0.00     0.177 C 
HETATM    3  O   UNL     1      22.529 -40.240  13.156  1.00  0.00    -0.291 OA
HETATM    4  C   UNL     1      20.261 -40.504  12.526  1.00  0.00     0.098 C 
HETATM    5  C   UNL     1      19.742 -40.578  11.245  1.00  0.00     0.121 C 
HETATM    6  C   UNL     1      19.910 -38.334  10.433  1.00  0.00     0.019 C 
HETATM    7  C   UNL     1      21.583 -38.249  12.284  1.00  0.00     0.091 C 
HETATM    8  N   UNL     1      19.254 -39.518  10.548  1.00  0.00    -0.366 N 
ATOM      9  HN  UNL     1      18.349 -39.618  10.087  1.00  0.00     0.165 HD
ENDROOT
BRANCH   4  10
HETATM   10  N   UNL     1      19.654 -41.214  13.555  1.00  0.00    -0.304 N 
HETATM   11  C   UNL     1      18.554 -40.787  14.269  1.00  0.00     0.320 C 
HETATM   12  O   UNL     1      18.208 -39.622  14.315  1.00  0.00    -0.247 OA
HETATM   13  N   UNL     1      17.960 -41.716  15.016  1.00  0.00    -0.347 N 
HETATM   14  C   UNL     1      18.422 -42.505  16.133  1.00  0.00     0.151 C 
ATOM     15  HN  UNL     1      16.995 -41.906  14.748  1.00  0.00     0.163 HD
ATOM     16  HN  UNL     1      20.053 -42.120  13.800  1.00  0.00     0.171 HD
ENDBRANCH   4  10
BRANCH   6  17
HETATM   17  C   UNL     1      19.266 -37.128  10.009  1.00  0.00    -0.013 C 
HETATM   18  C   UNL     1      18.739 -36.304  11.017  1.00  0.00     0.015 C 
HETATM   19  C   UNL     1      17.984 -35.187  10.672  1.00  0.00     0.027 C 
HETATM   20  C   UNL     1      17.682 -34.964   9.328  1.00  0.00     0.046 C 
HETATM   21  C   UNL     1      18.491 -35.555   8.353  1.00  0.00     0.027 C 
HETATM   22  N   UNL     1      16.446 -34.389   8.996  1.00  0.00    -0.102 NA
HETATM   23  C   UNL     1      19.257 -36.678   8.692  1.00  0.00     0.015 C 
ENDBRANCH   6  17
TORSDOF 2
ENDMDL
