MODEL 1
REMARK VINA RESULT:      -7.1      0.000      0.000
REMARK  2 active torsions:
REMARK  status: ('A' for Active; 'I' for Inactive)
REMARK    1  A    between atoms: O_5  and  C_14 
REMARK    2  A    between atoms: C_18  and  N_21 
ROOT
HETATM    1  C   UNL     1      15.059 -35.313  11.127  1.00  0.00     0.129 C 
HETATM    2  C   UNL     1      17.299 -37.164  15.105  1.00  0.00     0.092 C 
HETATM    3  C   UNL     1      18.412 -35.752  12.065  1.00  0.00     0.057 C 
HETATM    4  C   UNL     1      19.401 -35.525  14.389  1.00  0.00     0.030 C 
HETATM    5  C   UNL     1      17.212 -36.311  11.619  1.00  0.00     0.037 C 
HETATM    6  C   UNL     1      16.698 -37.271  12.660  1.00  0.00     0.139 C 
HETATM    7  C   UNL     1      18.152 -36.686  16.090  1.00  0.00     0.017 C 
HETATM    8  C   UNL     1      19.271 -35.933  15.714  1.00  0.00     0.004 C 
HETATM    9  C   UNL     1      18.528 -36.044  13.439  1.00  0.00     0.036 C 
HETATM   10  C   UNL     1      14.416 -36.513  11.790  1.00  0.00     0.023 C 
HETATM   11  C   UNL     1      15.201 -37.218  12.881  1.00  0.00     0.033 C 
HETATM   12  N   UNL     1      17.527 -36.884  13.798  1.00  0.00    -0.346 N 
HETATM   13  N   UNL     1      16.461 -35.575  10.741  1.00  0.00    -0.348 N 
ENDROOT
BRANCH  13  14
HETATM   14  C   UNL     1      16.955 -35.204   9.479  1.00  0.00     0.034 C 
HETATM   15  C   UNL     1      17.274 -33.867   9.204  1.00  0.00     0.032 C 
HETATM   16  C   UNL     1      18.083 -33.544   8.114  1.00  0.00     0.039 C 
HETATM   17  C   UNL     1      18.479 -34.543   7.232  1.00  0.00     0.065 C 
HETATM   18  C   UNL     1      18.005 -35.838   7.395  1.00  0.00     0.039 C 
HETATM   19  C   UNL     1      17.191 -36.157   8.479  1.00  0.00     0.032 C 
BRANCH  17  20
HETATM   20  O   UNL     1      19.421 -34.268   6.283  1.00  0.00    -0.361 OA
ATOM     21  HO  UNL     1      20.214 -33.806   6.531  1.00  0.00     0.217 HD
ENDBRANCH  17  20
ENDBRANCH  13  14
TORSDOF 2
ENDMDL
MODEL 2
REMARK VINA RESULT:      -6.9      3.332      6.671
REMARK  2 active torsions:
REMARK  status: ('A' for Active; 'I' for Inactive)
REMARK    1  A    between atoms: O_5  and  C_14 
REMARK    2  A    between atoms: C_18  and  N_21 
ROOT
HETATM    1  C   UNL     1      20.844 -37.669  12.232  1.00  0.00     0.129 C 
HETATM    2  C   UNL     1      18.925 -35.814   8.092  1.00  0.00     0.092 C 
HETATM    3  C   UNL     1      17.773 -36.184  11.410  1.00  0.00     0.057 C 
HETATM    4  C   UNL     1      17.371 -34.282   9.782  1.00  0.00     0.030 C 
HETATM    5  C   UNL     1      18.619 -37.294  11.348  1.00  0.00     0.037 C 
HETATM    6  C   UNL     1      18.982 -37.557   9.910  1.00  0.00     0.139 C 
HETATM    7  C   UNL     1      18.476 -34.573   7.662  1.00  0.00     0.017 C 
HETATM    8  C   UNL     1      17.611 -33.840   8.484  1.00  0.00     0.004 C 
HETATM    9  C   UNL     1      17.831 -35.539  10.158  1.00  0.00     0.036 C 
HETATM   10  C   UNL     1      21.178 -38.376  10.935  1.00  0.00     0.023 C 
HETATM   11  C   UNL     1      20.429 -37.945   9.688  1.00  0.00     0.033 C 
HETATM   12  N   UNL     1      18.556 -36.301   9.302  1.00  0.00    -0.346 N 
HETATM   13  N   UNL     1      19.387 -37.564  12.450  1.00  0.00    -0.348 N 
ENDROOT
BRANCH  13  14
HETATM   14  C   UNL     1      18.809 -37.861  13.696  1.00  0.00     0.034 C 
HETATM   15  C   UNL     1      18.938 -36.969  14.771  1.00  0.00     0.032 C 
HETATM   16  C   UNL     1      18.091 -37.068  15.876  1.00  0.00     0.039 C 
HETATM   17  C   UNL     1      17.194 -38.127  15.961  1.00  0.00     0.065 C 
HETATM   18  C   UNL     1      17.198 -39.118  14.989  1.00  0.00     0.039 C 
HETATM   19  C   UNL     1      18.049 -39.022  13.891  1.00  0.00     0.032 C 
BRANCH  17  20
HETATM   20  O   UNL     1      16.238 -38.121  16.935  1.00  0.00    -0.361 OA
ATOM     21  HO  UNL     1      16.459 -38.419  17.810  1.00  0.00     0.217 HD
ENDBRANCH  17  20
ENDBRANCH  13  14
TORSDOF 2
ENDMDL
MODEL 3
REMARK VINA RESULT:      -6.7      1.577      3.885
REMARK  2 active torsions:
REMARK  status: ('A' for Active; 'I' for Inactive)
REMARK    1  A    between atoms: O_5  and  C_14 
REMARK    2  A    between atoms: C_18  and  N_21 
ROOT
HETATM    1  C   UNL     1      18.037 -37.124  11.764  1.00  0.00     0.129 C 
HETATM    2  C   UNL     1      13.505 -36.871  13.678  1.00  0.00     0.092 C 
HETATM    3  C   UNL     1      14.972 -35.843  10.633  1.00  0.00     0.057 C 
HETATM    4  C   UNL     1      12.659 -36.796  11.051  1.00  0.00     0.030 C 
HETATM    5  C   UNL     1      16.086 -35.717  11.466  1.00  0.00     0.037 C 
HETATM    6  C   UNL     1      15.638 -35.776  12.903  1.00  0.00     0.139 C 
HETATM    7  C   UNL     1      12.251 -37.368  13.355  1.00  0.00     0.017 C 
HETATM    8  C   UNL     1      11.787 -37.243  12.039  1.00  0.00     0.004 C 
HETATM    9  C   UNL     1      13.900 -36.294  11.430  1.00  0.00     0.036 C 
HETATM   10  C   UNL     1      17.926 -36.865  13.252  1.00  0.00     0.023 C 
HETATM   11  C   UNL     1      16.546 -36.576  13.813  1.00  0.00     0.033 C 
HETATM   12  N   UNL     1      14.285 -36.296  12.729  1.00  0.00    -0.346 N 
HETATM   13  N   UNL     1      17.296 -36.124  10.968  1.00  0.00    -0.348 N 
ENDROOT
BRANCH  13  14
HETATM   14  C   UNL     1      17.864 -35.525   9.831  1.00  0.00     0.034 C 
HETATM   15  C   UNL     1      18.761 -36.239   9.023  1.00  0.00     0.032 C 
HETATM   16  C   UNL     1      19.047 -35.802   7.728  1.00  0.00     0.039 C 
HETATM   17  C   UNL     1      18.528 -34.591   7.282  1.00  0.00     0.065 C 
HETATM   18  C   UNL     1      17.796 -33.790   8.147  1.00  0.00     0.039 C 
HETATM   19  C   UNL     1      17.519 -34.224   9.442  1.00  0.00     0.032 C 
BRANCH  17  20
HETATM   20  O   UNL     1      18.643 -34.256   5.964  1.00  0.00    -0.361 OA
ATOM     21  HO  UNL     1      19.475 -33.939   5.632  1.00  0.00     0.217 HD
ENDBRANCH  17  20
ENDBRANCH  13  14
TORSDOF 2
ENDMDL
MODEL 4
REMARK VINA RESULT:      -6.7      2.695      5.718
REMARK  2 active torsions:
REMARK  status: ('A' for Active; 'I' for Inactive)
REMARK    1  A    between atoms: O_5  and  C_14 
REMARK    2  A    between atoms: C_18  and  N_21 
ROOT
HETATM    1  C   UNL     1      17.436 -34.004  10.114  1.00  0.00     0.129 C 
HETATM    2  C   UNL     1      12.888 -35.717   9.311  1.00  0.00     0.092 C 
HETATM    3  C   UNL     1      15.279 -36.138  11.877  1.00  0.00     0.057 C 
HETATM    4  C   UNL     1      12.755 -35.966  12.057  1.00  0.00     0.030 C 
HETATM    5  C   UNL     1      16.147 -35.937  10.801  1.00  0.00     0.037 C 
HETATM    6  C   UNL     1      15.375 -36.068   9.514  1.00  0.00     0.139 C 
HETATM    7  C   UNL     1      11.655 -35.625   9.941  1.00  0.00     0.017 C 
HETATM    8  C   UNL     1      11.579 -35.845  11.322  1.00  0.00     0.004 C 
HETATM    9  C   UNL     1      13.963 -36.069  11.375  1.00  0.00     0.036 C 
HETATM   10  C   UNL     1      17.061 -34.333   8.684  1.00  0.00     0.023 C 
HETATM   11  C   UNL     1      15.747 -35.055   8.452  1.00  0.00     0.033 C 
HETATM   12  N   UNL     1      14.009 -35.989  10.023  1.00  0.00    -0.346 N 
HETATM   13  N   UNL     1      17.252 -35.158  11.018  1.00  0.00    -0.348 N 
ENDROOT
BRANCH  13  14
HETATM   14  C   UNL     1      18.231 -35.513  11.962  1.00  0.00     0.034 C 
HETATM   15  C   UNL     1      18.293 -34.862  13.202  1.00  0.00     0.032 C 
HETATM   16  C   UNL     1      19.002 -35.430  14.262  1.00  0.00     0.039 C 
HETATM   17  C   UNL     1      19.743 -36.587  14.052  1.00  0.00     0.065 C 
HETATM   18  C   UNL     1      19.837 -37.127  12.777  1.00  0.00     0.039 C 
HETATM   19  C   UNL     1      19.136 -36.555  11.718  1.00  0.00     0.032 C 
BRANCH  17  20
HETATM   20  O   UNL     1      20.275 -37.248  15.121  1.00  0.00    -0.361 OA
ATOM     21  HO  UNL     1      21.128 -36.991  15.453  1.00  0.00     0.217 HD
ENDBRANCH  17  20
ENDBRANCH  13  14
TORSDOF 2
ENDMDL
MODEL 5
REMARK VINA RESULT:      -6.7      2.239      2.704
REMARK  2 active torsions:
REMARK  status: ('A' for Active; 'I' for Inactive)
REMARK    1  A    between atoms: O_5  and  C_14 
REMARK    2  A    between atoms: C_18  and  N_21 
ROOT
HETATM    1  C   UNL     1      18.020 -34.686  12.576  1.00  0.00     0.129 C 
HETATM    2  C   UNL     1      20.511 -38.107  15.096  1.00  0.00     0.092 C 
HETATM    3  C   UNL     1      20.109 -37.355  11.668  1.00  0.00     0.057 C 
HETATM    4  C   UNL     1      22.172 -38.179  12.893  1.00  0.00     0.030 C 
HETATM    5  C   UNL     1      18.870 -36.912  12.136  1.00  0.00     0.037 C 
HETATM    6  C   UNL     1      18.654 -37.434  13.532  1.00  0.00     0.139 C 
HETATM    7  C   UNL     1      21.843 -38.460  15.262  1.00  0.00     0.017 C 
HETATM    8  C   UNL     1      22.659 -38.587  14.131  1.00  0.00     0.004 C 
HETATM    9  C   UNL     1      20.826 -37.849  12.777  1.00  0.00     0.036 C 
HETATM   10  C   UNL     1      17.365 -35.244  13.822  1.00  0.00     0.023 C 
HETATM   11  C   UNL     1      18.022 -36.441  14.484  1.00  0.00     0.033 C 
HETATM   12  N   UNL     1      20.011 -37.861  13.860  1.00  0.00    -0.346 N 
HETATM   13  N   UNL     1      18.377 -35.747  11.611  1.00  0.00    -0.348 N 
ENDROOT
BRANCH  13  14
HETATM   14  C   UNL     1      18.099 -35.615  10.240  1.00  0.00     0.034 C 
HETATM   15  C   UNL     1      17.577 -34.417   9.732  1.00  0.00     0.032 C 
HETATM   16  C   UNL     1      17.633 -34.146   8.364  1.00  0.00     0.039 C 
HETATM   17  C   UNL     1      18.105 -35.120   7.490  1.00  0.00     0.065 C 
HETATM   18  C   UNL     1      18.444 -36.377   7.971  1.00  0.00     0.039 C 
HETATM   19  C   UNL     1      18.379 -36.648   9.336  1.00  0.00     0.032 C 
BRANCH  17  20
HETATM   20  O   UNL     1      18.343 -34.794   6.186  1.00  0.00    -0.361 OA
ATOM     21  HO  UNL     1      19.234 -34.806   5.856  1.00  0.00     0.217 HD
ENDBRANCH  17  20
ENDBRANCH  13  14
TORSDOF 2
ENDMDL
MODEL 6
REMARK VINA RESULT:      -6.6      1.824      2.142
REMARK  2 active torsions:
REMARK  status: ('A' for Active; 'I' for Inactive)
REMARK    1  A    between atoms: O_5  and  C_14 
REMARK    2  A    between atoms: C_18  and  N_21 
ROOT
HETATM    1  C   UNL     1      16.477 -35.849  12.316  1.00  0.00     0.129 C 
HETATM    2  C   UNL     1      18.681 -38.965  15.429  1.00  0.00     0.092 C 
HETATM    3  C   UNL     1      19.701 -37.218  12.533  1.00  0.00     0.057 C 
HETATM    4  C   UNL     1      21.018 -37.725  14.641  1.00  0.00     0.030 C 
HETATM    5  C   UNL     1      18.349 -37.385  12.223  1.00  0.00     0.037 C 
HETATM    6  C   UNL     1      17.751 -38.407  13.155  1.00  0.00     0.139 C 
HETATM    7  C   UNL     1      19.752 -38.914  16.310  1.00  0.00     0.017 C 
HETATM    8  C   UNL     1      20.966 -38.368  15.874  1.00  0.00     0.004 C 
HETATM    9  C   UNL     1      19.922 -37.818  13.790  1.00  0.00     0.036 C 
HETATM   10  C   UNL     1      15.643 -36.988  12.864  1.00  0.00     0.023 C 
HETATM   11  C   UNL     1      16.361 -38.068  13.651  1.00  0.00     0.033 C 
HETATM   12  N   UNL     1      18.796 -38.470  14.172  1.00  0.00    -0.346 N 
HETATM   13  N   UNL     1      17.700 -36.329  11.640  1.00  0.00    -0.348 N 
ENDROOT
BRANCH  13  14
HETATM   14  C   UNL     1      18.099 -35.816  10.394  1.00  0.00     0.034 C 
HETATM   15  C   UNL     1      18.985 -36.535   9.579  1.00  0.00     0.032 C 
HETATM   16  C   UNL     1      19.105 -36.226   8.223  1.00  0.00     0.039 C 
HETATM   17  C   UNL     1      18.429 -35.127   7.706  1.00  0.00     0.065 C 
HETATM   18  C   UNL     1      17.702 -34.300   8.552  1.00  0.00     0.039 C 
HETATM   19  C   UNL     1      17.590 -34.605   9.907  1.00  0.00     0.032 C 
BRANCH  17  20
HETATM   20  O   UNL     1      18.388 -34.937   6.355  1.00  0.00    -0.361 OA
ATOM     21  HO  UNL     1      19.146 -34.575   5.910  1.00  0.00     0.217 HD
ENDBRANCH  17  20
ENDBRANCH  13  14
TORSDOF 2
ENDMDL
MODEL 7
REMARK VINA RESULT:      -6.6      4.396      5.782
REMARK  2 active torsions:
REMARK  status: ('A' for Active; 'I' for Inactive)
REMARK    1  A    between atoms: O_5  and  C_14 
REMARK    2  A    between atoms: C_18  and  N_21 
ROOT
HETATM    1  C   UNL     1      20.043 -37.272  14.503  1.00  0.00     0.129 C 
HETATM    2  C   UNL     1      24.600 -38.350  16.031  1.00  0.00     0.092 C 
HETATM    3  C   UNL     1      23.142 -37.627  12.896  1.00  0.00     0.057 C 
HETATM    4  C   UNL     1      25.422 -36.966  13.789  1.00  0.00     0.030 C 
HETATM    5  C   UNL     1      22.041 -38.223  13.516  1.00  0.00     0.037 C 
HETATM    6  C   UNL     1      22.501 -38.932  14.763  1.00  0.00     0.139 C 
HETATM    7  C   UNL     1      25.832 -37.712  16.042  1.00  0.00     0.017 C 
HETATM    8  C   UNL     1      26.287 -37.090  14.872  1.00  0.00     0.004 C 
HETATM    9  C   UNL     1      24.204 -37.638  13.822  1.00  0.00     0.036 C 
HETATM   10  C   UNL     1      20.178 -38.288  15.618  1.00  0.00     0.023 C 
HETATM   11  C   UNL     1      21.574 -38.783  15.951  1.00  0.00     0.033 C 
HETATM   12  N   UNL     1      23.832 -38.351  14.913  1.00  0.00    -0.346 N 
HETATM   13  N   UNL     1      20.813 -37.656  13.302  1.00  0.00    -0.348 N 
ENDROOT
BRANCH  13  14
HETATM   14  C   UNL     1      20.255 -37.568  12.015  1.00  0.00     0.034 C 
HETATM   15  C   UNL     1      19.213 -36.669  11.751  1.00  0.00     0.032 C 
HETATM   16  C   UNL     1      18.901 -36.316  10.437  1.00  0.00     0.039 C 
HETATM   17  C   UNL     1      19.552 -36.948   9.383  1.00  0.00     0.065 C 
HETATM   18  C   UNL     1      20.448 -37.976   9.639  1.00  0.00     0.039 C 
HETATM   19  C   UNL     1      20.752 -38.333  10.951  1.00  0.00     0.032 C 
BRANCH  17  20
HETATM   20  O   UNL     1      19.393 -36.473   8.113  1.00  0.00    -0.361 OA
ATOM     21  HO  UNL     1      18.521 -36.426   7.737  1.00  0.00     0.217 HD
ENDBRANCH  17  20
ENDBRANCH  13  14
TORSDOF 2
ENDMDL
MODEL 8
REMARK VINA RESULT:      -6.5      2.987      5.861
REMARK  2 active torsions:
REMARK  status: ('A' for Active; 'I' for Inactive)
REMARK    1  A    between atoms: O_5  and  C_14 
REMARK    2  A    between atoms: C_18  and  N_21 
ROOT
HETATM    1  C   UNL     1      17.856 -38.455  13.286  1.00  0.00     0.129 C 
HETATM    2  C   UNL     1      15.701 -35.404  10.074  1.00  0.00     0.092 C 
HETATM    3  C   UNL     1      19.045 -36.271  10.811  1.00  0.00     0.057 C 
HETATM    4  C   UNL     1      17.983 -35.767   8.563  1.00  0.00     0.030 C 
HETATM    5  C   UNL     1      18.489 -36.451  12.079  1.00  0.00     0.037 C 
HETATM    6  C   UNL     1      17.123 -35.817  12.113  1.00  0.00     0.139 C 
HETATM    7  C   UNL     1      15.625 -35.291   8.693  1.00  0.00     0.017 C 
HETATM    8  C   UNL     1      16.801 -35.383   7.937  1.00  0.00     0.004 C 
HETATM    9  C   UNL     1      18.009 -35.852   9.952  1.00  0.00     0.036 C 
HETATM   10  C   UNL     1      16.621 -37.714  13.754  1.00  0.00     0.023 C 
HETATM   11  C   UNL     1      16.075 -36.620  12.854  1.00  0.00     0.033 C 
HETATM   12  N   UNL     1      16.892 -35.627  10.685  1.00  0.00    -0.346 N 
HETATM   13  N   UNL     1      18.907 -37.537  12.803  1.00  0.00    -0.348 N 
ENDROOT
BRANCH  13  14
HETATM   14  C   UNL     1      20.251 -37.696  13.182  1.00  0.00     0.034 C 
HETATM   15  C   UNL     1      21.104 -38.529  12.445  1.00  0.00     0.032 C 
HETATM   16  C   UNL     1      22.489 -38.422  12.584  1.00  0.00     0.039 C 
HETATM   17  C   UNL     1      23.018 -37.564  13.542  1.00  0.00     0.065 C 
HETATM   18  C   UNL     1      22.172 -36.881  14.404  1.00  0.00     0.039 C 
HETATM   19  C   UNL     1      20.790 -36.996  14.269  1.00  0.00     0.032 C 
BRANCH  17  20
HETATM   20  O   UNL     1      24.360 -37.311  13.549  1.00  0.00    -0.361 OA
ATOM     21  HO  UNL     1      24.857 -37.443  14.349  1.00  0.00     0.217 HD
ENDBRANCH  17  20
ENDBRANCH  13  14
TORSDOF 2
ENDMDL
MODEL 9
REMARK VINA RESULT:      -6.5      2.273      3.986
REMARK  2 active torsions:
REMARK  status: ('A' for Active; 'I' for Inactive)
REMARK    1  A    between atoms: O_5  and  C_14 
REMARK    2  A    between atoms: C_18  and  N_21 
ROOT
HETATM    1  C   UNL     1      20.060 -36.556  13.862  1.00  0.00     0.129 C 
HETATM    2  C   UNL     1      16.818 -39.228  16.433  1.00  0.00     0.092 C 
HETATM    3  C   UNL     1      17.415 -38.690  12.993  1.00  0.00     0.057 C 
HETATM    4  C   UNL     1      16.701 -40.816  14.178  1.00  0.00     0.030 C 
HETATM    5  C   UNL     1      17.842 -37.455  13.484  1.00  0.00     0.037 C 
HETATM    6  C   UNL     1      17.373 -37.301  14.907  1.00  0.00     0.139 C 
HETATM    7  C   UNL     1      16.509 -40.574  16.567  1.00  0.00     0.017 C 
HETATM    8  C   UNL     1      16.358 -41.356  15.414  1.00  0.00     0.004 C 
HETATM    9  C   UNL     1      16.988 -39.458  14.096  1.00  0.00     0.036 C 
HETATM   10  C   UNL     1      19.537 -35.959  15.151  1.00  0.00     0.023 C 
HETATM   11  C   UNL     1      18.387 -36.672  15.839  1.00  0.00     0.033 C 
HETATM   12  N   UNL     1      16.998 -38.680  15.206  1.00  0.00    -0.346 N 
HETATM   13  N   UNL     1      18.971 -36.911  12.930  1.00  0.00    -0.348 N 
ENDROOT
BRANCH  13  14
HETATM   14  C   UNL     1      19.037 -36.584  11.565  1.00  0.00     0.034 C 
HETATM   15  C   UNL     1      19.862 -37.314  10.697  1.00  0.00     0.032 C 
HETATM   16  C   UNL     1      19.673 -37.243   9.316  1.00  0.00     0.039 C 
HETATM   17  C   UNL     1      18.738 -36.355   8.796  1.00  0.00     0.065 C 
HETATM   18  C   UNL     1      18.056 -35.493   9.643  1.00  0.00     0.039 C 
HETATM   19  C   UNL     1      18.251 -35.560  11.021  1.00  0.00     0.032 C 
BRANCH  17  20
HETATM   20  O   UNL     1      18.414 -36.420   7.472  1.00  0.00    -0.361 OA
ATOM     21  HO  UNL     1      17.721 -35.866   7.132  1.00  0.00     0.217 HD
ENDBRANCH  17  20
ENDBRANCH  13  14
TORSDOF 2
ENDMDL
