MODEL 1
REMARK VINA RESULT:      -7.8      0.000      0.000
REMARK  1 active torsions:
REMARK  status: ('A' for Active; 'I' for Inactive)
REMARK    1  A    between atoms: C_9  and  O_21 
ROOT
HETATM    1  N   UNL     1      12.513 -36.468   9.772  1.00  0.00    -0.325 N 
ATOM      2  HN  UNL     1      12.055 -36.707   8.892  1.00  0.00     0.169 HD
HETATM    3  C   UNL     1      19.059 -35.221   7.293  1.00  0.00     0.010 C 
HETATM    4  O   UNL     1      10.689 -36.013  10.992  1.00  0.00    -0.268 OA
HETATM    5  C   UNL     1      14.705 -35.727   8.628  1.00  0.00     0.176 C 
HETATM    6  C   UNL     1      17.400 -35.477   9.052  1.00  0.00     0.038 C 
HETATM    7  N   UNL     1      15.967 -35.505   9.351  1.00  0.00    -0.389 N 
HETATM    8  C   UNL     1      18.045 -35.916  10.385  1.00  0.00     0.018 C 
HETATM    9  C   UNL     1      19.042 -37.299   8.653  1.00  0.00     0.125 C 
HETATM   10  C   UNL     1      13.924 -36.603  12.106  1.00  0.00     0.017 C 
HETATM   11  C   UNL     1      18.137 -34.016   7.257  1.00  0.00     0.003 C 
HETATM   12  C   UNL     1      16.898 -36.137  11.373  1.00  0.00     0.037 C 
HETATM   13  C   UNL     1      17.663 -34.000   8.706  1.00  0.00     0.031 C 
HETATM   14  C   UNL     1      18.672 -37.287  10.124  1.00  0.00     0.039 C 
HETATM   15  C   UNL     1      14.452 -35.954  11.003  1.00  0.00    -0.011 C 
HETATM   16  C   UNL     1      11.830 -36.538  10.952  1.00  0.00     0.245 C 
HETATM   17  C   UNL     1      13.798 -36.079   9.789  1.00  0.00     0.038 C 
HETATM   18  C   UNL     1      18.161 -36.257   7.962  1.00  0.00     0.043 C 
HETATM   19  C   UNL     1      12.566 -36.884  12.094  1.00  0.00     0.075 C 
HETATM   20  C   UNL     1      15.766 -35.291  10.788  1.00  0.00     0.116 C 
ENDROOT
BRANCH   9  21
HETATM   21  O   UNL     1      20.434 -37.085   8.476  1.00  0.00    -0.395 OA
ATOM     22  HO  UNL     1      20.848 -36.832   9.292  1.00  0.00     0.210 HD
ENDBRANCH   9  21
TORSDOF 1
ENDMDL
MODEL 2
REMARK VINA RESULT:      -7.5      3.958      6.131
REMARK  1 active torsions:
REMARK  status: ('A' for Active; 'I' for Inactive)
REMARK    1  A    between atoms: C_9  and  O_21 
ROOT
HETATM    1  N   UNL     1      17.435 -34.353  10.824  1.00  0.00    -0.325 N 
ATOM      2  HN  UNL     1      17.186 -33.536  11.382  1.00  0.00     0.169 HD
HETATM    3  C   UNL     1      20.630 -38.198  15.880  1.00  0.00     0.010 C 
HETATM    4  O   UNL     1      16.031 -34.033   9.106  1.00  0.00    -0.268 OA
HETATM    5  C   UNL     1      18.230 -35.719  12.865  1.00  0.00     0.176 C 
HETATM    6  C   UNL     1      19.923 -37.744  13.599  1.00  0.00     0.038 C 
HETATM    7  N   UNL     1      19.014 -36.958  12.761  1.00  0.00    -0.389 N 
HETATM    8  C   UNL     1      20.850 -38.425  12.568  1.00  0.00     0.018 C 
HETATM    9  C   UNL     1      22.304 -37.403  14.226  1.00  0.00     0.125 C 
HETATM   10  C   UNL     1      18.789 -36.137   9.261  1.00  0.00     0.017 C 
HETATM   11  C   UNL     1      19.127 -38.397  15.799  1.00  0.00     0.003 C 
HETATM   12  C   UNL     1      20.364 -37.985  11.185  1.00  0.00     0.037 C 
HETATM   13  C   UNL     1      18.984 -38.729  14.317  1.00  0.00     0.031 C 
HETATM   14  C   UNL     1      22.235 -37.805  12.765  1.00  0.00     0.039 C 
HETATM   15  C   UNL     1      18.532 -36.423  10.591  1.00  0.00    -0.011 C 
HETATM   16  C   UNL     1      17.178 -34.383   9.483  1.00  0.00     0.245 C 
HETATM   17  C   UNL     1      18.023 -35.417  11.395  1.00  0.00     0.038 C 
HETATM   18  C   UNL     1      20.862 -37.243  14.713  1.00  0.00     0.043 C 
HETATM   19  C   UNL     1      18.074 -35.101   8.679  1.00  0.00     0.075 C 
HETATM   20  C   UNL     1      18.909 -37.586  11.438  1.00  0.00     0.116 C 
ENDROOT
BRANCH   9  21
HETATM   21  O   UNL     1      23.065 -38.335  14.978  1.00  0.00    -0.395 OA
ATOM     22  HO  UNL     1      23.943 -38.422  14.626  1.00  0.00     0.210 HD
ENDBRANCH   9  21
TORSDOF 1
ENDMDL
MODEL 3
REMARK VINA RESULT:      -7.1      3.793      5.860
REMARK  1 active torsions:
REMARK  status: ('A' for Active; 'I' for Inactive)
REMARK    1  A    between atoms: C_9  and  O_21 
ROOT
HETATM    1  N   UNL     1      18.364 -36.275   7.546  1.00  0.00    -0.325 N 
ATOM      2  HN  UNL     1      18.344 -36.927   6.761  1.00  0.00     0.169 HD
HETATM    3  C   UNL     1      20.081 -40.836  12.722  1.00  0.00     0.010 C 
HETATM    4  O   UNL     1      18.540 -34.360   6.392  1.00  0.00    -0.268 OA
HETATM    5  C   UNL     1      19.326 -38.014   9.192  1.00  0.00     0.176 C 
HETATM    6  C   UNL     1      19.437 -38.659  11.853  1.00  0.00     0.038 C 
HETATM    7  N   UNL     1      19.356 -37.826  10.651  1.00  0.00    -0.389 N 
HETATM    8  C   UNL     1      18.687 -37.821  12.911  1.00  0.00     0.018 C 
HETATM    9  C   UNL     1      17.740 -40.057  13.012  1.00  0.00     0.125 C 
HETATM   10  C   UNL     1      17.663 -34.784   9.725  1.00  0.00     0.017 C 
HETATM   11  C   UNL     1      21.271 -40.245  11.989  1.00  0.00     0.003 C 
HETATM   12  C   UNL     1      18.253 -36.528  12.217  1.00  0.00     0.037 C 
HETATM   13  C   UNL     1      20.950 -38.760  12.116  1.00  0.00     0.031 C 
HETATM   14  C   UNL     1      17.409 -38.594  13.241  1.00  0.00     0.039 C 
HETATM   15  C   UNL     1      18.548 -35.842   9.853  1.00  0.00    -0.011 C 
HETATM   16  C   UNL     1      18.025 -34.964   7.368  1.00  0.00     0.245 C 
HETATM   17  C   UNL     1      18.722 -36.690   8.771  1.00  0.00     0.038 C 
HETATM   18  C   UNL     1      18.927 -40.100  12.048  1.00  0.00     0.043 C 
HETATM   19  C   UNL     1      17.410 -34.313   8.446  1.00  0.00     0.075 C 
HETATM   20  C   UNL     1      19.227 -36.418  11.043  1.00  0.00     0.116 C 
ENDROOT
BRANCH   9  21
HETATM   21  O   UNL     1      17.972 -40.726  14.242  1.00  0.00    -0.395 OA
ATOM     22  HO  UNL     1      17.233 -41.273  14.478  1.00  0.00     0.210 HD
ENDBRANCH   9  21
TORSDOF 1
ENDMDL
MODEL 4
REMARK VINA RESULT:      -6.9      3.543      6.045
REMARK  1 active torsions:
REMARK  status: ('A' for Active; 'I' for Inactive)
REMARK    1  A    between atoms: C_9  and  O_21 
ROOT
HETATM    1  N   UNL     1      18.820 -36.288   8.645  1.00  0.00    -0.325 N 
ATOM      2  HN  UNL     1      19.400 -37.004   8.207  1.00  0.00     0.169 HD
HETATM    3  C   UNL     1      19.540 -38.292  15.429  1.00  0.00     0.010 C 
HETATM    4  O   UNL     1      18.784 -34.804   6.965  1.00  0.00    -0.268 OA
HETATM    5  C   UNL     1      19.493 -36.964  11.044  1.00  0.00     0.176 C 
HETATM    6  C   UNL     1      18.612 -36.934  13.638  1.00  0.00     0.038 C 
HETATM    7  N   UNL     1      18.786 -36.504  12.249  1.00  0.00    -0.389 N 
HETATM    8  C   UNL     1      17.216 -36.385  14.003  1.00  0.00     0.018 C 
HETATM    9  C   UNL     1      17.221 -38.728  14.651  1.00  0.00     0.125 C 
HETATM   10  C   UNL     1      16.715 -34.942   9.750  1.00  0.00     0.017 C 
HETATM   11  C   UNL     1      20.622 -37.348  14.938  1.00  0.00     0.003 C 
HETATM   12  C   UNL     1      16.703 -35.639  12.769  1.00  0.00     0.037 C 
HETATM   13  C   UNL     1      19.759 -36.222  14.378  1.00  0.00     0.031 C 
HETATM   14  C   UNL     1      16.312 -37.606  14.186  1.00  0.00     0.039 C 
HETATM   15  C   UNL     1      17.764 -35.377  10.543  1.00  0.00    -0.011 C 
HETATM   16  C   UNL     1      18.145 -35.378   7.883  1.00  0.00     0.245 C 
HETATM   17  C   UNL     1      18.707 -36.222   9.982  1.00  0.00     0.038 C 
HETATM   18  C   UNL     1      18.639 -38.369  14.200  1.00  0.00     0.043 C 
HETATM   19  C   UNL     1      16.917 -34.918   8.379  1.00  0.00     0.075 C 
HETATM   20  C   UNL     1      17.987 -35.297  12.011  1.00  0.00     0.116 C 
ENDROOT
BRANCH   9  21
HETATM   21  O   UNL     1      17.098 -38.939  16.049  1.00  0.00    -0.395 OA
ATOM     22  HO  UNL     1      16.428 -39.585  16.239  1.00  0.00     0.210 HD
ENDBRANCH   9  21
TORSDOF 1
ENDMDL
MODEL 5
REMARK VINA RESULT:      -6.6      4.126      6.244
REMARK  1 active torsions:
REMARK  status: ('A' for Active; 'I' for Inactive)
REMARK    1  A    between atoms: C_9  and  O_21 
ROOT
HETATM    1  N   UNL     1      17.464 -41.814  12.642  1.00  0.00    -0.325 N 
ATOM      2  HN  UNL     1      16.650 -41.968  13.237  1.00  0.00     0.169 HD
HETATM    3  C   UNL     1      17.997 -34.757  13.320  1.00  0.00     0.010 C 
HETATM    4  O   UNL     1      18.258 -43.911  12.601  1.00  0.00    -0.268 OA
HETATM    5  C   UNL     1      17.690 -39.328  13.299  1.00  0.00     0.176 C 
HETATM    6  C   UNL     1      18.618 -36.916  12.391  1.00  0.00     0.038 C 
HETATM    7  N   UNL     1      18.534 -38.367  12.573  1.00  0.00    -0.389 N 
HETATM    8  C   UNL     1      19.236 -36.775  10.983  1.00  0.00     0.018 C 
HETATM    9  C   UNL     1      17.273 -35.341  11.017  1.00  0.00     0.125 C 
HETATM   10  C   UNL     1      19.076 -41.266  10.505  1.00  0.00     0.017 C 
HETATM   11  C   UNL     1      18.726 -35.545  14.393  1.00  0.00     0.003 C 
HETATM   12  C   UNL     1      19.489 -38.195  10.472  1.00  0.00     0.037 C 
HETATM   13  C   UNL     1      19.566 -36.470  13.519  1.00  0.00     0.031 C 
HETATM   14  C   UNL     1      18.142 -36.176  10.096  1.00  0.00     0.039 C 
HETATM   15  C   UNL     1      18.967 -40.366  11.552  1.00  0.00    -0.011 C 
HETATM   16  C   UNL     1      18.034 -42.852  11.960  1.00  0.00     0.245 C 
HETATM   17  C   UNL     1      17.995 -40.588  12.513  1.00  0.00     0.038 C 
HETATM   18  C   UNL     1      17.475 -35.883  12.434  1.00  0.00     0.043 C 
HETATM   19  C   UNL     1      18.617 -42.556  10.721  1.00  0.00     0.075 C 
HETATM   20  C   UNL     1      19.564 -39.020  11.758  1.00  0.00     0.116 C 
ENDROOT
BRANCH   9  21
HETATM   21  O   UNL     1      17.567 -33.959  10.882  1.00  0.00    -0.395 OA
ATOM     22  HO  UNL     1      17.313 -33.478  11.661  1.00  0.00     0.210 HD
ENDBRANCH   9  21
TORSDOF 1
ENDMDL
MODEL 6
REMARK VINA RESULT:      -6.6      3.022      3.737
REMARK  1 active torsions:
REMARK  status: ('A' for Active; 'I' for Inactive)
REMARK    1  A    between atoms: C_9  and  O_21 
ROOT
HETATM    1  N   UNL     1      15.075 -38.071  14.177  1.00  0.00    -0.325 N 
ATOM      2  HN  UNL     1      14.117 -38.194  13.849  1.00  0.00     0.169 HD
HETATM    3  C   UNL     1      17.714 -34.600   8.560  1.00  0.00     0.010 C 
HETATM    4  O   UNL     1      14.735 -38.420  16.365  1.00  0.00    -0.268 OA
HETATM    5  C   UNL     1      15.731 -36.529  12.213  1.00  0.00     0.176 C 
HETATM    6  C   UNL     1      17.875 -35.705  10.720  1.00  0.00     0.038 C 
HETATM    7  N   UNL     1      17.120 -36.176  11.883  1.00  0.00    -0.389 N 
HETATM    8  C   UNL     1      19.288 -36.280  10.962  1.00  0.00     0.018 C 
HETATM    9  C   UNL     1      18.684 -36.883   8.687  1.00  0.00     0.125 C 
HETATM   10  C   UNL     1      17.746 -38.414  14.635  1.00  0.00     0.017 C 
HETATM   11  C   UNL     1      17.069 -33.704   9.603  1.00  0.00     0.003 C 
HETATM   12  C   UNL     1      19.232 -37.029  12.296  1.00  0.00     0.037 C 
HETATM   13  C   UNL     1      17.811 -34.173  10.850  1.00  0.00     0.031 C 
HETATM   14  C   UNL     1      19.512 -37.333   9.875  1.00  0.00     0.039 C 
HETATM   15  C   UNL     1      17.301 -37.397  13.807  1.00  0.00    -0.011 C 
HETATM   16  C   UNL     1      15.477 -38.606  15.367  1.00  0.00     0.245 C 
HETATM   17  C   UNL     1      15.964 -37.380  13.445  1.00  0.00     0.038 C 
HETATM   18  C   UNL     1      17.586 -35.965   9.229  1.00  0.00     0.043 C 
HETATM   19  C   UNL     1      16.812 -39.023  15.459  1.00  0.00     0.075 C 
HETATM   20  C   UNL     1      18.040 -36.385  13.007  1.00  0.00     0.116 C 
ENDROOT
BRANCH   9  21
HETATM   21  O   UNL     1      19.501 -36.280   7.695  1.00  0.00    -0.395 OA
ATOM     22  HO  UNL     1      19.396 -36.713   6.856  1.00  0.00     0.210 HD
ENDBRANCH   9  21
TORSDOF 1
ENDMDL
MODEL 7
REMARK VINA RESULT:      -6.5      3.827      5.891
REMARK  1 active torsions:
REMARK  status: ('A' for Active; 'I' for Inactive)
REMARK    1  A    between atoms: C_9  and  O_21 
ROOT
HETATM    1  N   UNL     1      15.861 -34.989  10.559  1.00  0.00    -0.325 N 
ATOM      2  HN  UNL     1      15.030 -34.581  10.990  1.00  0.00     0.169 HD
HETATM    3  C   UNL     1      18.080 -38.969  16.017  1.00  0.00     0.010 C 
HETATM    4  O   UNL     1      15.356 -34.600   8.410  1.00  0.00    -0.268 OA
HETATM    5  C   UNL     1      16.289 -36.615  12.518  1.00  0.00     0.176 C 
HETATM    6  C   UNL     1      18.275 -38.006  13.794  1.00  0.00     0.038 C 
HETATM    7  N   UNL     1      17.545 -37.357  12.702  1.00  0.00    -0.389 N 
HETATM    8  C   UNL     1      19.750 -37.880  13.354  1.00  0.00     0.018 C 
HETATM    9  C   UNL     1      19.648 -37.078  15.646  1.00  0.00     0.125 C 
HETATM   10  C   UNL     1      18.433 -35.461   9.771  1.00  0.00     0.017 C 
HETATM   11  C   UNL     1      17.074 -39.655  15.112  1.00  0.00     0.003 C 
HETATM   12  C   UNL     1      19.742 -37.176  11.994  1.00  0.00     0.037 C 
HETATM   13  C   UNL     1      17.752 -39.453  13.761  1.00  0.00     0.031 C 
HETATM   14  C   UNL     1      20.409 -36.917  14.344  1.00  0.00     0.039 C 
HETATM   15  C   UNL     1      17.822 -36.284  10.702  1.00  0.00    -0.011 C 
HETATM   16  C   UNL     1      16.243 -34.621   9.301  1.00  0.00     0.245 C 
HETATM   17  C   UNL     1      16.598 -35.897  11.220  1.00  0.00     0.038 C 
HETATM   18  C   UNL     1      18.270 -37.641  15.291  1.00  0.00     0.043 C 
HETATM   19  C   UNL     1      17.618 -34.620   9.028  1.00  0.00     0.075 C 
HETATM   20  C   UNL     1      18.333 -37.452  11.467  1.00  0.00     0.116 C 
ENDROOT
BRANCH   9  21
HETATM   21  O   UNL     1      20.376 -37.875  16.568  1.00  0.00    -0.395 OA
ATOM     22  HO  UNL     1      20.828 -37.335  17.204  1.00  0.00     0.210 HD
ENDBRANCH   9  21
TORSDOF 1
ENDMDL
MODEL 8
REMARK VINA RESULT:      -6.2      7.209     10.147
REMARK  1 active torsions:
REMARK  status: ('A' for Active; 'I' for Inactive)
REMARK    1  A    between atoms: C_9  and  O_21 
ROOT
HETATM    1  N   UNL     1      25.799 -37.062  15.188  1.00  0.00    -0.325 N 
ATOM      2  HN  UNL     1      26.162 -36.205  14.770  1.00  0.00     0.169 HD
HETATM    3  C   UNL     1      19.097 -36.667  12.848  1.00  0.00     0.010 C 
HETATM    4  O   UNL     1      27.747 -38.097  15.588  1.00  0.00    -0.268 OA
HETATM    5  C   UNL     1      23.537 -36.909  13.955  1.00  0.00     0.176 C 
HETATM    6  C   UNL     1      20.905 -37.649  14.142  1.00  0.00     0.038 C 
HETATM    7  N   UNL     1      22.359 -37.715  14.310  1.00  0.00    -0.389 N 
HETATM    8  C   UNL     1      20.375 -38.414  15.375  1.00  0.00     0.018 C 
HETATM    9  C   UNL     1      19.167 -36.306  15.305  1.00  0.00     0.125 C 
HETATM   10  C   UNL     1      24.613 -38.847  16.881  1.00  0.00     0.017 C 
HETATM   11  C   UNL     1      20.056 -37.347  11.887  1.00  0.00     0.003 C 
HETATM   12  C   UNL     1      21.602 -38.894  16.153  1.00  0.00     0.037 C 
HETATM   13  C   UNL     1      20.666 -38.392  12.816  1.00  0.00     0.031 C 
HETATM   14  C   UNL     1      19.676 -37.374  16.254  1.00  0.00     0.039 C 
HETATM   15  C   UNL     1      24.006 -38.505  15.685  1.00  0.00    -0.011 C 
HETATM   16  C   UNL     1      26.588 -37.830  15.996  1.00  0.00     0.245 C 
HETATM   17  C   UNL     1      24.537 -37.456  14.953  1.00  0.00     0.038 C 
HETATM   18  C   UNL     1      20.016 -36.395  14.035  1.00  0.00     0.043 C 
HETATM   19  C   UNL     1      25.952 -38.522  17.036  1.00  0.00     0.075 C 
HETATM   20  C   UNL     1      22.704 -38.909  15.092  1.00  0.00     0.116 C 
ENDROOT
BRANCH   9  21
HETATM   21  O   UNL     1      17.773 -36.449  15.076  1.00  0.00    -0.395 OA
ATOM     22  HO  UNL     1      17.389 -35.629  14.788  1.00  0.00     0.210 HD
ENDBRANCH   9  21
TORSDOF 1
ENDMDL
MODEL 9
REMARK VINA RESULT:      -6.1      5.806      7.749
REMARK  1 active torsions:
REMARK  status: ('A' for Active; 'I' for Inactive)
REMARK    1  A    between atoms: C_9  and  O_21 
ROOT
HETATM    1  N   UNL     1      18.606 -35.712  13.563  1.00  0.00    -0.325 N 
ATOM      2  HN  UNL     1      18.425 -35.023  14.293  1.00  0.00     0.169 HD
HETATM    3  C   UNL     1      24.874 -38.141  15.878  1.00  0.00     0.010 C 
HETATM    4  O   UNL     1      16.520 -35.924  12.770  1.00  0.00    -0.268 OA
HETATM    5  C   UNL     1      20.676 -36.688  14.757  1.00  0.00     0.176 C 
HETATM    6  C   UNL     1      23.039 -37.994  14.291  1.00  0.00     0.038 C 
HETATM    7  N   UNL     1      21.645 -37.583  14.106  1.00  0.00    -0.389 N 
HETATM    8  C   UNL     1      23.498 -38.330  12.855  1.00  0.00     0.018 C 
HETATM    9  C   UNL     1      25.182 -36.843  13.782  1.00  0.00     0.125 C 
HETATM   10  C   UNL     1      19.491 -36.945  11.291  1.00  0.00     0.017 C 
HETATM   11  C   UNL     1      23.671 -38.847  16.475  1.00  0.00     0.003 C 
HETATM   12  C   UNL     1      22.287 -38.106  11.945  1.00  0.00     0.037 C 
HETATM   13  C   UNL     1      22.929 -39.231  15.199  1.00  0.00     0.031 C 
HETATM   14  C   UNL     1      24.533 -37.268  12.479  1.00  0.00     0.039 C 
HETATM   15  C   UNL     1      20.022 -37.281  12.525  1.00  0.00    -0.011 C 
HETATM   16  C   UNL     1      17.747 -35.851  12.509  1.00  0.00     0.245 C 
HETATM   17  C   UNL     1      19.692 -36.499  13.620  1.00  0.00     0.038 C 
HETATM   18  C   UNL     1      24.197 -37.183  14.903  1.00  0.00     0.043 C 
HETATM   19  C   UNL     1      18.304 -36.228  11.279  1.00  0.00     0.075 C 
HETATM   20  C   UNL     1      21.103 -38.229  12.905  1.00  0.00     0.116 C 
ENDROOT
BRANCH   9  21
HETATM   21  O   UNL     1      26.459 -37.444  13.936  1.00  0.00    -0.395 OA
ATOM     22  HO  UNL     1      26.623 -37.669  14.844  1.00  0.00     0.210 HD
ENDBRANCH   9  21
TORSDOF 1
ENDMDL
