REMARK  4 active torsions:
REMARK  status: ('A' for Active; 'I' for Inactive)
REMARK    1  A    between atoms: C_5  and  C_6 
REMARK    2  A    between atoms: C_5  and  C_9 
REMARK    3  A    between atoms: C_7  and  C_9 
REMARK    4  A    between atoms: O_10  and  C_13 
ROOT
HETATM    1  C   UNL     1     -29.679  -1.103 -15.542  1.00  0.00     0.043 C 
HETATM    2  C   UNL     1     -28.975  -0.639 -13.284  1.00  0.00     0.048 C 
HETATM    3  C   UNL     1     -30.322  -1.356 -13.290  1.00  0.00     0.016 C 
HETATM    4  C   UNL     1     -28.452  -0.901 -14.674  1.00  0.00    -0.018 C 
HETATM    5  C   UNL     1     -29.366   0.848 -13.348  1.00  0.00     0.127 C 
HETATM    6  C   UNL     1     -30.805  -0.670 -14.576  1.00  0.00    -0.007 C 
HETATM    7  C   UNL     1     -30.546   0.829 -14.332  1.00  0.00     0.037 C 
ENDROOT
BRANCH   4   8
HETATM    8  C   UNL     1     -27.118  -1.415 -14.994  1.00  0.00     0.231 C 
HETATM    9  O   UNL     1     -26.302  -1.535 -14.082  1.00  0.00    -0.284 OA
BRANCH   8  10
HETATM   10  C   UNL     1     -26.903  -2.204 -16.257  1.00  0.00     0.297 C 
HETATM   11  O   UNL     1     -27.557  -3.206 -16.481  1.00  0.00    -0.277 OA
BRANCH  10  12
HETATM   12  C   UNL     1     -25.663  -1.837 -17.044  1.00  0.00     0.255 C 
HETATM   13  O   UNL     1     -25.462  -0.653 -17.359  1.00  0.00    -0.641 OA
HETATM   14  O   UNL     1     -24.854  -2.722 -17.314  1.00  0.00    -0.641 OA
ENDBRANCH  10  12
ENDBRANCH   8  10
ENDBRANCH   4   8
BRANCH   5  15
HETATM   15  O   UNL     1     -29.851   1.290 -12.096  1.00  0.00    -0.395 OA
ATOM     16  HO  UNL     1     -30.092   2.208 -12.136  1.00  0.00     0.210 HD
ENDBRANCH   5  15
TORSDOF 4
