MODEL 1
REMARK VINA RESULT:      -5.1      0.000      0.000
REMARK  2 active torsions:
REMARK  status: ('A' for Active; 'I' for Inactive)
REMARK    1  A    between atoms: C_3  and  C_7 
REMARK    2  A    between atoms: C_4  and  C_9 
ROOT
HETATM    1  C   UNL     1      40.527  21.501 -10.760  1.00  0.00     0.266 C 
HETATM    2  C   UNL     1      38.752  22.868 -11.329  1.00  0.00     0.151 C 
HETATM    3  C   UNL     1      38.671  23.335 -10.037  1.00  0.00     0.008 C 
HETATM    4  C   UNL     1      39.727  23.058  -9.183  1.00  0.00     0.151 C 
HETATM    5  C   UNL     1      40.904  20.055 -10.835  1.00  0.00     0.071 C 
HETATM    6  O   UNL     1      40.668  22.142  -9.557  1.00  0.00    -0.332 OA
HETATM    7  O   UNL     1      39.735  22.003 -11.718  1.00  0.00    -0.332 OA
ENDROOT
BRANCH   3   8
HETATM    8  C   UNL     1      37.575  24.216  -9.651  1.00  0.00     0.022 C 
HETATM    9  C   UNL     1      36.523  24.615 -10.317  1.00  0.00     0.085 C 
BRANCH   9  10
HETATM   10  C   UNL     1      36.018  26.006 -10.033  1.00  0.00     0.198 C 
HETATM   11  O   UNL     1      36.871  26.870  -9.651  1.00  0.00    -0.645 OA
HETATM   12  O   UNL     1      34.818  26.222 -10.234  1.00  0.00    -0.645 OA
ENDBRANCH   9  10
ENDBRANCH   3   8
TORSDOF 2
ENDMDL
MODEL 2
REMARK VINA RESULT:      -4.9      1.496      2.323
REMARK  2 active torsions:
REMARK  status: ('A' for Active; 'I' for Inactive)
REMARK    1  A    between atoms: C_3  and  C_7 
REMARK    2  A    between atoms: C_4  and  C_9 
ROOT
HETATM    1  C   UNL     1      38.731  22.130 -10.162  1.00  0.00     0.266 C 
HETATM    2  C   UNL     1      38.201  23.958  -8.850  1.00  0.00     0.151 C 
HETATM    3  C   UNL     1      37.313  24.408  -9.800  1.00  0.00     0.008 C 
HETATM    4  C   UNL     1      36.956  23.536 -10.815  1.00  0.00     0.151 C 
HETATM    5  C   UNL     1      39.943  21.485 -10.756  1.00  0.00     0.071 C 
HETATM    6  O   UNL     1      37.666  22.382 -10.987  1.00  0.00    -0.332 OA
HETATM    7  O   UNL     1      38.860  22.770  -8.990  1.00  0.00    -0.332 OA
ENDROOT
BRANCH   3   8
HETATM    8  C   UNL     1      36.670  25.708  -9.635  1.00  0.00     0.022 C 
HETATM    9  C   UNL     1      35.518  26.152 -10.063  1.00  0.00     0.085 C 
BRANCH   9  10
HETATM   10  C   UNL     1      35.438  27.613 -10.425  1.00  0.00     0.198 C 
HETATM   11  O   UNL     1      36.169  28.419  -9.764  1.00  0.00    -0.645 OA
HETATM   12  O   UNL     1      34.703  27.920 -11.369  1.00  0.00    -0.645 OA
ENDBRANCH   9  10
ENDBRANCH   3   8
TORSDOF 2
ENDMDL
MODEL 3
REMARK VINA RESULT:      -4.8      2.786      4.410
REMARK  2 active torsions:
REMARK  status: ('A' for Active; 'I' for Inactive)
REMARK    1  A    between atoms: C_3  and  C_7 
REMARK    2  A    between atoms: C_4  and  C_9 
ROOT
HETATM    1  C   UNL     1      37.653  22.997 -14.682  1.00  0.00     0.266 C 
HETATM    2  C   UNL     1      39.002  22.496 -12.872  1.00  0.00     0.151 C 
HETATM    3  C   UNL     1      37.932  22.616 -12.015  1.00  0.00     0.008 C 
HETATM    4  C   UNL     1      36.663  22.663 -12.569  1.00  0.00     0.151 C 
HETATM    5  C   UNL     1      37.606  23.973 -15.814  1.00  0.00     0.071 C 
HETATM    6  O   UNL     1      36.527  22.843 -13.916  1.00  0.00    -0.332 OA
HETATM    7  O   UNL     1      38.853  22.608 -14.225  1.00  0.00    -0.332 OA
ENDROOT
BRANCH   3   8
HETATM    8  C   UNL     1      38.144  22.541 -10.574  1.00  0.00     0.022 C 
HETATM    9  C   UNL     1      38.083  23.465  -9.651  1.00  0.00     0.085 C 
BRANCH   9  10
HETATM   10  C   UNL     1      39.030  23.336  -8.487  1.00  0.00     0.198 C 
HETATM   11  O   UNL     1      40.139  22.748  -8.699  1.00  0.00    -0.645 OA
HETATM   12  O   UNL     1      38.684  23.850  -7.418  1.00  0.00    -0.645 OA
ENDBRANCH   9  10
ENDBRANCH   3   8
TORSDOF 2
ENDMDL
MODEL 4
REMARK VINA RESULT:      -4.7      2.977      5.211
REMARK  2 active torsions:
REMARK  status: ('A' for Active; 'I' for Inactive)
REMARK    1  A    between atoms: C_3  and  C_7 
REMARK    2  A    between atoms: C_4  and  C_9 
ROOT
HETATM    1  C   UNL     1      36.875  23.640 -15.079  1.00  0.00     0.266 C 
HETATM    2  C   UNL     1      38.565  22.442 -14.053  1.00  0.00     0.151 C 
HETATM    3  C   UNL     1      37.953  22.588 -12.829  1.00  0.00     0.008 C 
HETATM    4  C   UNL     1      36.644  23.042 -12.811  1.00  0.00     0.151 C 
HETATM    5  C   UNL     1      36.720  24.841 -15.956  1.00  0.00     0.071 C 
HETATM    6  O   UNL     1      36.100  23.560 -13.952  1.00  0.00    -0.332 OA
HETATM    7  O   UNL     1      37.988  22.901 -15.202  1.00  0.00    -0.332 OA
ENDROOT
BRANCH   3   8
HETATM    8  C   UNL     1      38.629  22.130 -11.620  1.00  0.00     0.022 C 
HETATM    9  C   UNL     1      38.599  22.590 -10.397  1.00  0.00     0.085 C 
BRANCH   9  10
HETATM   10  C   UNL     1      39.864  22.469  -9.587  1.00  0.00     0.198 C 
HETATM   11  O   UNL     1      40.855  21.888 -10.136  1.00  0.00    -0.645 OA
HETATM   12  O   UNL     1      39.866  22.983  -8.464  1.00  0.00    -0.645 OA
ENDBRANCH   9  10
ENDBRANCH   3   8
TORSDOF 2
ENDMDL
MODEL 5
REMARK VINA RESULT:      -4.5      2.790      4.274
REMARK  2 active torsions:
REMARK  status: ('A' for Active; 'I' for Inactive)
REMARK    1  A    between atoms: C_3  and  C_7 
REMARK    2  A    between atoms: C_4  and  C_9 
ROOT
HETATM    1  C   UNL     1      37.687  22.480 -14.841  1.00  0.00     0.266 C 
HETATM    2  C   UNL     1      36.802  22.909 -12.749  1.00  0.00     0.151 C 
HETATM    3  C   UNL     1      38.005  22.607 -12.155  1.00  0.00     0.008 C 
HETATM    4  C   UNL     1      39.121  22.506 -12.971  1.00  0.00     0.151 C 
HETATM    5  C   UNL     1      37.395  21.626 -16.033  1.00  0.00     0.071 C 
HETATM    6  O   UNL     1      38.957  22.455 -14.326  1.00  0.00    -0.332 OA
HETATM    7  O   UNL     1      36.656  22.924 -14.107  1.00  0.00    -0.332 OA
ENDROOT
BRANCH   3   8
HETATM    8  C   UNL     1      38.104  22.552 -10.701  1.00  0.00     0.022 C 
HETATM    9  C   UNL     1      38.159  23.507  -9.810  1.00  0.00     0.085 C 
BRANCH   9  10
HETATM   10  C   UNL     1      38.986  23.248  -8.577  1.00  0.00     0.198 C 
HETATM   11  O   UNL     1      40.112  22.677  -8.739  1.00  0.00    -0.645 OA
HETATM   12  O   UNL     1      38.533  23.649  -7.500  1.00  0.00    -0.645 OA
ENDBRANCH   9  10
ENDBRANCH   3   8
TORSDOF 2
ENDMDL
MODEL 6
REMARK VINA RESULT:      -4.5      3.000      4.318
REMARK  2 active torsions:
REMARK  status: ('A' for Active; 'I' for Inactive)
REMARK    1  A    between atoms: C_3  and  C_7 
REMARK    2  A    between atoms: C_4  and  C_9 
ROOT
HETATM    1  C   UNL     1      38.686  22.733  -9.184  1.00  0.00     0.266 C 
HETATM    2  C   UNL     1      37.070  22.279 -10.773  1.00  0.00     0.151 C 
HETATM    3  C   UNL     1      37.940  22.617 -11.784  1.00  0.00     0.008 C 
HETATM    4  C   UNL     1      39.281  22.750 -11.464  1.00  0.00     0.151 C 
HETATM    5  C   UNL     1      38.857  23.577  -7.962  1.00  0.00     0.071 C 
HETATM    6  O   UNL     1      39.655  22.795 -10.151  1.00  0.00    -0.332 OA
HETATM    7  O   UNL     1      37.463  22.259  -9.465  1.00  0.00    -0.332 OA
ENDROOT
BRANCH   3   8
HETATM    8  C   UNL     1      37.464  22.676 -13.162  1.00  0.00     0.022 C 
HETATM    9  C   UNL     1      38.117  22.646 -14.294  1.00  0.00     0.085 C 
BRANCH   9  10
HETATM   10  C   UNL     1      37.549  23.451 -15.435  1.00  0.00     0.198 C 
HETATM   11  O   UNL     1      38.105  24.566 -15.695  1.00  0.00    -0.645 OA
HETATM   12  O   UNL     1      36.614  22.951 -16.067  1.00  0.00    -0.645 OA
ENDBRANCH   9  10
ENDBRANCH   3   8
TORSDOF 2
ENDMDL
MODEL 7
REMARK VINA RESULT:      -4.4      2.270      5.992
REMARK  2 active torsions:
REMARK  status: ('A' for Active; 'I' for Inactive)
REMARK    1  A    between atoms: C_3  and  C_7 
REMARK    2  A    between atoms: C_4  and  C_9 
ROOT
HETATM    1  C   UNL     1      37.973  24.149  -9.761  1.00  0.00     0.266 C 
HETATM    2  C   UNL     1      38.723  22.017  -9.273  1.00  0.00     0.151 C 
HETATM    3  C   UNL     1      39.576  22.049 -10.351  1.00  0.00     0.008 C 
HETATM    4  C   UNL     1      39.800  23.271 -10.963  1.00  0.00     0.151 C 
HETATM    5  C   UNL     1      36.680  24.855 -10.019  1.00  0.00     0.071 C 
HETATM    6  O   UNL     1      38.997  24.332 -10.653  1.00  0.00    -0.332 OA
HETATM    7  O   UNL     1      37.970  23.102  -8.923  1.00  0.00    -0.332 OA
ENDROOT
BRANCH   3   8
HETATM    8  C   UNL     1      40.323  20.851 -10.722  1.00  0.00     0.022 C 
HETATM    9  C   UNL     1      39.953  19.780 -11.373  1.00  0.00     0.085 C 
BRANCH   9  10
HETATM   10  C   UNL     1      40.593  18.477 -10.970  1.00  0.00     0.198 C 
HETATM   11  O   UNL     1      39.918  17.413 -11.157  1.00  0.00    -0.645 OA
HETATM   12  O   UNL     1      41.746  18.527 -10.530  1.00  0.00    -0.645 OA
ENDBRANCH   9  10
ENDBRANCH   3   8
TORSDOF 2
ENDMDL
MODEL 8
REMARK VINA RESULT:      -4.4      2.871      4.332
REMARK  2 active torsions:
REMARK  status: ('A' for Active; 'I' for Inactive)
REMARK    1  A    between atoms: C_3  and  C_7 
REMARK    2  A    between atoms: C_4  and  C_9 
ROOT
HETATM    1  C   UNL     1      38.495  21.334 -14.834  1.00  0.00     0.266 C 
HETATM    2  C   UNL     1      39.048  22.523 -12.930  1.00  0.00     0.151 C 
HETATM    3  C   UNL     1      38.732  21.444 -12.139  1.00  0.00     0.008 C 
HETATM    4  C   UNL     1      38.555  20.218 -12.759  1.00  0.00     0.151 C 
HETATM    5  C   UNL     1      37.599  21.468 -16.024  1.00  0.00     0.071 C 
HETATM    6  O   UNL     1      38.449  20.165 -14.120  1.00  0.00    -0.332 OA
HETATM    7  O   UNL     1      39.007  22.450 -14.294  1.00  0.00    -0.332 OA
ENDROOT
BRANCH   3   8
HETATM    8  C   UNL     1      38.738  21.581 -10.686  1.00  0.00     0.022 C 
HETATM    9  C   UNL     1      38.219  22.497  -9.912  1.00  0.00     0.085 C 
BRANCH   9  10
HETATM   10  C   UNL     1      38.965  22.828  -8.646  1.00  0.00     0.198 C 
HETATM   11  O   UNL     1      40.237  22.796  -8.693  1.00  0.00    -0.645 OA
HETATM   12  O   UNL     1      38.291  23.154  -7.663  1.00  0.00    -0.645 OA
ENDBRANCH   9  10
ENDBRANCH   3   8
TORSDOF 2
ENDMDL
MODEL 9
REMARK VINA RESULT:      -4.2      2.952      4.348
REMARK  2 active torsions:
REMARK  status: ('A' for Active; 'I' for Inactive)
REMARK    1  A    between atoms: C_3  and  C_7 
REMARK    2  A    between atoms: C_4  and  C_9 
ROOT
HETATM    1  C   UNL     1      38.183  21.180 -14.855  1.00  0.00     0.266 C 
HETATM    2  C   UNL     1      37.967  20.503 -12.655  1.00  0.00     0.151 C 
HETATM    3  C   UNL     1      38.700  21.586 -12.228  1.00  0.00     0.008 C 
HETATM    4  C   UNL     1      38.932  22.607 -13.135  1.00  0.00     0.151 C 
HETATM    5  C   UNL     1      38.662  20.630 -16.160  1.00  0.00     0.071 C 
HETATM    6  O   UNL     1      38.657  22.403 -14.457  1.00  0.00    -0.332 OA
HETATM    7  O   UNL     1      37.635  20.334 -13.969  1.00  0.00    -0.332 OA
ENDROOT
BRANCH   3   8
HETATM    8  C   UNL     1      39.078  21.699 -10.823  1.00  0.00     0.022 C 
HETATM    9  C   UNL     1      38.375  22.035  -9.774  1.00  0.00     0.085 C 
BRANCH   9  10
HETATM   10  C   UNL     1      39.090  22.788  -8.681  1.00  0.00     0.198 C 
HETATM   11  O   UNL     1      40.361  22.842  -8.746  1.00  0.00    -0.645 OA
HETATM   12  O   UNL     1      38.391  23.338  -7.824  1.00  0.00    -0.645 OA
ENDBRANCH   9  10
ENDBRANCH   3   8
TORSDOF 2
ENDMDL
