REMARK  3 active torsions:
REMARK  status: ('A' for Active; 'I' for Inactive)
REMARK    1  A    between atoms: C_3  and  N_17 
REMARK    2  A    between atoms: C_10  and  C_28 
REMARK       I    between atoms: N_16  and  C_28 
REMARK       I    between atoms: N_17  and  C_23 
REMARK    3  A    between atoms: C_22  and  C_34 
ROOT
HETATM    1  C   UNL     1      19.822  29.437  15.625  1.00  0.00     0.013 C 
HETATM    2  C   UNL     1      19.019  30.846  13.851  1.00  0.00     0.013 C 
HETATM    3  C   UNL     1      21.230  31.107  14.677  1.00  0.00     0.032 C 
HETATM    4  C   UNL     1      19.140  29.557  14.411  1.00  0.00    -0.026 C 
HETATM    5  C   UNL     1      20.143  31.687  14.003  1.00  0.00     0.018 C 
HETATM    6  C   UNL     1      20.946  30.263  15.768  1.00  0.00     0.018 C 
ENDROOT
BRANCH   3   7
HETATM    7  C   UNL     1      22.606  31.212  14.217  1.00  0.00     0.261 C 
HETATM    8  N   UNL     1      23.127  30.172  13.465  1.00  0.00    -0.299 N 
HETATM    9  C   UNL     1      22.397  29.631  12.423  1.00  0.00     0.113 C 
HETATM   10  C   UNL     1      24.393  29.718  13.686  1.00  0.00     0.102 C 
HETATM   11  C   UNL     1      22.914  28.522  11.715  1.00  0.00     0.007 C 
HETATM   12  C   UNL     1      24.297  28.271  11.778  1.00  0.00     0.045 C 
HETATM   13  C   UNL     1      22.127  27.595  11.029  1.00  0.00     0.029 C 
HETATM   14  C   UNL     1      25.034  28.860  12.824  1.00  0.00     0.048 C 
HETATM   15  N   UNL     1      24.886  27.358  10.966  1.00  0.00    -0.355 N 
HETATM   16  C   UNL     1      24.112  26.355  10.485  1.00  0.00     0.043 C 
ATOM     17  HN  UNL     1      25.875  27.424  10.726  1.00  0.00     0.166 HD
HETATM   18  C   UNL     1      22.712  26.491  10.414  1.00  0.00    -0.009 C 
HETATM   19  C   UNL     1      24.694  25.115  10.171  1.00  0.00     0.030 C 
HETATM   20  C   UNL     1      21.977  25.521   9.721  1.00  0.00     0.014 C 
HETATM   21  C   UNL     1      22.592  24.375   9.239  1.00  0.00     0.001 C 
HETATM   22  C   UNL     1      23.938  24.158   9.507  1.00  0.00     0.002 C 
HETATM   23  O   UNL     1      23.309  32.175  14.492  1.00  0.00    -0.267 OA
ENDBRANCH   3   7
BRANCH   4  24
HETATM   24  C   UNL     1      18.767  28.424  13.702  1.00  0.00    -0.026 C 
HETATM   25  C   UNL     1      19.469  27.230  13.875  1.00  0.00     0.014 C 
HETATM   26  C   UNL     1      19.560  26.342  12.801  1.00  0.00     0.030 C 
HETATM   27  C   UNL     1      18.896  26.654  11.615  1.00  0.00     0.037 C 
HETATM   28  C   UNL     1      17.865  27.592  11.643  1.00  0.00     0.030 C 
HETATM   29  C   UNL     1      17.776  28.473  12.723  1.00  0.00     0.014 C 
BRANCH  27  30
HETATM   30  N   UNL     1      19.302  26.088  10.430  1.00  0.00    -0.301 N 
HETATM   31  C   UNL     1      18.670  25.039   9.842  1.00  0.00     0.288 C 
HETATM   32  O   UNL     1      18.492  25.108   8.598  1.00  0.00    -0.629 OA
HETATM   33  O   UNL     1      18.326  24.062  10.523  1.00  0.00    -0.629 OA
ATOM     34  HN  UNL     1      20.123  26.477   9.967  1.00  0.00     0.172 HD
ENDBRANCH  27  30
ENDBRANCH   4  24
TORSDOF 3
