MODEL 1
REMARK VINA RESULT:     -10.8      0.000      0.000
REMARK  4 active torsions:
REMARK  status: ('A' for Active; 'I' for Inactive)
REMARK       I    between atoms: C_8  and  N_9 
REMARK    1  A    between atoms: C_8  and  C_27 
REMARK    2  A    between atoms: C_14  and  C_33 
REMARK    3  A    between atoms: C_15  and  C_16 
REMARK    4  A    between atoms: C_26  and  O_30 
ROOT
HETATM    1  C   UNL     1      22.376  32.240  13.846  1.00  0.00    -0.015 C 
HETATM    2  C   UNL     1      21.522  34.512  15.303  1.00  0.00     0.001 C 
HETATM    3  C   UNL     1      23.007  33.492  13.664  1.00  0.00     0.013 C 
HETATM    4  C   UNL     1      22.561  34.620  14.377  1.00  0.00     0.001 C 
HETATM    5  C   UNL     1      21.106  32.252  14.555  1.00  0.00    -0.015 C 
HETATM    6  C   UNL     1      20.881  33.285  15.484  1.00  0.00     0.013 C 
ENDROOT
BRANCH   1   7
HETATM    7  C   UNL     1      23.023  30.996  13.325  1.00  0.00    -0.023 C 
HETATM    8  C   UNL     1      22.360  30.148  12.423  1.00  0.00     0.042 C 
HETATM    9  C   UNL     1      22.897  28.891  12.068  1.00  0.00     0.043 C 
HETATM   10  C   UNL     1      24.277  28.595  12.406  1.00  0.00    -0.009 C 
HETATM   11  N   UNL     1      22.155  27.958  11.353  1.00  0.00    -0.358 N 
HETATM   12  C   UNL     1      24.946  27.540  11.686  1.00  0.00     0.023 C 
HETATM   13  C   UNL     1      24.895  29.406  13.387  1.00  0.00     0.014 C 
HETATM   14  C   UNL     1      24.191  26.804  10.742  1.00  0.00    -0.034 C 
HETATM   15  C   UNL     1      22.755  26.845  10.816  1.00  0.00     0.022 C 
HETATM   16  C   UNL     1      24.911  25.761   9.920  1.00  0.00     0.043 C 
HETATM   17  C   UNL     1      21.893  25.777  10.133  1.00  0.00     0.061 C 
HETATM   18  C   UNL     1      21.367  24.779  11.184  1.00  0.00     0.019 C 
HETATM   19  C   UNL     1      22.612  24.900   9.104  1.00  0.00     0.128 C 
HETATM   20  C   UNL     1      24.105  24.995   8.907  1.00  0.00     0.037 C 
HETATM   21  C   UNL     1      24.324  30.623  13.777  1.00  0.00     0.013 C 
ATOM     22  HN  UNL     1      21.153  28.101  11.226  1.00  0.00     0.166 HD
BRANCH  19  23
HETATM   23  O   UNL     1      21.901  24.590   7.934  1.00  0.00    -0.395 OA
ATOM     24  HO  UNL     1      21.475  23.741   7.906  1.00  0.00     0.210 HD
ENDBRANCH  19  23
ENDBRANCH   1   7
BRANCH   5  25
HETATM   25  C   UNL     1      19.985  31.326  14.291  1.00  0.00    -0.025 C 
HETATM   26  C   UNL     1      19.806  30.167  15.095  1.00  0.00     0.012 C 
HETATM   27  C   UNL     1      19.671  28.929  14.452  1.00  0.00     0.002 C 
HETATM   28  C   UNL     1      18.862  28.724  13.339  1.00  0.00     0.017 C 
HETATM   29  C   UNL     1      17.825  29.567  12.934  1.00  0.00     0.031 C 
HETATM   30  C   UNL     1      18.021  30.928  12.739  1.00  0.00     0.018 C 
HETATM   31  C   UNL     1      19.076  31.647  13.285  1.00  0.00     0.013 C 
BRANCH  29  32
HETATM   32  C   UNL     1      16.537  28.889  12.617  1.00  0.00     0.249 C 
HETATM   33  N   UNL     1      15.416  29.601  12.603  1.00  0.00    -0.366 N 
ATOM     34  HN2 UNL     1      14.534  29.136  12.385  1.00  0.00     0.159 HD
ATOM     35  HN1 UNL     1      15.409  30.600  12.807  1.00  0.00     0.159 HD
HETATM   36  O   UNL     1      16.545  27.678  12.370  1.00  0.00    -0.268 OA
ENDBRANCH  29  32
ENDBRANCH   5  25
TORSDOF 4
ENDMDL
MODEL 2
REMARK VINA RESULT:     -10.5      0.965      1.112
REMARK  4 active torsions:
REMARK  status: ('A' for Active; 'I' for Inactive)
REMARK       I    between atoms: C_8  and  N_9 
REMARK    1  A    between atoms: C_8  and  C_27 
REMARK    2  A    between atoms: C_14  and  C_33 
REMARK    3  A    between atoms: C_15  and  C_16 
REMARK    4  A    between atoms: C_26  and  O_30 
ROOT
HETATM    1  C   UNL     1      21.751  33.090  14.389  1.00  0.00    -0.015 C 
HETATM    2  C   UNL     1      20.811  35.184  16.047  1.00  0.00     0.001 C 
HETATM    3  C   UNL     1      22.308  34.387  14.299  1.00  0.00     0.013 C 
HETATM    4  C   UNL     1      21.819  35.426  15.111  1.00  0.00     0.001 C 
HETATM    5  C   UNL     1      20.501  32.973  15.123  1.00  0.00    -0.015 C 
HETATM    6  C   UNL     1      20.243  33.912  16.138  1.00  0.00     0.013 C 
ENDROOT
BRANCH   1   7
HETATM    7  C   UNL     1      22.452  31.931  13.754  1.00  0.00    -0.023 C 
HETATM    8  C   UNL     1      21.770  31.030  12.921  1.00  0.00     0.042 C 
HETATM    9  C   UNL     1      22.386  29.843  12.464  1.00  0.00     0.043 C 
HETATM   10  C   UNL     1      23.821  29.694  12.613  1.00  0.00    -0.009 C 
HETATM   11  N   UNL     1      21.659  28.846  11.824  1.00  0.00    -0.358 N 
HETATM   12  C   UNL     1      24.498  28.729  11.783  1.00  0.00     0.023 C 
HETATM   13  C   UNL     1      24.474  30.553  13.529  1.00  0.00     0.014 C 
HETATM   14  C   UNL     1      23.708  27.929  10.923  1.00  0.00    -0.034 C 
HETATM   15  C   UNL     1      22.297  27.812  11.183  1.00  0.00     0.022 C 
HETATM   16  C   UNL     1      24.419  26.982   9.986  1.00  0.00     0.043 C 
HETATM   17  C   UNL     1      21.471  26.668  10.586  1.00  0.00     0.061 C 
HETATM   18  C   UNL     1      21.196  25.603  11.667  1.00  0.00     0.019 C 
HETATM   19  C   UNL     1      22.138  25.889   9.448  1.00  0.00     0.128 C 
HETATM   20  C   UNL     1      23.574  26.148   9.063  1.00  0.00     0.037 C 
HETATM   21  C   UNL     1      23.833  31.695  14.024  1.00  0.00     0.013 C 
ATOM     22  HN  UNL     1      20.639  28.881  11.831  1.00  0.00     0.166 HD
BRANCH  19  23
HETATM   23  O   UNL     1      21.316  25.521   8.371  1.00  0.00    -0.395 OA
ATOM     24  HO  UNL     1      21.125  26.197   7.731  1.00  0.00     0.210 HD
ENDBRANCH  19  23
ENDBRANCH   1   7
BRANCH   5  25
HETATM   25  C   UNL     1      19.426  32.009  14.806  1.00  0.00    -0.025 C 
HETATM   26  C   UNL     1      19.280  30.819  15.571  1.00  0.00     0.012 C 
HETATM   27  C   UNL     1      19.210  29.597  14.889  1.00  0.00     0.002 C 
HETATM   28  C   UNL     1      18.435  29.393  13.752  1.00  0.00     0.017 C 
HETATM   29  C   UNL     1      17.372  30.204  13.349  1.00  0.00     0.031 C 
HETATM   30  C   UNL     1      17.514  31.577  13.199  1.00  0.00     0.018 C 
HETATM   31  C   UNL     1      18.525  32.322  13.790  1.00  0.00     0.013 C 
BRANCH  29  32
HETATM   32  C   UNL     1      16.120  29.483  12.983  1.00  0.00     0.249 C 
HETATM   33  N   UNL     1      14.948  30.065  13.205  1.00  0.00    -0.366 N 
ATOM     34  HN2 UNL     1      14.091  29.571  12.954  1.00  0.00     0.159 HD
ATOM     35  HN1 UNL     1      14.877  30.992  13.624  1.00  0.00     0.159 HD
HETATM   36  O   UNL     1      16.206  28.359  12.476  1.00  0.00    -0.268 OA
ENDBRANCH  29  32
ENDBRANCH   5  25
TORSDOF 4
ENDMDL
MODEL 3
REMARK VINA RESULT:     -10.2      1.163      1.222
REMARK  4 active torsions:
REMARK  status: ('A' for Active; 'I' for Inactive)
REMARK       I    between atoms: C_8  and  N_9 
REMARK    1  A    between atoms: C_8  and  C_27 
REMARK    2  A    between atoms: C_14  and  C_33 
REMARK    3  A    between atoms: C_15  and  C_16 
REMARK    4  A    between atoms: C_26  and  O_30 
ROOT
HETATM    1  C   UNL     1      22.017  32.357  14.014  1.00  0.00    -0.015 C 
HETATM    2  C   UNL     1      21.620  34.884  15.228  1.00  0.00     0.001 C 
HETATM    3  C   UNL     1      22.842  33.456  13.678  1.00  0.00     0.013 C 
HETATM    4  C   UNL     1      22.623  34.713  14.271  1.00  0.00     0.001 C 
HETATM    5  C   UNL     1      20.799  32.662  14.747  1.00  0.00    -0.015 C 
HETATM    6  C   UNL     1      20.791  33.811  15.560  1.00  0.00     0.013 C 
ENDROOT
BRANCH   1   7
HETATM    7  C   UNL     1      22.423  30.972  13.620  1.00  0.00    -0.023 C 
HETATM    8  C   UNL     1      21.737  30.265  12.620  1.00  0.00     0.042 C 
HETATM    9  C   UNL     1      22.006  28.900  12.370  1.00  0.00     0.043 C 
HETATM   10  C   UNL     1      23.196  28.302  12.945  1.00  0.00    -0.009 C 
HETATM   11  N   UNL     1      21.192  28.138  11.541  1.00  0.00    -0.358 N 
HETATM   12  C   UNL     1      23.703  27.086  12.359  1.00  0.00     0.023 C 
HETATM   13  C   UNL     1      23.818  28.989  14.016  1.00  0.00     0.014 C 
HETATM   14  C   UNL     1      22.963  26.507  11.300  1.00  0.00    -0.034 C 
HETATM   15  C   UNL     1      21.587  26.890  11.122  1.00  0.00     0.022 C 
HETATM   16  C   UNL     1      23.537  25.286  10.621  1.00  0.00     0.043 C 
HETATM   17  C   UNL     1      20.621  26.027  10.304  1.00  0.00     0.061 C 
HETATM   18  C   UNL     1      19.700  25.232  11.251  1.00  0.00     0.019 C 
HETATM   19  C   UNL     1      21.270  24.957   9.421  1.00  0.00     0.128 C 
HETATM   20  C   UNL     1      22.753  24.686   9.487  1.00  0.00     0.037 C 
HETATM   21  C   UNL     1      23.500  30.323  14.294  1.00  0.00     0.013 C 
ATOM     22  HN  UNL     1      20.290  28.508  11.239  1.00  0.00     0.166 HD
BRANCH  19  23
HETATM   23  O   UNL     1      20.713  24.771   8.145  1.00  0.00    -0.395 OA
ATOM     24  HO  UNL     1      19.943  24.216   8.093  1.00  0.00     0.210 HD
ENDBRANCH  19  23
ENDBRANCH   1   7
BRANCH   5  25
HETATM   25  C   UNL     1      19.528  31.919  14.615  1.00  0.00    -0.025 C 
HETATM   26  C   UNL     1      19.304  30.739  15.374  1.00  0.00     0.012 C 
HETATM   27  C   UNL     1      18.895  29.582  14.696  1.00  0.00     0.002 C 
HETATM   28  C   UNL     1      17.907  29.574  13.717  1.00  0.00     0.017 C 
HETATM   29  C   UNL     1      16.956  30.578  13.527  1.00  0.00     0.031 C 
HETATM   30  C   UNL     1      17.317  31.911  13.376  1.00  0.00     0.018 C 
HETATM   31  C   UNL     1      18.535  32.436  13.785  1.00  0.00     0.013 C 
BRANCH  29  32
HETATM   32  C   UNL     1      15.549  30.108  13.382  1.00  0.00     0.249 C 
HETATM   33  N   UNL     1      14.649  30.466  14.290  1.00  0.00    -0.366 N 
ATOM     34  HN2 UNL     1      13.687  30.144  14.190  1.00  0.00     0.159 HD
ATOM     35  HN1 UNL     1      14.893  31.054  15.088  1.00  0.00     0.159 HD
HETATM   36  O   UNL     1      15.255  29.396  12.416  1.00  0.00    -0.268 OA
ENDBRANCH  29  32
ENDBRANCH   5  25
TORSDOF 4
ENDMDL
MODEL 4
REMARK VINA RESULT:      -9.9      3.264      8.171
REMARK  4 active torsions:
REMARK  status: ('A' for Active; 'I' for Inactive)
REMARK       I    between atoms: C_8  and  N_9 
REMARK    1  A    between atoms: C_8  and  C_27 
REMARK    2  A    between atoms: C_14  and  C_33 
REMARK    3  A    between atoms: C_15  and  C_16 
REMARK    4  A    between atoms: C_26  and  O_30 
ROOT
HETATM    1  C   UNL     1      22.486  30.811  13.703  1.00  0.00    -0.015 C 
HETATM    2  C   UNL     1      23.491  28.742  12.052  1.00  0.00     0.001 C 
HETATM    3  C   UNL     1      23.692  30.150  14.030  1.00  0.00     0.013 C 
HETATM    4  C   UNL     1      24.172  29.108  13.215  1.00  0.00     0.001 C 
HETATM    5  C   UNL     1      21.656  30.180  12.689  1.00  0.00    -0.015 C 
HETATM    6  C   UNL     1      22.292  29.378  11.724  1.00  0.00     0.013 C 
ENDROOT
BRANCH   1   7
HETATM    7  C   UNL     1      22.130  32.094  14.386  1.00  0.00    -0.023 C 
HETATM    8  C   UNL     1      21.180  32.133  15.419  1.00  0.00     0.042 C 
HETATM    9  C   UNL     1      20.717  33.361  15.943  1.00  0.00     0.043 C 
HETATM   10  C   UNL     1      21.435  34.579  15.618  1.00  0.00    -0.009 C 
HETATM   11  N   UNL     1      19.628  33.420  16.805  1.00  0.00    -0.358 N 
HETATM   12  C   UNL     1      21.251  35.729  16.469  1.00  0.00     0.023 C 
HETATM   13  C   UNL     1      22.319  34.540  14.514  1.00  0.00     0.014 C 
HETATM   14  C   UNL     1      20.321  35.622  17.530  1.00  0.00    -0.034 C 
HETATM   15  C   UNL     1      19.332  34.577  17.486  1.00  0.00     0.022 C 
HETATM   16  C   UNL     1      20.193  36.790  18.479  1.00  0.00     0.043 C 
HETATM   17  C   UNL     1      18.062  34.647  18.339  1.00  0.00     0.061 C 
HETATM   18  C   UNL     1      16.864  35.058  17.461  1.00  0.00     0.019 C 
HETATM   19  C   UNL     1      18.076  35.682  19.469  1.00  0.00     0.128 C 
HETATM   20  C   UNL     1      19.214  36.662  19.614  1.00  0.00     0.037 C 
HETATM   21  C   UNL     1      22.725  33.319  13.962  1.00  0.00     0.013 C 
ATOM     22  HN  UNL     1      19.041  32.596  16.935  1.00  0.00     0.166 HD
BRANCH  19  23
HETATM   23  O   UNL     1      17.502  35.289  20.689  1.00  0.00    -0.395 OA
ATOM     24  HO  UNL     1      17.409  34.355  20.835  1.00  0.00     0.210 HD
ENDBRANCH  19  23
ENDBRANCH   1   7
BRANCH   5  25
HETATM   25  C   UNL     1      20.179  30.224  12.663  1.00  0.00    -0.025 C 
HETATM   26  C   UNL     1      19.502  31.090  11.761  1.00  0.00     0.012 C 
HETATM   27  C   UNL     1      18.524  31.951  12.277  1.00  0.00     0.002 C 
HETATM   28  C   UNL     1      17.555  31.555  13.192  1.00  0.00     0.017 C 
HETATM   29  C   UNL     1      17.181  30.233  13.443  1.00  0.00     0.031 C 
HETATM   30  C   UNL     1      18.113  29.256  13.767  1.00  0.00     0.018 C 
HETATM   31  C   UNL     1      19.469  29.356  13.490  1.00  0.00     0.013 C 
BRANCH  29  32
HETATM   32  C   UNL     1      15.713  29.975  13.453  1.00  0.00     0.249 C 
HETATM   33  N   UNL     1      14.978  30.451  14.452  1.00  0.00    -0.366 N 
ATOM     34  HN2 UNL     1      13.974  30.275  14.458  1.00  0.00     0.159 HD
ATOM     35  HN1 UNL     1      15.390  30.987  15.216  1.00  0.00     0.159 HD
HETATM   36  O   UNL     1      15.214  29.326  12.528  1.00  0.00    -0.268 OA
ENDBRANCH  29  32
ENDBRANCH   5  25
TORSDOF 4
ENDMDL
MODEL 5
REMARK VINA RESULT:      -9.6      1.149      1.854
REMARK  4 active torsions:
REMARK  status: ('A' for Active; 'I' for Inactive)
REMARK       I    between atoms: C_8  and  N_9 
REMARK    1  A    between atoms: C_8  and  C_27 
REMARK    2  A    between atoms: C_14  and  C_33 
REMARK    3  A    between atoms: C_15  and  C_16 
REMARK    4  A    between atoms: C_26  and  O_30 
ROOT
HETATM    1  C   UNL     1      23.220  31.013  13.256  1.00  0.00    -0.015 C 
HETATM    2  C   UNL     1      22.777  33.311  14.850  1.00  0.00     0.001 C 
HETATM    3  C   UNL     1      24.170  32.060  13.291  1.00  0.00     0.013 C 
HETATM    4  C   UNL     1      23.931  33.208  14.069  1.00  0.00     0.001 C 
HETATM    5  C   UNL     1      21.908  31.310  13.809  1.00  0.00    -0.015 C 
HETATM    6  C   UNL     1      21.825  32.290  14.816  1.00  0.00     0.013 C 
ENDROOT
BRANCH   1   7
HETATM    7  C   UNL     1      23.595  29.685  12.677  1.00  0.00    -0.023 C 
HETATM    8  C   UNL     1      23.047  29.234  11.465  1.00  0.00     0.042 C 
HETATM    9  C   UNL     1      23.264  27.915  11.009  1.00  0.00     0.043 C 
HETATM   10  C   UNL     1      24.293  27.113  11.642  1.00  0.00    -0.009 C 
HETATM   11  N   UNL     1      22.556  27.392   9.932  1.00  0.00    -0.358 N 
HETATM   12  C   UNL     1      24.811  25.974  10.924  1.00  0.00     0.023 C 
HETATM   13  C   UNL     1      24.764  27.537  12.907  1.00  0.00     0.014 C 
HETATM   14  C   UNL     1      24.229  25.664   9.672  1.00  0.00    -0.034 C 
HETATM   15  C   UNL     1      22.934  26.204   9.354  1.00  0.00     0.022 C 
HETATM   16  C   UNL     1      24.830  24.530   8.874  1.00  0.00     0.043 C 
HETATM   17  C   UNL     1      22.069  25.595   8.245  1.00  0.00     0.061 C 
HETATM   18  C   UNL     1      20.947  24.741   8.867  1.00  0.00     0.019 C 
HETATM   19  C   UNL     1      22.789  24.638   7.290  1.00  0.00     0.128 C 
HETATM   20  C   UNL     1      24.216  24.217   7.538  1.00  0.00     0.037 C 
HETATM   21  C   UNL     1      24.493  28.827  13.378  1.00  0.00     0.013 C 
ATOM     22  HN  UNL     1      21.748  27.895   9.567  1.00  0.00     0.166 HD
BRANCH  19  23
HETATM   23  O   UNL     1      22.450  24.733   5.930  1.00  0.00    -0.395 OA
ATOM     24  HO  UNL     1      22.293  23.916   5.472  1.00  0.00     0.210 HD
ENDBRANCH  19  23
ENDBRANCH   1   7
BRANCH   5  25
HETATM   25  C   UNL     1      20.637  30.742  13.313  1.00  0.00    -0.025 C 
HETATM   26  C   UNL     1      20.072  31.202  12.093  1.00  0.00     0.012 C 
HETATM   27  C   UNL     1      18.732  31.613  12.096  1.00  0.00     0.002 C 
HETATM   28  C   UNL     1      17.712  30.903  12.720  1.00  0.00     0.017 C 
HETATM   29  C   UNL     1      17.781  29.560  13.097  1.00  0.00     0.031 C 
HETATM   30  C   UNL     1      18.817  29.072  13.882  1.00  0.00     0.018 C 
HETATM   31  C   UNL     1      20.044  29.705  14.031  1.00  0.00     0.013 C 
BRANCH  29  32
HETATM   32  C   UNL     1      16.615  28.723  12.697  1.00  0.00     0.249 C 
HETATM   33  N   UNL     1      15.431  29.300  12.528  1.00  0.00    -0.366 N 
ATOM     34  HN2 UNL     1      14.633  28.727  12.255  1.00  0.00     0.159 HD
ATOM     35  HN1 UNL     1      15.294  30.301  12.667  1.00  0.00     0.159 HD
HETATM   36  O   UNL     1      16.780  27.510  12.530  1.00  0.00    -0.268 OA
ENDBRANCH  29  32
ENDBRANCH   5  25
TORSDOF 4
ENDMDL
MODEL 6
REMARK VINA RESULT:      -9.5      2.790      7.629
REMARK  4 active torsions:
REMARK  status: ('A' for Active; 'I' for Inactive)
REMARK       I    between atoms: C_8  and  N_9 
REMARK    1  A    between atoms: C_8  and  C_27 
REMARK    2  A    between atoms: C_14  and  C_33 
REMARK    3  A    between atoms: C_15  and  C_16 
REMARK    4  A    between atoms: C_26  and  O_30 
ROOT
HETATM    1  C   UNL     1      23.407  30.106  13.528  1.00  0.00    -0.015 C 
HETATM    2  C   UNL     1      24.759  28.030  12.155  1.00  0.00     0.001 C 
HETATM    3  C   UNL     1      24.622  29.583  14.028  1.00  0.00     0.013 C 
HETATM    4  C   UNL     1      25.275  28.537  13.350  1.00  0.00     0.001 C 
HETATM    5  C   UNL     1      22.750  29.333  12.486  1.00  0.00    -0.015 C 
HETATM    6  C   UNL     1      23.553  28.529  11.657  1.00  0.00     0.013 C 
ENDROOT
BRANCH   1   7
HETATM    7  C   UNL     1      22.871  31.394  14.069  1.00  0.00    -0.023 C 
HETATM    8  C   UNL     1      21.811  31.416  14.989  1.00  0.00     0.042 C 
HETATM    9  C   UNL     1      21.191  32.629  15.364  1.00  0.00     0.043 C 
HETATM   10  C   UNL     1      21.838  33.883  15.026  1.00  0.00    -0.009 C 
HETATM   11  N   UNL     1      20.011  32.647  16.098  1.00  0.00    -0.358 N 
HETATM   12  C   UNL     1      21.465  35.066  15.762  1.00  0.00     0.023 C 
HETATM   13  C   UNL     1      22.841  33.850  14.028  1.00  0.00     0.014 C 
HETATM   14  C   UNL     1      20.433  34.946  16.722  1.00  0.00    -0.034 C 
HETATM   15  C   UNL     1      19.546  33.814  16.653  1.00  0.00     0.022 C 
HETATM   16  C   UNL     1      20.102  36.158  17.560  1.00  0.00     0.043 C 
HETATM   17  C   UNL     1      18.186  33.826  17.359  1.00  0.00     0.061 C 
HETATM   18  C   UNL     1      17.064  34.067  16.328  1.00  0.00     0.019 C 
HETATM   19  C   UNL     1      17.986  34.932  18.400  1.00  0.00     0.128 C 
HETATM   20  C   UNL     1      19.015  36.018  18.590  1.00  0.00     0.037 C 
HETATM   21  C   UNL     1      23.407  32.637  13.618  1.00  0.00     0.013 C 
ATOM     22  HN  UNL     1      19.484  31.783  16.227  1.00  0.00     0.166 HD
BRANCH  19  23
HETATM   23  O   UNL     1      17.313  34.571  19.579  1.00  0.00    -0.395 OA
ATOM     24  HO  UNL     1      16.901  33.715  19.590  1.00  0.00     0.210 HD
ENDBRANCH  19  23
ENDBRANCH   1   7
BRANCH   5  25
HETATM   25  C   UNL     1      21.286  29.238  12.305  1.00  0.00    -0.025 C 
HETATM   26  C   UNL     1      20.616  30.110  11.403  1.00  0.00     0.012 C 
HETATM   27  C   UNL     1      19.508  30.827  11.874  1.00  0.00     0.002 C 
HETATM   28  C   UNL     1      18.499  30.263  12.647  1.00  0.00     0.017 C 
HETATM   29  C   UNL     1      18.240  28.895  12.756  1.00  0.00     0.031 C 
HETATM   30  C   UNL     1      19.232  27.987  13.104  1.00  0.00     0.018 C 
HETATM   31  C   UNL     1      20.592  28.239  12.983  1.00  0.00     0.013 C 
BRANCH  29  32
HETATM   32  C   UNL     1      16.813  28.499  12.589  1.00  0.00     0.249 C 
HETATM   33  N   UNL     1      15.881  29.443  12.530  1.00  0.00    -0.366 N 
ATOM     34  HN2 UNL     1      14.905  29.172  12.415  1.00  0.00     0.159 HD
ATOM     35  HN1 UNL     1      16.113  30.434  12.598  1.00  0.00     0.159 HD
HETATM   36  O   UNL     1      16.533  27.299  12.507  1.00  0.00    -0.268 OA
ENDBRANCH  29  32
ENDBRANCH   5  25
TORSDOF 4
ENDMDL
MODEL 7
REMARK VINA RESULT:      -9.5      2.433      4.092
REMARK  4 active torsions:
REMARK  status: ('A' for Active; 'I' for Inactive)
REMARK       I    between atoms: C_8  and  N_9 
REMARK    1  A    between atoms: C_8  and  C_27 
REMARK    2  A    between atoms: C_14  and  C_33 
REMARK    3  A    between atoms: C_15  and  C_16 
REMARK    4  A    between atoms: C_26  and  O_30 
ROOT
HETATM    1  C   UNL     1      24.141  28.527  12.046  1.00  0.00    -0.015 C 
HETATM    2  C   UNL     1      24.529  30.518  14.022  1.00  0.00     0.001 C 
HETATM    3  C   UNL     1      25.307  29.326  12.044  1.00  0.00     0.013 C 
HETATM    4  C   UNL     1      25.481  30.328  13.017  1.00  0.00     0.001 C 
HETATM    5  C   UNL     1      23.047  28.980  12.891  1.00  0.00    -0.015 C 
HETATM    6  C   UNL     1      23.367  29.744  14.028  1.00  0.00     0.013 C 
ENDROOT
BRANCH   1   7
HETATM    7  C   UNL     1      24.086  27.286  11.211  1.00  0.00    -0.023 C 
HETATM    8  C   UNL     1      23.563  27.304   9.908  1.00  0.00     0.042 C 
HETATM    9  C   UNL     1      23.350  26.107   9.188  1.00  0.00     0.043 C 
HETATM   10  C   UNL     1      23.942  24.877   9.678  1.00  0.00    -0.009 C 
HETATM   11  N   UNL     1      22.638  26.093   7.994  1.00  0.00    -0.358 N 
HETATM   12  C   UNL     1      24.104  23.781   8.755  1.00  0.00     0.023 C 
HETATM   13  C   UNL     1      24.378  24.855  11.025  1.00  0.00     0.014 C 
HETATM   14  C   UNL     1      23.605  23.946   7.441  1.00  0.00    -0.034 C 
HETATM   15  C   UNL     1      22.635  24.979   7.191  1.00  0.00     0.022 C 
HETATM   16  C   UNL     1      23.854  22.838   6.446  1.00  0.00     0.043 C 
HETATM   17  C   UNL     1      21.750  24.952   5.940  1.00  0.00     0.061 C 
HETATM   18  C   UNL     1      20.331  24.478   6.313  1.00  0.00     0.019 C 
HETATM   19  C   UNL     1      22.192  23.988   4.833  1.00  0.00     0.128 C 
HETATM   20  C   UNL     1      23.335  23.028   5.047  1.00  0.00     0.037 C 
HETATM   21  C   UNL     1      24.528  26.042  11.750  1.00  0.00     0.013 C 
ATOM     22  HN  UNL     1      22.111  26.920   7.711  1.00  0.00     0.166 HD
BRANCH  19  23
HETATM   23  O   UNL     1      22.075  24.451   3.513  1.00  0.00    -0.395 OA
ATOM     24  HO  UNL     1      22.645  25.168   3.260  1.00  0.00     0.210 HD
ENDBRANCH  19  23
ENDBRANCH   1   7
BRANCH   5  25
HETATM   25  C   UNL     1      21.613  28.795  12.582  1.00  0.00    -0.025 C 
HETATM   26  C   UNL     1      21.010  29.514  11.514  1.00  0.00     0.012 C 
HETATM   27  C   UNL     1      19.836  30.233  11.779  1.00  0.00     0.002 C 
HETATM   28  C   UNL     1      18.773  29.725  12.517  1.00  0.00     0.017 C 
HETATM   29  C   UNL     1      18.550  28.371  12.778  1.00  0.00     0.031 C 
HETATM   30  C   UNL     1      19.531  27.561  13.335  1.00  0.00     0.018 C 
HETATM   31  C   UNL     1      20.887  27.858  13.315  1.00  0.00     0.013 C 
BRANCH  29  32
HETATM   32  C   UNL     1      17.162  27.891  12.527  1.00  0.00     0.249 C 
HETATM   33  N   UNL     1      16.164  28.766  12.528  1.00  0.00    -0.366 N 
ATOM     34  HN2 UNL     1      15.214  28.437  12.356  1.00  0.00     0.159 HD
ATOM     35  HN1 UNL     1      16.318  29.760  12.699  1.00  0.00     0.159 HD
HETATM   36  O   UNL     1      16.975  26.687  12.320  1.00  0.00    -0.268 OA
ENDBRANCH  29  32
ENDBRANCH   5  25
TORSDOF 4
ENDMDL
MODEL 8
REMARK VINA RESULT:      -9.2      3.487      5.638
REMARK  4 active torsions:
REMARK  status: ('A' for Active; 'I' for Inactive)
REMARK       I    between atoms: C_8  and  N_9 
REMARK    1  A    between atoms: C_8  and  C_27 
REMARK    2  A    between atoms: C_14  and  C_33 
REMARK    3  A    between atoms: C_15  and  C_16 
REMARK    4  A    between atoms: C_26  and  O_30 
ROOT
HETATM    1  C   UNL     1      17.455  30.911  14.272  1.00  0.00    -0.015 C 
HETATM    2  C   UNL     1      15.034  31.691  15.516  1.00  0.00     0.001 C 
HETATM    3  C   UNL     1      16.426  29.968  14.500  1.00  0.00     0.013 C 
HETATM    4  C   UNL     1      15.235  30.361  15.139  1.00  0.00     0.001 C 
HETATM    5  C   UNL     1      17.337  32.180  14.972  1.00  0.00    -0.015 C 
HETATM    6  C   UNL     1      16.047  32.629  15.308  1.00  0.00     0.013 C 
ENDROOT
BRANCH   1   7
HETATM    7  C   UNL     1      18.581  30.576  13.346  1.00  0.00    -0.023 C 
HETATM    8  C   UNL     1      19.610  29.701  13.731  1.00  0.00     0.042 C 
HETATM    9  C   UNL     1      20.758  29.522  12.927  1.00  0.00     0.043 C 
HETATM   10  C   UNL     1      20.746  30.015  11.564  1.00  0.00    -0.009 C 
HETATM   11  N   UNL     1      21.873  28.833  13.394  1.00  0.00    -0.358 N 
HETATM   12  C   UNL     1      21.698  29.467  10.629  1.00  0.00     0.023 C 
HETATM   13  C   UNL     1      19.755  30.967  11.224  1.00  0.00     0.014 C 
HETATM   14  C   UNL     1      22.640  28.531  11.120  1.00  0.00    -0.034 C 
HETATM   15  C   UNL     1      22.881  28.466  12.537  1.00  0.00     0.022 C 
HETATM   16  C   UNL     1      23.578  27.885  10.128  1.00  0.00     0.043 C 
HETATM   17  C   UNL     1      24.148  27.811  13.098  1.00  0.00     0.061 C 
HETATM   18  C   UNL     1      25.148  28.898  13.538  1.00  0.00     0.019 C 
HETATM   19  C   UNL     1      24.940  26.944  12.114  1.00  0.00     0.128 C 
HETATM   20  C   UNL     1      24.564  26.880  10.654  1.00  0.00     0.037 C 
HETATM   21  C   UNL     1      18.651  31.182  12.057  1.00  0.00     0.013 C 
ATOM     22  HN  UNL     1      21.943  28.599  14.385  1.00  0.00     0.166 HD
BRANCH  19  23
HETATM   23  O   UNL     1      25.474  25.747  12.619  1.00  0.00    -0.395 OA
ATOM     24  HO  UNL     1      25.819  25.774  13.504  1.00  0.00     0.210 HD
ENDBRANCH  19  23
ENDBRANCH   1   7
BRANCH   5  25
HETATM   25  C   UNL     1      18.479  32.982  15.460  1.00  0.00    -0.025 C 
HETATM   26  C   UNL     1      19.648  33.125  14.664  1.00  0.00     0.012 C 
HETATM   27  C   UNL     1      20.888  32.835  15.249  1.00  0.00     0.002 C 
HETATM   28  C   UNL     1      21.261  33.268  16.517  1.00  0.00     0.017 C 
HETATM   29  C   UNL     1      20.655  34.312  17.219  1.00  0.00     0.031 C 
HETATM   30  C   UNL     1      19.284  34.353  17.434  1.00  0.00     0.018 C 
HETATM   31  C   UNL     1      18.358  33.644  16.680  1.00  0.00     0.013 C 
BRANCH  29  32
HETATM   32  C   UNL     1      21.589  35.309  17.815  1.00  0.00     0.249 C 
HETATM   33  N   UNL     1      21.853  36.428  17.150  1.00  0.00    -0.366 N 
ATOM     34  HN2 UNL     1      22.492  37.110  17.558  1.00  0.00     0.159 HD
ATOM     35  HN1 UNL     1      21.437  36.625  16.240  1.00  0.00     0.159 HD
HETATM   36  O   UNL     1      22.094  35.070  18.917  1.00  0.00    -0.268 OA
ENDBRANCH  29  32
ENDBRANCH   5  25
TORSDOF 4
ENDMDL
MODEL 9
REMARK VINA RESULT:      -9.2      2.919      8.339
REMARK  4 active torsions:
REMARK  status: ('A' for Active; 'I' for Inactive)
REMARK       I    between atoms: C_8  and  N_9 
REMARK    1  A    between atoms: C_8  and  C_27 
REMARK    2  A    between atoms: C_14  and  C_33 
REMARK    3  A    between atoms: C_15  and  C_16 
REMARK    4  A    between atoms: C_26  and  O_30 
ROOT
HETATM    1  C   UNL     1      20.417  25.952   9.897  1.00  0.00    -0.015 C 
HETATM    2  C   UNL     1      22.177  24.280   8.440  1.00  0.00     0.001 C 
HETATM    3  C   UNL     1      20.057  25.466   8.619  1.00  0.00     0.013 C 
HETATM    4  C   UNL     1      20.948  24.654   7.894  1.00  0.00     0.001 C 
HETATM    5  C   UNL     1      21.816  25.816  10.271  1.00  0.00    -0.015 C 
HETATM    6  C   UNL     1      22.551  24.763   9.696  1.00  0.00     0.013 C 
ENDROOT
BRANCH   1   7
HETATM    7  C   UNL     1      19.377  26.560  10.784  1.00  0.00    -0.023 C 
HETATM    8  C   UNL     1      19.517  27.862  11.291  1.00  0.00     0.042 C 
HETATM    9  C   UNL     1      18.627  28.370  12.264  1.00  0.00     0.043 C 
HETATM   10  C   UNL     1      17.393  27.656  12.528  1.00  0.00    -0.009 C 
HETATM   11  N   UNL     1      18.880  29.565  12.928  1.00  0.00    -0.358 N 
HETATM   12  C   UNL     1      16.312  28.369  13.164  1.00  0.00     0.023 C 
HETATM   13  C   UNL     1      17.310  26.313  12.088  1.00  0.00     0.014 C 
HETATM   14  C   UNL     1      16.549  29.706  13.561  1.00  0.00    -0.034 C 
HETATM   15  C   UNL     1      17.908  30.162  13.693  1.00  0.00     0.022 C 
HETATM   16  C   UNL     1      15.394  30.486  14.143  1.00  0.00     0.043 C 
HETATM   17  C   UNL     1      18.250  31.416  14.505  1.00  0.00     0.061 C 
HETATM   18  C   UNL     1      18.838  31.010  15.871  1.00  0.00     0.019 C 
HETATM   19  C   UNL     1      17.067  32.325  14.856  1.00  0.00     0.128 C 
HETATM   20  C   UNL     1      15.649  31.912  14.547  1.00  0.00     0.037 C 
HETATM   21  C   UNL     1      18.233  25.800  11.169  1.00  0.00     0.013 C 
ATOM     22  HN  UNL     1      19.798  30.003  12.847  1.00  0.00     0.166 HD
BRANCH  19  23
HETATM   23  O   UNL     1      17.290  33.708  14.772  1.00  0.00    -0.395 OA
ATOM     24  HO  UNL     1      17.543  34.048  13.921  1.00  0.00     0.210 HD
ENDBRANCH  19  23
ENDBRANCH   1   7
BRANCH   5  25
HETATM   25  C   UNL     1      22.557  26.770  11.123  1.00  0.00    -0.025 C 
HETATM   26  C   UNL     1      22.634  26.568  12.528  1.00  0.00     0.012 C 
HETATM   27  C   UNL     1      22.280  27.631  13.371  1.00  0.00     0.002 C 
HETATM   28  C   UNL     1      22.696  28.942  13.172  1.00  0.00     0.017 C 
HETATM   29  C   UNL     1      23.774  29.330  12.373  1.00  0.00     0.031 C 
HETATM   30  C   UNL     1      23.889  28.925  11.050  1.00  0.00     0.018 C 
HETATM   31  C   UNL     1      23.229  27.828  10.513  1.00  0.00     0.013 C 
BRANCH  29  32
HETATM   32  C   UNL     1      24.721  30.295  13.001  1.00  0.00     0.249 C 
HETATM   33  N   UNL     1      24.238  31.346  13.653  1.00  0.00    -0.366 N 
ATOM     34  HN2 UNL     1      24.886  32.006  14.083  1.00  0.00     0.159 HD
ATOM     35  HN1 UNL     1      23.235  31.516  13.734  1.00  0.00     0.159 HD
HETATM   36  O   UNL     1      25.935  30.089  12.903  1.00  0.00    -0.268 OA
ENDBRANCH  29  32
ENDBRANCH   5  25
TORSDOF 4
ENDMDL
