MODEL 1
REMARK VINA RESULT:      -6.9      0.000      0.000
REMARK  2 active torsions:
REMARK  status: ('A' for Active; 'I' for Inactive)
REMARK    1  A    between atoms: N_3  and  C_5 
REMARK    2  A    between atoms: CA_7  and  C_17 
ROOT
HETATM    1  N   UNL     1      28.001   1.838  12.655  1.00  0.00    -0.347 N 
ATOM      2  HN  UNL     1      27.457   0.983  12.770  1.00  0.00     0.167 HD
HETATM    3  N   UNL     1      28.810   3.847  13.560  1.00  0.00    -0.343 N 
HETATM    4  C   UNL     1      29.365   4.172  12.360  1.00  0.00     0.095 C 
HETATM    5  CA  UNL     1      28.839   1.987  11.601  1.00  0.00     0.111 C 
HETATM    6  C   UNL     1      27.902   2.837  13.541  1.00  0.00     0.184 C 
HETATM    7  C   UNL     1      29.576   3.154  11.442  1.00  0.00     0.054 C 
ENDROOT
BRANCH   3   8
HETATM    8  C   UNL     1      29.143   4.522  14.821  1.00  0.00     0.034 C 
HETATM    9  C   UNL     1      30.494   4.028  15.310  1.00  0.00     0.039 C 
HETATM   10  C   UNL     1      29.236   6.035  14.706  1.00  0.00     0.035 C 
HETATM   11  C   UNL     1      28.484   6.610  15.887  1.00  0.00    -0.016 C 
HETATM   12  C   UNL     1      29.099   7.803  16.569  1.00  0.00     0.010 C 
HETATM   13  C   UNL     1      28.059   5.462  16.774  1.00  0.00     0.007 C 
HETATM   14  C   UNL     1      28.072   4.244  15.865  1.00  0.00     0.031 C 
ENDBRANCH   3   8
BRANCH   5  15
HETATM   15  C   UNL     1      29.149   0.812  10.679  1.00  0.00     0.226 C 
HETATM   16  O   UNL     1      28.446  -0.242  10.953  1.00  0.00    -0.643 OA
HETATM   17  OXT UNL     1      30.233   0.752  10.099  1.00  0.00    -0.643 OA
ENDBRANCH   5  15
TORSDOF 2
ENDMDL
MODEL 2
REMARK VINA RESULT:      -6.8      4.636      5.951
REMARK  2 active torsions:
REMARK  status: ('A' for Active; 'I' for Inactive)
REMARK    1  A    between atoms: N_3  and  C_5 
REMARK    2  A    between atoms: CA_7  and  C_17 
ROOT
HETATM    1  N   UNL     1      30.232  -0.358  14.864  1.00  0.00    -0.347 N 
ATOM      2  HN  UNL     1      30.402   0.014  15.798  1.00  0.00     0.167 HD
HETATM    3  N   UNL     1      30.064   0.007  12.551  1.00  0.00    -0.343 N 
HETATM    4  C   UNL     1      29.697  -1.292  12.366  1.00  0.00     0.095 C 
HETATM    5  CA  UNL     1      30.226  -1.695  14.644  1.00  0.00     0.111 C 
HETATM    6  C   UNL     1      30.010   0.463  13.829  1.00  0.00     0.184 C 
HETATM    7  C   UNL     1      29.990  -2.201  13.371  1.00  0.00     0.054 C 
ENDROOT
BRANCH   3   8
HETATM    8  C   UNL     1      30.493   0.894  11.463  1.00  0.00     0.034 C 
HETATM    9  C   UNL     1      31.583   0.205  10.657  1.00  0.00     0.039 C 
HETATM   10  C   UNL     1      29.384   1.262  10.490  1.00  0.00     0.035 C 
HETATM   11  C   UNL     1      29.489   2.753  10.252  1.00  0.00    -0.016 C 
HETATM   12  C   UNL     1      29.277   3.233   8.841  1.00  0.00     0.010 C 
HETATM   13  C   UNL     1      30.725   3.254  10.964  1.00  0.00     0.007 C 
HETATM   14  C   UNL     1      31.010   2.208  12.029  1.00  0.00     0.031 C 
ENDBRANCH   3   8
BRANCH   5  15
HETATM   15  C   UNL     1      30.674  -2.666  15.730  1.00  0.00     0.226 C 
HETATM   16  O   UNL     1      29.942  -3.735  15.782  1.00  0.00    -0.643 OA
HETATM   17  OXT UNL     1      31.318  -2.259  16.695  1.00  0.00    -0.643 OA
ENDBRANCH   5  15
TORSDOF 2
ENDMDL
MODEL 3
REMARK VINA RESULT:      -6.6      1.343      1.794
REMARK  2 active torsions:
REMARK  status: ('A' for Active; 'I' for Inactive)
REMARK    1  A    between atoms: N_3  and  C_5 
REMARK    2  A    between atoms: CA_7  and  C_17 
ROOT
HETATM    1  N   UNL     1      29.438   0.076  13.351  1.00  0.00    -0.347 N 
ATOM      2  HN  UNL     1      29.889  -0.803  13.602  1.00  0.00     0.167 HD
HETATM    3  N   UNL     1      28.727   2.224  13.976  1.00  0.00    -0.343 N 
HETATM    4  C   UNL     1      28.162   2.401  12.750  1.00  0.00     0.095 C 
HETATM    5  CA  UNL     1      29.205   0.387  12.053  1.00  0.00     0.111 C 
HETATM    6  C   UNL     1      29.063   0.948  14.296  1.00  0.00     0.184 C 
HETATM    7  C   UNL     1      28.586   1.584  11.713  1.00  0.00     0.054 C 
ENDROOT
BRANCH   3   8
HETATM    8  C   UNL     1      28.970   3.317  14.926  1.00  0.00     0.034 C 
HETATM    9  C   UNL     1      29.903   2.827  16.021  1.00  0.00     0.039 C 
HETATM   10  C   UNL     1      29.617   4.544  14.304  1.00  0.00     0.035 C 
HETATM   11  C   UNL     1      28.862   5.748  14.826  1.00  0.00    -0.016 C 
HETATM   12  C   UNL     1      29.680   6.956  15.195  1.00  0.00     0.010 C 
HETATM   13  C   UNL     1      27.862   5.263  15.852  1.00  0.00     0.007 C 
HETATM   14  C   UNL     1      27.657   3.792  15.529  1.00  0.00     0.031 C 
ENDBRANCH   3   8
BRANCH   5  15
HETATM   15  C   UNL     1      29.791  -0.462  10.931  1.00  0.00     0.226 C 
HETATM   16  O   UNL     1      30.518   0.225  10.106  1.00  0.00    -0.643 OA
HETATM   17  OXT UNL     1      29.251  -1.520  10.612  1.00  0.00    -0.643 OA
ENDBRANCH   5  15
TORSDOF 2
ENDMDL
MODEL 4
REMARK VINA RESULT:      -6.5      1.267      1.903
REMARK  2 active torsions:
REMARK  status: ('A' for Active; 'I' for Inactive)
REMARK    1  A    between atoms: N_3  and  C_5 
REMARK    2  A    between atoms: CA_7  and  C_17 
ROOT
HETATM    1  N   UNL     1      28.445   1.015  12.285  1.00  0.00    -0.347 N 
ATOM      2  HN  UNL     1      27.840   0.259  12.605  1.00  0.00     0.167 HD
HETATM    3  N   UNL     1      29.341   3.158  12.628  1.00  0.00    -0.343 N 
HETATM    4  C   UNL     1      29.977   3.091  11.426  1.00  0.00     0.095 C 
HETATM    5  CA  UNL     1      29.344   0.808  11.294  1.00  0.00     0.111 C 
HETATM    6  C   UNL     1      28.368   2.233  12.837  1.00  0.00     0.184 C 
HETATM    7  C   UNL     1      30.166   1.841  10.857  1.00  0.00     0.054 C 
ENDROOT
BRANCH   3   8
HETATM    8  C   UNL     1      29.653   4.154  13.660  1.00  0.00     0.034 C 
HETATM    9  C   UNL     1      30.054   5.458  12.990  1.00  0.00     0.039 C 
HETATM   10  C   UNL     1      28.491   4.468  14.589  1.00  0.00     0.035 C 
HETATM   11  C   UNL     1      29.044   4.469  15.997  1.00  0.00    -0.016 C 
HETATM   12  C   UNL     1      28.541   5.542  16.925  1.00  0.00     0.010 C 
HETATM   13  C   UNL     1      30.543   4.292  15.910  1.00  0.00     0.007 C 
HETATM   14  C   UNL     1      30.780   3.654  14.551  1.00  0.00     0.031 C 
ENDBRANCH   3   8
BRANCH   5  15
HETATM   15  C   UNL     1      29.621  -0.597  10.773  1.00  0.00     0.226 C 
HETATM   16  O   UNL     1      29.045  -1.519  11.479  1.00  0.00    -0.643 OA
HETATM   17  OXT UNL     1      30.620  -0.817  10.089  1.00  0.00    -0.643 OA
ENDBRANCH   5  15
TORSDOF 2
ENDMDL
MODEL 5
REMARK VINA RESULT:      -6.4      0.927      1.332
REMARK  2 active torsions:
REMARK  status: ('A' for Active; 'I' for Inactive)
REMARK    1  A    between atoms: N_3  and  C_5 
REMARK    2  A    between atoms: CA_7  and  C_17 
ROOT
HETATM    1  N   UNL     1      28.399   2.216  12.737  1.00  0.00    -0.347 N 
ATOM      2  HN  UNL     1      27.883   1.380  13.013  1.00  0.00     0.167 HD
HETATM    3  N   UNL     1      29.370   4.269  13.331  1.00  0.00    -0.343 N 
HETATM    4  C   UNL     1      29.692   4.500  12.028  1.00  0.00     0.095 C 
HETATM    5  CA  UNL     1      29.027   2.276  11.539  1.00  0.00     0.111 C 
HETATM    6  C   UNL     1      28.470   3.276  13.552  1.00  0.00     0.184 C 
HETATM    7  C   UNL     1      29.725   3.417  11.163  1.00  0.00     0.054 C 
ENDROOT
BRANCH   3   8
HETATM    8  C   UNL     1      29.934   5.025  14.456  1.00  0.00     0.034 C 
HETATM    9  C   UNL     1      30.908   6.062  13.921  1.00  0.00     0.039 C 
HETATM   10  C   UNL     1      28.897   5.771  15.281  1.00  0.00     0.035 C 
HETATM   11  C   UNL     1      29.228   5.513  16.735  1.00  0.00    -0.016 C 
HETATM   12  C   UNL     1      29.097   6.677  17.680  1.00  0.00     0.010 C 
HETATM   13  C   UNL     1      30.524   4.735  16.788  1.00  0.00     0.007 C 
HETATM   14  C   UNL     1      30.643   4.086  15.419  1.00  0.00     0.031 C 
ENDBRANCH   3   8
BRANCH   5  15
HETATM   15  C   UNL     1      29.155   1.035  10.662  1.00  0.00     0.226 C 
HETATM   16  O   UNL     1      28.258   0.137  10.926  1.00  0.00    -0.643 OA
HETATM   17  OXT UNL     1      30.234   0.758  10.139  1.00  0.00    -0.643 OA
ENDBRANCH   5  15
TORSDOF 2
ENDMDL
MODEL 6
REMARK VINA RESULT:      -6.3      1.907      2.363
REMARK  2 active torsions:
REMARK  status: ('A' for Active; 'I' for Inactive)
REMARK    1  A    between atoms: N_3  and  C_5 
REMARK    2  A    between atoms: CA_7  and  C_17 
ROOT
HETATM    1  N   UNL     1      30.327   4.761  10.452  1.00  0.00    -0.347 N 
ATOM      2  HN  UNL     1      30.519   5.396   9.677  1.00  0.00     0.167 HD
HETATM    3  N   UNL     1      30.247   4.376  12.766  1.00  0.00    -0.343 N 
HETATM    4  C   UNL     1      29.914   3.074  12.545  1.00  0.00     0.095 C 
HETATM    5  CA  UNL     1      29.659   3.601  10.245  1.00  0.00     0.111 C 
HETATM    6  C   UNL     1      30.731   5.056  11.694  1.00  0.00     0.184 C 
HETATM    7  C   UNL     1      29.402   2.735  11.302  1.00  0.00     0.054 C 
ENDROOT
BRANCH   3   8
HETATM    8  C   UNL     1      30.111   5.041  14.068  1.00  0.00     0.034 C 
HETATM    9  C   UNL     1      31.256   4.611  14.970  1.00  0.00     0.039 C 
HETATM   10  C   UNL     1      30.147   6.559  13.994  1.00  0.00     0.035 C 
HETATM   11  C   UNL     1      29.020   7.067  14.867  1.00  0.00    -0.016 C 
HETATM   12  C   UNL     1      29.308   8.276  15.716  1.00  0.00     0.010 C 
HETATM   13  C   UNL     1      28.398   5.878  15.564  1.00  0.00     0.007 C 
HETATM   14  C   UNL     1      28.777   4.683  14.705  1.00  0.00     0.031 C 
ENDBRANCH   3   8
BRANCH   5  15
HETATM   15  C   UNL     1      28.999   3.310   8.903  1.00  0.00     0.226 C 
HETATM   16  O   UNL     1      27.982   2.511   9.004  1.00  0.00    -0.643 OA
HETATM   17  OXT UNL     1      29.639   3.435   7.860  1.00  0.00    -0.643 OA
ENDBRANCH   5  15
TORSDOF 2
ENDMDL
MODEL 7
REMARK VINA RESULT:      -6.3      1.539      2.233
REMARK  2 active torsions:
REMARK  status: ('A' for Active; 'I' for Inactive)
REMARK    1  A    between atoms: N_3  and  C_5 
REMARK    2  A    between atoms: CA_7  and  C_17 
ROOT
HETATM    1  N   UNL     1      29.357   0.338  13.241  1.00  0.00    -0.347 N 
ATOM      2  HN  UNL     1      29.884  -0.498  13.493  1.00  0.00     0.167 HD
HETATM    3  N   UNL     1      28.522   2.448  13.842  1.00  0.00    -0.343 N 
HETATM    4  C   UNL     1      27.886   2.545  12.642  1.00  0.00     0.095 C 
HETATM    5  CA  UNL     1      29.039   0.591  11.949  1.00  0.00     0.111 C 
HETATM    6  C   UNL     1      28.967   1.209  14.180  1.00  0.00     0.184 C 
HETATM    7  C   UNL     1      28.317   1.729  11.608  1.00  0.00     0.054 C 
ENDROOT
BRANCH   3   8
HETATM    8  C   UNL     1      28.732   3.584  14.748  1.00  0.00     0.034 C 
HETATM    9  C   UNL     1      27.401   3.982  15.365  1.00  0.00     0.039 C 
HETATM   10  C   UNL     1      29.687   3.294  15.895  1.00  0.00     0.035 C 
HETATM   11  C   UNL     1      30.627   4.476  15.991  1.00  0.00    -0.016 C 
HETATM   12  C   UNL     1      30.979   4.955  17.374  1.00  0.00     0.010 C 
HETATM   13  C   UNL     1      30.161   5.524  15.005  1.00  0.00     0.007 C 
HETATM   14  C   UNL     1      29.330   4.759  13.989  1.00  0.00     0.031 C 
ENDBRANCH   3   8
BRANCH   5  15
HETATM   15  C   UNL     1      29.628  -0.249  10.821  1.00  0.00     0.226 C 
HETATM   16  O   UNL     1      29.293  -1.499  10.897  1.00  0.00    -0.643 OA
HETATM   17  OXT UNL     1      30.641   0.130  10.234  1.00  0.00    -0.643 OA
ENDBRANCH   5  15
TORSDOF 2
ENDMDL
MODEL 8
REMARK VINA RESULT:      -6.3      3.440      4.749
REMARK  2 active torsions:
REMARK  status: ('A' for Active; 'I' for Inactive)
REMARK    1  A    between atoms: N_3  and  C_5 
REMARK    2  A    between atoms: CA_7  and  C_17 
ROOT
HETATM    1  N   UNL     1      29.518  -0.140  14.361  1.00  0.00    -0.347 N 
ATOM      2  HN  UNL     1      29.619  -0.093  15.375  1.00  0.00     0.167 HD
HETATM    3  N   UNL     1      29.416   0.968  12.295  1.00  0.00    -0.343 N 
HETATM    4  C   UNL     1      29.163  -0.213  11.666  1.00  0.00     0.095 C 
HETATM    5  CA  UNL     1      29.630  -1.323  13.711  1.00  0.00     0.111 C 
HETATM    6  C   UNL     1      29.273   0.965  13.646  1.00  0.00     0.184 C 
HETATM    7  C   UNL     1      29.488  -1.387  12.330  1.00  0.00     0.054 C 
ENDROOT
BRANCH   3   8
HETATM    8  C   UNL     1      29.816   2.194  11.593  1.00  0.00     0.034 C 
HETATM    9  C   UNL     1      29.097   2.260  10.255  1.00  0.00     0.039 C 
HETATM   10  C   UNL     1      29.480   3.474  12.343  1.00  0.00     0.035 C 
HETATM   11  C   UNL     1      30.706   4.358  12.269  1.00  0.00    -0.016 C 
HETATM   12  C   UNL     1      30.471   5.827  12.037  1.00  0.00     0.010 C 
HETATM   13  C   UNL     1      31.717   3.680  11.372  1.00  0.00     0.007 C 
HETATM   14  C   UNL     1      31.322   2.213  11.382  1.00  0.00     0.031 C 
ENDBRANCH   3   8
BRANCH   5  15
HETATM   15  C   UNL     1      30.111  -2.572  14.441  1.00  0.00     0.226 C 
HETATM   16  O   UNL     1      30.625  -2.311  15.602  1.00  0.00    -0.643 OA
HETATM   17  OXT UNL     1      30.394  -3.587  13.806  1.00  0.00    -0.643 OA
ENDBRANCH   5  15
TORSDOF 2
ENDMDL
MODEL 9
REMARK VINA RESULT:      -6.2      1.902      2.605
REMARK  2 active torsions:
REMARK  status: ('A' for Active; 'I' for Inactive)
REMARK    1  A    between atoms: N_3  and  C_5 
REMARK    2  A    between atoms: CA_7  and  C_17 
ROOT
HETATM    1  N   UNL     1      30.541   1.488  11.998  1.00  0.00    -0.347 N 
ATOM      2  HN  UNL     1      30.848   1.777  11.069  1.00  0.00     0.167 HD
HETATM    3  N   UNL     1      29.774   2.075  14.137  1.00  0.00    -0.343 N 
HETATM    4  C   UNL     1      29.804   0.767  14.514  1.00  0.00     0.095 C 
HETATM    5  CA  UNL     1      30.228   0.195  12.251  1.00  0.00     0.111 C 
HETATM    6  C   UNL     1      30.440   2.379  12.992  1.00  0.00     0.184 C 
HETATM    7  C   UNL     1      29.814  -0.198  13.518  1.00  0.00     0.054 C 
ENDROOT
BRANCH   3   8
HETATM    8  C   UNL     1      29.082   3.125  14.894  1.00  0.00     0.034 C 
HETATM    9  C   UNL     1      27.813   2.548  15.501  1.00  0.00     0.039 C 
HETATM   10  C   UNL     1      29.899   3.705  16.038  1.00  0.00     0.035 C 
HETATM   11  C   UNL     1      29.749   5.209  15.963  1.00  0.00    -0.016 C 
HETATM   12  C   UNL     1      29.586   5.942  17.269  1.00  0.00     0.010 C 
HETATM   13  C   UNL     1      28.748   5.525  14.875  1.00  0.00     0.007 C 
HETATM   14  C   UNL     1      28.743   4.295  13.983  1.00  0.00     0.031 C 
ENDBRANCH   3   8
BRANCH   5  15
HETATM   15  C   UNL     1      30.125  -0.819  11.117  1.00  0.00     0.226 C 
HETATM   16  O   UNL     1      31.003  -0.621  10.184  1.00  0.00    -0.643 OA
HETATM   17  OXT UNL     1      29.067  -1.412  10.914  1.00  0.00    -0.643 OA
ENDBRANCH   5  15
TORSDOF 2
ENDMDL
