MODEL 1
REMARK VINA RESULT:      -7.2      0.000      0.000
REMARK  5 active torsions:
REMARK  status: ('A' for Active; 'I' for Inactive)
REMARK    1  A    between atoms: C_1  and  O_10 
REMARK    2  A    between atoms: C_1  and  O_16 
REMARK    3  A    between atoms: O_3  and  C_21 
REMARK    4  A    between atoms: O_6  and  C_21 
REMARK    5  A    between atoms: N_12  and  C_18 
ROOT
HETATM    1  C   UNL     1      31.179   5.029  11.297  1.00  0.00     0.165 C 
HETATM    2  C   UNL     1      30.495   1.404  10.887  1.00  0.00     0.017 C 
HETATM    3  C   UNL     1      29.303   1.871  10.054  1.00  0.00     0.079 C 
HETATM    4  C   UNL     1      29.614   2.916  12.713  1.00  0.00    -0.004 C 
HETATM    5  C   UNL     1      30.661   5.230  12.723  1.00  0.00     0.069 C 
HETATM    6  C   UNL     1      29.529   3.378   9.810  1.00  0.00     0.202 C 
HETATM    7  C   UNL     1      30.770   3.711  10.648  1.00  0.00     0.083 C 
HETATM    8  C   UNL     1      30.778   2.643  11.751  1.00  0.00     0.002 C 
HETATM    9  C   UNL     1      28.100   1.649  10.992  1.00  0.00     0.165 C 
HETATM   10  C   UNL     1      29.422   4.403  13.017  1.00  0.00     0.010 C 
HETATM   11  C   UNL     1      28.224   2.423  12.291  1.00  0.00     0.073 C 
ENDROOT
BRANCH   1  12
HETATM   12  O   UNL     1      32.584   5.068  11.373  1.00  0.00    -0.365 OA
ATOM     13  HO  UNL     1      32.881   5.569  10.623  1.00  0.00     0.213 HD
ENDBRANCH   1  12
BRANCH   1  14
HETATM   14  O   UNL     1      30.802   6.109  10.483  1.00  0.00    -0.365 OA
ATOM     15  HO  UNL     1      31.202   6.031   9.625  1.00  0.00     0.213 HD
ENDBRANCH   1  14
BRANCH   6  16
HETATM   16  N   UNL     1      29.841   3.591   8.401  1.00  0.00    -0.074 N 
ATOM     17  HN3 UNL     1      29.112   4.115   7.918  1.00  0.00     0.274 HD
ATOM     18  HN2 UNL     1      30.605   4.253   8.269  1.00  0.00     0.274 HD
ATOM     19  HN1 UNL     1      30.027   2.690   7.961  1.00  0.00     0.274 HD
ENDBRANCH   6  16
BRANCH   9  20
HETATM   20  O   UNL     1      26.945   1.986  10.278  1.00  0.00    -0.365 OA
ATOM     21  HO  UNL     1      27.216   2.508   9.531  1.00  0.00     0.213 HD
ENDBRANCH   9  20
BRANCH   9  22
HETATM   22  O   UNL     1      27.999   0.272  11.280  1.00  0.00    -0.365 OA
ATOM     23  HO  UNL     1      27.297   0.183  11.913  1.00  0.00     0.213 HD
ENDBRANCH   9  22
TORSDOF 5
ENDMDL
MODEL 2
REMARK VINA RESULT:      -7.1      2.428      4.082
REMARK  5 active torsions:
REMARK  status: ('A' for Active; 'I' for Inactive)
REMARK    1  A    between atoms: C_1  and  O_10 
REMARK    2  A    between atoms: C_1  and  O_16 
REMARK    3  A    between atoms: O_3  and  C_21 
REMARK    4  A    between atoms: O_6  and  C_21 
REMARK    5  A    between atoms: N_12  and  C_18 
ROOT
HETATM    1  C   UNL     1      28.817   1.844  14.508  1.00  0.00     0.165 C 
HETATM    2  C   UNL     1      28.391   2.152  10.833  1.00  0.00     0.017 C 
HETATM    3  C   UNL     1      29.880   1.816  10.778  1.00  0.00     0.079 C 
HETATM    4  C   UNL     1      29.026   3.995  12.446  1.00  0.00    -0.004 C 
HETATM    5  C   UNL     1      28.846   3.325  14.889  1.00  0.00     0.069 C 
HETATM    6  C   UNL     1      30.252   1.334  12.197  1.00  0.00     0.202 C 
HETATM    7  C   UNL     1      28.976   1.565  13.017  1.00  0.00     0.083 C 
HETATM    8  C   UNL     1      28.243   2.687  12.267  1.00  0.00     0.002 C 
HETATM    9  C   UNL     1      30.545   3.174  10.478  1.00  0.00     0.165 C 
HETATM   10  C   UNL     1      29.570   4.180  13.864  1.00  0.00     0.010 C 
HETATM   11  C   UNL     1      30.237   4.220  11.532  1.00  0.00     0.073 C 
ENDROOT
BRANCH   1  12
HETATM   12  O   UNL     1      27.565   1.350  14.919  1.00  0.00    -0.365 OA
ATOM     13  HO  UNL     1      27.041   2.106  15.156  1.00  0.00     0.213 HD
ENDBRANCH   1  12
BRANCH   1  14
HETATM   14  O   UNL     1      29.778   1.131  15.241  1.00  0.00    -0.365 OA
ATOM     15  HO  UNL     1      30.116   0.407  14.727  1.00  0.00     0.213 HD
ENDBRANCH   1  14
BRANCH   6  16
HETATM   16  N   UNL     1      30.532  -0.097  12.155  1.00  0.00    -0.074 N 
ATOM     17  HN3 UNL     1      29.833  -0.614  11.621  1.00  0.00     0.274 HD
ATOM     18  HN2 UNL     1      31.344  -0.317  11.579  1.00  0.00     0.274 HD
ATOM     19  HN1 UNL     1      30.627  -0.446  13.109  1.00  0.00     0.274 HD
ENDBRANCH   6  16
BRANCH   9  20
HETATM   20  O   UNL     1      31.918   2.945  10.337  1.00  0.00    -0.365 OA
ATOM     21  HO  UNL     1      32.259   2.726  11.197  1.00  0.00     0.213 HD
ENDBRANCH   9  20
BRANCH   9  22
HETATM   22  O   UNL     1      30.090   3.631   9.224  1.00  0.00    -0.365 OA
ATOM     23  HO  UNL     1      30.508   4.472   9.080  1.00  0.00     0.213 HD
ENDBRANCH   9  22
TORSDOF 5
ENDMDL
MODEL 3
REMARK VINA RESULT:      -7.0      3.384      4.825
REMARK  5 active torsions:
REMARK  status: ('A' for Active; 'I' for Inactive)
REMARK    1  A    between atoms: C_1  and  O_10 
REMARK    2  A    between atoms: C_1  and  O_16 
REMARK    3  A    between atoms: O_3  and  C_21 
REMARK    4  A    between atoms: O_6  and  C_21 
REMARK    5  A    between atoms: N_12  and  C_18 
ROOT
HETATM    1  C   UNL     1      29.382   0.217  11.305  1.00  0.00     0.165 C 
HETATM    2  C   UNL     1      30.794   2.460  13.903  1.00  0.00     0.017 C 
HETATM    3  C   UNL     1      29.890   1.685  14.858  1.00  0.00     0.079 C 
HETATM    4  C   UNL     1      28.718   2.865  12.515  1.00  0.00    -0.004 C 
HETATM    5  C   UNL     1      28.388   1.177  10.647  1.00  0.00     0.069 C 
HETATM    6  C   UNL     1      29.396   0.458  14.062  1.00  0.00     0.202 C 
HETATM    7  C   UNL     1      29.935   0.690  12.644  1.00  0.00     0.083 C 
HETATM    8  C   UNL     1      30.107   2.213  12.550  1.00  0.00     0.002 C 
HETATM    9  C   UNL     1      28.726   2.660  15.126  1.00  0.00     0.165 C 
HETATM   10  C   UNL     1      27.717   2.101  11.647  1.00  0.00     0.010 C 
HETATM   11  C   UNL     1      28.000   3.062  13.857  1.00  0.00     0.073 C 
ENDROOT
BRANCH   1  12
HETATM   12  O   UNL     1      30.456   0.077  10.406  1.00  0.00    -0.365 OA
ATOM     13  HO  UNL     1      30.276  -0.700   9.890  1.00  0.00     0.213 HD
ENDBRANCH   1  12
BRANCH   1  14
HETATM   14  O   UNL     1      28.814  -1.059  11.437  1.00  0.00    -0.365 OA
ATOM     15  HO  UNL     1      27.920  -0.992  11.751  1.00  0.00     0.213 HD
ENDBRANCH   1  14
BRANCH   6  16
HETATM   16  N   UNL     1      30.011  -0.745  14.609  1.00  0.00    -0.074 N 
ATOM     17  HN3 UNL     1      29.477  -1.136  15.384  1.00  0.00     0.274 HD
ATOM     18  HN2 UNL     1      29.943  -1.540  13.973  1.00  0.00     0.274 HD
ATOM     19  HN1 UNL     1      30.976  -0.538  14.869  1.00  0.00     0.274 HD
ENDBRANCH   6  16
BRANCH   9  20
HETATM   20  O   UNL     1      27.878   2.053  16.058  1.00  0.00    -0.365 OA
ATOM     21  HO  UNL     1      27.309   2.730  16.407  1.00  0.00     0.213 HD
ENDBRANCH   9  20
BRANCH   9  22
HETATM   22  O   UNL     1      29.241   3.814  15.752  1.00  0.00    -0.365 OA
ATOM     23  HO  UNL     1      28.539   4.454  15.748  1.00  0.00     0.213 HD
ENDBRANCH   9  22
TORSDOF 5
ENDMDL
MODEL 4
REMARK VINA RESULT:      -6.7      2.058      4.538
REMARK  5 active torsions:
REMARK  status: ('A' for Active; 'I' for Inactive)
REMARK    1  A    between atoms: C_1  and  O_10 
REMARK    2  A    between atoms: C_1  and  O_16 
REMARK    3  A    between atoms: O_3  and  C_21 
REMARK    4  A    between atoms: O_6  and  C_21 
REMARK    5  A    between atoms: N_12  and  C_18 
ROOT
HETATM    1  C   UNL     1      29.839  -0.720  11.893  1.00  0.00     0.165 C 
HETATM    2  C   UNL     1      29.731   2.918  12.620  1.00  0.00     0.017 C 
HETATM    3  C   UNL     1      29.029   3.021  11.267  1.00  0.00     0.079 C 
HETATM    4  C   UNL     1      31.562   1.669  11.400  1.00  0.00    -0.004 C 
HETATM    5  C   UNL     1      31.305  -0.856  11.473  1.00  0.00     0.069 C 
HETATM    6  C   UNL     1      28.671   1.572  10.873  1.00  0.00     0.202 C 
HETATM    7  C   UNL     1      29.326   0.714  11.963  1.00  0.00     0.083 C 
HETATM    8  C   UNL     1      30.480   1.582  12.484  1.00  0.00     0.002 C 
HETATM    9  C   UNL     1      30.123   3.580  10.336  1.00  0.00     0.165 C 
HETATM   10  C   UNL     1      31.800   0.340  10.680  1.00  0.00     0.010 C 
HETATM   11  C   UNL     1      31.348   2.689  10.274  1.00  0.00     0.073 C 
ENDROOT
BRANCH   1  12
HETATM   12  O   UNL     1      29.736  -1.291  13.175  1.00  0.00    -0.365 OA
ATOM     13  HO  UNL     1      28.965  -0.911  13.578  1.00  0.00     0.213 HD
ENDBRANCH   1  12
BRANCH   1  14
HETATM   14  O   UNL     1      29.017  -1.490  11.055  1.00  0.00    -0.365 OA
ATOM     15  HO  UNL     1      29.183  -1.278  10.144  1.00  0.00     0.213 HD
ENDBRANCH   1  14
BRANCH   6  16
HETATM   16  N   UNL     1      27.224   1.403  10.945  1.00  0.00    -0.074 N 
ATOM     17  HN3 UNL     1      26.761   1.640  10.068  1.00  0.00     0.274 HD
ATOM     18  HN2 UNL     1      26.950   0.421  10.991  1.00  0.00     0.274 HD
ATOM     19  HN1 UNL     1      26.864   1.943  11.732  1.00  0.00     0.274 HD
ENDBRANCH   6  16
BRANCH   9  20
HETATM   20  O   UNL     1      29.540   3.777   9.079  1.00  0.00    -0.365 OA
ATOM     21  HO  UNL     1      29.898   3.118   8.494  1.00  0.00     0.213 HD
ENDBRANCH   9  20
BRANCH   9  22
HETATM   22  O   UNL     1      30.500   4.857  10.800  1.00  0.00    -0.365 OA
ATOM     23  HO  UNL     1      29.737   5.219  11.234  1.00  0.00     0.213 HD
ENDBRANCH   9  22
TORSDOF 5
ENDMDL
MODEL 5
REMARK VINA RESULT:      -6.7      2.511      3.998
REMARK  5 active torsions:
REMARK  status: ('A' for Active; 'I' for Inactive)
REMARK    1  A    between atoms: C_1  and  O_10 
REMARK    2  A    between atoms: C_1  and  O_16 
REMARK    3  A    between atoms: O_3  and  C_21 
REMARK    4  A    between atoms: O_6  and  C_21 
REMARK    5  A    between atoms: N_12  and  C_18 
ROOT
HETATM    1  C   UNL     1      28.077   2.568  14.522  1.00  0.00     0.165 C 
HETATM    2  C   UNL     1      29.441   4.079  11.417  1.00  0.00     0.017 C 
HETATM    3  C   UNL     1      29.286   2.674  10.838  1.00  0.00     0.079 C 
HETATM    4  C   UNL     1      30.761   2.995  13.283  1.00  0.00    -0.004 C 
HETATM    5  C   UNL     1      29.369   2.430  15.331  1.00  0.00     0.069 C 
HETATM    6  C   UNL     1      28.436   1.892  11.862  1.00  0.00     0.202 C 
HETATM    7  C   UNL     1      28.281   2.863  13.040  1.00  0.00     0.083 C 
HETATM    8  C   UNL     1      29.498   3.791  12.926  1.00  0.00     0.002 C 
HETATM    9  C   UNL     1      30.730   2.135  10.810  1.00  0.00     0.165 C 
HETATM   10  C   UNL     1      30.561   2.051  14.470  1.00  0.00     0.010 C 
HETATM   11  C   UNL     1      31.371   2.115  12.184  1.00  0.00     0.073 C 
ENDROOT
BRANCH   1  12
HETATM   12  O   UNL     1      27.361   3.637  15.092  1.00  0.00    -0.365 OA
ATOM     13  HO  UNL     1      26.461   3.542  14.803  1.00  0.00     0.213 HD
ENDBRANCH   1  12
BRANCH   1  14
HETATM   14  O   UNL     1      27.275   1.428  14.685  1.00  0.00    -0.365 OA
ATOM     15  HO  UNL     1      26.719   1.304  13.924  1.00  0.00     0.213 HD
ENDBRANCH   1  14
BRANCH   6  16
HETATM   16  N   UNL     1      27.120   1.633  11.289  1.00  0.00    -0.074 N 
ATOM     17  HN3 UNL     1      27.077   1.861  10.296  1.00  0.00     0.274 HD
ATOM     18  HN2 UNL     1      26.918   0.635  11.216  1.00  0.00     0.274 HD
ATOM     19  HN1 UNL     1      26.415   2.132  11.832  1.00  0.00     0.274 HD
ENDBRANCH   6  16
BRANCH   9  20
HETATM   20  O   UNL     1      30.691   0.867  10.220  1.00  0.00    -0.365 OA
ATOM     21  HO  UNL     1      31.534   0.457  10.374  1.00  0.00     0.213 HD
ENDBRANCH   9  20
BRANCH   9  22
HETATM   22  O   UNL     1      31.498   2.947   9.951  1.00  0.00    -0.365 OA
ATOM     23  HO  UNL     1      31.009   3.012   9.139  1.00  0.00     0.213 HD
ENDBRANCH   9  22
TORSDOF 5
ENDMDL
MODEL 6
REMARK VINA RESULT:      -6.6      2.572      4.445
REMARK  5 active torsions:
REMARK  status: ('A' for Active; 'I' for Inactive)
REMARK    1  A    between atoms: C_1  and  O_10 
REMARK    2  A    between atoms: C_1  and  O_16 
REMARK    3  A    between atoms: O_3  and  C_21 
REMARK    4  A    between atoms: O_6  and  C_21 
REMARK    5  A    between atoms: N_12  and  C_18 
ROOT
HETATM    1  C   UNL     1      29.864  -0.013  13.938  1.00  0.00     0.165 C 
HETATM    2  C   UNL     1      30.423   3.292  12.345  1.00  0.00     0.017 C 
HETATM    3  C   UNL     1      29.031   3.080  11.751  1.00  0.00     0.079 C 
HETATM    4  C   UNL     1      31.009   1.027  11.384  1.00  0.00    -0.004 C 
HETATM    5  C   UNL     1      30.728  -0.888  13.027  1.00  0.00     0.069 C 
HETATM    6  C   UNL     1      28.432   1.879  12.514  1.00  0.00     0.202 C 
HETATM    7  C   UNL     1      29.583   1.386  13.400  1.00  0.00     0.083 C 
HETATM    8  C   UNL     1      30.850   1.852  12.668  1.00  0.00     0.002 C 
HETATM    9  C   UNL     1      29.319   2.699  10.286  1.00  0.00     0.165 C 
HETATM   10  C   UNL     1      30.673  -0.453  11.574  1.00  0.00     0.010 C 
HETATM   11  C   UNL     1      30.185   1.460  10.164  1.00  0.00     0.073 C 
ENDROOT
BRANCH   1  12
HETATM   12  O   UNL     1      30.564   0.112  15.153  1.00  0.00    -0.365 OA
ATOM     13  HO  UNL     1      31.391   0.530  14.946  1.00  0.00     0.213 HD
ENDBRANCH   1  12
BRANCH   1  14
HETATM   14  O   UNL     1      28.661  -0.667  14.246  1.00  0.00    -0.365 OA
ATOM     15  HO  UNL     1      28.390  -0.461  15.133  1.00  0.00     0.213 HD
ENDBRANCH   1  14
BRANCH   6  16
HETATM   16  N   UNL     1      27.348   2.351  13.369  1.00  0.00    -0.074 N 
ATOM     17  HN3 UNL     1      26.831   3.122  12.949  1.00  0.00     0.274 HD
ATOM     18  HN2 UNL     1      26.582   1.680  13.429  1.00  0.00     0.274 HD
ATOM     19  HN1 UNL     1      27.727   2.591  14.285  1.00  0.00     0.274 HD
ENDBRANCH   6  16
BRANCH   9  20
HETATM   20  O   UNL     1      28.086   2.556   9.641  1.00  0.00    -0.365 OA
ATOM     21  HO  UNL     1      27.685   3.417   9.601  1.00  0.00     0.213 HD
ENDBRANCH   9  20
BRANCH   9  22
HETATM   22  O   UNL     1      29.969   3.783   9.658  1.00  0.00    -0.365 OA
ATOM     23  HO  UNL     1      30.758   3.428   9.266  1.00  0.00     0.213 HD
ENDBRANCH   9  22
TORSDOF 5
ENDMDL
MODEL 7
REMARK VINA RESULT:      -6.5      2.658      3.311
REMARK  5 active torsions:
REMARK  status: ('A' for Active; 'I' for Inactive)
REMARK    1  A    between atoms: C_1  and  O_10 
REMARK    2  A    between atoms: C_1  and  O_16 
REMARK    3  A    between atoms: O_3  and  C_21 
REMARK    4  A    between atoms: O_6  and  C_21 
REMARK    5  A    between atoms: N_12  and  C_18 
ROOT
HETATM    1  C   UNL     1      30.645   2.927  10.894  1.00  0.00     0.165 C 
HETATM    2  C   UNL     1      30.832   1.623  14.364  1.00  0.00     0.017 C 
HETATM    3  C   UNL     1      29.429   1.087  14.084  1.00  0.00     0.079 C 
HETATM    4  C   UNL     1      29.947   3.878  13.637  1.00  0.00    -0.004 C 
HETATM    5  C   UNL     1      30.362   4.402  11.187  1.00  0.00     0.069 C 
HETATM    6  C   UNL     1      29.220   1.240  12.562  1.00  0.00     0.202 C 
HETATM    7  C   UNL     1      30.469   1.994  12.087  1.00  0.00     0.083 C 
HETATM    8  C   UNL     1      30.947   2.755  13.331  1.00  0.00     0.002 C 
HETATM    9  C   UNL     1      28.513   2.057  14.855  1.00  0.00     0.165 C 
HETATM   10  C   UNL     1      29.446   4.596  12.382  1.00  0.00     0.010 C 
HETATM   11  C   UNL     1      28.673   3.495  14.401  1.00  0.00     0.073 C 
ENDROOT
BRANCH   1  12
HETATM   12  O   UNL     1      31.984   2.854  10.467  1.00  0.00    -0.365 OA
ATOM     13  HO  UNL     1      32.478   2.486  11.191  1.00  0.00     0.213 HD
ENDBRANCH   1  12
BRANCH   1  14
HETATM   14  O   UNL     1      29.866   2.485   9.812  1.00  0.00    -0.365 OA
ATOM     15  HO  UNL     1      29.441   1.663  10.025  1.00  0.00     0.213 HD
ENDBRANCH   1  14
BRANCH   6  16
HETATM   16  N   UNL     1      29.206  -0.083  11.948  1.00  0.00    -0.074 N 
ATOM     17  HN3 UNL     1      29.505  -0.814  12.594  1.00  0.00     0.274 HD
ATOM     18  HN2 UNL     1      28.259  -0.422  11.777  1.00  0.00     0.274 HD
ATOM     19  HN1 UNL     1      29.771  -0.063  11.098  1.00  0.00     0.274 HD
ENDBRANCH   6  16
BRANCH   9  20
HETATM   20  O   UNL     1      27.200   1.595  14.713  1.00  0.00    -0.365 OA
ATOM     21  HO  UNL     1      26.793   1.627  15.571  1.00  0.00     0.213 HD
ENDBRANCH   9  20
BRANCH   9  22
HETATM   22  O   UNL     1      28.816   1.968  16.230  1.00  0.00    -0.365 OA
ATOM     23  HO  UNL     1      29.682   2.343  16.336  1.00  0.00     0.213 HD
ENDBRANCH   9  22
TORSDOF 5
ENDMDL
MODEL 8
REMARK VINA RESULT:      -6.5      2.554      3.616
REMARK  5 active torsions:
REMARK  status: ('A' for Active; 'I' for Inactive)
REMARK    1  A    between atoms: C_1  and  O_10 
REMARK    2  A    between atoms: C_1  and  O_16 
REMARK    3  A    between atoms: O_3  and  C_21 
REMARK    4  A    between atoms: O_6  and  C_21 
REMARK    5  A    between atoms: N_12  and  C_18 
ROOT
HETATM    1  C   UNL     1      30.741   3.099  10.704  1.00  0.00     0.165 C 
HETATM    2  C   UNL     1      27.623   2.715  12.681  1.00  0.00     0.017 C 
HETATM    3  C   UNL     1      28.453   3.282  13.830  1.00  0.00     0.079 C 
HETATM    4  C   UNL     1      29.461   1.001  12.402  1.00  0.00    -0.004 C 
HETATM    5  C   UNL     1      31.207   1.641  10.672  1.00  0.00     0.069 C 
HETATM    6  C   UNL     1      29.747   3.821  13.184  1.00  0.00     0.202 C 
HETATM    7  C   UNL     1      29.638   3.394  11.714  1.00  0.00     0.083 C 
HETATM    8  C   UNL     1      28.713   2.169  11.745  1.00  0.00     0.002 C 
HETATM    9  C   UNL     1      28.758   2.045  14.698  1.00  0.00     0.165 C 
HETATM   10  C   UNL     1      30.927   0.908  11.972  1.00  0.00     0.010 C 
HETATM   11  C   UNL     1      29.503   0.967  13.935  1.00  0.00     0.073 C 
ENDROOT
BRANCH   1  12
HETATM   12  O   UNL     1      30.252   3.390   9.417  1.00  0.00    -0.365 OA
ATOM     13  HO  UNL     1      29.307   3.445   9.493  1.00  0.00     0.213 HD
ENDBRANCH   1  12
BRANCH   1  14
HETATM   14  O   UNL     1      31.832   3.956  10.911  1.00  0.00    -0.365 OA
ATOM     15  HO  UNL     1      31.812   4.674  10.289  1.00  0.00     0.213 HD
ENDBRANCH   1  14
BRANCH   6  16
HETATM   16  N   UNL     1      29.742   5.278  13.253  1.00  0.00    -0.074 N 
ATOM     17  HN3 UNL     1      28.827   5.652  13.502  1.00  0.00     0.274 HD
ATOM     18  HN2 UNL     1      30.264   5.630  14.055  1.00  0.00     0.274 HD
ATOM     19  HN1 UNL     1      30.088   5.655  12.369  1.00  0.00     0.274 HD
ENDBRANCH   6  16
BRANCH   9  20
HETATM   20  O   UNL     1      29.461   2.487  15.824  1.00  0.00    -0.365 OA
ATOM     21  HO  UNL     1      29.651   1.723  16.358  1.00  0.00     0.213 HD
ENDBRANCH   9  20
BRANCH   9  22
HETATM   22  O   UNL     1      27.540   1.518  15.175  1.00  0.00    -0.365 OA
ATOM     23  HO  UNL     1      27.049   2.253  15.522  1.00  0.00     0.213 HD
ENDBRANCH   9  22
TORSDOF 5
ENDMDL
MODEL 9
REMARK VINA RESULT:      -6.4      1.963      4.431
REMARK  5 active torsions:
REMARK  status: ('A' for Active; 'I' for Inactive)
REMARK    1  A    between atoms: C_1  and  O_10 
REMARK    2  A    between atoms: C_1  and  O_16 
REMARK    3  A    between atoms: O_3  and  C_21 
REMARK    4  A    between atoms: O_6  and  C_21 
REMARK    5  A    between atoms: N_12  and  C_18 
ROOT
HETATM    1  C   UNL     1      29.115   0.878  11.250  1.00  0.00     0.165 C 
HETATM    2  C   UNL     1      28.466   3.884  13.327  1.00  0.00     0.017 C 
HETATM    3  C   UNL     1      29.807   4.372  12.783  1.00  0.00     0.079 C 
HETATM    4  C   UNL     1      29.693   1.788  14.035  1.00  0.00    -0.004 C 
HETATM    5  C   UNL     1      29.560  -0.099  12.341  1.00  0.00     0.069 C 
HETATM    6  C   UNL     1      30.163   3.411  11.628  1.00  0.00     0.202 C 
HETATM    7  C   UNL     1      29.067   2.339  11.682  1.00  0.00     0.083 C 
HETATM    8  C   UNL     1      28.586   2.363  13.140  1.00  0.00     0.002 C 
HETATM    9  C   UNL     1      30.771   4.173  13.969  1.00  0.00     0.165 C 
HETATM   10  C   UNL     1      30.388   0.570  13.423  1.00  0.00     0.010 C 
HETATM   11  C   UNL     1      30.837   2.730  14.431  1.00  0.00     0.073 C 
ENDROOT
BRANCH   1  12
HETATM   12  O   UNL     1      27.819   0.485  10.866  1.00  0.00    -0.365 OA
ATOM     13  HO  UNL     1      27.513   1.137  10.247  1.00  0.00     0.213 HD
ENDBRANCH   1  12
BRANCH   1  14
HETATM   14  O   UNL     1      29.920   0.735  10.108  1.00  0.00    -0.365 OA
ATOM     15  HO  UNL     1      29.913  -0.167   9.809  1.00  0.00     0.213 HD
ENDBRANCH   1  14
BRANCH   6  16
HETATM   16  N   UNL     1      30.059   4.128  10.362  1.00  0.00    -0.074 N 
ATOM     17  HN3 UNL     1      30.956   4.503  10.054  1.00  0.00     0.274 HD
ATOM     18  HN2 UNL     1      29.887   3.502   9.575  1.00  0.00     0.274 HD
ATOM     19  HN1 UNL     1      29.344   4.852  10.446  1.00  0.00     0.274 HD
ENDBRANCH   6  16
BRANCH   9  20
HETATM   20  O   UNL     1      32.020   4.667  13.579  1.00  0.00    -0.365 OA
ATOM     21  HO  UNL     1      32.646   4.420  14.250  1.00  0.00     0.213 HD
ENDBRANCH   9  20
BRANCH   9  22
HETATM   22  O   UNL     1      30.342   4.985  15.039  1.00  0.00    -0.365 OA
ATOM     23  HO  UNL     1      30.550   4.508  15.834  1.00  0.00     0.213 HD
ENDBRANCH   9  22
TORSDOF 5
ENDMDL
