MODEL 1
REMARK VINA RESULT:      -5.9      0.000      0.000
REMARK  2 active torsions:
REMARK  status: ('A' for Active; 'I' for Inactive)
REMARK    1  A    between atoms: O_1  and  C_7 
REMARK    2  A    between atoms: C_7  and  C_10 
ROOT
HETATM    1  C   UNL     1      45.176  38.166  19.302  1.00  0.00     0.019 C 
HETATM    2  N   UNL     1      46.235  36.828  21.024  1.00  0.00    -0.383 N 
ATOM      3  HN  UNL     1      46.828  36.000  20.969  1.00  0.00     0.156 HD
HETATM    4  C   UNL     1      46.538  37.938  21.919  1.00  0.00     0.218 C 
HETATM    5  C   UNL     1      45.982  39.295  21.448  1.00  0.00     0.072 C 
HETATM    6  C   UNL     1      45.832  39.362  19.942  1.00  0.00     0.007 C 
HETATM    7  C   UNL     1      45.032  36.974  20.211  1.00  0.00     0.117 C 
ENDROOT
BRANCH   4   8
HETATM    8  O   UNL     1      47.946  38.045  22.000  1.00  0.00    -0.362 OA
ATOM      9  HO  UNL     1      48.234  37.483  22.710  1.00  0.00     0.213 HD
ENDBRANCH   4   8
BRANCH   4  10
HETATM   10  C   UNL     1      45.935  37.636  23.314  1.00  0.00     0.231 C 
HETATM   11  O   UNL     1      45.527  36.486  23.536  1.00  0.00    -0.644 OA
HETATM   12  O   UNL     1      45.779  38.566  24.106  1.00  0.00    -0.644 OA
ENDBRANCH   4  10
TORSDOF 2
ENDMDL
MODEL 2
REMARK VINA RESULT:      -5.8      2.933      3.729
REMARK  2 active torsions:
REMARK  status: ('A' for Active; 'I' for Inactive)
REMARK    1  A    between atoms: O_1  and  C_7 
REMARK    2  A    between atoms: C_7  and  C_10 
ROOT
HETATM    1  C   UNL     1      46.146  38.275  21.176  1.00  0.00     0.019 C 
HETATM    2  N   UNL     1      48.371  38.863  21.939  1.00  0.00    -0.383 N 
ATOM      3  HN  UNL     1      49.154  38.289  22.251  1.00  0.00     0.156 HD
HETATM    4  C   UNL     1      48.552  39.991  21.034  1.00  0.00     0.218 C 
HETATM    5  C   UNL     1      47.310  40.323  20.186  1.00  0.00     0.072 C 
HETATM    6  C   UNL     1      46.432  39.110  19.955  1.00  0.00     0.007 C 
HETATM    7  C   UNL     1      47.000  38.606  22.371  1.00  0.00     0.117 C 
ENDROOT
BRANCH   4   8
HETATM    8  O   UNL     1      49.609  39.662  20.153  1.00  0.00    -0.362 OA
ATOM      9  HO  UNL     1      49.990  40.478  19.848  1.00  0.00     0.213 HD
ENDBRANCH   4   8
BRANCH   4  10
HETATM   10  C   UNL     1      48.909  41.248  21.865  1.00  0.00     0.231 C 
HETATM   11  O   UNL     1      50.109  41.494  22.067  1.00  0.00    -0.644 OA
HETATM   12  O   UNL     1      47.998  41.892  22.389  1.00  0.00    -0.644 OA
ENDBRANCH   4  10
TORSDOF 2
ENDMDL
MODEL 3
REMARK VINA RESULT:      -5.6      1.964      3.132
REMARK  2 active torsions:
REMARK  status: ('A' for Active; 'I' for Inactive)
REMARK    1  A    between atoms: O_1  and  C_7 
REMARK    2  A    between atoms: C_7  and  C_10 
ROOT
HETATM    1  C   UNL     1      46.828  40.076  22.406  1.00  0.00     0.019 C 
HETATM    2  N   UNL     1      47.340  38.086  21.121  1.00  0.00    -0.383 N 
ATOM      3  HN  UNL     1      48.227  37.638  20.892  1.00  0.00     0.156 HD
HETATM    4  C   UNL     1      46.176  37.321  21.549  1.00  0.00     0.218 C 
HETATM    5  C   UNL     1      45.195  38.112  22.435  1.00  0.00     0.072 C 
HETATM    6  C   UNL     1      45.884  39.218  23.207  1.00  0.00     0.007 C 
HETATM    7  C   UNL     1      47.160  39.532  21.042  1.00  0.00     0.117 C 
ENDROOT
BRANCH   4   8
HETATM    8  O   UNL     1      46.645  36.215  22.294  1.00  0.00    -0.362 OA
ATOM      9  HO  UNL     1      46.439  35.430  21.799  1.00  0.00     0.213 HD
ENDBRANCH   4   8
BRANCH   4  10
HETATM   10  C   UNL     1      45.402  36.843  20.295  1.00  0.00     0.231 C 
HETATM   11  O   UNL     1      44.281  36.337  20.458  1.00  0.00    -0.644 OA
HETATM   12  O   UNL     1      45.968  36.876  19.201  1.00  0.00    -0.644 OA
ENDBRANCH   4  10
TORSDOF 2
ENDMDL
MODEL 4
REMARK VINA RESULT:      -5.5      2.366      3.506
REMARK  2 active torsions:
REMARK  status: ('A' for Active; 'I' for Inactive)
REMARK    1  A    between atoms: O_1  and  C_7 
REMARK    2  A    between atoms: C_7  and  C_10 
ROOT
HETATM    1  C   UNL     1      47.162  40.376  22.440  1.00  0.00     0.019 C 
HETATM    2  N   UNL     1      47.568  38.681  20.757  1.00  0.00    -0.383 N 
ATOM      3  HN  UNL     1      48.403  38.144  20.524  1.00  0.00     0.156 HD
HETATM    4  C   UNL     1      46.250  38.064  20.836  1.00  0.00     0.218 C 
HETATM    5  C   UNL     1      45.271  38.792  21.776  1.00  0.00     0.072 C 
HETATM    6  C   UNL     1      45.986  39.543  22.880  1.00  0.00     0.007 C 
HETATM    7  C   UNL     1      47.620  40.114  21.030  1.00  0.00     0.117 C 
ENDROOT
BRANCH   4   8
HETATM    8  O   UNL     1      46.427  36.748  21.322  1.00  0.00    -0.362 OA
ATOM      9  HO  UNL     1      47.362  36.592  21.389  1.00  0.00     0.213 HD
ENDBRANCH   4   8
BRANCH   4  10
HETATM   10  C   UNL     1      45.621  38.041  19.421  1.00  0.00     0.231 C 
HETATM   11  O   UNL     1      46.047  37.207  18.606  1.00  0.00    -0.644 OA
HETATM   12  O   UNL     1      44.809  38.916  19.118  1.00  0.00    -0.644 OA
ENDBRANCH   4  10
TORSDOF 2
ENDMDL
MODEL 5
REMARK VINA RESULT:      -5.1      2.285      3.491
REMARK  2 active torsions:
REMARK  status: ('A' for Active; 'I' for Inactive)
REMARK    1  A    between atoms: O_1  and  C_7 
REMARK    2  A    between atoms: C_7  and  C_10 
ROOT
HETATM    1  C   UNL     1      45.035  37.764  23.457  1.00  0.00     0.019 C 
HETATM    2  N   UNL     1      46.683  39.437  22.857  1.00  0.00    -0.383 N 
ATOM      3  HN  UNL     1      47.315  40.000  23.427  1.00  0.00     0.156 HD
HETATM    4  C   UNL     1      47.121  38.790  21.627  1.00  0.00     0.218 C 
HETATM    5  C   UNL     1      46.316  37.530  21.259  1.00  0.00     0.072 C 
HETATM    6  C   UNL     1      45.725  36.850  22.476  1.00  0.00     0.007 C 
HETATM    7  C   UNL     1      45.286  39.230  23.225  1.00  0.00     0.117 C 
ENDROOT
BRANCH   4   8
HETATM    8  O   UNL     1      48.472  38.411  21.805  1.00  0.00    -0.362 OA
ATOM      9  HO  UNL     1      48.550  38.036  22.675  1.00  0.00     0.213 HD
ENDBRANCH   4   8
BRANCH   4  10
HETATM   10  C   UNL     1      46.989  39.797  20.457  1.00  0.00     0.231 C 
HETATM   11  O   UNL     1      46.095  39.602  19.618  1.00  0.00    -0.644 OA
HETATM   12  O   UNL     1      47.837  40.682  20.337  1.00  0.00    -0.644 OA
ENDBRANCH   4  10
TORSDOF 2
ENDMDL
MODEL 6
REMARK VINA RESULT:      -4.9      1.616      2.673
REMARK  2 active torsions:
REMARK  status: ('A' for Active; 'I' for Inactive)
REMARK    1  A    between atoms: O_1  and  C_7 
REMARK    2  A    between atoms: C_7  and  C_10 
ROOT
HETATM    1  C   UNL     1      45.584  37.133  19.453  1.00  0.00     0.019 C 
HETATM    2  N   UNL     1      45.797  39.348  20.412  1.00  0.00    -0.383 N 
ATOM      3  HN  UNL     1      45.257  40.202  20.272  1.00  0.00     0.156 HD
HETATM    4  C   UNL     1      46.211  38.904  21.738  1.00  0.00     0.218 C 
HETATM    5  C   UNL     1      46.418  37.383  21.854  1.00  0.00     0.072 C 
HETATM    6  C   UNL     1      45.569  36.610  20.866  1.00  0.00     0.007 C 
HETATM    7  C   UNL     1      46.203  38.496  19.299  1.00  0.00     0.117 C 
ENDROOT
BRANCH   4   8
HETATM    8  O   UNL     1      45.195  39.279  22.646  1.00  0.00    -0.362 OA
ATOM      9  HO  UNL     1      45.575  39.273  23.517  1.00  0.00     0.213 HD
ENDBRANCH   4   8
BRANCH   4  10
HETATM   10  C   UNL     1      47.548  39.595  22.103  1.00  0.00     0.231 C 
HETATM   11  O   UNL     1      48.577  38.902  22.121  1.00  0.00    -0.644 OA
HETATM   12  O   UNL     1      47.528  40.771  22.469  1.00  0.00    -0.644 OA
ENDBRANCH   4  10
TORSDOF 2
ENDMDL
MODEL 7
REMARK VINA RESULT:      -4.7      3.519      4.439
REMARK  2 active torsions:
REMARK  status: ('A' for Active; 'I' for Inactive)
REMARK    1  A    between atoms: O_1  and  C_7 
REMARK    2  A    between atoms: C_7  and  C_10 
ROOT
HETATM    1  C   UNL     1      50.440  41.878  21.720  1.00  0.00     0.019 C 
HETATM    2  N   UNL     1      48.132  41.307  21.248  1.00  0.00    -0.383 N 
ATOM      3  HN  UNL     1      47.426  41.764  20.672  1.00  0.00     0.156 HD
HETATM    4  C   UNL     1      48.330  39.863  21.228  1.00  0.00     0.218 C 
HETATM    5  C   UNL     1      49.756  39.419  21.606  1.00  0.00     0.072 C 
HETATM    6  C   UNL     1      50.791  40.478  21.285  1.00  0.00     0.007 C 
HETATM    7  C   UNL     1      49.007  42.059  22.143  1.00  0.00     0.117 C 
ENDROOT
BRANCH   4   8
HETATM    8  O   UNL     1      48.066  39.417  19.913  1.00  0.00    -0.362 OA
ATOM      9  HO  UNL     1      48.107  38.467  19.921  1.00  0.00     0.213 HD
ENDBRANCH   4   8
BRANCH   4  10
HETATM   10  C   UNL     1      47.348  39.209  22.232  1.00  0.00     0.231 C 
HETATM   11  O   UNL     1      46.605  39.953  22.890  1.00  0.00    -0.644 OA
HETATM   12  O   UNL     1      47.418  37.994  22.424  1.00  0.00    -0.644 OA
ENDBRANCH   4  10
TORSDOF 2
ENDMDL
MODEL 8
REMARK VINA RESULT:      -4.7      2.784      4.041
REMARK  2 active torsions:
REMARK  status: ('A' for Active; 'I' for Inactive)
REMARK    1  A    between atoms: O_1  and  C_7 
REMARK    2  A    between atoms: C_7  and  C_10 
ROOT
HETATM    1  C   UNL     1      46.198  38.312  20.424  1.00  0.00     0.019 C 
HETATM    2  N   UNL     1      47.330  40.454  20.359  1.00  0.00    -0.383 N 
ATOM      3  HN  UNL     1      47.022  41.374  20.044  1.00  0.00     0.156 HD
HETATM    4  C   UNL     1      48.078  40.272  21.597  1.00  0.00     0.218 C 
HETATM    5  C   UNL     1      47.906  38.881  22.236  1.00  0.00     0.072 C 
HETATM    6  C   UNL     1      46.577  38.247  21.881  1.00  0.00     0.007 C 
HETATM    7  C   UNL     1      47.049  39.240  19.599  1.00  0.00     0.117 C 
ENDROOT
BRANCH   4   8
HETATM    8  O   UNL     1      47.614  41.239  22.519  1.00  0.00    -0.362 OA
ATOM      9  HO  UNL     1      46.881  40.856  22.988  1.00  0.00     0.213 HD
ENDBRANCH   4   8
BRANCH   4  10
HETATM   10  C   UNL     1      49.586  40.478  21.307  1.00  0.00     0.231 C 
HETATM   11  O   UNL     1      50.049  41.624  21.411  1.00  0.00    -0.644 OA
HETATM   12  O   UNL     1      50.242  39.528  20.876  1.00  0.00    -0.644 OA
ENDBRANCH   4  10
TORSDOF 2
ENDMDL
MODEL 9
REMARK VINA RESULT:      -4.5      2.752      3.428
REMARK  2 active torsions:
REMARK  status: ('A' for Active; 'I' for Inactive)
REMARK    1  A    between atoms: O_1  and  C_7 
REMARK    2  A    between atoms: C_7  and  C_10 
ROOT
HETATM    1  C   UNL     1      45.467  37.737  22.676  1.00  0.00     0.019 C 
HETATM    2  N   UNL     1      47.045  38.076  20.868  1.00  0.00    -0.383 N 
ATOM      3  HN  UNL     1      47.083  37.696  19.922  1.00  0.00     0.156 HD
HETATM    4  C   UNL     1      47.301  39.483  21.147  1.00  0.00     0.218 C 
HETATM    5  C   UNL     1      46.607  40.009  22.417  1.00  0.00     0.072 C 
HETATM    6  C   UNL     1      45.345  39.238  22.742  1.00  0.00     0.007 C 
HETATM    7  C   UNL     1      46.731  37.243  22.025  1.00  0.00     0.117 C 
ENDROOT
BRANCH   4   8
HETATM    8  O   UNL     1      46.820  40.227  20.045  1.00  0.00    -0.362 OA
ATOM      9  HO  UNL     1      46.449  39.610  19.424  1.00  0.00     0.213 HD
ENDBRANCH   4   8
BRANCH   4  10
HETATM   10  C   UNL     1      48.827  39.690  21.318  1.00  0.00     0.231 C 
HETATM   11  O   UNL     1      49.242  40.080  22.421  1.00  0.00    -0.644 OA
HETATM   12  O   UNL     1      49.556  39.572  20.333  1.00  0.00    -0.644 OA
ENDBRANCH   4  10
TORSDOF 2
ENDMDL
