MODEL 1
REMARK VINA RESULT:      -6.7      0.000      0.000
REMARK  4 active torsions:
REMARK  status: ('A' for Active; 'I' for Inactive)
REMARK    1  A    between atoms: O_2  and  C_14 
REMARK    2  A    between atoms: O_6  and  C_14 
REMARK    3  A    between atoms: C_8  and  C_14 
REMARK    4  A    between atoms: O_9  and  C_14 
ROOT
HETATM    1  C   UNL     1      46.273  39.424  22.453  1.00  0.00     0.003 C 
HETATM    2  N   UNL     1      46.927  38.864  19.848  1.00  0.00    -0.363 N 
ATOM      3  HN  UNL     1      47.014  38.761  18.837  1.00  0.00     0.165 HD
HETATM    4  C   UNL     1      46.262  37.939  20.597  1.00  0.00     0.101 C 
HETATM    5  C   UNL     1      47.463  39.916  20.493  1.00  0.00     0.088 C 
HETATM    6  C   UNL     1      45.593  38.440  21.730  1.00  0.00     0.033 C 
HETATM    7  C   UNL     1      47.348  40.081  21.851  1.00  0.00     0.017 C 
ENDROOT
BRANCH   4   8
HETATM    8  C   UNL     1      45.663  36.720  19.846  1.00  0.00     0.323 C 
BRANCH   8   9
HETATM    9  O   UNL     1      46.200  35.550  20.404  1.00  0.00    -0.338 OA
ATOM     10  HO  UNL     1      47.129  35.716  20.518  1.00  0.00     0.216 HD
ENDBRANCH   8   9
BRANCH   8  11
HETATM   11  O   UNL     1      46.038  36.721  18.535  1.00  0.00    -0.338 OA
ATOM     12  HO  UNL     1      46.884  37.152  18.503  1.00  0.00     0.216 HD
ENDBRANCH   8  11
BRANCH   8  13
HETATM   13  O   UNL     1      44.324  36.676  19.960  1.00  0.00    -0.338 OA
ATOM     14  HO  UNL     1      44.102  36.464  20.859  1.00  0.00     0.216 HD
ENDBRANCH   8  13
ENDBRANCH   4   8
TORSDOF 4
ENDMDL
MODEL 2
REMARK VINA RESULT:      -6.5      1.502      2.293
REMARK  4 active torsions:
REMARK  status: ('A' for Active; 'I' for Inactive)
REMARK    1  A    between atoms: O_2  and  C_14 
REMARK    2  A    between atoms: O_6  and  C_14 
REMARK    3  A    between atoms: C_8  and  C_14 
REMARK    4  A    between atoms: O_9  and  C_14 
ROOT
HETATM    1  C   UNL     1      46.325  39.612  22.498  1.00  0.00     0.003 C 
HETATM    2  N   UNL     1      46.121  37.016  21.634  1.00  0.00    -0.363 N 
ATOM      3  HN  UNL     1      46.239  36.052  21.325  1.00  0.00     0.165 HD
HETATM    4  C   UNL     1      46.038  38.041  20.739  1.00  0.00     0.101 C 
HETATM    5  C   UNL     1      46.043  37.326  22.941  1.00  0.00     0.088 C 
HETATM    6  C   UNL     1      46.575  39.270  21.167  1.00  0.00     0.033 C 
HETATM    7  C   UNL     1      45.897  38.618  23.382  1.00  0.00     0.017 C 
ENDROOT
BRANCH   4   8
HETATM    8  C   UNL     1      46.111  37.670  19.233  1.00  0.00     0.323 C 
BRANCH   8   9
HETATM    9  O   UNL     1      47.112  38.450  18.635  1.00  0.00    -0.338 OA
ATOM     10  HO  UNL     1      47.719  38.677  19.329  1.00  0.00     0.216 HD
ENDBRANCH   8   9
BRANCH   8  11
HETATM   11  O   UNL     1      44.950  37.989  18.594  1.00  0.00    -0.338 OA
ATOM     12  HO  UNL     1      44.578  37.167  18.298  1.00  0.00     0.216 HD
ENDBRANCH   8  11
BRANCH   8  13
HETATM   13  O   UNL     1      46.413  36.372  19.056  1.00  0.00    -0.338 OA
ATOM     14  HO  UNL     1      46.601  35.985  19.902  1.00  0.00     0.216 HD
ENDBRANCH   8  13
ENDBRANCH   4   8
TORSDOF 4
ENDMDL
MODEL 3
REMARK VINA RESULT:      -6.1      1.388      2.137
REMARK  4 active torsions:
REMARK  status: ('A' for Active; 'I' for Inactive)
REMARK    1  A    between atoms: O_2  and  C_14 
REMARK    2  A    between atoms: O_6  and  C_14 
REMARK    3  A    between atoms: C_8  and  C_14 
REMARK    4  A    between atoms: O_9  and  C_14 
ROOT
HETATM    1  C   UNL     1      45.572  37.376  23.014  1.00  0.00     0.003 C 
HETATM    2  N   UNL     1      46.288  39.285  21.178  1.00  0.00    -0.363 N 
ATOM      3  HN  UNL     1      46.365  40.033  20.490  1.00  0.00     0.165 HD
HETATM    4  C   UNL     1      46.171  37.982  20.796  1.00  0.00     0.101 C 
HETATM    5  C   UNL     1      46.299  39.546  22.498  1.00  0.00     0.088 C 
HETATM    6  C   UNL     1      45.400  37.164  21.644  1.00  0.00     0.033 C 
HETATM    7  C   UNL     1      46.184  38.556  23.443  1.00  0.00     0.017 C 
ENDROOT
BRANCH   4   8
HETATM    8  C   UNL     1      46.179  37.690  19.271  1.00  0.00     0.323 C 
BRANCH   8   9
HETATM    9  O   UNL     1      44.906  37.980  18.760  1.00  0.00    -0.338 OA
ATOM     10  HO  UNL     1      44.854  37.541  17.919  1.00  0.00     0.216 HD
ENDBRANCH   8   9
BRANCH   8  11
HETATM   11  O   UNL     1      46.393  36.366  19.027  1.00  0.00    -0.338 OA
ATOM     12  HO  UNL     1      46.866  36.322  18.205  1.00  0.00     0.216 HD
ENDBRANCH   8  11
BRANCH   8  13
HETATM   13  O   UNL     1      47.085  38.446  18.626  1.00  0.00    -0.338 OA
ATOM     14  HO  UNL     1      46.837  38.503  17.711  1.00  0.00     0.216 HD
ENDBRANCH   8  13
ENDBRANCH   4   8
TORSDOF 4
ENDMDL
MODEL 4
REMARK VINA RESULT:      -6.1      3.421      4.145
REMARK  4 active torsions:
REMARK  status: ('A' for Active; 'I' for Inactive)
REMARK    1  A    between atoms: O_2  and  C_14 
REMARK    2  A    between atoms: O_6  and  C_14 
REMARK    3  A    between atoms: C_8  and  C_14 
REMARK    4  A    between atoms: O_9  and  C_14 
ROOT
HETATM    1  C   UNL     1      45.795  39.009  21.743  1.00  0.00     0.003 C 
HETATM    2  N   UNL     1      47.494  39.448  19.634  1.00  0.00    -0.363 N 
ATOM      3  HN  UNL     1      48.174  39.426  18.875  1.00  0.00     0.165 HD
HETATM    4  C   UNL     1      47.848  39.847  20.889  1.00  0.00     0.101 C 
HETATM    5  C   UNL     1      46.213  39.086  19.437  1.00  0.00     0.088 C 
HETATM    6  C   UNL     1      47.162  39.218  21.945  1.00  0.00     0.033 C 
HETATM    7  C   UNL     1      45.283  39.096  20.446  1.00  0.00     0.017 C 
ENDROOT
BRANCH   4   8
HETATM    8  C   UNL     1      49.323  40.280  21.101  1.00  0.00     0.323 C 
BRANCH   8   9
HETATM    9  O   UNL     1      49.431  41.645  20.793  1.00  0.00    -0.338 OA
ATOM     10  HO  UNL     1      48.548  41.992  20.824  1.00  0.00     0.216 HD
ENDBRANCH   8   9
BRANCH   8  11
HETATM   11  O   UNL     1      50.154  39.631  20.237  1.00  0.00    -0.338 OA
ATOM     12  HO  UNL     1      50.805  39.196  20.775  1.00  0.00     0.216 HD
ENDBRANCH   8  11
BRANCH   8  13
HETATM   13  O   UNL     1      49.717  40.094  22.373  1.00  0.00    -0.338 OA
ATOM     14  HO  UNL     1      50.197  39.277  22.427  1.00  0.00     0.216 HD
ENDBRANCH   8  13
ENDBRANCH   4   8
TORSDOF 4
ENDMDL
MODEL 5
REMARK VINA RESULT:      -5.8      3.361      4.154
REMARK  4 active torsions:
REMARK  status: ('A' for Active; 'I' for Inactive)
REMARK    1  A    between atoms: O_2  and  C_14 
REMARK    2  A    between atoms: O_6  and  C_14 
REMARK    3  A    between atoms: C_8  and  C_14 
REMARK    4  A    between atoms: O_9  and  C_14 
ROOT
HETATM    1  C   UNL     1      45.541  39.065  19.604  1.00  0.00     0.003 C 
HETATM    2  N   UNL     1      47.343  38.237  21.500  1.00  0.00    -0.363 N 
ATOM      3  HN  UNL     1      47.911  38.043  22.325  1.00  0.00     0.165 HD
HETATM    4  C   UNL     1      47.679  39.229  20.627  1.00  0.00     0.101 C 
HETATM    5  C   UNL     1      46.233  37.526  21.232  1.00  0.00     0.088 C 
HETATM    6  C   UNL     1      46.601  39.884  20.003  1.00  0.00     0.033 C 
HETATM    7  C   UNL     1      45.446  37.777  20.136  1.00  0.00     0.017 C 
ENDROOT
BRANCH   4   8
HETATM    8  C   UNL     1      48.972  40.032  20.936  1.00  0.00     0.323 C 
BRANCH   8   9
HETATM    9  O   UNL     1      48.772  41.361  20.535  1.00  0.00    -0.338 OA
ATOM     10  HO  UNL     1      47.997  41.661  20.997  1.00  0.00     0.216 HD
ENDBRANCH   8   9
BRANCH   8  11
HETATM   11  O   UNL     1      50.023  39.569  20.200  1.00  0.00    -0.338 OA
ATOM     12  HO  UNL     1      50.766  39.541  20.791  1.00  0.00     0.216 HD
ENDBRANCH   8  11
BRANCH   8  13
HETATM   13  O   UNL     1      49.264  40.017  22.248  1.00  0.00    -0.338 OA
ATOM     14  HO  UNL     1      48.711  40.650  22.690  1.00  0.00     0.216 HD
ENDBRANCH   8  13
ENDBRANCH   4   8
TORSDOF 4
ENDMDL
MODEL 6
REMARK VINA RESULT:      -5.5      1.368      2.215
REMARK  4 active torsions:
REMARK  status: ('A' for Active; 'I' for Inactive)
REMARK    1  A    between atoms: O_2  and  C_14 
REMARK    2  A    between atoms: O_6  and  C_14 
REMARK    3  A    between atoms: C_8  and  C_14 
REMARK    4  A    between atoms: O_9  and  C_14 
ROOT
HETATM    1  C   UNL     1      46.527  39.829  19.508  1.00  0.00     0.003 C 
HETATM    2  N   UNL     1      47.372  38.164  21.518  1.00  0.00    -0.363 N 
ATOM      3  HN  UNL     1      47.791  37.461  22.127  1.00  0.00     0.165 HD
HETATM    4  C   UNL     1      46.165  37.953  20.921  1.00  0.00     0.101 C 
HETATM    5  C   UNL     1      47.988  39.335  21.275  1.00  0.00     0.088 C 
HETATM    6  C   UNL     1      46.000  38.543  19.654  1.00  0.00     0.033 C 
HETATM    7  C   UNL     1      47.449  40.291  20.450  1.00  0.00     0.017 C 
ENDROOT
BRANCH   4   8
HETATM    8  C   UNL     1      45.453  36.607  21.224  1.00  0.00     0.323 C 
BRANCH   8   9
HETATM    9  O   UNL     1      44.525  36.359  20.201  1.00  0.00    -0.338 OA
ATOM     10  HO  UNL     1      43.725  36.083  20.633  1.00  0.00     0.216 HD
ENDBRANCH   8   9
BRANCH   8  11
HETATM   11  O   UNL     1      44.732  36.684  22.378  1.00  0.00    -0.338 OA
ATOM     12  HO  UNL     1      43.895  37.066  22.142  1.00  0.00     0.216 HD
ENDBRANCH   8  11
BRANCH   8  13
HETATM   13  O   UNL     1      46.324  35.585  21.272  1.00  0.00    -0.338 OA
ATOM     14  HO  UNL     1      46.165  35.086  22.065  1.00  0.00     0.216 HD
ENDBRANCH   8  13
ENDBRANCH   4   8
TORSDOF 4
ENDMDL
MODEL 7
REMARK VINA RESULT:      -5.3      2.871      3.806
REMARK  4 active torsions:
REMARK  status: ('A' for Active; 'I' for Inactive)
REMARK    1  A    between atoms: O_2  and  C_14 
REMARK    2  A    between atoms: O_6  and  C_14 
REMARK    3  A    between atoms: C_8  and  C_14 
REMARK    4  A    between atoms: O_9  and  C_14 
ROOT
HETATM    1  C   UNL     1      44.943  38.809  19.499  1.00  0.00     0.003 C 
HETATM    2  N   UNL     1      46.529  37.197  21.051  1.00  0.00    -0.363 N 
ATOM      3  HN  UNL     1      46.972  36.604  21.753  1.00  0.00     0.165 HD
HETATM    4  C   UNL     1      46.745  38.543  21.023  1.00  0.00     0.101 C 
HETATM    5  C   UNL     1      45.710  36.681  20.117  1.00  0.00     0.088 C 
HETATM    6  C   UNL     1      45.663  39.325  20.579  1.00  0.00     0.033 C 
HETATM    7  C   UNL     1      45.093  37.461  19.170  1.00  0.00     0.017 C 
ENDROOT
BRANCH   4   8
HETATM    8  C   UNL     1      47.707  39.125  22.094  1.00  0.00     0.323 C 
BRANCH   8   9
HETATM    9  O   UNL     1      47.417  38.517  23.325  1.00  0.00    -0.338 OA
ATOM     10  HO  UNL     1      47.508  37.582  23.184  1.00  0.00     0.216 HD
ENDBRANCH   8   9
BRANCH   8  11
HETATM   11  O   UNL     1      47.491  40.460  22.271  1.00  0.00    -0.338 OA
ATOM     12  HO  UNL     1      46.584  40.613  22.038  1.00  0.00     0.216 HD
ENDBRANCH   8  11
BRANCH   8  13
HETATM   13  O   UNL     1      48.994  38.886  21.788  1.00  0.00    -0.338 OA
ATOM     14  HO  UNL     1      49.368  39.672  21.409  1.00  0.00     0.216 HD
ENDBRANCH   8  13
ENDBRANCH   4   8
TORSDOF 4
ENDMDL
MODEL 8
REMARK VINA RESULT:      -4.8      2.518      3.434
REMARK  4 active torsions:
REMARK  status: ('A' for Active; 'I' for Inactive)
REMARK    1  A    between atoms: O_2  and  C_14 
REMARK    2  A    between atoms: O_6  and  C_14 
REMARK    3  A    between atoms: C_8  and  C_14 
REMARK    4  A    between atoms: O_9  and  C_14 
ROOT
HETATM    1  C   UNL     1      50.444  40.566  21.265  1.00  0.00     0.003 C 
HETATM    2  N   UNL     1      47.770  41.009  21.686  1.00  0.00    -0.363 N 
ATOM      3  HN  UNL     1      46.803  41.076  22.006  1.00  0.00     0.165 HD
HETATM    4  C   UNL     1      48.171  40.006  20.855  1.00  0.00     0.101 C 
HETATM    5  C   UNL     1      48.695  41.908  22.066  1.00  0.00     0.088 C 
HETATM    6  C   UNL     1      49.497  39.566  21.027  1.00  0.00     0.033 C 
HETATM    7  C   UNL     1      50.004  41.832  21.658  1.00  0.00     0.017 C 
ENDROOT
BRANCH   4   8
HETATM    8  C   UNL     1      47.091  38.986  20.406  1.00  0.00     0.323 C 
BRANCH   8   9
HETATM    9  O   UNL     1      45.828  39.540  20.660  1.00  0.00    -0.338 OA
ATOM     10  HO  UNL     1      45.457  39.034  21.373  1.00  0.00     0.216 HD
ENDBRANCH   8   9
BRANCH   8  11
HETATM   11  O   UNL     1      47.159  37.844  21.148  1.00  0.00    -0.338 OA
ATOM     12  HO  UNL     1      46.559  37.229  20.742  1.00  0.00     0.216 HD
ENDBRANCH   8  11
BRANCH   8  13
HETATM   13  O   UNL     1      47.184  38.708  19.094  1.00  0.00    -0.338 OA
ATOM     14  HO  UNL     1      47.120  37.768  18.977  1.00  0.00     0.216 HD
ENDBRANCH   8  13
ENDBRANCH   4   8
TORSDOF 4
ENDMDL
MODEL 9
REMARK VINA RESULT:      -4.4      3.155      3.800
REMARK  4 active torsions:
REMARK  status: ('A' for Active; 'I' for Inactive)
REMARK    1  A    between atoms: O_2  and  C_14 
REMARK    2  A    between atoms: O_6  and  C_14 
REMARK    3  A    between atoms: C_8  and  C_14 
REMARK    4  A    between atoms: O_9  and  C_14 
ROOT
HETATM    1  C   UNL     1      46.361  39.628  22.559  1.00  0.00     0.003 C 
HETATM    2  N   UNL     1      45.491  37.052  22.190  1.00  0.00    -0.363 N 
ATOM      3  HN  UNL     1      45.010  36.178  21.978  1.00  0.00     0.165 HD
HETATM    4  C   UNL     1      45.386  37.638  23.417  1.00  0.00     0.101 C 
HETATM    5  C   UNL     1      46.253  37.671  21.271  1.00  0.00     0.088 C 
HETATM    6  C   UNL     1      45.434  39.045  23.427  1.00  0.00     0.033 C 
HETATM    7  C   UNL     1      46.900  38.854  21.529  1.00  0.00     0.017 C 
ENDROOT
BRANCH   4   8
HETATM    8  C   UNL     1      44.519  36.906  24.476  1.00  0.00     0.323 C 
BRANCH   8   9
HETATM    9  O   UNL     1      45.239  35.798  24.947  1.00  0.00    -0.338 OA
ATOM     10  HO  UNL     1      44.827  35.544  25.764  1.00  0.00     0.216 HD
ENDBRANCH   8   9
BRANCH   8  11
HETATM   11  O   UNL     1      43.380  36.407  23.917  1.00  0.00    -0.338 OA
ATOM     12  HO  UNL     1      43.575  36.273  22.997  1.00  0.00     0.216 HD
ENDBRANCH   8  11
BRANCH   8  13
HETATM   13  O   UNL     1      44.229  37.705  25.518  1.00  0.00    -0.338 OA
ATOM     14  HO  UNL     1      43.718  37.211  26.148  1.00  0.00     0.216 HD
ENDBRANCH   8  13
ENDBRANCH   4   8
TORSDOF 4
ENDMDL
