REMARK  2 active torsions:
REMARK  status: ('A' for Active; 'I' for Inactive)
REMARK    1  A    between atoms: O_2  and  C_6 
REMARK    2  A    between atoms: C_6  and  O_11 
ROOT
HETATM    1  C   UNL     1     -15.054  10.976  41.603  1.00  0.00    -0.006 C 
HETATM    2  C   UNL     1     -14.678  12.292  42.278  1.00  0.00     0.010 C 
HETATM    3  C   UNL     1     -17.492  12.043  40.553  1.00  0.00     0.025 C 
HETATM    4  C   UNL     1     -15.826   9.852  39.540  1.00  0.00     0.244 C 
HETATM    5  N   UNL     1     -17.169   9.713  40.066  1.00  0.00    -0.365 N 
ATOM      6  HN  UNL     1     -17.828   9.022  39.707  1.00  0.00     0.159 HD
HETATM    7  C   UNL     1     -16.189  12.287  39.811  1.00  0.00     0.014 C 
HETATM    8  C   UNL     1     -17.512  10.635  41.149  1.00  0.00     0.082 C 
HETATM    9  C   UNL     1     -15.179  11.157  40.082  1.00  0.00     0.074 C 
HETATM   10  C   UNL     1     -16.388  10.477  42.170  1.00  0.00     0.029 C 
ENDROOT
BRANCH   4  11
HETATM   11  O   UNL     1     -15.039   8.789  39.830  1.00  0.00    -0.349 OA
ATOM     12  HO  UNL     1     -14.159   8.880  39.485  1.00  0.00     0.215 HD
ENDBRANCH   4  11
BRANCH   4  13
HETATM   13  O   UNL     1     -15.874   9.922  38.173  1.00  0.00    -0.349 OA
ATOM     14  HO  UNL     1     -16.426  10.668  37.970  1.00  0.00     0.215 HD
ENDBRANCH   4  13
TORSDOF 2
