REMARK  4 active torsions:
REMARK  status: ('A' for Active; 'I' for Inactive)
REMARK    1  A    between atoms: C_2  and  C_22 
REMARK    2  A    between atoms: C_5  and  C_32 
REMARK    3  A    between atoms: C_10  and  C_22 
REMARK    4  A    between atoms: C_12  and  C_32 
ROOT
HETATM    1  C   UNL     1      49.410  41.172  -1.117  1.00  0.00     0.028 C 
HETATM    2  C   UNL     1      53.404  45.010  -0.139  1.00  0.00     0.081 C 
HETATM    3  C   UNL     1      52.205  45.927   0.068  1.00  0.00     0.026 C 
HETATM    4  C   UNL     1      50.951  45.098  -0.133  1.00  0.00     0.020 C 
HETATM    5  C   UNL     1      47.256  38.538  -2.051  1.00  0.00     0.032 C 
HETATM    6  C   UNL     1      50.939  44.613  -1.589  1.00  0.00     0.106 C 
HETATM    7  C   UNL     1      45.096  39.069  -3.257  1.00  0.00     0.049 C 
HETATM    8  C   UNL     1      49.034  40.231  -2.080  1.00  0.00    -0.024 C 
HETATM    9  C   UNL     1      50.325  41.388  -3.759  1.00  0.00    -0.043 C 
HETATM   10  C   UNL     1      52.285  42.737  -2.830  1.00  0.00     0.093 C 
HETATM   11  C   UNL     1      51.028  41.939  -2.693  1.00  0.00    -0.032 C 
HETATM   12  C   UNL     1      48.515  39.975  -4.444  1.00  0.00     0.013 C 
HETATM   13  C   UNL     1      52.273  43.969  -1.951  1.00  0.00    -0.002 C 
HETATM   14  C   UNL     1      46.600  38.991  -3.193  1.00  0.00    -0.047 C 
HETATM   15  C   UNL     1      48.448  39.065  -1.633  1.00  0.00     0.029 C 
HETATM   16  C   UNL     1      47.281  39.374  -4.326  1.00  0.00     0.009 C 
HETATM   17  C   UNL     1      49.818  43.606  -1.687  1.00  0.00     0.169 C 
HETATM   18  C   UNL     1      49.277  40.524  -3.420  1.00  0.00    -0.019 C 
HETATM   19  N   UNL     1      53.399  44.498  -1.520  1.00  0.00    -0.391 N 
ATOM     20  HN  UNL     1      54.227  44.551  -2.113  1.00  0.00     0.159 HD
HETATM   21  C   UNL     1      50.138  42.236  -1.649  1.00  0.00     0.018 C 
HETATM   22  O   UNL     1      48.711  43.966  -2.043  1.00  0.00    -0.292 OA
HETATM   23  C   UNL     1      50.600  41.843  -5.167  1.00  0.00     0.049 C 
ENDROOT
BRANCH   2  24
HETATM   24  C   UNL     1      54.683  45.688   0.320  1.00  0.00     0.029 C 
BRANCH  24  25
HETATM   25  C   UNL     1      55.897  45.982  -0.523  1.00  0.00    -0.013 C 
HETATM   26  C   UNL     1      55.645  46.246  -2.003  1.00  0.00     0.005 C 
HETATM   27  C   UNL     1      56.781  47.186  -2.398  1.00  0.00     0.000 C 
HETATM   28  C   UNL     1      56.902  48.101  -1.162  1.00  0.00     0.000 C 
HETATM   29  C   UNL     1      56.568  47.230   0.032  1.00  0.00     0.005 C 
ENDBRANCH  24  25
ENDBRANCH   2  24
BRANCH   5  30
HETATM   30  C   UNL     1      46.803  37.412  -1.274  1.00  0.00     0.261 C 
HETATM   31  O   UNL     1      46.041  37.584  -0.310  1.00  0.00    -0.275 OA
BRANCH  30  32
HETATM   32  C   UNL     1      47.545  36.176  -1.418  1.00  0.00     0.143 C 
HETATM   33  N   UNL     1      48.287  35.334  -1.378  1.00  0.00    -0.188 NA
ENDBRANCH  30  32
ENDBRANCH   5  30
TORSDOF 4
