MODEL 1
REMARK VINA RESULT:     -10.2      0.000      0.000
REMARK  7 active torsions:
REMARK  status: ('A' for Active; 'I' for Inactive)
REMARK    1  A    between atoms: C_2  and  O_6 
REMARK    2  A    between atoms: N_8  and  C_19 
REMARK    3  A    between atoms: N_8  and  C_28 
REMARK    4  A    between atoms: C_12  and  C_21 
REMARK    5  A    between atoms: C_15  and  C_25 
REMARK    6  A    between atoms: C_19  and  C_31 
REMARK    7  A    between atoms: C_26  and  C_28 
ROOT
HETATM    1  C   UNL     1      -4.475  18.974  16.423  1.00  0.00     0.073 C 
HETATM    2  C   UNL     1      -4.136  16.416  15.403  1.00  0.00    -0.025 C 
HETATM    3  C   UNL     1      -4.881  16.614  16.565  1.00  0.00     0.015 C 
HETATM    4  C   UNL     1      -3.417  17.484  14.850  1.00  0.00     0.024 C 
HETATM    5  C   UNL     1      -3.628  18.784  15.312  1.00  0.00     0.001 C 
HETATM    6  C   UNL     1      -5.006  17.888  17.103  1.00  0.00     0.038 C 
ENDROOT
BRANCH   2   7
HETATM    7  C   UNL     1      -4.140  15.097  14.825  1.00  0.00    -0.025 C 
HETATM    8  C   UNL     1      -4.494  14.807  13.513  1.00  0.00     0.012 C 
HETATM    9  C   UNL     1      -4.837  13.550  13.054  1.00  0.00     0.001 C 
HETATM   10  C   UNL     1      -4.560  12.276  13.472  1.00  0.00     0.001 C 
HETATM   11  C   UNL     1      -3.554  11.949  14.391  1.00  0.00     0.008 C 
HETATM   12  C   UNL     1      -3.011  13.008  15.115  1.00  0.00    -0.049 C 
HETATM   13  C   UNL     1      -3.819  14.002  15.624  1.00  0.00     0.020 C 
BRANCH  12  14
HETATM   14  C   UNL     1      -1.712  13.238  15.436  1.00  0.00     0.056 A 
HETATM   15  C   UNL     1      -0.774  14.123  14.535  1.00  0.00     0.053 A 
HETATM   16  C   UNL     1       0.219  13.157  14.969  1.00  0.00    -0.050 A 
HETATM   17  C   UNL     1       1.552  12.787  14.795  1.00  0.00     0.007 A 
HETATM   18  C   UNL     1      -0.636  12.392  15.685  1.00  0.00    -0.043 A 
HETATM   19  C   UNL     1       2.014  11.639  15.432  1.00  0.00     0.001 A 
HETATM   20  C   UNL     1       1.119  10.816  16.119  1.00  0.00     0.001 A 
HETATM   21  C   UNL     1      -0.227  11.177  16.243  1.00  0.00     0.008 A 
ENDBRANCH  12  14
ENDBRANCH   2   7
BRANCH   5  22
HETATM   22  C   UNL     1      -2.968  19.970  14.630  1.00  0.00     0.274 C 
BRANCH  22  23
HETATM   23  N   UNL     1      -3.935  21.006  14.150  1.00  0.00    -0.067 N 
ATOM     24  HN2 UNL     1      -3.466  21.726  13.600  1.00  0.00     0.277 HD
ATOM     25  HN1 UNL     1      -4.272  21.586  14.918  1.00  0.00     0.277 HD
BRANCH  23  26
HETATM   26  C   UNL     1      -5.067  20.395  13.392  1.00  0.00     0.271 C 
BRANCH  26  27
HETATM   27  C   UNL     1      -5.854  21.298  12.459  1.00  0.00    -0.033 C 
HETATM   28  C   UNL     1      -7.074  20.874  11.927  1.00  0.00     0.009 C 
HETATM   29  C   UNL     1      -7.633  21.569  10.858  1.00  0.00     0.001 C 
HETATM   30  C   UNL     1      -7.213  22.858  10.579  1.00  0.00     0.000 C 
HETATM   31  C   UNL     1      -6.121  23.389  11.255  1.00  0.00     0.001 C 
HETATM   32  C   UNL     1      -5.414  22.596  12.163  1.00  0.00     0.009 C 
ENDBRANCH  26  27
ENDBRANCH  23  26
ENDBRANCH  22  23
ENDBRANCH   5  22
BRANCH   1  33
HETATM   33  O   UNL     1      -4.862  20.225  16.826  1.00  0.00    -0.360 OA
ATOM     34  HO  UNL     1      -5.734  20.392  17.163  1.00  0.00     0.217 HD
ENDBRANCH   1  33
TORSDOF 7
ENDMDL
MODEL 2
REMARK VINA RESULT:      -9.3      4.704      6.771
REMARK  7 active torsions:
REMARK  status: ('A' for Active; 'I' for Inactive)
REMARK    1  A    between atoms: C_2  and  O_6 
REMARK    2  A    between atoms: N_8  and  C_19 
REMARK    3  A    between atoms: N_8  and  C_28 
REMARK    4  A    between atoms: C_12  and  C_21 
REMARK    5  A    between atoms: C_15  and  C_25 
REMARK    6  A    between atoms: C_19  and  C_31 
REMARK    7  A    between atoms: C_26  and  C_28 
ROOT
HETATM    1  C   UNL     1      -3.388  20.450  16.501  1.00  0.00     0.073 C 
HETATM    2  C   UNL     1      -5.888  19.941  17.591  1.00  0.00    -0.025 C 
HETATM    3  C   UNL     1      -4.883  20.504  18.376  1.00  0.00     0.015 C 
HETATM    4  C   UNL     1      -5.583  19.474  16.305  1.00  0.00     0.024 C 
HETATM    5  C   UNL     1      -4.353  19.780  15.723  1.00  0.00     0.001 C 
HETATM    6  C   UNL     1      -3.617  20.710  17.844  1.00  0.00     0.038 C 
ENDROOT
BRANCH   2   7
HETATM    7  C   UNL     1      -7.210  19.861  18.157  1.00  0.00    -0.025 C 
HETATM    8  C   UNL     1      -8.316  20.563  17.691  1.00  0.00     0.012 C 
HETATM    9  C   UNL     1      -9.474  20.769  18.415  1.00  0.00     0.001 C 
HETATM   10  C   UNL     1     -10.079  20.108  19.451  1.00  0.00     0.001 C 
HETATM   11  C   UNL     1      -9.749  18.808  19.857  1.00  0.00     0.008 C 
HETATM   12  C   UNL     1      -8.556  18.289  19.357  1.00  0.00    -0.049 C 
HETATM   13  C   UNL     1      -7.423  19.071  19.284  1.00  0.00     0.020 C 
BRANCH  12  14
HETATM   14  C   UNL     1      -8.302  17.036  18.900  1.00  0.00     0.056 A 
HETATM   15  C   UNL     1      -6.838  16.526  18.637  1.00  0.00     0.053 A 
HETATM   16  C   UNL     1      -7.492  15.827  17.545  1.00  0.00    -0.050 A 
HETATM   17  C   UNL     1      -7.237  15.012  16.444  1.00  0.00     0.007 A 
HETATM   18  C   UNL     1      -8.724  16.337  17.773  1.00  0.00    -0.043 A 
HETATM   19  C   UNL     1      -8.297  14.669  15.609  1.00  0.00     0.001 A 
HETATM   20  C   UNL     1      -9.553  15.245  15.807  1.00  0.00     0.001 A 
HETATM   21  C   UNL     1      -9.781  16.101  16.889  1.00  0.00     0.008 A 
ENDBRANCH  12  14
ENDBRANCH   2   7
BRANCH   5  22
HETATM   22  C   UNL     1      -4.061  19.409  14.279  1.00  0.00     0.274 C 
BRANCH  22  23
HETATM   23  N   UNL     1      -3.824  20.586  13.388  1.00  0.00    -0.067 N 
ATOM     24  HN2 UNL     1      -3.707  20.300  12.416  1.00  0.00     0.277 HD
ATOM     25  HN1 UNL     1      -2.903  20.994  13.546  1.00  0.00     0.277 HD
BRANCH  23  26
HETATM   26  C   UNL     1      -4.903  21.609  13.527  1.00  0.00     0.271 C 
BRANCH  26  27
HETATM   27  C   UNL     1      -5.876  21.761  12.371  1.00  0.00    -0.033 C 
HETATM   28  C   UNL     1      -5.814  22.880  11.537  1.00  0.00     0.009 C 
HETATM   29  C   UNL     1      -6.878  23.157  10.683  1.00  0.00     0.001 C 
HETATM   30  C   UNL     1      -7.788  22.162  10.371  1.00  0.00     0.000 C 
HETATM   31  C   UNL     1      -7.737  20.945  11.042  1.00  0.00     0.001 C 
HETATM   32  C   UNL     1      -6.811  20.759  12.071  1.00  0.00     0.009 C 
ENDBRANCH  26  27
ENDBRANCH  23  26
ENDBRANCH  22  23
ENDBRANCH   5  22
BRANCH   1  33
HETATM   33  O   UNL     1      -2.229  20.932  15.951  1.00  0.00    -0.360 OA
ATOM     34  HO  UNL     1      -2.054  20.865  15.020  1.00  0.00     0.217 HD
ENDBRANCH   1  33
TORSDOF 7
ENDMDL
MODEL 3
REMARK VINA RESULT:      -9.2      1.950      4.717
REMARK  7 active torsions:
REMARK  status: ('A' for Active; 'I' for Inactive)
REMARK    1  A    between atoms: C_2  and  O_6 
REMARK    2  A    between atoms: N_8  and  C_19 
REMARK    3  A    between atoms: N_8  and  C_28 
REMARK    4  A    between atoms: C_12  and  C_21 
REMARK    5  A    between atoms: C_15  and  C_25 
REMARK    6  A    between atoms: C_19  and  C_31 
REMARK    7  A    between atoms: C_26  and  C_28 
ROOT
HETATM    1  C   UNL     1      -4.726  19.214  16.398  1.00  0.00     0.073 C 
HETATM    2  C   UNL     1      -4.053  16.656  15.557  1.00  0.00    -0.025 C 
HETATM    3  C   UNL     1      -4.888  16.834  16.658  1.00  0.00     0.015 C 
HETATM    4  C   UNL     1      -3.416  17.765  14.984  1.00  0.00     0.024 C 
HETATM    5  C   UNL     1      -3.792  19.057  15.352  1.00  0.00     0.001 C 
HETATM    6  C   UNL     1      -5.183  18.115  17.109  1.00  0.00     0.038 C 
ENDROOT
BRANCH   2   7
HETATM    7  C   UNL     1      -3.880  15.315  15.062  1.00  0.00    -0.025 C 
HETATM    8  C   UNL     1      -3.245  14.290  15.754  1.00  0.00     0.012 C 
HETATM    9  C   UNL     1      -2.768  13.131  15.172  1.00  0.00     0.001 C 
HETATM   10  C   UNL     1      -3.082  12.439  14.033  1.00  0.00     0.001 C 
HETATM   11  C   UNL     1      -4.248  12.643  13.283  1.00  0.00     0.008 C 
HETATM   12  C   UNL     1      -4.970  13.801  13.565  1.00  0.00    -0.049 C 
HETATM   13  C   UNL     1      -4.323  15.000  13.780  1.00  0.00     0.020 C 
BRANCH  12  14
HETATM   14  C   UNL     1      -6.314  13.959  13.662  1.00  0.00     0.056 A 
HETATM   15  C   UNL     1      -7.060  13.925  15.047  1.00  0.00     0.053 A 
HETATM   16  C   UNL     1      -8.091  13.286  14.250  1.00  0.00    -0.050 A 
HETATM   17  C   UNL     1      -9.338  12.671  14.343  1.00  0.00     0.007 A 
HETATM   18  C   UNL     1      -7.389  13.283  13.093  1.00  0.00    -0.043 A 
HETATM   19  C   UNL     1      -9.890  12.107  13.196  1.00  0.00     0.001 A 
HETATM   20  C   UNL     1      -9.142  12.049  12.020  1.00  0.00     0.001 A 
HETATM   21  C   UNL     1      -7.869  12.627  11.956  1.00  0.00     0.008 A 
ENDBRANCH  12  14
ENDBRANCH   2   7
BRANCH   5  22
HETATM   22  C   UNL     1      -3.218  20.269  14.639  1.00  0.00     0.274 C 
BRANCH  22  23
HETATM   23  N   UNL     1      -4.257  21.188  14.077  1.00  0.00    -0.067 N 
ATOM     24  HN2 UNL     1      -3.832  21.998  13.626  1.00  0.00     0.277 HD
ATOM     25  HN1 UNL     1      -4.770  21.668  14.816  1.00  0.00     0.277 HD
BRANCH  23  26
HETATM   26  C   UNL     1      -5.181  20.472  13.149  1.00  0.00     0.271 C 
BRANCH  26  27
HETATM   27  C   UNL     1      -6.069  21.320  12.254  1.00  0.00    -0.033 C 
HETATM   28  C   UNL     1      -7.286  20.818  11.786  1.00  0.00     0.009 C 
HETATM   29  C   UNL     1      -7.939  21.470  10.744  1.00  0.00     0.001 C 
HETATM   30  C   UNL     1      -7.615  22.780  10.439  1.00  0.00     0.000 C 
HETATM   31  C   UNL     1      -6.524  23.381  11.056  1.00  0.00     0.001 C 
HETATM   32  C   UNL     1      -5.725  22.640  11.930  1.00  0.00     0.009 C 
ENDBRANCH  26  27
ENDBRANCH  23  26
ENDBRANCH  22  23
ENDBRANCH   5  22
BRANCH   1  33
HETATM   33  O   UNL     1      -5.268  20.435  16.700  1.00  0.00    -0.360 OA
ATOM     34  HO  UNL     1      -5.798  20.566  17.477  1.00  0.00     0.217 HD
ENDBRANCH   1  33
TORSDOF 7
ENDMDL
MODEL 4
REMARK VINA RESULT:      -9.2      2.468      5.406
REMARK  7 active torsions:
REMARK  status: ('A' for Active; 'I' for Inactive)
REMARK    1  A    between atoms: C_2  and  O_6 
REMARK    2  A    between atoms: N_8  and  C_19 
REMARK    3  A    between atoms: N_8  and  C_28 
REMARK    4  A    between atoms: C_12  and  C_21 
REMARK    5  A    between atoms: C_15  and  C_25 
REMARK    6  A    between atoms: C_19  and  C_31 
REMARK    7  A    between atoms: C_26  and  C_28 
ROOT
HETATM    1  C   UNL     1      -1.788  17.848  14.277  1.00  0.00     0.073 C 
HETATM    2  C   UNL     1      -3.004  15.358  14.108  1.00  0.00    -0.025 C 
HETATM    3  C   UNL     1      -1.623  15.475  13.959  1.00  0.00     0.015 C 
HETATM    4  C   UNL     1      -3.794  16.514  14.169  1.00  0.00     0.024 C 
HETATM    5  C   UNL     1      -3.195  17.765  14.319  1.00  0.00     0.001 C 
HETATM    6  C   UNL     1      -1.022  16.727  13.992  1.00  0.00     0.038 C 
ENDROOT
BRANCH   2   7
HETATM    7  C   UNL     1      -3.556  14.031  14.185  1.00  0.00    -0.025 C 
HETATM    8  C   UNL     1      -3.303  13.125  15.209  1.00  0.00     0.012 C 
HETATM    9  C   UNL     1      -3.530  11.765  15.124  1.00  0.00     0.001 C 
HETATM   10  C   UNL     1      -4.363  10.984  14.368  1.00  0.00     0.001 C 
HETATM   11  C   UNL     1      -5.454  11.474  13.637  1.00  0.00     0.008 C 
HETATM   12  C   UNL     1      -5.507  12.854  13.455  1.00  0.00    -0.049 C 
HETATM   13  C   UNL     1      -4.368  13.570  13.151  1.00  0.00     0.020 C 
BRANCH  12  14
HETATM   14  C   UNL     1      -6.583  13.678  13.524  1.00  0.00     0.056 A 
HETATM   15  C   UNL     1      -7.231  14.090  14.898  1.00  0.00     0.053 A 
HETATM   16  C   UNL     1      -8.451  14.028  14.112  1.00  0.00    -0.050 A 
HETATM   17  C   UNL     1      -9.837  14.138  14.210  1.00  0.00     0.007 A 
HETATM   18  C   UNL     1      -7.857  13.618  12.968  1.00  0.00    -0.043 A 
HETATM   19  C   UNL     1     -10.608  13.882  13.080  1.00  0.00     0.001 A 
HETATM   20  C   UNL     1     -10.002  13.399  11.919  1.00  0.00     0.001 A 
HETATM   21  C   UNL     1      -8.613  13.247  11.852  1.00  0.00     0.008 A 
ENDBRANCH  12  14
ENDBRANCH   2   7
BRANCH   5  22
HETATM   22  C   UNL     1      -4.037  19.012  14.534  1.00  0.00     0.274 C 
BRANCH  22  23
HETATM   23  N   UNL     1      -3.770  20.100  13.543  1.00  0.00    -0.067 N 
ATOM     24  HN2 UNL     1      -3.801  19.748  12.587  1.00  0.00     0.277 HD
ATOM     25  HN1 UNL     1      -2.794  20.399  13.572  1.00  0.00     0.277 HD
BRANCH  23  26
HETATM   26  C   UNL     1      -4.697  21.254  13.729  1.00  0.00     0.271 C 
BRANCH  26  27
HETATM   27  C   UNL     1      -5.631  21.594  12.580  1.00  0.00    -0.033 C 
HETATM   28  C   UNL     1      -5.457  22.775  11.854  1.00  0.00     0.009 C 
HETATM   29  C   UNL     1      -6.476  23.219  11.015  1.00  0.00     0.001 C 
HETATM   30  C   UNL     1      -7.460  22.339  10.601  1.00  0.00     0.000 C 
HETATM   31  C   UNL     1      -7.526  21.066  11.158  1.00  0.00     0.001 C 
HETATM   32  C   UNL     1      -6.640  20.708  12.177  1.00  0.00     0.009 C 
ENDBRANCH  26  27
ENDBRANCH  23  26
ENDBRANCH  22  23
ENDBRANCH   5  22
BRANCH   1  33
HETATM   33  O   UNL     1      -1.126  19.007  14.584  1.00  0.00    -0.360 OA
ATOM     34  HO  UNL     1      -0.270  18.998  14.995  1.00  0.00     0.217 HD
ENDBRANCH   1  33
TORSDOF 7
ENDMDL
MODEL 5
REMARK VINA RESULT:      -9.0      3.793      6.159
REMARK  7 active torsions:
REMARK  status: ('A' for Active; 'I' for Inactive)
REMARK    1  A    between atoms: C_2  and  O_6 
REMARK    2  A    between atoms: N_8  and  C_19 
REMARK    3  A    between atoms: N_8  and  C_28 
REMARK    4  A    between atoms: C_12  and  C_21 
REMARK    5  A    between atoms: C_15  and  C_25 
REMARK    6  A    between atoms: C_19  and  C_31 
REMARK    7  A    between atoms: C_26  and  C_28 
ROOT
HETATM    1  C   UNL     1      -3.017  20.564  16.114  1.00  0.00     0.073 C 
HETATM    2  C   UNL     1      -5.384  19.977  17.439  1.00  0.00    -0.025 C 
HETATM    3  C   UNL     1      -4.301  20.503  18.140  1.00  0.00     0.015 C 
HETATM    4  C   UNL     1      -5.220  19.584  16.103  1.00  0.00     0.024 C 
HETATM    5  C   UNL     1      -4.061  19.930  15.409  1.00  0.00     0.001 C 
HETATM    6  C   UNL     1      -3.100  20.747  17.487  1.00  0.00     0.038 C 
ENDROOT
BRANCH   2   7
HETATM    7  C   UNL     1      -6.637  19.857  18.138  1.00  0.00    -0.025 C 
HETATM    8  C   UNL     1      -7.883  20.136  17.588  1.00  0.00     0.012 C 
HETATM    9  C   UNL     1      -9.030  20.363  18.324  1.00  0.00     0.001 C 
HETATM   10  C   UNL     1      -9.442  20.005  19.580  1.00  0.00     0.001 C 
HETATM   11  C   UNL     1      -8.830  19.013  20.357  1.00  0.00     0.008 C 
HETATM   12  C   UNL     1      -7.575  18.581  19.931  1.00  0.00    -0.049 C 
HETATM   13  C   UNL     1      -6.635  19.483  19.480  1.00  0.00     0.020 C 
BRANCH  12  14
HETATM   14  C   UNL     1      -7.081  17.318  19.893  1.00  0.00     0.056 A 
HETATM   15  C   UNL     1      -5.941  16.839  20.866  1.00  0.00     0.053 A 
HETATM   16  C   UNL     1      -5.540  16.075  19.698  1.00  0.00    -0.050 A 
HETATM   17  C   UNL     1      -4.547  15.220  19.223  1.00  0.00     0.007 A 
HETATM   18  C   UNL     1      -6.503  16.559  18.880  1.00  0.00    -0.043 A 
HETATM   19  C   UNL     1      -4.600  14.811  17.893  1.00  0.00     0.001 A 
HETATM   20  C   UNL     1      -5.554  15.358  17.034  1.00  0.00     0.001 A 
HETATM   21  C   UNL     1      -6.515  16.254  17.516  1.00  0.00     0.008 A 
ENDBRANCH  12  14
ENDBRANCH   2   7
BRANCH   5  22
HETATM   22  C   UNL     1      -3.926  19.642  13.923  1.00  0.00     0.274 C 
BRANCH  22  23
HETATM   23  N   UNL     1      -3.785  20.869  13.079  1.00  0.00    -0.067 N 
ATOM     24  HN2 UNL     1      -3.674  20.631  12.094  1.00  0.00     0.277 HD
ATOM     25  HN1 UNL     1      -2.887  21.327  13.235  1.00  0.00     0.277 HD
BRANCH  23  26
HETATM   26  C   UNL     1      -4.921  21.814  13.286  1.00  0.00     0.271 C 
BRANCH  26  27
HETATM   27  C   UNL     1      -5.992  21.868  12.210  1.00  0.00    -0.033 C 
HETATM   28  C   UNL     1      -6.152  23.016  11.430  1.00  0.00     0.009 C 
HETATM   29  C   UNL     1      -7.307  23.168  10.666  1.00  0.00     0.001 C 
HETATM   30  C   UNL     1      -8.088  22.066  10.370  1.00  0.00     0.000 C 
HETATM   31  C   UNL     1      -7.815  20.844  10.976  1.00  0.00     0.001 C 
HETATM   32  C   UNL     1      -6.795  20.754  11.928  1.00  0.00     0.009 C 
ENDBRANCH  26  27
ENDBRANCH  23  26
ENDBRANCH  22  23
ENDBRANCH   5  22
BRANCH   1  33
HETATM   33  O   UNL     1      -1.925  21.083  15.470  1.00  0.00    -0.360 OA
ATOM     34  HO  UNL     1      -1.040  20.866  15.737  1.00  0.00     0.217 HD
ENDBRANCH   1  33
TORSDOF 7
ENDMDL
MODEL 6
REMARK VINA RESULT:      -9.0      2.458      4.127
REMARK  7 active torsions:
REMARK  status: ('A' for Active; 'I' for Inactive)
REMARK    1  A    between atoms: C_2  and  O_6 
REMARK    2  A    between atoms: N_8  and  C_19 
REMARK    3  A    between atoms: N_8  and  C_28 
REMARK    4  A    between atoms: C_12  and  C_21 
REMARK    5  A    between atoms: C_15  and  C_25 
REMARK    6  A    between atoms: C_19  and  C_31 
REMARK    7  A    between atoms: C_26  and  C_28 
ROOT
HETATM    1  C   UNL     1      -2.939  18.180  14.494  1.00  0.00     0.073 C 
HETATM    2  C   UNL     1      -4.546  16.701  16.207  1.00  0.00    -0.025 C 
HETATM    3  C   UNL     1      -3.857  16.070  15.173  1.00  0.00     0.015 C 
HETATM    4  C   UNL     1      -4.564  18.101  16.274  1.00  0.00     0.024 C 
HETATM    5  C   UNL     1      -3.712  18.852  15.463  1.00  0.00     0.001 C 
HETATM    6  C   UNL     1      -3.094  16.818  14.285  1.00  0.00     0.038 C 
ENDROOT
BRANCH   2   7
HETATM    7  C   UNL     1      -5.221  15.866  17.166  1.00  0.00    -0.025 C 
HETATM    8  C   UNL     1      -6.483  16.121  17.690  1.00  0.00     0.012 C 
HETATM    9  C   UNL     1      -6.985  15.544  18.840  1.00  0.00     0.001 C 
HETATM   10  C   UNL     1      -6.719  14.382  19.516  1.00  0.00     0.001 C 
HETATM   11  C   UNL     1      -5.994  13.308  18.983  1.00  0.00     0.008 C 
HETATM   12  C   UNL     1      -5.278  13.565  17.815  1.00  0.00    -0.049 C 
HETATM   13  C   UNL     1      -4.572  14.739  17.665  1.00  0.00     0.020 C 
BRANCH  12  14
HETATM   14  C   UNL     1      -5.142  12.782  16.715  1.00  0.00     0.056 A 
HETATM   15  C   UNL     1      -3.732  12.347  16.170  1.00  0.00     0.053 A 
HETATM   16  C   UNL     1      -4.406  12.485  14.891  1.00  0.00    -0.050 A 
HETATM   17  C   UNL     1      -4.190  12.426  13.516  1.00  0.00     0.007 A 
HETATM   18  C   UNL     1      -5.583  12.912  15.402  1.00  0.00    -0.043 A 
HETATM   19  C   UNL     1      -5.239  12.753  12.662  1.00  0.00     0.001 A 
HETATM   20  C   UNL     1      -6.433  13.253  13.186  1.00  0.00     0.001 A 
HETATM   21  C   UNL     1      -6.617  13.352  14.569  1.00  0.00     0.008 A 
ENDBRANCH  12  14
ENDBRANCH   2   7
BRANCH   5  22
HETATM   22  C   UNL     1      -3.612  20.359  15.623  1.00  0.00     0.274 C 
BRANCH  22  23
HETATM   23  N   UNL     1      -4.009  21.126  14.401  1.00  0.00    -0.067 N 
ATOM     24  HN2 UNL     1      -3.237  21.198  13.740  1.00  0.00     0.277 HD
ATOM     25  HN1 UNL     1      -4.136  22.117  14.608  1.00  0.00     0.277 HD
BRANCH  23  26
HETATM   26  C   UNL     1      -5.224  20.545  13.757  1.00  0.00     0.271 C 
BRANCH  26  27
HETATM   27  C   UNL     1      -5.848  21.321  12.611  1.00  0.00    -0.033 C 
HETATM   28  C   UNL     1      -5.292  22.533  12.192  1.00  0.00     0.009 C 
HETATM   29  C   UNL     1      -6.028  23.371  11.359  1.00  0.00     0.001 C 
HETATM   30  C   UNL     1      -7.100  22.867  10.646  1.00  0.00     0.000 C 
HETATM   31  C   UNL     1      -7.545  21.572  10.893  1.00  0.00     0.001 C 
HETATM   32  C   UNL     1      -6.948  20.815  11.905  1.00  0.00     0.009 C 
ENDBRANCH  26  27
ENDBRANCH  23  26
ENDBRANCH  22  23
ENDBRANCH   5  22
BRANCH   1  33
HETATM   33  O   UNL     1      -1.962  18.823  13.781  1.00  0.00    -0.360 OA
ATOM     34  HO  UNL     1      -1.921  18.771  12.834  1.00  0.00     0.217 HD
ENDBRANCH   1  33
TORSDOF 7
ENDMDL
MODEL 7
REMARK VINA RESULT:      -9.0      1.727      2.511
REMARK  7 active torsions:
REMARK  status: ('A' for Active; 'I' for Inactive)
REMARK    1  A    between atoms: C_2  and  O_6 
REMARK    2  A    between atoms: N_8  and  C_19 
REMARK    3  A    between atoms: N_8  and  C_28 
REMARK    4  A    between atoms: C_12  and  C_21 
REMARK    5  A    between atoms: C_15  and  C_25 
REMARK    6  A    between atoms: C_19  and  C_31 
REMARK    7  A    between atoms: C_26  and  C_28 
ROOT
HETATM    1  C   UNL     1      -4.532  19.321  16.477  1.00  0.00     0.073 C 
HETATM    2  C   UNL     1      -4.139  16.751  15.506  1.00  0.00    -0.025 C 
HETATM    3  C   UNL     1      -4.838  16.952  16.695  1.00  0.00     0.015 C 
HETATM    4  C   UNL     1      -3.487  17.832  14.895  1.00  0.00     0.024 C 
HETATM    5  C   UNL     1      -3.729  19.134  15.334  1.00  0.00     0.001 C 
HETATM    6  C   UNL     1      -4.989  18.234  17.207  1.00  0.00     0.038 C 
ENDROOT
BRANCH   2   7
HETATM    7  C   UNL     1      -4.116  15.419  14.962  1.00  0.00    -0.025 C 
HETATM    8  C   UNL     1      -3.857  15.109  13.632  1.00  0.00     0.012 C 
HETATM    9  C   UNL     1      -4.171  13.905  13.033  1.00  0.00     0.001 C 
HETATM   10  C   UNL     1      -4.367  12.632  13.499  1.00  0.00     0.001 C 
HETATM   11  C   UNL     1      -3.993  12.195  14.777  1.00  0.00     0.008 C 
HETATM   12  C   UNL     1      -3.668  13.187  15.699  1.00  0.00    -0.049 C 
HETATM   13  C   UNL     1      -4.420  14.340  15.789  1.00  0.00     0.020 C 
BRANCH  12  14
HETATM   14  C   UNL     1      -2.657  13.205  16.605  1.00  0.00     0.056 A 
HETATM   15  C   UNL     1      -1.558  12.081  16.649  1.00  0.00     0.053 A 
HETATM   16  C   UNL     1      -1.646  12.330  18.077  1.00  0.00    -0.050 A 
HETATM   17  C   UNL     1      -1.170  11.885  19.308  1.00  0.00     0.007 A 
HETATM   18  C   UNL     1      -2.634  13.250  17.995  1.00  0.00    -0.043 A 
HETATM   19  C   UNL     1      -1.684  12.457  20.469  1.00  0.00     0.001 A 
HETATM   20  C   UNL     1      -2.746  13.359  20.388  1.00  0.00     0.001 A 
HETATM   21  C   UNL     1      -3.246  13.760  19.144  1.00  0.00     0.008 A 
ENDBRANCH  12  14
ENDBRANCH   2   7
BRANCH   5  22
HETATM   22  C   UNL     1      -3.148  20.326  14.593  1.00  0.00     0.274 C 
BRANCH  22  23
HETATM   23  N   UNL     1      -4.180  21.283  14.084  1.00  0.00    -0.067 N 
ATOM     24  HN2 UNL     1      -3.764  21.992  13.480  1.00  0.00     0.277 HD
ATOM     25  HN1 UNL     1      -4.524  21.890  14.827  1.00  0.00     0.277 HD
BRANCH  23  26
HETATM   26  C   UNL     1      -5.299  20.573  13.398  1.00  0.00     0.271 C 
BRANCH  26  27
HETATM   27  C   UNL     1      -6.045  21.327  12.311  1.00  0.00    -0.033 C 
HETATM   28  C   UNL     1      -5.616  22.594  11.907  1.00  0.00     0.009 C 
HETATM   29  C   UNL     1      -6.462  23.390  11.140  1.00  0.00     0.001 C 
HETATM   30  C   UNL     1      -7.523  22.816  10.464  1.00  0.00     0.000 C 
HETATM   31  C   UNL     1      -7.843  21.482  10.688  1.00  0.00     0.001 C 
HETATM   32  C   UNL     1      -7.133  20.749  11.643  1.00  0.00     0.009 C 
ENDBRANCH  26  27
ENDBRANCH  23  26
ENDBRANCH  22  23
ENDBRANCH   5  22
BRANCH   1  33
HETATM   33  O   UNL     1      -4.951  20.566  16.867  1.00  0.00    -0.360 OA
ATOM     34  HO  UNL     1      -5.590  21.057  16.364  1.00  0.00     0.217 HD
ENDBRANCH   1  33
TORSDOF 7
ENDMDL
MODEL 8
REMARK VINA RESULT:      -8.9      3.167      5.549
REMARK  7 active torsions:
REMARK  status: ('A' for Active; 'I' for Inactive)
REMARK    1  A    between atoms: C_2  and  O_6 
REMARK    2  A    between atoms: N_8  and  C_19 
REMARK    3  A    between atoms: N_8  and  C_28 
REMARK    4  A    between atoms: C_12  and  C_21 
REMARK    5  A    between atoms: C_15  and  C_25 
REMARK    6  A    between atoms: C_19  and  C_31 
REMARK    7  A    between atoms: C_26  and  C_28 
ROOT
HETATM    1  C   UNL     1      -2.755  18.265  14.392  1.00  0.00     0.073 C 
HETATM    2  C   UNL     1      -4.308  16.486  15.852  1.00  0.00    -0.025 C 
HETATM    3  C   UNL     1      -3.476  16.020  14.835  1.00  0.00     0.015 C 
HETATM    4  C   UNL     1      -4.490  17.866  16.019  1.00  0.00     0.024 C 
HETATM    5  C   UNL     1      -3.671  18.768  15.339  1.00  0.00     0.001 C 
HETATM    6  C   UNL     1      -2.738  16.916  14.071  1.00  0.00     0.038 C 
ENDROOT
BRANCH   2   7
HETATM    7  C   UNL     1      -4.953  15.508  16.687  1.00  0.00    -0.025 C 
HETATM    8  C   UNL     1      -4.303  14.463  17.333  1.00  0.00     0.012 C 
HETATM    9  C   UNL     1      -4.932  13.340  17.834  1.00  0.00     0.001 C 
HETATM   10  C   UNL     1      -6.208  13.070  18.253  1.00  0.00     0.001 C 
HETATM   11  C   UNL     1      -7.169  14.051  18.535  1.00  0.00     0.008 C 
HETATM   12  C   UNL     1      -6.884  15.341  18.090  1.00  0.00    -0.049 C 
HETATM   13  C   UNL     1      -6.337  15.551  16.841  1.00  0.00     0.020 C 
BRANCH  12  14
HETATM   14  C   UNL     1      -7.081  16.521  18.730  1.00  0.00     0.056 A 
HETATM   15  C   UNL     1      -7.893  17.699  18.075  1.00  0.00     0.053 A 
HETATM   16  C   UNL     1      -6.912  18.502  18.782  1.00  0.00    -0.050 A 
HETATM   17  C   UNL     1      -6.488  19.816  18.971  1.00  0.00     0.007 A 
HETATM   18  C   UNL     1      -6.208  17.457  19.275  1.00  0.00    -0.043 A 
HETATM   19  C   UNL     1      -5.352  20.046  19.742  1.00  0.00     0.001 A 
HETATM   20  C   UNL     1      -4.591  18.968  20.199  1.00  0.00     0.001 A 
HETATM   21  C   UNL     1      -5.004  17.653  19.958  1.00  0.00     0.008 A 
ENDBRANCH  12  14
ENDBRANCH   2   7
BRANCH   5  22
HETATM   22  C   UNL     1      -3.755  20.259  15.617  1.00  0.00     0.274 C 
BRANCH  22  23
HETATM   23  N   UNL     1      -4.074  21.083  14.409  1.00  0.00    -0.067 N 
ATOM     24  HN2 UNL     1      -3.241  21.255  13.846  1.00  0.00     0.277 HD
ATOM     25  HN1 UNL     1      -4.296  22.046  14.663  1.00  0.00     0.277 HD
BRANCH  23  26
HETATM   26  C   UNL     1      -5.164  20.469  13.595  1.00  0.00     0.271 C 
BRANCH  26  27
HETATM   27  C   UNL     1      -5.836  21.344  12.551  1.00  0.00    -0.033 C 
HETATM   28  C   UNL     1      -7.021  20.930  11.938  1.00  0.00     0.009 C 
HETATM   29  C   UNL     1      -7.461  21.582  10.789  1.00  0.00     0.001 C 
HETATM   30  C   UNL     1      -6.973  22.839  10.481  1.00  0.00     0.000 C 
HETATM   31  C   UNL     1      -5.923  23.372  11.220  1.00  0.00     0.001 C 
HETATM   32  C   UNL     1      -5.325  22.609  12.227  1.00  0.00     0.009 C 
ENDBRANCH  26  27
ENDBRANCH  23  26
ENDBRANCH  22  23
ENDBRANCH   5  22
BRANCH   1  33
HETATM   33  O   UNL     1      -1.807  19.066  13.812  1.00  0.00    -0.360 OA
ATOM     34  HO  UNL     1      -1.521  19.874  14.220  1.00  0.00     0.217 HD
ENDBRANCH   1  33
TORSDOF 7
ENDMDL
MODEL 9
REMARK VINA RESULT:      -8.8      3.214      5.851
REMARK  7 active torsions:
REMARK  status: ('A' for Active; 'I' for Inactive)
REMARK    1  A    between atoms: C_2  and  O_6 
REMARK    2  A    between atoms: N_8  and  C_19 
REMARK    3  A    between atoms: N_8  and  C_28 
REMARK    4  A    between atoms: C_12  and  C_21 
REMARK    5  A    between atoms: C_15  and  C_25 
REMARK    6  A    between atoms: C_19  and  C_31 
REMARK    7  A    between atoms: C_26  and  C_28 
ROOT
HETATM    1  C   UNL     1      -2.641  18.144  14.388  1.00  0.00     0.073 C 
HETATM    2  C   UNL     1      -4.347  16.341  15.629  1.00  0.00    -0.025 C 
HETATM    3  C   UNL     1      -3.571  15.938  14.544  1.00  0.00     0.015 C 
HETATM    4  C   UNL     1      -4.395  17.697  15.982  1.00  0.00     0.024 C 
HETATM    5  C   UNL     1      -3.498  18.600  15.411  1.00  0.00     0.001 C 
HETATM    6  C   UNL     1      -2.757  16.854  13.891  1.00  0.00     0.038 C 
ENDROOT
BRANCH   2   7
HETATM    7  C   UNL     1      -5.079  15.325  16.340  1.00  0.00    -0.025 C 
HETATM    8  C   UNL     1      -5.176  15.238  17.724  1.00  0.00     0.012 C 
HETATM    9  C   UNL     1      -5.563  14.105  18.413  1.00  0.00     0.001 C 
HETATM   10  C   UNL     1      -6.314  13.005  18.091  1.00  0.00     0.001 C 
HETATM   11  C   UNL     1      -7.146  12.921  16.967  1.00  0.00     0.008 C 
HETATM   12  C   UNL     1      -6.971  13.902  15.993  1.00  0.00    -0.049 C 
HETATM   13  C   UNL     1      -5.707  14.309  15.622  1.00  0.00     0.020 C 
BRANCH  12  14
HETATM   14  C   UNL     1      -7.915  14.571  15.284  1.00  0.00     0.056 A 
HETATM   15  C   UNL     1      -9.243  15.092  15.947  1.00  0.00     0.053 A 
HETATM   16  C   UNL     1      -9.791  14.746  14.648  1.00  0.00    -0.050 A 
HETATM   17  C   UNL     1     -10.987  14.678  13.935  1.00  0.00     0.007 A 
HETATM   18  C   UNL     1      -8.639  14.254  14.139  1.00  0.00    -0.043 A 
HETATM   19  C   UNL     1     -10.965  14.151  12.646  1.00  0.00     0.001 A 
HETATM   20  C   UNL     1      -9.791  13.587  12.145  1.00  0.00     0.001 A 
HETATM   21  C   UNL     1      -8.610  13.619  12.893  1.00  0.00     0.008 A 
ENDBRANCH  12  14
ENDBRANCH   2   7
BRANCH   5  22
HETATM   22  C   UNL     1      -3.436  20.042  15.886  1.00  0.00     0.274 C 
BRANCH  22  23
HETATM   23  N   UNL     1      -3.975  21.028  14.899  1.00  0.00    -0.067 N 
ATOM     24  HN2 UNL     1      -3.270  21.289  14.211  1.00  0.00     0.277 HD
ATOM     25  HN1 UNL     1      -4.124  21.941  15.328  1.00  0.00     0.277 HD
BRANCH  23  26
HETATM   26  C   UNL     1      -5.217  20.526  14.241  1.00  0.00     0.271 C 
BRANCH  26  27
HETATM   27  C   UNL     1      -5.676  21.235  12.978  1.00  0.00    -0.033 C 
HETATM   28  C   UNL     1      -4.987  22.354  12.506  1.00  0.00     0.009 C 
HETATM   29  C   UNL     1      -5.577  23.162  11.538  1.00  0.00     0.001 C 
HETATM   30  C   UNL     1      -6.625  22.675  10.778  1.00  0.00     0.000 C 
HETATM   31  C   UNL     1      -7.197  21.448  11.098  1.00  0.00     0.001 C 
HETATM   32  C   UNL     1      -6.753  20.748  12.223  1.00  0.00     0.009 C 
ENDBRANCH  26  27
ENDBRANCH  23  26
ENDBRANCH  22  23
ENDBRANCH   5  22
BRANCH   1  33
HETATM   33  O   UNL     1      -1.625  18.922  13.902  1.00  0.00    -0.360 OA
ATOM     34  HO  UNL     1      -1.791  19.771  13.508  1.00  0.00     0.217 HD
ENDBRANCH   1  33
TORSDOF 7
ENDMDL
