REMARK  3 active torsions:
REMARK  status: ('A' for Active; 'I' for Inactive)
REMARK    1  A    between atoms: C_4  and  O_24 
REMARK    2  A    between atoms: C_5  and  O_6 
REMARK    3  A    between atoms: C_5  and  O_18 
ROOT
HETATM    1  C   UNL     1     -41.248  -0.679  12.149  1.00  0.00     0.121 C 
HETATM    2  C   UNL     1     -40.186   2.045  12.443  1.00  0.00     0.364 C 
HETATM    3  C   UNL     1     -41.004   1.419  13.560  1.00  0.00     0.244 C 
HETATM    4  C   UNL     1     -36.902  -1.202  10.367  1.00  0.00     0.273 C 
HETATM    5  C   UNL     1     -38.159  -0.456   9.944  1.00  0.00     0.207 C 
HETATM    6  N   UNL     1     -36.976   0.178  12.374  1.00  0.00    -0.314 N 
ATOM      7  HN  UNL     1     -36.654   0.323  13.331  1.00  0.00     0.170 HD
HETATM    8  C   UNL     1     -40.472   0.064  11.059  1.00  0.00     0.212 C 
HETATM    9  N   UNL     1     -40.689   1.513  11.162  1.00  0.00    -0.041 N 
ATOM     10  HN1 UNL     1     -40.284   2.008  10.367  1.00  0.00     0.280 HD
ATOM     11  HN2 UNL     1     -41.669   1.755  11.016  1.00  0.00     0.280 HD
HETATM   12  C   UNL     1     -36.200  -0.528  11.519  1.00  0.00     0.257 C 
HETATM   13  N   UNL     1     -38.776   1.715  12.601  1.00  0.00    -0.345 N 
ATOM     14  HN  UNL     1     -38.209   2.293  13.222  1.00  0.00     0.163 HD
HETATM   15  O   UNL     1     -41.087   1.988  14.660  1.00  0.00    -0.285 OA
HETATM   16  O   UNL     1     -34.994  -0.707  11.709  1.00  0.00    -0.270 OA
HETATM   17  C   UNL     1     -41.677   0.158  13.310  1.00  0.00     0.200 C 
HETATM   18  C   UNL     1     -39.000  -0.240  11.173  1.00  0.00     0.149 C 
HETATM   19  O   UNL     1     -42.679  -0.161  13.998  1.00  0.00    -0.289 OA
HETATM   20  C   UNL     1     -38.198   0.710  11.984  1.00  0.00     0.093 C 
ENDROOT
BRANCH   5  21
HETATM   21  O   UNL     1     -37.785   0.761   9.358  1.00  0.00    -0.362 OA
ATOM     22  HO  UNL     1     -38.570   1.227   9.094  1.00  0.00     0.213 HD
ENDBRANCH   5  21
BRANCH   5  23
HETATM   23  O   UNL     1     -38.866  -1.107   8.938  1.00  0.00    -0.362 OA
ATOM     24  HO  UNL     1     -39.651  -0.641   8.674  1.00  0.00     0.213 HD
ENDBRANCH   5  23
BRANCH   4  25
HETATM   25  O   UNL     1     -37.244  -2.502  10.790  1.00  0.00    -0.381 OA
ATOM     26  HO  UNL     1     -36.459  -2.968  11.054  1.00  0.00     0.210 HD
ENDBRANCH   4  25
TORSDOF 3
