MODEL 1
REMARK VINA RESULT:     -13.4      0.000      0.000
REMARK  2 active torsions:
REMARK  status: ('A' for Active; 'I' for Inactive)
REMARK    1  A    between atoms: C_15  and  C_35 
REMARK    2  A    between atoms: C_33  and  C_35 
ROOT
HETATM    1  C   UNL     1     -11.393 -17.205  -9.332  1.00  0.00     0.001 C 
HETATM    2  C   UNL     1      -9.272 -17.647 -15.978  1.00  0.00     0.011 C 
HETATM    3  C   UNL     1     -11.028 -17.073 -11.728  1.00  0.00    -0.054 C 
HETATM    4  C   UNL     1      -5.303 -17.841  -8.461  1.00  0.00     0.010 C 
HETATM    5  C   UNL     1      -5.251 -16.898 -11.177  1.00  0.00    -0.002 C 
HETATM    6  C   UNL     1      -7.506 -18.144 -11.497  1.00  0.00     0.044 C 
HETATM    7  C   UNL     1      -7.199 -19.032 -15.515  1.00  0.00     0.012 C 
HETATM    8  C   UNL     1      -9.656 -16.927 -11.693  1.00  0.00     0.015 C 
HETATM    9  C   UNL     1      -8.756 -17.558 -10.867  1.00  0.00    -0.051 C 
HETATM   10  C   UNL     1     -11.719 -17.317 -13.067  1.00  0.00     0.072 C 
HETATM   11  C   UNL     1      -5.970 -18.811 -14.919  1.00  0.00     0.016 C 
HETATM   12  C   UNL     1      -7.906 -17.815 -15.517  1.00  0.00    -0.035 C 
HETATM   13  C   UNL     1      -6.318 -17.800 -10.642  1.00  0.00    -0.002 C 
HETATM   14  C   UNL     1      -4.051 -17.328  -9.116  1.00  0.00    -0.010 C 
HETATM   15  C   UNL     1      -5.939 -17.475 -14.466  1.00  0.00     0.011 C 
HETATM   16  C   UNL     1     -11.819 -16.924 -10.591  1.00  0.00     0.007 C 
HETATM   17  C   UNL     1      -5.351 -16.064 -12.412  1.00  0.00     0.089 C 
HETATM   18  C   UNL     1      -3.936 -17.410 -10.624  1.00  0.00     0.010 C 
HETATM   19  C   UNL     1      -4.910 -16.923 -13.577  1.00  0.00     0.160 C 
HETATM   20  C   UNL     1     -10.766 -17.973 -14.057  1.00  0.00    -0.080 C 
HETATM   21  C   UNL     1      -6.542 -17.344  -9.205  1.00  0.00    -0.005 C 
HETATM   22  O   UNL     1      -3.722 -17.194 -13.702  1.00  0.00    -0.292 OA
HETATM   23  C   UNL     1     -10.285 -17.246 -15.150  1.00  0.00     0.004 C 
HETATM   24  C   UNL     1     -10.350 -19.407 -13.825  1.00  0.00     0.043 C 
HETATM   25  C   UNL     1      -7.761 -18.067  -8.631  1.00  0.00     0.044 C 
HETATM   26  C   UNL     1     -10.168 -17.580  -8.865  1.00  0.00     0.007 C 
HETATM   27  C   UNL     1      -7.086 -16.799 -14.954  1.00  0.00     0.026 C 
HETATM   28  C   UNL     1      -8.942 -17.679  -9.489  1.00  0.00    -0.051 C 
ENDROOT
BRANCH  14  29
HETATM   29  C   UNL     1      -2.792 -17.293  -8.322  1.00  0.00     0.044 C 
BRANCH  29  30
HETATM   30  C   UNL     1      -1.979 -18.548  -8.242  1.00  0.00    -0.042 C 
HETATM   31  C   UNL     1      -1.020 -18.717  -9.257  1.00  0.00     0.008 C 
HETATM   32  C   UNL     1       0.306 -18.406  -8.954  1.00  0.00     0.002 C 
HETATM   33  C   UNL     1       0.743 -18.358  -7.629  1.00  0.00     0.017 C 
HETATM   34  C   UNL     1       0.178 -18.935  -6.529  1.00  0.00     0.087 C 
HETATM   35  N   UNL     1      -0.938 -19.632  -6.369  1.00  0.00    -0.375 N 
HETATM   36  C   UNL     1      -2.013 -19.408  -7.138  1.00  0.00     0.094 C 
ATOM     37  HN  UNL     1      -0.980 -20.352  -5.648  1.00  0.00     0.164 HD
ENDBRANCH  29  30
ENDBRANCH  14  29
TORSDOF 2
ENDMDL
