REMARK  1 active torsions:
REMARK  status: ('A' for Active; 'I' for Inactive)
REMARK    1  A    between atoms: C_7  and  O_11 
ROOT
HETATM    1  C   UNL     1      13.333   0.498 -60.500  1.00  0.00     0.002 C 
HETATM    2  N   UNL     1      12.165   1.419 -63.929  1.00  0.00    -0.324 N 
HETATM    3  C   UNL     1      12.236   1.227 -62.553  1.00  0.00     0.046 C 
HETATM    4  C   UNL     1      10.742   1.629 -66.806  1.00  0.00     0.038 C 
HETATM    5  C   UNL     1      13.362   0.731 -61.879  1.00  0.00     0.030 C 
HETATM    6  C   UNL     1      11.070   0.785 -64.456  1.00  0.00     0.031 C 
HETATM    7  C   UNL     1      11.788   2.547 -66.937  1.00  0.00     0.067 C 
HETATM    8  C   UNL     1      10.405   1.023 -60.926  1.00  0.00     0.011 C 
HETATM    9  C   UNL     1      10.996   0.720 -62.142  1.00  0.00    -0.015 C 
HETATM   10  C   UNL     1      12.661   2.846 -65.903  1.00  0.00     0.054 C 
HETATM   11  C   UNL     1      10.563   0.811 -65.745  1.00  0.00     0.029 C 
HETATM   12  C   UNL     1      10.739  -1.445 -63.330  1.00  0.00     0.253 A 
HETATM   13  C   UNL     1      11.103   1.190 -59.744  1.00  0.00     0.001 C 
HETATM   14  C   UNL     1      12.886   2.300 -64.672  1.00  0.00     0.100 C 
HETATM   15  C   UNL     1      10.405   0.033 -63.330  1.00  0.00     0.057 A 
HETATM   16  N   UNL     1       9.512  -2.214 -63.399  1.00  0.00    -0.074 N 
ATOM     17  HN1 UNL     1       9.423  -2.866 -62.620  1.00  0.00     0.277 HD
ATOM     18  HN2 UNL     1       9.527  -2.894 -64.159  1.00  0.00     0.277 HD
HETATM   19  C   UNL     1       8.897   0.101 -63.413  1.00  0.00     0.050 A 
HETATM   20  C   UNL     1       8.389  -1.326 -63.491  1.00  0.00     0.233 A 
HETATM   21  C   UNL     1      12.434   0.932 -59.567  1.00  0.00     0.000 C 
ENDROOT
BRANCH   7  22
HETATM   22  O   UNL     1      11.779   3.267 -68.070  1.00  0.00    -0.361 OA
ATOM     23  HO  UNL     1      12.490   3.891 -68.159  1.00  0.00     0.217 HD
ENDBRANCH   7  22
TORSDOF 1
