REMARK  2 active torsions:
REMARK  status: ('A' for Active; 'I' for Inactive)
REMARK    1  A    between atoms: C_7  and  C_19 
REMARK    2  A    between atoms: O_8  and  C_18 
ROOT
HETATM    1  C   UNL     1       9.885  21.118 -12.497  1.00  0.00     0.016 C 
HETATM    2  C   UNL     1      11.335  20.967 -12.151  1.00  0.00     0.116 C 
HETATM    3  C   UNL     1       9.997  18.754 -13.616  1.00  0.00     0.204 C 
HETATM    4  N   UNL     1      11.723  19.550 -12.171  1.00  0.00    -0.379 N 
ATOM      5  HN  UNL     1      12.287  19.178 -11.407  1.00  0.00     0.160 HD
HETATM    6  C   UNL     1      10.302  19.614 -15.814  1.00  0.00     0.011 C 
HETATM    7  C   UNL     1      12.169  17.955 -14.025  1.00  0.00     0.033 C 
HETATM    8  C   UNL     1      11.343  18.710 -13.199  1.00  0.00     0.079 C 
HETATM    9  O   UNL     1       9.107  17.963 -13.237  1.00  0.00    -0.285 OA
HETATM   10  C   UNL     1       9.237  22.089 -11.558  1.00  0.00     0.025 C 
HETATM   11  C   UNL     1      11.168  18.606 -16.175  1.00  0.00     0.001 C 
HETATM   12  C   UNL     1      11.891  17.756 -15.363  1.00  0.00     0.002 C 
HETATM   13  C   UNL     1      11.487  21.575 -10.754  1.00  0.00     0.155 C 
HETATM   14  C   UNL     1      10.240  22.412 -10.484  1.00  0.00     0.118 C 
HETATM   15  C   UNL     1       9.837  19.804 -14.534  1.00  0.00    -0.005 C 
HETATM   16  C   UNL     1       9.463  21.113 -13.942  1.00  0.00     0.049 C 
ENDROOT
BRANCH  14  17
HETATM   17  C   UNL     1       9.683  22.204  -9.096  1.00  0.00     0.179 C 
HETATM   18  O   UNL     1       8.504  21.803  -8.995  1.00  0.00    -0.648 OA
HETATM   19  O   UNL     1      10.495  22.312  -8.125  1.00  0.00    -0.648 OA
ENDBRANCH  14  17
BRANCH  13  20
HETATM   20  O   UNL     1      12.645  22.403 -10.766  1.00  0.00    -0.393 OA
ATOM     21  HO  UNL     1      12.739  22.780  -9.899  1.00  0.00     0.210 HD
ENDBRANCH  13  20
TORSDOF 2
