MODEL 1
REMARK VINA RESULT:      -7.9      0.000      0.000
REMARK  1 active torsions:
REMARK  status: ('A' for Active; 'I' for Inactive)
REMARK    1  A    between atoms: N_9  and  C_16 
ROOT
HETATM    1  O   UNL     1      25.381  55.540  10.311  1.00  0.00    -0.288 OA
HETATM    2  N   UNL     1      24.291  55.070  14.097  1.00  0.00    -0.264 N 
HETATM    3  C   UNL     1      24.704  55.303  11.371  1.00  0.00     0.183 C 
HETATM    4  C   UNL     1      24.908  54.062  12.002  1.00  0.00     0.104 C 
HETATM    5  C   UNL     1      24.576  57.516  14.243  1.00  0.00     0.031 C 
HETATM    6  C   UNL     1      23.253  57.373  11.435  1.00  0.00     0.055 C 
HETATM    7  C   UNL     1      24.169  56.393  12.117  1.00  0.00     0.015 C 
HETATM    8  O   UNL     1      22.892  53.978  15.486  1.00  0.00    -0.268 OA
HETATM    9  C   UNL     1      24.317  56.334  13.509  1.00  0.00     0.054 C 
HETATM   10  C   UNL     1      24.463  56.862  16.650  1.00  0.00     0.005 C 
HETATM   11  C   UNL     1      24.120  55.564  16.561  1.00  0.00     0.075 C 
HETATM   12  C   UNL     1      24.555  57.768  15.564  1.00  0.00     0.002 C 
HETATM   13  C   UNL     1      24.750  53.981  13.376  1.00  0.00     0.112 C 
HETATM   14  C   UNL     1      23.746  54.849  15.374  1.00  0.00     0.253 C 
ENDROOT
BRANCH  13  15
HETATM   15  N   UNL     1      25.091  52.862  13.984  1.00  0.00    -0.385 N 
ATOM     16  HN2 UNL     1      24.358  52.303  14.424  1.00  0.00     0.157 HD
ATOM     17  HN1 UNL     1      26.059  52.541  13.985  1.00  0.00     0.157 HD
ENDBRANCH  13  15
TORSDOF 1
ENDMDL
MODEL 2
REMARK VINA RESULT:      -7.8      1.973      4.611
REMARK  1 active torsions:
REMARK  status: ('A' for Active; 'I' for Inactive)
REMARK    1  A    between atoms: N_9  and  C_16 
ROOT
HETATM    1  O   UNL     1      23.968  57.786  15.703  1.00  0.00    -0.288 OA
HETATM    2  N   UNL     1      23.768  55.603  12.396  1.00  0.00    -0.264 N 
HETATM    3  C   UNL     1      23.538  57.107  14.708  1.00  0.00     0.183 C 
HETATM    4  C   UNL     1      23.509  57.748  13.455  1.00  0.00     0.104 C 
HETATM    5  C   UNL     1      24.804  53.838  13.773  1.00  0.00     0.031 C 
HETATM    6  C   UNL     1      22.843  54.985  15.894  1.00  0.00     0.055 C 
HETATM    7  C   UNL     1      23.560  55.684  14.771  1.00  0.00     0.015 C 
HETATM    8  O   UNL     1      22.496  55.086  10.608  1.00  0.00    -0.268 OA
HETATM    9  C   UNL     1      24.026  55.012  13.633  1.00  0.00     0.054 C 
HETATM   10  C   UNL     1      25.102  52.937  11.464  1.00  0.00     0.005 C 
HETATM   11  C   UNL     1      24.373  53.805  10.740  1.00  0.00     0.075 C 
HETATM   12  C   UNL     1      25.189  52.912  12.879  1.00  0.00     0.002 C 
HETATM   13  C   UNL     1      23.682  56.982  12.313  1.00  0.00     0.112 C 
HETATM   14  C   UNL     1      23.518  54.843  11.240  1.00  0.00     0.253 C 
ENDROOT
BRANCH  13  15
HETATM   15  N   UNL     1      23.809  57.599  11.155  1.00  0.00    -0.385 N 
ATOM     16  HN2 UNL     1      23.221  57.301  10.376  1.00  0.00     0.157 HD
ATOM     17  HN1 UNL     1      24.456  58.381  11.047  1.00  0.00     0.157 HD
ENDBRANCH  13  15
TORSDOF 1
ENDMDL
MODEL 3
REMARK VINA RESULT:      -7.5      1.916      3.166
REMARK  1 active torsions:
REMARK  status: ('A' for Active; 'I' for Inactive)
REMARK    1  A    between atoms: N_9  and  C_16 
ROOT
HETATM    1  O   UNL     1      23.040  55.036  10.730  1.00  0.00    -0.288 OA
HETATM    2  N   UNL     1      24.106  56.584  14.225  1.00  0.00    -0.264 N 
HETATM    3  C   UNL     1      23.703  55.592  11.673  1.00  0.00     0.183 C 
HETATM    4  C   UNL     1      23.426  56.944  11.946  1.00  0.00     0.104 C 
HETATM    5  C   UNL     1      23.969  54.259  15.037  1.00  0.00     0.031 C 
HETATM    6  C   UNL     1      25.275  53.704  12.272  1.00  0.00     0.055 C 
HETATM    7  C   UNL     1      24.304  54.779  12.678  1.00  0.00     0.015 C 
HETATM    8  O   UNL     1      25.441  58.092  15.238  1.00  0.00    -0.268 OA
HETATM    9  C   UNL     1      24.155  55.208  14.004  1.00  0.00     0.054 C 
HETATM   10  C   UNL     1      24.047  55.550  17.172  1.00  0.00     0.005 C 
HETATM   11  C   UNL     1      24.312  56.792  16.727  1.00  0.00     0.075 C 
HETATM   12  C   UNL     1      24.007  54.378  16.375  1.00  0.00     0.002 C 
HETATM   13  C   UNL     1      23.581  57.406  13.242  1.00  0.00     0.112 C 
HETATM   14  C   UNL     1      24.640  57.176  15.383  1.00  0.00     0.253 C 
ENDROOT
BRANCH  13  15
HETATM   15  N   UNL     1      23.176  58.628  13.529  1.00  0.00    -0.385 N 
ATOM     16  HN2 UNL     1      23.846  59.394  13.457  1.00  0.00     0.157 HD
ATOM     17  HN1 UNL     1      22.205  58.810  13.782  1.00  0.00     0.157 HD
ENDBRANCH  13  15
TORSDOF 1
ENDMDL
MODEL 4
REMARK VINA RESULT:      -7.2      1.264      4.090
REMARK  1 active torsions:
REMARK  status: ('A' for Active; 'I' for Inactive)
REMARK    1  A    between atoms: N_9  and  C_16 
ROOT
HETATM    1  O   UNL     1      23.617  55.112  16.508  1.00  0.00    -0.288 OA
HETATM    2  N   UNL     1      24.310  55.956  12.694  1.00  0.00    -0.264 N 
HETATM    3  C   UNL     1      24.194  55.384  15.399  1.00  0.00     0.183 C 
HETATM    4  C   UNL     1      24.335  54.336  14.472  1.00  0.00     0.104 C 
HETATM    5  C   UNL     1      23.210  58.103  13.207  1.00  0.00     0.031 C 
HETATM    6  C   UNL     1      24.851  57.788  15.827  1.00  0.00     0.055 C 
HETATM    7  C   UNL     1      24.236  56.735  14.946  1.00  0.00     0.015 C 
HETATM    8  O   UNL     1      25.805  55.787  11.015  1.00  0.00    -0.268 OA
HETATM    9  C   UNL     1      23.939  56.954  13.594  1.00  0.00     0.054 C 
HETATM   10  C   UNL     1      23.228  58.113  10.711  1.00  0.00     0.005 C 
HETATM   11  C   UNL     1      23.992  57.038  10.442  1.00  0.00     0.075 C 
HETATM   12  C   UNL     1      22.978  58.647  11.999  1.00  0.00     0.002 C 
HETATM   13  C   UNL     1      24.336  54.639  13.120  1.00  0.00     0.112 C 
HETATM   14  C   UNL     1      24.730  56.247  11.384  1.00  0.00     0.253 C 
ENDROOT
BRANCH  13  15
HETATM   15  N   UNL     1      24.313  53.646  12.252  1.00  0.00    -0.385 N 
ATOM     16  HN2 UNL     1      24.453  53.860  11.264  1.00  0.00     0.157 HD
ATOM     17  HN1 UNL     1      24.194  52.682  12.563  1.00  0.00     0.157 HD
ENDBRANCH  13  15
TORSDOF 1
ENDMDL
MODEL 5
REMARK VINA RESULT:      -7.1      2.029      3.086
REMARK  1 active torsions:
REMARK  status: ('A' for Active; 'I' for Inactive)
REMARK    1  A    between atoms: N_9  and  C_16 
ROOT
HETATM    1  O   UNL     1      26.635  51.680  13.841  1.00  0.00    -0.288 OA
HETATM    2  N   UNL     1      23.905  54.295  15.050  1.00  0.00    -0.264 N 
HETATM    3  C   UNL     1      25.524  52.257  14.108  1.00  0.00     0.183 C 
HETATM    4  C   UNL     1      25.096  52.242  15.448  1.00  0.00     0.104 C 
HETATM    5  C   UNL     1      24.726  55.671  13.175  1.00  0.00     0.031 C 
HETATM    6  C   UNL     1      24.792  52.898  11.774  1.00  0.00     0.055 C 
HETATM    7  C   UNL     1      25.021  53.250  13.219  1.00  0.00     0.015 C 
HETATM    8  O   UNL     1      21.805  54.531  15.834  1.00  0.00    -0.268 OA
HETATM    9  C   UNL     1      24.518  54.420  13.804  1.00  0.00     0.054 C 
HETATM   10  C   UNL     1      23.396  57.325  14.489  1.00  0.00     0.005 C 
HETATM   11  C   UNL     1      22.801  56.531  15.398  1.00  0.00     0.075 C 
HETATM   12  C   UNL     1      24.191  56.883  13.402  1.00  0.00     0.002 C 
HETATM   13  C   UNL     1      24.333  53.301  15.914  1.00  0.00     0.112 C 
HETATM   14  C   UNL     1      22.816  55.097  15.434  1.00  0.00     0.253 C 
ENDROOT
BRANCH  13  15
HETATM   15  N   UNL     1      24.064  53.364  17.204  1.00  0.00    -0.385 N 
ATOM     16  HN2 UNL     1      24.761  53.022  17.865  1.00  0.00     0.157 HD
ATOM     17  HN1 UNL     1      23.193  53.779  17.536  1.00  0.00     0.157 HD
ENDBRANCH  13  15
TORSDOF 1
ENDMDL
MODEL 6
REMARK VINA RESULT:      -6.8      2.088      4.468
REMARK  1 active torsions:
REMARK  status: ('A' for Active; 'I' for Inactive)
REMARK    1  A    between atoms: N_9  and  C_16 
ROOT
HETATM    1  O   UNL     1      24.238  57.405  14.596  1.00  0.00    -0.288 OA
HETATM    2  N   UNL     1      24.610  54.287  12.170  1.00  0.00    -0.264 N 
HETATM    3  C   UNL     1      23.991  56.455  13.775  1.00  0.00     0.183 C 
HETATM    4  C   UNL     1      24.335  56.663  12.427  1.00  0.00     0.104 C 
HETATM    5  C   UNL     1      25.086  53.027  14.237  1.00  0.00     0.031 C 
HETATM    6  C   UNL     1      22.805  54.840  15.318  1.00  0.00     0.055 C 
HETATM    7  C   UNL     1      23.843  55.126  14.267  1.00  0.00     0.015 C 
HETATM    8  O   UNL     1      23.762  53.260  10.352  1.00  0.00    -0.268 OA
HETATM    9  C   UNL     1      24.496  54.114  13.549  1.00  0.00     0.054 C 
HETATM   10  C   UNL     1      25.836  51.430  12.470  1.00  0.00     0.005 C 
HETATM   11  C   UNL     1      25.401  52.040  11.353  1.00  0.00     0.075 C 
HETATM   12  C   UNL     1      25.574  51.854  13.797  1.00  0.00     0.002 C 
HETATM   13  C   UNL     1      24.696  55.570  11.656  1.00  0.00     0.112 C 
HETATM   14  C   UNL     1      24.567  53.205  11.273  1.00  0.00     0.253 C 
ENDROOT
BRANCH  13  15
HETATM   15  N   UNL     1      25.166  55.782  10.442  1.00  0.00    -0.385 N 
ATOM     16  HN2 UNL     1      25.929  56.449  10.325  1.00  0.00     0.157 HD
ATOM     17  HN1 UNL     1      24.800  55.265   9.643  1.00  0.00     0.157 HD
ENDBRANCH  13  15
TORSDOF 1
ENDMDL
MODEL 7
REMARK VINA RESULT:      -6.8      2.145      4.319
REMARK  1 active torsions:
REMARK  status: ('A' for Active; 'I' for Inactive)
REMARK    1  A    between atoms: N_9  and  C_16 
ROOT
HETATM    1  O   UNL     1      23.163  57.146  15.574  1.00  0.00    -0.288 OA
HETATM    2  N   UNL     1      24.689  54.033  13.644  1.00  0.00    -0.264 N 
HETATM    3  C   UNL     1      23.319  56.148  14.788  1.00  0.00     0.183 C 
HETATM    4  C   UNL     1      24.075  56.359  13.621  1.00  0.00     0.104 C 
HETATM    5  C   UNL     1      24.575  52.909  15.837  1.00  0.00     0.031 C 
HETATM    6  C   UNL     1      21.873  54.438  15.962  1.00  0.00     0.055 C 
HETATM    7  C   UNL     1      23.166  54.826  15.299  1.00  0.00     0.015 C 
HETATM    8  O   UNL     1      24.630  52.849  11.726  1.00  0.00    -0.268 OA
HETATM    9  C   UNL     1      24.134  53.888  14.915  1.00  0.00     0.054 C 
HETATM   10  C   UNL     1      26.057  51.373  14.542  1.00  0.00     0.005 C 
HETATM   11  C   UNL     1      25.961  51.886  13.302  1.00  0.00     0.075 C 
HETATM   12  C   UNL     1      25.314  51.798  15.672  1.00  0.00     0.002 C 
HETATM   13  C   UNL     1      24.797  55.300  13.095  1.00  0.00     0.112 C 
HETATM   14  C   UNL     1      25.076  52.928  12.865  1.00  0.00     0.253 C 
ENDROOT
BRANCH  13  15
HETATM   15  N   UNL     1      25.624  55.535  12.095  1.00  0.00    -0.385 N 
ATOM     16  HN2 UNL     1      26.160  54.756  11.712  1.00  0.00     0.157 HD
ATOM     17  HN1 UNL     1      25.700  56.467  11.689  1.00  0.00     0.157 HD
ENDBRANCH  13  15
TORSDOF 1
ENDMDL
MODEL 8
REMARK VINA RESULT:      -6.7      4.663      6.580
REMARK  1 active torsions:
REMARK  status: ('A' for Active; 'I' for Inactive)
REMARK    1  A    between atoms: N_9  and  C_16 
ROOT
HETATM    1  O   UNL     1      21.116  53.522  16.817  1.00  0.00    -0.288 OA
HETATM    2  N   UNL     1      23.961  51.138  18.220  1.00  0.00    -0.264 N 
HETATM    3  C   UNL     1      22.055  53.022  17.528  1.00  0.00     0.183 C 
HETATM    4  C   UNL     1      21.712  51.974  18.403  1.00  0.00     0.104 C 
HETATM    5  C   UNL     1      25.191  51.788  16.184  1.00  0.00     0.031 C 
HETATM    6  C   UNL     1      23.959  54.555  16.880  1.00  0.00     0.055 C 
HETATM    7  C   UNL     1      23.408  53.173  17.106  1.00  0.00     0.015 C 
HETATM    8  O   UNL     1      25.053  50.473  20.076  1.00  0.00    -0.268 OA
HETATM    9  C   UNL     1      24.221  52.034  17.184  1.00  0.00     0.054 C 
HETATM   10  C   UNL     1      26.504  49.818  16.976  1.00  0.00     0.005 C 
HETATM   11  C   UNL     1      25.945  49.588  18.178  1.00  0.00     0.075 C 
HETATM   12  C   UNL     1      26.211  50.914  16.126  1.00  0.00     0.002 C 
HETATM   13  C   UNL     1      22.665  51.011  18.692  1.00  0.00     0.112 C 
HETATM   14  C   UNL     1      24.982  50.409  18.854  1.00  0.00     0.253 C 
ENDROOT
BRANCH  13  15
HETATM   15  N   UNL     1      22.299  49.951  19.385  1.00  0.00    -0.385 N 
ATOM     16  HN2 UNL     1      21.806  49.199  18.902  1.00  0.00     0.157 HD
ATOM     17  HN1 UNL     1      22.533  49.866  20.374  1.00  0.00     0.157 HD
ENDBRANCH  13  15
TORSDOF 1
ENDMDL
MODEL 9
REMARK VINA RESULT:      -6.6      4.748      6.576
REMARK  1 active torsions:
REMARK  status: ('A' for Active; 'I' for Inactive)
REMARK    1  A    between atoms: N_9  and  C_16 
ROOT
HETATM    1  O   UNL     1      22.984  54.534  16.496  1.00  0.00    -0.288 OA
HETATM    2  N   UNL     1      24.417  51.140  17.970  1.00  0.00    -0.264 N 
HETATM    3  C   UNL     1      23.223  53.295  16.710  1.00  0.00     0.183 C 
HETATM    4  C   UNL     1      24.428  52.775  16.204  1.00  0.00     0.104 C 
HETATM    5  C   UNL     1      23.129  51.740  19.986  1.00  0.00     0.031 C 
HETATM    6  C   UNL     1      21.063  52.624  17.840  1.00  0.00     0.055 C 
HETATM    7  C   UNL     1      22.566  52.633  17.788  1.00  0.00     0.015 C 
HETATM    8  O   UNL     1      24.904  48.991  17.498  1.00  0.00    -0.268 OA
HETATM    9  C   UNL     1      23.360  51.804  18.591  1.00  0.00     0.054 C 
HETATM   10  C   UNL     1      24.619  49.928  20.841  1.00  0.00     0.005 C 
HETATM   11  C   UNL     1      25.179  49.480  19.703  1.00  0.00     0.075 C 
HETATM   12  C   UNL     1      23.589  50.898  20.928  1.00  0.00     0.002 C 
HETATM   13  C   UNL     1      25.038  51.732  16.882  1.00  0.00     0.112 C 
HETATM   14  C   UNL     1      24.830  49.855  18.363  1.00  0.00     0.253 C 
ENDROOT
BRANCH  13  15
HETATM   15  N   UNL     1      26.239  51.348  16.498  1.00  0.00    -0.385 N 
ATOM     16  HN2 UNL     1      27.030  51.966  16.682  1.00  0.00     0.157 HD
ATOM     17  HN1 UNL     1      26.382  50.438  16.060  1.00  0.00     0.157 HD
ENDBRANCH  13  15
TORSDOF 1
ENDMDL
