MODEL 1
REMARK VINA RESULT:      -4.4      0.000      0.000
REMARK  4 active torsions:
REMARK  status: ('A' for Active; 'I' for Inactive)
REMARK    1  A    between atoms: N_2  and  C_14 
REMARK    2  A    between atoms: C_5  and  O_6 
REMARK    3  A    between atoms: C_5  and  O_9 
REMARK    4  A    between atoms: C_8  and  O_11 
ROOT
HETATM    1  C   UNL     1      14.840  13.995  14.727  1.00  0.00     0.139 C 
HETATM    2  C   UNL     1      14.197  15.316  15.043  1.00  0.00     0.209 C 
HETATM    3  C   UNL     1      14.311  13.385  13.552  1.00  0.00     0.049 C 
HETATM    4  C   UNL     1      12.147  14.363  13.987  1.00  0.00     0.032 C 
HETATM    5  C   UNL     1      12.668  15.183  14.972  1.00  0.00     0.065 C 
HETATM    6  C   UNL     1      12.965  13.522  13.235  1.00  0.00     0.034 C 
ENDROOT
BRANCH   2   7
HETATM    7  O   UNL     1      14.599  15.800  16.310  1.00  0.00    -0.360 OA
ATOM      8  HO  UNL     1      14.532  15.129  16.979  1.00  0.00     0.213 HD
ENDBRANCH   2   7
BRANCH   2   9
HETATM    9  O   UNL     1      14.639  16.281  14.138  1.00  0.00    -0.360 OA
ATOM     10  HO  UNL     1      14.399  16.025  13.254  1.00  0.00     0.213 HD
ENDBRANCH   2   9
BRANCH   5  11
HETATM   11  N   UNL     1      11.939  15.813  15.836  1.00  0.00    -0.398 N 
ATOM     12  HN2 UNL     1      12.239  16.004  16.792  1.00  0.00     0.156 HD
ATOM     13  HN1 UNL     1      11.022  16.159  15.555  1.00  0.00     0.156 HD
ENDBRANCH   5  11
BRANCH   3  14
HETATM   14  O   UNL     1      15.145  12.711  12.757  1.00  0.00    -0.365 OA
ATOM     15  HO  UNL     1      15.610  13.190  12.082  1.00  0.00     0.217 HD
ENDBRANCH   3  14
TORSDOF 4
ENDMDL
MODEL 2
REMARK VINA RESULT:      -4.3      2.678      3.057
REMARK  4 active torsions:
REMARK  status: ('A' for Active; 'I' for Inactive)
REMARK    1  A    between atoms: N_2  and  C_14 
REMARK    2  A    between atoms: C_5  and  O_6 
REMARK    3  A    between atoms: C_5  and  O_9 
REMARK    4  A    between atoms: C_8  and  O_11 
ROOT
HETATM    1  C   UNL     1      12.484  14.042  14.434  1.00  0.00     0.139 C 
HETATM    2  C   UNL     1      11.127  14.266  15.038  1.00  0.00     0.209 C 
HETATM    3  C   UNL     1      12.426  13.644  13.066  1.00  0.00     0.049 C 
HETATM    4  C   UNL     1      10.335  12.503  13.458  1.00  0.00     0.032 C 
HETATM    5  C   UNL     1      10.207  13.079  14.710  1.00  0.00     0.065 C 
HETATM    6  C   UNL     1      11.394  12.830  12.614  1.00  0.00     0.034 C 
ENDROOT
BRANCH   2   7
HETATM    7  O   UNL     1      11.207  14.466  16.436  1.00  0.00    -0.360 OA
ATOM      8  HO  UNL     1      11.942  15.021  16.669  1.00  0.00     0.213 HD
ENDBRANCH   2   7
BRANCH   2   9
HETATM    9  O   UNL     1      10.581  15.450  14.540  1.00  0.00    -0.360 OA
ATOM     10  HO  UNL     1       9.941  15.249  13.867  1.00  0.00     0.213 HD
ENDBRANCH   2   9
BRANCH   5  11
HETATM   11  N   UNL     1       9.378  12.656  15.609  1.00  0.00    -0.398 N 
ATOM     12  HN2 UNL     1       9.664  12.129  16.435  1.00  0.00     0.156 HD
ATOM     13  HN1 UNL     1       8.386  12.869  15.511  1.00  0.00     0.156 HD
ENDBRANCH   5  11
BRANCH   3  14
HETATM   14  O   UNL     1      13.366  14.097  12.233  1.00  0.00    -0.365 OA
ATOM     15  HO  UNL     1      14.248  13.755  12.318  1.00  0.00     0.217 HD
ENDBRANCH   3  14
TORSDOF 4
ENDMDL
MODEL 3
REMARK VINA RESULT:      -4.2      3.819      5.274
REMARK  4 active torsions:
REMARK  status: ('A' for Active; 'I' for Inactive)
REMARK    1  A    between atoms: N_2  and  C_14 
REMARK    2  A    between atoms: C_5  and  O_6 
REMARK    3  A    between atoms: C_5  and  O_9 
REMARK    4  A    between atoms: C_8  and  O_11 
ROOT
HETATM    1  C   UNL     1      17.343  18.678  15.118  1.00  0.00     0.139 C 
HETATM    2  C   UNL     1      17.092  17.403  14.366  1.00  0.00     0.209 C 
HETATM    3  C   UNL     1      17.125  18.549  16.521  1.00  0.00     0.049 C 
HETATM    4  C   UNL     1      15.397  16.910  16.130  1.00  0.00     0.032 C 
HETATM    5  C   UNL     1      15.746  16.799  14.795  1.00  0.00     0.065 C 
HETATM    6  C   UNL     1      16.118  17.722  17.003  1.00  0.00     0.034 C 
ENDROOT
BRANCH   2   7
HETATM    7  O   UNL     1      17.123  17.609  12.966  1.00  0.00    -0.360 OA
ATOM      8  HO  UNL     1      16.380  17.203  12.536  1.00  0.00     0.213 HD
ENDBRANCH   2   7
BRANCH   2   9
HETATM    9  O   UNL     1      18.126  16.499  14.614  1.00  0.00    -0.360 OA
ATOM     10  HO  UNL     1      17.949  16.024  15.418  1.00  0.00     0.213 HD
ENDBRANCH   2   9
BRANCH   5  11
HETATM   11  N   UNL     1      14.992  16.239  13.905  1.00  0.00    -0.398 N 
ATOM     12  HN2 UNL     1      15.356  15.748  13.087  1.00  0.00     0.156 HD
ATOM     13  HN1 UNL     1      13.979  16.265  14.022  1.00  0.00     0.156 HD
ENDBRANCH   5  11
BRANCH   3  14
HETATM   14  O   UNL     1      17.930  19.215  17.352  1.00  0.00    -0.365 OA
ATOM     15  HO  UNL     1      18.857  19.251  17.150  1.00  0.00     0.217 HD
ENDBRANCH   3  14
TORSDOF 4
ENDMDL
MODEL 4
REMARK VINA RESULT:      -4.2      2.210      3.186
REMARK  4 active torsions:
REMARK  status: ('A' for Active; 'I' for Inactive)
REMARK    1  A    between atoms: N_2  and  C_14 
REMARK    2  A    between atoms: C_5  and  O_6 
REMARK    3  A    between atoms: C_5  and  O_9 
REMARK    4  A    between atoms: C_8  and  O_11 
ROOT
HETATM    1  C   UNL     1      12.513  13.101  13.253  1.00  0.00     0.139 C 
HETATM    2  C   UNL     1      13.827  13.810  13.091  1.00  0.00     0.209 C 
HETATM    3  C   UNL     1      11.459  13.970  13.664  1.00  0.00     0.049 C 
HETATM    4  C   UNL     1      13.024  15.328  14.902  1.00  0.00     0.032 C 
HETATM    5  C   UNL     1      14.104  14.686  14.323  1.00  0.00     0.065 C 
HETATM    6  C   UNL     1      11.716  15.026  14.530  1.00  0.00     0.034 C 
ENDROOT
BRANCH   2   7
HETATM    7  O   UNL     1      14.887  12.898  12.876  1.00  0.00    -0.360 OA
ATOM      8  HO  UNL     1      15.728  13.282  13.097  1.00  0.00     0.213 HD
ENDBRANCH   2   7
BRANCH   2   9
HETATM    9  O   UNL     1      13.797  14.597  11.939  1.00  0.00    -0.360 OA
ATOM     10  HO  UNL     1      13.625  14.049  11.181  1.00  0.00     0.213 HD
ENDBRANCH   2   9
BRANCH   5  11
HETATM   11  N   UNL     1      15.313  14.769  14.779  1.00  0.00    -0.398 N 
ATOM     12  HN2 UNL     1      15.534  14.975  15.753  1.00  0.00     0.156 HD
ATOM     13  HN1 UNL     1      16.096  14.605  14.147  1.00  0.00     0.156 HD
ENDBRANCH   5  11
BRANCH   3  14
HETATM   14  O   UNL     1      10.236  13.760  13.172  1.00  0.00    -0.365 OA
ATOM     15  HO  UNL     1       9.489  14.040  13.687  1.00  0.00     0.217 HD
ENDBRANCH   3  14
TORSDOF 4
ENDMDL
MODEL 5
REMARK VINA RESULT:      -4.2      3.640      4.902
REMARK  4 active torsions:
REMARK  status: ('A' for Active; 'I' for Inactive)
REMARK    1  A    between atoms: N_2  and  C_14 
REMARK    2  A    between atoms: C_5  and  O_6 
REMARK    3  A    between atoms: C_5  and  O_9 
REMARK    4  A    between atoms: C_8  and  O_11 
ROOT
HETATM    1  C   UNL     1      15.866  18.016  17.536  1.00  0.00     0.139 C 
HETATM    2  C   UNL     1      14.769  17.559  16.618  1.00  0.00     0.209 C 
HETATM    3  C   UNL     1      17.110  18.207  16.864  1.00  0.00     0.049 C 
HETATM    4  C   UNL     1      16.575  16.435  15.314  1.00  0.00     0.032 C 
HETATM    5  C   UNL     1      15.264  16.390  15.752  1.00  0.00     0.065 C 
HETATM    6  C   UNL     1      17.474  17.377  15.811  1.00  0.00     0.034 C 
ENDROOT
BRANCH   2   7
HETATM    7  O   UNL     1      13.608  17.191  17.339  1.00  0.00    -0.360 OA
ATOM      8  HO  UNL     1      13.818  16.918  18.224  1.00  0.00     0.213 HD
ENDBRANCH   2   7
BRANCH   2   9
HETATM    9  O   UNL     1      14.362  18.619  15.808  1.00  0.00    -0.360 OA
ATOM     10  HO  UNL     1      15.114  18.983  15.355  1.00  0.00     0.213 HD
ENDBRANCH   2   9
BRANCH   5  11
HETATM   11  N   UNL     1      14.457  15.413  15.490  1.00  0.00    -0.398 N 
ATOM     12  HN2 UNL     1      13.462  15.539  15.303  1.00  0.00     0.156 HD
ATOM     13  HN1 UNL     1      14.824  14.462  15.446  1.00  0.00     0.156 HD
ENDBRANCH   5  11
BRANCH   3  14
HETATM   14  O   UNL     1      17.892  19.216  17.253  1.00  0.00    -0.365 OA
ATOM     15  HO  UNL     1      18.591  19.494  16.673  1.00  0.00     0.217 HD
ENDBRANCH   3  14
TORSDOF 4
ENDMDL
MODEL 6
REMARK VINA RESULT:      -4.2      3.773      5.414
REMARK  4 active torsions:
REMARK  status: ('A' for Active; 'I' for Inactive)
REMARK    1  A    between atoms: N_2  and  C_14 
REMARK    2  A    between atoms: C_5  and  O_6 
REMARK    3  A    between atoms: C_5  and  O_9 
REMARK    4  A    between atoms: C_8  and  O_11 
ROOT
HETATM    1  C   UNL     1      15.083  16.810  16.630  1.00  0.00     0.139 C 
HETATM    2  C   UNL     1      15.785  16.791  15.302  1.00  0.00     0.209 C 
HETATM    3  C   UNL     1      15.482  17.903  17.454  1.00  0.00     0.049 C 
HETATM    4  C   UNL     1      17.700  17.847  16.503  1.00  0.00     0.032 C 
HETATM    5  C   UNL     1      17.296  16.977  15.506  1.00  0.00     0.065 C 
HETATM    6  C   UNL     1      16.793  18.361  17.428  1.00  0.00     0.034 C 
ENDROOT
BRANCH   2   7
HETATM    7  O   UNL     1      15.519  15.597  14.590  1.00  0.00    -0.360 OA
ATOM      8  HO  UNL     1      15.472  14.847  15.172  1.00  0.00     0.213 HD
ENDBRANCH   2   7
BRANCH   2   9
HETATM    9  O   UNL     1      15.280  17.807  14.489  1.00  0.00    -0.360 OA
ATOM     10  HO  UNL     1      15.741  17.810  13.658  1.00  0.00     0.213 HD
ENDBRANCH   2   9
BRANCH   5  11
HETATM   11  N   UNL     1      18.120  16.307  14.766  1.00  0.00    -0.398 N 
ATOM     12  HN2 UNL     1      17.852  15.858  13.890  1.00  0.00     0.156 HD
ATOM     13  HN1 UNL     1      19.096  16.231  15.052  1.00  0.00     0.156 HD
ENDBRANCH   5  11
BRANCH   3  14
HETATM   14  O   UNL     1      14.559  18.489  18.220  1.00  0.00    -0.365 OA
ATOM     15  HO  UNL     1      14.695  18.502  19.160  1.00  0.00     0.217 HD
ENDBRANCH   3  14
TORSDOF 4
ENDMDL
MODEL 7
REMARK VINA RESULT:      -4.1      4.259      5.840
REMARK  4 active torsions:
REMARK  status: ('A' for Active; 'I' for Inactive)
REMARK    1  A    between atoms: N_2  and  C_14 
REMARK    2  A    between atoms: C_5  and  O_6 
REMARK    3  A    between atoms: C_5  and  O_9 
REMARK    4  A    between atoms: C_8  and  O_11 
ROOT
HETATM    1  C   UNL     1      16.563  19.234  14.017  1.00  0.00     0.139 C 
HETATM    2  C   UNL     1      16.841  17.784  13.743  1.00  0.00     0.209 C 
HETATM    3  C   UNL     1      17.188  19.705  15.209  1.00  0.00     0.049 C 
HETATM    4  C   UNL     1      16.959  17.526  16.222  1.00  0.00     0.032 C 
HETATM    5  C   UNL     1      16.598  16.955  15.014  1.00  0.00     0.065 C 
HETATM    6  C   UNL     1      17.317  18.869  16.312  1.00  0.00     0.034 C 
ENDROOT
BRANCH   2   7
HETATM    7  O   UNL     1      16.057  17.297  12.671  1.00  0.00    -0.360 OA
ATOM      8  HO  UNL     1      15.470  16.605  12.953  1.00  0.00     0.213 HD
ENDBRANCH   2   7
BRANCH   2   9
HETATM    9  O   UNL     1      18.160  17.631  13.314  1.00  0.00    -0.360 OA
ATOM     10  HO  UNL     1      18.468  18.445  12.931  1.00  0.00     0.213 HD
ENDBRANCH   2   9
BRANCH   5  11
HETATM   11  N   UNL     1      16.054  15.786  14.911  1.00  0.00    -0.398 N 
ATOM     12  HN2 UNL     1      16.329  14.985  15.481  1.00  0.00     0.156 HD
ATOM     13  HN1 UNL     1      15.297  15.646  14.242  1.00  0.00     0.156 HD
ENDBRANCH   5  11
BRANCH   3  14
HETATM   14  O   UNL     1      17.668  20.950  15.224  1.00  0.00    -0.365 OA
ATOM     15  HO  UNL     1      17.451  21.527  14.502  1.00  0.00     0.217 HD
ENDBRANCH   3  14
TORSDOF 4
ENDMDL
MODEL 8
REMARK VINA RESULT:      -4.0      2.311      2.844
REMARK  4 active torsions:
REMARK  status: ('A' for Active; 'I' for Inactive)
REMARK    1  A    between atoms: N_2  and  C_14 
REMARK    2  A    between atoms: C_5  and  O_6 
REMARK    3  A    between atoms: C_5  and  O_9 
REMARK    4  A    between atoms: C_8  and  O_11 
ROOT
HETATM    1  C   UNL     1      12.865  13.429  13.927  1.00  0.00     0.139 C 
HETATM    2  C   UNL     1      14.153  14.064  13.488  1.00  0.00     0.209 C 
HETATM    3  C   UNL     1      11.881  13.396  12.896  1.00  0.00     0.049 C 
HETATM    4  C   UNL     1      12.740  15.454  11.972  1.00  0.00     0.032 C 
HETATM    5  C   UNL     1      13.864  15.395  12.776  1.00  0.00     0.065 C 
HETATM    6  C   UNL     1      11.789  14.435  11.978  1.00  0.00     0.034 C 
ENDROOT
BRANCH   2   7
HETATM    7  O   UNL     1      15.035  14.260  14.577  1.00  0.00    -0.360 OA
ATOM      8  HO  UNL     1      15.759  14.828  14.343  1.00  0.00     0.213 HD
ENDBRANCH   2   7
BRANCH   2   9
HETATM    9  O   UNL     1      14.835  13.198  12.631  1.00  0.00    -0.360 OA
ATOM     10  HO  UNL     1      15.745  13.136  12.897  1.00  0.00     0.213 HD
ENDBRANCH   2   9
BRANCH   5  11
HETATM   11  N   UNL     1      14.657  16.399  12.970  1.00  0.00    -0.398 N 
ATOM     12  HN2 UNL     1      15.224  16.514  13.811  1.00  0.00     0.156 HD
ATOM     13  HN1 UNL     1      14.743  17.112  12.247  1.00  0.00     0.156 HD
ENDBRANCH   5  11
BRANCH   3  14
HETATM   14  O   UNL     1      11.077  12.333  12.820  1.00  0.00    -0.365 OA
ATOM     15  HO  UNL     1      11.357  11.592  12.295  1.00  0.00     0.217 HD
ENDBRANCH   3  14
TORSDOF 4
ENDMDL
MODEL 9
REMARK VINA RESULT:      -3.9      2.340      3.277
REMARK  4 active torsions:
REMARK  status: ('A' for Active; 'I' for Inactive)
REMARK    1  A    between atoms: N_2  and  C_14 
REMARK    2  A    between atoms: C_5  and  O_6 
REMARK    3  A    between atoms: C_5  and  O_9 
REMARK    4  A    between atoms: C_8  and  O_11 
ROOT
HETATM    1  C   UNL     1      12.949  14.778  14.581  1.00  0.00     0.139 C 
HETATM    2  C   UNL     1      13.436  14.577  13.175  1.00  0.00     0.209 C 
HETATM    3  C   UNL     1      11.647  14.240  14.802  1.00  0.00     0.049 C 
HETATM    4  C   UNL     1      11.033  14.717  12.516  1.00  0.00     0.032 C 
HETATM    5  C   UNL     1      12.345  14.998  12.178  1.00  0.00     0.065 C 
HETATM    6  C   UNL     1      10.691  14.277  13.793  1.00  0.00     0.034 C 
ENDROOT
BRANCH   2   7
HETATM    7  O   UNL     1      14.636  15.286  12.933  1.00  0.00    -0.360 OA
ATOM      8  HO  UNL     1      15.250  14.771  12.422  1.00  0.00     0.213 HD
ENDBRANCH   2   7
BRANCH   2   9
HETATM    9  O   UNL     1      13.772  13.236  12.982  1.00  0.00    -0.360 OA
ATOM     10  HO  UNL     1      13.486  12.723  13.729  1.00  0.00     0.213 HD
ENDBRANCH   2   9
BRANCH   5  11
HETATM   11  N   UNL     1      12.686  15.610  11.090  1.00  0.00    -0.398 N 
ATOM     12  HN2 UNL     1      13.653  15.827  10.846  1.00  0.00     0.156 HD
ATOM     13  HN1 UNL     1      11.964  15.880  10.423  1.00  0.00     0.156 HD
ENDBRANCH   5  11
BRANCH   3  14
HETATM   14  O   UNL     1      11.385  13.678  15.984  1.00  0.00    -0.365 OA
ATOM     15  HO  UNL     1      11.936  13.904  16.723  1.00  0.00     0.217 HD
ENDBRANCH   3  14
TORSDOF 4
ENDMDL
