REMARK  3 active torsions:
REMARK  status: ('A' for Active; 'I' for Inactive)
REMARK    1  A    between atoms: C_9  and  O_26 
REMARK    2  A    between atoms: C_10  and  C_25 
REMARK    3  A    between atoms: N_12  and  C_25 
ROOT
HETATM    1  C   UNL     1      -9.824  31.802   9.553  1.00  0.00     0.183 C 
HETATM    2  C   UNL     1      -9.527  29.033  12.005  1.00  0.00     0.079 C 
HETATM    3  C   UNL     1     -10.295  32.877  10.322  1.00  0.00     0.056 C 
HETATM    4  C   UNL     1      -9.368  30.641  10.247  1.00  0.00     0.034 C 
HETATM    5  C   UNL     1      -7.148  27.028   9.755  1.00  0.00     0.017 A 
HETATM    6  C   UNL     1      -6.047  28.074   7.725  1.00  0.00     0.147 C 
HETATM    7  C   UNL     1     -10.621  32.705  11.659  1.00  0.00     0.005 C 
HETATM    8  N   UNL     1      -7.164  30.007   7.748  1.00  0.00    -0.285 N 
HETATM    9  C   UNL     1      -7.036  27.963   8.730  1.00  0.00     0.031 A 
HETATM   10  C   UNL     1      -7.980  27.321  10.828  1.00  0.00     0.009 A 
HETATM   11  C   UNL     1      -7.711  29.205   8.775  1.00  0.00     0.067 A 
HETATM   12  C   UNL     1     -10.469  31.454  12.245  1.00  0.00     0.008 C 
HETATM   13  C   UNL     1      -5.926  29.474   7.516  1.00  0.00     0.286 C 
HETATM   14  O   UNL     1      -9.911  31.817   8.269  1.00  0.00    -0.288 OA
HETATM   15  C   UNL     1      -8.552  29.495   9.865  1.00  0.00     0.013 A 
HETATM   16  C   UNL     1      -8.716  28.504  10.850  1.00  0.00    -0.040 A 
HETATM   17  C   UNL     1      -9.826  30.427  11.562  1.00  0.00    -0.039 C 
HETATM   18  O   UNL     1      -4.860  30.123   7.340  1.00  0.00    -0.265 OA
ENDROOT
BRANCH   8  19
HETATM   19  C   UNL     1      -7.923  30.698   6.702  1.00  0.00     0.108 C 
BRANCH  19  20
HETATM   20  C   UNL     1      -7.464  31.986   6.100  1.00  0.00    -0.038 C 
HETATM   21  C   UNL     1      -6.075  32.425   5.878  1.00  0.00     0.074 C 
HETATM   22  C   UNL     1      -6.226  33.746   5.375  1.00  0.00    -0.069 C 
HETATM   23  C   UNL     1      -7.598  34.098   5.303  1.00  0.00    -0.055 C 
HETATM   24  C   UNL     1      -5.404  34.683   4.541  1.00  0.00     0.035 C 
HETATM   25  C   UNL     1      -7.722  35.447   4.688  1.00  0.00     0.039 C 
HETATM   26  C   UNL     1      -8.359  32.977   5.662  1.00  0.00     0.016 C 
HETATM   27  C   UNL     1      -6.319  35.869   4.257  1.00  0.00     0.009 C 
ENDBRANCH  19  20
ENDBRANCH   8  19
BRANCH   6  28
HETATM   28  O   UNL     1      -5.476  27.122   7.023  1.00  0.00    -0.355 OA
ATOM     29  HO  UNL     1      -4.812  27.197   6.348  1.00  0.00     0.218 HD
ENDBRANCH   6  28
TORSDOF 3
