REMARK  5 active torsions:
REMARK  status: ('A' for Active; 'I' for Inactive)
REMARK    1  A    between atoms: C_4  and  N_29 
REMARK    2  A    between atoms: C_6  and  C_25 
REMARK    3  A    between atoms: C_8  and  C_25 
REMARK    4  A    between atoms: C_12  and  O_16 
REMARK    5  A    between atoms: O_20  and  C_23 
ROOT
HETATM    1  O   UNL     1       3.959  84.754  44.366  1.00  0.00    -0.267 OA
HETATM    2  C   UNL     1       7.343  85.480  43.580  1.00  0.00     0.102 C 
HETATM    3  C   UNL     1       5.384  82.782  47.618  1.00  0.00     0.038 C 
HETATM    4  C   UNL     1       5.939  81.257  45.815  1.00  0.00    -0.028 C 
HETATM    5  C   UNL     1       5.805  84.039  45.536  1.00  0.00     0.039 C 
HETATM    6  C   UNL     1       5.383  83.924  46.847  1.00  0.00     0.020 C 
HETATM    7  C   UNL     1       6.900  83.344  45.015  1.00  0.00    -0.040 C 
HETATM    8  C   UNL     1       5.740  81.527  47.177  1.00  0.00     0.071 C 
HETATM    9  C   UNL     1       5.027  80.262  45.155  1.00  0.00     0.051 C 
HETATM   10  C   UNL     1       5.144  84.882  44.569  1.00  0.00     0.259 C 
HETATM   11  N   UNL     1       5.907  85.760  43.865  1.00  0.00    -0.306 N 
HETATM   12  C   UNL     1       7.846  84.133  44.140  1.00  0.00     0.065 C 
HETATM   13  C   UNL     1       6.934  81.951  45.115  1.00  0.00     0.017 C 
ENDROOT
BRANCH   2  14
HETATM   14  C   UNL     1       8.260  86.583  44.154  1.00  0.00     0.067 C 
BRANCH  14  15
HETATM   15  C   UNL     1       8.846  87.535  43.141  1.00  0.00    -0.023 C 
HETATM   16  C   UNL     1      10.055  87.256  42.481  1.00  0.00     0.072 C 
HETATM   17  C   UNL     1      10.282  87.780  41.213  1.00  0.00     0.037 C 
HETATM   18  C   UNL     1       9.592  88.930  40.851  1.00  0.00     0.003 C 
HETATM   19  C   UNL     1       8.633  89.470  41.708  1.00  0.00     0.001 C 
HETATM   20  C   UNL     1       8.204  88.741  42.818  1.00  0.00     0.010 C 
BRANCH  16  21
HETATM   21  O   UNL     1      11.056  86.601  43.111  1.00  0.00    -0.360 OA
ATOM     22  HO  UNL     1      10.901  86.243  43.977  1.00  0.00     0.217 HD
ENDBRANCH  16  21
ENDBRANCH  14  15
ENDBRANCH   2  14
BRANCH  11  23
HETATM   23  C   UNL     1       5.303  86.976  43.503  1.00  0.00     0.061 A 
HETATM   24  C   UNL     1       4.839  87.980  44.358  1.00  0.00     0.032 A 
HETATM   25  N   UNL     1       4.341  88.980  43.603  1.00  0.00    -0.368 N 
HETATM   26  C   UNL     1       4.881  87.980  45.857  1.00  0.00     0.070 C 
HETATM   27  C   UNL     1       4.481  88.646  42.291  1.00  0.00     0.090 A 
ATOM     28  HN  UNL     1       3.928  89.843  43.956  1.00  0.00     0.165 HD
HETATM   29  C   UNL     1       5.048  87.384  42.189  1.00  0.00     0.049 A 
ENDBRANCH  11  23
BRANCH   8  30
HETATM   30  O   UNL     1       5.828  80.503  48.057  1.00  0.00    -0.360 OA
ATOM     31  HO  UNL     1       6.074  79.637  47.753  1.00  0.00     0.217 HD
ENDBRANCH   8  30
TORSDOF 5
