MODEL 1
REMARK VINA RESULT:      -7.1      0.000      0.000
REMARK  7 active torsions:
REMARK  status: ('A' for Active; 'I' for Inactive)
REMARK    1  A    between atoms: C_5  and  C_9 
REMARK    2  A    between atoms: O_6  and  C_11 
REMARK    3  A    between atoms: C_8  and  C_9 
REMARK    4  A    between atoms: C_8  and  N_17 
REMARK    5  A    between atoms: C_9  and  O_23 
REMARK    6  A    between atoms: C_10  and  N_17 
REMARK    7  A    between atoms: N_17  and  P_21 
ROOT
HETATM    1  N   UNL     1     377.774 153.026  62.376  1.00  0.00    -0.225 N 
ENDROOT
BRANCH   1   2
HETATM    2  C   UNL     1     376.913 151.984  61.997  1.00  0.00     0.118 C 
HETATM    3  N   UNL     1     377.372 150.767  61.837  1.00  0.00    -0.386 N 
ATOM      4  HN2 UNL     1     376.746 150.010  61.561  1.00  0.00     0.157 HD
ATOM      5  HN1 UNL     1     378.375 150.642  61.981  1.00  0.00     0.157 HD
BRANCH   2   6
HETATM    6  C   UNL     1     375.396 152.173  61.779  1.00  0.00     0.189 C 
BRANCH   6   7
HETATM    7  C   UNL     1     374.886 152.580  60.405  1.00  0.00     0.014 C 
HETATM    8  C   UNL     1     373.567 153.313  60.554  1.00  0.00     0.012 C 
HETATM    9  C   UNL     1     375.915 153.326  59.546  1.00  0.00     0.012 C 
ENDBRANCH   6   7
BRANCH   6  10
HETATM   10  O   UNL     1     374.681 151.099  62.357  1.00  0.00    -0.388 OA
ATOM     11  HO  UNL     1     374.765 151.048  63.302  1.00  0.00     0.210 HD
ENDBRANCH   6  10
ENDBRANCH   2   6
ENDBRANCH   1   2
BRANCH   1  12
HETATM   12  C   UNL     1     377.419 153.943  63.387  1.00  0.00     0.063 C 
HETATM   13  C   UNL     1     376.655 155.038  63.032  1.00  0.00     0.117 C 
HETATM   14  N   UNL     1     376.633 156.337  63.320  1.00  0.00    -0.370 N 
HETATM   15  C   UNL     1     377.468 156.890  64.206  1.00  0.00     0.124 C 
ATOM     16  HN  UNL     1     375.953 156.933  62.847  1.00  0.00     0.164 HD
HETATM   17  C   UNL     1     378.491 156.144  64.775  1.00  0.00     0.081 C 
HETATM   18  C   UNL     1     378.273 154.930  65.403  1.00  0.00     0.040 C 
HETATM   19  C   UNL     1     377.813 153.803  64.730  1.00  0.00     0.034 C 
BRANCH  17  20
HETATM   20  O   UNL     1     379.773 156.587  64.621  1.00  0.00    -0.359 OA
ATOM     21  HO  UNL     1     380.144 157.134  65.304  1.00  0.00     0.217 HD
ENDBRANCH  17  20
ENDBRANCH   1  12
BRANCH   1  22
HETATM   22  P   UNL     1     379.359 152.917  61.856  1.00  0.00     0.384 P 
HETATM   23  O   UNL     1     379.351 152.653  60.388  1.00  0.00    -0.622 OA
HETATM   24  O   UNL     1     380.027 154.224  62.134  1.00  0.00    -0.622 OA
HETATM   25  O   UNL     1     380.061 151.818  62.598  1.00  0.00    -0.622 OA
ENDBRANCH   1  22
TORSDOF 7
ENDMDL
MODEL 2
REMARK VINA RESULT:      -7.0      2.139      3.771
REMARK  7 active torsions:
REMARK  status: ('A' for Active; 'I' for Inactive)
REMARK    1  A    between atoms: C_5  and  C_9 
REMARK    2  A    between atoms: O_6  and  C_11 
REMARK    3  A    between atoms: C_8  and  C_9 
REMARK    4  A    between atoms: C_8  and  N_17 
REMARK    5  A    between atoms: C_9  and  O_23 
REMARK    6  A    between atoms: C_10  and  N_17 
REMARK    7  A    between atoms: N_17  and  P_21 
ROOT
HETATM    1  N   UNL     1     376.525 153.552  61.922  1.00  0.00    -0.225 N 
ENDROOT
BRANCH   1   2
HETATM    2  C   UNL     1     377.594 153.356  61.033  1.00  0.00     0.118 C 
HETATM    3  N   UNL     1     377.494 153.730  59.780  1.00  0.00    -0.386 N 
ATOM      4  HN2 UNL     1     378.271 153.588  59.135  1.00  0.00     0.157 HD
ATOM      5  HN1 UNL     1     376.601 154.139  59.503  1.00  0.00     0.157 HD
BRANCH   2   6
HETATM    6  C   UNL     1     378.945 152.738  61.452  1.00  0.00     0.189 C 
BRANCH   6   7
HETATM    7  C   UNL     1     379.240 151.287  61.106  1.00  0.00     0.014 C 
HETATM    8  C   UNL     1     380.611 150.910  61.634  1.00  0.00     0.012 C 
HETATM    9  C   UNL     1     378.131 150.305  61.507  1.00  0.00     0.012 C 
ENDBRANCH   6   7
BRANCH   6  10
HETATM   10  O   UNL     1     380.005 153.623  61.147  1.00  0.00    -0.388 OA
ATOM     11  HO  UNL     1     379.779 154.281  60.499  1.00  0.00     0.210 HD
ENDBRANCH   6  10
ENDBRANCH   2   6
ENDBRANCH   1   2
BRANCH   1  12
HETATM   12  C   UNL     1     376.692 154.264  63.128  1.00  0.00     0.063 C 
HETATM   13  C   UNL     1     376.337 155.599  63.149  1.00  0.00     0.117 C 
HETATM   14  N   UNL     1     376.837 156.726  63.650  1.00  0.00    -0.370 N 
HETATM   15  C   UNL     1     377.944 156.748  64.401  1.00  0.00     0.124 C 
ATOM     16  HN  UNL     1     376.358 157.605  63.455  1.00  0.00     0.164 HD
HETATM   17  C   UNL     1     378.697 155.597  64.585  1.00  0.00     0.081 C 
HETATM   18  C   UNL     1     378.150 154.406  65.031  1.00  0.00     0.040 C 
HETATM   19  C   UNL     1     377.211 153.686  64.300  1.00  0.00     0.034 C 
BRANCH  17  20
HETATM   20  O   UNL     1     380.012 155.623  64.218  1.00  0.00    -0.359 OA
ATOM     21  HO  UNL     1     380.621 156.104  64.766  1.00  0.00     0.217 HD
ENDBRANCH  17  20
ENDBRANCH   1  12
BRANCH   1  22
HETATM   22  P   UNL     1     374.992 153.237  61.334  1.00  0.00     0.384 P 
HETATM   23  O   UNL     1     375.061 152.012  60.484  1.00  0.00    -0.622 OA
HETATM   24  O   UNL     1     374.090 152.997  62.500  1.00  0.00    -0.622 OA
HETATM   25  O   UNL     1     374.502 154.414  60.544  1.00  0.00    -0.622 OA
ENDBRANCH   1  22
TORSDOF 7
ENDMDL
MODEL 3
REMARK VINA RESULT:      -7.0      2.387      4.665
REMARK  7 active torsions:
REMARK  status: ('A' for Active; 'I' for Inactive)
REMARK    1  A    between atoms: C_5  and  C_9 
REMARK    2  A    between atoms: O_6  and  C_11 
REMARK    3  A    between atoms: C_8  and  C_9 
REMARK    4  A    between atoms: C_8  and  N_17 
REMARK    5  A    between atoms: C_9  and  O_23 
REMARK    6  A    between atoms: C_10  and  N_17 
REMARK    7  A    between atoms: N_17  and  P_21 
ROOT
HETATM    1  N   UNL     1     378.042 154.937  63.634  1.00  0.00    -0.225 N 
ENDROOT
BRANCH   1   2
HETATM    2  C   UNL     1     378.726 153.714  63.709  1.00  0.00     0.118 C 
HETATM    3  N   UNL     1     378.640 152.969  64.785  1.00  0.00    -0.386 N 
ATOM      4  HN2 UNL     1     379.138 152.080  64.839  1.00  0.00     0.157 HD
ATOM      5  HN1 UNL     1     378.075 153.345  65.547  1.00  0.00     0.157 HD
BRANCH   2   6
HETATM    6  C   UNL     1     379.581 153.147  62.555  1.00  0.00     0.189 C 
BRANCH   6   7
HETATM    7  C   UNL     1     379.178 151.831  61.908  1.00  0.00     0.014 C 
HETATM    8  C   UNL     1     378.652 152.096  60.510  1.00  0.00     0.012 C 
HETATM    9  C   UNL     1     380.258 150.742  61.966  1.00  0.00     0.012 C 
ENDBRANCH   6   7
BRANCH   6  10
HETATM   10  O   UNL     1     379.888 154.168  61.627  1.00  0.00    -0.388 OA
ATOM     11  HO  UNL     1     380.596 154.737  61.905  1.00  0.00     0.210 HD
ENDBRANCH   6  10
ENDBRANCH   2   6
ENDBRANCH   1   2
BRANCH   1  12
HETATM   12  C   UNL     1     376.869 155.078  62.862  1.00  0.00     0.063 C 
HETATM   13  C   UNL     1     375.960 154.038  62.867  1.00  0.00     0.117 C 
HETATM   14  N   UNL     1     375.203 153.410  61.970  1.00  0.00    -0.370 N 
HETATM   15  C   UNL     1     375.149 153.787  60.687  1.00  0.00     0.124 C 
ATOM     16  HN  UNL     1     374.645 152.611  62.271  1.00  0.00     0.164 HD
HETATM   17  C   UNL     1     375.987 154.782  60.207  1.00  0.00     0.081 C 
HETATM   18  C   UNL     1     376.088 156.029  60.800  1.00  0.00     0.040 C 
HETATM   19  C   UNL     1     376.589 156.215  62.084  1.00  0.00     0.034 C 
BRANCH  17  20
HETATM   20  O   UNL     1     376.813 154.480  59.162  1.00  0.00    -0.359 OA
ATOM     21  HO  UNL     1     377.426 153.762  59.269  1.00  0.00     0.217 HD
ENDBRANCH  17  20
ENDBRANCH   1  12
BRANCH   1  22
HETATM   22  P   UNL     1     378.450 156.098  64.765  1.00  0.00     0.384 P 
HETATM   23  O   UNL     1     378.285 155.503  66.124  1.00  0.00    -0.622 OA
HETATM   24  O   UNL     1     379.879 156.476  64.545  1.00  0.00    -0.622 OA
HETATM   25  O   UNL     1     377.572 157.302  64.594  1.00  0.00    -0.622 OA
ENDBRANCH   1  22
TORSDOF 7
ENDMDL
MODEL 4
REMARK VINA RESULT:      -7.0      2.429      4.585
REMARK  7 active torsions:
REMARK  status: ('A' for Active; 'I' for Inactive)
REMARK    1  A    between atoms: C_5  and  C_9 
REMARK    2  A    between atoms: O_6  and  C_11 
REMARK    3  A    between atoms: C_8  and  C_9 
REMARK    4  A    between atoms: C_8  and  N_17 
REMARK    5  A    between atoms: C_9  and  O_23 
REMARK    6  A    between atoms: C_10  and  N_17 
REMARK    7  A    between atoms: N_17  and  P_21 
ROOT
HETATM    1  N   UNL     1     378.109 155.118  63.938  1.00  0.00    -0.225 N 
ENDROOT
BRANCH   1   2
HETATM    2  C   UNL     1     377.101 155.922  63.383  1.00  0.00     0.118 C 
HETATM    3  N   UNL     1     376.697 157.004  64.003  1.00  0.00    -0.386 N 
ATOM      4  HN2 UNL     1     375.965 157.588  63.600  1.00  0.00     0.157 HD
ATOM      5  HN1 UNL     1     377.139 157.198  64.902  1.00  0.00     0.157 HD
BRANCH   2   6
HETATM    6  C   UNL     1     376.432 155.627  62.023  1.00  0.00     0.189 C 
BRANCH   6   7
HETATM    7  C   UNL     1     374.916 155.656  61.917  1.00  0.00     0.014 C 
HETATM    8  C   UNL     1     374.512 156.381  60.648  1.00  0.00     0.012 C 
HETATM    9  C   UNL     1     374.245 154.286  62.086  1.00  0.00     0.012 C 
ENDBRANCH   6   7
BRANCH   6  10
HETATM   10  O   UNL     1     377.089 156.336  60.991  1.00  0.00    -0.388 OA
ATOM     11  HO  UNL     1     377.174 157.267  61.160  1.00  0.00     0.210 HD
ENDBRANCH   6  10
ENDBRANCH   2   6
ENDBRANCH   1   2
BRANCH   1  12
HETATM   12  C   UNL     1     378.454 153.873  63.370  1.00  0.00     0.063 C 
HETATM   13  C   UNL     1     379.408 153.857  62.371  1.00  0.00     0.117 C 
HETATM   14  N   UNL     1     379.579 153.239  61.204  1.00  0.00    -0.370 N 
HETATM   15  C   UNL     1     378.720 152.321  60.747  1.00  0.00     0.124 C 
ATOM     16  HN  UNL     1     380.394 153.474  60.639  1.00  0.00     0.164 HD
HETATM   17  C   UNL     1     377.534 152.064  61.420  1.00  0.00     0.081 C 
HETATM   18  C   UNL     1     377.488 151.758  62.769  1.00  0.00     0.040 C 
HETATM   19  C   UNL     1     377.867 152.657  63.761  1.00  0.00     0.034 C 
BRANCH  17  20
HETATM   20  O   UNL     1     376.361 152.216  60.738  1.00  0.00    -0.359 OA
ATOM     21  HO  UNL     1     376.397 152.575  59.858  1.00  0.00     0.217 HD
ENDBRANCH  17  20
ENDBRANCH   1  12
BRANCH   1  22
HETATM   22  P   UNL     1     379.120 155.843  65.054  1.00  0.00     0.384 P 
HETATM   23  O   UNL     1     378.359 156.021  66.325  1.00  0.00    -0.622 OA
HETATM   24  O   UNL     1     380.285 154.936  65.282  1.00  0.00    -0.622 OA
HETATM   25  O   UNL     1     379.597 157.162  64.523  1.00  0.00    -0.622 OA
ENDBRANCH   1  22
TORSDOF 7
ENDMDL
MODEL 5
REMARK VINA RESULT:      -6.9      2.684      5.243
REMARK  7 active torsions:
REMARK  status: ('A' for Active; 'I' for Inactive)
REMARK    1  A    between atoms: C_5  and  C_9 
REMARK    2  A    between atoms: O_6  and  C_11 
REMARK    3  A    between atoms: C_8  and  C_9 
REMARK    4  A    between atoms: C_8  and  N_17 
REMARK    5  A    between atoms: C_9  and  O_23 
REMARK    6  A    between atoms: C_10  and  N_17 
REMARK    7  A    between atoms: N_17  and  P_21 
ROOT
HETATM    1  N   UNL     1     377.163 154.359  62.349  1.00  0.00    -0.225 N 
ENDROOT
BRANCH   1   2
HETATM    2  C   UNL     1     378.126 153.868  63.246  1.00  0.00     0.118 C 
HETATM    3  N   UNL     1     377.948 153.981  64.540  1.00  0.00    -0.386 N 
ATOM      4  HN2 UNL     1     378.648 153.625  65.191  1.00  0.00     0.157 HD
ATOM      5  HN1 UNL     1     377.096 154.458  64.836  1.00  0.00     0.157 HD
BRANCH   2   6
HETATM    6  C   UNL     1     379.415 153.148  62.796  1.00  0.00     0.189 C 
BRANCH   6   7
HETATM    7  C   UNL     1     379.453 151.627  62.785  1.00  0.00     0.014 C 
HETATM    8  C   UNL     1     379.830 151.142  61.399  1.00  0.00     0.012 C 
HETATM    9  C   UNL     1     380.296 151.009  63.908  1.00  0.00     0.012 C 
ENDBRANCH   6   7
BRANCH   6  10
HETATM   10  O   UNL     1     379.920 153.739  61.615  1.00  0.00    -0.388 OA
ATOM     11  HO  UNL     1     379.348 153.639  60.863  1.00  0.00     0.210 HD
ENDBRANCH   6  10
ENDBRANCH   2   6
ENDBRANCH   1   2
BRANCH   1  12
HETATM   12  C   UNL     1     376.365 153.489  61.577  1.00  0.00     0.063 C 
HETATM   13  C   UNL     1     376.424 153.602  60.202  1.00  0.00     0.117 C 
HETATM   14  N   UNL     1     375.558 153.579  59.191  1.00  0.00    -0.370 N 
HETATM   15  C   UNL     1     374.253 153.347  59.369  1.00  0.00     0.124 C 
ATOM     16  HN  UNL     1     375.903 153.745  58.245  1.00  0.00     0.164 HD
HETATM   17  C   UNL     1     373.721 153.245  60.646  1.00  0.00     0.081 C 
HETATM   18  C   UNL     1     374.231 152.387  61.606  1.00  0.00     0.040 C 
HETATM   19  C   UNL     1     375.508 152.525  62.139  1.00  0.00     0.034 C 
BRANCH  17  20
HETATM   20  O   UNL     1     372.712 154.098  60.994  1.00  0.00    -0.359 OA
ATOM     21  HO  UNL     1     372.343 154.024  61.866  1.00  0.00     0.217 HD
ENDBRANCH  17  20
ENDBRANCH   1  12
BRANCH   1  22
HETATM   22  P   UNL     1     376.747 155.971  62.501  1.00  0.00     0.384 P 
HETATM   23  O   UNL     1     375.316 156.046  62.919  1.00  0.00    -0.622 OA
HETATM   24  O   UNL     1     377.617 156.576  63.555  1.00  0.00    -0.622 OA
HETATM   25  O   UNL     1     376.964 156.675  61.194  1.00  0.00    -0.622 OA
ENDBRANCH   1  22
TORSDOF 7
ENDMDL
MODEL 6
REMARK VINA RESULT:      -6.9      2.482      3.950
REMARK  7 active torsions:
REMARK  status: ('A' for Active; 'I' for Inactive)
REMARK    1  A    between atoms: C_5  and  C_9 
REMARK    2  A    between atoms: O_6  and  C_11 
REMARK    3  A    between atoms: C_8  and  C_9 
REMARK    4  A    between atoms: C_8  and  N_17 
REMARK    5  A    between atoms: C_9  and  O_23 
REMARK    6  A    between atoms: C_10  and  N_17 
REMARK    7  A    between atoms: N_17  and  P_21 
ROOT
HETATM    1  N   UNL     1     377.691 152.963  61.708  1.00  0.00    -0.225 N 
ENDROOT
BRANCH   1   2
HETATM    2  C   UNL     1     377.159 153.727  60.657  1.00  0.00     0.118 C 
HETATM    3  N   UNL     1     377.300 153.336  59.414  1.00  0.00    -0.386 N 
ATOM      4  HN2 UNL     1     376.914 153.891  58.650  1.00  0.00     0.157 HD
ATOM      5  HN1 UNL     1     377.829 152.475  59.270  1.00  0.00     0.157 HD
BRANCH   2   6
HETATM    6  C   UNL     1     376.360 155.029  60.875  1.00  0.00     0.189 C 
BRANCH   6   7
HETATM    7  C   UNL     1     374.939 154.951  61.411  1.00  0.00     0.014 C 
HETATM    8  C   UNL     1     374.283 156.314  61.305  1.00  0.00     0.012 C 
HETATM    9  C   UNL     1     374.101 153.813  60.814  1.00  0.00     0.012 C 
ENDBRANCH   6   7
BRANCH   6  10
HETATM   10  O   UNL     1     377.163 155.993  61.527  1.00  0.00    -0.388 OA
ATOM     11  HO  UNL     1     376.665 156.651  61.998  1.00  0.00     0.210 HD
ENDBRANCH   6  10
ENDBRANCH   2   6
ENDBRANCH   1   2
BRANCH   1  12
HETATM   12  C   UNL     1     376.899 152.037  62.419  1.00  0.00     0.063 C 
HETATM   13  C   UNL     1     376.418 152.410  63.659  1.00  0.00     0.117 C 
HETATM   14  N   UNL     1     376.274 151.840  64.853  1.00  0.00    -0.370 N 
HETATM   15  C   UNL     1     376.578 150.557  65.077  1.00  0.00     0.124 C 
ATOM     16  HN  UNL     1     375.918 152.403  65.626  1.00  0.00     0.164 HD
HETATM   17  C   UNL     1     377.185 149.792  64.091  1.00  0.00     0.081 C 
HETATM   18  C   UNL     1     376.674 149.678  62.809  1.00  0.00     0.040 C 
HETATM   19  C   UNL     1     376.587 150.754  61.933  1.00  0.00     0.034 C 
BRANCH  17  20
HETATM   20  O   UNL     1     378.385 149.206  64.377  1.00  0.00    -0.359 OA
ATOM     21  HO  UNL     1     378.786 149.395  65.218  1.00  0.00     0.217 HD
ENDBRANCH  17  20
ENDBRANCH   1  12
BRANCH   1  22
HETATM   22  P   UNL     1     379.357 152.921  61.838  1.00  0.00     0.384 P 
HETATM   23  O   UNL     1     379.923 152.632  60.488  1.00  0.00    -0.622 OA
HETATM   24  O   UNL     1     379.818 154.263  62.307  1.00  0.00    -0.622 OA
HETATM   25  O   UNL     1     379.761 151.869  62.828  1.00  0.00    -0.622 OA
ENDBRANCH   1  22
TORSDOF 7
ENDMDL
MODEL 7
REMARK VINA RESULT:      -6.9      2.024      4.057
REMARK  7 active torsions:
REMARK  status: ('A' for Active; 'I' for Inactive)
REMARK    1  A    between atoms: C_5  and  C_9 
REMARK    2  A    between atoms: O_6  and  C_11 
REMARK    3  A    between atoms: C_8  and  C_9 
REMARK    4  A    between atoms: C_8  and  N_17 
REMARK    5  A    between atoms: C_9  and  O_23 
REMARK    6  A    between atoms: C_10  and  N_17 
REMARK    7  A    between atoms: N_17  and  P_21 
ROOT
HETATM    1  N   UNL     1     377.804 153.204  62.364  1.00  0.00    -0.225 N 
ENDROOT
BRANCH   1   2
HETATM    2  C   UNL     1     377.173 152.878  63.575  1.00  0.00     0.118 C 
HETATM    3  N   UNL     1     377.316 153.647  64.627  1.00  0.00    -0.386 N 
ATOM      4  HN2 UNL     1     376.857 153.410  65.507  1.00  0.00     0.157 HD
ATOM      5  HN1 UNL     1     377.919 154.462  64.510  1.00  0.00     0.157 HD
BRANCH   2   6
HETATM    6  C   UNL     1     376.260 151.645  63.752  1.00  0.00     0.189 C 
BRANCH   6   7
HETATM    7  C   UNL     1     376.782 150.271  63.364  1.00  0.00     0.014 C 
HETATM    8  C   UNL     1     376.416 149.269  64.443  1.00  0.00     0.012 C 
HETATM    9  C   UNL     1     376.393 149.825  61.949  1.00  0.00     0.012 C 
ENDBRANCH   6   7
BRANCH   6  10
HETATM   10  O   UNL     1     375.632 151.680  65.018  1.00  0.00    -0.388 OA
ATOM     11  HO  UNL     1     375.386 150.823  65.348  1.00  0.00     0.210 HD
ENDBRANCH   6  10
ENDBRANCH   2   6
ENDBRANCH   1   2
BRANCH   1  12
HETATM   12  C   UNL     1     377.100 153.830  61.313  1.00  0.00     0.063 C 
HETATM   13  C   UNL     1     376.872 155.189  61.403  1.00  0.00     0.117 C 
HETATM   14  N   UNL     1     375.862 156.020  61.155  1.00  0.00    -0.370 N 
HETATM   15  C   UNL     1     374.704 155.604  60.630  1.00  0.00     0.124 C 
ATOM     16  HN  UNL     1     375.975 157.010  61.374  1.00  0.00     0.164 HD
HETATM   17  C   UNL     1     374.459 154.252  60.438  1.00  0.00     0.081 C 
HETATM   18  C   UNL     1     375.326 153.423  59.746  1.00  0.00     0.040 C 
HETATM   19  C   UNL     1     376.613 153.137  60.191  1.00  0.00     0.034 C 
BRANCH  17  20
HETATM   20  O   UNL     1     373.363 153.704  61.041  1.00  0.00    -0.359 OA
ATOM     21  HO  UNL     1     373.067 154.082  61.862  1.00  0.00     0.217 HD
ENDBRANCH  17  20
ENDBRANCH   1  12
BRANCH   1  22
HETATM   22  P   UNL     1     379.475 153.162  62.352  1.00  0.00     0.384 P 
HETATM   23  O   UNL     1     379.977 154.473  62.858  1.00  0.00    -0.622 OA
HETATM   24  O   UNL     1     379.916 152.062  63.261  1.00  0.00    -0.622 OA
HETATM   25  O   UNL     1     379.964 152.900  60.958  1.00  0.00    -0.622 OA
ENDBRANCH   1  22
TORSDOF 7
ENDMDL
MODEL 8
REMARK VINA RESULT:      -6.8      1.979      4.521
REMARK  7 active torsions:
REMARK  status: ('A' for Active; 'I' for Inactive)
REMARK    1  A    between atoms: C_5  and  C_9 
REMARK    2  A    between atoms: O_6  and  C_11 
REMARK    3  A    between atoms: C_8  and  C_9 
REMARK    4  A    between atoms: C_8  and  N_17 
REMARK    5  A    between atoms: C_9  and  O_23 
REMARK    6  A    between atoms: C_10  and  N_17 
REMARK    7  A    between atoms: N_17  and  P_21 
ROOT
HETATM    1  N   UNL     1     377.713 152.353  61.916  1.00  0.00    -0.225 N 
ENDROOT
BRANCH   1   2
HETATM    2  C   UNL     1     378.127 153.579  62.463  1.00  0.00     0.118 C 
HETATM    3  N   UNL     1     379.188 154.191  61.994  1.00  0.00    -0.386 N 
ATOM      4  HN2 UNL     1     379.488 155.081  62.391  1.00  0.00     0.157 HD
ATOM      5  HN1 UNL     1     379.687 153.714  61.242  1.00  0.00     0.157 HD
BRANCH   2   6
HETATM    6  C   UNL     1     377.372 154.299  63.600  1.00  0.00     0.189 C 
BRANCH   6   7
HETATM    7  C   UNL     1     376.773 155.673  63.342  1.00  0.00     0.014 C 
HETATM    8  C   UNL     1     377.599 156.726  64.054  1.00  0.00     0.012 C 
HETATM    9  C   UNL     1     376.519 155.983  61.861  1.00  0.00     0.012 C 
ENDBRANCH   6   7
BRANCH   6  10
HETATM   10  O   UNL     1     376.488 153.404  64.244  1.00  0.00    -0.388 OA
ATOM     11  HO  UNL     1     376.300 153.634  65.147  1.00  0.00     0.210 HD
ENDBRANCH   6  10
ENDBRANCH   2   6
ENDBRANCH   1   2
BRANCH   1  12
HETATM   12  C   UNL     1     376.618 152.275  61.031  1.00  0.00     0.063 C 
HETATM   13  C   UNL     1     376.693 152.974  59.842  1.00  0.00     0.117 C 
HETATM   14  N   UNL     1     375.874 153.721  59.105  1.00  0.00    -0.370 N 
HETATM   15  C   UNL     1     374.590 153.910  59.428  1.00  0.00     0.124 C 
ATOM     16  HN  UNL     1     376.239 154.167  58.263  1.00  0.00     0.164 HD
HETATM   17  C   UNL     1     374.084 153.432  60.628  1.00  0.00     0.081 C 
HETATM   18  C   UNL     1     374.222 152.113  61.028  1.00  0.00     0.040 C 
HETATM   19  C   UNL     1     375.455 151.533  61.305  1.00  0.00     0.034 C 
BRANCH  17  20
HETATM   20  O   UNL     1     373.513 154.326  61.488  1.00  0.00    -0.359 OA
ATOM     21  HO  UNL     1     372.969 153.987  62.190  1.00  0.00     0.217 HD
ENDBRANCH  17  20
ENDBRANCH   1  12
BRANCH   1  22
HETATM   22  P   UNL     1     378.776 151.070  62.058  1.00  0.00     0.384 P 
HETATM   23  O   UNL     1     378.313 150.205  63.183  1.00  0.00    -0.622 OA
HETATM   24  O   UNL     1     378.744 150.300  60.778  1.00  0.00    -0.622 OA
HETATM   25  O   UNL     1     380.161 151.586  62.309  1.00  0.00    -0.622 OA
ENDBRANCH   1  22
TORSDOF 7
ENDMDL
MODEL 9
REMARK VINA RESULT:      -6.5      2.892      4.913
REMARK  7 active torsions:
REMARK  status: ('A' for Active; 'I' for Inactive)
REMARK    1  A    between atoms: C_5  and  C_9 
REMARK    2  A    between atoms: O_6  and  C_11 
REMARK    3  A    between atoms: C_8  and  C_9 
REMARK    4  A    between atoms: C_8  and  N_17 
REMARK    5  A    between atoms: C_9  and  O_23 
REMARK    6  A    between atoms: C_10  and  N_17 
REMARK    7  A    between atoms: N_17  and  P_21 
ROOT
HETATM    1  N   UNL     1     377.660 153.220  61.698  1.00  0.00    -0.225 N 
ENDROOT
BRANCH   1   2
HETATM    2  C   UNL     1     378.919 152.649  61.453  1.00  0.00     0.118 C 
HETATM    3  N   UNL     1     379.863 153.346  60.869  1.00  0.00    -0.386 N 
ATOM      4  HN2 UNL     1     380.778 152.931  60.691  1.00  0.00     0.157 HD
ATOM      5  HN1 UNL     1     379.615 154.297  60.593  1.00  0.00     0.157 HD
BRANCH   2   6
HETATM    6  C   UNL     1     379.294 151.211  61.870  1.00  0.00     0.189 C 
BRANCH   6   7
HETATM    7  C   UNL     1     378.989 150.742  63.284  1.00  0.00     0.014 C 
HETATM    8  C   UNL     1     377.920 149.668  63.240  1.00  0.00     0.012 C 
HETATM    9  C   UNL     1     380.228 150.348  64.099  1.00  0.00     0.012 C 
ENDBRANCH   6   7
BRANCH   6  10
HETATM   10  O   UNL     1     378.902 150.293  60.869  1.00  0.00    -0.388 OA
ATOM     11  HO  UNL     1     378.390 150.684  60.171  1.00  0.00     0.210 HD
ENDBRANCH   6  10
ENDBRANCH   2   6
ENDBRANCH   1   2
BRANCH   1  12
HETATM   12  C   UNL     1     376.510 152.791  61.003  1.00  0.00     0.063 C 
HETATM   13  C   UNL     1     376.315 153.259  59.718  1.00  0.00     0.117 C 
HETATM   14  N   UNL     1     375.290 153.704  58.994  1.00  0.00    -0.370 N 
HETATM   15  C   UNL     1     374.037 153.726  59.463  1.00  0.00     0.124 C 
ATOM     16  HN  UNL     1     375.466 154.040  58.048  1.00  0.00     0.164 HD
HETATM   17  C   UNL     1     373.771 153.400  60.785  1.00  0.00     0.081 C 
HETATM   18  C   UNL     1     374.205 152.223  61.370  1.00  0.00     0.040 C 
HETATM   19  C   UNL     1     375.551 151.925  61.558  1.00  0.00     0.034 C 
BRANCH  17  20
HETATM   20  O   UNL     1     373.135 154.327  61.561  1.00  0.00    -0.359 OA
ATOM     21  HO  UNL     1     372.214 154.492  61.398  1.00  0.00     0.217 HD
ENDBRANCH  17  20
ENDBRANCH   1  12
BRANCH   1  22
HETATM   22  P   UNL     1     377.512 154.149  63.079  1.00  0.00     0.384 P 
HETATM   23  O   UNL     1     377.217 153.238  64.224  1.00  0.00    -0.622 OA
HETATM   24  O   UNL     1     378.813 154.848  63.308  1.00  0.00    -0.622 OA
HETATM   25  O   UNL     1     376.417 155.157  62.897  1.00  0.00    -0.622 OA
ENDBRANCH   1  22
TORSDOF 7
ENDMDL
