MODEL 1
REMARK VINA RESULT:      -7.1      0.000      0.000
REMARK  3 active torsions:
REMARK  status: ('A' for Active; 'I' for Inactive)
REMARK    1  A    between atoms: O_1  and  C_15 
REMARK    2  A    between atoms: C_11  and  N_18 
REMARK    3  A    between atoms: C_16  and  N_18 
ROOT
HETATM    1  C   UNL     1       2.268  24.599 298.593  1.00  0.00     0.066 C 
HETATM    2  C   UNL     1       4.038  25.418 296.628  1.00  0.00     0.012 C 
HETATM    3  C   UNL     1       4.455  25.384 297.952  1.00  0.00    -0.029 C 
HETATM    4  C   UNL     1       1.995  24.316 297.249  1.00  0.00     0.037 C 
HETATM    5  C   UNL     1       5.896  25.639 298.333  1.00  0.00     0.051 C 
HETATM    6  C   UNL     1       2.781  24.938 296.272  1.00  0.00     0.030 C 
HETATM    7  C   UNL     1       3.512  25.126 298.952  1.00  0.00     0.073 C 
ENDROOT
BRANCH   4   8
HETATM    8  N   UNL     1       1.044  23.326 296.914  1.00  0.00    -0.351 N 
HETATM    9  C   UNL     1       1.566  22.032 296.425  1.00  0.00     0.156 C 
BRANCH   8  10
HETATM   10  C   UNL     1      -0.352  23.502 296.939  1.00  0.00     0.040 C 
HETATM   11  C   UNL     1      -1.123  22.859 297.936  1.00  0.00    -0.035 C 
HETATM   12  C   UNL     1      -0.485  22.309 299.191  1.00  0.00     0.050 C 
HETATM   13  C   UNL     1      -2.504  22.753 297.782  1.00  0.00     0.009 C 
HETATM   14  C   UNL     1      -3.141  23.456 296.764  1.00  0.00     0.001 C 
HETATM   15  C   UNL     1      -2.407  24.251 295.904  1.00  0.00     0.002 C 
HETATM   16  C   UNL     1      -1.013  24.297 295.994  1.00  0.00     0.030 C 
ENDBRANCH   8  10
ENDBRANCH   4   8
BRANCH   7  17
HETATM   17  O   UNL     1       3.803  25.398 300.257  1.00  0.00    -0.360 OA
ATOM     18  HO  UNL     1       4.460  26.045 300.482  1.00  0.00     0.217 HD
ENDBRANCH   7  17
TORSDOF 3
ENDMDL
MODEL 2
REMARK VINA RESULT:      -7.1      3.523      6.521
REMARK  3 active torsions:
REMARK  status: ('A' for Active; 'I' for Inactive)
REMARK    1  A    between atoms: O_1  and  C_15 
REMARK    2  A    between atoms: C_11  and  N_18 
REMARK    3  A    between atoms: C_16  and  N_18 
ROOT
HETATM    1  C   UNL     1       5.014  25.039 298.897  1.00  0.00     0.066 C 
HETATM    2  C   UNL     1       2.420  24.934 297.933  1.00  0.00     0.012 C 
HETATM    3  C   UNL     1       3.463  25.218 297.061  1.00  0.00    -0.029 C 
HETATM    4  C   UNL     1       4.012  24.425 299.661  1.00  0.00     0.037 C 
HETATM    5  C   UNL     1       3.237  25.325 295.570  1.00  0.00     0.051 C 
HETATM    6  C   UNL     1       2.682  24.591 299.256  1.00  0.00     0.030 C 
HETATM    7  C   UNL     1       4.743  25.429 297.582  1.00  0.00     0.073 C 
ENDROOT
BRANCH   4   8
HETATM    8  N   UNL     1       4.362  23.557 300.718  1.00  0.00    -0.351 N 
HETATM    9  C   UNL     1       3.469  23.538 301.895  1.00  0.00     0.156 C 
BRANCH   8  10
HETATM   10  C   UNL     1       5.530  22.772 300.769  1.00  0.00     0.040 C 
HETATM   11  C   UNL     1       5.605  21.578 300.014  1.00  0.00    -0.035 C 
HETATM   12  C   UNL     1       4.654  21.308 298.871  1.00  0.00     0.050 C 
HETATM   13  C   UNL     1       6.594  20.639 300.302  1.00  0.00     0.009 C 
HETATM   14  C   UNL     1       7.623  20.967 301.180  1.00  0.00     0.001 C 
HETATM   15  C   UNL     1       7.662  22.216 301.770  1.00  0.00     0.002 C 
HETATM   16  C   UNL     1       6.631  23.134 301.556  1.00  0.00     0.030 C 
ENDBRANCH   8  10
ENDBRANCH   4   8
BRANCH   7  17
HETATM   17  O   UNL     1       5.707  26.018 296.818  1.00  0.00    -0.360 OA
ATOM     18  HO  UNL     1       6.622  25.794 296.934  1.00  0.00     0.217 HD
ENDBRANCH   7  17
TORSDOF 3
ENDMDL
MODEL 3
REMARK VINA RESULT:      -7.1      2.419      5.707
REMARK  3 active torsions:
REMARK  status: ('A' for Active; 'I' for Inactive)
REMARK    1  A    between atoms: O_1  and  C_15 
REMARK    2  A    between atoms: C_11  and  N_18 
REMARK    3  A    between atoms: C_16  and  N_18 
ROOT
HETATM    1  C   UNL     1       0.639  23.109 296.501  1.00  0.00     0.066 C 
HETATM    2  C   UNL     1       1.166  25.323 294.923  1.00  0.00     0.012 C 
HETATM    3  C   UNL     1      -0.105  25.150 295.457  1.00  0.00    -0.029 C 
HETATM    4  C   UNL     1       1.966  23.483 296.247  1.00  0.00     0.037 C 
HETATM    5  C   UNL     1      -1.169  26.216 295.322  1.00  0.00     0.051 C 
HETATM    6  C   UNL     1       2.199  24.457 295.268  1.00  0.00     0.030 C 
HETATM    7  C   UNL     1      -0.406  23.953 296.114  1.00  0.00     0.073 C 
ENDROOT
BRANCH   4   8
HETATM    8  N   UNL     1       3.008  22.985 297.059  1.00  0.00    -0.351 N 
HETATM    9  C   UNL     1       2.780  21.683 297.720  1.00  0.00     0.156 C 
BRANCH   8  10
HETATM   10  C   UNL     1       4.207  23.665 297.347  1.00  0.00     0.040 C 
HETATM   11  C   UNL     1       4.184  24.797 298.196  1.00  0.00    -0.035 C 
HETATM   12  C   UNL     1       3.009  25.076 299.104  1.00  0.00     0.050 C 
HETATM   13  C   UNL     1       5.278  25.661 298.225  1.00  0.00     0.009 C 
HETATM   14  C   UNL     1       6.460  25.300 297.587  1.00  0.00     0.001 C 
HETATM   15  C   UNL     1       6.549  24.093 296.920  1.00  0.00     0.002 C 
HETATM   16  C   UNL     1       5.435  23.257 296.810  1.00  0.00     0.030 C 
ENDBRANCH   8  10
ENDBRANCH   4   8
BRANCH   7  17
HETATM   17  O   UNL     1      -1.703  23.613 296.362  1.00  0.00    -0.360 OA
ATOM     18  HO  UNL     1      -1.992  22.713 296.279  1.00  0.00     0.217 HD
ENDBRANCH   7  17
TORSDOF 3
ENDMDL
MODEL 4
REMARK VINA RESULT:      -7.0      1.551      2.322
REMARK  3 active torsions:
REMARK  status: ('A' for Active; 'I' for Inactive)
REMARK    1  A    between atoms: O_1  and  C_15 
REMARK    2  A    between atoms: C_11  and  N_18 
REMARK    3  A    between atoms: C_16  and  N_18 
ROOT
HETATM    1  C   UNL     1       3.749  25.030 298.887  1.00  0.00     0.066 C 
HETATM    2  C   UNL     1       6.305  25.491 297.927  1.00  0.00     0.012 C 
HETATM    3  C   UNL     1       6.096  25.396 299.297  1.00  0.00    -0.029 C 
HETATM    4  C   UNL     1       4.040  24.786 297.538  1.00  0.00     0.037 C 
HETATM    5  C   UNL     1       7.251  25.388 300.273  1.00  0.00     0.051 C 
HETATM    6  C   UNL     1       5.265  25.244 297.036  1.00  0.00     0.030 C 
HETATM    7  C   UNL     1       4.785  25.325 299.778  1.00  0.00     0.073 C 
ENDROOT
BRANCH   4   8
HETATM    8  N   UNL     1       3.175  23.983 296.763  1.00  0.00    -0.351 N 
HETATM    9  C   UNL     1       3.733  22.727 296.220  1.00  0.00     0.156 C 
BRANCH   8  10
HETATM   10  C   UNL     1       1.856  24.321 296.408  1.00  0.00     0.040 C 
HETATM   11  C   UNL     1       0.770  23.682 297.053  1.00  0.00    -0.035 C 
HETATM   12  C   UNL     1       0.955  22.943 298.358  1.00  0.00     0.050 C 
HETATM   13  C   UNL     1      -0.506  23.757 296.496  1.00  0.00     0.009 C 
HETATM   14  C   UNL     1      -0.746  24.625 295.436  1.00  0.00     0.001 C 
HETATM   15  C   UNL     1       0.276  25.405 294.930  1.00  0.00     0.002 C 
HETATM   16  C   UNL     1       1.578  25.276 295.422  1.00  0.00     0.030 C 
ENDBRANCH   8  10
ENDBRANCH   4   8
BRANCH   7  17
HETATM   17  O   UNL     1       4.525  25.555 301.097  1.00  0.00    -0.360 OA
ATOM     18  HO  UNL     1       5.226  25.775 301.699  1.00  0.00     0.217 HD
ENDBRANCH   7  17
TORSDOF 3
ENDMDL
MODEL 5
REMARK VINA RESULT:      -7.0      4.014      6.227
REMARK  3 active torsions:
REMARK  status: ('A' for Active; 'I' for Inactive)
REMARK    1  A    between atoms: O_1  and  C_15 
REMARK    2  A    between atoms: C_11  and  N_18 
REMARK    3  A    between atoms: C_16  and  N_18 
ROOT
HETATM    1  C   UNL     1       5.715  21.740 299.602  1.00  0.00     0.066 C 
HETATM    2  C   UNL     1       7.413  21.836 301.787  1.00  0.00     0.012 C 
HETATM    3  C   UNL     1       7.347  20.678 301.024  1.00  0.00    -0.029 C 
HETATM    4  C   UNL     1       6.056  22.977 300.164  1.00  0.00     0.037 C 
HETATM    5  C   UNL     1       8.287  19.519 301.264  1.00  0.00     0.051 C 
HETATM    6  C   UNL     1       6.722  22.979 301.396  1.00  0.00     0.030 C 
HETATM    7  C   UNL     1       6.373  20.581 300.024  1.00  0.00     0.073 C 
ENDROOT
BRANCH   4   8
HETATM    8  N   UNL     1       5.850  24.167 299.432  1.00  0.00    -0.351 N 
HETATM    9  C   UNL     1       6.795  25.277 299.674  1.00  0.00     0.156 C 
BRANCH   8  10
HETATM   10  C   UNL     1       4.777  24.401 298.552  1.00  0.00     0.040 C 
HETATM   11  C   UNL     1       5.003  24.404 297.155  1.00  0.00    -0.035 C 
HETATM   12  C   UNL     1       6.251  23.794 296.558  1.00  0.00     0.050 C 
HETATM   13  C   UNL     1       4.047  24.950 296.300  1.00  0.00     0.009 C 
HETATM   14  C   UNL     1       2.794  25.296 296.797  1.00  0.00     0.001 C 
HETATM   15  C   UNL     1       2.500  25.106 298.134  1.00  0.00     0.002 C 
HETATM   16  C   UNL     1       3.478  24.640 299.017  1.00  0.00     0.030 C 
ENDBRANCH   8  10
ENDBRANCH   4   8
BRANCH   7  17
HETATM   17  O   UNL     1       6.064  19.368 299.482  1.00  0.00    -0.360 OA
ATOM     18  HO  UNL     1       6.553  18.591 299.723  1.00  0.00     0.217 HD
ENDBRANCH   7  17
TORSDOF 3
ENDMDL
MODEL 6
REMARK VINA RESULT:      -7.0      2.182      5.693
REMARK  3 active torsions:
REMARK  status: ('A' for Active; 'I' for Inactive)
REMARK    1  A    between atoms: O_1  and  C_15 
REMARK    2  A    between atoms: C_11  and  N_18 
REMARK    3  A    between atoms: C_16  and  N_18 
ROOT
HETATM    1  C   UNL     1       0.390  25.281 295.714  1.00  0.00     0.066 C 
HETATM    2  C   UNL     1      -1.877  23.808 296.315  1.00  0.00     0.012 C 
HETATM    3  C   UNL     1      -1.928  24.759 295.304  1.00  0.00    -0.029 C 
HETATM    4  C   UNL     1       0.504  24.104 296.466  1.00  0.00     0.037 C 
HETATM    5  C   UNL     1      -3.146  24.909 294.422  1.00  0.00     0.051 C 
HETATM    6  C   UNL     1      -0.672  23.513 296.946  1.00  0.00     0.030 C 
HETATM    7  C   UNL     1      -0.831  25.607 295.117  1.00  0.00     0.073 C 
ENDROOT
BRANCH   4   8
HETATM    8  N   UNL     1       1.760  23.474 296.607  1.00  0.00    -0.351 N 
HETATM    9  C   UNL     1       1.831  22.036 296.278  1.00  0.00     0.156 C 
BRANCH   8  10
HETATM   10  C   UNL     1       2.923  24.090 297.106  1.00  0.00     0.040 C 
HETATM   11  C   UNL     1       3.041  24.344 298.494  1.00  0.00    -0.035 C 
HETATM   12  C   UNL     1       2.155  23.647 299.500  1.00  0.00     0.050 C 
HETATM   13  C   UNL     1       4.013  25.231 298.954  1.00  0.00     0.009 C 
HETATM   14  C   UNL     1       4.992  25.697 298.081  1.00  0.00     0.001 C 
HETATM   15  C   UNL     1       4.996  25.289 296.761  1.00  0.00     0.002 C 
HETATM   16  C   UNL     1       3.978  24.469 296.267  1.00  0.00     0.030 C 
ENDBRANCH   8  10
ENDBRANCH   4   8
BRANCH   7  17
HETATM   17  O   UNL     1      -0.961  26.742 294.373  1.00  0.00    -0.360 OA
ATOM     18  HO  UNL     1      -0.403  26.894 293.620  1.00  0.00     0.217 HD
ENDBRANCH   7  17
TORSDOF 3
ENDMDL
MODEL 7
REMARK VINA RESULT:      -7.0      2.696      6.004
REMARK  3 active torsions:
REMARK  status: ('A' for Active; 'I' for Inactive)
REMARK    1  A    between atoms: O_1  and  C_15 
REMARK    2  A    between atoms: C_11  and  N_18 
REMARK    3  A    between atoms: C_16  and  N_18 
ROOT
HETATM    1  C   UNL     1       0.790  23.570 297.095  1.00  0.00     0.066 C 
HETATM    2  C   UNL     1       1.136  25.342 294.995  1.00  0.00     0.012 C 
HETATM    3  C   UNL     1      -0.141  25.109 295.490  1.00  0.00    -0.029 C 
HETATM    4  C   UNL     1       2.066  24.077 296.816  1.00  0.00     0.037 C 
HETATM    5  C   UNL     1      -1.330  25.910 295.012  1.00  0.00     0.051 C 
HETATM    6  C   UNL     1       2.247  24.781 295.619  1.00  0.00     0.030 C 
HETATM    7  C   UNL     1      -0.325  24.097 296.437  1.00  0.00     0.073 C 
ENDROOT
BRANCH   4   8
HETATM    8  N   UNL     1       3.088  23.992 297.787  1.00  0.00    -0.351 N 
HETATM    9  C   UNL     1       2.843  24.662 299.081  1.00  0.00     0.156 C 
BRANCH   8  10
HETATM   10  C   UNL     1       4.344  23.387 297.590  1.00  0.00     0.040 C 
HETATM   11  C   UNL     1       5.438  24.170 297.148  1.00  0.00    -0.035 C 
HETATM   12  C   UNL     1       5.417  25.677 297.247  1.00  0.00     0.050 C 
HETATM   13  C   UNL     1       6.575  23.544 296.639  1.00  0.00     0.009 C 
HETATM   14  C   UNL     1       6.717  22.165 296.761  1.00  0.00     0.001 C 
HETATM   15  C   UNL     1       5.732  21.416 297.376  1.00  0.00     0.002 C 
HETATM   16  C   UNL     1       4.550  22.020 297.813  1.00  0.00     0.030 C 
ENDBRANCH   8  10
ENDBRANCH   4   8
BRANCH   7  17
HETATM   17  O   UNL     1      -1.577  23.624 296.702  1.00  0.00    -0.360 OA
ATOM     18  HO  UNL     1      -2.208  23.505 296.002  1.00  0.00     0.217 HD
ENDBRANCH   7  17
TORSDOF 3
ENDMDL
MODEL 8
REMARK VINA RESULT:      -6.9      2.431      5.622
REMARK  3 active torsions:
REMARK  status: ('A' for Active; 'I' for Inactive)
REMARK    1  A    between atoms: O_1  and  C_15 
REMARK    2  A    between atoms: C_11  and  N_18 
REMARK    3  A    between atoms: C_16  and  N_18 
ROOT
HETATM    1  C   UNL     1       1.114  23.236 296.836  1.00  0.00     0.066 C 
HETATM    2  C   UNL     1       1.389  25.279 294.987  1.00  0.00     0.012 C 
HETATM    3  C   UNL     1       0.146  25.035 295.557  1.00  0.00    -0.029 C 
HETATM    4  C   UNL     1       2.390  23.720 296.519  1.00  0.00     0.037 C 
HETATM    5  C   UNL     1      -1.031  25.950 295.306  1.00  0.00     0.051 C 
HETATM    6  C   UNL     1       2.513  24.583 295.423  1.00  0.00     0.030 C 
HETATM    7  C   UNL     1      -0.019  23.904 296.362  1.00  0.00     0.073 C 
ENDROOT
BRANCH   4   8
HETATM    8  N   UNL     1       3.482  23.446 297.372  1.00  0.00    -0.351 N 
HETATM    9  C   UNL     1       4.301  22.258 297.054  1.00  0.00     0.156 C 
BRANCH   8  10
HETATM   10  C   UNL     1       3.800  24.169 298.537  1.00  0.00     0.040 C 
HETATM   11  C   UNL     1       4.861  25.106 298.513  1.00  0.00    -0.035 C 
HETATM   12  C   UNL     1       5.409  25.641 297.210  1.00  0.00     0.050 C 
HETATM   13  C   UNL     1       5.396  25.576 299.711  1.00  0.00     0.009 C 
HETATM   14  C   UNL     1       4.755  25.289 300.913  1.00  0.00     0.001 C 
HETATM   15  C   UNL     1       3.598  24.535 300.920  1.00  0.00     0.002 C 
HETATM   16  C   UNL     1       3.099  23.986 299.736  1.00  0.00     0.030 C 
ENDBRANCH   8  10
ENDBRANCH   4   8
BRANCH   7  17
HETATM   17  O   UNL     1      -1.270  23.455 296.668  1.00  0.00    -0.360 OA
ATOM     18  HO  UNL     1      -1.957  23.452 296.013  1.00  0.00     0.217 HD
ENDBRANCH   7  17
TORSDOF 3
ENDMDL
MODEL 9
REMARK VINA RESULT:      -6.8      3.045      6.051
REMARK  3 active torsions:
REMARK  status: ('A' for Active; 'I' for Inactive)
REMARK    1  A    between atoms: O_1  and  C_15 
REMARK    2  A    between atoms: C_11  and  N_18 
REMARK    3  A    between atoms: C_16  and  N_18 
ROOT
HETATM    1  C   UNL     1       2.441  23.471 297.547  1.00  0.00     0.066 C 
HETATM    2  C   UNL     1       2.326  25.246 295.425  1.00  0.00     0.012 C 
HETATM    3  C   UNL     1       1.147  24.807 296.014  1.00  0.00    -0.029 C 
HETATM    4  C   UNL     1       3.588  24.183 297.173  1.00  0.00     0.037 C 
HETATM    5  C   UNL     1      -0.194  25.387 295.625  1.00  0.00     0.051 C 
HETATM    6  C   UNL     1       3.558  24.891 295.965  1.00  0.00     0.030 C 
HETATM    7  C   UNL     1       1.207  23.791 296.973  1.00  0.00     0.073 C 
ENDROOT
BRANCH   4   8
HETATM    8  N   UNL     1       4.678  24.286 298.065  1.00  0.00    -0.351 N 
HETATM    9  C   UNL     1       5.329  25.608 298.180  1.00  0.00     0.156 C 
BRANCH   8  10
HETATM   10  C   UNL     1       5.235  23.216 298.790  1.00  0.00     0.040 C 
HETATM   11  C   UNL     1       5.963  22.211 298.109  1.00  0.00    -0.035 C 
HETATM   12  C   UNL     1       6.491  22.434 296.711  1.00  0.00     0.050 C 
HETATM   13  C   UNL     1       6.231  21.000 298.744  1.00  0.00     0.009 C 
HETATM   14  C   UNL     1       5.970  20.861 300.104  1.00  0.00     0.001 C 
HETATM   15  C   UNL     1       5.440  21.917 300.821  1.00  0.00     0.002 C 
HETATM   16  C   UNL     1       5.087  23.107 300.179  1.00  0.00     0.030 C 
ENDBRANCH   8  10
ENDBRANCH   4   8
BRANCH   7  17
HETATM   17  O   UNL     1       0.077  23.117 297.331  1.00  0.00    -0.360 OA
ATOM     18  HO  UNL     1       0.007  22.707 298.185  1.00  0.00     0.217 HD
ENDBRANCH   7  17
TORSDOF 3
ENDMDL
