MODEL 1
REMARK VINA RESULT:      -7.2      0.000      0.000
REMARK  4 active torsions:
REMARK  status: ('A' for Active; 'I' for Inactive)
REMARK    1  A    between atoms: O_4  and  C_15 
REMARK    2  A    between atoms: C_11  and  O_13 
REMARK    3  A    between atoms: C_11  and  C_18 
REMARK    4  A    between atoms: C_16  and  C_18 
ROOT
HETATM    1  C   UNL     1       4.071  25.265 299.567  1.00  0.00     0.119 C 
HETATM    2  C   UNL     1       5.668  23.803 300.674  1.00  0.00     0.077 C 
HETATM    3  C   UNL     1       6.262  24.210 299.329  1.00  0.00     0.052 C 
HETATM    4  F   UNL     1       3.604  24.348 301.715  1.00  0.00    -0.212 F 
HETATM    5  C   UNL     1       5.282  25.164 298.634  1.00  0.00     0.128 C 
HETATM    6  C   UNL     1       4.614  24.857 300.944  1.00  0.00     0.205 C 
ENDROOT
BRANCH   5   7
HETATM    7  O   UNL     1       5.939  26.440 298.542  1.00  0.00    -0.382 OA
ATOM      8  HO  UNL     1       6.806  26.332 298.170  1.00  0.00     0.211 HD
ENDBRANCH   5   7
BRANCH   5   9
HETATM    9  C   UNL     1       5.054  24.616 297.229  1.00  0.00     0.193 C 
HETATM   10  O   UNL     1       6.042  24.437 296.511  1.00  0.00    -0.289 OA
BRANCH   9  11
HETATM   11  C   UNL     1       3.705  24.258 296.622  1.00  0.00     0.013 C 
HETATM   12  C   UNL     1       3.096  25.249 295.892  1.00  0.00     0.015 C 
HETATM   13  C   UNL     1       2.005  25.360 295.069  1.00  0.00     0.001 C 
HETATM   14  C   UNL     1       0.847  24.573 295.142  1.00  0.00     0.000 C 
HETATM   15  C   UNL     1       0.815  23.393 295.879  1.00  0.00     0.000 C 
HETATM   16  C   UNL     1       1.880  22.623 296.318  1.00  0.00     0.001 C 
HETATM   17  C   UNL     1       3.138  22.996 296.776  1.00  0.00     0.015 C 
ENDBRANCH   9  11
ENDBRANCH   5   9
BRANCH   6  18
HETATM   18  O   UNL     1       5.170  25.952 301.645  1.00  0.00    -0.362 OA
ATOM     19  HO  UNL     1       6.119  25.964 301.598  1.00  0.00     0.213 HD
ENDBRANCH   6  18
TORSDOF 4
ENDMDL
MODEL 2
REMARK VINA RESULT:      -7.2      2.440      3.724
REMARK  4 active torsions:
REMARK  status: ('A' for Active; 'I' for Inactive)
REMARK    1  A    between atoms: O_4  and  C_15 
REMARK    2  A    between atoms: C_11  and  O_13 
REMARK    3  A    between atoms: C_11  and  C_18 
REMARK    4  A    between atoms: C_16  and  C_18 
ROOT
HETATM    1  C   UNL     1       5.033  22.542 300.540  1.00  0.00     0.119 C 
HETATM    2  C   UNL     1       7.214  23.024 301.500  1.00  0.00     0.077 C 
HETATM    3  C   UNL     1       6.254  24.122 301.948  1.00  0.00     0.052 C 
HETATM    4  F   UNL     1       6.892  21.112 300.128  1.00  0.00    -0.212 F 
HETATM    5  C   UNL     1       4.864  23.811 301.381  1.00  0.00     0.128 C 
HETATM    6  C   UNL     1       6.305  21.883 301.094  1.00  0.00     0.205 C 
ENDROOT
BRANCH   5   7
HETATM    7  O   UNL     1       4.006  23.545 302.505  1.00  0.00    -0.382 OA
ATOM      8  HO  UNL     1       3.096  23.609 302.241  1.00  0.00     0.211 HD
ENDBRANCH   5   7
BRANCH   5   9
HETATM    9  C   UNL     1       4.384  25.075 300.675  1.00  0.00     0.193 C 
HETATM   10  O   UNL     1       4.140  26.067 301.367  1.00  0.00    -0.289 OA
BRANCH   9  11
HETATM   11  C   UNL     1       4.178  25.231 299.174  1.00  0.00     0.013 C 
HETATM   12  C   UNL     1       2.901  25.010 298.720  1.00  0.00     0.015 C 
HETATM   13  C   UNL     1       2.217  25.166 297.542  1.00  0.00     0.001 C 
HETATM   14  C   UNL     1       2.782  25.118 296.260  1.00  0.00     0.000 C 
HETATM   15  C   UNL     1       4.158  25.203 296.068  1.00  0.00     0.000 C 
HETATM   16  C   UNL     1       5.120  25.688 296.939  1.00  0.00     0.001 C 
HETATM   17  C   UNL     1       5.214  25.602 298.322  1.00  0.00     0.015 C 
ENDBRANCH   9  11
ENDBRANCH   5   9
BRANCH   6  18
HETATM   18  O   UNL     1       6.032  21.043 302.199  1.00  0.00    -0.362 OA
ATOM     19  HO  UNL     1       5.138  20.722 302.193  1.00  0.00     0.213 HD
ENDBRANCH   6  18
TORSDOF 4
ENDMDL
MODEL 3
REMARK VINA RESULT:      -7.1      1.256      2.075
REMARK  4 active torsions:
REMARK  status: ('A' for Active; 'I' for Inactive)
REMARK    1  A    between atoms: O_4  and  C_15 
REMARK    2  A    between atoms: C_11  and  O_13 
REMARK    3  A    between atoms: C_11  and  C_18 
REMARK    4  A    between atoms: C_16  and  C_18 
ROOT
HETATM    1  C   UNL     1       4.850  25.540 298.203  1.00  0.00     0.119 C 
HETATM    2  C   UNL     1       5.361  23.748 299.763  1.00  0.00     0.077 C 
HETATM    3  C   UNL     1       5.646  23.236 298.354  1.00  0.00     0.052 C 
HETATM    4  F   UNL     1       4.563  25.843 300.547  1.00  0.00    -0.212 F 
HETATM    5  C   UNL     1       5.363  24.368 297.360  1.00  0.00     0.128 C 
HETATM    6  C   UNL     1       5.376  25.255 299.617  1.00  0.00     0.205 C 
ENDROOT
BRANCH   5   7
HETATM    7  O   UNL     1       6.622  24.713 296.755  1.00  0.00    -0.382 OA
ATOM      8  HO  UNL     1       7.337  24.358 297.269  1.00  0.00     0.211 HD
ENDBRANCH   5   7
BRANCH   5   9
HETATM    9  C   UNL     1       4.435  23.797 296.293  1.00  0.00     0.193 C 
HETATM   10  O   UNL     1       4.921  23.038 295.450  1.00  0.00    -0.289 OA
BRANCH   9  11
HETATM   11  C   UNL     1       2.944  24.076 296.170  1.00  0.00     0.013 C 
HETATM   12  C   UNL     1       2.127  23.336 296.990  1.00  0.00     0.015 C 
HETATM   13  C   UNL     1       0.802  23.327 297.339  1.00  0.00     0.001 C 
HETATM   14  C   UNL     1      -0.255  23.773 296.533  1.00  0.00     0.000 C 
HETATM   15  C   UNL     1      -0.029  24.551 295.401  1.00  0.00     0.000 C 
HETATM   16  C   UNL     1       1.094  25.295 295.079  1.00  0.00     0.001 C 
HETATM   17  C   UNL     1       2.442  25.040 295.300  1.00  0.00     0.015 C 
ENDBRANCH   9  11
ENDBRANCH   5   9
BRANCH   6  18
HETATM   18  O   UNL     1       6.681  25.764 299.813  1.00  0.00    -0.362 OA
ATOM     19  HO  UNL     1       7.132  25.329 300.527  1.00  0.00     0.213 HD
ENDBRANCH   6  18
TORSDOF 4
ENDMDL
MODEL 4
REMARK VINA RESULT:      -7.1      1.625      1.897
REMARK  4 active torsions:
REMARK  status: ('A' for Active; 'I' for Inactive)
REMARK    1  A    between atoms: O_4  and  C_15 
REMARK    2  A    between atoms: C_11  and  O_13 
REMARK    3  A    between atoms: C_11  and  C_18 
REMARK    4  A    between atoms: C_16  and  C_18 
ROOT
HETATM    1  C   UNL     1       5.065  23.815 300.450  1.00  0.00     0.119 C 
HETATM    2  C   UNL     1       6.658  25.473 299.662  1.00  0.00     0.077 C 
HETATM    3  C   UNL     1       5.407  25.578 298.795  1.00  0.00     0.052 C 
HETATM    4  F   UNL     1       7.198  24.048 301.483  1.00  0.00    -0.212 F 
HETATM    5  C   UNL     1       4.377  24.563 299.304  1.00  0.00     0.128 C 
HETATM    6  C   UNL     1       6.181  24.764 300.911  1.00  0.00     0.205 C 
ENDROOT
BRANCH   5   7
HETATM    7  O   UNL     1       3.263  25.320 299.811  1.00  0.00    -0.382 OA
ATOM      8  HO  UNL     1       2.460  24.824 299.707  1.00  0.00     0.211 HD
ENDBRANCH   5   7
BRANCH   5   9
HETATM    9  C   UNL     1       3.922  23.752 298.096  1.00  0.00     0.193 C 
HETATM   10  O   UNL     1       4.606  22.782 297.759  1.00  0.00    -0.289 OA
BRANCH   9  11
HETATM   11  C   UNL     1       2.682  24.028 297.256  1.00  0.00     0.013 C 
HETATM   12  C   UNL     1       2.865  24.851 296.172  1.00  0.00     0.015 C 
HETATM   13  C   UNL     1       2.132  25.255 295.087  1.00  0.00     0.001 C 
HETATM   14  C   UNL     1       0.733  25.344 295.036  1.00  0.00     0.000 C 
HETATM   15  C   UNL     1      -0.069  24.742 296.001  1.00  0.00     0.000 C 
HETATM   16  C   UNL     1       0.261  23.725 296.881  1.00  0.00     0.001 C 
HETATM   17  C   UNL     1       1.447  23.459 297.554  1.00  0.00     0.015 C 
ENDBRANCH   9  11
ENDBRANCH   5   9
BRANCH   6  18
HETATM   18  O   UNL     1       5.725  25.696 301.873  1.00  0.00    -0.362 OA
ATOM     19  HO  UNL     1       5.314  25.271 302.617  1.00  0.00     0.213 HD
ENDBRANCH   6  18
TORSDOF 4
ENDMDL
MODEL 5
REMARK VINA RESULT:      -6.9      1.542      2.244
REMARK  4 active torsions:
REMARK  status: ('A' for Active; 'I' for Inactive)
REMARK    1  A    between atoms: O_4  and  C_15 
REMARK    2  A    between atoms: C_11  and  O_13 
REMARK    3  A    between atoms: C_11  and  C_18 
REMARK    4  A    between atoms: C_16  and  C_18 
ROOT
HETATM    1  C   UNL     1       4.659  23.592 300.968  1.00  0.00     0.119 C 
HETATM    2  C   UNL     1       7.026  23.376 301.480  1.00  0.00     0.077 C 
HETATM    3  C   UNL     1       6.811  24.739 300.829  1.00  0.00     0.052 C 
HETATM    4  F   UNL     1       5.510  21.622 301.998  1.00  0.00    -0.212 F 
HETATM    5  C   UNL     1       5.316  24.906 300.534  1.00  0.00     0.128 C 
HETATM    6  C   UNL     1       5.649  22.983 301.972  1.00  0.00     0.205 C 
ENDROOT
BRANCH   5   7
HETATM    7  O   UNL     1       4.848  25.987 301.361  1.00  0.00    -0.382 OA
ATOM      8  HO  UNL     1       5.201  26.811 301.048  1.00  0.00     0.211 HD
ENDBRANCH   5   7
BRANCH   5   9
HETATM    9  C   UNL     1       5.198  25.312 299.068  1.00  0.00     0.193 C 
HETATM   10  O   UNL     1       5.896  26.248 298.669  1.00  0.00    -0.289 OA
BRANCH   9  11
HETATM   11  C   UNL     1       4.292  24.657 298.035  1.00  0.00     0.013 C 
HETATM   12  C   UNL     1       3.025  25.178 297.936  1.00  0.00     0.015 C 
HETATM   13  C   UNL     1       1.949  25.039 297.099  1.00  0.00     0.001 C 
HETATM   14  C   UNL     1       1.635  23.889 296.359  1.00  0.00     0.000 C 
HETATM   15  C   UNL     1       2.562  22.868 296.176  1.00  0.00     0.000 C 
HETATM   16  C   UNL     1       3.939  22.919 296.317  1.00  0.00     0.001 C 
HETATM   17  C   UNL     1       4.730  23.614 297.224  1.00  0.00     0.015 C 
ENDBRANCH   9  11
ENDBRANCH   5   9
BRANCH   6  18
HETATM   18  O   UNL     1       5.433  23.456 303.287  1.00  0.00    -0.362 OA
ATOM     19  HO  UNL     1       5.581  22.781 303.940  1.00  0.00     0.213 HD
ENDBRANCH   6  18
TORSDOF 4
ENDMDL
MODEL 6
REMARK VINA RESULT:      -6.8      2.993      5.768
REMARK  4 active torsions:
REMARK  status: ('A' for Active; 'I' for Inactive)
REMARK    1  A    between atoms: O_4  and  C_15 
REMARK    2  A    between atoms: C_11  and  O_13 
REMARK    3  A    between atoms: C_11  and  C_18 
REMARK    4  A    between atoms: C_16  and  C_18 
ROOT
HETATM    1  C   UNL     1       6.530  24.690 299.766  1.00  0.00     0.119 C 
HETATM    2  C   UNL     1       4.388  25.031 298.668  1.00  0.00     0.077 C 
HETATM    3  C   UNL     1       4.122  24.825 300.157  1.00  0.00     0.052 C 
HETATM    4  F   UNL     1       6.405  25.053 297.416  1.00  0.00    -0.212 F 
HETATM    5  C   UNL     1       5.469  24.646 300.870  1.00  0.00     0.128 C 
HETATM    6  C   UNL     1       5.847  25.430 298.607  1.00  0.00     0.205 C 
ENDROOT
BRANCH   5   7
HETATM    7  O   UNL     1       5.627  25.774 301.748  1.00  0.00    -0.382 OA
ATOM      8  HO  UNL     1       6.360  25.628 302.334  1.00  0.00     0.211 HD
ENDBRANCH   5   7
BRANCH   5   9
HETATM    9  C   UNL     1       5.360  23.374 301.704  1.00  0.00     0.193 C 
HETATM   10  O   UNL     1       4.848  23.459 302.824  1.00  0.00    -0.289 OA
BRANCH   9  11
HETATM   11  C   UNL     1       5.826  21.989 301.278  1.00  0.00     0.013 C 
HETATM   12  C   UNL     1       7.100  21.644 301.657  1.00  0.00     0.015 C 
HETATM   13  C   UNL     1       7.877  20.514 301.644  1.00  0.00     0.001 C 
HETATM   14  C   UNL     1       7.762  19.457 300.730  1.00  0.00     0.000 C 
HETATM   15  C   UNL     1       6.641  19.317 299.917  1.00  0.00     0.000 C 
HETATM   16  C   UNL     1       5.383  19.874 300.083  1.00  0.00     0.001 C 
HETATM   17  C   UNL     1       5.002  21.118 300.571  1.00  0.00     0.015 C 
ENDBRANCH   9  11
ENDBRANCH   5   9
BRANCH   6  18
HETATM   18  O   UNL     1       5.987  26.834 298.714  1.00  0.00    -0.362 OA
ATOM     19  HO  UNL     1       6.390  27.214 297.943  1.00  0.00     0.213 HD
ENDBRANCH   6  18
TORSDOF 4
ENDMDL
MODEL 7
REMARK VINA RESULT:      -6.6      2.371      3.517
REMARK  4 active torsions:
REMARK  status: ('A' for Active; 'I' for Inactive)
REMARK    1  A    between atoms: O_4  and  C_15 
REMARK    2  A    between atoms: C_11  and  O_13 
REMARK    3  A    between atoms: C_11  and  C_18 
REMARK    4  A    between atoms: C_16  and  C_18 
ROOT
HETATM    1  C   UNL     1       5.063  24.475 297.811  1.00  0.00     0.119 C 
HETATM    2  C   UNL     1       4.939  22.405 296.542  1.00  0.00     0.077 C 
HETATM    3  C   UNL     1       3.758  23.277 296.128  1.00  0.00     0.052 C 
HETATM    4  F   UNL     1       6.693  22.764 298.103  1.00  0.00    -0.212 F 
HETATM    5  C   UNL     1       3.843  24.604 296.894  1.00  0.00     0.128 C 
HETATM    6  C   UNL     1       5.920  23.381 297.157  1.00  0.00     0.205 C 
ENDROOT
BRANCH   5   7
HETATM    7  O   UNL     1       4.071  25.634 295.915  1.00  0.00    -0.382 OA
ATOM      8  HO  UNL     1       3.393  25.605 295.250  1.00  0.00     0.211 HD
ENDBRANCH   5   7
BRANCH   5   9
HETATM    9  C   UNL     1       2.482  24.825 297.545  1.00  0.00     0.193 C 
HETATM   10  O   UNL     1       2.455  25.327 298.672  1.00  0.00    -0.289 OA
BRANCH   9  11
HETATM   11  C   UNL     1       1.133  24.486 296.924  1.00  0.00     0.013 C 
HETATM   12  C   UNL     1       0.760  25.254 295.849  1.00  0.00     0.015 C 
HETATM   13  C   UNL     1      -0.236  25.241 294.908  1.00  0.00     0.001 C 
HETATM   14  C   UNL     1      -1.518  24.702 295.086  1.00  0.00     0.000 C 
HETATM   15  C   UNL     1      -1.808  23.853 296.151  1.00  0.00     0.000 C 
HETATM   16  C   UNL     1      -0.928  23.128 296.937  1.00  0.00     0.001 C 
HETATM   17  C   UNL     1       0.342  23.445 297.402  1.00  0.00     0.015 C 
ENDBRANCH   9  11
ENDBRANCH   5   9
BRANCH   6  18
HETATM   18  O   UNL     1       6.790  23.903 296.172  1.00  0.00    -0.362 OA
ATOM     19  HO  UNL     1       6.893  24.845 296.247  1.00  0.00     0.213 HD
ENDBRANCH   6  18
TORSDOF 4
ENDMDL
MODEL 8
REMARK VINA RESULT:      -6.6      2.186      2.821
REMARK  4 active torsions:
REMARK  status: ('A' for Active; 'I' for Inactive)
REMARK    1  A    between atoms: O_4  and  C_15 
REMARK    2  A    between atoms: C_11  and  O_13 
REMARK    3  A    between atoms: C_11  and  C_18 
REMARK    4  A    between atoms: C_16  and  C_18 
ROOT
HETATM    1  C   UNL     1       5.819  23.717 299.713  1.00  0.00     0.119 C 
HETATM    2  C   UNL     1       5.308  23.088 302.005  1.00  0.00     0.077 C 
HETATM    3  C   UNL     1       4.020  22.980 301.193  1.00  0.00     0.052 C 
HETATM    4  F   UNL     1       7.510  23.727 301.390  1.00  0.00    -0.212 F 
HETATM    5  C   UNL     1       4.335  23.339 299.735  1.00  0.00     0.128 C 
HETATM    6  C   UNL     1       6.405  23.043 300.963  1.00  0.00     0.205 C 
ENDROOT
BRANCH   5   7
HETATM    7  O   UNL     1       4.121  22.146 298.959  1.00  0.00    -0.382 OA
ATOM      8  HO  UNL     1       3.306  22.216 298.476  1.00  0.00     0.211 HD
ENDBRANCH   5   7
BRANCH   5   9
HETATM    9  C   UNL     1       3.323  24.398 299.313  1.00  0.00     0.193 C 
HETATM   10  O   UNL     1       3.105  25.332 300.090  1.00  0.00    -0.289 OA
BRANCH   9  11
HETATM   11  C   UNL     1       2.548  24.416 298.002  1.00  0.00     0.013 C 
HETATM   12  C   UNL     1       3.133  25.110 296.971  1.00  0.00     0.015 C 
HETATM   13  C   UNL     1       2.913  25.281 295.630  1.00  0.00     0.001 C 
HETATM   14  C   UNL     1       1.668  25.197 294.991  1.00  0.00     0.000 C 
HETATM   15  C   UNL     1       0.564  24.633 295.622  1.00  0.00     0.000 C 
HETATM   16  C   UNL     1       0.539  23.783 296.715  1.00  0.00     0.001 C 
HETATM   17  C   UNL     1       1.336  23.747 297.853  1.00  0.00     0.015 C 
ENDBRANCH   9  11
ENDBRANCH   5   9
BRANCH   6  18
HETATM   18  O   UNL     1       6.803  21.709 300.712  1.00  0.00    -0.362 OA
ATOM     19  HO  UNL     1       6.594  21.130 301.436  1.00  0.00     0.213 HD
ENDBRANCH   6  18
TORSDOF 4
ENDMDL
MODEL 9
REMARK VINA RESULT:      -6.6      2.973      3.813
REMARK  4 active torsions:
REMARK  status: ('A' for Active; 'I' for Inactive)
REMARK    1  A    between atoms: O_4  and  C_15 
REMARK    2  A    between atoms: C_11  and  O_13 
REMARK    3  A    between atoms: C_11  and  C_18 
REMARK    4  A    between atoms: C_16  and  C_18 
ROOT
HETATM    1  C   UNL     1       6.257  21.212 299.662  1.00  0.00     0.119 C 
HETATM    2  C   UNL     1       7.703  21.674 301.562  1.00  0.00     0.077 C 
HETATM    3  C   UNL     1       6.649  22.775 301.499  1.00  0.00     0.052 C 
HETATM    4  F   UNL     1       8.079  19.773 300.188  1.00  0.00    -0.212 F 
HETATM    5  C   UNL     1       5.705  22.477 300.327  1.00  0.00     0.128 C 
HETATM    6  C   UNL     1       7.100  20.542 300.757  1.00  0.00     0.205 C 
ENDROOT
BRANCH   5   7
HETATM    7  O   UNL     1       4.410  22.209 300.894  1.00  0.00    -0.382 OA
ATOM      8  HO  UNL     1       4.290  22.723 301.684  1.00  0.00     0.211 HD
ENDBRANCH   5   7
BRANCH   5   9
HETATM    9  C   UNL     1       5.630  23.748 299.488  1.00  0.00     0.193 C 
HETATM   10  O   UNL     1       6.486  24.617 299.675  1.00  0.00    -0.289 OA
BRANCH   9  11
HETATM   11  C   UNL     1       4.585  24.049 298.421  1.00  0.00     0.013 C 
HETATM   12  C   UNL     1       4.854  23.559 297.167  1.00  0.00     0.015 C 
HETATM   13  C   UNL     1       4.188  23.442 295.974  1.00  0.00     0.001 C 
HETATM   14  C   UNL     1       3.166  24.291 295.526  1.00  0.00     0.000 C 
HETATM   15  C   UNL     1       2.519  25.170 296.390  1.00  0.00     0.000 C 
HETATM   16  C   UNL     1       2.463  25.131 297.774  1.00  0.00     0.001 C 
HETATM   17  C   UNL     1       3.420  24.754 298.708  1.00  0.00     0.015 C 
ENDBRANCH   9  11
ENDBRANCH   5   9
BRANCH   6  18
HETATM   18  O   UNL     1       6.325  19.696 301.585  1.00  0.00    -0.362 OA
ATOM     19  HO  UNL     1       6.862  19.089 302.080  1.00  0.00     0.213 HD
ENDBRANCH   6  18
TORSDOF 4
ENDMDL
