REMARK  1 active torsions:
REMARK  status: ('A' for Active; 'I' for Inactive)
REMARK    1  A    between atoms: C_5  and  N_10 
ROOT
HETATM    1  C   UNL     1       2.777  23.526 296.809  1.00  0.00    -0.032 C 
HETATM    2  C   UNL     1       4.969  23.947 295.934  1.00  0.00     0.001 C 
HETATM    3  C   UNL     1       2.201  23.721 299.094  1.00  0.00     0.114 C 
HETATM    4  C   UNL     1       3.751  23.243 295.845  1.00  0.00     0.009 C 
HETATM    5  C   UNL     1       4.259  24.987 298.007  1.00  0.00     0.010 C 
HETATM    6  N   UNL     1       1.211  22.907 298.386  1.00  0.00    -0.368 N 
HETATM    7  C   UNL     1       5.203  24.844 296.979  1.00  0.00     0.001 C 
HETATM    8  C   UNL     1       2.747  23.262 300.422  1.00  0.00     0.037 C 
HETATM    9  C   UNL     1       3.182  24.110 298.026  1.00  0.00    -0.028 C 
HETATM   10  C   UNL     1       1.365  23.103 296.944  1.00  0.00     0.163 C 
ENDROOT
BRANCH   6  11
HETATM   11  C   UNL     1       0.301  21.973 298.824  1.00  0.00     0.031 C 
HETATM   12  C   UNL     1      -0.461  21.327 297.844  1.00  0.00     0.029 C 
HETATM   13  C   UNL     1      -0.744  19.979 297.761  1.00  0.00     0.002 C 
HETATM   14  C   UNL     1      -1.337  19.202 298.741  1.00  0.00     0.000 C 
HETATM   15  C   UNL     1      -1.200  19.466 300.100  1.00  0.00     0.000 C 
HETATM   16  C   UNL     1      -0.546  20.532 300.671  1.00  0.00     0.002 C 
HETATM   17  C   UNL     1       0.083  21.661 300.189  1.00  0.00     0.029 C 
ENDBRANCH   6  11
TORSDOF 1
