MODEL 1
REMARK VINA RESULT:      -9.6      0.000      0.000
REMARK  5 active torsions:
REMARK  status: ('A' for Active; 'I' for Inactive)
REMARK    1  A    between atoms: C_2  and  C_29 
REMARK    2  A    between atoms: C_6  and  C_22 
REMARK    3  A    between atoms: O_7  and  C_25 
REMARK    4  A    between atoms: C_22  and  O_23 
REMARK    5  A    between atoms: C_22  and  C_25 
ROOT
HETATM    1  C   UNL     1      95.666 -20.540 221.511  1.00  0.00     0.206 C 
ENDROOT
BRANCH   1   2
HETATM    2  C   UNL     1      95.235 -21.379 222.692  1.00  0.00    -0.021 C 
HETATM    3  C   UNL     1      96.274 -21.834 223.507  1.00  0.00     0.011 C 
HETATM    4  C   UNL     1      96.415 -23.134 223.973  1.00  0.00     0.013 C 
HETATM    5  C   UNL     1      95.487 -24.202 223.944  1.00  0.00    -0.022 C 
HETATM    6  C   UNL     1      96.024 -25.333 224.561  1.00  0.00     0.012 C 
HETATM    7  C   UNL     1      94.154 -24.161 223.389  1.00  0.00     0.024 C 
HETATM    8  C   UNL     1      95.709 -26.674 224.565  1.00  0.00     0.001 C 
HETATM    9  C   UNL     1      94.645 -27.305 223.940  1.00  0.00     0.000 C 
HETATM   10  C   UNL     1      93.682 -26.661 223.164  1.00  0.00     0.001 C 
HETATM   11  C   UNL     1      93.487 -25.312 222.944  1.00  0.00     0.016 C 
HETATM   12  C   UNL     1      93.345 -22.910 223.255  1.00  0.00     0.183 C 
HETATM   13  O   UNL     1      92.090 -23.048 223.335  1.00  0.00    -0.288 OA
HETATM   14  C   UNL     1      93.910 -21.631 222.993  1.00  0.00     0.065 C 
ENDBRANCH   1   2
BRANCH   1  15
HETATM   15  O   UNL     1      96.919 -20.971 221.023  1.00  0.00    -0.386 OA
ATOM     16  HO  UNL     1      96.933 -20.956 220.073  1.00  0.00     0.210 HD
ENDBRANCH   1  15
BRANCH   1  17
HETATM   17  C   UNL     1      94.670 -20.282 220.377  1.00  0.00     0.162 C 
HETATM   18  N   UNL     1      95.260 -19.319 219.459  1.00  0.00    -0.359 N 
HETATM   19  C   UNL     1      95.279 -19.741 218.211  1.00  0.00     0.018 C 
ATOM     20  HN  UNL     1      95.622 -18.412 219.752  1.00  0.00     0.162 HD
HETATM   21  C   UNL     1      95.004 -21.214 218.170  1.00  0.00     0.062 C 
HETATM   22  C   UNL     1      94.442 -21.541 219.542  1.00  0.00     0.070 C 
BRANCH  19  23
HETATM   23  C   UNL     1      95.058 -18.932 217.024  1.00  0.00    -0.014 C 
HETATM   24  C   UNL     1      94.911 -17.560 217.174  1.00  0.00     0.013 C 
HETATM   25  C   UNL     1      94.362 -16.666 216.276  1.00  0.00     0.001 C 
HETATM   26  C   UNL     1      93.568 -16.912 215.187  1.00  0.00     0.000 C 
HETATM   27  C   UNL     1      93.679 -18.036 214.370  1.00  0.00     0.000 C 
HETATM   28  C   UNL     1      94.535 -19.100 214.584  1.00  0.00     0.001 C 
HETATM   29  C   UNL     1      95.098 -19.529 215.769  1.00  0.00     0.013 C 
ENDBRANCH  19  23
BRANCH  17  30
HETATM   30  O   UNL     1      93.413 -19.775 220.788  1.00  0.00    -0.368 OA
ATOM     31  HO  UNL     1      93.187 -20.190 221.611  1.00  0.00     0.212 HD
ENDBRANCH  17  30
ENDBRANCH   1  17
TORSDOF 5
ENDMDL
MODEL 2
REMARK VINA RESULT:      -9.4      2.926      3.845
REMARK  5 active torsions:
REMARK  status: ('A' for Active; 'I' for Inactive)
REMARK    1  A    between atoms: C_2  and  C_29 
REMARK    2  A    between atoms: C_6  and  C_22 
REMARK    3  A    between atoms: O_7  and  C_25 
REMARK    4  A    between atoms: C_22  and  O_23 
REMARK    5  A    between atoms: C_22  and  C_25 
ROOT
HETATM    1  C   UNL     1      94.750 -20.546 221.336  1.00  0.00     0.206 C 
ENDROOT
BRANCH   1   2
HETATM    2  C   UNL     1      94.546 -21.389 222.573  1.00  0.00    -0.021 C 
HETATM    3  C   UNL     1      95.688 -21.590 223.350  1.00  0.00     0.011 C 
HETATM    4  C   UNL     1      96.103 -22.811 223.863  1.00  0.00     0.013 C 
HETATM    5  C   UNL     1      95.404 -24.039 223.930  1.00  0.00    -0.022 C 
HETATM    6  C   UNL     1      96.180 -25.010 224.566  1.00  0.00     0.012 C 
HETATM    7  C   UNL     1      94.066 -24.288 223.446  1.00  0.00     0.024 C 
HETATM    8  C   UNL     1      96.136 -26.384 224.644  1.00  0.00     0.001 C 
HETATM    9  C   UNL     1      95.191 -27.243 224.104  1.00  0.00     0.000 C 
HETATM   10  C   UNL     1      94.086 -26.841 223.355  1.00  0.00     0.001 C 
HETATM   11  C   UNL     1      93.620 -25.569 223.087  1.00  0.00     0.016 C 
HETATM   12  C   UNL     1      93.021 -23.228 223.301  1.00  0.00     0.183 C 
HETATM   13  O   UNL     1      91.822 -23.603 223.454  1.00  0.00    -0.288 OA
HETATM   14  C   UNL     1      93.311 -21.879 222.955  1.00  0.00     0.065 C 
ENDBRANCH   1   2
BRANCH   1  15
HETATM   15  O   UNL     1      95.757 -19.579 221.552  1.00  0.00    -0.386 OA
ATOM     16  HO  UNL     1      96.620 -19.966 221.457  1.00  0.00     0.210 HD
ENDBRANCH   1  15
BRANCH   1  17
HETATM   17  C   UNL     1      94.906 -21.238 219.979  1.00  0.00     0.162 C 
HETATM   18  N   UNL     1      96.322 -21.480 219.747  1.00  0.00    -0.359 N 
HETATM   19  C   UNL     1      96.592 -22.740 219.471  1.00  0.00     0.018 C 
ATOM     20  HN  UNL     1      97.032 -20.750 219.794  1.00  0.00     0.162 HD
HETATM   21  C   UNL     1      95.412 -23.598 219.818  1.00  0.00     0.062 C 
HETATM   22  C   UNL     1      94.261 -22.623 219.985  1.00  0.00     0.070 C 
BRANCH  19  23
HETATM   23  C   UNL     1      97.582 -23.222 218.523  1.00  0.00    -0.014 C 
HETATM   24  C   UNL     1      98.849 -23.542 218.992  1.00  0.00     0.013 C 
HETATM   25  C   UNL     1     100.012 -23.674 218.260  1.00  0.00     0.001 C 
HETATM   26  C   UNL     1     100.289 -23.241 216.990  1.00  0.00     0.000 C 
HETATM   27  C   UNL     1      99.356 -23.193 215.954  1.00  0.00     0.000 C 
HETATM   28  C   UNL     1      98.012 -23.488 216.073  1.00  0.00     0.001 C 
HETATM   29  C   UNL     1      97.215 -23.443 217.200  1.00  0.00     0.013 C 
ENDBRANCH  19  23
BRANCH  17  30
HETATM   30  O   UNL     1      94.404 -20.508 218.873  1.00  0.00    -0.368 OA
ATOM     31  HO  UNL     1      93.467 -20.408 218.992  1.00  0.00     0.212 HD
ENDBRANCH  17  30
ENDBRANCH   1  17
TORSDOF 5
ENDMDL
MODEL 3
REMARK VINA RESULT:      -9.2      2.944      4.021
REMARK  5 active torsions:
REMARK  status: ('A' for Active; 'I' for Inactive)
REMARK    1  A    between atoms: C_2  and  C_29 
REMARK    2  A    between atoms: C_6  and  C_22 
REMARK    3  A    between atoms: O_7  and  C_25 
REMARK    4  A    between atoms: C_22  and  O_23 
REMARK    5  A    between atoms: C_22  and  C_25 
ROOT
HETATM    1  C   UNL     1      94.516 -20.729 222.644  1.00  0.00     0.206 C 
ENDROOT
BRANCH   1   2
HETATM    2  C   UNL     1      94.122 -22.105 223.129  1.00  0.00    -0.021 C 
HETATM    3  C   UNL     1      95.088 -22.766 223.890  1.00  0.00     0.011 C 
HETATM    4  C   UNL     1      95.478 -24.087 223.716  1.00  0.00     0.013 C 
HETATM    5  C   UNL     1      94.875 -25.104 222.940  1.00  0.00    -0.022 C 
HETATM    6  C   UNL     1      95.573 -26.306 223.082  1.00  0.00     0.012 C 
HETATM    7  C   UNL     1      93.691 -24.968 222.124  1.00  0.00     0.024 C 
HETATM    8  C   UNL     1      95.618 -27.487 222.374  1.00  0.00     0.001 C 
HETATM    9  C   UNL     1      94.874 -27.847 221.261  1.00  0.00     0.000 C 
HETATM   10  C   UNL     1      93.924 -27.037 220.642  1.00  0.00     0.001 C 
HETATM   11  C   UNL     1      93.429 -25.808 221.030  1.00  0.00     0.016 C 
HETATM   12  C   UNL     1      92.623 -23.952 222.369  1.00  0.00     0.183 C 
HETATM   13  O   UNL     1      91.450 -24.282 222.026  1.00  0.00    -0.288 OA
HETATM   14  C   UNL     1      92.875 -22.656 222.899  1.00  0.00     0.065 C 
ENDBRANCH   1   2
BRANCH   1  15
HETATM   15  O   UNL     1      95.153 -20.001 223.674  1.00  0.00    -0.386 OA
ATOM     16  HO  UNL     1      94.512 -19.596 224.246  1.00  0.00     0.210 HD
ENDBRANCH   1  15
BRANCH   1  17
HETATM   17  C   UNL     1      95.252 -20.592 221.309  1.00  0.00     0.162 C 
HETATM   18  N   UNL     1      96.107 -21.756 221.134  1.00  0.00    -0.359 N 
HETATM   19  C   UNL     1      95.902 -22.380 219.992  1.00  0.00     0.018 C 
ATOM     20  HN  UNL     1      96.794 -22.058 221.824  1.00  0.00     0.162 HD
HETATM   21  C   UNL     1      94.618 -21.905 219.378  1.00  0.00     0.062 C 
HETATM   22  C   UNL     1      94.278 -20.631 220.132  1.00  0.00     0.070 C 
BRANCH  19  23
HETATM   23  C   UNL     1      96.913 -23.005 219.156  1.00  0.00    -0.014 C 
HETATM   24  C   UNL     1      98.053 -23.514 219.762  1.00  0.00     0.013 C 
HETATM   25  C   UNL     1      99.261 -23.820 219.169  1.00  0.00     0.001 C 
HETATM   26  C   UNL     1      99.748 -23.430 217.949  1.00  0.00     0.000 C 
HETATM   27  C   UNL     1      98.963 -23.240 216.813  1.00  0.00     0.000 C 
HETATM   28  C   UNL     1      97.584 -23.327 216.768  1.00  0.00     0.001 C 
HETATM   29  C   UNL     1      96.676 -23.165 217.795  1.00  0.00     0.013 C 
ENDBRANCH  19  23
BRANCH  17  30
HETATM   30  O   UNL     1      96.063 -19.436 221.188  1.00  0.00    -0.368 OA
ATOM     31  HO  UNL     1      96.914 -19.639 221.556  1.00  0.00     0.212 HD
ENDBRANCH  17  30
ENDBRANCH   1  17
TORSDOF 5
ENDMDL
MODEL 4
REMARK VINA RESULT:      -9.0      2.178      2.869
REMARK  5 active torsions:
REMARK  status: ('A' for Active; 'I' for Inactive)
REMARK    1  A    between atoms: C_2  and  C_29 
REMARK    2  A    between atoms: C_6  and  C_22 
REMARK    3  A    between atoms: O_7  and  C_25 
REMARK    4  A    between atoms: C_22  and  O_23 
REMARK    5  A    between atoms: C_22  and  C_25 
ROOT
HETATM    1  C   UNL     1      95.256 -21.010 219.931  1.00  0.00     0.206 C 
ENDROOT
BRANCH   1   2
HETATM    2  C   UNL     1      94.976 -21.388 221.367  1.00  0.00    -0.021 C 
HETATM    3  C   UNL     1      96.097 -21.433 222.199  1.00  0.00     0.011 C 
HETATM    4  C   UNL     1      96.394 -22.457 223.087  1.00  0.00     0.013 C 
HETATM    5  C   UNL     1      95.579 -23.529 223.524  1.00  0.00    -0.022 C 
HETATM    6  C   UNL     1      96.261 -24.311 224.458  1.00  0.00     0.012 C 
HETATM    7  C   UNL     1      94.222 -23.796 223.108  1.00  0.00     0.024 C 
HETATM    8  C   UNL     1      96.085 -25.577 224.971  1.00  0.00     0.001 C 
HETATM    9  C   UNL     1      95.060 -26.473 224.709  1.00  0.00     0.000 C 
HETATM   10  C   UNL     1      93.997 -26.233 223.840  1.00  0.00     0.001 C 
HETATM   11  C   UNL     1      93.654 -25.077 223.166  1.00  0.00     0.016 C 
HETATM   12  C   UNL     1      93.284 -22.746 222.603  1.00  0.00     0.183 C 
HETATM   13  O   UNL     1      92.055 -22.940 222.835  1.00  0.00    -0.288 OA
HETATM   14  C   UNL     1      93.701 -21.613 221.851  1.00  0.00     0.065 C 
ENDBRANCH   1   2
BRANCH   1  15
HETATM   15  O   UNL     1      94.747 -21.988 219.048  1.00  0.00    -0.386 OA
ATOM     16  HO  UNL     1      94.681 -21.642 218.166  1.00  0.00     0.210 HD
ENDBRANCH   1  15
BRANCH   1  17
HETATM   17  C   UNL     1      94.932 -19.590 219.458  1.00  0.00     0.162 C 
HETATM   18  N   UNL     1      96.149 -18.795 219.525  1.00  0.00    -0.359 N 
HETATM   19  C   UNL     1      96.440 -18.201 218.385  1.00  0.00     0.018 C 
ATOM     20  HN  UNL     1      96.717 -18.707 220.367  1.00  0.00     0.162 HD
HETATM   21  C   UNL     1      95.624 -18.799 217.279  1.00  0.00     0.062 C 
HETATM   22  C   UNL     1      94.527 -19.576 217.985  1.00  0.00     0.070 C 
BRANCH  19  23
HETATM   23  C   UNL     1      97.011 -16.874 218.226  1.00  0.00    -0.014 C 
HETATM   24  C   UNL     1      96.359 -15.966 217.403  1.00  0.00     0.013 C 
HETATM   25  C   UNL     1      96.874 -14.817 216.837  1.00  0.00     0.001 C 
HETATM   26  C   UNL     1      98.183 -14.442 216.680  1.00  0.00     0.000 C 
HETATM   27  C   UNL     1      99.201 -14.744 217.583  1.00  0.00     0.000 C 
HETATM   28  C   UNL     1      99.064 -15.531 218.711  1.00  0.00     0.001 C 
HETATM   29  C   UNL     1      98.130 -16.513 218.968  1.00  0.00     0.013 C 
ENDBRANCH  19  23
BRANCH  17  30
HETATM   30  O   UNL     1      93.935 -18.921 220.209  1.00  0.00    -0.368 OA
ATOM     31  HO  UNL     1      93.158 -18.854 219.667  1.00  0.00     0.212 HD
ENDBRANCH  17  30
ENDBRANCH   1  17
TORSDOF 5
ENDMDL
MODEL 5
REMARK VINA RESULT:      -8.8      3.093      9.197
REMARK  5 active torsions:
REMARK  status: ('A' for Active; 'I' for Inactive)
REMARK    1  A    between atoms: C_2  and  C_29 
REMARK    2  A    between atoms: C_6  and  C_22 
REMARK    3  A    between atoms: O_7  and  C_25 
REMARK    4  A    between atoms: C_22  and  O_23 
REMARK    5  A    between atoms: C_22  and  C_25 
ROOT
HETATM    1  C   UNL     1      94.821 -18.885 219.165  1.00  0.00     0.206 C 
ENDROOT
BRANCH   1   2
HETATM    2  C   UNL     1      95.766 -18.021 218.363  1.00  0.00    -0.021 C 
HETATM    3  C   UNL     1      97.096 -18.044 218.787  1.00  0.00     0.011 C 
HETATM    4  C   UNL     1      97.899 -16.926 218.968  1.00  0.00     0.013 C 
HETATM    5  C   UNL     1      97.672 -15.587 218.571  1.00  0.00    -0.022 C 
HETATM    6  C   UNL     1      98.761 -14.784 218.916  1.00  0.00     0.012 C 
HETATM    7  C   UNL     1      96.506 -15.086 217.882  1.00  0.00     0.024 C 
HETATM    8  C   UNL     1      98.961 -13.427 219.038  1.00  0.00     0.001 C 
HETATM    9  C   UNL     1      98.065 -12.402 218.775  1.00  0.00     0.000 C 
HETATM   10  C   UNL     1      96.755 -12.584 218.333  1.00  0.00     0.001 C 
HETATM   11  C   UNL     1      96.108 -13.742 217.953  1.00  0.00     0.016 C 
HETATM   12  C   UNL     1      95.627 -15.926 217.012  1.00  0.00     0.183 C 
HETATM   13  O   UNL     1      95.060 -15.329 216.051  1.00  0.00    -0.288 OA
HETATM   14  C   UNL     1      95.370 -17.305 217.250  1.00  0.00     0.065 C 
ENDBRANCH   1   2
BRANCH   1  15
HETATM   15  O   UNL     1      93.935 -19.581 218.312  1.00  0.00    -0.386 OA
ATOM     16  HO  UNL     1      93.047 -19.544 218.648  1.00  0.00     0.210 HD
ENDBRANCH   1  15
BRANCH   1  17
HETATM   17  C   UNL     1      95.388 -19.793 220.260  1.00  0.00     0.162 C 
HETATM   18  N   UNL     1      94.277 -20.426 220.953  1.00  0.00    -0.359 N 
HETATM   19  C   UNL     1      94.373 -21.740 220.991  1.00  0.00     0.018 C 
ATOM     20  HN  UNL     1      93.502 -19.907 221.366  1.00  0.00     0.162 HD
HETATM   21  C   UNL     1      95.414 -22.200 220.015  1.00  0.00     0.062 C 
HETATM   22  C   UNL     1      96.194 -20.945 219.663  1.00  0.00     0.070 C 
BRANCH  19  23
HETATM   23  C   UNL     1      93.989 -22.601 222.096  1.00  0.00    -0.014 C 
HETATM   24  C   UNL     1      94.981 -23.301 222.768  1.00  0.00     0.013 C 
HETATM   25  C   UNL     1      94.833 -24.406 223.583  1.00  0.00     0.001 C 
HETATM   26  C   UNL     1      93.769 -25.261 223.694  1.00  0.00     0.000 C 
HETATM   27  C   UNL     1      92.434 -24.878 223.561  1.00  0.00     0.000 C 
HETATM   28  C   UNL     1      91.994 -23.615 223.214  1.00  0.00     0.001 C 
HETATM   29  C   UNL     1      92.663 -22.631 222.515  1.00  0.00     0.013 C 
ENDBRANCH  19  23
BRANCH  17  30
HETATM   30  O   UNL     1      96.186 -19.136 221.229  1.00  0.00    -0.368 OA
ATOM     31  HO  UNL     1      96.694 -18.470 220.784  1.00  0.00     0.212 HD
ENDBRANCH  17  30
ENDBRANCH   1  17
TORSDOF 5
ENDMDL
MODEL 6
REMARK VINA RESULT:      -8.7      2.633      6.720
REMARK  5 active torsions:
REMARK  status: ('A' for Active; 'I' for Inactive)
REMARK    1  A    between atoms: C_2  and  C_29 
REMARK    2  A    between atoms: C_6  and  C_22 
REMARK    3  A    between atoms: O_7  and  C_25 
REMARK    4  A    between atoms: C_22  and  O_23 
REMARK    5  A    between atoms: C_22  and  C_25 
ROOT
HETATM    1  C   UNL     1      95.218 -20.136 218.856  1.00  0.00     0.206 C 
ENDROOT
BRANCH   1   2
HETATM    2  C   UNL     1      95.778 -21.377 218.202  1.00  0.00    -0.021 C 
HETATM    3  C   UNL     1      95.032 -21.871 217.129  1.00  0.00     0.011 C 
HETATM    4  C   UNL     1      94.685 -23.201 216.941  1.00  0.00     0.013 C 
HETATM    5  C   UNL     1      95.161 -24.354 217.609  1.00  0.00    -0.022 C 
HETATM    6  C   UNL     1      94.574 -25.504 217.077  1.00  0.00     0.012 C 
HETATM    7  C   UNL     1      96.135 -24.384 218.675  1.00  0.00     0.024 C 
HETATM    8  C   UNL     1      94.441 -26.808 217.502  1.00  0.00     0.001 C 
HETATM    9  C   UNL     1      94.948 -27.388 218.654  1.00  0.00     0.000 C 
HETATM   10  C   UNL     1      95.701 -26.718 219.618  1.00  0.00     0.001 C 
HETATM   11  C   UNL     1      96.202 -25.432 219.606  1.00  0.00     0.016 C 
HETATM   12  C   UNL     1      97.176 -23.331 218.882  1.00  0.00     0.183 C 
HETATM   13  O   UNL     1      98.264 -23.718 219.400  1.00  0.00    -0.288 OA
HETATM   14  C   UNL     1      96.974 -21.954 218.583  1.00  0.00     0.065 C 
ENDBRANCH   1   2
BRANCH   1  15
HETATM   15  O   UNL     1      94.310 -19.483 217.993  1.00  0.00    -0.386 OA
ATOM     16  HO  UNL     1      94.640 -18.628 217.743  1.00  0.00     0.210 HD
ENDBRANCH   1  15
BRANCH   1  17
HETATM   17  C   UNL     1      94.680 -20.225 220.287  1.00  0.00     0.162 C 
HETATM   18  N   UNL     1      94.293 -21.604 220.547  1.00  0.00    -0.359 N 
HETATM   19  C   UNL     1      94.857 -22.104 221.627  1.00  0.00     0.018 C 
ATOM     20  HN  UNL     1      93.652 -22.129 219.952  1.00  0.00     0.162 HD
HETATM   21  C   UNL     1      95.986 -21.219 222.065  1.00  0.00     0.062 C 
HETATM   22  C   UNL     1      95.772 -19.919 221.310  1.00  0.00     0.070 C 
BRANCH  19  23
HETATM   23  C   UNL     1      94.241 -23.013 222.579  1.00  0.00    -0.014 C 
HETATM   24  C   UNL     1      95.056 -23.889 223.283  1.00  0.00     0.013 C 
HETATM   25  C   UNL     1      94.685 -25.039 223.949  1.00  0.00     0.001 C 
HETATM   26  C   UNL     1      93.528 -25.766 223.840  1.00  0.00     0.000 C 
HETATM   27  C   UNL     1      92.272 -25.212 223.594  1.00  0.00     0.000 C 
HETATM   28  C   UNL     1      92.021 -23.878 223.338  1.00  0.00     0.001 C 
HETATM   29  C   UNL     1      92.878 -22.920 222.834  1.00  0.00     0.013 C 
ENDBRANCH  19  23
BRANCH  17  30
HETATM   30  O   UNL     1      93.560 -19.402 220.559  1.00  0.00    -0.368 OA
ATOM     31  HO  UNL     1      92.919 -19.549 219.874  1.00  0.00     0.212 HD
ENDBRANCH  17  30
ENDBRANCH   1  17
TORSDOF 5
ENDMDL
MODEL 7
REMARK VINA RESULT:      -8.6      5.002      6.916
REMARK  5 active torsions:
REMARK  status: ('A' for Active; 'I' for Inactive)
REMARK    1  A    between atoms: C_2  and  C_29 
REMARK    2  A    between atoms: C_6  and  C_22 
REMARK    3  A    between atoms: O_7  and  C_25 
REMARK    4  A    between atoms: C_22  and  O_23 
REMARK    5  A    between atoms: C_22  and  C_25 
ROOT
HETATM    1  C   UNL     1      93.564 -28.208 221.835  1.00  0.00     0.206 C 
ENDROOT
BRANCH   1   2
HETATM    2  C   UNL     1      93.428 -27.113 222.867  1.00  0.00    -0.021 C 
HETATM    3  C   UNL     1      92.440 -26.164 222.598  1.00  0.00     0.011 C 
HETATM    4  C   UNL     1      92.605 -24.789 222.692  1.00  0.00     0.013 C 
HETATM    5  C   UNL     1      93.664 -24.050 223.270  1.00  0.00    -0.022 C 
HETATM    6  C   UNL     1      93.409 -22.680 223.184  1.00  0.00     0.012 C 
HETATM    7  C   UNL     1      94.846 -24.598 223.895  1.00  0.00     0.024 C 
HETATM    8  C   UNL     1      94.178 -21.544 223.305  1.00  0.00     0.001 C 
HETATM    9  C   UNL     1      95.523 -21.451 223.626  1.00  0.00     0.000 C 
HETATM   10  C   UNL     1      96.358 -22.538 223.882  1.00  0.00     0.001 C 
HETATM   11  C   UNL     1      96.047 -23.879 223.996  1.00  0.00     0.016 C 
HETATM   12  C   UNL     1      94.908 -25.958 224.513  1.00  0.00     0.183 C 
HETATM   13  O   UNL     1      95.705 -26.091 225.487  1.00  0.00    -0.288 OA
HETATM   14  C   UNL     1      94.175 -27.077 224.029  1.00  0.00     0.065 C 
ENDBRANCH   1   2
BRANCH   1  15
HETATM   15  O   UNL     1      92.375 -28.337 221.084  1.00  0.00    -0.386 OA
ATOM     16  HO  UNL     1      92.320 -27.657 220.422  1.00  0.00     0.210 HD
ENDBRANCH   1  15
BRANCH   1  17
HETATM   17  C   UNL     1      94.808 -28.242 220.943  1.00  0.00     0.162 C 
HETATM   18  N   UNL     1      95.303 -26.882 220.793  1.00  0.00    -0.359 N 
HETATM   19  C   UNL     1      96.573 -26.756 221.117  1.00  0.00     0.018 C 
ATOM     20  HN  UNL     1      94.725 -26.105 220.472  1.00  0.00     0.162 HD
HETATM   21  C   UNL     1      97.029 -27.973 221.865  1.00  0.00     0.062 C 
HETATM   22  C   UNL     1      95.948 -29.009 221.610  1.00  0.00     0.070 C 
BRANCH  19  23
HETATM   23  C   UNL     1      97.551 -25.905 220.459  1.00  0.00    -0.014 C 
HETATM   24  C   UNL     1      98.077 -24.831 221.163  1.00  0.00     0.013 C 
HETATM   25  C   UNL     1      98.722 -23.722 220.654  1.00  0.00     0.001 C 
HETATM   26  C   UNL     1      98.742 -23.246 219.369  1.00  0.00     0.000 C 
HETATM   27  C   UNL     1      98.713 -24.052 218.232  1.00  0.00     0.000 C 
HETATM   28  C   UNL     1      98.574 -25.426 218.227  1.00  0.00     0.001 C 
HETATM   29  C   UNL     1      98.006 -26.239 219.188  1.00  0.00     0.013 C 
ENDBRANCH  19  23
BRANCH  17  30
HETATM   30  O   UNL     1      94.601 -28.773 219.646  1.00  0.00    -0.368 OA
ATOM     31  HO  UNL     1      94.563 -29.719 219.722  1.00  0.00     0.212 HD
ENDBRANCH  17  30
ENDBRANCH   1  17
TORSDOF 5
ENDMDL
MODEL 8
REMARK VINA RESULT:      -8.5      2.344      3.380
REMARK  5 active torsions:
REMARK  status: ('A' for Active; 'I' for Inactive)
REMARK    1  A    between atoms: C_2  and  C_29 
REMARK    2  A    between atoms: C_6  and  C_22 
REMARK    3  A    between atoms: O_7  and  C_25 
REMARK    4  A    between atoms: C_22  and  O_23 
REMARK    5  A    between atoms: C_22  and  C_25 
ROOT
HETATM    1  C   UNL     1      95.597 -22.446 223.751  1.00  0.00     0.206 C 
ENDROOT
BRANCH   1   2
HETATM    2  C   UNL     1      95.325 -23.869 223.324  1.00  0.00    -0.021 C 
HETATM    3  C   UNL     1      96.319 -24.453 222.536  1.00  0.00     0.011 C 
HETATM    4  C   UNL     1      96.097 -25.171 221.369  1.00  0.00     0.013 C 
HETATM    5  C   UNL     1      94.882 -25.665 220.838  1.00  0.00    -0.022 C 
HETATM    6  C   UNL     1      95.117 -26.372 219.657  1.00  0.00     0.012 C 
HETATM    7  C   UNL     1      93.569 -25.508 221.419  1.00  0.00     0.024 C 
HETATM    8  C   UNL     1      94.327 -26.796 218.611  1.00  0.00     0.001 C 
HETATM    9  C   UNL     1      92.954 -26.667 218.468  1.00  0.00     0.000 C 
HETATM   10  C   UNL     1      92.111 -26.052 219.393  1.00  0.00     0.001 C 
HETATM   11  C   UNL     1      92.395 -25.565 220.654  1.00  0.00     0.016 C 
HETATM   12  C   UNL     1      93.324 -25.295 222.879  1.00  0.00     0.183 C 
HETATM   13  O   UNL     1      92.234 -25.750 223.332  1.00  0.00    -0.288 OA
HETATM   14  C   UNL     1      94.210 -24.577 223.730  1.00  0.00     0.065 C 
ENDBRANCH   1   2
BRANCH   1  15
HETATM   15  O   UNL     1      96.955 -22.282 224.105  1.00  0.00    -0.386 OA
ATOM     16  HO  UNL     1      97.294 -23.071 224.510  1.00  0.00     0.210 HD
ENDBRANCH   1  15
BRANCH   1  17
HETATM   17  C   UNL     1      95.094 -21.296 222.874  1.00  0.00     0.162 C 
HETATM   18  N   UNL     1      95.976 -21.175 221.724  1.00  0.00    -0.359 N 
HETATM   19  C   UNL     1      95.334 -21.212 220.574  1.00  0.00     0.018 C 
ATOM     20  HN  UNL     1      96.988 -21.073 221.799  1.00  0.00     0.162 HD
HETATM   21  C   UNL     1      93.937 -21.711 220.791  1.00  0.00     0.062 C 
HETATM   22  C   UNL     1      93.717 -21.606 222.289  1.00  0.00     0.070 C 
BRANCH  19  23
HETATM   23  C   UNL     1      95.648 -20.438 219.385  1.00  0.00    -0.014 C 
HETATM   24  C   UNL     1      96.160 -19.158 219.543  1.00  0.00     0.013 C 
HETATM   25  C   UNL     1      96.199 -18.142 218.609  1.00  0.00     0.001 C 
HETATM   26  C   UNL     1      95.498 -18.017 217.438  1.00  0.00     0.000 C 
HETATM   27  C   UNL     1      95.140 -19.086 216.617  1.00  0.00     0.000 C 
HETATM   28  C   UNL     1      95.358 -20.421 216.901  1.00  0.00     0.001 C 
HETATM   29  C   UNL     1      95.524 -21.025 218.131  1.00  0.00     0.013 C 
ENDBRANCH  19  23
BRANCH  17  30
HETATM   30  O   UNL     1      95.041 -20.033 223.514  1.00  0.00    -0.368 OA
ATOM     31  HO  UNL     1      95.140 -20.177 224.448  1.00  0.00     0.212 HD
ENDBRANCH  17  30
ENDBRANCH   1  17
TORSDOF 5
ENDMDL
MODEL 9
REMARK VINA RESULT:      -8.4      2.723      9.052
REMARK  5 active torsions:
REMARK  status: ('A' for Active; 'I' for Inactive)
REMARK    1  A    between atoms: C_2  and  C_29 
REMARK    2  A    between atoms: C_6  and  C_22 
REMARK    3  A    between atoms: O_7  and  C_25 
REMARK    4  A    between atoms: C_22  and  O_23 
REMARK    5  A    between atoms: C_22  and  C_25 
ROOT
HETATM    1  C   UNL     1      95.260 -19.881 217.082  1.00  0.00     0.206 C 
ENDROOT
BRANCH   1   2
HETATM    2  C   UNL     1      95.440 -18.508 217.686  1.00  0.00    -0.021 C 
HETATM    3  C   UNL     1      94.645 -17.505 217.126  1.00  0.00     0.011 C 
HETATM    4  C   UNL     1      95.092 -16.247 216.748  1.00  0.00     0.013 C 
HETATM    5  C   UNL     1      96.326 -15.613 217.029  1.00  0.00    -0.022 C 
HETATM    6  C   UNL     1      96.347 -14.325 216.489  1.00  0.00     0.012 C 
HETATM    7  C   UNL     1      97.422 -16.173 217.785  1.00  0.00     0.024 C 
HETATM    8  C   UNL     1      97.338 -13.410 216.209  1.00  0.00     0.001 C 
HETATM    9  C   UNL     1      98.697 -13.517 216.461  1.00  0.00     0.000 C 
HETATM   10  C   UNL     1      99.313 -14.616 217.057  1.00  0.00     0.001 C 
HETATM   11  C   UNL     1      98.748 -15.743 217.620  1.00  0.00     0.016 C 
HETATM   12  C   UNL     1      97.261 -17.235 218.824  1.00  0.00     0.183 C 
HETATM   13  O   UNL     1      98.096 -17.215 219.775  1.00  0.00    -0.288 OA
HETATM   14  C   UNL     1      96.277 -18.260 218.757  1.00  0.00     0.065 C 
ENDBRANCH   1   2
BRANCH   1  15
HETATM   15  O   UNL     1      95.814 -19.932 215.783  1.00  0.00    -0.386 OA
ATOM     16  HO  UNL     1      96.580 -19.373 215.722  1.00  0.00     0.210 HD
ENDBRANCH   1  15
BRANCH   1  17
HETATM   17  C   UNL     1      95.634 -21.115 217.909  1.00  0.00     0.162 C 
HETATM   18  N   UNL     1      95.445 -20.797 219.316  1.00  0.00    -0.359 N 
HETATM   19  C   UNL     1      94.668 -21.659 219.940  1.00  0.00     0.018 C 
ATOM     20  HN  UNL     1      95.870 -19.991 219.773  1.00  0.00     0.162 HD
HETATM   21  C   UNL     1      93.941 -22.504 218.937  1.00  0.00     0.062 C 
HETATM   22  C   UNL     1      94.683 -22.277 217.632  1.00  0.00     0.070 C 
BRANCH  19  23
HETATM   23  C   UNL     1      94.828 -22.135 221.304  1.00  0.00    -0.014 C 
HETATM   24  C   UNL     1      94.762 -21.214 222.340  1.00  0.00     0.013 C 
HETATM   25  C   UNL     1      95.218 -21.363 223.634  1.00  0.00     0.001 C 
HETATM   26  C   UNL     1      96.096 -22.286 224.140  1.00  0.00     0.000 C 
HETATM   27  C   UNL     1      96.196 -23.604 223.695  1.00  0.00     0.000 C 
HETATM   28  C   UNL     1      95.497 -24.145 222.633  1.00  0.00     0.001 C 
HETATM   29  C   UNL     1      94.943 -23.499 221.546  1.00  0.00     0.013 C 
ENDBRANCH  19  23
BRANCH  17  30
HETATM   30  O   UNL     1      96.965 -21.567 217.741  1.00  0.00    -0.368 OA
ATOM     31  HO  UNL     1      97.324 -21.139 216.973  1.00  0.00     0.212 HD
ENDBRANCH  17  30
ENDBRANCH   1  17
TORSDOF 5
ENDMDL
