MODEL 1
REMARK VINA RESULT:      -9.0      0.000      0.000
REMARK  4 active torsions:
REMARK  status: ('A' for Active; 'I' for Inactive)
REMARK    1  A    between atoms: N_9  and  C_14 
REMARK       I    between atoms: N_9  and  C_19 
REMARK    2  A    between atoms: C_11  and  C_15 
REMARK    3  A    between atoms: C_15  and  N_17 
REMARK    4  A    between atoms: C_19  and  C_21 
ROOT
HETATM    1  O   UNL     1     -15.501  -5.782  15.415  1.00  0.00    -0.267 OA
HETATM    2  N   UNL     1     -16.647  -6.018  17.351  1.00  0.00    -0.319 N 
ATOM      3  HN  UNL     1     -16.538  -6.091  18.363  1.00  0.00     0.169 HD
HETATM    4  C   UNL     1     -15.536  -5.667  16.614  1.00  0.00     0.256 C 
ENDROOT
BRANCH   2   5
HETATM    5  C   UNL     1     -17.849  -6.267  16.842  1.00  0.00     0.179 C 
HETATM    6  N   UNL     1     -18.402  -6.114  15.685  1.00  0.00    -0.382 N 
ATOM      7  HN  UNL     1     -18.747  -5.205  15.377  1.00  0.00     0.160 HD
BRANCH   6   8
HETATM    8  C   UNL     1     -18.513  -7.303  14.832  1.00  0.00     0.158 C 
BRANCH   8   9
HETATM    9  C   UNL     1     -19.980  -7.606  14.654  1.00  0.00    -0.041 C 
HETATM   10  C   UNL     1     -20.773  -7.766  15.767  1.00  0.00     0.009 C 
HETATM   11  C   UNL     1     -22.130  -7.951  15.650  1.00  0.00     0.001 C 
HETATM   12  C   UNL     1     -22.685  -8.155  14.396  1.00  0.00     0.000 C 
HETATM   13  C   UNL     1     -21.864  -8.181  13.289  1.00  0.00     0.001 C 
HETATM   14  C   UNL     1     -20.519  -7.890  13.419  1.00  0.00     0.009 C 
ENDBRANCH   8   9
ENDBRANCH   6   8
ENDBRANCH   2   5
BRANCH   4  15
HETATM   15  C   UNL     1     -14.373  -5.168  17.419  1.00  0.00     0.038 C 
HETATM   16  C   UNL     1     -13.084  -5.278  16.892  1.00  0.00     0.034 C 
HETATM   17  C   UNL     1     -12.041  -4.699  17.577  1.00  0.00     0.092 C 
HETATM   18  N   UNL     1     -12.328  -3.731  18.519  1.00  0.00    -0.334 N 
HETATM   19  C   UNL     1     -13.517  -3.823  19.233  1.00  0.00     0.246 C 
ATOM     20  HN  UNL     1     -11.679  -2.962  18.688  1.00  0.00     0.168 HD
HETATM   21  C   UNL     1     -14.598  -4.343  18.512  1.00  0.00     0.091 C 
HETATM   22  O   UNL     1     -13.557  -3.363  20.395  1.00  0.00    -0.268 OA
ENDBRANCH   4  15
TORSDOF 4
ENDMDL
MODEL 2
REMARK VINA RESULT:      -8.9      1.159      1.169
REMARK  4 active torsions:
REMARK  status: ('A' for Active; 'I' for Inactive)
REMARK    1  A    between atoms: N_9  and  C_14 
REMARK       I    between atoms: N_9  and  C_19 
REMARK    2  A    between atoms: C_11  and  C_15 
REMARK    3  A    between atoms: C_15  and  N_17 
REMARK    4  A    between atoms: C_19  and  C_21 
ROOT
HETATM    1  O   UNL     1     -16.499  -5.569  19.009  1.00  0.00    -0.267 OA
HETATM    2  N   UNL     1     -16.369  -5.873  16.771  1.00  0.00    -0.319 N 
ATOM      3  HN  UNL     1     -15.795  -5.679  15.950  1.00  0.00     0.169 HD
HETATM    4  C   UNL     1     -15.828  -5.597  18.008  1.00  0.00     0.256 C 
ENDROOT
BRANCH   2   5
HETATM    5  C   UNL     1     -17.584  -6.373  16.567  1.00  0.00     0.179 C 
HETATM    6  N   UNL     1     -18.535  -6.150  15.722  1.00  0.00    -0.382 N 
ATOM      7  HN  UNL     1     -19.163  -5.354  15.827  1.00  0.00     0.160 HD
BRANCH   6   8
HETATM    8  C   UNL     1     -18.672  -7.091  14.604  1.00  0.00     0.158 C 
BRANCH   8   9
HETATM    9  C   UNL     1     -20.116  -7.527  14.545  1.00  0.00    -0.041 C 
HETATM   10  C   UNL     1     -20.793  -7.768  15.718  1.00  0.00     0.009 C 
HETATM   11  C   UNL     1     -22.133  -8.076  15.712  1.00  0.00     0.001 C 
HETATM   12  C   UNL     1     -22.770  -8.322  14.506  1.00  0.00     0.000 C 
HETATM   13  C   UNL     1     -22.047  -8.263  13.334  1.00  0.00     0.001 C 
HETATM   14  C   UNL     1     -20.729  -7.851  13.356  1.00  0.00     0.009 C 
ENDBRANCH   8   9
ENDBRANCH   6   8
ENDBRANCH   2   5
BRANCH   4  15
HETATM   15  C   UNL     1     -14.357  -5.303  18.005  1.00  0.00     0.038 C 
HETATM   16  C   UNL     1     -13.649  -5.388  16.804  1.00  0.00     0.034 C 
HETATM   17  C   UNL     1     -12.333  -4.989  16.786  1.00  0.00     0.092 C 
HETATM   18  N   UNL     1     -11.874  -4.182  17.808  1.00  0.00    -0.334 N 
HETATM   19  C   UNL     1     -12.423  -4.334  19.077  1.00  0.00     0.246 C 
ATOM     20  HN  UNL     1     -11.147  -3.488  17.636  1.00  0.00     0.168 HD
HETATM   21  C   UNL     1     -13.782  -4.666  19.095  1.00  0.00     0.091 C 
HETATM   22  O   UNL     1     -11.711  -4.077  20.073  1.00  0.00    -0.268 OA
ENDBRANCH   4  15
TORSDOF 4
ENDMDL
MODEL 3
REMARK VINA RESULT:      -8.9      1.980      2.769
REMARK  4 active torsions:
REMARK  status: ('A' for Active; 'I' for Inactive)
REMARK    1  A    between atoms: N_9  and  C_14 
REMARK       I    between atoms: N_9  and  C_19 
REMARK    2  A    between atoms: C_11  and  C_15 
REMARK    3  A    between atoms: C_15  and  N_17 
REMARK    4  A    between atoms: C_19  and  C_21 
ROOT
HETATM    1  O   UNL     1     -18.378  -6.841  15.432  1.00  0.00    -0.267 OA
HETATM    2  N   UNL     1     -18.859  -6.615  17.631  1.00  0.00    -0.319 N 
ATOM      3  HN  UNL     1     -18.438  -6.534  18.557  1.00  0.00     0.169 HD
HETATM    4  C   UNL     1     -18.021  -6.529  16.540  1.00  0.00     0.256 C 
ENDROOT
BRANCH   2   5
HETATM    5  C   UNL     1     -20.174  -6.794  17.567  1.00  0.00     0.179 C 
HETATM    6  N   UNL     1     -20.998  -7.204  16.660  1.00  0.00    -0.382 N 
ATOM      7  HN  UNL     1     -21.306  -6.591  15.906  1.00  0.00     0.160 HD
BRANCH   6   8
HETATM    8  C   UNL     1     -21.471  -8.590  16.763  1.00  0.00     0.158 C 
BRANCH   8   9
HETATM    9  C   UNL     1     -22.700  -8.721  15.896  1.00  0.00    -0.041 C 
HETATM   10  C   UNL     1     -23.563  -9.770  16.110  1.00  0.00     0.009 C 
HETATM   11  C   UNL     1     -24.739  -9.875  15.405  1.00  0.00     0.001 C 
HETATM   12  C   UNL     1     -24.977  -9.016  14.344  1.00  0.00     0.000 C 
HETATM   13  C   UNL     1     -24.025  -8.078  14.006  1.00  0.00     0.001 C 
HETATM   14  C   UNL     1     -22.899  -7.923  14.792  1.00  0.00     0.009 C 
ENDBRANCH   8   9
ENDBRANCH   6   8
ENDBRANCH   2   5
BRANCH   4  15
HETATM   15  C   UNL     1     -16.631  -6.053  16.845  1.00  0.00     0.038 C 
HETATM   16  C   UNL     1     -15.746  -5.820  15.790  1.00  0.00     0.034 C 
HETATM   17  C   UNL     1     -14.522  -5.258  16.069  1.00  0.00     0.092 C 
HETATM   18  N   UNL     1     -14.356  -4.604  17.274  1.00  0.00    -0.334 N 
HETATM   19  C   UNL     1     -15.059  -5.059  18.384  1.00  0.00     0.246 C 
ATOM     20  HN  UNL     1     -13.730  -3.802  17.348  1.00  0.00     0.168 HD
HETATM   21  C   UNL     1     -16.335  -5.561  18.108  1.00  0.00     0.091 C 
HETATM   22  O   UNL     1     -14.555  -4.903  19.518  1.00  0.00    -0.268 OA
ENDBRANCH   4  15
TORSDOF 4
ENDMDL
MODEL 4
REMARK VINA RESULT:      -8.8      2.285      7.933
REMARK  4 active torsions:
REMARK  status: ('A' for Active; 'I' for Inactive)
REMARK    1  A    between atoms: N_9  and  C_14 
REMARK       I    between atoms: N_9  and  C_19 
REMARK    2  A    between atoms: C_11  and  C_15 
REMARK    3  A    between atoms: C_15  and  N_17 
REMARK    4  A    between atoms: C_19  and  C_21 
ROOT
HETATM    1  O   UNL     1     -16.754  -5.623  17.797  1.00  0.00    -0.267 OA
HETATM    2  N   UNL     1     -15.998  -5.869  15.679  1.00  0.00    -0.319 N 
ATOM      3  HN  UNL     1     -16.130  -6.402  14.819  1.00  0.00     0.169 HD
HETATM    4  C   UNL     1     -16.940  -6.019  16.674  1.00  0.00     0.256 C 
ENDROOT
BRANCH   2   5
HETATM    5  C   UNL     1     -14.930  -5.081  15.757  1.00  0.00     0.179 C 
HETATM    6  N   UNL     1     -14.182  -4.646  16.716  1.00  0.00    -0.382 N 
ATOM      7  HN  UNL     1     -14.475  -3.870  17.308  1.00  0.00     0.160 HD
BRANCH   6   8
HETATM    8  C   UNL     1     -12.892  -5.317  16.917  1.00  0.00     0.158 C 
BRANCH   8   9
HETATM    9  C   UNL     1     -12.781  -5.670  18.380  1.00  0.00    -0.041 C 
HETATM   10  C   UNL     1     -11.706  -5.207  19.103  1.00  0.00     0.009 C 
HETATM   11  C   UNL     1     -11.615  -5.428  20.457  1.00  0.00     0.001 C 
HETATM   12  C   UNL     1     -12.521  -6.276  21.072  1.00  0.00     0.000 C 
HETATM   13  C   UNL     1     -13.493  -6.893  20.314  1.00  0.00     0.001 C 
HETATM   14  C   UNL     1     -13.630  -6.576  18.976  1.00  0.00     0.009 C 
ENDBRANCH   8   9
ENDBRANCH   6   8
ENDBRANCH   2   5
BRANCH   4  15
HETATM   15  C   UNL     1     -18.189  -6.738  16.260  1.00  0.00     0.038 C 
HETATM   16  C   UNL     1     -19.185  -6.975  17.211  1.00  0.00     0.034 C 
HETATM   17  C   UNL     1     -20.380  -7.514  16.793  1.00  0.00     0.092 C 
HETATM   18  N   UNL     1     -20.701  -7.446  15.452  1.00  0.00    -0.334 N 
HETATM   19  C   UNL     1     -19.675  -7.499  14.515  1.00  0.00     0.246 C 
ATOM     20  HN  UNL     1     -21.672  -7.357  15.154  1.00  0.00     0.168 HD
HETATM   21  C   UNL     1     -18.482  -6.884  14.911  1.00  0.00     0.091 C 
HETATM   22  O   UNL     1     -19.915  -7.991  13.390  1.00  0.00    -0.268 OA
ENDBRANCH   4  15
TORSDOF 4
ENDMDL
MODEL 5
REMARK VINA RESULT:      -8.8      2.489      7.834
REMARK  4 active torsions:
REMARK  status: ('A' for Active; 'I' for Inactive)
REMARK    1  A    between atoms: N_9  and  C_14 
REMARK       I    between atoms: N_9  and  C_19 
REMARK    2  A    between atoms: C_11  and  C_15 
REMARK    3  A    between atoms: C_15  and  N_17 
REMARK    4  A    between atoms: C_19  and  C_21 
ROOT
HETATM    1  O   UNL     1     -16.630  -5.682  17.698  1.00  0.00    -0.267 OA
HETATM    2  N   UNL     1     -15.662  -5.618  15.654  1.00  0.00    -0.319 N 
ATOM      3  HN  UNL     1     -15.705  -6.015  14.715  1.00  0.00     0.169 HD
HETATM    4  C   UNL     1     -16.700  -5.903  16.515  1.00  0.00     0.256 C 
ENDROOT
BRANCH   2   5
HETATM    5  C   UNL     1     -14.609  -4.866  15.957  1.00  0.00     0.179 C 
HETATM    6  N   UNL     1     -13.959  -4.595  17.040  1.00  0.00    -0.382 N 
ATOM      7  HN  UNL     1     -14.311  -3.916  17.714  1.00  0.00     0.160 HD
BRANCH   6   8
HETATM    8  C   UNL     1     -12.693  -5.305  17.258  1.00  0.00     0.158 C 
BRANCH   8   9
HETATM    9  C   UNL     1     -12.663  -5.758  18.697  1.00  0.00    -0.041 C 
HETATM   10  C   UNL     1     -11.664  -5.300  19.524  1.00  0.00     0.009 C 
HETATM   11  C   UNL     1     -11.652  -5.615  20.863  1.00  0.00     0.001 C 
HETATM   12  C   UNL     1     -12.554  -6.547  21.352  1.00  0.00     0.000 C 
HETATM   13  C   UNL     1     -13.440  -7.150  20.486  1.00  0.00     0.001 C 
HETATM   14  C   UNL     1     -13.503  -6.743  19.167  1.00  0.00     0.009 C 
ENDBRANCH   8   9
ENDBRANCH   6   8
ENDBRANCH   2   5
BRANCH   4  15
HETATM   15  C   UNL     1     -17.900  -6.534  15.874  1.00  0.00     0.038 C 
HETATM   16  C   UNL     1     -17.847  -6.876  14.520  1.00  0.00     0.034 C 
HETATM   17  C   UNL     1     -18.900  -7.574  13.976  1.00  0.00     0.092 C 
HETATM   18  N   UNL     1     -19.764  -8.234  14.827  1.00  0.00    -0.334 N 
HETATM   19  C   UNL     1     -20.008  -7.693  16.084  1.00  0.00     0.246 C 
ATOM     20  HN  UNL     1     -20.215  -9.103  14.538  1.00  0.00     0.168 HD
HETATM   21  C   UNL     1     -18.914  -7.048  16.670  1.00  0.00     0.091 C 
HETATM   22  O   UNL     1     -21.120  -7.898  16.620  1.00  0.00    -0.268 OA
ENDBRANCH   4  15
TORSDOF 4
ENDMDL
MODEL 6
REMARK VINA RESULT:      -8.8      1.666      2.443
REMARK  4 active torsions:
REMARK  status: ('A' for Active; 'I' for Inactive)
REMARK    1  A    between atoms: N_9  and  C_14 
REMARK       I    between atoms: N_9  and  C_19 
REMARK    2  A    between atoms: C_11  and  C_15 
REMARK    3  A    between atoms: C_15  and  N_17 
REMARK    4  A    between atoms: C_19  and  C_21 
ROOT
HETATM    1  O   UNL     1     -17.476  -6.136  17.626  1.00  0.00    -0.267 OA
HETATM    2  N   UNL     1     -16.385  -6.066  15.645  1.00  0.00    -0.319 N 
ATOM      3  HN  UNL     1     -15.584  -5.654  15.166  1.00  0.00     0.169 HD
HETATM    4  C   UNL     1     -16.468  -5.896  17.011  1.00  0.00     0.256 C 
ENDROOT
BRANCH   2   5
HETATM    5  C   UNL     1     -17.271  -6.726  14.907  1.00  0.00     0.179 C 
HETATM    6  N   UNL     1     -18.319  -7.439  15.155  1.00  0.00    -0.382 N 
ATOM      7  HN  UNL     1     -18.242  -8.408  15.463  1.00  0.00     0.160 HD
BRANCH   6   8
HETATM    8  C   UNL     1     -19.625  -6.794  14.975  1.00  0.00     0.158 C 
BRANCH   8   9
HETATM    9  C   UNL     1     -20.643  -7.593  15.753  1.00  0.00    -0.041 C 
HETATM   10  C   UNL     1     -21.820  -7.957  15.141  1.00  0.00     0.009 C 
HETATM   11  C   UNL     1     -22.732  -8.762  15.782  1.00  0.00     0.001 C 
HETATM   12  C   UNL     1     -22.550  -9.066  17.122  1.00  0.00     0.000 C 
HETATM   13  C   UNL     1     -21.463  -8.547  17.791  1.00  0.00     0.001 C 
HETATM   14  C   UNL     1     -20.506  -7.827  17.102  1.00  0.00     0.009 C 
ENDBRANCH   8   9
ENDBRANCH   6   8
ENDBRANCH   2   5
BRANCH   4  15
HETATM   15  C   UNL     1     -15.226  -5.361  17.659  1.00  0.00     0.038 C 
HETATM   16  C   UNL     1     -15.280  -4.942  18.991  1.00  0.00     0.034 C 
HETATM   17  C   UNL     1     -14.109  -4.579  19.615  1.00  0.00     0.092 C 
HETATM   18  N   UNL     1     -12.913  -4.993  19.065  1.00  0.00    -0.334 N 
HETATM   19  C   UNL     1     -12.823  -5.127  17.683  1.00  0.00     0.246 C 
ATOM     20  HN  UNL     1     -12.110  -5.198  19.660  1.00  0.00     0.168 HD
HETATM   21  C   UNL     1     -13.993  -5.568  17.057  1.00  0.00     0.091 C 
HETATM   22  O   UNL     1     -11.714  -4.941  17.134  1.00  0.00    -0.268 OA
ENDBRANCH   4  15
TORSDOF 4
ENDMDL
MODEL 7
REMARK VINA RESULT:      -8.4      2.251      3.928
REMARK  4 active torsions:
REMARK  status: ('A' for Active; 'I' for Inactive)
REMARK    1  A    between atoms: N_9  and  C_14 
REMARK       I    between atoms: N_9  and  C_19 
REMARK    2  A    between atoms: C_11  and  C_15 
REMARK    3  A    between atoms: C_15  and  N_17 
REMARK    4  A    between atoms: C_19  and  C_21 
ROOT
HETATM    1  O   UNL     1     -15.414  -3.335  20.137  1.00  0.00    -0.267 OA
HETATM    2  N   UNL     1     -13.963  -4.352  18.730  1.00  0.00    -0.319 N 
ATOM      3  HN  UNL     1     -13.064  -4.241  18.260  1.00  0.00     0.169 HD
HETATM    4  C   UNL     1     -14.296  -3.429  19.698  1.00  0.00     0.256 C 
ENDROOT
BRANCH   2   5
HETATM    5  C   UNL     1     -14.727  -5.375  18.362  1.00  0.00     0.179 C 
HETATM    6  N   UNL     1     -15.884  -5.498  17.801  1.00  0.00    -0.382 N 
ATOM      7  HN  UNL     1     -16.747  -5.381  18.331  1.00  0.00     0.160 HD
BRANCH   6   8
HETATM    8  C   UNL     1     -15.903  -5.813  16.367  1.00  0.00     0.158 C 
BRANCH   8   9
HETATM    9  C   UNL     1     -17.260  -6.388  16.041  1.00  0.00    -0.041 C 
HETATM   10  C   UNL     1     -17.613  -6.571  14.724  1.00  0.00     0.009 C 
HETATM   11  C   UNL     1     -18.800  -7.176  14.386  1.00  0.00     0.001 C 
HETATM   12  C   UNL     1     -19.733  -7.447  15.375  1.00  0.00     0.000 C 
HETATM   13  C   UNL     1     -19.459  -7.093  16.678  1.00  0.00     0.001 C 
HETATM   14  C   UNL     1     -18.219  -6.581  17.009  1.00  0.00     0.009 C 
ENDBRANCH   8   9
ENDBRANCH   6   8
ENDBRANCH   2   5
BRANCH   4  15
HETATM   15  C   UNL     1     -13.172  -2.536  20.134  1.00  0.00     0.038 C 
HETATM   16  C   UNL     1     -12.086  -3.091  20.814  1.00  0.00     0.034 C 
HETATM   17  C   UNL     1     -11.002  -2.291  21.091  1.00  0.00     0.092 C 
HETATM   18  N   UNL     1     -10.851  -1.117  20.380  1.00  0.00    -0.334 N 
HETATM   19  C   UNL     1     -11.990  -0.438  19.961  1.00  0.00     0.246 C 
ATOM     20  HN  UNL     1      -9.922  -0.755  20.166  1.00  0.00     0.168 HD
HETATM   21  C   UNL     1     -13.068  -1.256  19.607  1.00  0.00     0.091 C 
HETATM   22  O   UNL     1     -11.937   0.807  19.844  1.00  0.00    -0.268 OA
ENDBRANCH   4  15
TORSDOF 4
ENDMDL
MODEL 8
REMARK VINA RESULT:      -8.2      1.312      1.800
REMARK  4 active torsions:
REMARK  status: ('A' for Active; 'I' for Inactive)
REMARK    1  A    between atoms: N_9  and  C_14 
REMARK       I    between atoms: N_9  and  C_19 
REMARK    2  A    between atoms: C_11  and  C_15 
REMARK    3  A    between atoms: C_15  and  N_17 
REMARK    4  A    between atoms: C_19  and  C_21 
ROOT
HETATM    1  O   UNL     1     -16.465  -5.563  18.676  1.00  0.00    -0.267 OA
HETATM    2  N   UNL     1     -15.574  -5.417  16.601  1.00  0.00    -0.319 N 
ATOM      3  HN  UNL     1     -14.792  -5.033  16.072  1.00  0.00     0.169 HD
HETATM    4  C   UNL     1     -15.505  -5.354  17.977  1.00  0.00     0.256 C 
ENDROOT
BRANCH   2   5
HETATM    5  C   UNL     1     -16.584  -5.941  15.914  1.00  0.00     0.179 C 
HETATM    6  N   UNL     1     -17.339  -6.981  16.048  1.00  0.00    -0.382 N 
ATOM      7  HN  UNL     1     -17.016  -7.910  15.780  1.00  0.00     0.160 HD
BRANCH   6   8
HETATM    8  C   UNL     1     -18.682  -6.767  16.600  1.00  0.00     0.158 C 
BRANCH   8   9
HETATM    9  C   UNL     1     -19.681  -7.273  15.589  1.00  0.00    -0.041 C 
HETATM   10  C   UNL     1     -19.345  -7.271  14.255  1.00  0.00     0.009 C 
HETATM   11  C   UNL     1     -20.189  -7.808  13.311  1.00  0.00     0.001 C 
HETATM   12  C   UNL     1     -21.467  -8.195  13.680  1.00  0.00     0.000 C 
HETATM   13  C   UNL     1     -21.874  -8.025  14.986  1.00  0.00     0.001 C 
HETATM   14  C   UNL     1     -20.977  -7.580  15.938  1.00  0.00     0.009 C 
ENDBRANCH   8   9
ENDBRANCH   6   8
ENDBRANCH   2   5
BRANCH   4  15
HETATM   15  C   UNL     1     -14.162  -4.977  18.527  1.00  0.00     0.038 C 
HETATM   16  C   UNL     1     -13.089  -5.855  18.365  1.00  0.00     0.034 C 
HETATM   17  C   UNL     1     -11.835  -5.443  18.753  1.00  0.00     0.092 C 
HETATM   18  N   UNL     1     -11.609  -4.092  18.922  1.00  0.00    -0.334 N 
HETATM   19  C   UNL     1     -12.654  -3.289  19.367  1.00  0.00     0.246 C 
ATOM     20  HN  UNL     1     -10.692  -3.690  18.725  1.00  0.00     0.168 HD
HETATM   21  C   UNL     1     -13.921  -3.665  18.909  1.00  0.00     0.091 C 
HETATM   22  O   UNL     1     -12.382  -2.270  20.040  1.00  0.00    -0.268 OA
ENDBRANCH   4  15
TORSDOF 4
ENDMDL
MODEL 9
REMARK VINA RESULT:      -8.2      2.336      8.556
REMARK  4 active torsions:
REMARK  status: ('A' for Active; 'I' for Inactive)
REMARK    1  A    between atoms: N_9  and  C_14 
REMARK       I    between atoms: N_9  and  C_19 
REMARK    2  A    between atoms: C_11  and  C_15 
REMARK    3  A    between atoms: C_15  and  N_17 
REMARK    4  A    between atoms: C_19  and  C_21 
ROOT
HETATM    1  O   UNL     1     -15.386  -5.739  15.779  1.00  0.00    -0.267 OA
HETATM    2  N   UNL     1     -16.339  -5.690  17.830  1.00  0.00    -0.319 N 
ATOM      3  HN  UNL     1     -17.237  -5.684  18.315  1.00  0.00     0.169 HD
HETATM    4  C   UNL     1     -16.350  -5.939  16.474  1.00  0.00     0.256 C 
ENDROOT
BRANCH   2   5
HETATM    5  C   UNL     1     -15.248  -5.457  18.551  1.00  0.00     0.179 C 
HETATM    6  N   UNL     1     -14.489  -4.432  18.757  1.00  0.00    -0.382 N 
ATOM      7  HN  UNL     1     -13.785  -4.146  18.077  1.00  0.00     0.160 HD
BRANCH   6   8
HETATM    8  C   UNL     1     -14.684  -3.696  20.013  1.00  0.00     0.158 C 
BRANCH   8   9
HETATM    9  C   UNL     1     -13.478  -2.812  20.218  1.00  0.00    -0.041 C 
HETATM   10  C   UNL     1     -13.503  -1.522  19.739  1.00  0.00     0.009 C 
HETATM   11  C   UNL     1     -12.464  -0.655  19.985  1.00  0.00     0.001 C 
HETATM   12  C   UNL     1     -11.301  -1.133  20.569  1.00  0.00     0.000 C 
HETATM   13  C   UNL     1     -11.202  -2.472  20.882  1.00  0.00     0.001 C 
HETATM   14  C   UNL     1     -12.295  -3.302  20.721  1.00  0.00     0.009 C 
ENDBRANCH   8   9
ENDBRANCH   6   8
ENDBRANCH   2   5
BRANCH   4  15
HETATM   15  C   UNL     1     -17.654  -6.443  15.932  1.00  0.00     0.038 C 
HETATM   16  C   UNL     1     -17.736  -6.812  14.588  1.00  0.00     0.034 C 
HETATM   17  C   UNL     1     -18.895  -7.396  14.134  1.00  0.00     0.092 C 
HETATM   18  N   UNL     1     -19.765  -7.940  15.058  1.00  0.00    -0.334 N 
HETATM   19  C   UNL     1     -19.858  -7.354  16.316  1.00  0.00     0.246 C 
ATOM     20  HN  UNL     1     -20.328  -8.758  14.824  1.00  0.00     0.168 HD
HETATM   21  C   UNL     1     -18.660  -6.825  16.809  1.00  0.00     0.091 C 
HETATM   22  O   UNL     1     -20.944  -7.423  16.931  1.00  0.00    -0.268 OA
ENDBRANCH   4  15
TORSDOF 4
ENDMDL
