REMARK  4 active torsions:
REMARK  status: ('A' for Active; 'I' for Inactive)
REMARK    1  A    between atoms: C_7  and  O_13 
REMARK    2  A    between atoms: C_7  and  O_15 
REMARK    3  A    between atoms: N_9  and  C_17 
REMARK    4  A    between atoms: N_9  and  C_23 
ROOT
HETATM    1  N   UNL     1     -15.307  -5.903  17.016  1.00  0.00    -0.342 N 
ATOM      2  HN  UNL     1     -14.655  -6.623  16.706  1.00  0.00     0.167 HD
ENDROOT
BRANCH   1   3
HETATM    3  C   UNL     1     -16.558  -6.126  16.443  1.00  0.00     0.033 C 
HETATM    4  C   UNL     1     -16.615  -6.308  15.072  1.00  0.00     0.031 C 
HETATM    5  C   UNL     1     -17.612  -7.034  14.488  1.00  0.00     0.047 C 
HETATM    6  C   UNL     1     -18.826  -7.415  15.213  1.00  0.00     0.199 C 
HETATM    7  C   UNL     1     -18.878  -6.847  16.586  1.00  0.00     0.047 C 
HETATM    8  C   UNL     1     -17.743  -6.296  17.165  1.00  0.00     0.031 C 
BRANCH   6   9
HETATM    9  O   UNL     1     -18.938  -8.810  15.236  1.00  0.00    -0.359 OA
ATOM     10  HO  UNL     1     -18.905  -9.173  14.359  1.00  0.00     0.213 HD
ENDBRANCH   6   9
BRANCH   6  11
HETATM   11  O   UNL     1     -19.982  -6.990  14.481  1.00  0.00    -0.359 OA
ATOM     12  HO  UNL     1     -19.949  -7.353  13.604  1.00  0.00     0.213 HD
ENDBRANCH   6  11
ENDBRANCH   1   3
BRANCH   1  13
HETATM   13  C   UNL     1     -14.664  -5.030  17.862  1.00  0.00     0.108 A 
HETATM   14  C   UNL     1     -13.273  -4.958  18.037  1.00  0.00     0.088 A 
HETATM   15  C   UNL     1     -13.052  -3.945  18.971  1.00  0.00     0.109 A 
HETATM   16  C   UNL     1     -14.312  -3.414  19.366  1.00  0.00     0.068 A 
HETATM   17  O   UNL     1     -11.903  -3.343  19.431  1.00  0.00    -0.273 OA
HETATM   18  C   UNL     1     -14.329  -2.041  19.691  1.00  0.00     0.038 C 
HETATM   19  N   UNL     1     -15.258  -4.115  18.663  1.00  0.00    -0.340 N 
HETATM   20  C   UNL     1     -13.219  -1.490  20.265  1.00  0.00     0.085 C 
HETATM   21  C   UNL     1     -11.933  -1.959  19.808  1.00  0.00     0.288 C 
HETATM   22  O   UNL     1     -10.887  -1.350  19.961  1.00  0.00    -0.260 OA
ATOM     23  HN  UNL     1     -16.265  -3.968  18.734  1.00  0.00     0.167 HD
ENDBRANCH   1  13
TORSDOF 4
