REMARK  6 active torsions:
REMARK  status: ('A' for Active; 'I' for Inactive)
REMARK    1  A    between atoms: C_3  and  C_21 
REMARK    2  A    between atoms: C_9  and  C_28 
REMARK    3  A    between atoms: O_11  and  C_18 
REMARK    4  A    between atoms: O_22  and  C_32 
REMARK    5  A    between atoms: O_24  and  C_29 
REMARK    6  A    between atoms: C_27  and  C_34 
ROOT
HETATM    1  C   UNL     1      15.779  26.754 -13.246  1.00  0.00     0.046 C 
HETATM    2  C   UNL     1      13.668  25.253 -13.419  1.00  0.00     0.087 C 
HETATM    3  C   UNL     1      16.789  22.150 -13.944  1.00  0.00     0.040 C 
HETATM    4  C   UNL     1      16.926  23.506 -14.117  1.00  0.00     0.015 C 
HETATM    5  C   UNL     1      14.292  26.546 -12.938  1.00  0.00     0.011 C 
HETATM    6  C   UNL     1      13.955  23.023 -14.415  1.00  0.00     0.047 C 
HETATM    7 CL   UNL     1      13.730  27.121 -11.569  1.00  0.00    -0.092 Cl
HETATM    8  C   UNL     1      15.936  24.477 -14.197  1.00  0.00    -0.021 C 
HETATM    9  C   UNL     1      16.306  25.840 -14.318  1.00  0.00    -0.019 C 
HETATM   10  C   UNL     1      15.669  21.383 -13.763  1.00  0.00     0.098 C 
HETATM   11  C   UNL     1      14.564  24.202 -14.023  1.00  0.00    -0.040 C 
HETATM   12  C   UNL     1      14.394  21.727 -14.202  1.00  0.00     0.099 C 
HETATM   13  C   UNL     1      16.551  26.520 -11.957  1.00  0.00     0.031 C 
ENDROOT
BRANCH   9  14
HETATM   14  C   UNL     1      17.273  26.211 -15.312  1.00  0.00    -0.028 C 
HETATM   15  C   UNL     1      16.910  26.439 -16.636  1.00  0.00     0.013 C 
HETATM   16  C   UNL     1      17.641  26.514 -17.801  1.00  0.00     0.019 C 
HETATM   17  C   UNL     1      18.996  26.449 -18.048  1.00  0.00     0.040 C 
HETATM   18  C   UNL     1      19.920  26.154 -17.070  1.00  0.00     0.018 C 
HETATM   19  C   UNL     1      19.719  26.224 -15.712  1.00  0.00     0.002 C 
HETATM   20  C   UNL     1      18.597  26.325 -14.937  1.00  0.00     0.012 C 
BRANCH  17  21
HETATM   21  C   UNL     1      19.595  26.702 -19.401  1.00  0.00     0.209 C 
HETATM   22  O   UNL     1      20.109  25.708 -19.977  1.00  0.00    -0.644 OA
HETATM   23  O   UNL     1      19.702  27.843 -19.860  1.00  0.00    -0.644 OA
ENDBRANCH  17  21
ENDBRANCH   9  14
BRANCH   1  24
HETATM   24  C   UNL     1      15.879  28.195 -13.665  1.00  0.00    -0.040 C 
HETATM   25  C   UNL     1      14.873  28.766 -14.455  1.00  0.00     0.011 C 
HETATM   26  C   UNL     1      14.760  30.153 -14.522  1.00  0.00     0.037 C 
HETATM   27  C   UNL     1      15.722  30.965 -13.937  1.00  0.00     0.065 C 
HETATM   28  C   UNL     1      16.831  30.393 -13.342  1.00  0.00     0.037 C 
HETATM   29  C   UNL     1      16.937  29.006 -13.245  1.00  0.00     0.011 C 
BRANCH  27  30
HETATM   30  O   UNL     1      15.574  32.318 -14.006  1.00  0.00    -0.361 OA
ATOM     31  HO  UNL     1      14.812  32.711 -14.415  1.00  0.00     0.217 HD
ENDBRANCH  27  30
ENDBRANCH   1  24
BRANCH  10  32
HETATM   32  O   UNL     1      15.824  20.180 -13.139  1.00  0.00    -0.358 OA
ATOM     33  HO  UNL     1      15.047  19.648 -13.013  1.00  0.00     0.217 HD
ENDBRANCH  10  32
BRANCH  12  34
HETATM   34  O   UNL     1      13.546  20.695 -14.465  1.00  0.00    -0.358 OA
ATOM     35  HO  UNL     1      13.847  19.806 -14.319  1.00  0.00     0.217 HD
ENDBRANCH  12  34
TORSDOF 6
