REMARK  1 active torsions:
REMARK  status: ('A' for Active; 'I' for Inactive)
REMARK    1  A    between atoms: C_1  and  C_13 
ROOT
HETATM    1  C   UNL     1     -26.756 -13.621 -22.383  1.00  0.00     0.030 C 
HETATM    2  C   UNL     1     -24.538 -11.873 -22.047  1.00  0.00    -0.047 C 
HETATM    3  C   UNL     1     -26.905 -12.259 -22.247  1.00  0.00     0.003 C 
HETATM    4  C   UNL     1     -25.813 -11.391 -22.303  1.00  0.00     0.008 C 
HETATM    5  N   UNL     1     -24.426 -14.066 -22.920  1.00  0.00    -0.365 N 
ATOM      6  HN  UNL     1     -23.795 -14.796 -23.252  1.00  0.00     0.165 HD
HETATM    7  C   UNL     1     -23.974 -12.819 -22.895  1.00  0.00     0.095 C 
HETATM    8  C   UNL     1     -23.844 -11.459 -20.773  1.00  0.00     0.049 C 
HETATM    9  C   UNL     1     -25.652 -14.427 -22.539  1.00  0.00     0.042 C 
ENDROOT
BRANCH   9  10
HETATM   10  C   UNL     1     -25.831 -15.881 -22.339  1.00  0.00    -0.009 C 
HETATM   11  C   UNL     1     -25.781 -16.397 -21.062  1.00  0.00     0.013 C 
HETATM   12  C   UNL     1     -26.211 -17.644 -20.685  1.00  0.00     0.001 C 
HETATM   13  C   UNL     1     -26.200 -18.808 -21.391  1.00  0.00     0.000 C 
HETATM   14  C   UNL     1     -26.160 -18.988 -22.746  1.00  0.00     0.000 C 
HETATM   15  C   UNL     1     -26.018 -18.004 -23.684  1.00  0.00     0.001 C 
HETATM   16  C   UNL     1     -25.978 -16.649 -23.475  1.00  0.00     0.013 C 
ENDBRANCH   9  10
TORSDOF 1
