MODEL 1
REMARK VINA RESULT:      -8.2      0.000      0.000
REMARK  0 active torsions:
REMARK  status: ('A' for Active; 'I' for Inactive)
ROOT
HETATM    1  C   UNL     1     -26.129 -11.447 -21.690  1.00  0.00     0.008 C 
HETATM    2  C   UNL     1     -25.841 -13.747 -22.581  1.00  0.00    -0.019 C 
HETATM    3  C   UNL     1     -26.621 -12.669 -22.084  1.00  0.00    -0.047 C 
HETATM    4  C   UNL     1     -26.623 -17.386 -23.066  1.00  0.00     0.001 C 
HETATM    5  C   UNL     1     -27.400 -15.281 -21.474  1.00  0.00    -0.047 C 
HETATM    6  C   UNL     1     -24.525 -13.578 -22.959  1.00  0.00     0.013 C 
HETATM    7  C   UNL     1     -28.301 -14.168 -21.018  1.00  0.00     0.044 C 
HETATM    8  C   UNL     1     -23.784 -11.298 -22.250  1.00  0.00     0.000 C 
HETATM    9  C   UNL     1     -27.052 -17.639 -21.763  1.00  0.00     0.001 C 
HETATM   10  C   UNL     1     -27.420 -16.564 -20.943  1.00  0.00     0.008 C 
HETATM   11  C   UNL     1     -26.462 -15.048 -22.507  1.00  0.00    -0.019 C 
HETATM   12  C   UNL     1     -26.290 -16.078 -23.448  1.00  0.00     0.013 C 
HETATM   13  C   UNL     1     -23.633 -12.575 -22.719  1.00  0.00     0.001 C 
HETATM   14  C   UNL     1     -28.097 -12.922 -21.871  1.00  0.00     0.044 C 
HETATM   15  C   UNL     1     -25.013 -10.727 -22.034  1.00  0.00     0.001 C 
ENDROOT
TORSDOF 0
ENDMDL
MODEL 2
REMARK VINA RESULT:      -6.4      1.482      4.839
REMARK  0 active torsions:
REMARK  status: ('A' for Active; 'I' for Inactive)
ROOT
HETATM    1  C   UNL     1     -25.313 -15.979 -21.186  1.00  0.00     0.008 C 
HETATM    2  C   UNL     1     -27.410 -14.950 -22.031  1.00  0.00    -0.019 C 
HETATM    3  C   UNL     1     -25.996 -15.030 -21.910  1.00  0.00    -0.047 C 
HETATM    4  C   UNL     1     -29.665 -12.206 -23.243  1.00  0.00     0.001 C 
HETATM    5  C   UNL     1     -27.187 -12.509 -22.088  1.00  0.00    -0.047 C 
HETATM    6  C   UNL     1     -28.233 -15.985 -21.635  1.00  0.00     0.013 C 
HETATM    7  C   UNL     1     -25.685 -12.564 -22.061  1.00  0.00     0.044 C 
HETATM    8  C   UNL     1     -26.854 -17.666 -20.402  1.00  0.00     0.000 C 
HETATM    9  C   UNL     1     -29.179 -11.206 -22.400  1.00  0.00     0.001 C 
HETATM   10  C   UNL     1     -27.930 -11.375 -21.789  1.00  0.00     0.008 C 
HETATM   11  C   UNL     1     -27.925 -13.664 -22.437  1.00  0.00    -0.019 C 
HETATM   12  C   UNL     1     -29.057 -13.469 -23.248  1.00  0.00     0.013 C 
HETATM   13  C   UNL     1     -28.004 -17.078 -20.854  1.00  0.00     0.001 C 
HETATM   14  C   UNL     1     -25.182 -13.920 -22.537  1.00  0.00     0.044 C 
HETATM   15  C   UNL     1     -25.606 -17.266 -20.809  1.00  0.00     0.001 C 
ENDROOT
TORSDOF 0
ENDMDL
MODEL 3
REMARK VINA RESULT:      -6.2      3.209      6.478
REMARK  0 active torsions:
REMARK  status: ('A' for Active; 'I' for Inactive)
ROOT
HETATM    1  C   UNL     1     -23.757 -20.432 -23.745  1.00  0.00     0.008 C 
HETATM    2  C   UNL     1     -24.841 -19.283 -21.828  1.00  0.00    -0.019 C 
HETATM    3  C   UNL     1     -24.782 -19.708 -23.183  1.00  0.00    -0.047 C 
HETATM    4  C   UNL     1     -27.000 -16.751 -20.092  1.00  0.00     0.001 C 
HETATM    5  C   UNL     1     -25.980 -17.253 -22.597  1.00  0.00    -0.047 C 
HETATM    6  C   UNL     1     -23.982 -19.784 -20.871  1.00  0.00     0.013 C 
HETATM    7  C   UNL     1     -26.022 -17.719 -24.026  1.00  0.00     0.044 C 
HETATM    8  C   UNL     1     -22.219 -21.135 -22.019  1.00  0.00     0.000 C 
HETATM    9  C   UNL     1     -26.714 -15.679 -20.939  1.00  0.00     0.001 C 
HETATM   10  C   UNL     1     -26.167 -15.935 -22.203  1.00  0.00     0.008 C 
HETATM   11  C   UNL     1     -25.740 -18.186 -21.561  1.00  0.00    -0.019 C 
HETATM   12  C   UNL     1     -26.485 -18.023 -20.380  1.00  0.00     0.013 C 
HETATM   13  C   UNL     1     -22.814 -20.480 -20.976  1.00  0.00     0.001 C 
HETATM   14  C   UNL     1     -25.881 -19.234 -24.107  1.00  0.00     0.044 C 
HETATM   15  C   UNL     1     -22.835 -21.310 -23.233  1.00  0.00     0.001 C 
ENDROOT
TORSDOF 0
ENDMDL
MODEL 4
REMARK VINA RESULT:      -6.2      1.389      2.674
REMARK  0 active torsions:
REMARK  status: ('A' for Active; 'I' for Inactive)
ROOT
HETATM    1  C   UNL     1     -27.484 -14.024 -20.978  1.00  0.00     0.008 C 
HETATM    2  C   UNL     1     -26.272 -15.682 -22.374  1.00  0.00    -0.019 C 
HETATM    3  C   UNL     1     -27.307 -15.291 -21.483  1.00  0.00    -0.047 C 
HETATM    4  C   UNL     1     -24.997 -19.061 -23.396  1.00  0.00     0.001 C 
HETATM    5  C   UNL     1     -26.244 -17.864 -21.257  1.00  0.00    -0.047 C 
HETATM    6  C   UNL     1     -25.486 -14.756 -23.028  1.00  0.00     0.013 C 
HETATM    7  C   UNL     1     -27.403 -17.515 -20.366  1.00  0.00     0.044 C 
HETATM    8  C   UNL     1     -25.961 -12.497 -22.068  1.00  0.00     0.000 C 
HETATM    9  C   UNL     1     -24.757 -19.545 -22.110  1.00  0.00     0.001 C 
HETATM   10  C   UNL     1     -25.369 -18.916 -21.018  1.00  0.00     0.008 C 
HETATM   11  C   UNL     1     -25.996 -17.099 -22.420  1.00  0.00    -0.019 C 
HETATM   12  C   UNL     1     -25.597 -17.806 -23.567  1.00  0.00     0.013 C 
HETATM   13  C   UNL     1     -25.288 -13.424 -22.816  1.00  0.00     0.001 C 
HETATM   14  C   UNL     1     -28.222 -16.377 -20.962  1.00  0.00     0.044 C 
HETATM   15  C   UNL     1     -27.148 -12.774 -21.434  1.00  0.00     0.001 C 
ENDROOT
TORSDOF 0
ENDMDL
MODEL 5
REMARK VINA RESULT:      -5.7      4.093      6.742
REMARK  0 active torsions:
REMARK  status: ('A' for Active; 'I' for Inactive)
ROOT
HETATM    1  C   UNL     1     -25.377 -18.162 -20.953  1.00  0.00     0.008 C 
HETATM    2  C   UNL     1     -24.879 -19.443 -23.021  1.00  0.00    -0.019 C 
HETATM    3  C   UNL     1     -24.849 -19.246 -21.615  1.00  0.00    -0.047 C 
HETATM    4  C   UNL     1     -22.990 -21.792 -25.258  1.00  0.00     0.001 C 
HETATM    5  C   UNL     1     -22.686 -20.524 -22.836  1.00  0.00    -0.047 C 
HETATM    6  C   UNL     1     -25.677 -18.677 -23.846  1.00  0.00     0.013 C 
HETATM    7  C   UNL     1     -22.670 -20.419 -21.336  1.00  0.00     0.044 C 
HETATM    8  C   UNL     1     -26.626 -16.794 -22.503  1.00  0.00     0.000 C 
HETATM    9  C   UNL     1     -21.710 -21.436 -24.831  1.00  0.00     0.001 C 
HETATM   10  C   UNL     1     -21.560 -20.764 -23.611  1.00  0.00     0.008 C 
HETATM   11  C   UNL     1     -23.906 -20.377 -23.537  1.00  0.00    -0.019 C 
HETATM   12  C   UNL     1     -24.114 -21.236 -24.630  1.00  0.00     0.013 C 
HETATM   13  C   UNL     1     -26.327 -17.497 -23.638  1.00  0.00     0.001 C 
HETATM   14  C   UNL     1     -24.082 -20.254 -20.789  1.00  0.00     0.044 C 
HETATM   15  C   UNL     1     -26.391 -17.286 -21.243  1.00  0.00     0.001 C 
ENDROOT
TORSDOF 0
ENDMDL
MODEL 6
REMARK VINA RESULT:      -5.6      1.194      4.707
REMARK  0 active torsions:
REMARK  status: ('A' for Active; 'I' for Inactive)
ROOT
HETATM    1  C   UNL     1     -28.387 -15.567 -22.423  1.00  0.00     0.008 C 
HETATM    2  C   UNL     1     -26.292 -14.426 -21.733  1.00  0.00    -0.019 C 
HETATM    3  C   UNL     1     -27.704 -14.514 -21.861  1.00  0.00    -0.047 C 
HETATM    4  C   UNL     1     -24.026 -11.533 -20.970  1.00  0.00     0.001 C 
HETATM    5  C   UNL     1     -26.490 -12.009 -22.096  1.00  0.00    -0.047 C 
HETATM    6  C   UNL     1     -25.474 -15.519 -21.933  1.00  0.00     0.013 C 
HETATM    7  C   UNL     1     -27.992 -12.055 -22.137  1.00  0.00     0.044 C 
HETATM    8  C   UNL     1     -26.853 -17.375 -22.884  1.00  0.00     0.000 C 
HETATM    9  C   UNL     1     -24.489 -10.688 -21.978  1.00  0.00     0.001 C 
HETATM   10  C   UNL     1     -25.731 -10.949 -22.572  1.00  0.00     0.008 C 
HETATM   11  C   UNL     1     -25.768 -13.094 -21.544  1.00  0.00    -0.019 C 
HETATM   12  C   UNL     1     -24.647 -12.772 -20.759  1.00  0.00     0.013 C 
HETATM   13  C   UNL     1     -25.703 -16.728 -22.520  1.00  0.00     0.001 C 
HETATM   14  C   UNL     1     -28.515 -13.307 -21.445  1.00  0.00     0.044 C 
HETATM   15  C   UNL     1     -28.103 -16.901 -22.571  1.00  0.00     0.001 C 
ENDROOT
TORSDOF 0
ENDMDL
MODEL 7
REMARK VINA RESULT:      -5.4      2.221      4.449
REMARK  0 active torsions:
REMARK  status: ('A' for Active; 'I' for Inactive)
ROOT
HETATM    1  C   UNL     1     -26.664 -15.906 -20.574  1.00  0.00     0.008 C 
HETATM    2  C   UNL     1     -26.265 -17.225 -22.640  1.00  0.00    -0.019 C 
HETATM    3  C   UNL     1     -26.456 -17.092 -21.239  1.00  0.00    -0.047 C 
HETATM    4  C   UNL     1     -24.974 -20.064 -24.729  1.00  0.00     0.001 C 
HETATM    5  C   UNL     1     -24.727 -19.077 -22.173  1.00  0.00    -0.047 C 
HETATM    6  C   UNL     1     -26.528 -16.189 -23.512  1.00  0.00     0.013 C 
HETATM    7  C   UNL     1     -24.985 -19.025 -20.693  1.00  0.00     0.044 C 
HETATM    8  C   UNL     1     -26.959 -14.120 -22.175  1.00  0.00     0.000 C 
HETATM    9  C   UNL     1     -23.773 -20.244 -24.042  1.00  0.00     0.001 C 
HETATM   10  C   UNL     1     -23.638 -19.715 -22.752  1.00  0.00     0.008 C 
HETATM   11  C   UNL     1     -25.628 -18.449 -23.065  1.00  0.00    -0.019 C 
HETATM   12  C   UNL     1     -25.912 -19.132 -24.261  1.00  0.00     0.013 C 
HETATM   13  C   UNL     1     -26.716 -14.854 -23.304  1.00  0.00     0.001 C 
HETATM   14  C   UNL     1     -26.312 -18.340 -20.397  1.00  0.00     0.044 C 
HETATM   15  C   UNL     1     -27.192 -14.697 -20.951  1.00  0.00     0.001 C 
ENDROOT
TORSDOF 0
ENDMDL
