REMARK  0 active torsions:
REMARK  status: ('A' for Active; 'I' for Inactive)
ROOT
HETATM    1  C   UNL     1     -25.670 -11.029 -21.412  1.00  0.00     0.008 C 
HETATM    2  C   UNL     1     -25.574 -13.204 -22.607  1.00  0.00    -0.019 C 
HETATM    3  C   UNL     1     -26.254 -12.172 -21.906  1.00  0.00    -0.047 C 
HETATM    4  C   UNL     1     -26.569 -16.720 -23.464  1.00  0.00     0.001 C 
HETATM    5  C   UNL     1     -27.096 -14.812 -21.554  1.00  0.00    -0.047 C 
HETATM    6  C   UNL     1     -24.292 -13.034 -23.088  1.00  0.00     0.013 C 
HETATM    7  C   UNL     1     -27.897 -13.735 -20.877  1.00  0.00     0.044 C 
HETATM    8  C   UNL     1     -23.382 -10.892 -22.175  1.00  0.00     0.000 C 
HETATM    9  C   UNL     1     -26.888 -17.124 -22.167  1.00  0.00     0.001 C 
HETATM   10  C   UNL     1     -27.127 -16.151 -21.188  1.00  0.00     0.008 C 
HETATM   11  C   UNL     1     -26.247 -14.481 -22.636  1.00  0.00    -0.019 C 
HETATM   12  C   UNL     1     -26.211 -15.387 -23.710  1.00  0.00     0.013 C 
HETATM   13  C   UNL     1     -23.336 -12.102 -22.812  1.00  0.00     0.001 C 
HETATM   14  C   UNL     1     -27.714 -12.398 -21.583  1.00  0.00     0.044 C 
HETATM   15  C   UNL     1     -24.558 -10.310 -21.771  1.00  0.00     0.001 C 
ENDROOT
TORSDOF 0
