MODEL 1
REMARK VINA RESULT:     -11.2      0.000      0.000
REMARK  4 active torsions:
REMARK  status: ('A' for Active; 'I' for Inactive)
REMARK    1  A    between atoms: C_2  and  O_21 
REMARK    2  A    between atoms: O_5  and  C_19 
REMARK    3  A    between atoms: C_11  and  O_30 
REMARK    4  A    between atoms: C_14  and  C_29 
ROOT
HETATM    1  C   UNL     1      -4.992  19.760  36.312  1.00  0.00     0.048 C 
HETATM    2  C   UNL     1      -2.001  17.244  28.076  1.00  0.00     0.065 C 
HETATM    3  N   UNL     1      -2.395  19.744  32.859  1.00  0.00    -0.334 N 
ATOM      4  HN  UNL     1      -1.487  20.209  32.847  1.00  0.00     0.168 HD
HETATM    5  C   UNL     1      -3.630  19.992  36.263  1.00  0.00     0.068 C 
HETATM    6  C   UNL     1      -5.983  19.497  35.377  1.00  0.00    -0.023 C 
HETATM    7  C   UNL     1      -2.554  19.007  30.548  1.00  0.00     0.049 C 
HETATM    8  C   UNL     1      -3.232  19.367  28.215  1.00  0.00     0.040 C 
HETATM    9  C   UNL     1      -3.210  19.569  33.921  1.00  0.00     0.071 C 
HETATM   10  C   UNL     1      -3.174  19.760  29.545  1.00  0.00     0.080 C 
HETATM   11  C   UNL     1      -2.830  18.247  27.549  1.00  0.00     0.039 C 
HETATM   12  C   UNL     1      -3.022  19.186  31.837  1.00  0.00     0.162 C 
HETATM   13  C   UNL     1      -2.786  19.527  35.250  1.00  0.00     0.069 C 
HETATM   14  C   UNL     1      -4.464  19.299  33.435  1.00  0.00     0.105 C 
HETATM   15  O   UNL     1      -4.311  18.784  32.169  1.00  0.00    -0.291 OA
HETATM   16  C   UNL     1      -1.462  18.200  30.304  1.00  0.00     0.021 C 
HETATM   17  C   UNL     1      -5.721  19.446  34.006  1.00  0.00     0.051 C 
HETATM   18  C   UNL     1      -1.179  17.489  29.160  1.00  0.00     0.037 C 
ENDROOT
BRANCH  10  19
HETATM   19  O   UNL     1      -3.744  20.933  29.949  1.00  0.00    -0.360 OA
ATOM     20  HO  UNL     1      -4.693  20.957  29.943  1.00  0.00     0.217 HD
ENDBRANCH  10  19
BRANCH   5  21
HETATM   21  O   UNL     1      -3.069  20.751  37.224  1.00  0.00    -0.361 OA
ATOM     22  HO  UNL     1      -2.126  20.719  37.338  1.00  0.00     0.217 HD
ENDBRANCH   5  21
BRANCH   2  23
HETATM   23  O   UNL     1      -1.968  16.038  27.446  1.00  0.00    -0.361 OA
ATOM     24  HO  UNL     1      -2.723  15.468  27.528  1.00  0.00     0.217 HD
ENDBRANCH   2  23
BRANCH   6  25
HETATM   25  C   UNL     1      -7.349  19.307  35.863  1.00  0.00    -0.033 C 
HETATM   26  C   UNL     1      -8.441  19.044  34.991  1.00  0.00     0.043 C 
HETATM   27  C   UNL     1      -9.752  18.642  35.576  1.00  0.00     0.035 C 
HETATM   28  C   UNL     1      -9.977  19.103  37.013  1.00  0.00     0.022 C 
HETATM   29  N   UNL     1      -8.749  19.006  37.797  1.00  0.00    -0.390 N 
HETATM   30  C   UNL     1     -10.452  20.548  36.984  1.00  0.00     0.038 C 
HETATM   31  C   UNL     1     -11.000  18.164  37.642  1.00  0.00     0.038 C 
HETATM   32  C   UNL     1      -7.565  19.404  37.241  1.00  0.00     0.091 C 
ATOM     33  HN  UNL     1      -8.773  18.644  38.751  1.00  0.00     0.159 HD
ENDBRANCH   6  25
TORSDOF 4
ENDMDL
MODEL 2
REMARK VINA RESULT:     -10.0      1.224      1.593
REMARK  4 active torsions:
REMARK  status: ('A' for Active; 'I' for Inactive)
REMARK    1  A    between atoms: C_2  and  O_21 
REMARK    2  A    between atoms: O_5  and  C_19 
REMARK    3  A    between atoms: C_11  and  O_30 
REMARK    4  A    between atoms: C_14  and  C_29 
ROOT
HETATM    1  C   UNL     1      -3.943  19.316  35.088  1.00  0.00     0.048 C 
HETATM    2  C   UNL     1      -2.697  17.044  26.347  1.00  0.00     0.065 C 
HETATM    3  N   UNL     1      -1.925  19.154  31.271  1.00  0.00    -0.334 N 
ATOM      4  HN  UNL     1      -0.960  19.455  31.142  1.00  0.00     0.168 HD
HETATM    5  C   UNL     1      -2.583  19.315  34.837  1.00  0.00     0.068 C 
HETATM    6  C   UNL     1      -5.091  19.309  34.308  1.00  0.00    -0.023 C 
HETATM    7  C   UNL     1      -2.552  18.657  28.975  1.00  0.00     0.049 C 
HETATM    8  C   UNL     1      -3.486  19.326  26.805  1.00  0.00     0.040 C 
HETATM    9  C   UNL     1      -2.594  19.029  32.437  1.00  0.00     0.071 C 
HETATM   10  C   UNL     1      -3.164  19.588  28.130  1.00  0.00     0.080 C 
HETATM   11  C   UNL     1      -3.397  18.216  26.019  1.00  0.00     0.039 C 
HETATM   12  C   UNL     1      -2.787  18.802  30.331  1.00  0.00     0.162 C 
HETATM   13  C   UNL     1      -1.996  18.802  33.677  1.00  0.00     0.069 C 
HETATM   14  C   UNL     1      -3.934  19.022  32.141  1.00  0.00     0.105 C 
HETATM   15  O   UNL     1      -4.065  18.599  30.839  1.00  0.00    -0.291 OA
HETATM   16  C   UNL     1      -1.673  17.699  28.513  1.00  0.00     0.021 C 
HETATM   17  C   UNL     1      -5.046  19.332  32.913  1.00  0.00     0.051 C 
HETATM   18  C   UNL     1      -1.695  17.051  27.299  1.00  0.00     0.037 C 
ENDROOT
BRANCH  10  19
HETATM   19  O   UNL     1      -3.445  20.802  28.687  1.00  0.00    -0.360 OA
ATOM     20  HO  UNL     1      -3.773  20.784  29.578  1.00  0.00     0.217 HD
ENDBRANCH  10  19
BRANCH   5  21
HETATM   21  O   UNL     1      -1.759  19.882  35.739  1.00  0.00    -0.361 OA
ATOM     22  HO  UNL     1      -2.062  20.643  36.219  1.00  0.00     0.217 HD
ENDBRANCH   5  21
BRANCH   2  23
HETATM   23  O   UNL     1      -2.978  15.909  25.651  1.00  0.00    -0.361 OA
ATOM     24  HO  UNL     1      -3.517  15.248  26.068  1.00  0.00     0.217 HD
ENDBRANCH   2  23
BRANCH   6  25
HETATM   25  C   UNL     1      -6.383  19.314  34.994  1.00  0.00    -0.033 C 
HETATM   26  C   UNL     1      -7.600  18.990  34.334  1.00  0.00     0.043 C 
HETATM   27  C   UNL     1      -8.834  18.800  35.147  1.00  0.00     0.035 C 
HETATM   28  C   UNL     1      -8.829  19.522  36.492  1.00  0.00     0.022 C 
HETATM   29  N   UNL     1      -7.509  19.467  37.115  1.00  0.00    -0.390 N 
HETATM   30  C   UNL     1      -9.225  20.972  36.259  1.00  0.00     0.038 C 
HETATM   31  C   UNL     1      -9.802  18.790  37.409  1.00  0.00     0.038 C 
HETATM   32  C   UNL     1      -6.396  19.667  36.347  1.00  0.00     0.091 C 
ATOM     33  HN  UNL     1      -7.418  19.281  38.114  1.00  0.00     0.159 HD
ENDBRANCH   6  25
TORSDOF 4
ENDMDL
