REMARK  6 active torsions:
REMARK  status: ('A' for Active; 'I' for Inactive)
REMARK    1  A    between atoms: C_7  and  C_12 
REMARK    2  A    between atoms: C_10  and  O_16 
REMARK    3  A    between atoms: C_10  and  C_22 
REMARK    4  A    between atoms: C_12  and  C_20 
REMARK    5  A    between atoms: C_15  and  O_32 
REMARK    6  A    between atoms: C_31  and  O_32 
ROOT
HETATM    1  C   UNL     1      -6.802 -27.254   4.758  1.00  0.00     0.029 C 
HETATM    2  C   UNL     1      -5.108 -28.322   3.370  1.00  0.00     0.066 C 
HETATM    3  C   UNL     1      -6.488 -27.494   6.056  1.00  0.00     0.003 C 
HETATM    4  C   UNL     1      -5.381 -28.176   6.550  1.00  0.00     0.013 C 
HETATM    5  C   UNL     1      -4.624 -29.081   4.438  1.00  0.00     0.087 C 
HETATM    6  C   UNL     1      -6.092 -27.354   3.590  1.00  0.00     0.028 C 
HETATM    7  C   UNL     1      -4.352 -28.471   5.675  1.00  0.00     0.012 C 
HETATM    8  N   UNL     1      -6.445 -26.518   2.594  1.00  0.00    -0.399 N 
ATOM      9  HN1 UNL     1      -5.917 -26.592   1.725  1.00  0.00     0.156 HD
ATOM     10  HN2 UNL     1      -7.163 -25.812   2.755  1.00  0.00     0.156 HD
ENDROOT
BRANCH   5  11
HETATM   11  O   UNL     1      -4.343 -30.426   4.223  1.00  0.00    -0.310 OA
BRANCH  11  12
HETATM   12  C   UNL     1      -5.182 -31.424   4.743  1.00  0.00     0.076 C 
HETATM   13  C   UNL     1      -4.706 -32.177   5.835  1.00  0.00     0.037 C 
HETATM   14  C   UNL     1      -5.176 -33.416   6.213  1.00  0.00     0.004 C 
HETATM   15  C   UNL     1      -6.073 -34.316   5.621  1.00  0.00     0.011 C 
HETATM   16  C   UNL     1      -6.976 -34.119   4.553  1.00  0.00    -0.036 C 
HETATM   17  C   UNL     1      -7.081 -32.864   3.889  1.00  0.00     0.014 C 
HETATM   18  C   UNL     1      -6.455 -31.655   4.152  1.00  0.00     0.038 C 
BRANCH  16  19
HETATM   19  C   UNL     1      -7.777 -35.349   4.173  1.00  0.00     0.014 C 
BRANCH  19  20
HETATM   20  C   UNL     1      -9.168 -35.409   3.574  1.00  0.00    -0.075 C 
HETATM   21  C   UNL     1      -9.330 -35.674   2.045  1.00  0.00     0.014 C 
HETATM   22  C   UNL     1      -9.900 -37.099   1.876  1.00  0.00     0.009 C 
HETATM   23  C   UNL     1     -10.423 -34.668   1.604  1.00  0.00     0.009 C 
HETATM   24  C   UNL     1     -11.298 -37.244   2.517  1.00  0.00     0.005 C 
HETATM   25  C   UNL     1     -11.602 -36.032   3.424  1.00  0.00    -0.011 C 
HETATM   26  C   UNL     1     -11.667 -34.789   2.500  1.00  0.00     0.005 C 
HETATM   27  C   UNL     1     -10.391 -35.829   4.389  1.00  0.00     0.039 C 
ENDBRANCH  19  20
ENDBRANCH  16  19
ENDBRANCH  11  12
ENDBRANCH   5  11
BRANCH   7  28
HETATM   28  C   UNL     1      -2.945 -28.045   6.032  1.00  0.00     0.111 C 
HETATM   29  C   UNL     1      -2.076 -29.252   6.309  1.00  0.00     0.046 C 
HETATM   30  C   UNL     1      -0.648 -28.858   6.630  1.00  0.00     0.031 C 
HETATM   31  C   UNL     1      -0.603 -27.826   7.746  1.00  0.00     0.232 C 
HETATM   32  N   UNL     1      -1.454 -26.688   7.391  1.00  0.00    -0.072 N 
HETATM   33  C   UNL     1      -2.860 -27.096   7.237  1.00  0.00     0.275 C 
ATOM     34  HN2 UNL     1      -1.357 -25.926   8.062  1.00  0.00     0.277 HD
ATOM     35  HN1 UNL     1      -1.110 -26.210   6.558  1.00  0.00     0.277 HD
BRANCH  28  36
HETATM   36  O   UNL     1      -2.411 -27.348   4.925  1.00  0.00    -0.383 OA
ATOM     37  HO  UNL     1      -2.957 -26.590   4.751  1.00  0.00     0.211 HD
ENDBRANCH  28  36
ENDBRANCH   7  28
TORSDOF 6
