REMARK  3 active torsions:
REMARK  status: ('A' for Active; 'I' for Inactive)
REMARK    1  A    between atoms: O_7  and  C_37 
REMARK    2  A    between atoms: O_11  and  C_36 
REMARK    3  A    between atoms: O_17  and  N_22 
ROOT
HETATM    1  C   UNL     1      41.910  77.865  86.612  1.00  0.00     0.012 C 
HETATM    2  C   UNL     1      46.759  77.021  87.996  1.00  0.00     0.001 C 
HETATM    3  O   UNL     1      43.010  76.960  90.186  1.00  0.00    -0.267 OA
HETATM    4  C   UNL     1      40.400  80.697  90.619  1.00  0.00     0.034 C 
HETATM    5  C   UNL     1      40.039  79.396  85.793  1.00  0.00     0.054 C 
HETATM    6  C   UNL     1      44.304  77.221  88.239  1.00  0.00     0.043 C 
HETATM    7  C   UNL     1      45.607  77.701  88.337  1.00  0.00     0.018 C 
HETATM    8  C   UNL     1      42.086  80.374  86.880  1.00  0.00    -0.043 C 
HETATM    9  C   UNL     1      42.120  82.398  90.723  1.00  0.00     0.031 C 
HETATM   10  C   UNL     1      42.388  79.025  87.442  1.00  0.00     0.057 C 
HETATM   11  C   UNL     1      42.425  79.518  89.971  1.00  0.00     0.043 C 
HETATM   12  C   UNL     1      42.519  76.576  86.641  1.00  0.00    -0.012 C 
HETATM   13  C   UNL     1      40.913  75.772  85.043  1.00  0.00     0.038 C 
HETATM   14  C   UNL     1      43.413  80.311  90.578  1.00  0.00     0.030 C 
HETATM   15  C   UNL     1      40.828  78.106  85.751  1.00  0.00    -0.011 C 
HETATM   16  N   UNL     1      40.434  82.441  88.988  1.00  0.00    -0.254 N 
HETATM   17  N   UNL     1      42.680  78.782  88.831  1.00  0.00    -0.277 N 
HETATM   18  C   UNL     1      40.967  81.873  90.110  1.00  0.00     0.057 C 
HETATM   19  C   UNL     1      43.819  76.348  87.245  1.00  0.00    -0.009 C 
HETATM   20  C   UNL     1      46.897  75.811  87.381  1.00  0.00     0.000 C 
HETATM   21  C   UNL     1      41.146  79.513  90.549  1.00  0.00     0.032 C 
HETATM   22  C   UNL     1      45.899  74.968  86.988  1.00  0.00     0.001 C 
HETATM   23  C   UNL     1      41.050  82.392  87.677  1.00  0.00     0.148 C 
HETATM   24  C   UNL     1      44.544  75.205  86.888  1.00  0.00     0.013 C 
HETATM   25  C   UNL     1      43.288  77.632  89.201  1.00  0.00     0.264 C 
HETATM   26  C   UNL     1      41.869  75.513  86.011  1.00  0.00     0.016 C 
HETATM   27  C   UNL     1      42.349  81.626  87.679  1.00  0.00     0.067 C 
HETATM   28  C   UNL     1      40.903  80.641  85.992  1.00  0.00     0.052 C 
HETATM   29  C   UNL     1      43.190  81.589  91.082  1.00  0.00     0.005 C 
HETATM   30  C   UNL     1      40.081  81.717  86.706  1.00  0.00     0.152 C 
HETATM   31  C   UNL     1      40.437  77.075  84.884  1.00  0.00     0.072 C 
ENDROOT
BRANCH  16  32
HETATM   32  O   UNL     1      39.249  83.146  89.109  1.00  0.00    -0.287 OA
ATOM     33  HO  UNL     1      38.878  83.541  88.329  1.00  0.00     0.244 HD
ENDBRANCH  16  32
BRANCH  30  34
HETATM   34  O   UNL     1      39.606  82.691  85.785  1.00  0.00    -0.393 OA
ATOM     35  HO  UNL     1      39.004  82.272  85.182  1.00  0.00     0.210 HD
ENDBRANCH  30  34
BRANCH  31  36
HETATM   36  O   UNL     1      39.710  77.392  83.783  1.00  0.00    -0.360 OA
ATOM     37  HO  UNL     1      39.386  78.279  83.675  1.00  0.00     0.217 HD
ENDBRANCH  31  36
TORSDOF 3
