REMARK  1 active torsions:
REMARK  status: ('A' for Active; 'I' for Inactive)
REMARK    1  A    between atoms: C_13  and  C_15 
ROOT
HETATM    1  C   UNL     1     -21.116 -31.489  36.156  1.00  0.00    -0.010 C 
HETATM    2  C   UNL     1     -21.123 -32.006  38.735  1.00  0.00     0.010 C 
HETATM    3  C   UNL     1     -20.613 -31.118  37.574  1.00  0.00    -0.014 C 
HETATM    4  C   UNL     1     -21.626 -33.878  36.343  1.00  0.00     0.005 C 
HETATM    5  C   UNL     1     -20.685 -32.875  35.651  1.00  0.00     0.005 C 
HETATM    6  C   UNL     1     -22.743 -33.003  36.967  1.00  0.00    -0.009 C 
HETATM    7  C   UNL     1     -22.646 -31.641  36.243  1.00  0.00     0.010 C 
HETATM    8  C   UNL     1     -22.413 -32.763  38.458  1.00  0.00    -0.002 C 
HETATM    9  C   UNL     1     -19.104 -30.944  37.743  1.00  0.00     0.010 C 
ENDROOT
BRANCH   8  10
HETATM   10  C   UNL     1     -23.491 -32.970  39.518  1.00  0.00    -0.036 C 
HETATM   11  C   UNL     1     -23.231 -34.203  40.418  1.00  0.00     0.010 C 
HETATM   12  C   UNL     1     -24.333 -34.044  41.486  1.00  0.00     0.005 C 
HETATM   13  C   UNL     1     -24.947 -32.661  41.179  1.00  0.00    -0.014 C 
HETATM   14  C   UNL     1     -25.844 -32.887  39.948  1.00  0.00     0.005 C 
HETATM   15  C   UNL     1     -23.796 -31.866  40.536  1.00  0.00     0.014 C 
HETATM   16  C   UNL     1     -24.854 -33.167  38.816  1.00  0.00     0.010 C 
ENDBRANCH   8  10
TORSDOF 1
