REMARK  1 active torsions:
REMARK  status: ('A' for Active; 'I' for Inactive)
REMARK    1  A    between atoms: O_3  and  C_18 
ROOT
HETATM    1  C   UNL     1     -24.554 -32.104  41.518  1.00  0.00     0.010 C 
HETATM    2  C   UNL     1     -23.905 -32.075  40.305  1.00  0.00    -0.041 A 
HETATM    3  C   UNL     1     -25.009 -33.954  39.041  1.00  0.00     0.100 C 
HETATM    4  C   UNL     1     -23.040 -32.649  38.225  1.00  0.00    -0.015 A 
HETATM    5  N   UNL     1     -25.473 -34.717  40.047  1.00  0.00    -0.374 N 
ATOM      6  HN  UNL     1     -25.957 -35.582  39.809  1.00  0.00     0.164 HD
HETATM    7  C   UNL     1     -25.337 -33.193  41.948  1.00  0.00     0.018 C 
HETATM    8  C   UNL     1     -24.081 -32.935  39.181  1.00  0.00    -0.003 A 
HETATM    9  C   UNL     1     -22.773 -31.116  40.033  1.00  0.00     0.082 A 
HETATM   10  C   UNL     1     -22.303 -31.527  38.667  1.00  0.00    -0.009 A 
HETATM   11  C   UNL     1     -20.789 -31.798  36.803  1.00  0.00    -0.028 C 
HETATM   12  C   UNL     1     -25.334 -34.402  41.364  1.00  0.00     0.087 C 
HETATM   13  C   UNL     1     -22.708 -33.268  37.026  1.00  0.00     0.013 C 
HETATM   14  C   UNL     1     -19.547 -31.345  36.085  1.00  0.00     0.051 C 
HETATM   15  C   UNL     1     -21.562 -32.874  36.336  1.00  0.00     0.010 C 
HETATM   16  C   UNL     1     -21.326 -31.004  37.832  1.00  0.00     0.079 C 
ENDROOT
BRANCH  16  17
HETATM   17  O   UNL     1     -20.721 -29.817  38.119  1.00  0.00    -0.360 OA
ATOM     18  HO  UNL     1     -20.052 -29.459  37.547  1.00  0.00     0.217 HD
ENDBRANCH  16  17
TORSDOF 1
