MODEL 1
REMARK VINA RESULT:      -8.8      0.000      0.000
REMARK  3 active torsions:
REMARK  status: ('A' for Active; 'I' for Inactive)
REMARK    1  A    between atoms: C_3  and  C_9 
REMARK    2  A    between atoms: O_5  and  C_7 
REMARK    3  A    between atoms: C_10  and  C_17 
ROOT
HETATM    1  C   UNL     1     -33.310   9.327  -2.275  1.00  0.00     0.099 C 
HETATM    2  C   UNL     1     -34.416   9.708  -3.011  1.00  0.00    -0.011 C 
HETATM    3  C   UNL     1     -35.331   8.406  -0.649  1.00  0.00     0.056 C 
HETATM    4  C   UNL     1     -34.209   9.080  -0.156  1.00  0.00     0.106 C 
HETATM    5  C   UNL     1     -36.214   9.084  -1.470  1.00  0.00     0.021 C 
HETATM    6  N   UNL     1     -33.141   9.278  -0.947  1.00  0.00    -0.373 N 
ATOM      7  HN  UNL     1     -32.212   9.388  -0.541  1.00  0.00     0.164 HD
HETATM    8  C   UNL     1     -35.714   9.846  -2.511  1.00  0.00     0.015 C 
ENDROOT
BRANCH   2   9
HETATM    9  C   UNL     1     -34.277  10.011  -4.394  1.00  0.00    -0.025 C 
HETATM   10  C   UNL     1     -35.431  10.382  -5.106  1.00  0.00     0.015 C 
HETATM   11  C   UNL     1     -35.465  10.084  -6.462  1.00  0.00     0.037 C 
HETATM   12  C   UNL     1     -34.265   9.742  -7.095  1.00  0.00     0.065 C 
HETATM   13  C   UNL     1     -33.048  10.012  -6.461  1.00  0.00     0.037 C 
HETATM   14  C   UNL     1     -33.056  10.038  -5.066  1.00  0.00     0.015 C 
BRANCH  12  15
HETATM   15  O   UNL     1     -34.276   8.870  -8.128  1.00  0.00    -0.361 OA
ATOM     16  HO  UNL     1     -34.726   9.118  -8.927  1.00  0.00     0.217 HD
ENDBRANCH  12  15
ENDBRANCH   2   9
BRANCH   3  17
HETATM   17  C   UNL     1     -35.292   6.903  -0.718  1.00  0.00     0.210 C 
HETATM   18  O   UNL     1     -34.292   6.297  -0.292  1.00  0.00    -0.644 OA
HETATM   19  O   UNL     1     -36.274   6.316  -1.245  1.00  0.00    -0.644 OA
ENDBRANCH   3  17
TORSDOF 3
ENDMDL
MODEL 2
REMARK VINA RESULT:      -7.4      1.771      2.192
REMARK  3 active torsions:
REMARK  status: ('A' for Active; 'I' for Inactive)
REMARK    1  A    between atoms: C_3  and  C_9 
REMARK    2  A    between atoms: O_5  and  C_7 
REMARK    3  A    between atoms: C_10  and  C_17 
ROOT
HETATM    1  C   UNL     1     -35.725  10.051  -3.032  1.00  0.00     0.099 C 
HETATM    2  C   UNL     1     -34.866   9.295  -3.808  1.00  0.00    -0.011 C 
HETATM    3  C   UNL     1     -34.736   8.320  -1.135  1.00  0.00     0.056 C 
HETATM    4  C   UNL     1     -36.092   8.653  -1.224  1.00  0.00     0.106 C 
HETATM    5  C   UNL     1     -34.148   7.619  -2.172  1.00  0.00     0.021 C 
HETATM    6  N   UNL     1     -36.482   9.687  -1.988  1.00  0.00    -0.373 N 
ATOM      7  HN  UNL     1     -37.344  10.189  -1.776  1.00  0.00     0.164 HD
HETATM    8  C   UNL     1     -34.376   8.029  -3.474  1.00  0.00     0.015 C 
ENDROOT
BRANCH   2   9
HETATM    9  C   UNL     1     -34.425   9.791  -5.066  1.00  0.00    -0.025 C 
HETATM   10  C   UNL     1     -35.403  10.164  -6.005  1.00  0.00     0.015 C 
HETATM   11  C   UNL     1     -35.069  10.049  -7.348  1.00  0.00     0.037 C 
HETATM   12  C   UNL     1     -33.721   9.888  -7.685  1.00  0.00     0.065 C 
HETATM   13  C   UNL     1     -32.734  10.164  -6.734  1.00  0.00     0.037 C 
HETATM   14  C   UNL     1     -33.087  10.002  -5.394  1.00  0.00     0.015 C 
BRANCH  12  15
HETATM   15  O   UNL     1     -33.384   9.165  -8.776  1.00  0.00    -0.361 OA
ATOM     16  HO  UNL     1     -32.661   9.464  -9.314  1.00  0.00     0.217 HD
ENDBRANCH  12  15
ENDBRANCH   2   9
BRANCH   3  17
HETATM   17  C   UNL     1     -33.856   9.131  -0.223  1.00  0.00     0.210 C 
HETATM   18  O   UNL     1     -32.768   9.562  -0.648  1.00  0.00    -0.644 OA
HETATM   19  O   UNL     1     -34.247   9.313   0.960  1.00  0.00    -0.644 OA
ENDBRANCH   3  17
TORSDOF 3
ENDMDL
MODEL 3
REMARK VINA RESULT:      -7.2      1.834      5.807
REMARK  3 active torsions:
REMARK  status: ('A' for Active; 'I' for Inactive)
REMARK    1  A    between atoms: C_3  and  C_9 
REMARK    2  A    between atoms: O_5  and  C_7 
REMARK    3  A    between atoms: C_10  and  C_17 
ROOT
HETATM    1  C   UNL     1     -34.384   9.561  -3.449  1.00  0.00     0.099 C 
HETATM    2  C   UNL     1     -33.462   8.552  -3.241  1.00  0.00    -0.011 C 
HETATM    3  C   UNL     1     -33.017   9.637  -5.836  1.00  0.00     0.056 C 
HETATM    4  C   UNL     1     -33.375  10.790  -5.131  1.00  0.00     0.106 C 
HETATM    5  C   UNL     1     -32.108   8.759  -5.271  1.00  0.00     0.021 C 
HETATM    6  N   UNL     1     -34.256  10.714  -4.119  1.00  0.00    -0.373 N 
ATOM      7  HN  UNL     1     -34.820  11.524  -3.865  1.00  0.00     0.164 HD
HETATM    8  C   UNL     1     -32.267   8.388  -3.948  1.00  0.00     0.015 C 
ENDROOT
BRANCH   2   9
HETATM    9  C   UNL     1     -33.690   7.583  -2.225  1.00  0.00    -0.025 C 
HETATM   10  C   UNL     1     -32.740   6.559  -2.068  1.00  0.00     0.015 C 
HETATM   11  C   UNL     1     -33.193   5.340  -1.582  1.00  0.00     0.037 C 
HETATM   12  C   UNL     1     -34.458   5.294  -0.984  1.00  0.00     0.065 C 
HETATM   13  C   UNL     1     -35.085   6.484  -0.604  1.00  0.00     0.037 C 
HETATM   14  C   UNL     1     -34.756   7.630  -1.328  1.00  0.00     0.015 C 
BRANCH  12  15
HETATM   15  O   UNL     1     -35.204   4.171  -1.080  1.00  0.00    -0.361 OA
ATOM     16  HO  UNL     1     -34.954   3.413  -0.565  1.00  0.00     0.217 HD
ENDBRANCH  12  15
ENDBRANCH   2   9
BRANCH   3  17
HETATM   17  C   UNL     1     -33.956   9.119  -6.891  1.00  0.00     0.210 C 
HETATM   18  O   UNL     1     -33.520   8.371  -7.785  1.00  0.00    -0.644 OA
HETATM   19  O   UNL     1     -35.156   9.500  -6.845  1.00  0.00    -0.644 OA
ENDBRANCH   3  17
TORSDOF 3
ENDMDL
MODEL 4
REMARK VINA RESULT:      -7.1      2.140      5.737
REMARK  3 active torsions:
REMARK  status: ('A' for Active; 'I' for Inactive)
REMARK    1  A    between atoms: C_3  and  C_9 
REMARK    2  A    between atoms: O_5  and  C_7 
REMARK    3  A    between atoms: C_10  and  C_17 
ROOT
HETATM    1  C   UNL     1     -35.185   8.697  -3.111  1.00  0.00     0.099 C 
HETATM    2  C   UNL     1     -33.824   8.493  -2.983  1.00  0.00    -0.011 C 
HETATM    3  C   UNL     1     -34.252  10.267  -5.170  1.00  0.00     0.056 C 
HETATM    4  C   UNL     1     -35.261  10.684  -4.296  1.00  0.00     0.106 C 
HETATM    5  C   UNL     1     -32.979  10.052  -4.673  1.00  0.00     0.021 C 
HETATM    6  N   UNL     1     -35.855   9.796  -3.481  1.00  0.00    -0.373 N 
ATOM      7  HN  UNL     1     -36.806   9.957  -3.149  1.00  0.00     0.164 HD
HETATM    8  C   UNL     1     -32.828   9.323  -3.507  1.00  0.00     0.015 C 
ENDROOT
BRANCH   2   9
HETATM    9  C   UNL     1     -33.340   7.370  -2.257  1.00  0.00    -0.025 C 
HETATM   10  C   UNL     1     -34.258   6.650  -1.471  1.00  0.00     0.015 C 
HETATM   11  C   UNL     1     -33.763   6.009  -0.344  1.00  0.00     0.037 C 
HETATM   12  C   UNL     1     -32.379   5.841  -0.231  1.00  0.00     0.065 C 
HETATM   13  C   UNL     1     -31.568   6.018  -1.356  1.00  0.00     0.037 C 
HETATM   14  C   UNL     1     -32.032   6.894  -2.337  1.00  0.00     0.015 C 
BRANCH  12  15
HETATM   15  O   UNL     1     -31.800   5.845   0.991  1.00  0.00    -0.361 OA
ATOM     16  HO  UNL     1     -30.863   5.704   1.051  1.00  0.00     0.217 HD
ENDBRANCH  12  15
ENDBRANCH   2   9
BRANCH   3  17
HETATM   17  C   UNL     1     -34.649   9.584  -6.451  1.00  0.00     0.210 C 
HETATM   18  O   UNL     1     -33.839   8.827  -7.017  1.00  0.00    -0.644 OA
HETATM   19  O   UNL     1     -35.789   9.839  -6.921  1.00  0.00    -0.644 OA
ENDBRANCH   3  17
TORSDOF 3
ENDMDL
MODEL 5
REMARK VINA RESULT:      -6.4      2.886      5.525
REMARK  3 active torsions:
REMARK  status: ('A' for Active; 'I' for Inactive)
REMARK    1  A    between atoms: C_3  and  C_9 
REMARK    2  A    between atoms: O_5  and  C_7 
REMARK    3  A    between atoms: C_10  and  C_17 
ROOT
HETATM    1  C   UNL     1     -35.864   7.388  -2.021  1.00  0.00     0.099 C 
HETATM    2  C   UNL     1     -34.518   7.231  -1.748  1.00  0.00    -0.011 C 
HETATM    3  C   UNL     1     -34.910   9.857  -2.778  1.00  0.00     0.056 C 
HETATM    4  C   UNL     1     -36.082   9.693  -2.032  1.00  0.00     0.106 C 
HETATM    5  C   UNL     1     -33.700   9.491  -2.216  1.00  0.00     0.021 C 
HETATM    6  N   UNL     1     -36.638   8.476  -1.911  1.00  0.00    -0.373 N 
ATOM      7  HN  UNL     1     -37.639   8.381  -1.739  1.00  0.00     0.164 HD
HETATM    8  C   UNL     1     -33.599   8.270  -1.573  1.00  0.00     0.015 C 
ENDROOT
BRANCH   2   9
HETATM    9  C   UNL     1     -33.972   5.925  -1.607  1.00  0.00    -0.025 C 
HETATM   10  C   UNL     1     -32.572   5.796  -1.590  1.00  0.00     0.015 C 
HETATM   11  C   UNL     1     -32.038   4.605  -2.065  1.00  0.00     0.037 C 
HETATM   12  C   UNL     1     -32.896   3.510  -2.222  1.00  0.00     0.065 C 
HETATM   13  C   UNL     1     -34.155   3.527  -1.615  1.00  0.00     0.037 C 
HETATM   14  C   UNL     1     -34.738   4.777  -1.407  1.00  0.00     0.015 C 
BRANCH  12  15
HETATM   15  O   UNL     1     -32.663   2.612  -3.204  1.00  0.00    -0.361 OA
ATOM     16  HO  UNL     1     -32.679   1.687  -2.988  1.00  0.00     0.217 HD
ENDBRANCH  12  15
ENDBRANCH   2   9
BRANCH   3  17
HETATM   17  C   UNL     1     -35.017   9.923  -4.277  1.00  0.00     0.210 C 
HETATM   18  O   UNL     1     -35.845  10.692  -4.798  1.00  0.00    -0.644 OA
HETATM   19  O   UNL     1     -34.276   9.158  -4.950  1.00  0.00    -0.644 OA
ENDBRANCH   3  17
TORSDOF 3
ENDMDL
MODEL 6
REMARK VINA RESULT:      -6.4      3.071      5.650
REMARK  3 active torsions:
REMARK  status: ('A' for Active; 'I' for Inactive)
REMARK    1  A    between atoms: C_3  and  C_9 
REMARK    2  A    between atoms: O_5  and  C_7 
REMARK    3  A    between atoms: C_10  and  C_17 
ROOT
HETATM    1  C   UNL     1     -34.956   7.075  -0.104  1.00  0.00     0.099 C 
HETATM    2  C   UNL     1     -34.220   6.393  -1.054  1.00  0.00    -0.011 C 
HETATM    3  C   UNL     1     -33.923   9.184  -1.540  1.00  0.00     0.056 C 
HETATM    4  C   UNL     1     -33.964   9.166  -0.143  1.00  0.00     0.106 C 
HETATM    5  C   UNL     1     -33.129   8.263  -2.200  1.00  0.00     0.021 C 
HETATM    6  N   UNL     1     -34.704   8.245   0.498  1.00  0.00    -0.373 N 
ATOM      7  HN  UNL     1     -35.068   8.434   1.431  1.00  0.00     0.164 HD
HETATM    8  C   UNL     1     -33.180   6.935  -1.816  1.00  0.00     0.015 C 
ENDROOT
BRANCH   2   9
HETATM    9  C   UNL     1     -34.490   5.020  -1.308  1.00  0.00    -0.025 C 
HETATM   10  C   UNL     1     -33.458   4.093  -1.078  1.00  0.00     0.015 C 
HETATM   11  C   UNL     1     -33.456   2.940  -1.852  1.00  0.00     0.037 C 
HETATM   12  C   UNL     1     -34.617   2.616  -2.562  1.00  0.00     0.065 C 
HETATM   13  C   UNL     1     -35.822   3.248  -2.240  1.00  0.00     0.037 C 
HETATM   14  C   UNL     1     -35.736   4.530  -1.697  1.00  0.00     0.015 C 
BRANCH  12  15
HETATM   15  O   UNL     1     -34.522   1.969  -3.745  1.00  0.00    -0.361 OA
ATOM     16  HO  UNL     1     -34.348   2.478  -4.528  1.00  0.00     0.217 HD
ENDBRANCH  12  15
ENDBRANCH   2   9
BRANCH   3  17
HETATM   17  C   UNL     1     -35.073   9.806  -2.285  1.00  0.00     0.210 C 
HETATM   18  O   UNL     1     -36.159   9.977  -1.702  1.00  0.00    -0.644 OA
HETATM   19  O   UNL     1     -34.895  10.100  -3.497  1.00  0.00    -0.644 OA
ENDBRANCH   3  17
TORSDOF 3
ENDMDL
MODEL 7
REMARK VINA RESULT:      -6.3      3.023      6.003
REMARK  3 active torsions:
REMARK  status: ('A' for Active; 'I' for Inactive)
REMARK    1  A    between atoms: C_3  and  C_9 
REMARK    2  A    between atoms: O_5  and  C_7 
REMARK    3  A    between atoms: C_10  and  C_17 
ROOT
HETATM    1  C   UNL     1     -35.008   7.051  -0.169  1.00  0.00     0.099 C 
HETATM    2  C   UNL     1     -34.385   6.285  -1.136  1.00  0.00    -0.011 C 
HETATM    3  C   UNL     1     -33.679   9.010  -1.573  1.00  0.00     0.056 C 
HETATM    4  C   UNL     1     -33.717   8.972  -0.175  1.00  0.00     0.106 C 
HETATM    5  C   UNL     1     -33.033   7.994  -2.254  1.00  0.00     0.021 C 
HETATM    6  N   UNL     1     -34.583   8.159   0.453  1.00  0.00    -0.373 N 
ATOM      7  HN  UNL     1     -34.912   8.382   1.392  1.00  0.00     0.164 HD
HETATM    8  C   UNL     1     -33.279   6.681  -1.894  1.00  0.00     0.015 C 
ENDROOT
BRANCH   2   9
HETATM    9  C   UNL     1     -34.857   4.973  -1.413  1.00  0.00    -0.025 C 
HETATM   10  C   UNL     1     -36.220   4.815  -1.721  1.00  0.00     0.015 C 
HETATM   11  C   UNL     1     -36.809   3.602  -1.391  1.00  0.00     0.037 C 
HETATM   12  C   UNL     1     -35.975   2.521  -1.084  1.00  0.00     0.065 C 
HETATM   13  C   UNL     1     -34.618   2.580  -1.418  1.00  0.00     0.037 C 
HETATM   14  C   UNL     1     -34.037   3.846  -1.475  1.00  0.00     0.015 C 
BRANCH  12  15
HETATM   15  O   UNL     1     -36.382   1.593  -0.189  1.00  0.00    -0.361 OA
ATOM     16  HO  UNL     1     -37.100   1.018  -0.426  1.00  0.00     0.217 HD
ENDBRANCH  12  15
ENDBRANCH   2   9
BRANCH   3  17
HETATM   17  C   UNL     1     -34.726   9.810  -2.298  1.00  0.00     0.210 C 
HETATM   18  O   UNL     1     -35.818  10.035  -1.744  1.00  0.00    -0.644 OA
HETATM   19  O   UNL     1     -34.462  10.195  -3.469  1.00  0.00    -0.644 OA
ENDBRANCH   3  17
TORSDOF 3
ENDMDL
MODEL 8
REMARK VINA RESULT:      -6.2      2.816      3.752
REMARK  3 active torsions:
REMARK  status: ('A' for Active; 'I' for Inactive)
REMARK    1  A    between atoms: C_3  and  C_9 
REMARK    2  A    between atoms: O_5  and  C_7 
REMARK    3  A    between atoms: C_10  and  C_17 
ROOT
HETATM    1  C   UNL     1     -33.690   7.583  -0.747  1.00  0.00     0.099 C 
HETATM    2  C   UNL     1     -33.158   7.620  -2.023  1.00  0.00    -0.011 C 
HETATM    3  C   UNL     1     -31.508   5.936  -0.424  1.00  0.00     0.056 C 
HETATM    4  C   UNL     1     -32.770   5.634   0.097  1.00  0.00     0.106 C 
HETATM    5  C   UNL     1     -31.345   5.990  -1.797  1.00  0.00     0.021 C 
HETATM    6  N   UNL     1     -33.726   6.578   0.137  1.00  0.00    -0.373 N 
ATOM      7  HN  UNL     1     -34.470   6.528   0.833  1.00  0.00     0.164 HD
HETATM    8  C   UNL     1     -32.270   6.682  -2.557  1.00  0.00     0.015 C 
ENDROOT
BRANCH   2   9
HETATM    9  C   UNL     1     -33.523   8.668  -2.912  1.00  0.00    -0.025 C 
HETATM   10  C   UNL     1     -34.631   9.464  -2.571  1.00  0.00     0.015 C 
HETATM   11  C   UNL     1     -35.356  10.023  -3.615  1.00  0.00     0.037 C 
HETATM   12  C   UNL     1     -34.779  10.038  -4.890  1.00  0.00     0.065 C 
HETATM   13  C   UNL     1     -33.408   9.801  -5.030  1.00  0.00     0.037 C 
HETATM   14  C   UNL     1     -32.804   9.002  -4.059  1.00  0.00     0.015 C 
BRANCH  12  15
HETATM   15  O   UNL     1     -35.567   9.944  -5.984  1.00  0.00    -0.361 OA
ATOM     16  HO  UNL     1     -36.502  10.083  -5.884  1.00  0.00     0.217 HD
ENDBRANCH  12  15
ENDBRANCH   2   9
BRANCH   3  17
HETATM   17  C   UNL     1     -30.530   6.677   0.447  1.00  0.00     0.210 C 
HETATM   18  O   UNL     1     -30.861   7.767   0.948  1.00  0.00    -0.644 OA
HETATM   19  O   UNL     1     -29.387   6.171   0.604  1.00  0.00    -0.644 OA
ENDBRANCH   3  17
TORSDOF 3
ENDMDL
MODEL 9
REMARK VINA RESULT:      -6.2      3.253      5.508
REMARK  3 active torsions:
REMARK  status: ('A' for Active; 'I' for Inactive)
REMARK    1  A    between atoms: C_3  and  C_9 
REMARK    2  A    between atoms: O_5  and  C_7 
REMARK    3  A    between atoms: C_10  and  C_17 
ROOT
HETATM    1  C   UNL     1     -34.257   6.840  -0.229  1.00  0.00     0.099 C 
HETATM    2  C   UNL     1     -33.345   6.782  -1.265  1.00  0.00    -0.011 C 
HETATM    3  C   UNL     1     -34.476   9.396  -1.225  1.00  0.00     0.056 C 
HETATM    4  C   UNL     1     -34.414   9.119   0.144  1.00  0.00     0.106 C 
HETATM    5  C   UNL     1     -33.378   9.113  -2.018  1.00  0.00     0.021 C 
HETATM    6  N   UNL     1     -34.568   7.858   0.583  1.00  0.00    -0.373 N 
ATOM      7  HN  UNL     1     -34.918   7.680   1.525  1.00  0.00     0.164 HD
HETATM    8  C   UNL     1     -32.751   7.887  -1.884  1.00  0.00     0.015 C 
ENDROOT
BRANCH   2   9
HETATM    9  C   UNL     1     -32.928   5.521  -1.774  1.00  0.00    -0.025 C 
HETATM   10  C   UNL     1     -33.847   4.458  -1.728  1.00  0.00     0.015 C 
HETATM   11  C   UNL     1     -33.328   3.174  -1.619  1.00  0.00     0.037 C 
HETATM   12  C   UNL     1     -31.967   2.985  -1.881  1.00  0.00     0.065 C 
HETATM   13  C   UNL     1     -31.246   3.984  -2.542  1.00  0.00     0.037 C 
HETATM   14  C   UNL     1     -31.695   5.295  -2.383  1.00  0.00     0.015 C 
BRANCH  12  15
HETATM   15  O   UNL     1     -31.284   2.023  -1.221  1.00  0.00    -0.361 OA
ATOM     16  HO  UNL     1     -31.227   1.158  -1.609  1.00  0.00     0.217 HD
ENDBRANCH  12  15
ENDBRANCH   2   9
BRANCH   3  17
HETATM   17  C   UNL     1     -35.828   9.494  -1.877  1.00  0.00     0.210 C 
HETATM   18  O   UNL     1     -35.981  10.243  -2.859  1.00  0.00    -0.644 OA
HETATM   19  O   UNL     1     -36.771   8.829  -1.372  1.00  0.00    -0.644 OA
ENDBRANCH   3  17
TORSDOF 3
ENDMDL
