REMARK  7 active torsions:
REMARK  status: ('A' for Active; 'I' for Inactive)
REMARK    1  A    between atoms: C_1  and  C_37 
REMARK    2  A    between atoms: C_3  and  O_16 
REMARK    3  A    between atoms: C_4  and  O_28 
REMARK    4  A    between atoms: C_5  and  C_37 
REMARK    5  A    between atoms: C_9  and  N_13 
REMARK    6  A    between atoms: N_13  and  C_37 
REMARK    7  A    between atoms: O_22  and  C_37 
ROOT
HETATM    1  C   UNL     1      16.903  26.002 -13.761  1.00  0.00     0.082 C 
HETATM    2  C   UNL     1      15.725  27.062 -11.846  1.00  0.00     0.148 C 
HETATM    3  C   UNL     1      14.777  22.160 -12.694  1.00  0.00     0.125 C 
HETATM    4  C   UNL     1      14.458  25.515 -13.293  1.00  0.00     0.170 C 
HETATM    5  C   UNL     1      15.663  26.250 -12.938  1.00  0.00     0.059 C 
HETATM    6  C   UNL     1      13.802  22.945 -13.557  1.00  0.00     0.028 C 
HETATM    7  O   UNL     1      13.342  25.959 -13.044  1.00  0.00    -0.292 OA
HETATM    8  C   UNL     1      13.474  22.135 -14.833  1.00  0.00     0.008 C 
HETATM    9  N   UNL     1      17.044  24.634 -14.243  1.00  0.00    -0.378 N 
ATOM     10  HN  UNL     1      17.949  24.354 -14.621  1.00  0.00     0.160 HD
HETATM   11  C   UNL     1      14.637  22.028 -15.823  1.00  0.00     0.003 C 
HETATM   12  C   UNL     1      15.872  22.895 -15.570  1.00  0.00     0.032 C 
HETATM   13  C   UNL     1      15.966  23.625 -14.222  1.00  0.00     0.043 C 
HETATM   14  C   UNL     1      16.177  22.692 -13.029  1.00  0.00     0.064 C 
HETATM   15  C   UNL     1      14.569  24.199 -14.023  1.00  0.00     0.095 C 
ENDROOT
BRANCH   1  16
HETATM   16  C   UNL     1      17.320  27.029 -14.836  1.00  0.00     0.206 C 
BRANCH  16  17
HETATM   17  C   UNL     1      16.515  28.299 -15.017  1.00  0.00     0.003 C 
HETATM   18  C   UNL     1      15.147  28.243 -15.180  1.00  0.00     0.012 C 
HETATM   19  C   UNL     1      14.191  29.199 -14.931  1.00  0.00     0.001 C 
HETATM   20  C   UNL     1      14.284  30.539 -14.649  1.00  0.00     0.000 C 
HETATM   21  C   UNL     1      15.461  31.244 -14.559  1.00  0.00     0.000 C 
HETATM   22  C   UNL     1      16.708  30.753 -14.805  1.00  0.00     0.001 C 
HETATM   23  C   UNL     1      17.203  29.501 -15.049  1.00  0.00     0.012 C 
ENDBRANCH  16  17
BRANCH  16  24
HETATM   24  N   UNL     1      17.499  26.340 -16.104  1.00  0.00    -0.349 N 
ATOM     25  HN  UNL     1      17.041  25.437 -16.223  1.00  0.00     0.163 HD
BRANCH  24  26
HETATM   26  C   UNL     1      18.250  26.827 -17.162  1.00  0.00     0.030 C 
HETATM   27  C   UNL     1      19.466  27.470 -16.955  1.00  0.00     0.029 C 
HETATM   28  C   UNL     1      20.334  27.654 -18.020  1.00  0.00     0.002 C 
HETATM   29  C   UNL     1      19.970  27.259 -19.296  1.00  0.00     0.000 C 
HETATM   30  C   UNL     1      18.686  26.763 -19.518  1.00  0.00     0.002 C 
HETATM   31  C   UNL     1      17.795  26.650 -18.461  1.00  0.00     0.029 C 
ENDBRANCH  24  26
ENDBRANCH  16  24
BRANCH  16  32
HETATM   32  O   UNL     1      18.589  27.437 -14.339  1.00  0.00    -0.362 OA
ATOM     33  HO  UNL     1      18.846  28.069 -15.000  1.00  0.00     0.213 HD
ENDBRANCH  16  32
ENDBRANCH   1  16
BRANCH   2  34
HETATM   34  O   UNL     1      14.561  27.162 -11.079  1.00  0.00    -0.372 OA
ATOM     35  HO  UNL     1      14.604  27.728 -10.317  1.00  0.00     0.216 HD
ENDBRANCH   2  34
BRANCH   3  36
HETATM   36  O   UNL     1      14.705  20.745 -12.861  1.00  0.00    -0.395 OA
ATOM     37  HO  UNL     1      15.314  20.255 -12.322  1.00  0.00     0.210 HD
ENDBRANCH   3  36
TORSDOF 7
