REMARK  7 active torsions:
REMARK  status: ('A' for Active; 'I' for Inactive)
REMARK    1  A    between atoms: O_2  and  C_24 
REMARK    2  A    between atoms: O_5  and  C_20 
REMARK    3  A    between atoms: O_7  and  C_21 
REMARK    4  A    between atoms: CA_13  and  C_21 
REMARK    5  A    between atoms: O_14  and  C_19 
REMARK    6  A    between atoms: C_19  and  O_22 
REMARK    7  A    between atoms: C_24  and  O_25 
ROOT
HETATM    1  O   UNL     1     -36.130  -1.604  11.460  1.00  0.00    -0.234 OA
HETATM    2  C   UNL     1     -40.097  -0.991  11.238  1.00  0.00     0.027 C 
HETATM    3  N   UNL     1     -37.559   0.165  10.839  1.00  0.00    -0.267 N 
HETATM    4  C   UNL     1     -39.699  -0.582   9.979  1.00  0.00     0.028 C 
HETATM    5  N   UNL     1     -36.363   0.284  12.855  1.00  0.00    -0.306 N 
ATOM      6  HN  UNL     1     -36.112   0.833  13.677  1.00  0.00     0.164 HD
HETATM    7  CA  UNL     1     -39.901  -0.158  12.349  1.00  0.00     0.031 C 
HETATM    8  N   UNL     1     -38.718   0.139  12.883  1.00  0.00    -0.354 N 
ATOM      9  HN  UNL     1     -38.631   0.037  13.894  1.00  0.00     0.163 HD
HETATM   10  C   UNL     1     -37.551   0.589  12.175  1.00  0.00     0.297 C 
HETATM   11  C   UNL     1     -35.511  -0.745  12.446  1.00  0.00     0.377 C 
HETATM   12  C   UNL     1     -38.678   0.552  10.009  1.00  0.00     0.250 C 
HETATM   13  C   UNL     1     -36.690  -0.887  10.359  1.00  0.00     0.382 C 
ENDROOT
BRANCH  11  14
HETATM   14  O   UNL     1     -35.235  -1.559  13.451  1.00  0.00    -0.325 OA
ATOM     15  HO  UNL     1     -34.829  -0.995  14.098  1.00  0.00     0.217 HD
ENDBRANCH  11  14
BRANCH  11  16
HETATM   16  O   UNL     1     -34.418  -0.155  11.837  1.00  0.00    -0.325 OA
ATOM     17  HO  UNL     1     -34.012   0.409  12.484  1.00  0.00     0.217 HD
ENDBRANCH  11  16
BRANCH  13  18
HETATM   18  O   UNL     1     -37.359  -1.852   9.612  1.00  0.00    -0.325 OA
ATOM     19  HO  UNL     1     -37.731  -1.375   8.880  1.00  0.00     0.217 HD
ENDBRANCH  13  18
BRANCH  13  20
HETATM   20  O   UNL     1     -35.735  -0.402   9.526  1.00  0.00    -0.325 OA
ATOM     21  HO  UNL     1     -36.107   0.075   8.794  1.00  0.00     0.217 HD
ENDBRANCH  13  20
BRANCH  12  22
HETATM   22  O   UNL     1     -38.200   0.856   8.727  1.00  0.00    -0.373 OA
ATOM     23  HO  UNL     1     -38.935   1.110   8.182  1.00  0.00     0.212 HD
ENDBRANCH  12  22
BRANCH   7  24
HETATM   24  C   UNL     1     -41.111   0.560  12.888  1.00  0.00     0.220 C 
BRANCH  24  25
HETATM   25  O   UNL     1     -42.075   0.716  11.873  1.00  0.00    -0.395 OA
ATOM     26  HO  UNL     1     -42.838   1.169  12.213  1.00  0.00     0.209 HD
ENDBRANCH  24  25
ENDBRANCH   7  24
TORSDOF 7
