MODEL 1
REMARK VINA RESULT:      -6.5      0.000      0.000
REMARK  4 active torsions:
REMARK  status: ('A' for Active; 'I' for Inactive)
REMARK    1  A    between atoms: C_4  and  O_17 
REMARK       I    between atoms: N_5  and  C_20 
REMARK    2  A    between atoms: O_8  and  C_19 
REMARK    3  A    between atoms: O_12  and  C_23 
REMARK    4  A    between atoms: C_14  and  C_20 
ROOT
HETATM    1  C   UNL     1     -37.131  -0.223  10.050  1.00  0.00     0.028 C 
HETATM    2  N   UNL     1     -37.956   0.784  13.449  1.00  0.00    -0.383 N 
ATOM      3  HN  UNL     1     -37.019   0.989  13.795  1.00  0.00     0.159 HD
HETATM    4  C   UNL     1     -40.599   0.407  12.324  1.00  0.00     0.225 C 
HETATM    5  C   UNL     1     -39.314   0.480  11.555  1.00  0.00     0.037 C 
HETATM    6  C   UNL     1     -37.032  -0.275  11.438  1.00  0.00     0.059 C 
HETATM    7  C   UNL     1     -38.041   0.692   9.512  1.00  0.00    -0.027 C 
HETATM    8  C   UNL     1     -39.092   1.050  14.314  1.00  0.00     0.196 C 
HETATM    9  C   UNL     1     -39.204   0.984  10.271  1.00  0.00     0.083 C 
HETATM   10  F   UNL     1     -40.949   2.299  13.621  1.00  0.00    -0.207 F 
HETATM   11  C   UNL     1     -37.718   1.501   8.304  1.00  0.00     0.051 C 
HETATM   12  C   UNL     1     -40.489   1.024  13.726  1.00  0.00     0.249 C 
HETATM   13  C   UNL     1     -38.092   0.275  12.203  1.00  0.00     0.056 C 
ENDROOT
BRANCH   6  14
HETATM   14  C   UNL     1     -35.764  -0.763  12.039  1.00  0.00     0.251 C 
HETATM   15  N   UNL     1     -35.463  -2.049  11.843  1.00  0.00    -0.366 N 
ATOM     16  HN2 UNL     1     -34.593  -2.384  12.256  1.00  0.00     0.159 HD
ATOM     17  HN1 UNL     1     -36.082  -2.703  11.361  1.00  0.00     0.159 HD
HETATM   18  O   UNL     1     -35.013   0.031  12.625  1.00  0.00    -0.268 OA
ENDBRANCH   6  14
BRANCH   9  19
HETATM   19  O   UNL     1     -40.011   1.951   9.857  1.00  0.00    -0.359 OA
ATOM     20  HO  UNL     1     -39.872   2.848  10.138  1.00  0.00     0.217 HD
ENDBRANCH   9  19
BRANCH   4  21
HETATM   21  O   UNL     1     -41.044  -0.937  12.400  1.00  0.00    -0.385 OA
ATOM     22  HO  UNL     1     -41.627  -1.128  11.674  1.00  0.00     0.210 HD
ENDBRANCH   4  21
BRANCH  12  23
HETATM   23  O   UNL     1     -41.305   0.335  14.643  1.00  0.00    -0.358 OA
ATOM     24  HO  UNL     1     -41.545  -0.521  14.307  1.00  0.00     0.213 HD
ENDBRANCH  12  23
TORSDOF 4
ENDMDL
MODEL 2
REMARK VINA RESULT:      -6.4      2.433      4.542
REMARK  4 active torsions:
REMARK  status: ('A' for Active; 'I' for Inactive)
REMARK    1  A    between atoms: C_4  and  O_17 
REMARK       I    between atoms: N_5  and  C_20 
REMARK    2  A    between atoms: O_8  and  C_19 
REMARK    3  A    between atoms: O_12  and  C_23 
REMARK    4  A    between atoms: C_14  and  C_20 
ROOT
HETATM    1  C   UNL     1     -39.551   2.667  13.523  1.00  0.00     0.028 C 
HETATM    2  N   UNL     1     -36.808   0.323  13.047  1.00  0.00    -0.383 N 
ATOM      3  HN  UNL     1     -36.417   0.329  13.990  1.00  0.00     0.159 HD
HETATM    4  C   UNL     1     -38.113   0.181  10.466  1.00  0.00     0.225 C 
HETATM    5  C   UNL     1     -38.676   0.807  11.706  1.00  0.00     0.037 C 
HETATM    6  C   UNL     1     -38.221   2.259  13.571  1.00  0.00     0.059 C 
HETATM    7  C   UNL     1     -40.477   1.754  13.008  1.00  0.00    -0.027 C 
HETATM    8  C   UNL     1     -36.244  -0.586  12.065  1.00  0.00     0.196 C 
HETATM    9  C   UNL     1     -40.025   0.851  12.012  1.00  0.00     0.083 C 
HETATM   10  F   UNL     1     -37.555  -2.048  10.789  1.00  0.00    -0.207 F 
HETATM   11  C   UNL     1     -41.823   1.573  13.621  1.00  0.00     0.051 C 
HETATM   12  C   UNL     1     -36.984  -0.815  10.762  1.00  0.00     0.249 C 
HETATM   13  C   UNL     1     -37.831   1.162  12.762  1.00  0.00     0.056 C 
ENDROOT
BRANCH   6  14
HETATM   14  C   UNL     1     -37.322   2.892  14.570  1.00  0.00     0.251 C 
HETATM   15  N   UNL     1     -37.323   4.227  14.616  1.00  0.00    -0.366 N 
ATOM     16  HN2 UNL     1     -36.705   4.661  15.302  1.00  0.00     0.159 HD
ATOM     17  HN1 UNL     1     -37.855   4.811  13.971  1.00  0.00     0.159 HD
HETATM   18  O   UNL     1     -36.674   2.183  15.354  1.00  0.00    -0.268 OA
ENDBRANCH   6  14
BRANCH   9  19
HETATM   19  O   UNL     1     -40.837  -0.117  11.611  1.00  0.00    -0.359 OA
ATOM     20  HO  UNL     1     -41.155  -0.138  10.716  1.00  0.00     0.217 HD
ENDBRANCH   9  19
BRANCH   4  21
HETATM   21  O   UNL     1     -37.674   1.188   9.569  1.00  0.00    -0.385 OA
ATOM     22  HO  UNL     1     -37.864   0.931   8.674  1.00  0.00     0.210 HD
ENDBRANCH   4  21
BRANCH  12  23
HETATM   23  O   UNL     1     -36.018  -0.799   9.737  1.00  0.00    -0.358 OA
ATOM     24  HO  UNL     1     -35.211  -0.398  10.038  1.00  0.00     0.213 HD
ENDBRANCH  12  23
TORSDOF 4
ENDMDL
MODEL 3
REMARK VINA RESULT:      -6.2      2.810      5.168
REMARK  4 active torsions:
REMARK  status: ('A' for Active; 'I' for Inactive)
REMARK    1  A    between atoms: C_4  and  O_17 
REMARK       I    between atoms: N_5  and  C_20 
REMARK    2  A    between atoms: O_8  and  C_19 
REMARK    3  A    between atoms: O_12  and  C_23 
REMARK    4  A    between atoms: C_14  and  C_20 
ROOT
HETATM    1  C   UNL     1     -38.972   2.305  13.966  1.00  0.00     0.028 C 
HETATM    2  N   UNL     1     -38.562   2.156  10.352  1.00  0.00    -0.383 N 
ATOM      3  HN  UNL     1     -38.611   3.152  10.137  1.00  0.00     0.159 HD
HETATM    4  C   UNL     1     -38.200  -0.627  11.067  1.00  0.00     0.225 C 
HETATM    5  C   UNL     1     -38.207   0.535  12.016  1.00  0.00     0.037 C 
HETATM    6  C   UNL     1     -39.330   2.568  12.646  1.00  0.00     0.059 C 
HETATM    7  C   UNL     1     -37.813   1.551  14.171  1.00  0.00    -0.027 C 
HETATM    8  C   UNL     1     -38.277   1.224   9.276  1.00  0.00     0.196 C 
HETATM    9  C   UNL     1     -37.476   0.585  13.189  1.00  0.00     0.083 C 
HETATM   10  F   UNL     1     -36.590  -0.395   9.413  1.00  0.00    -0.207 F 
HETATM   11  C   UNL     1     -36.843   1.883  15.253  1.00  0.00     0.051 C 
HETATM   12  C   UNL     1     -37.921  -0.210   9.617  1.00  0.00     0.249 C 
HETATM   13  C   UNL     1     -38.766   1.757  11.629  1.00  0.00     0.056 C 
ENDROOT
BRANCH   6  14
HETATM   14  C   UNL     1     -40.158   3.768  12.362  1.00  0.00     0.251 C 
HETATM   15  N   UNL     1     -39.850   4.881  13.032  1.00  0.00    -0.366 N 
ATOM     16  HN2 UNL     1     -40.419   5.705  12.837  1.00  0.00     0.159 HD
ATOM     17  HN1 UNL     1     -39.129   4.921  13.753  1.00  0.00     0.159 HD
HETATM   18  O   UNL     1     -41.035   3.719  11.487  1.00  0.00    -0.268 OA
ENDBRANCH   6  14
BRANCH   9  19
HETATM   19  O   UNL     1     -36.311  -0.042  13.283  1.00  0.00    -0.359 OA
ATOM     20  HO  UNL     1     -36.036  -0.651  12.606  1.00  0.00     0.217 HD
ENDBRANCH   9  19
BRANCH   4  21
HETATM   21  O   UNL     1     -39.425  -1.337  11.160  1.00  0.00    -0.385 OA
ATOM     22  HO  UNL     1     -39.294  -2.149  11.636  1.00  0.00     0.210 HD
ENDBRANCH   4  21
BRANCH  12  23
HETATM   23  O   UNL     1     -38.624  -1.030   8.714  1.00  0.00    -0.358 OA
ATOM     24  HO  UNL     1     -38.902  -1.835   9.134  1.00  0.00     0.213 HD
ENDBRANCH  12  23
TORSDOF 4
ENDMDL
MODEL 4
REMARK VINA RESULT:      -6.0      2.491      4.926
REMARK  4 active torsions:
REMARK  status: ('A' for Active; 'I' for Inactive)
REMARK    1  A    between atoms: C_4  and  O_17 
REMARK       I    between atoms: N_5  and  C_20 
REMARK    2  A    between atoms: O_8  and  C_19 
REMARK    3  A    between atoms: O_12  and  C_23 
REMARK    4  A    between atoms: C_14  and  C_20 
ROOT
HETATM    1  C   UNL     1     -38.591   1.378  14.948  1.00  0.00     0.028 C 
HETATM    2  N   UNL     1     -39.642  -0.122  11.802  1.00  0.00    -0.383 N 
ATOM      3  HN  UNL     1     -40.653  -0.038  11.906  1.00  0.00     0.159 HD
HETATM    4  C   UNL     1     -36.764  -0.111  11.478  1.00  0.00     0.225 C 
HETATM    5  C   UNL     1     -37.537   0.628  12.529  1.00  0.00     0.037 C 
HETATM    6  C   UNL     1     -39.303   0.481  14.156  1.00  0.00     0.059 C 
HETATM    7  C   UNL     1     -37.742   2.271  14.287  1.00  0.00    -0.027 C 
HETATM    8  C   UNL     1     -39.111  -0.640  10.554  1.00  0.00     0.196 C 
HETATM    9  C   UNL     1     -37.144   1.836  13.077  1.00  0.00     0.083 C 
HETATM   10  F   UNL     1     -37.441   0.459   9.333  1.00  0.00    -0.207 F 
HETATM   11  C   UNL     1     -37.631   3.698  14.701  1.00  0.00     0.051 C 
HETATM   12  C   UNL     1     -37.627  -0.507  10.271  1.00  0.00     0.249 C 
HETATM   13  C   UNL     1     -38.849   0.253  12.833  1.00  0.00     0.056 C 
ENDROOT
BRANCH   6  14
HETATM   14  C   UNL     1     -40.577  -0.073  14.685  1.00  0.00     0.251 C 
HETATM   15  N   UNL     1     -40.574  -0.473  15.959  1.00  0.00    -0.366 N 
ATOM     16  HN2 UNL     1     -41.448  -0.853  16.321  1.00  0.00     0.159 HD
ATOM     17  HN1 UNL     1     -39.739  -0.469  16.547  1.00  0.00     0.159 HD
HETATM   18  O   UNL     1     -41.590  -0.079  13.971  1.00  0.00    -0.268 OA
ENDBRANCH   6  14
BRANCH   9  19
HETATM   19  O   UNL     1     -36.453   2.708  12.356  1.00  0.00    -0.359 OA
ATOM     20  HO  UNL     1     -35.580   2.970  12.624  1.00  0.00     0.217 HD
ENDBRANCH   9  19
BRANCH   4  21
HETATM   21  O   UNL     1     -36.140  -1.252  12.045  1.00  0.00    -0.385 OA
ATOM     22  HO  UNL     1     -35.198  -1.194  11.938  1.00  0.00     0.210 HD
ENDBRANCH   4  21
BRANCH  12  23
HETATM   23  O   UNL     1     -37.204  -1.736   9.731  1.00  0.00    -0.358 OA
ATOM     24  HO  UNL     1     -36.354  -1.984  10.078  1.00  0.00     0.213 HD
ENDBRANCH  12  23
TORSDOF 4
ENDMDL
MODEL 5
REMARK VINA RESULT:      -5.6      2.859      5.363
REMARK  4 active torsions:
REMARK  status: ('A' for Active; 'I' for Inactive)
REMARK    1  A    between atoms: C_4  and  O_17 
REMARK       I    between atoms: N_5  and  C_20 
REMARK    2  A    between atoms: O_8  and  C_19 
REMARK    3  A    between atoms: O_12  and  C_23 
REMARK    4  A    between atoms: C_14  and  C_20 
ROOT
HETATM    1  C   UNL     1     -41.312   2.269  12.752  1.00  0.00     0.028 C 
HETATM    2  N   UNL     1     -39.009   1.765   9.977  1.00  0.00    -0.383 N 
ATOM      3  HN  UNL     1     -39.072   2.684   9.539  1.00  0.00     0.159 HD
HETATM    4  C   UNL     1     -38.707  -0.734  11.411  1.00  0.00     0.225 C 
HETATM    5  C   UNL     1     -39.383   0.503  11.924  1.00  0.00     0.037 C 
HETATM    6  C   UNL     1     -40.937   2.267  11.410  1.00  0.00     0.059 C 
HETATM    7  C   UNL     1     -40.353   1.850  13.679  1.00  0.00    -0.027 C 
HETATM    8  C   UNL     1     -38.065   0.800   9.442  1.00  0.00     0.196 C 
HETATM    9  C   UNL     1     -39.412   0.877  13.256  1.00  0.00     0.083 C 
HETATM   10  F   UNL     1     -36.511  -0.331  10.780  1.00  0.00    -0.207 F 
HETATM   11  C   UNL     1     -40.173   2.541  14.987  1.00  0.00     0.051 C 
HETATM   12  C   UNL     1     -37.753  -0.449  10.242  1.00  0.00     0.249 C 
HETATM   13  C   UNL     1     -39.809   1.493  11.035  1.00  0.00     0.056 C 
ENDROOT
BRANCH   6  14
HETATM   14  C   UNL     1     -41.640   3.184  10.477  1.00  0.00     0.251 C 
HETATM   15  N   UNL     1     -42.077   4.339  10.987  1.00  0.00    -0.366 N 
ATOM     16  HN2 UNL     1     -42.560   4.968  10.346  1.00  0.00     0.159 HD
ATOM     17  HN1 UNL     1     -42.002   4.580  11.976  1.00  0.00     0.159 HD
HETATM   18  O   UNL     1     -41.732   2.891   9.276  1.00  0.00    -0.268 OA
ENDBRANCH   6  14
BRANCH   9  19
HETATM   19  O   UNL     1     -38.406   0.567  14.063  1.00  0.00    -0.359 OA
ATOM     20  HO  UNL     1     -38.564   0.392  14.983  1.00  0.00     0.217 HD
ENDBRANCH   9  19
BRANCH   4  21
HETATM   21  O   UNL     1     -39.677  -1.701  11.045  1.00  0.00    -0.385 OA
ATOM     22  HO  UNL     1     -39.422  -2.557  11.369  1.00  0.00     0.210 HD
ENDBRANCH   4  21
BRANCH  12  23
HETATM   23  O   UNL     1     -37.740  -1.523   9.332  1.00  0.00    -0.358 OA
ATOM     24  HO  UNL     1     -37.560  -2.343   9.777  1.00  0.00     0.213 HD
ENDBRANCH  12  23
TORSDOF 4
ENDMDL
MODEL 6
REMARK VINA RESULT:      -5.6      1.039      1.212
REMARK  4 active torsions:
REMARK  status: ('A' for Active; 'I' for Inactive)
REMARK    1  A    between atoms: C_4  and  O_17 
REMARK       I    between atoms: N_5  and  C_20 
REMARK    2  A    between atoms: O_8  and  C_19 
REMARK    3  A    between atoms: O_12  and  C_23 
REMARK    4  A    between atoms: C_14  and  C_20 
ROOT
HETATM    1  C   UNL     1     -37.762  -0.008  10.568  1.00  0.00     0.028 C 
HETATM    2  N   UNL     1     -37.438   1.041  14.039  1.00  0.00    -0.383 N 
ATOM      3  HN  UNL     1     -36.426   1.157  14.084  1.00  0.00     0.159 HD
HETATM    4  C   UNL     1     -40.318   0.915  13.763  1.00  0.00     0.225 C 
HETATM    5  C   UNL     1     -39.322   0.877  12.643  1.00  0.00     0.037 C 
HETATM    6  C   UNL     1     -37.256  -0.080  11.863  1.00  0.00     0.059 C 
HETATM    7  C   UNL     1     -38.706   0.990  10.310  1.00  0.00    -0.027 C 
HETATM    8  C   UNL     1     -38.234   1.402  15.198  1.00  0.00     0.196 C 
HETATM    9  C   UNL     1     -39.558   1.380  11.375  1.00  0.00     0.083 C 
HETATM   10  F   UNL     1     -40.094   2.820  15.069  1.00  0.00    -0.207 F 
HETATM   11  C   UNL     1     -38.690   1.777   9.045  1.00  0.00     0.051 C 
HETATM   12  C   UNL     1     -39.740   1.507  15.055  1.00  0.00     0.249 C 
HETATM   13  C   UNL     1     -37.986   0.556  12.900  1.00  0.00     0.056 C 
ENDROOT
BRANCH   6  14
HETATM   14  C   UNL     1     -35.916  -0.686  12.068  1.00  0.00     0.251 C 
HETATM   15  N   UNL     1     -35.782  -1.973  11.734  1.00  0.00    -0.366 N 
ATOM     16  HN2 UNL     1     -34.861  -2.388  11.875  1.00  0.00     0.159 HD
ATOM     17  HN1 UNL     1     -36.557  -2.552  11.412  1.00  0.00     0.159 HD
HETATM   18  O   UNL     1     -34.974   0.018  12.460  1.00  0.00    -0.268 OA
ENDBRANCH   6  14
BRANCH   9  19
HETATM   19  O   UNL     1     -40.362   2.419  11.203  1.00  0.00    -0.359 OA
ATOM     20  HO  UNL     1     -40.232   3.013  10.473  1.00  0.00     0.217 HD
ENDBRANCH   9  19
BRANCH   4  21
HETATM   21  O   UNL     1     -40.839  -0.384  13.994  1.00  0.00    -0.385 OA
ATOM     22  HO  UNL     1     -40.128  -1.002  14.117  1.00  0.00     0.210 HD
ENDBRANCH   4  21
BRANCH  12  23
HETATM   23  O   UNL     1     -40.301   0.887  16.188  1.00  0.00    -0.358 OA
ATOM     24  HO  UNL     1     -39.932   1.243  16.987  1.00  0.00     0.213 HD
ENDBRANCH  12  23
TORSDOF 4
ENDMDL
MODEL 7
REMARK VINA RESULT:      -5.3      2.100      3.451
REMARK  4 active torsions:
REMARK  status: ('A' for Active; 'I' for Inactive)
REMARK    1  A    between atoms: C_4  and  O_17 
REMARK       I    between atoms: N_5  and  C_20 
REMARK    2  A    between atoms: O_8  and  C_19 
REMARK    3  A    between atoms: O_12  and  C_23 
REMARK    4  A    between atoms: C_14  and  C_20 
ROOT
HETATM    1  C   UNL     1     -36.498   1.487  13.356  1.00  0.00     0.028 C 
HETATM    2  N   UNL     1     -39.224  -0.633  12.205  1.00  0.00    -0.383 N 
ATOM      3  HN  UNL     1     -38.729  -1.523  12.144  1.00  0.00     0.159 HD
HETATM    4  C   UNL     1     -40.611   1.874  12.628  1.00  0.00     0.225 C 
HETATM    5  C   UNL     1     -39.229   1.538  13.103  1.00  0.00     0.037 C 
HETATM    6  C   UNL     1     -37.108   0.574  12.500  1.00  0.00     0.059 C 
HETATM    7  C   UNL     1     -37.256   1.948  14.436  1.00  0.00    -0.027 C 
HETATM    8  C   UNL     1     -40.652  -0.611  11.945  1.00  0.00     0.196 C 
HETATM    9  C   UNL     1     -38.660   2.043  14.260  1.00  0.00     0.083 C 
HETATM   10  F   UNL     1     -42.194   0.369  13.412  1.00  0.00    -0.207 F 
HETATM   11  C   UNL     1     -36.662   2.129  15.791  1.00  0.00     0.051 C 
HETATM   12  C   UNL     1     -41.448   0.629  12.305  1.00  0.00     0.249 C 
HETATM   13  C   UNL     1     -38.523   0.479  12.525  1.00  0.00     0.056 C 
ENDROOT
BRANCH   6  14
HETATM   14  C   UNL     1     -36.246  -0.350  11.719  1.00  0.00     0.251 C 
HETATM   15  N   UNL     1     -35.336  -1.045  12.405  1.00  0.00    -0.366 N 
ATOM     16  HN2 UNL     1     -34.744  -1.679  11.869  1.00  0.00     0.159 HD
ATOM     17  HN1 UNL     1     -35.175  -0.924  13.406  1.00  0.00     0.159 HD
HETATM   18  O   UNL     1     -36.441  -0.496  10.503  1.00  0.00    -0.268 OA
ENDBRANCH   6  14
BRANCH   9  19
HETATM   19  O   UNL     1     -39.418   2.338  15.307  1.00  0.00    -0.359 OA
ATOM     20  HO  UNL     1     -40.365   2.320  15.237  1.00  0.00     0.217 HD
ENDBRANCH   9  19
BRANCH   4  21
HETATM   21  O   UNL     1     -40.542   2.739  11.506  1.00  0.00    -0.385 OA
ATOM     22  HO  UNL     1     -41.329   2.654  10.981  1.00  0.00     0.210 HD
ENDBRANCH   4  21
BRANCH  12  23
HETATM   23  O   UNL     1     -42.324   0.877  11.231  1.00  0.00    -0.358 OA
ATOM     24  HO  UNL     1     -43.220   0.671  11.469  1.00  0.00     0.213 HD
ENDBRANCH  12  23
TORSDOF 4
ENDMDL
MODEL 8
REMARK VINA RESULT:      -5.3      2.607      4.424
REMARK  4 active torsions:
REMARK  status: ('A' for Active; 'I' for Inactive)
REMARK    1  A    between atoms: C_4  and  O_17 
REMARK       I    between atoms: N_5  and  C_20 
REMARK    2  A    between atoms: O_8  and  C_19 
REMARK    3  A    between atoms: O_12  and  C_23 
REMARK    4  A    between atoms: C_14  and  C_20 
ROOT
HETATM    1  C   UNL     1     -38.898   0.342  11.350  1.00  0.00     0.028 C 
HETATM    2  N   UNL     1     -39.763   1.067  14.811  1.00  0.00    -0.383 N 
ATOM      3  HN  UNL     1     -40.601   0.493  14.898  1.00  0.00     0.159 HD
HETATM    4  C   UNL     1     -37.250   2.484  14.558  1.00  0.00     0.225 C 
HETATM    5  C   UNL     1     -37.796   1.476  13.592  1.00  0.00     0.037 C 
HETATM    6  C   UNL     1     -39.744   0.752  12.378  1.00  0.00     0.059 C 
HETATM    7  C   UNL     1     -37.596  -0.022  11.707  1.00  0.00    -0.027 C 
HETATM    8  C   UNL     1     -39.268   1.759  15.987  1.00  0.00     0.196 C 
HETATM    9  C   UNL     1     -37.014   0.632  12.823  1.00  0.00     0.083 C 
HETATM   10  F   UNL     1     -37.041   1.616  16.700  1.00  0.00    -0.207 F 
HETATM   11  C   UNL     1     -36.915  -1.197  11.095  1.00  0.00     0.051 C 
HETATM   12  C   UNL     1     -37.883   2.377  15.952  1.00  0.00     0.249 C 
HETATM   13  C   UNL     1     -39.156   1.153  13.604  1.00  0.00     0.056 C 
ENDROOT
BRANCH   6  14
HETATM   14  C   UNL     1     -41.210   0.608  12.188  1.00  0.00     0.251 C 
HETATM   15  N   UNL     1     -41.772   1.374  11.249  1.00  0.00    -0.366 N 
ATOM     16  HN2 UNL     1     -42.778   1.274  11.119  1.00  0.00     0.159 HD
ATOM     17  HN1 UNL     1     -41.257   2.076  10.716  1.00  0.00     0.159 HD
HETATM   18  O   UNL     1     -41.835  -0.244  12.837  1.00  0.00    -0.268 OA
ENDBRANCH   6  14
BRANCH   9  19
HETATM   19  O   UNL     1     -35.841   0.208  13.272  1.00  0.00    -0.359 OA
ATOM     20  HO  UNL     1     -35.164   0.830  13.513  1.00  0.00     0.217 HD
ENDBRANCH   9  19
BRANCH   4  21
HETATM   21  O   UNL     1     -37.404   3.793  14.034  1.00  0.00    -0.385 OA
ATOM     22  HO  UNL     1     -37.663   4.391  14.725  1.00  0.00     0.210 HD
ENDBRANCH   4  21
BRANCH  12  23
HETATM   23  O   UNL     1     -37.987   3.644  16.555  1.00  0.00    -0.358 OA
ATOM     24  HO  UNL     1     -37.740   4.331  15.947  1.00  0.00     0.213 HD
ENDBRANCH  12  23
TORSDOF 4
ENDMDL
MODEL 9
REMARK VINA RESULT:      -5.2      2.645      4.826
REMARK  4 active torsions:
REMARK  status: ('A' for Active; 'I' for Inactive)
REMARK    1  A    between atoms: C_4  and  O_17 
REMARK       I    between atoms: N_5  and  C_20 
REMARK    2  A    between atoms: O_8  and  C_19 
REMARK    3  A    between atoms: O_12  and  C_23 
REMARK    4  A    between atoms: C_14  and  C_20 
ROOT
HETATM    1  C   UNL     1     -41.751   2.264  12.878  1.00  0.00     0.028 C 
HETATM    2  N   UNL     1     -39.732  -0.601  11.894  1.00  0.00    -0.383 N 
ATOM      3  HN  UNL     1     -40.235  -1.338  12.389  1.00  0.00     0.159 HD
HETATM    4  C   UNL     1     -38.503   1.507  10.335  1.00  0.00     0.225 C 
HETATM    5  C   UNL     1     -39.815   1.593  11.055  1.00  0.00     0.037 C 
HETATM    6  C   UNL     1     -40.979   1.128  13.110  1.00  0.00     0.059 C 
HETATM    7  C   UNL     1     -41.932   2.649  11.547  1.00  0.00    -0.027 C 
HETATM    8  C   UNL     1     -38.629  -0.972  11.027  1.00  0.00     0.196 C 
HETATM    9  C   UNL     1     -40.885   2.363  10.633  1.00  0.00     0.083 C 
HETATM   10  F   UNL     1     -38.455  -0.240   8.809  1.00  0.00    -0.207 F 
HETATM   11  C   UNL     1     -43.246   3.138  11.043  1.00  0.00     0.051 C 
HETATM   12  C   UNL     1     -38.060   0.061  10.074  1.00  0.00     0.249 C 
HETATM   13  C   UNL     1     -40.121   0.683  12.072  1.00  0.00     0.056 C 
ENDROOT
BRANCH   6  14
HETATM   14  C   UNL     1     -41.202   0.363  14.363  1.00  0.00     0.251 C 
HETATM   15  N   UNL     1     -42.456   0.310  14.818  1.00  0.00    -0.366 N 
ATOM     16  HN2 UNL     1     -42.609  -0.215  15.679  1.00  0.00     0.159 HD
ATOM     17  HN1 UNL     1     -43.232   0.811  14.384  1.00  0.00     0.159 HD
HETATM   18  O   UNL     1     -40.259  -0.244  14.891  1.00  0.00    -0.268 OA
ENDBRANCH   6  14
BRANCH   9  19
HETATM   19  O   UNL     1     -41.085   2.584   9.341  1.00  0.00    -0.359 OA
ATOM     20  HO  UNL     1     -41.673   3.275   9.057  1.00  0.00     0.217 HD
ENDBRANCH   9  19
BRANCH   4  21
HETATM   21  O   UNL     1     -37.507   2.217  11.054  1.00  0.00    -0.385 OA
ATOM     22  HO  UNL     1     -36.774   1.644  11.247  1.00  0.00     0.210 HD
ENDBRANCH   4  21
BRANCH  12  23
HETATM   23  O   UNL     1     -36.658  -0.054  10.137  1.00  0.00    -0.358 OA
ATOM     24  HO  UNL     1     -36.267   0.743  10.474  1.00  0.00     0.213 HD
ENDBRANCH  12  23
TORSDOF 4
ENDMDL
