REMARK  5 active torsions:
REMARK  status: ('A' for Active; 'I' for Inactive)
REMARK    1  A    between atoms: O_2  and  C_18 
REMARK    2  A    between atoms: O_6  and  C_10 
REMARK    3  A    between atoms: O_8  and  C_14 
REMARK    4  A    between atoms: C_10  and  O_15 
REMARK    5  A    between atoms: C_11  and  N_13 
ROOT
HETATM    1  N   UNL     1      45.016  -6.348  22.161  1.00  0.00    -0.334 N 
ATOM      2  HN  UNL     1      44.615  -7.271  22.327  1.00  0.00     0.161 HD
HETATM    3  C   UNL     1      45.982  -6.190  21.081  1.00  0.00     0.265 C 
HETATM    4  C   UNL     1      44.622  -5.304  22.966  1.00  0.00     0.314 C 
HETATM    5  C   UNL     1      46.114  -4.770  20.613  1.00  0.00     0.104 C 
HETATM    6  C   UNL     1      45.044  -3.986  22.628  1.00  0.00     0.124 C 
HETATM    7  C   UNL     1      45.669  -3.775  21.385  1.00  0.00     0.102 C 
ENDROOT
BRANCH   3   8
HETATM    8  O   UNL     1      45.561  -6.902  19.975  1.00  0.00    -0.346 OA
ATOM      9  HO  UNL     1      46.191  -6.799  19.271  1.00  0.00     0.215 HD
ENDBRANCH   3   8
BRANCH   3  10
HETATM   10  O   UNL     1      47.195  -6.741  21.421  1.00  0.00    -0.346 OA
ATOM     11  HO  UNL     1      47.825  -6.638  20.717  1.00  0.00     0.215 HD
ENDBRANCH   3  10
BRANCH   4  12
HETATM   12  N   UNL     1      43.264  -5.380  23.304  1.00  0.00    -0.124 N 
HETATM   13  O   UNL     1      42.630  -6.258  22.783  1.00  0.00    -0.534 OA
HETATM   14  O   UNL     1      42.783  -4.505  23.992  1.00  0.00    -0.534 OA
ENDBRANCH   4  12
BRANCH   7  15
HETATM   15  O   UNL     1      45.650  -2.505  20.966  1.00  0.00    -0.358 OA
ATOM     16  HO  UNL     1      45.333  -1.797  21.515  1.00  0.00     0.217 HD
ENDBRANCH   7  15
BRANCH   6  17
HETATM   17  O   UNL     1      45.004  -3.042  23.529  1.00  0.00    -0.358 OA
ATOM     18  HO  UNL     1      45.285  -2.163  23.304  1.00  0.00     0.217 HD
ENDBRANCH   6  17
TORSDOF 5
