MODEL 1
REMARK VINA RESULT:      -6.1      0.000      0.000
REMARK  2 active torsions:
REMARK  status: ('A' for Active; 'I' for Inactive)
REMARK    1  A    between atoms: O_4  and  C_11 
REMARK    2  A    between atoms: C_7  and  N_8 
ROOT
HETATM    1  F   UNL     1      43.514  32.474  56.594  1.00  0.00    -0.205 F 
HETATM    2  C   UNL     1      44.671  33.044  56.260  1.00  0.00     0.126 C 
HETATM    3  N   UNL     1      44.454  33.893  52.758  1.00  0.00    -0.367 N 
HETATM    4  C   UNL     1      44.239  32.866  53.769  1.00  0.00     0.168 C 
HETATM    5  C   UNL     1      45.728  34.240  52.505  1.00  0.00     0.179 C 
HETATM    6  C   UNL     1      46.356  33.734  54.703  1.00  0.00     0.043 C 
HETATM    7  N   UNL     1      46.685  34.150  53.436  1.00  0.00    -0.352 N 
ATOM      8  HN  UNL     1      47.651  34.388  53.206  1.00  0.00     0.166 HD
HETATM    9  C   UNL     1      45.102  33.195  54.952  1.00  0.00     0.025 C 
HETATM   10  C   UNL     1      45.415  33.547  57.318  1.00  0.00     0.043 C 
HETATM   11  C   UNL     1      46.733  33.895  57.080  1.00  0.00     0.005 C 
HETATM   12  C   UNL     1      47.185  34.062  55.783  1.00  0.00     0.030 C 
ENDROOT
BRANCH   3  13
HETATM   13  C   UNL     1      43.311  34.491  52.093  1.00  0.00     0.096 C 
HETATM   14  C   UNL     1      43.278  34.066  50.623  1.00  0.00     0.064 C 
HETATM   15  C   UNL     1      42.275  35.037  49.995  1.00  0.00     0.263 C 
HETATM   16  C   UNL     1      42.661  32.661  50.525  1.00  0.00     0.014 C 
HETATM   17  O   UNL     1      41.090  35.094  50.762  1.00  0.00    -0.356 OA
HETATM   18  C   UNL     1      40.913  33.995  51.673  1.00  0.00     0.126 C 
HETATM   19  C   UNL     1      41.195  32.697  50.943  1.00  0.00     0.033 C 
HETATM   20  C   UNL     1      41.973  34.193  52.762  1.00  0.00     0.057 C 
BRANCH  15  21
HETATM   21  O   UNL     1      41.936  34.580  48.719  1.00  0.00    -0.371 OA
ATOM     22  HO  UNL     1      42.009  33.633  48.699  1.00  0.00     0.212 HD
ENDBRANCH  15  21
ENDBRANCH   3  13
TORSDOF 2
ENDMDL
MODEL 2
REMARK VINA RESULT:      -6.0      2.148      2.766
REMARK  2 active torsions:
REMARK  status: ('A' for Active; 'I' for Inactive)
REMARK    1  A    between atoms: O_4  and  C_11 
REMARK    2  A    between atoms: C_7  and  N_8 
ROOT
HETATM    1  F   UNL     1      46.038  36.269  53.488  1.00  0.00    -0.205 F 
HETATM    2  C   UNL     1      46.152  35.264  54.355  1.00  0.00     0.126 C 
HETATM    3  N   UNL     1      43.151  33.278  54.064  1.00  0.00    -0.367 N 
HETATM    4  C   UNL     1      43.706  34.619  54.194  1.00  0.00     0.168 C 
HETATM    5  C   UNL     1      43.291  32.457  55.119  1.00  0.00     0.179 C 
HETATM    6  C   UNL     1      45.283  33.516  55.745  1.00  0.00     0.043 C 
HETATM    7  N   UNL     1      44.316  32.567  55.972  1.00  0.00    -0.352 N 
ATOM      8  HN  UNL     1      44.379  31.952  56.785  1.00  0.00     0.166 HD
HETATM    9  C   UNL     1      45.082  34.495  54.782  1.00  0.00     0.025 C 
HETATM   10  C   UNL     1      47.444  34.981  54.774  1.00  0.00     0.043 C 
HETATM   11  C   UNL     1      47.607  34.150  55.870  1.00  0.00     0.005 C 
HETATM   12  C   UNL     1      46.556  33.364  56.308  1.00  0.00     0.030 C 
ENDROOT
BRANCH   3  13
HETATM   13  C   UNL     1      42.498  32.892  52.826  1.00  0.00     0.096 C 
HETATM   14  C   UNL     1      43.202  33.548  51.637  1.00  0.00     0.064 C 
HETATM   15  C   UNL     1      42.210  33.354  50.487  1.00  0.00     0.263 C 
HETATM   16  C   UNL     1      44.457  32.731  51.287  1.00  0.00     0.014 C 
HETATM   17  O   UNL     1      41.777  32.011  50.425  1.00  0.00    -0.356 OA
HETATM   18  C   UNL     1      42.613  31.079  51.132  1.00  0.00     0.126 C 
HETATM   19  C   UNL     1      44.062  31.348  50.780  1.00  0.00     0.033 C 
HETATM   20  C   UNL     1      42.397  31.384  52.619  1.00  0.00     0.057 C 
BRANCH  15  21
HETATM   21  O   UNL     1      42.847  33.653  49.280  1.00  0.00    -0.371 OA
ATOM     22  HO  UNL     1      42.321  34.281  48.798  1.00  0.00     0.212 HD
ENDBRANCH  15  21
ENDBRANCH   3  13
TORSDOF 2
ENDMDL
MODEL 3
REMARK VINA RESULT:      -5.8      3.584      6.096
REMARK  2 active torsions:
REMARK  status: ('A' for Active; 'I' for Inactive)
REMARK    1  A    between atoms: O_4  and  C_11 
REMARK    2  A    between atoms: C_7  and  N_8 
ROOT
HETATM    1  F   UNL     1      41.746  32.522  53.949  1.00  0.00    -0.205 F 
HETATM    2  C   UNL     1      42.690  32.585  53.010  1.00  0.00     0.126 C 
HETATM    3  N   UNL     1      45.369  34.602  54.345  1.00  0.00    -0.367 N 
HETATM    4  C   UNL     1      43.931  34.483  54.141  1.00  0.00     0.168 C 
HETATM    5  C   UNL     1      46.128  34.768  53.248  1.00  0.00     0.179 C 
HETATM    6  C   UNL     1      44.600  33.564  51.946  1.00  0.00     0.043 C 
HETATM    7  N   UNL     1      45.762  34.289  52.053  1.00  0.00    -0.352 N 
ATOM      8  HN  UNL     1      46.340  34.459  51.230  1.00  0.00     0.166 HD
HETATM    9  C   UNL     1      43.704  33.528  53.005  1.00  0.00     0.025 C 
HETATM   10  C   UNL     1      42.636  31.591  52.043  1.00  0.00     0.043 C 
HETATM   11  C   UNL     1      43.398  31.753  50.899  1.00  0.00     0.005 C 
HETATM   12  C   UNL     1      44.425  32.681  50.873  1.00  0.00     0.030 C 
ENDROOT
BRANCH   3  13
HETATM   13  C   UNL     1      45.909  34.525  55.691  1.00  0.00     0.096 C 
HETATM   14  C   UNL     1      45.280  33.348  56.440  1.00  0.00     0.064 C 
HETATM   15  C   UNL     1      45.654  33.616  57.900  1.00  0.00     0.263 C 
HETATM   16  C   UNL     1      45.998  32.053  56.025  1.00  0.00     0.014 C 
HETATM   17  O   UNL     1      47.034  33.899  58.015  1.00  0.00    -0.356 OA
HETATM   18  C   UNL     1      47.826  33.493  56.886  1.00  0.00     0.126 C 
HETATM   19  C   UNL     1      47.447  32.077  56.501  1.00  0.00     0.033 C 
HETATM   20  C   UNL     1      47.431  34.441  55.749  1.00  0.00     0.057 C 
BRANCH  15  21
HETATM   21  O   UNL     1      45.389  32.472  58.656  1.00  0.00    -0.371 OA
ATOM     22  HO  UNL     1      45.252  32.724  59.562  1.00  0.00     0.212 HD
ENDBRANCH  15  21
ENDBRANCH   3  13
TORSDOF 2
ENDMDL
MODEL 4
REMARK VINA RESULT:      -5.6      4.827      7.724
REMARK  2 active torsions:
REMARK  status: ('A' for Active; 'I' for Inactive)
REMARK    1  A    between atoms: O_4  and  C_11 
REMARK    2  A    between atoms: C_7  and  N_8 
ROOT
HETATM    1  F   UNL     1      46.001  36.029  54.100  1.00  0.00    -0.205 F 
HETATM    2  C   UNL     1      45.473  34.870  54.492  1.00  0.00     0.126 C 
HETATM    3  N   UNL     1      47.680  33.502  57.000  1.00  0.00    -0.367 N 
HETATM    4  C   UNL     1      47.579  34.114  55.681  1.00  0.00     0.168 C 
HETATM    5  C   UNL     1      47.166  32.268  57.139  1.00  0.00     0.179 C 
HETATM    6  C   UNL     1      45.570  32.689  55.479  1.00  0.00     0.043 C 
HETATM    7  N   UNL     1      46.145  31.836  56.389  1.00  0.00    -0.352 N 
ATOM      8  HN  UNL     1      45.798  30.882  56.491  1.00  0.00     0.166 HD
HETATM    9  C   UNL     1      46.182  33.897  55.177  1.00  0.00     0.025 C 
HETATM   10  C   UNL     1      44.121  34.710  54.222  1.00  0.00     0.043 C 
HETATM   11  C   UNL     1      43.579  33.442  54.344  1.00  0.00     0.005 C 
HETATM   12  C   UNL     1      44.262  32.456  55.033  1.00  0.00     0.030 C 
ENDROOT
BRANCH   3  13
HETATM   13  C   UNL     1      48.303  34.240  58.084  1.00  0.00     0.096 C 
HETATM   14  C   UNL     1      47.509  35.516  58.373  1.00  0.00     0.064 C 
HETATM   15  C   UNL     1      48.462  36.336  59.247  1.00  0.00     0.263 C 
HETATM   16  C   UNL     1      46.295  35.160  59.248  1.00  0.00     0.014 C 
HETATM   17  O   UNL     1      48.977  35.545  60.298  1.00  0.00    -0.356 OA
HETATM   18  C   UNL     1      48.233  34.344  60.565  1.00  0.00     0.126 C 
HETATM   19  C   UNL     1      46.756  34.679  60.620  1.00  0.00     0.033 C 
HETATM   20  C   UNL     1      48.491  33.429  59.363  1.00  0.00     0.057 C 
BRANCH  15  21
HETATM   21  O   UNL     1      47.757  37.398  59.817  1.00  0.00    -0.371 OA
ATOM     22  HO  UNL     1      48.357  37.931  60.326  1.00  0.00     0.212 HD
ENDBRANCH  15  21
ENDBRANCH   3  13
TORSDOF 2
ENDMDL
MODEL 5
REMARK VINA RESULT:      -5.6      1.887      2.385
REMARK  2 active torsions:
REMARK  status: ('A' for Active; 'I' for Inactive)
REMARK    1  A    between atoms: O_4  and  C_11 
REMARK    2  A    between atoms: C_7  and  N_8 
ROOT
HETATM    1  F   UNL     1      42.045  30.018  55.190  1.00  0.00    -0.205 F 
HETATM    2  C   UNL     1      42.683  30.947  55.901  1.00  0.00     0.126 C 
HETATM    3  N   UNL     1      43.183  33.781  53.721  1.00  0.00    -0.367 N 
HETATM    4  C   UNL     1      43.287  32.335  53.868  1.00  0.00     0.168 C 
HETATM    5  C   UNL     1      44.011  34.530  54.470  1.00  0.00     0.179 C 
HETATM    6  C   UNL     1      44.048  32.900  56.150  1.00  0.00     0.043 C 
HETATM    7  N   UNL     1      44.469  34.111  55.655  1.00  0.00    -0.352 N 
ATOM      8  HN  UNL     1      45.124  34.685  56.187  1.00  0.00     0.166 HD
HETATM    9  C   UNL     1      43.347  32.023  55.335  1.00  0.00     0.025 C 
HETATM   10  C   UNL     1      42.595  30.809  57.279  1.00  0.00     0.043 C 
HETATM   11  C   UNL     1      43.452  31.560  58.065  1.00  0.00     0.005 C 
HETATM   12  C   UNL     1      44.118  32.647  57.526  1.00  0.00     0.030 C 
ENDROOT
BRANCH   3  13
HETATM   13  C   UNL     1      42.204  34.338  52.805  1.00  0.00     0.096 C 
HETATM   14  C   UNL     1      42.909  34.948  51.592  1.00  0.00     0.064 C 
HETATM   15  C   UNL     1      41.815  35.789  50.931  1.00  0.00     0.263 C 
HETATM   16  C   UNL     1      43.266  33.824  50.605  1.00  0.00     0.014 C 
HETATM   17  O   UNL     1      40.630  35.034  50.780  1.00  0.00    -0.356 OA
HETATM   18  C   UNL     1      40.810  33.611  50.881  1.00  0.00     0.126 C 
HETATM   19  C   UNL     1      41.997  33.200  50.033  1.00  0.00     0.033 C 
HETATM   20  C   UNL     1      41.136  33.345  52.355  1.00  0.00     0.057 C 
BRANCH  15  21
HETATM   21  O   UNL     1      42.241  36.174  49.658  1.00  0.00    -0.371 OA
ATOM     22  HO  UNL     1      41.629  35.842  49.012  1.00  0.00     0.212 HD
ENDBRANCH  15  21
ENDBRANCH   3  13
TORSDOF 2
ENDMDL
MODEL 6
REMARK VINA RESULT:      -5.6      3.587      6.472
REMARK  2 active torsions:
REMARK  status: ('A' for Active; 'I' for Inactive)
REMARK    1  A    between atoms: O_4  and  C_11 
REMARK    2  A    between atoms: C_7  and  N_8 
ROOT
HETATM    1  F   UNL     1      41.574  32.976  53.868  1.00  0.00    -0.205 F 
HETATM    2  C   UNL     1      42.511  33.152  52.937  1.00  0.00     0.126 C 
HETATM    3  N   UNL     1      45.584  33.919  54.668  1.00  0.00    -0.367 N 
HETATM    4  C   UNL     1      44.160  34.204  54.548  1.00  0.00     0.168 C 
HETATM    5  C   UNL     1      46.367  34.285  53.638  1.00  0.00     0.179 C 
HETATM    6  C   UNL     1      44.604  33.988  52.126  1.00  0.00     0.043 C 
HETATM    7  N   UNL     1      45.904  34.349  52.384  1.00  0.00    -0.352 N 
ATOM      8  HN  UNL     1      46.511  34.663  51.626  1.00  0.00     0.166 HD
HETATM    9  C   UNL     1      43.719  33.784  53.175  1.00  0.00     0.025 C 
HETATM   10  C   UNL     1      42.228  32.598  51.696  1.00  0.00     0.043 C 
HETATM   11  C   UNL     1      43.014  32.976  50.620  1.00  0.00     0.005 C 
HETATM   12  C   UNL     1      44.231  33.599  50.833  1.00  0.00     0.030 C 
ENDROOT
BRANCH   3  13
HETATM   13  C   UNL     1      46.082  33.257  55.859  1.00  0.00     0.096 C 
HETATM   14  C   UNL     1      47.406  33.889  56.295  1.00  0.00     0.064 C 
HETATM   15  C   UNL     1      47.968  32.879  57.300  1.00  0.00     0.263 C 
HETATM   16  C   UNL     1      47.108  35.179  57.077  1.00  0.00     0.014 C 
HETATM   17  O   UNL     1      46.984  32.523  58.249  1.00  0.00    -0.356 OA
HETATM   18  C   UNL     1      45.871  33.430  58.329  1.00  0.00     0.126 C 
HETATM   19  C   UNL     1      46.395  34.851  58.385  1.00  0.00     0.033 C 
HETATM   20  C   UNL     1      45.094  33.237  57.022  1.00  0.00     0.057 C 
BRANCH  15  21
HETATM   21  O   UNL     1      49.033  33.465  57.988  1.00  0.00    -0.371 OA
ATOM     22  HO  UNL     1      48.719  33.798  58.820  1.00  0.00     0.212 HD
ENDBRANCH  15  21
ENDBRANCH   3  13
TORSDOF 2
ENDMDL
MODEL 7
REMARK VINA RESULT:      -5.6      4.695      7.913
REMARK  2 active torsions:
REMARK  status: ('A' for Active; 'I' for Inactive)
REMARK    1  A    between atoms: O_4  and  C_11 
REMARK    2  A    between atoms: C_7  and  N_8 
ROOT
HETATM    1  F   UNL     1      46.233  36.300  53.793  1.00  0.00    -0.205 F 
HETATM    2  C   UNL     1      45.666  35.103  53.941  1.00  0.00     0.126 C 
HETATM    3  N   UNL     1      46.720  33.827  57.149  1.00  0.00    -0.367 N 
HETATM    4  C   UNL     1      47.135  34.456  55.902  1.00  0.00     0.168 C 
HETATM    5  C   UNL     1      46.274  32.561  57.073  1.00  0.00     0.179 C 
HETATM    6  C   UNL     1      45.485  32.914  54.898  1.00  0.00     0.043 C 
HETATM    7  N   UNL     1      45.686  32.081  55.971  1.00  0.00    -0.352 N 
ATOM      8  HN  UNL     1      45.388  31.106  55.929  1.00  0.00     0.166 HD
HETATM    9  C   UNL     1      46.088  34.163  54.866  1.00  0.00     0.025 C 
HETATM   10  C   UNL     1      44.559  34.865  53.137  1.00  0.00     0.043 C 
HETATM   11  C   UNL     1      44.097  33.564  53.034  1.00  0.00     0.005 C 
HETATM   12  C   UNL     1      44.496  32.609  53.953  1.00  0.00     0.030 C 
ENDROOT
BRANCH   3  13
HETATM   13  C   UNL     1      46.790  34.581  58.387  1.00  0.00     0.096 C 
HETATM   14  C   UNL     1      47.705  33.867  59.384  1.00  0.00     0.064 C 
HETATM   15  C   UNL     1      47.392  34.558  60.713  1.00  0.00     0.263 C 
HETATM   16  C   UNL     1      49.168  34.198  59.042  1.00  0.00     0.014 C 
HETATM   17  O   UNL     1      47.433  35.963  60.564  1.00  0.00    -0.356 OA
HETATM   18  C   UNL     1      48.124  36.421  59.390  1.00  0.00     0.126 C 
HETATM   19  C   UNL     1      49.441  35.681  59.270  1.00  0.00     0.033 C 
HETATM   20  C   UNL     1      47.226  36.032  58.210  1.00  0.00     0.057 C 
BRANCH  15  21
HETATM   21  O   UNL     1      48.360  34.200  61.654  1.00  0.00    -0.371 OA
ATOM     22  HO  UNL     1      48.618  34.972  62.143  1.00  0.00     0.212 HD
ENDBRANCH  15  21
ENDBRANCH   3  13
TORSDOF 2
ENDMDL
MODEL 8
REMARK VINA RESULT:      -5.5      2.092      3.068
REMARK  2 active torsions:
REMARK  status: ('A' for Active; 'I' for Inactive)
REMARK    1  A    between atoms: O_4  and  C_11 
REMARK    2  A    between atoms: C_7  and  N_8 
ROOT
HETATM    1  F   UNL     1      47.819  31.147  56.637  1.00  0.00    -0.205 F 
HETATM    2  C   UNL     1      47.833  32.399  57.094  1.00  0.00     0.126 C 
HETATM    3  N   UNL     1      45.686  34.334  54.932  1.00  0.00    -0.367 N 
HETATM    4  C   UNL     1      46.765  33.357  55.005  1.00  0.00     0.168 C 
HETATM    5  C   UNL     1      45.962  35.580  55.354  1.00  0.00     0.179 C 
HETATM    6  C   UNL     1      47.539  34.767  56.882  1.00  0.00     0.043 C 
HETATM    7  N   UNL     1      46.884  35.822  56.293  1.00  0.00    -0.352 N 
ATOM      8  HN  UNL     1      47.098  36.780  56.570  1.00  0.00     0.166 HD
HETATM    9  C   UNL     1      47.418  33.491  56.351  1.00  0.00     0.025 C 
HETATM   10  C   UNL     1      48.242  32.548  58.412  1.00  0.00     0.043 C 
HETATM   11  C   UNL     1      48.548  33.822  58.859  1.00  0.00     0.005 C 
HETATM   12  C   UNL     1      48.134  34.930  58.140  1.00  0.00     0.030 C 
ENDROOT
BRANCH   3  13
HETATM   13  C   UNL     1      44.386  33.925  54.431  1.00  0.00     0.096 C 
HETATM   14  C   UNL     1      44.064  34.676  53.137  1.00  0.00     0.064 C 
HETATM   15  C   UNL     1      42.566  34.426  52.945  1.00  0.00     0.263 C 
HETATM   16  C   UNL     1      44.786  33.986  51.968  1.00  0.00     0.014 C 
HETATM   17  O   UNL     1      42.270  33.051  53.081  1.00  0.00    -0.356 OA
HETATM   18  C   UNL     1      43.406  32.179  52.960  1.00  0.00     0.126 C 
HETATM   19  C   UNL     1      44.218  32.588  51.747  1.00  0.00     0.033 C 
HETATM   20  C   UNL     1      44.242  32.421  54.222  1.00  0.00     0.057 C 
BRANCH  15  21
HETATM   21  O   UNL     1      42.200  34.815  51.654  1.00  0.00    -0.371 OA
ATOM     22  HO  UNL     1      41.718  34.108  51.241  1.00  0.00     0.212 HD
ENDBRANCH  15  21
ENDBRANCH   3  13
TORSDOF 2
ENDMDL
MODEL 9
REMARK VINA RESULT:      -5.4      3.952      6.622
REMARK  2 active torsions:
REMARK  status: ('A' for Active; 'I' for Inactive)
REMARK    1  A    between atoms: O_4  and  C_11 
REMARK    2  A    between atoms: C_7  and  N_8 
ROOT
HETATM    1  F   UNL     1      43.610  31.239  54.695  1.00  0.00    -0.205 F 
HETATM    2  C   UNL     1      43.992  31.978  53.654  1.00  0.00     0.126 C 
HETATM    3  N   UNL     1      46.215  34.522  54.926  1.00  0.00    -0.367 N 
HETATM    4  C   UNL     1      44.943  33.832  55.097  1.00  0.00     0.168 C 
HETATM    5  C   UNL     1      46.340  35.309  53.844  1.00  0.00     0.179 C 
HETATM    6  C   UNL     1      44.857  33.964  52.631  1.00  0.00     0.043 C 
HETATM    7  N   UNL     1      45.667  35.071  52.712  1.00  0.00    -0.352 N 
ATOM      8  HN  UNL     1      45.755  35.705  51.917  1.00  0.00     0.166 HD
HETATM    9  C   UNL     1      44.560  33.236  53.773  1.00  0.00     0.025 C 
HETATM   10  C   UNL     1      43.841  31.380  52.411  1.00  0.00     0.043 C 
HETATM   11  C   UNL     1      43.950  32.179  51.286  1.00  0.00     0.005 C 
HETATM   12  C   UNL     1      44.524  33.434  51.377  1.00  0.00     0.030 C 
ENDROOT
BRANCH   3  13
HETATM   13  C   UNL     1      47.271  34.323  55.902  1.00  0.00     0.096 C 
HETATM   14  C   UNL     1      46.872  34.947  57.241  1.00  0.00     0.064 C 
HETATM   15  C   UNL     1      48.188  34.983  58.022  1.00  0.00     0.263 C 
HETATM   16  C   UNL     1      45.938  33.978  57.983  1.00  0.00     0.014 C 
HETATM   17  O   UNL     1      48.832  33.727  57.968  1.00  0.00    -0.356 OA
HETATM   18  C   UNL     1      47.983  32.634  57.578  1.00  0.00     0.126 C 
HETATM   19  C   UNL     1      46.690  32.707  58.365  1.00  0.00     0.033 C 
HETATM   20  C   UNL     1      47.677  32.865  56.095  1.00  0.00     0.057 C 
BRANCH  15  21
HETATM   21  O   UNL     1      47.915  35.265  59.363  1.00  0.00    -0.371 OA
ATOM     22  HO  UNL     1      46.979  35.194  59.511  1.00  0.00     0.212 HD
ENDBRANCH  15  21
ENDBRANCH   3  13
TORSDOF 2
ENDMDL
