REMARK  4 active torsions:
REMARK  status: ('A' for Active; 'I' for Inactive)
REMARK    1  A    between atoms: C_3  and  O_13 
REMARK    2  A    between atoms: C_5  and  O_25 
REMARK    3  A    between atoms: O_6  and  C_16 
REMARK    4  A    between atoms: P_15  and  N_19 
ROOT
HETATM    1  C   UNL     1     -38.399 -25.856   6.449  1.00  0.00     0.054 C 
HETATM    2  C   UNL     1     -31.700 -24.643   5.973  1.00  0.00     0.162 C 
HETATM    3  C   UNL     1     -36.389 -24.455   7.078  1.00  0.00     0.109 C 
HETATM    4  C   UNL     1     -31.032 -23.987   7.185  1.00  0.00     0.153 C 
HETATM    5  O   UNL     1     -36.726 -26.650   4.255  1.00  0.00    -0.284 OA
HETATM    6  C   UNL     1     -35.658 -24.543   9.450  1.00  0.00     0.163 C 
HETATM    7  C   UNL     1     -37.009 -25.291   6.209  1.00  0.00     0.007 C 
HETATM    8  C   UNL     1     -35.104 -24.922   4.424  1.00  0.00     0.159 C 
HETATM    9  C   UNL     1     -36.343 -25.663   4.904  1.00  0.00     0.220 C 
HETATM   10  C   UNL     1     -31.943 -22.898   7.710  1.00  0.00     0.044 C 
HETATM   11  N   UNL     1     -36.557 -24.079   8.379  1.00  0.00    -0.283 N 
HETATM   12  C   UNL     1     -34.638 -23.438   9.830  1.00  0.00     0.252 C 
HETATM   13  C   UNL     1     -32.303 -22.992   9.194  1.00  0.00     0.239 C 
HETATM   14  N   UNL     1     -33.303 -24.002   9.530  1.00  0.00    -0.073 N 
ATOM     15  HN1 UNL     1     -33.366 -24.705   8.794  1.00  0.00     0.277 HD
ATOM     16  HN2 UNL     1     -32.979 -24.589  10.299  1.00  0.00     0.277 HD
HETATM   17  C   UNL     1     -33.139 -22.775   6.762  1.00  0.00     0.028 C 
HETATM   18  C   UNL     1     -34.083 -24.413   5.147  1.00  0.00    -0.108 C 
HETATM   19  C   UNL     1     -32.844 -23.698   5.569  1.00  0.00     0.091 C 
ENDROOT
BRANCH  11  20
HETATM   20  P   UNL     1     -37.774 -23.035   8.897  1.00  0.00     0.378 P 
HETATM   21  O   UNL     1     -38.302 -23.685  10.173  1.00  0.00    -0.622 OA
HETATM   22  O   UNL     1     -38.790 -22.966   7.811  1.00  0.00    -0.622 OA
HETATM   23  O   UNL     1     -37.131 -21.707   9.225  1.00  0.00    -0.622 OA
ENDBRANCH  11  20
BRANCH   8  24
HETATM   24  O   UNL     1     -34.990 -25.075   3.054  1.00  0.00    -0.350 OA
ATOM     25  HO  UNL     1     -34.216 -24.612   2.754  1.00  0.00     0.218 HD
ENDBRANCH   8  24
BRANCH   4  26
HETATM   26  O   UNL     1     -30.677 -24.987   8.139  1.00  0.00    -0.393 OA
ATOM     27  HO  UNL     1     -30.263 -24.580   8.891  1.00  0.00     0.210 HD
ENDBRANCH   4  26
BRANCH   2  28
HETATM   28  O   UNL     1     -30.720 -24.723   4.937  1.00  0.00    -0.392 OA
ATOM     29  HO  UNL     1     -31.134 -25.130   4.185  1.00  0.00     0.210 HD
ENDBRANCH   2  28
TORSDOF 4
