MODEL 1
REMARK VINA RESULT:      -3.6      0.000      0.000
REMARK  0 active torsions:
REMARK  status: ('A' for Active; 'I' for Inactive)
ROOT
HETATM    1  C   UNL     1      13.633   8.166  48.630  1.00  0.00     0.324 A 
HETATM    2  N   UNL     1      13.703   6.840  48.333  1.00  0.00    -0.318 N 
ATOM      3  HN  UNL     1      13.323   6.083  48.902  1.00  0.00     0.170 HD
HETATM    4  N   UNL     1      14.250   8.845  47.616  1.00  0.00    -0.318 N 
ATOM      5  HN  UNL     1      14.348   9.857  47.539  1.00  0.00     0.170 HD
HETATM    6  O   UNL     1      13.537   8.568  49.779  1.00  0.00    -0.247 OA
HETATM    7  C   UNL     1      14.366   6.689  47.145  1.00  0.00     0.110 A 
HETATM    8  C   UNL     1      14.718   7.903  46.707  1.00  0.00     0.110 A 
ENDROOT
TORSDOF 0
ENDMDL
MODEL 2
REMARK VINA RESULT:      -3.6      1.402      1.488
REMARK  0 active torsions:
REMARK  status: ('A' for Active; 'I' for Inactive)
ROOT
HETATM    1  C   UNL     1      14.379   7.959  47.406  1.00  0.00     0.324 A 
HETATM    2  N   UNL     1      14.718   6.642  47.329  1.00  0.00    -0.318 N 
ATOM      3  HN  UNL     1      14.738   5.988  48.111  1.00  0.00     0.170 HD
HETATM    4  N   UNL     1      14.470   8.478  46.144  1.00  0.00    -0.318 N 
ATOM      5  HN  UNL     1      14.263   9.438  45.871  1.00  0.00     0.170 HD
HETATM    6  O   UNL     1      14.511   8.602  48.435  1.00  0.00    -0.247 OA
HETATM    7  C   UNL     1      15.027   6.342  46.030  1.00  0.00     0.110 A 
HETATM    8  C   UNL     1      14.895   7.457  45.303  1.00  0.00     0.110 A 
ENDROOT
TORSDOF 0
ENDMDL
MODEL 3
REMARK VINA RESULT:      -3.5      4.907      5.072
REMARK  0 active torsions:
REMARK  status: ('A' for Active; 'I' for Inactive)
ROOT
HETATM    1  C   UNL     1      16.688   6.833  44.029  1.00  0.00     0.324 A 
HETATM    2  N   UNL     1      16.160   5.600  43.796  1.00  0.00    -0.318 N 
ATOM      3  HN  UNL     1      15.562   5.349  43.008  1.00  0.00     0.170 HD
HETATM    4  N   UNL     1      17.433   6.748  45.172  1.00  0.00    -0.318 N 
ATOM      5  HN  UNL     1      17.968   7.503  45.600  1.00  0.00     0.170 HD
HETATM    6  O   UNL     1      16.158   7.853  43.618  1.00  0.00    -0.247 OA
HETATM    7  C   UNL     1      16.565   4.752  44.791  1.00  0.00     0.110 A 
HETATM    8  C   UNL     1      17.327   5.445  45.644  1.00  0.00     0.110 A 
ENDROOT
TORSDOF 0
ENDMDL
MODEL 4
REMARK VINA RESULT:      -3.4      1.994      2.383
REMARK  0 active torsions:
REMARK  status: ('A' for Active; 'I' for Inactive)
ROOT
HETATM    1  C   UNL     1      14.739   7.890  46.711  1.00  0.00     0.324 A 
HETATM    2  N   UNL     1      14.242   6.704  47.158  1.00  0.00    -0.318 N 
ATOM      3  HN  UNL     1      14.381   5.796  46.714  1.00  0.00     0.170 HD
HETATM    4  N   UNL     1      14.336   8.858  47.588  1.00  0.00    -0.318 N 
ATOM      5  HN  UNL     1      14.561   9.851  47.536  1.00  0.00     0.170 HD
HETATM    6  O   UNL     1      14.998   8.081  45.534  1.00  0.00    -0.247 OA
HETATM    7  C   UNL     1      13.525   6.930  48.302  1.00  0.00     0.110 A 
HETATM    8  C   UNL     1      13.562   8.241  48.564  1.00  0.00     0.110 A 
ENDROOT
TORSDOF 0
ENDMDL
MODEL 5
REMARK VINA RESULT:      -3.3      1.742      2.695
REMARK  0 active torsions:
REMARK  status: ('A' for Active; 'I' for Inactive)
ROOT
HETATM    1  C   UNL     1      14.735   7.611  47.181  1.00  0.00     0.324 A 
HETATM    2  N   UNL     1      14.341   8.843  47.607  1.00  0.00    -0.318 N 
ATOM      3  HN  UNL     1      14.669   9.733  47.233  1.00  0.00     0.170 HD
HETATM    4  N   UNL     1      14.060   6.686  47.928  1.00  0.00    -0.318 N 
ATOM      5  HN  UNL     1      14.126   5.673  47.837  1.00  0.00     0.170 HD
HETATM    6  O   UNL     1      15.821   7.424  46.657  1.00  0.00    -0.247 OA
HETATM    7  C   UNL     1      13.433   8.690  48.620  1.00  0.00     0.110 A 
HETATM    8  C   UNL     1      13.266   7.380  48.834  1.00  0.00     0.110 A 
ENDROOT
TORSDOF 0
ENDMDL
MODEL 6
REMARK VINA RESULT:      -3.3      2.992      3.293
REMARK  0 active torsions:
REMARK  status: ('A' for Active; 'I' for Inactive)
ROOT
HETATM    1  C   UNL     1      15.588   7.240  46.337  1.00  0.00     0.324 A 
HETATM    2  N   UNL     1      16.846   6.730  46.439  1.00  0.00    -0.318 N 
ATOM      3  HN  UNL     1      17.313   6.471  47.308  1.00  0.00     0.170 HD
HETATM    4  N   UNL     1      15.335   7.442  45.009  1.00  0.00    -0.318 N 
ATOM      5  HN  UNL     1      14.469   7.801  44.607  1.00  0.00     0.170 HD
HETATM    6  O   UNL     1      15.066   7.865  47.247  1.00  0.00    -0.247 OA
HETATM    7  C   UNL     1      17.380   6.622  45.183  1.00  0.00     0.110 A 
HETATM    8  C   UNL     1      16.474   7.069  44.306  1.00  0.00     0.110 A 
ENDROOT
TORSDOF 0
ENDMDL
MODEL 7
REMARK VINA RESULT:      -3.2      2.196      3.120
REMARK  0 active torsions:
REMARK  status: ('A' for Active; 'I' for Inactive)
ROOT
HETATM    1  C   UNL     1      13.333   8.532  48.781  1.00  0.00     0.324 A 
HETATM    2  N   UNL     1      12.267   8.820  47.984  1.00  0.00    -0.318 N 
ATOM      3  HN  UNL     1      12.227   8.684  46.974  1.00  0.00     0.170 HD
HETATM    4  N   UNL     1      12.981   8.849  50.064  1.00  0.00    -0.318 N 
ATOM      5  HN  UNL     1      13.560   8.732  50.894  1.00  0.00     0.170 HD
HETATM    6  O   UNL     1      14.477   8.523  48.355  1.00  0.00    -0.247 OA
HETATM    7  C   UNL     1      11.259   9.323  48.762  1.00  0.00     0.110 A 
HETATM    8  C   UNL     1      11.689   9.360  50.028  1.00  0.00     0.110 A 
ENDROOT
TORSDOF 0
ENDMDL
MODEL 8
REMARK VINA RESULT:      -3.2      2.954      3.373
REMARK  0 active torsions:
REMARK  status: ('A' for Active; 'I' for Inactive)
ROOT
HETATM    1  C   UNL     1      15.559   7.355  46.352  1.00  0.00     0.324 A 
HETATM    2  N   UNL     1      15.280   7.499  45.028  1.00  0.00    -0.318 N 
ATOM      3  HN  UNL     1      14.394   7.821  44.639  1.00  0.00     0.170 HD
HETATM    4  N   UNL     1      16.849   6.913  46.452  1.00  0.00    -0.318 N 
ATOM      5  HN  UNL     1      17.357   6.724  47.316  1.00  0.00     0.170 HD
HETATM    6  O   UNL     1      14.685   7.145  47.179  1.00  0.00    -0.247 OA
HETATM    7  C   UNL     1      16.385   7.141  44.303  1.00  0.00     0.110 A 
HETATM    8  C   UNL     1      17.341   6.767  45.161  1.00  0.00     0.110 A 
ENDROOT
TORSDOF 0
ENDMDL
MODEL 9
REMARK VINA RESULT:      -3.2      2.412      3.047
REMARK  0 active torsions:
REMARK  status: ('A' for Active; 'I' for Inactive)
ROOT
HETATM    1  C   UNL     1      14.535   7.767  45.790  1.00  0.00     0.324 A 
HETATM    2  N   UNL     1      14.389   8.696  46.774  1.00  0.00    -0.318 N 
ATOM      3  HN  UNL     1      14.603   9.689  46.689  1.00  0.00     0.170 HD
HETATM    4  N   UNL     1      14.134   6.564  46.301  1.00  0.00    -0.318 N 
ATOM      5  HN  UNL     1      14.110   5.675  45.802  1.00  0.00     0.170 HD
HETATM    6  O   UNL     1      15.343   7.904  44.885  1.00  0.00    -0.247 OA
HETATM    7  C   UNL     1      13.907   8.076  47.896  1.00  0.00     0.110 A 
HETATM    8  C   UNL     1      13.764   6.775  47.624  1.00  0.00     0.110 A 
ENDROOT
TORSDOF 0
ENDMDL
