REMARK  2 active torsions:
REMARK  status: ('A' for Active; 'I' for Inactive)
REMARK    1  A    between atoms: C_4  and  O_21 
REMARK    2  A    between atoms: O_8  and  C_15 
ROOT
HETATM    1  N   UNL     1     -35.234 -23.495   5.436  1.00  0.00    -0.350 N 
ATOM      2  HN  UNL     1     -35.025 -22.505   5.310  1.00  0.00     0.166 HD
HETATM    3  C   UNL     1     -35.430 -25.517   4.159  1.00  0.00     0.272 C 
HETATM    4  C   UNL     1     -31.164 -24.342   7.600  1.00  0.00     0.072 C 
HETATM    5  C   UNL     1     -31.835 -22.072   7.067  1.00  0.00     0.010 C 
HETATM    6  S   UNL     1     -33.249 -23.282  10.297  1.00  0.00    -0.125 SA
HETATM    7  C   UNL     1     -37.338 -23.407   8.375  1.00  0.00     0.014 C 
HETATM    8  C   UNL     1     -34.869 -23.467   9.617  1.00  0.00     0.001 C 
HETATM    9  C   UNL     1     -31.125 -24.663   6.242  1.00  0.00     0.056 C 
HETATM   10  C   UNL     1     -37.252 -23.218   9.755  1.00  0.00     0.002 C 
HETATM   11  C   UNL     1     -34.967 -23.814   8.277  1.00  0.00     0.032 C 
HETATM   12  C   UNL     1     -36.011 -23.271  10.386  1.00  0.00     0.018 C 
HETATM   13  C   UNL     1     -31.780 -23.793   5.238  1.00  0.00     0.117 C 
HETATM   14  N   UNL     1     -36.540 -25.901   4.901  1.00  0.00    -0.330 N 
ATOM     15  HN  UNL     1     -36.910 -26.851   4.865  1.00  0.00     0.168 HD
HETATM   16  C   UNL     1     -36.238 -23.984   6.255  1.00  0.00     0.058 C 
HETATM   17  C   UNL     1     -31.569 -23.060   8.020  1.00  0.00    -0.016 C 
HETATM   18  C   UNL     1     -37.118 -24.919   5.695  1.00  0.00     0.121 C 
HETATM   19  C   UNL     1     -36.198 -23.723   7.630  1.00  0.00    -0.007 C 
HETATM   20  C   UNL     1     -31.714 -22.751   9.484  1.00  0.00     0.120 C 
HETATM   21  O   UNL     1     -35.178 -25.948   3.048  1.00  0.00    -0.266 OA
HETATM   22  C   UNL     1     -34.564 -24.505   4.822  1.00  0.00     0.101 C 
HETATM   23  C   UNL     1     -33.064 -24.428   4.676  1.00  0.00     0.054 C 
HETATM   24  C   UNL     1     -31.954 -22.397   5.725  1.00  0.00     0.020 C 
ENDROOT
BRANCH   4  25
HETATM   25  O   UNL     1     -30.755 -25.232   8.551  1.00  0.00    -0.360 OA
ATOM     26  HO  UNL     1     -30.782 -25.014   9.475  1.00  0.00     0.217 HD
ENDBRANCH   4  25
BRANCH  13  27
HETATM   27  O   UNL     1     -30.907 -23.713   4.115  1.00  0.00    -0.378 OA
ATOM     28  HO  UNL     1     -31.327 -23.155   3.471  1.00  0.00     0.211 HD
ENDBRANCH  13  27
TORSDOF 2
