REMARK  2 active torsions:
REMARK  status: ('A' for Active; 'I' for Inactive)
REMARK    1  A    between atoms: C_7  and  O_8 
REMARK    2  A    between atoms: C_14  and  N_18 
ROOT
HETATM    1  C   UNL     1     -22.270   1.188 -11.425  1.00  0.00     0.243 C 
HETATM    2  C   UNL     1     -22.118   2.019  -9.118  1.00  0.00     0.031 C 
HETATM    3  C   UNL     1     -21.545  -0.989 -10.324  1.00  0.00     0.135 C 
HETATM    4  C   UNL     1     -20.626  -1.824 -11.220  1.00  0.00     0.071 C 
HETATM    5  N   UNL     1     -22.441  -0.155 -11.147  1.00  0.00    -0.326 N 
ATOM      6  HN  UNL     1     -23.261  -0.611 -11.547  1.00  0.00     0.165 HD
HETATM    7  C   UNL     1     -21.551   0.811  -8.535  1.00  0.00     0.016 C 
HETATM    8  C   UNL     1     -20.683  -0.128  -9.360  1.00  0.00     0.117 C 
HETATM    9  O   UNL     1     -21.889   1.514 -12.521  1.00  0.00    -0.269 OA
HETATM   10  C   UNL     1     -22.484   2.218 -10.382  1.00  0.00     0.076 C 
ENDROOT
BRANCH   7  11
HETATM   11  N   UNL     1     -21.952   0.445  -7.206  1.00  0.00    -0.360 N 
HETATM   12  C   UNL     1     -21.537   1.418  -6.165  1.00  0.00     0.087 C 
HETATM   13  C   UNL     1     -21.296   1.033  -4.707  1.00  0.00    -0.005 C 
HETATM   14  C   UNL     1     -21.321  -0.407  -4.168  1.00  0.00     0.005 C 
HETATM   15  C   UNL     1     -22.624  -0.653  -3.419  1.00  0.00     0.014 C 
HETATM   16  C   UNL     1     -20.973  -1.514  -5.186  1.00  0.00     0.010 C 
HETATM   17  C   UNL     1     -22.073  -1.894  -6.212  1.00  0.00     0.021 C 
HETATM   18  C   UNL     1     -22.816  -0.721  -6.918  1.00  0.00     0.128 C 
ENDBRANCH   7  11
BRANCH   3  19
HETATM   19  O   UNL     1     -22.390  -1.862  -9.578  1.00  0.00    -0.371 OA
ATOM     20  HO  UNL     1     -22.960  -1.344  -9.022  1.00  0.00     0.212 HD
ENDBRANCH   3  19
TORSDOF 2
