MODEL 1
REMARK VINA RESULT:      -9.2      0.000      0.000
REMARK  4 active torsions:
REMARK  status: ('A' for Active; 'I' for Inactive)
REMARK    1  A    between atoms: C_1  and  C_14 
REMARK    2  A    between atoms: N_8  and  C_26 
REMARK    3  A    between atoms: O_15  and  C_26 
REMARK    4  A    between atoms: N_17  and  C_27 
ROOT
HETATM    1  C   UNL     1      25.108 126.117  40.434  1.00  0.00     0.003 C 
HETATM    2  N   UNL     1      25.688 128.758  39.857  1.00  0.00    -0.374 N 
ATOM      3  HN  UNL     1      26.047 129.709  39.943  1.00  0.00     0.164 HD
HETATM    4  C   UNL     1      24.110 127.123  40.611  1.00  0.00    -0.007 C 
HETATM    5  C   UNL     1      24.439 128.433  40.273  1.00  0.00     0.100 C 
HETATM    6  C   UNL     1      22.756 125.549  41.863  1.00  0.00    -0.010 C 
HETATM    7  C   UNL     1      26.434 127.768  39.322  1.00  0.00     0.088 C 
HETATM    8  C   UNL     1      23.779 124.611  41.822  1.00  0.00     0.043 C 
HETATM    9  C   UNL     1      26.218 126.438  39.638  1.00  0.00     0.031 C 
HETATM   10  C   UNL     1      22.888 126.761  41.183  1.00  0.00     0.027 C 
HETATM   11  C   UNL     1      25.002 124.930  41.226  1.00  0.00     0.037 C 
ENDROOT
BRANCH   6  12
HETATM   12  C   UNL     1      21.469 125.271  42.543  1.00  0.00     0.027 C 
HETATM   13  C   UNL     1      21.395 124.283  43.673  1.00  0.00     0.137 C 
HETATM   14  C   UNL     1      20.434 124.905  44.663  1.00  0.00     0.308 C 
HETATM   15  C   UNL     1      19.893 126.132  43.929  1.00  0.00     0.285 C 
HETATM   16  O   UNL     1      19.124 126.921  44.467  1.00  0.00    -0.268 OA
HETATM   17  N   UNL     1      20.456 126.239  42.718  1.00  0.00    -0.326 N 
ATOM     18  HN  UNL     1      20.187 126.928  42.015  1.00  0.00     0.168 HD
BRANCH  14  19
HETATM   19  N   UNL     1      21.152 125.214  45.883  1.00  0.00    -0.037 N 
ATOM     20  HN3 UNL     1      20.712 124.806  46.707  1.00  0.00     0.278 HD
ATOM     21  HN2 UNL     1      22.045 124.725  45.943  1.00  0.00     0.278 HD
ATOM     22  HN1 UNL     1      21.256 126.226  45.956  1.00  0.00     0.278 HD
ENDBRANCH  14  19
BRANCH  14  23
HETATM   23  O   UNL     1      19.440 123.947  44.938  1.00  0.00    -0.358 OA
ATOM     24  HO  UNL     1      19.087 124.146  45.798  1.00  0.00     0.213 HD
ENDBRANCH  14  23
ENDBRANCH   6  12
BRANCH  11  25
HETATM   25  N   UNL     1      26.114 124.191  41.473  1.00  0.00    -0.398 N 
ATOM     26  HN2 UNL     1      26.649 123.778  40.709  1.00  0.00     0.156 HD
ATOM     27  HN1 UNL     1      26.372 123.979  42.436  1.00  0.00     0.156 HD
ENDBRANCH  11  25
TORSDOF 4
ENDMDL
MODEL 2
REMARK VINA RESULT:      -8.7      5.214      6.780
REMARK  4 active torsions:
REMARK  status: ('A' for Active; 'I' for Inactive)
REMARK    1  A    between atoms: C_1  and  C_14 
REMARK    2  A    between atoms: N_8  and  C_26 
REMARK    3  A    between atoms: O_15  and  C_26 
REMARK    4  A    between atoms: N_17  and  C_27 
ROOT
HETATM    1  C   UNL     1      20.232 120.097  38.956  1.00  0.00     0.003 C 
HETATM    2  N   UNL     1      21.736 118.558  37.219  1.00  0.00    -0.374 N 
ATOM      3  HN  UNL     1      22.406 117.873  36.869  1.00  0.00     0.164 HD
HETATM    4  C   UNL     1      21.385 120.653  38.324  1.00  0.00    -0.007 C 
HETATM    5  C   UNL     1      22.089 119.850  37.431  1.00  0.00     0.100 C 
HETATM    6  C   UNL     1      21.306 122.533  39.853  1.00  0.00    -0.010 C 
HETATM    7  C   UNL     1      20.458 118.218  37.493  1.00  0.00     0.088 C 
HETATM    8  C   UNL     1      20.277 121.931  40.565  1.00  0.00     0.043 C 
HETATM    9  C   UNL     1      19.694 118.923  38.405  1.00  0.00     0.031 C 
HETATM   10  C   UNL     1      21.793 121.939  38.687  1.00  0.00     0.027 C 
HETATM   11  C   UNL     1      19.822 120.660  40.205  1.00  0.00     0.037 C 
ENDROOT
BRANCH   6  12
HETATM   12  C   UNL     1      21.860 123.851  40.244  1.00  0.00     0.027 C 
HETATM   13  C   UNL     1      21.101 124.760  41.169  1.00  0.00     0.137 C 
HETATM   14  C   UNL     1      22.161 125.368  42.062  1.00  0.00     0.308 C 
HETATM   15  C   UNL     1      23.476 124.886  41.453  1.00  0.00     0.285 C 
HETATM   16  O   UNL     1      24.560 125.140  41.967  1.00  0.00    -0.268 OA
HETATM   17  N   UNL     1      23.242 124.102  40.392  1.00  0.00    -0.326 N 
ATOM     18  HN  UNL     1      23.965 123.735  39.773  1.00  0.00     0.168 HD
BRANCH  14  19
HETATM   19  N   UNL     1      21.940 124.920  43.422  1.00  0.00    -0.037 N 
ATOM     20  HN3 UNL     1      22.266 125.597  44.112  1.00  0.00     0.278 HD
ATOM     21  HN2 UNL     1      20.952 124.923  43.677  1.00  0.00     0.278 HD
ATOM     22  HN1 UNL     1      22.371 124.004  43.541  1.00  0.00     0.278 HD
ENDBRANCH  14  19
BRANCH  14  23
HETATM   23  O   UNL     1      22.006 126.766  42.001  1.00  0.00    -0.358 OA
ATOM     24  HO  UNL     1      21.108 126.960  42.243  1.00  0.00     0.213 HD
ENDBRANCH  14  23
ENDBRANCH   6  12
BRANCH  11  25
HETATM   25  N   UNL     1      19.087 119.912  41.067  1.00  0.00    -0.398 N 
ATOM     26  HN2 UNL     1      18.538 119.119  40.735  1.00  0.00     0.156 HD
ATOM     27  HN1 UNL     1      19.018 120.194  42.044  1.00  0.00     0.156 HD
ENDBRANCH  11  25
TORSDOF 4
ENDMDL
MODEL 3
REMARK VINA RESULT:      -8.4      5.034      6.631
REMARK  4 active torsions:
REMARK  status: ('A' for Active; 'I' for Inactive)
REMARK    1  A    between atoms: C_1  and  C_14 
REMARK    2  A    between atoms: N_8  and  C_26 
REMARK    3  A    between atoms: O_15  and  C_26 
REMARK    4  A    between atoms: N_17  and  C_27 
ROOT
HETATM    1  C   UNL     1      21.012 120.212  38.410  1.00  0.00     0.003 C 
HETATM    2  N   UNL     1      18.896 118.561  39.072  1.00  0.00    -0.374 N 
ATOM      3  HN  UNL     1      17.954 118.173  39.124  1.00  0.00     0.164 HD
HETATM    4  C   UNL     1      20.381 120.337  39.685  1.00  0.00    -0.007 C 
HETATM    5  C   UNL     1      19.343 119.459  39.985  1.00  0.00     0.100 C 
HETATM    6  C   UNL     1      21.521 122.447  40.035  1.00  0.00    -0.010 C 
HETATM    7  C   UNL     1      19.752 118.204  38.091  1.00  0.00     0.088 C 
HETATM    8  C   UNL     1      22.025 122.409  38.742  1.00  0.00     0.043 C 
HETATM    9  C   UNL     1      20.784 119.032  37.686  1.00  0.00     0.031 C 
HETATM   10  C   UNL     1      20.779 121.374  40.532  1.00  0.00     0.027 C 
HETATM   11  C   UNL     1      21.673 121.366  37.881  1.00  0.00     0.037 C 
ENDROOT
BRANCH   6  12
HETATM   12  C   UNL     1      21.817 123.570  40.956  1.00  0.00     0.027 C 
HETATM   13  C   UNL     1      21.225 124.932  40.723  1.00  0.00     0.137 C 
HETATM   14  C   UNL     1      20.876 125.438  42.107  1.00  0.00     0.308 C 
HETATM   15  C   UNL     1      21.465 124.385  43.043  1.00  0.00     0.285 C 
HETATM   16  O   UNL     1      21.312 124.441  44.259  1.00  0.00    -0.268 OA
HETATM   17  N   UNL     1      22.045 123.404  42.340  1.00  0.00    -0.326 N 
ATOM     18  HN  UNL     1      22.581 122.638  42.749  1.00  0.00     0.168 HD
BRANCH  14  19
HETATM   19  N   UNL     1      19.437 125.578  42.204  1.00  0.00    -0.037 N 
ATOM     20  HN3 UNL     1      18.958 125.272  41.357  1.00  0.00     0.278 HD
ATOM     21  HN2 UNL     1      19.023 124.908  42.852  1.00  0.00     0.278 HD
ATOM     22  HN1 UNL     1      19.216 126.543  42.449  1.00  0.00     0.278 HD
ENDBRANCH  14  19
BRANCH  14  23
HETATM   23  O   UNL     1      21.477 126.702  42.253  1.00  0.00    -0.358 OA
ATOM     24  HO  UNL     1      22.104 126.636  42.963  1.00  0.00     0.213 HD
ENDBRANCH  14  23
ENDBRANCH   6  12
BRANCH  11  25
HETATM   25  N   UNL     1      21.853 121.477  36.540  1.00  0.00    -0.398 N 
ATOM     26  HN2 UNL     1      22.346 120.754  36.016  1.00  0.00     0.156 HD
ATOM     27  HN1 UNL     1      21.561 122.330  36.063  1.00  0.00     0.156 HD
ENDBRANCH  11  25
TORSDOF 4
ENDMDL
MODEL 4
REMARK VINA RESULT:      -8.4      4.691      6.082
REMARK  4 active torsions:
REMARK  status: ('A' for Active; 'I' for Inactive)
REMARK    1  A    between atoms: C_1  and  C_14 
REMARK    2  A    between atoms: N_8  and  C_26 
REMARK    3  A    between atoms: O_15  and  C_26 
REMARK    4  A    between atoms: N_17  and  C_27 
ROOT
HETATM    1  C   UNL     1      20.372 120.481  39.053  1.00  0.00     0.003 C 
HETATM    2  N   UNL     1      22.448 119.769  37.371  1.00  0.00    -0.374 N 
ATOM      3  HN  UNL     1      23.340 119.400  37.042  1.00  0.00     0.164 HD
HETATM    4  C   UNL     1      21.303 121.468  38.610  1.00  0.00    -0.007 C 
HETATM    5  C   UNL     1      22.310 121.068  37.736  1.00  0.00     0.100 C 
HETATM    6  C   UNL     1      20.455 123.007  40.281  1.00  0.00    -0.010 C 
HETATM    7  C   UNL     1      21.352 118.986  37.464  1.00  0.00     0.088 C 
HETATM    8  C   UNL     1      19.649 122.010  40.813  1.00  0.00     0.043 C 
HETATM    9  C   UNL     1      20.321 119.273  38.341  1.00  0.00     0.031 C 
HETATM   10  C   UNL     1      21.208 122.761  39.131  1.00  0.00     0.027 C 
HETATM   11  C   UNL     1      19.695 120.714  40.291  1.00  0.00     0.037 C 
ENDROOT
BRANCH   6  12
HETATM   12  C   UNL     1      20.482 124.375  40.849  1.00  0.00     0.027 C 
HETATM   13  C   UNL     1      20.149 124.614  42.295  1.00  0.00     0.137 C 
HETATM   14  C   UNL     1      21.128 125.679  42.741  1.00  0.00     0.308 C 
HETATM   15  C   UNL     1      21.834 126.094  41.452  1.00  0.00     0.285 C 
HETATM   16  O   UNL     1      22.752 126.907  41.449  1.00  0.00    -0.268 OA
HETATM   17  N   UNL     1      21.375 125.381  40.415  1.00  0.00    -0.326 N 
ATOM     18  HN  UNL     1      21.635 125.543  39.442  1.00  0.00     0.168 HD
BRANCH  14  19
HETATM   19  N   UNL     1      22.009 125.114  43.743  1.00  0.00    -0.037 N 
ATOM     20  HN3 UNL     1      22.992 125.187  43.483  1.00  0.00     0.278 HD
ATOM     21  HN2 UNL     1      22.045 125.677  44.593  1.00  0.00     0.278 HD
ATOM     22  HN1 UNL     1      21.724 124.152  43.926  1.00  0.00     0.278 HD
ENDBRANCH  14  19
BRANCH  14  23
HETATM   23  O   UNL     1      20.377 126.721  43.317  1.00  0.00    -0.358 OA
ATOM     24  HO  UNL     1      19.548 126.759  42.855  1.00  0.00     0.213 HD
ENDBRANCH  14  23
ENDBRANCH   6  12
BRANCH  11  25
HETATM   25  N   UNL     1      19.203 119.661  40.992  1.00  0.00    -0.398 N 
ATOM     26  HN2 UNL     1      19.747 118.806  41.105  1.00  0.00     0.156 HD
ATOM     27  HN1 UNL     1      18.245 119.695  41.342  1.00  0.00     0.156 HD
ENDBRANCH  11  25
TORSDOF 4
ENDMDL
MODEL 5
REMARK VINA RESULT:      -8.3      4.894      6.506
REMARK  4 active torsions:
REMARK  status: ('A' for Active; 'I' for Inactive)
REMARK    1  A    between atoms: C_1  and  C_14 
REMARK    2  A    between atoms: N_8  and  C_26 
REMARK    3  A    between atoms: O_15  and  C_26 
REMARK    4  A    between atoms: N_17  and  C_27 
ROOT
HETATM    1  C   UNL     1      20.981 120.536  38.662  1.00  0.00     0.003 C 
HETATM    2  N   UNL     1      18.741 119.236  39.629  1.00  0.00    -0.374 N 
ATOM      3  HN  UNL     1      17.773 118.934  39.740  1.00  0.00     0.164 HD
HETATM    4  C   UNL     1      20.336 121.009  39.845  1.00  0.00    -0.007 C 
HETATM    5  C   UNL     1      19.233 120.300  40.312  1.00  0.00     0.100 C 
HETATM    6  C   UNL     1      21.616 123.064  39.713  1.00  0.00    -0.010 C 
HETATM    7  C   UNL     1      19.589 118.596  38.795  1.00  0.00     0.088 C 
HETATM    8  C   UNL     1      22.140 122.677  38.487  1.00  0.00     0.043 C 
HETATM    9  C   UNL     1      20.684 119.232  38.238  1.00  0.00     0.031 C 
HETATM   10  C   UNL     1      20.791 122.194  40.428  1.00  0.00     0.027 C 
HETATM   11  C   UNL     1      21.732 121.480  37.893  1.00  0.00     0.037 C 
ENDROOT
BRANCH   6  12
HETATM   12  C   UNL     1      21.974 124.356  40.343  1.00  0.00     0.027 C 
HETATM   13  C   UNL     1      21.124 124.940  41.437  1.00  0.00     0.137 C 
HETATM   14  C   UNL     1      22.114 125.532  42.416  1.00  0.00     0.308 C 
HETATM   15  C   UNL     1      23.460 125.393  41.707  1.00  0.00     0.285 C 
HETATM   16  O   UNL     1      24.513 125.718  42.246  1.00  0.00    -0.268 OA
HETATM   17  N   UNL     1      23.305 124.795  40.519  1.00  0.00    -0.326 N 
ATOM     18  HN  UNL     1      24.049 124.674  39.831  1.00  0.00     0.168 HD
BRANCH  14  19
HETATM   19  N   UNL     1      22.026 124.807  43.667  1.00  0.00    -0.037 N 
ATOM     20  HN3 UNL     1      22.637 125.195  44.386  1.00  0.00     0.278 HD
ATOM     21  HN2 UNL     1      21.136 124.956  44.142  1.00  0.00     0.278 HD
ATOM     22  HN1 UNL     1      22.212 123.820  43.489  1.00  0.00     0.278 HD
ENDBRANCH  14  19
BRANCH  14  23
HETATM   23  O   UNL     1      21.741 126.873  42.628  1.00  0.00    -0.358 OA
ATOM     24  HO  UNL     1      22.101 127.137  43.466  1.00  0.00     0.213 HD
ENDBRANCH  14  23
ENDBRANCH   6  12
BRANCH  11  25
HETATM   25  N   UNL     1      21.945 121.248  36.573  1.00  0.00    -0.398 N 
ATOM     26  HN2 UNL     1      21.741 121.964  35.875  1.00  0.00     0.156 HD
ATOM     27  HN1 UNL     1      22.236 120.320  36.266  1.00  0.00     0.156 HD
ENDBRANCH  11  25
TORSDOF 4
ENDMDL
MODEL 6
REMARK VINA RESULT:      -7.8      5.369      6.836
REMARK  4 active torsions:
REMARK  status: ('A' for Active; 'I' for Inactive)
REMARK    1  A    between atoms: C_1  and  C_14 
REMARK    2  A    between atoms: N_8  and  C_26 
REMARK    3  A    between atoms: O_15  and  C_26 
REMARK    4  A    between atoms: N_17  and  C_27 
ROOT
HETATM    1  C   UNL     1      21.108 120.008  38.107  1.00  0.00     0.003 C 
HETATM    2  N   UNL     1      19.109 118.110  38.326  1.00  0.00    -0.374 N 
ATOM      3  HN  UNL     1      18.207 117.643  38.231  1.00  0.00     0.164 HD
HETATM    4  C   UNL     1      20.359 119.895  39.317  1.00  0.00    -0.007 C 
HETATM    5  C   UNL     1      19.387 118.901  39.392  1.00  0.00     0.100 C 
HETATM    6  C   UNL     1      21.258 122.020  40.062  1.00  0.00    -0.010 C 
HETATM    7  C   UNL     1      20.077 117.970  37.396  1.00  0.00     0.088 C 
HETATM    8  C   UNL     1      21.874 122.209  38.832  1.00  0.00     0.043 C 
HETATM    9  C   UNL     1      21.057 118.929  37.211  1.00  0.00     0.031 C 
HETATM   10  C   UNL     1      20.582 120.829  40.332  1.00  0.00     0.027 C 
HETATM   11  C   UNL     1      21.699 121.275  37.807  1.00  0.00     0.037 C 
ENDROOT
BRANCH   6  12
HETATM   12  C   UNL     1      21.366 123.020  41.151  1.00  0.00     0.027 C 
HETATM   13  C   UNL     1      22.614 123.840  41.321  1.00  0.00     0.137 C 
HETATM   14  C   UNL     1      22.117 125.218  41.700  1.00  0.00     0.308 C 
HETATM   15  C   UNL     1      20.614 125.028  41.891  1.00  0.00     0.285 C 
HETATM   16  O   UNL     1      19.869 125.968  42.144  1.00  0.00    -0.268 OA
HETATM   17  N   UNL     1      20.267 123.758  41.642  1.00  0.00    -0.326 N 
ATOM     18  HN  UNL     1      19.332 123.375  41.788  1.00  0.00     0.168 HD
BRANCH  14  19
HETATM   19  N   UNL     1      22.468 126.148  40.646  1.00  0.00    -0.037 N 
ATOM     20  HN3 UNL     1      23.474 126.304  40.583  1.00  0.00     0.278 HD
ATOM     21  HN2 UNL     1      22.327 125.754  39.716  1.00  0.00     0.278 HD
ATOM     22  HN1 UNL     1      21.947 127.014  40.785  1.00  0.00     0.278 HD
ENDBRANCH  14  19
BRANCH  14  23
HETATM   23  O   UNL     1      22.779 125.588  42.886  1.00  0.00    -0.358 OA
ATOM     24  HO  UNL     1      22.322 126.343  43.240  1.00  0.00     0.213 HD
ENDBRANCH  14  23
ENDBRANCH   6  12
BRANCH  11  25
HETATM   25  N   UNL     1      21.983 121.592  36.518  1.00  0.00    -0.398 N 
ATOM     26  HN2 UNL     1      22.106 122.563  36.232  1.00  0.00     0.156 HD
ATOM     27  HN1 UNL     1      21.995 120.857  35.811  1.00  0.00     0.156 HD
ENDBRANCH  11  25
TORSDOF 4
ENDMDL
MODEL 7
REMARK VINA RESULT:      -7.7      5.516      6.918
REMARK  4 active torsions:
REMARK  status: ('A' for Active; 'I' for Inactive)
REMARK    1  A    between atoms: C_1  and  C_14 
REMARK    2  A    between atoms: N_8  and  C_26 
REMARK    3  A    between atoms: O_15  and  C_26 
REMARK    4  A    between atoms: N_17  and  C_27 
ROOT
HETATM    1  C   UNL     1      20.196 119.727  38.358  1.00  0.00     0.003 C 
HETATM    2  N   UNL     1      21.770 118.733  36.313  1.00  0.00    -0.374 N 
ATOM      3  HN  UNL     1      22.471 118.186  35.812  1.00  0.00     0.164 HD
HETATM    4  C   UNL     1      21.322 120.473  37.895  1.00  0.00    -0.007 C 
HETATM    5  C   UNL     1      22.062 119.948  36.839  1.00  0.00     0.100 C 
HETATM    6  C   UNL     1      21.156 121.913  39.838  1.00  0.00    -0.010 C 
HETATM    7  C   UNL     1      20.509 118.278  36.480  1.00  0.00     0.088 C 
HETATM    8  C   UNL     1      20.157 121.109  40.369  1.00  0.00     0.043 C 
HETATM    9  C   UNL     1      19.713 118.702  37.529  1.00  0.00     0.031 C 
HETATM   10  C   UNL     1      21.670 121.647  38.568  1.00  0.00     0.027 C 
HETATM   11  C   UNL     1      19.762 119.946  39.702  1.00  0.00     0.037 C 
ENDROOT
BRANCH   6  12
HETATM   12  C   UNL     1      21.648 123.118  40.547  1.00  0.00     0.027 C 
HETATM   13  C   UNL     1      21.118 124.482  40.204  1.00  0.00     0.137 C 
HETATM   14  C   UNL     1      20.996 125.191  41.536  1.00  0.00     0.308 C 
HETATM   15  C   UNL     1      21.639 124.224  42.528  1.00  0.00     0.285 C 
HETATM   16  O   UNL     1      21.659 124.449  43.733  1.00  0.00    -0.268 OA
HETATM   17  N   UNL     1      22.053 123.115  41.900  1.00  0.00    -0.326 N 
ATOM     18  HN  UNL     1      22.589 122.367  42.341  1.00  0.00     0.168 HD
BRANCH  14  19
HETATM   19  N   UNL     1      19.596 125.460  41.795  1.00  0.00    -0.037 N 
ATOM     20  HN3 UNL     1      19.200 126.129  41.135  1.00  0.00     0.278 HD
ATOM     21  HN2 UNL     1      18.998 124.666  41.569  1.00  0.00     0.278 HD
ATOM     22  HN1 UNL     1      19.493 125.762  42.764  1.00  0.00     0.278 HD
ENDBRANCH  14  19
BRANCH  14  23
HETATM   23  O   UNL     1      21.692 126.409  41.426  1.00  0.00    -0.358 OA
ATOM     24  HO  UNL     1      21.432 126.809  40.604  1.00  0.00     0.213 HD
ENDBRANCH  14  23
ENDBRANCH   6  12
BRANCH  11  25
HETATM   25  N   UNL     1      19.062 118.976  40.345  1.00  0.00    -0.398 N 
ATOM     26  HN2 UNL     1      19.107 118.883  41.360  1.00  0.00     0.156 HD
ATOM     27  HN1 UNL     1      18.550 118.282  39.802  1.00  0.00     0.156 HD
ENDBRANCH  11  25
TORSDOF 4
ENDMDL
MODEL 8
REMARK VINA RESULT:      -7.7      1.440      1.882
REMARK  4 active torsions:
REMARK  status: ('A' for Active; 'I' for Inactive)
REMARK    1  A    between atoms: C_1  and  C_14 
REMARK    2  A    between atoms: N_8  and  C_26 
REMARK    3  A    between atoms: O_15  and  C_26 
REMARK    4  A    between atoms: N_17  and  C_27 
ROOT
HETATM    1  C   UNL     1      25.205 126.342  40.295  1.00  0.00     0.003 C 
HETATM    2  N   UNL     1      25.124 129.091  40.011  1.00  0.00    -0.374 N 
ATOM      3  HN  UNL     1      25.245 130.085  40.204  1.00  0.00     0.164 HD
HETATM    4  C   UNL     1      23.996 127.052  40.562  1.00  0.00    -0.007 C 
HETATM    5  C   UNL     1      23.995 128.431  40.371  1.00  0.00     0.100 C 
HETATM    6  C   UNL     1      23.075 125.073  41.617  1.00  0.00    -0.010 C 
HETATM    7  C   UNL     1      26.082 128.373  39.386  1.00  0.00     0.088 C 
HETATM    8  C   UNL     1      24.294 124.420  41.493  1.00  0.00     0.043 C 
HETATM    9  C   UNL     1      26.196 127.004  39.554  1.00  0.00     0.031 C 
HETATM   10  C   UNL     1      22.903 126.347  41.073  1.00  0.00     0.027 C 
HETATM   11  C   UNL     1      25.397 125.087  40.953  1.00  0.00     0.037 C 
ENDROOT
BRANCH   6  12
HETATM   12  C   UNL     1      21.900 124.422  42.244  1.00  0.00     0.027 C 
HETATM   13  C   UNL     1      21.110 125.126  43.311  1.00  0.00     0.137 C 
HETATM   14  C   UNL     1      19.668 124.772  43.015  1.00  0.00     0.308 C 
HETATM   15  C   UNL     1      19.766 123.740  41.894  1.00  0.00     0.285 C 
HETATM   16  O   UNL     1      18.768 123.274  41.354  1.00  0.00    -0.268 OA
HETATM   17  N   UNL     1      21.046 123.531  41.559  1.00  0.00    -0.326 N 
ATOM     18  HN  UNL     1      21.361 122.822  40.896  1.00  0.00     0.168 HD
BRANCH  14  19
HETATM   19  N   UNL     1      18.957 125.980  42.648  1.00  0.00    -0.037 N 
ATOM     20  HN3 UNL     1      18.195 126.193  43.292  1.00  0.00     0.278 HD
ATOM     21  HN2 UNL     1      19.512 126.821  42.801  1.00  0.00     0.278 HD
ATOM     22  HN1 UNL     1      18.638 125.893  41.683  1.00  0.00     0.278 HD
ENDBRANCH  14  19
BRANCH  14  23
HETATM   23  O   UNL     1      19.116 124.248  44.199  1.00  0.00    -0.358 OA
ATOM     24  HO  UNL     1      18.271 124.665  44.325  1.00  0.00     0.213 HD
ENDBRANCH  14  23
ENDBRANCH   6  12
BRANCH  11  25
HETATM   25  N   UNL     1      26.656 124.615  41.138  1.00  0.00    -0.398 N 
ATOM     26  HN2 UNL     1      27.101 124.651  42.055  1.00  0.00     0.156 HD
ATOM     27  HN1 UNL     1      27.195 124.293  40.334  1.00  0.00     0.156 HD
ENDBRANCH  11  25
TORSDOF 4
ENDMDL
MODEL 9
REMARK VINA RESULT:      -7.6      5.652      7.039
REMARK  4 active torsions:
REMARK  status: ('A' for Active; 'I' for Inactive)
REMARK    1  A    between atoms: C_1  and  C_14 
REMARK    2  A    between atoms: N_8  and  C_26 
REMARK    3  A    between atoms: O_15  and  C_26 
REMARK    4  A    between atoms: N_17  and  C_27 
ROOT
HETATM    1  C   UNL     1      21.016 124.143  41.346  1.00  0.00     0.003 C 
HETATM    2  N   UNL     1      22.447 126.497  41.110  1.00  0.00    -0.374 N 
ATOM      3  HN  UNL     1      22.711 127.442  40.833  1.00  0.00     0.164 HD
HETATM    4  C   UNL     1      22.126 124.218  40.452  1.00  0.00    -0.007 C 
HETATM    5  C   UNL     1      22.837 125.413  40.394  1.00  0.00     0.100 C 
HETATM    6  C   UNL     1      21.437 122.128  39.434  1.00  0.00    -0.010 C 
HETATM    7  C   UNL     1      21.693 126.270  42.207  1.00  0.00     0.088 C 
HETATM    8  C   UNL     1      20.277 122.120  40.198  1.00  0.00     0.043 C 
HETATM    9  C   UNL     1      20.911 125.135  42.334  1.00  0.00     0.031 C 
HETATM   10  C   UNL     1      22.396 123.123  39.627  1.00  0.00     0.027 C 
HETATM   11  C   UNL     1      19.995 123.183  41.059  1.00  0.00     0.037 C 
ENDROOT
BRANCH   6  12
HETATM   12  C   UNL     1      21.739 121.051  38.462  1.00  0.00     0.027 C 
HETATM   13  C   UNL     1      21.366 119.625  38.754  1.00  0.00     0.137 C 
HETATM   14  C   UNL     1      20.888 119.076  37.426  1.00  0.00     0.308 C 
HETATM   15  C   UNL     1      21.197 120.194  36.433  1.00  0.00     0.285 C 
HETATM   16  O   UNL     1      20.879 120.117  35.251  1.00  0.00    -0.268 OA
HETATM   17  N   UNL     1      21.742 121.243  37.062  1.00  0.00    -0.326 N 
ATOM     18  HN  UNL     1      22.110 122.071  36.593  1.00  0.00     0.168 HD
BRANCH  14  19
HETATM   19  N   UNL     1      19.480 118.751  37.534  1.00  0.00    -0.037 N 
ATOM     20  HN3 UNL     1      19.283 117.784  37.274  1.00  0.00     0.278 HD
ATOM     21  HN2 UNL     1      19.164 118.704  38.502  1.00  0.00     0.278 HD
ATOM     22  HN1 UNL     1      18.945 119.420  36.981  1.00  0.00     0.278 HD
ENDBRANCH  14  19
BRANCH  14  23
HETATM   23  O   UNL     1      21.619 117.899  37.175  1.00  0.00    -0.358 OA
ATOM     24  HO  UNL     1      21.794 117.870  36.241  1.00  0.00     0.213 HD
ENDBRANCH  14  23
ENDBRANCH   6  12
BRANCH  11  25
HETATM   25  N   UNL     1      18.741 123.378  41.540  1.00  0.00    -0.398 N 
ATOM     26  HN2 UNL     1      18.491 123.087  42.486  1.00  0.00     0.156 HD
ATOM     27  HN1 UNL     1      18.017 123.745  40.923  1.00  0.00     0.156 HD
ENDBRANCH  11  25
TORSDOF 4
ENDMDL
