MODEL 1
REMARK VINA RESULT:      -8.8      0.000      0.000
REMARK  1 active torsions:
REMARK  status: ('A' for Active; 'I' for Inactive)
REMARK    1  A    between atoms: C_4  and  S_19 
ROOT
HETATM    1  C   UNL     1      19.968 124.319  40.697  1.00  0.00     0.027 C 
HETATM    2  C   UNL     1      22.135 124.015  39.668  1.00  0.00     0.030 C 
HETATM    3  C   UNL     1      22.297 126.828  42.005  1.00  0.00     0.083 C 
HETATM    4  C   UNL     1      20.595 124.938  41.768  1.00  0.00     0.089 C 
HETATM    5  C   UNL     1      25.820 128.007  39.895  1.00  0.00     0.009 C 
HETATM    6  C   UNL     1      24.450 126.246  40.818  1.00  0.00     0.045 C 
HETATM    7  C   UNL     1      25.609 126.652  40.150  1.00  0.00    -0.035 C 
HETATM    8  C   UNL     1      20.752 123.831  39.653  1.00  0.00     0.004 C 
HETATM    9  N   UNL     1      24.091 124.901  40.852  1.00  0.00    -0.355 N 
ATOM     10  HN  UNL     1      24.757 124.138  40.967  1.00  0.00     0.166 HD
HETATM   11  C   UNL     1      26.431 125.708  39.313  1.00  0.00     0.050 C 
HETATM   12  C   UNL     1      23.505 128.427  40.460  1.00  0.00     0.010 C 
HETATM   13  C   UNL     1      21.887 125.452  41.571  1.00  0.00    -0.003 C 
HETATM   14  C   UNL     1      22.726 124.722  40.712  1.00  0.00     0.040 C 
HETATM   15  C   UNL     1      23.498 127.222  41.179  1.00  0.00    -0.026 C 
HETATM   16  C   UNL     1      24.725 128.882  39.965  1.00  0.00     0.001 C 
ENDROOT
BRANCH   4  17
HETATM   17  S   UNL     1      20.056 124.765  43.435  1.00  0.00     0.138 S 
HETATM   18  O   UNL     1      21.200 124.198  44.146  1.00  0.00    -0.591 OA
HETATM   19  O   UNL     1      18.872 123.922  43.425  1.00  0.00    -0.591 OA
HETATM   20  O   UNL     1      19.687 126.080  43.955  1.00  0.00    -0.591 OA
ENDBRANCH   4  17
TORSDOF 1
ENDMDL
MODEL 2
REMARK VINA RESULT:      -8.5      2.663      5.356
REMARK  1 active torsions:
REMARK  status: ('A' for Active; 'I' for Inactive)
REMARK    1  A    between atoms: C_4  and  S_19 
ROOT
HETATM    1  C   UNL     1      22.739 124.566  42.630  1.00  0.00     0.027 C 
HETATM    2  C   UNL     1      23.366 123.915  40.387  1.00  0.00     0.030 C 
HETATM    3  C   UNL     1      20.121 122.431  41.207  1.00  0.00     0.083 C 
HETATM    4  C   UNL     1      21.411 124.352  42.290  1.00  0.00     0.089 C 
HETATM    5  C   UNL     1      20.870 119.720  37.991  1.00  0.00     0.009 C 
HETATM    6  C   UNL     1      21.003 121.959  38.888  1.00  0.00     0.045 C 
HETATM    7  C   UNL     1      21.219 121.062  37.836  1.00  0.00    -0.035 C 
HETATM    8  C   UNL     1      23.718 124.371  41.658  1.00  0.00     0.004 C 
HETATM    9  N   UNL     1      21.575 123.228  38.860  1.00  0.00    -0.355 N 
ATOM     10  HN  UNL     1      21.646 123.801  38.019  1.00  0.00     0.166 HD
HETATM   11  C   UNL     1      22.186 121.347  36.719  1.00  0.00     0.050 C 
HETATM   12  C   UNL     1      20.641 120.101  40.370  1.00  0.00     0.010 C 
HETATM   13  C   UNL     1      21.135 123.536  41.181  1.00  0.00    -0.003 C 
HETATM   14  C   UNL     1      22.034 123.621  40.104  1.00  0.00     0.040 C 
HETATM   15  C   UNL     1      20.476 121.468  40.100  1.00  0.00    -0.026 C 
HETATM   16  C   UNL     1      20.671 119.224  39.288  1.00  0.00     0.001 C 
ENDROOT
BRANCH   4  17
HETATM   17  S   UNL     1      20.087 125.342  42.894  1.00  0.00     0.138 S 
HETATM   18  O   UNL     1      19.426 124.516  43.903  1.00  0.00    -0.591 OA
HETATM   19  O   UNL     1      19.250 125.693  41.758  1.00  0.00    -0.591 OA
HETATM   20  O   UNL     1      20.633 126.571  43.467  1.00  0.00    -0.591 OA
ENDBRANCH   4  17
TORSDOF 1
ENDMDL
MODEL 3
REMARK VINA RESULT:      -8.4      3.442      6.007
REMARK  1 active torsions:
REMARK  status: ('A' for Active; 'I' for Inactive)
REMARK    1  A    between atoms: C_4  and  S_19 
ROOT
HETATM    1  C   UNL     1      21.035 125.598  40.805  1.00  0.00     0.027 C 
HETATM    2  C   UNL     1      19.630 123.632  40.870  1.00  0.00     0.030 C 
HETATM    3  C   UNL     1      22.767 122.812  39.169  1.00  0.00     0.083 C 
HETATM    4  C   UNL     1      22.141 124.768  40.688  1.00  0.00     0.089 C 
HETATM    5  C   UNL     1      20.684 119.444  37.566  1.00  0.00     0.009 C 
HETATM    6  C   UNL     1      21.117 120.916  39.430  1.00  0.00     0.045 C 
HETATM    7  C   UNL     1      20.462 119.802  38.895  1.00  0.00    -0.035 C 
HETATM    8  C   UNL     1      19.773 125.019  40.924  1.00  0.00     0.004 C 
HETATM    9  N   UNL     1      20.721 121.446  40.655  1.00  0.00    -0.355 N 
ATOM     10  HN  UNL     1      20.442 120.880  41.456  1.00  0.00     0.166 HD
HETATM   11  C   UNL     1      19.220 119.222  39.516  1.00  0.00     0.050 C 
HETATM   12  C   UNL     1      21.730 121.596  37.208  1.00  0.00     0.010 C 
HETATM   13  C   UNL     1      21.937 123.453  40.242  1.00  0.00    -0.003 C 
HETATM   14  C   UNL     1      20.748 122.829  40.659  1.00  0.00     0.040 C 
HETATM   15  C   UNL     1      21.955 121.678  38.589  1.00  0.00    -0.026 C 
HETATM   16  C   UNL     1      21.242 120.395  36.698  1.00  0.00     0.001 C 
ENDROOT
BRANCH   4  17
HETATM   17  S   UNL     1      23.696 125.120  41.434  1.00  0.00     0.138 S 
HETATM   18  O   UNL     1      24.090 123.877  42.094  1.00  0.00    -0.591 OA
HETATM   19  O   UNL     1      23.505 126.247  42.332  1.00  0.00    -0.591 OA
HETATM   20  O   UNL     1      24.646 125.511  40.393  1.00  0.00    -0.591 OA
ENDBRANCH   4  17
TORSDOF 1
ENDMDL
MODEL 4
REMARK VINA RESULT:      -7.7      6.348      8.273
REMARK  1 active torsions:
REMARK  status: ('A' for Active; 'I' for Inactive)
REMARK    1  A    between atoms: C_4  and  S_19 
ROOT
HETATM    1  C   UNL     1      20.890 118.396  35.210  1.00  0.00     0.027 C 
HETATM    2  C   UNL     1      21.112 120.762  35.656  1.00  0.00     0.030 C 
HETATM    3  C   UNL     1      21.088 118.938  38.830  1.00  0.00     0.083 C 
HETATM    4  C   UNL     1      21.486 118.139  36.436  1.00  0.00     0.089 C 
HETATM    5  C   UNL     1      20.110 122.679  40.645  1.00  0.00     0.009 C 
HETATM    6  C   UNL     1      21.364 121.443  38.992  1.00  0.00     0.045 C 
HETATM    7  C   UNL     1      21.049 122.656  39.614  1.00  0.00    -0.035 C 
HETATM    8  C   UNL     1      20.729 119.721  34.809  1.00  0.00     0.004 C 
HETATM    9  N   UNL     1      22.089 121.428  37.804  1.00  0.00    -0.355 N 
ATOM     10  HN  UNL     1      22.874 122.050  37.609  1.00  0.00     0.166 HD
HETATM   11  C   UNL     1      21.328 123.988  38.971  1.00  0.00     0.050 C 
HETATM   12  C   UNL     1      19.438 120.440  40.022  1.00  0.00     0.010 C 
HETATM   13  C   UNL     1      21.484 119.160  37.400  1.00  0.00    -0.003 C 
HETATM   14  C   UNL     1      21.622 120.473  36.919  1.00  0.00     0.040 C 
HETATM   15  C   UNL     1      20.684 120.277  39.399  1.00  0.00    -0.026 C 
HETATM   16  C   UNL     1      19.237 121.590  40.782  1.00  0.00     0.001 C 
ENDROOT
BRANCH   4  17
HETATM   17  S   UNL     1      22.580 116.788  36.715  1.00  0.00     0.138 S 
HETATM   18  O   UNL     1      21.711 115.657  37.036  1.00  0.00    -0.591 OA
HETATM   19  O   UNL     1      23.487 117.175  37.783  1.00  0.00    -0.591 OA
HETATM   20  O   UNL     1      23.362 116.550  35.503  1.00  0.00    -0.591 OA
ENDBRANCH   4  17
TORSDOF 1
ENDMDL
MODEL 5
REMARK VINA RESULT:      -7.4      2.065      3.160
REMARK  1 active torsions:
REMARK  status: ('A' for Active; 'I' for Inactive)
REMARK    1  A    between atoms: C_4  and  S_19 
ROOT
HETATM    1  C   UNL     1      21.309 124.107  43.080  1.00  0.00     0.027 C 
HETATM    2  C   UNL     1      21.924 126.434  42.841  1.00  0.00     0.030 C 
HETATM    3  C   UNL     1      23.454 124.501  40.133  1.00  0.00     0.083 C 
HETATM    4  C   UNL     1      21.533 123.939  41.721  1.00  0.00     0.089 C 
HETATM    5  C   UNL     1      26.114 127.810  39.661  1.00  0.00     0.009 C 
HETATM    6  C   UNL     1      23.887 126.990  40.102  1.00  0.00     0.045 C 
HETATM    7  C   UNL     1      24.768 128.061  39.921  1.00  0.00    -0.035 C 
HETATM    8  C   UNL     1      21.481 125.374  43.634  1.00  0.00     0.004 C 
HETATM    9  N   UNL     1      22.611 127.206  40.617  1.00  0.00    -0.355 N 
ATOM     10  HN  UNL     1      22.027 128.004  40.371  1.00  0.00     0.166 HD
HETATM   11  C   UNL     1      24.457 129.452  40.407  1.00  0.00     0.050 C 
HETATM   12  C   UNL     1      25.767 125.509  40.322  1.00  0.00     0.010 C 
HETATM   13  C   UNL     1      22.338 124.881  41.061  1.00  0.00    -0.003 C 
HETATM   14  C   UNL     1      22.229 126.212  41.500  1.00  0.00     0.040 C 
HETATM   15  C   UNL     1      24.399 125.677  40.061  1.00  0.00    -0.026 C 
HETATM   16  C   UNL     1      26.630 126.539  39.956  1.00  0.00     0.001 C 
ENDROOT
BRANCH   4  17
HETATM   17  S   UNL     1      20.566 122.874  40.707  1.00  0.00     0.138 S 
HETATM   18  O   UNL     1      19.190 123.063  41.163  1.00  0.00    -0.591 OA
HETATM   19  O   UNL     1      21.079 121.524  40.878  1.00  0.00    -0.591 OA
HETATM   20  O   UNL     1      20.737 123.262  39.309  1.00  0.00    -0.591 OA
ENDBRANCH   4  17
TORSDOF 1
ENDMDL
MODEL 6
REMARK VINA RESULT:      -7.1      5.155      7.325
REMARK  1 active torsions:
REMARK  status: ('A' for Active; 'I' for Inactive)
REMARK    1  A    between atoms: C_4  and  S_19 
ROOT
HETATM    1  C   UNL     1      19.568 121.797  40.407  1.00  0.00     0.027 C 
HETATM    2  C   UNL     1      20.032 119.466  39.959  1.00  0.00     0.030 C 
HETATM    3  C   UNL     1      21.698 121.530  37.436  1.00  0.00     0.083 C 
HETATM    4  C   UNL     1      20.728 122.129  39.722  1.00  0.00     0.089 C 
HETATM    5  C   UNL     1      21.912 117.973  35.080  1.00  0.00     0.009 C 
HETATM    6  C   UNL     1      22.056 119.037  37.243  1.00  0.00     0.045 C 
HETATM    7  C   UNL     1      22.145 117.887  36.453  1.00  0.00    -0.035 C 
HETATM    8  C   UNL     1      19.237 120.451  40.548  1.00  0.00     0.004 C 
HETATM    9  N   UNL     1      22.025 118.938  38.631  1.00  0.00    -0.355 N 
ATOM     10  HN  UNL     1      22.589 118.279  39.167  1.00  0.00     0.166 HD
HETATM   11  C   UNL     1      22.053 116.501  37.033  1.00  0.00     0.050 C 
HETATM   12  C   UNL     1      20.976 120.178  35.424  1.00  0.00     0.010 C 
HETATM   13  C   UNL     1      21.262 121.186  38.829  1.00  0.00    -0.003 C 
HETATM   14  C   UNL     1      21.138 119.836  39.199  1.00  0.00     0.040 C 
HETATM   15  C   UNL     1      21.685 120.253  36.631  1.00  0.00    -0.026 C 
HETATM   16  C   UNL     1      21.235 119.097  34.583  1.00  0.00     0.001 C 
ENDROOT
BRANCH   4  17
HETATM   17  S   UNL     1      21.778 123.462  40.189  1.00  0.00     0.138 S 
HETATM   18  O   UNL     1      21.762 123.464  41.651  1.00  0.00    -0.591 OA
HETATM   19  O   UNL     1      21.248 124.670  39.578  1.00  0.00    -0.591 OA
HETATM   20  O   UNL     1      23.118 123.223  39.658  1.00  0.00    -0.591 OA
ENDBRANCH   4  17
TORSDOF 1
ENDMDL
MODEL 7
REMARK VINA RESULT:      -7.1      7.290      9.259
REMARK  1 active torsions:
REMARK  status: ('A' for Active; 'I' for Inactive)
REMARK    1  A    between atoms: C_4  and  S_19 
ROOT
HETATM    1  C   UNL     1      20.438 118.230  34.162  1.00  0.00     0.027 C 
HETATM    2  C   UNL     1      20.860 120.440  35.046  1.00  0.00     0.030 C 
HETATM    3  C   UNL     1      20.858 118.024  37.798  1.00  0.00     0.083 C 
HETATM    4  C   UNL     1      21.073 117.695  35.273  1.00  0.00     0.089 C 
HETATM    5  C   UNL     1      20.259 121.383  40.368  1.00  0.00     0.009 C 
HETATM    6  C   UNL     1      21.331 120.424  38.428  1.00  0.00     0.045 C 
HETATM    7  C   UNL     1      21.140 121.506  39.294  1.00  0.00    -0.035 C 
HETATM    8  C   UNL     1      20.357 119.615  34.039  1.00  0.00     0.004 C 
HETATM    9  N   UNL     1      21.992 120.600  37.216  1.00  0.00    -0.355 N 
ATOM     10  HN  UNL     1      22.811 121.196  37.096  1.00  0.00     0.166 HD
HETATM   11  C   UNL     1      21.487 122.919  38.907  1.00  0.00     0.050 C 
HETATM   12  C   UNL     1      19.389 119.361  39.364  1.00  0.00     0.010 C 
HETATM   13  C   UNL     1      21.197 118.501  36.416  1.00  0.00    -0.003 C 
HETATM   14  C   UNL     1      21.409 119.872  36.193  1.00  0.00     0.040 C 
HETATM   15  C   UNL     1      20.585 119.246  38.642  1.00  0.00    -0.026 C 
HETATM   16  C   UNL     1      19.314 120.347  40.346  1.00  0.00     0.001 C 
ENDROOT
BRANCH   4  17
HETATM   17  S   UNL     1      22.074 116.249  35.211  1.00  0.00     0.138 S 
HETATM   18  O   UNL     1      23.361 116.654  35.772  1.00  0.00    -0.591 OA
HETATM   19  O   UNL     1      22.129 115.815  33.824  1.00  0.00    -0.591 OA
HETATM   20  O   UNL     1      21.440 115.196  36.003  1.00  0.00    -0.591 OA
ENDBRANCH   4  17
TORSDOF 1
ENDMDL
MODEL 8
REMARK VINA RESULT:      -6.9      4.476      5.752
REMARK  1 active torsions:
REMARK  status: ('A' for Active; 'I' for Inactive)
REMARK    1  A    between atoms: C_4  and  S_19 
ROOT
HETATM    1  C   UNL     1      20.436 119.532  39.734  1.00  0.00     0.027 C 
HETATM    2  C   UNL     1      19.350 121.378  40.856  1.00  0.00     0.030 C 
HETATM    3  C   UNL     1      22.472 122.556  39.348  1.00  0.00     0.083 C 
HETATM    4  C   UNL     1      21.092 120.448  38.924  1.00  0.00     0.089 C 
HETATM    5  C   UNL     1      22.178 125.873  42.023  1.00  0.00     0.009 C 
HETATM    6  C   UNL     1      21.093 124.299  40.549  1.00  0.00     0.045 C 
HETATM    7  C   UNL     1      21.019 125.399  41.410  1.00  0.00    -0.035 C 
HETATM    8  C   UNL     1      19.538 120.005  40.688  1.00  0.00     0.004 C 
HETATM    9  N   UNL     1      19.933 123.649  40.135  1.00  0.00    -0.355 N 
ATOM     10  HN  UNL     1      19.067 124.130  39.893  1.00  0.00     0.166 HD
HETATM   11  C   UNL     1      19.729 125.836  42.050  1.00  0.00     0.050 C 
HETATM   12  C   UNL     1      23.307 123.839  41.363  1.00  0.00     0.010 C 
HETATM   13  C   UNL     1      21.191 121.775  39.372  1.00  0.00    -0.003 C 
HETATM   14  C   UNL     1      20.092 122.275  40.091  1.00  0.00     0.040 C 
HETATM   15  C   UNL     1      22.340 123.668  40.362  1.00  0.00    -0.026 C 
HETATM   16  C   UNL     1      23.302 125.036  42.075  1.00  0.00     0.001 C 
ENDROOT
BRANCH   4  17
HETATM   17  S   UNL     1      21.447 120.156  37.225  1.00  0.00     0.138 S 
HETATM   18  O   UNL     1      22.567 119.217  37.227  1.00  0.00    -0.591 OA
HETATM   19  O   UNL     1      21.737 121.442  36.613  1.00  0.00    -0.591 OA
HETATM   20  O   UNL     1      20.262 119.591  36.581  1.00  0.00    -0.591 OA
ENDBRANCH   4  17
TORSDOF 1
ENDMDL
MODEL 9
REMARK VINA RESULT:      -6.5      3.616      5.561
REMARK  1 active torsions:
REMARK  status: ('A' for Active; 'I' for Inactive)
REMARK    1  A    between atoms: C_4  and  S_19 
ROOT
HETATM    1  C   UNL     1      25.820 125.914  40.782  1.00  0.00     0.027 C 
HETATM    2  C   UNL     1      24.192 124.167  40.403  1.00  0.00     0.030 C 
HETATM    3  C   UNL     1      22.477 127.165  41.617  1.00  0.00     0.083 C 
HETATM    4  C   UNL     1      24.809 126.850  40.622  1.00  0.00     0.089 C 
HETATM    5  C   UNL     1      19.237 124.563  42.607  1.00  0.00     0.009 C 
HETATM    6  C   UNL     1      21.004 125.184  41.083  1.00  0.00     0.045 C 
HETATM    7  C   UNL     1      19.925 124.356  41.411  1.00  0.00    -0.035 C 
HETATM    8  C   UNL     1      25.508 124.563  40.643  1.00  0.00     0.004 C 
HETATM    9  N   UNL     1      21.862 124.842  40.041  1.00  0.00    -0.355 N 
ATOM     10  HN  UNL     1      21.552 124.431  39.161  1.00  0.00     0.166 HD
HETATM   11  C   UNL     1      19.725 123.003  40.782  1.00  0.00     0.050 C 
HETATM   12  C   UNL     1      21.036 126.003  43.342  1.00  0.00     0.010 C 
HETATM   13  C   UNL     1      23.481 126.425  40.784  1.00  0.00    -0.003 C 
HETATM   14  C   UNL     1      23.183 125.125  40.339  1.00  0.00     0.040 C 
HETATM   15  C   UNL     1      21.396 126.182  41.998  1.00  0.00    -0.026 C 
HETATM   16  C   UNL     1      19.851 125.322  43.613  1.00  0.00     0.001 C 
ENDROOT
BRANCH   4  17
HETATM   17  S   UNL     1      25.052 128.412  39.848  1.00  0.00     0.138 S 
HETATM   18  O   UNL     1      26.497 128.516  39.649  1.00  0.00    -0.591 OA
HETATM   19  O   UNL     1      24.488 129.426  40.723  1.00  0.00    -0.591 OA
HETATM   20  O   UNL     1      24.324 128.434  38.581  1.00  0.00    -0.591 OA
ENDBRANCH   4  17
TORSDOF 1
ENDMDL
