REMARK  4 active torsions:
REMARK  status: ('A' for Active; 'I' for Inactive)
REMARK    1  A    between atoms: O_1  and  C_16 
REMARK    2  A    between atoms: C_4  and  O_13 
REMARK    3  A    between atoms: O_6  and  C_15 
REMARK    4  A    between atoms: C_19  and  C_20 
ROOT
HETATM    1  C   UNL     1      25.886   6.242   3.575  1.00  0.00     0.038 C 
HETATM    2  C   UNL     1      25.613   2.800   4.336  1.00  0.00    -0.002 C 
HETATM    3  C   UNL     1      24.058   4.685   3.999  1.00  0.00     0.022 C 
HETATM    4  C   UNL     1      25.320   3.947   3.671  1.00  0.00     0.031 C 
HETATM    5  C   UNL     1      23.186   3.969   5.035  1.00  0.00     0.122 C 
HETATM    6  C   UNL     1      26.521   4.847   3.562  1.00  0.00     0.063 C 
HETATM    7  C   UNL     1      23.108   2.474   4.682  1.00  0.00     0.032 C 
HETATM    8  C   UNL     1      27.048   2.759   4.807  1.00  0.00     0.001 C 
HETATM    9  C   UNL     1      24.495   1.817   4.597  1.00  0.00     0.008 C 
HETATM   10  C   UNL     1      24.495   6.133   4.209  1.00  0.00     0.010 C 
HETATM   11  C   UNL     1      27.540   4.197   4.512  1.00  0.00     0.044 C 
ENDROOT
BRANCH   8  12
HETATM   12  C   UNL     1      27.754   1.513   4.234  1.00  0.00    -0.034 C 
HETATM   13  C   UNL     1      27.355   1.056   2.829  1.00  0.00     0.017 C 
HETATM   14  C   UNL     1      28.291  -0.169   2.866  1.00  0.00     0.015 C 
HETATM   15  C   UNL     1      29.635   0.503   3.164  1.00  0.00     0.123 C 
HETATM   16  C   UNL     1      27.846  -0.883   4.154  1.00  0.00     0.008 C 
HETATM   17  C   UNL     1      29.279   1.655   4.126  1.00  0.00     0.042 C 
HETATM   18  C   UNL     1      27.497   0.268   5.103  1.00  0.00     0.010 C 
BRANCH  15  19
HETATM   19  O   UNL     1      30.538  -0.423   3.776  1.00  0.00    -0.395 OA
ATOM     20  HO  UNL     1      30.757  -1.133   3.184  1.00  0.00     0.210 HD
ENDBRANCH  15  19
ENDBRANCH   8  12
BRANCH   6  21
HETATM   21  O   UNL     1      27.077   4.737   2.253  1.00  0.00    -0.389 OA
ATOM     22  HO  UNL     1      27.471   3.872   2.245  1.00  0.00     0.210 HD
ENDBRANCH   6  21
BRANCH   5  23
HETATM   23  O   UNL     1      23.744   4.057   6.351  1.00  0.00    -0.395 OA
ATOM     24  HO  UNL     1      23.203   3.613   6.994  1.00  0.00     0.210 HD
ENDBRANCH   5  23
TORSDOF 4
