REMARK  6 active torsions:
REMARK  status: ('A' for Active; 'I' for Inactive)
REMARK    1  A    between atoms: C_7  and  C_17 
REMARK    2  A    between atoms: C_7  and  C_18 
REMARK    3  A    between atoms: C_10  and  C_15 
REMARK    4  A    between atoms: C_16  and  C_30 
REMARK    5  A    between atoms: C_17  and  C_31 
REMARK    6  A    between atoms: C_19  and  N_24 
ROOT
HETATM    1  C   UNL     1      -3.560  12.144  15.362  1.00  0.00     0.040 C 
ENDROOT
BRANCH   1   2
HETATM    2  C   UNL     1      -4.738  13.076  15.654  1.00  0.00     0.009 C 
BRANCH   2   3
HETATM    3  C   UNL     1      -6.074  12.403  15.343  1.00  0.00    -0.014 C 
HETATM    4  C   UNL     1      -6.719  13.031  14.107  1.00  0.00     0.014 C 
HETATM    5  C   UNL     1      -8.209  12.757  14.315  1.00  0.00     0.020 C 
HETATM    6  C   UNL     1      -8.461  12.561  15.795  1.00  0.00     0.009 C 
HETATM    7  C   UNL     1      -7.086  12.616  16.464  1.00  0.00     0.005 C 
BRANCH   5   8
HETATM    8  C   UNL     1      -9.147  13.713  13.633  1.00  0.00    -0.005 C 
HETATM    9  C   UNL     1      -8.812  15.057  13.477  1.00  0.00     0.009 C 
HETATM   10  C   UNL     1      -9.782  16.001  13.154  1.00  0.00     0.000 C 
HETATM   11  C   UNL     1     -11.066  15.597  12.808  1.00  0.00     0.001 C 
HETATM   12  C   UNL     1     -11.425  14.275  12.858  1.00  0.00     0.051 C 
HETATM   13  C   UNL     1     -10.480  13.228  13.195  1.00  0.00     0.305 C 
HETATM   14  F   UNL     1     -10.985  12.487  14.229  1.00  0.00    -0.202 F 
BRANCH  13  15
HETATM   15  N   UNL     1     -10.313  12.289  12.113  1.00  0.00    -0.034 N 
ATOM     16  HN3 UNL     1      -9.771  12.680  11.342  1.00  0.00     0.279 HD
ATOM     17  HN2 UNL     1      -9.685  11.524  12.358  1.00  0.00     0.279 HD
ATOM     18  HN1 UNL     1     -11.229  11.956  11.812  1.00  0.00     0.279 HD
ENDBRANCH  13  15
ENDBRANCH   5   8
ENDBRANCH   2   3
ENDBRANCH   1   2
BRANCH   1  19
HETATM   19  C   UNL     1      -3.358  12.092  13.865  1.00  0.00    -0.042 C 
HETATM   20  C   UNL     1      -2.562  13.075  13.258  1.00  0.00     0.021 C 
HETATM   21  C   UNL     1      -1.391  12.675  12.607  1.00  0.00    -0.020 C 
HETATM   22  C   UNL     1      -1.085  11.332  12.447  1.00  0.00     0.086 C 
HETATM   23  C   UNL     1      -1.881  10.183  12.355  1.00  0.00     0.245 C 
HETATM   24  O   UNL     1      -1.308   9.084  12.213  1.00  0.00    -0.268 OA
HETATM   25  N   UNL     1      -3.239  10.230  12.378  1.00  0.00    -0.333 N 
HETATM   26  C   UNL     1      -3.987  11.143  13.075  1.00  0.00     0.098 C 
ATOM     27  HN  UNL     1      -3.742   9.530  11.833  1.00  0.00     0.168 HD
BRANCH  21  28
HETATM   28  C   UNL     1      -0.449  13.682  12.106  1.00  0.00    -0.026 C 
HETATM   29  C   UNL     1      -0.697  14.274  10.864  1.00  0.00     0.012 C 
HETATM   30  C   UNL     1       0.249  14.933  10.091  1.00  0.00     0.001 C 
HETATM   31  C   UNL     1       1.605  15.001  10.307  1.00  0.00     0.000 C 
HETATM   32  C   UNL     1       2.398  14.854  11.420  1.00  0.00     0.000 C 
HETATM   33  C   UNL     1       1.916  14.439  12.642  1.00  0.00     0.001 C 
HETATM   34  C   UNL     1       0.626  14.026  12.916  1.00  0.00     0.012 C 
ENDBRANCH  21  28
ENDBRANCH   1  19
TORSDOF 6
