REMARK  5 active torsions:
REMARK  status: ('A' for Active; 'I' for Inactive)
REMARK    1  A    between atoms: C_3  and  C_7 
REMARK    2  A    between atoms: C_4  and  C_22 
REMARK    3  A    between atoms: C_5  and  O_26 
REMARK    4  A    between atoms: N_6  and  C_31 
REMARK    5  A    between atoms: C_7  and  C_20 
REMARK       I    between atoms: C_12  and  N_30 
ROOT
HETATM    1  C   UNL     1      -3.856  12.367  13.286  1.00  0.00     0.019 C 
HETATM    2  N   UNL     1      -1.249  13.648  12.060  1.00  0.00    -0.297 N 
HETATM    3  O   UNL     1      -1.887  15.283  13.447  1.00  0.00    -0.268 OA
HETATM    4  C   UNL     1      -1.186  12.292  11.881  1.00  0.00     0.100 C 
HETATM    5  C   UNL     1      -3.448  13.659  13.059  1.00  0.00     0.090 C 
HETATM    6  C   UNL     1      -1.810  11.268  12.532  1.00  0.00     0.019 C 
HETATM    7  C   UNL     1      -2.991  11.265  13.266  1.00  0.00     0.017 C 
HETATM    8  C   UNL     1      -2.178  14.234  12.862  1.00  0.00     0.252 C 
ENDROOT
BRANCH   1   9
HETATM    9  C   UNL     1      -5.257  12.120  13.787  1.00  0.00     0.182 C 
HETATM   10  O   UNL     1      -5.963  11.397  13.125  1.00  0.00    -0.288 OA
BRANCH   9  11
HETATM   11  C   UNL     1      -5.758  12.768  14.980  1.00  0.00     0.056 C 
HETATM   12  C   UNL     1      -6.959  13.112  15.467  1.00  0.00     0.017 C 
BRANCH  12  13
HETATM   13  C   UNL     1      -8.007  13.840  14.642  1.00  0.00    -0.017 C 
HETATM   14  C   UNL     1      -9.140  13.150  14.235  1.00  0.00     0.114 C 
HETATM   15  N   UNL     1      -9.968  13.710  13.240  1.00  0.00    -0.274 N 
HETATM   16  C   UNL     1      -9.750  15.027  12.767  1.00  0.00     0.138 C 
HETATM   17  C   UNL     1     -10.967  12.882  12.686  1.00  0.00     0.294 C 
HETATM   18  C   UNL     1      -8.691  15.748  13.303  1.00  0.00     0.082 C 
HETATM   19  C   UNL     1      -7.837  15.183  14.269  1.00  0.00     0.050 C 
HETATM   20  O   UNL     1     -11.779  12.349  13.477  1.00  0.00    -0.629 OA
HETATM   21  O   UNL     1     -11.031  12.707  11.466  1.00  0.00    -0.629 OA
BRANCH  18  22
HETATM   22  O   UNL     1      -8.478  17.042  12.928  1.00  0.00    -0.359 OA
ATOM     23  HO  UNL     1      -7.754  17.535  13.295  1.00  0.00     0.217 HD
ENDBRANCH  18  22
ENDBRANCH  12  13
ENDBRANCH   9  11
ENDBRANCH   1   9
BRANCH   2  24
HETATM   24  C   UNL     1      -0.183  14.438  11.476  1.00  0.00     0.001 C 
HETATM   25  C   UNL     1       0.741  15.164  12.430  1.00  0.00     0.032 C 
HETATM   26  C   UNL     1       1.045  16.556  11.889  1.00  0.00     0.015 C 
HETATM   27  C   UNL     1       2.080  14.453  12.361  1.00  0.00     0.011 C 
HETATM   28  C   UNL     1       1.832  16.182  10.630  1.00  0.00    -0.013 C 
HETATM   29  C   UNL     1       2.678  14.979  11.072  1.00  0.00     0.005 C 
HETATM   30  C   UNL     1       0.823  15.738   9.556  1.00  0.00     0.010 C 
HETATM   31  C   UNL     1      -0.336  14.898  10.055  1.00  0.00     0.054 C 
ENDBRANCH   2  24
TORSDOF 5
