REMARK  7 active torsions:
REMARK  status: ('A' for Active; 'I' for Inactive)
REMARK    1  A    between atoms: C_1  and  C_5 
REMARK    2  A    between atoms: N_4  and  C_27 
REMARK    3  A    between atoms: C_5  and  C_10 
REMARK    4  A    between atoms: O_6  and  C_26 
REMARK    5  A    between atoms: C_11  and  O_15 
REMARK    6  A    between atoms: N_13  and  C_23 
REMARK    7  A    between atoms: P_14  and  C_22 
ROOT
HETATM    1  C   UNL     1      -1.724  12.419  12.974  1.00  0.00     0.336 C 
HETATM    2  N   UNL     1      -3.075  12.184  13.161  1.00  0.00    -0.244 N 
HETATM    3  N   UNL     1      -1.424  13.063  11.802  1.00  0.00    -0.299 N 
HETATM    4  O   UNL     1      -4.284  10.462  12.292  1.00  0.00    -0.273 OA
HETATM    5  O   UNL     1      -0.878  12.056  13.760  1.00  0.00    -0.246 OA
HETATM    6  C   UNL     1      -3.651  11.474  12.132  1.00  0.00     0.233 C 
HETATM    7  C   UNL     1      -1.929  12.435  10.576  1.00  0.00     0.143 C 
HETATM    8  C   UNL     1      -3.420  12.097  10.759  1.00  0.00     0.124 C 
ENDROOT
BRANCH   2   9
HETATM    9  C   UNL     1      -3.661  12.489  14.458  1.00  0.00     0.105 C 
HETATM   10  C   UNL     1      -5.058  12.626  14.608  1.00  0.00     0.019 C 
BRANCH  10  11
HETATM   11  C   UNL     1      -5.975  13.596  14.562  1.00  0.00     0.013 C 
BRANCH  11  12
HETATM   12  C   UNL     1      -7.354  13.334  14.138  1.00  0.00    -0.035 C 
HETATM   13  C   UNL     1      -7.715  12.073  13.629  1.00  0.00     0.014 C 
HETATM   14  C   UNL     1      -9.031  11.810  13.240  1.00  0.00     0.038 C 
HETATM   15  C   UNL     1      -9.973  12.834  13.280  1.00  0.00     0.085 C 
HETATM   16  C   UNL     1      -9.533  14.144  13.516  1.00  0.00     0.102 C 
HETATM   17  C   UNL     1      -8.336  14.336  14.210  1.00  0.00     0.036 C 
BRANCH  15  18
HETATM   18  O   UNL     1     -11.273  12.558  13.024  1.00  0.00    -0.359 OA
ATOM     19  HO  UNL     1     -11.916  13.257  13.051  1.00  0.00     0.217 HD
ENDBRANCH  15  18
BRANCH  16  20
HETATM   20  P   UNL     1     -10.356  15.472  12.716  1.00  0.00     0.298 P 
HETATM   21  O   UNL     1      -9.274  16.435  12.307  1.00  0.00    -0.636 OA
HETATM   22  O   UNL     1     -11.343  15.915  13.783  1.00  0.00    -0.636 OA
HETATM   23  O   UNL     1     -11.084  14.922  11.545  1.00  0.00    -0.636 OA
ENDBRANCH  16  20
ENDBRANCH  11  12
ENDBRANCH  10  11
ENDBRANCH   2   9
BRANCH   3  24
HETATM   24  C   UNL     1      -0.773  14.306  11.814  1.00  0.00     0.041 C 
HETATM   25  C   UNL     1      -1.415  15.438  11.298  1.00  0.00     0.030 C 
HETATM   26  C   UNL     1      -1.042  16.073  10.120  1.00  0.00     0.002 C 
HETATM   27  C   UNL     1       0.103  15.753   9.417  1.00  0.00     0.003 C 
HETATM   28  C   UNL     1       1.253  15.353  10.078  1.00  0.00     0.036 C 
HETATM   29  C   UNL     1       1.373  15.258  11.465  1.00  0.00     0.067 C 
HETATM   30  C   UNL     1       0.562  14.388  12.201  1.00  0.00     0.066 C 
BRANCH  29  31
HETATM   31  O   UNL     1       2.196  16.099  12.128  1.00  0.00    -0.361 OA
ATOM     32  HO  UNL     1       2.278  16.034  13.072  1.00  0.00     0.217 HD
ENDBRANCH  29  31
ENDBRANCH   3  24
TORSDOF 7
