REMARK  9 active torsions:
REMARK  status: ('A' for Active; 'I' for Inactive)
REMARK    1  A    between atoms: C_4  and  C_40 
REMARK    2  A    between atoms: C_4  and  C_45 
REMARK    3  A    between atoms: C_12  and  C_27 
REMARK    4  A    between atoms: C_22  and  C_24 
REMARK    5  A    between atoms: C_24  and  C_45 
REMARK    6  A    between atoms: C_28  and  C_36 
REMARK    7  A    between atoms: C_28  and  C_42 
REMARK    8  A    between atoms: C_32  and  C_36 
REMARK    9  A    between atoms: C_32  and  C_40 
ROOT
HETATM    1  C   UNL     1      11.813 -23.477  -2.836  1.00  0.00     0.023 C 
HETATM    2  C   UNL     1      13.219 -23.003  -1.235  1.00  0.00     0.087 C 
HETATM    3  C   UNL     1       9.815 -24.253  -4.090  1.00  0.00    -0.040 C 
HETATM    4  C   UNL     1       9.693 -25.310  -2.971  1.00  0.00     0.041 C 
HETATM    5  C   UNL     1       9.800 -24.471  -1.668  1.00  0.00     0.018 C 
HETATM    6  C   UNL     1       8.875 -24.359  -5.183  1.00  0.00    -0.027 C 
HETATM    7  O   UNL     1      15.541 -23.367  -0.627  1.00  0.00    -0.282 OA
HETATM    8  C   UNL     1      13.636 -23.582   0.946  1.00  0.00     0.148 C 
HETATM    9  C   UNL     1       7.408 -25.346  -6.627  1.00  0.00     0.053 C 
HETATM   10  C   UNL     1       7.215 -23.405  -8.373  1.00  0.00     0.050 C 
HETATM   11  C   UNL     1       8.379 -23.310  -6.050  1.00  0.00     0.020 C 
HETATM   12  C   UNL     1       7.582 -23.949  -7.021  1.00  0.00    -0.037 C 
HETATM   13  N   UNL     1      14.241 -23.982   2.066  1.00  0.00    -0.382 N 
ATOM     14  HN1 UNL     1      13.772 -24.170   2.952  1.00  0.00     0.157 HD
ATOM     15  HN2 UNL     1      15.164 -23.619   2.302  1.00  0.00     0.157 HD
HETATM   16  C   UNL     1      14.333 -23.303  -0.371  1.00  0.00     0.239 C 
HETATM   17  C   UNL     1      11.162 -23.600  -4.147  1.00  0.00    -0.028 C 
HETATM   18  C   UNL     1      11.268 -24.133  -1.574  1.00  0.00     0.065 C 
HETATM   19  N   UNL     1      13.092 -23.057  -2.596  1.00  0.00    -0.357 N 
ATOM     20  HN  UNL     1      13.805 -22.830  -3.289  1.00  0.00     0.166 HD
HETATM   21  C   UNL     1       8.226 -25.595  -5.504  1.00  0.00     0.039 C 
HETATM   22  N   UNL     1      12.405 -24.066   0.631  1.00  0.00    -0.362 N 
ATOM     23  HN  UNL     1      11.911 -24.830   1.093  1.00  0.00     0.162 HD
HETATM   24  C   UNL     1      11.927 -23.267  -0.511  1.00  0.00     0.147 C 
HETATM   25  N   UNL     1       6.560 -26.292  -7.179  1.00  0.00    -0.102 NA
ENDROOT
BRANCH  17  26
HETATM   26  C   UNL     1      11.752 -23.031  -5.364  1.00  0.00     0.041 C 
BRANCH  26  27
HETATM   27  C   UNL     1      11.657 -21.634  -5.667  1.00  0.00     0.005 C 
BRANCH  27  28
HETATM   28  C   UNL     1      12.894 -20.766  -5.875  1.00  0.00     0.000 C 
BRANCH  28  29
HETATM   29  C   UNL     1      12.811 -19.871  -7.129  1.00  0.00     0.000 C 
BRANCH  29  30
HETATM   30  C   UNL     1      13.699 -20.295  -8.319  1.00  0.00     0.004 C 
BRANCH  30  31
HETATM   31  C   UNL     1      15.188 -19.896  -8.186  1.00  0.00     0.029 C 
BRANCH  31  32
HETATM   32  C   UNL     1      15.952 -20.048  -9.499  1.00  0.00    -0.002 C 
BRANCH  32  33
HETATM   33  C   UNL     1      16.907 -21.205  -9.756  1.00  0.00     0.009 C 
HETATM   34  C   UNL     1      17.028 -22.471  -9.122  1.00  0.00     0.096 C 
HETATM   35  C   UNL     1      18.129 -23.121  -9.786  1.00  0.00    -0.037 C 
HETATM   36  C   UNL     1      18.540 -22.253 -10.814  1.00  0.00     0.095 C 
HETATM   37  N   UNL     1      17.738 -21.168 -10.813  1.00  0.00    -0.369 N 
ATOM     38  HN  UNL     1      17.759 -20.426 -11.513  1.00  0.00     0.165 HD
BRANCH  35  39
HETATM   39  C   UNL     1      18.853 -24.360  -9.365  1.00  0.00     0.012 C 
HETATM   40  C   UNL     1      18.498 -25.729  -9.454  1.00  0.00    -0.076 C 
HETATM   41  C   UNL     1      17.227 -26.266  -8.841  1.00  0.00     0.034 C 
HETATM   42  C   UNL     1      19.573 -26.810  -9.340  1.00  0.00     0.010 C 
HETATM   43  C   UNL     1      17.742 -27.288  -7.829  1.00  0.00     0.005 C 
HETATM   44  C   UNL     1      18.964 -27.914  -8.480  1.00  0.00     0.009 C 
HETATM   45  C   UNL     1      19.988 -27.331 -10.716  1.00  0.00     0.015 C 
ENDBRANCH  35  39
ENDBRANCH  32  33
ENDBRANCH  31  32
ENDBRANCH  30  31
ENDBRANCH  29  30
ENDBRANCH  28  29
ENDBRANCH  27  28
ENDBRANCH  26  27
ENDBRANCH  17  26
TORSDOF 9
