REMARK  6 active torsions:
REMARK  status: ('A' for Active; 'I' for Inactive)
REMARK    1  A    between atoms: C_4  and  O_15 
REMARK    2  A    between atoms: C_6  and  C_39 
REMARK    3  A    between atoms: C_7  and  O_29 
REMARK    4  A    between atoms: C_25  and  C_27 
REMARK    5  A    between atoms: C_28  and  C_33 
REMARK    6  A    between atoms: C_31  and  C_41 
ROOT
HETATM    1  C   UNL     1      31.473  53.362  22.273  1.00  0.00     0.096 C 
HETATM    2  N   UNL     1      31.362  52.876  21.019  1.00  0.00    -0.365 N 
ATOM      3  HN  UNL     1      31.998  53.184  20.284  1.00  0.00     0.165 HD
HETATM    4  C   UNL     1      29.925  51.024  21.828  1.00  0.00    -0.027 C 
HETATM    5  C   UNL     1      30.696  52.830  23.344  1.00  0.00    -0.027 C 
HETATM    6  C   UNL     1      30.356  51.941  20.747  1.00  0.00     0.039 C 
HETATM    7  C   UNL     1      29.993  51.533  23.184  1.00  0.00     0.081 C 
HETATM    8  C   UNL     1      29.778  51.906  19.488  1.00  0.00     0.041 C 
ENDROOT
BRANCH   4   9
HETATM    9  C   UNL     1      29.361  49.720  21.507  1.00  0.00     0.010 C 
HETATM   10  C   UNL     1      29.877  48.558  20.998  1.00  0.00     0.001 C 
BRANCH  10  11
HETATM   11  C   UNL     1      29.574  47.360  20.302  1.00  0.00     0.005 C 
HETATM   12  C   UNL     1      29.436  46.030  20.223  1.00  0.00    -0.040 C 
HETATM   13  C   UNL     1      28.635  45.206  19.233  1.00  0.00     0.084 C 
HETATM   14  C   UNL     1      29.838  45.023  21.327  1.00  0.00     0.219 C 
HETATM   15  C   UNL     1      29.466  43.880  19.208  1.00  0.00     0.232 C 
HETATM   16  C   UNL     1      27.296  44.726  19.841  1.00  0.00    -0.001 C 
HETATM   17  N   UNL     1      30.065  43.771  20.565  1.00  0.00    -0.034 N 
HETATM   18  C   UNL     1      28.432  42.800  18.861  1.00  0.00     0.070 C 
ATOM     19  HN2 UNL     1      29.724  42.952  21.068  1.00  0.00     0.281 HD
ATOM     20  HN1 UNL     1      31.053  43.522  20.526  1.00  0.00     0.281 HD
HETATM   21  C   UNL     1      27.061  43.312  19.268  1.00  0.00     0.010 C 
HETATM   22  C   UNL     1      27.253  44.650  21.379  1.00  0.00     0.008 C 
HETATM   23  C   UNL     1      28.550  44.850  22.155  1.00  0.00     0.038 C 
BRANCH  15  24
HETATM   24  O   UNL     1      30.509  43.959  18.246  1.00  0.00    -0.364 OA
ATOM     25  HO  UNL     1      30.126  44.029  17.379  1.00  0.00     0.212 HD
ENDBRANCH  15  24
ENDBRANCH  10  11
ENDBRANCH   4   9
BRANCH   8  26
HETATM   26  C   UNL     1      28.656  51.997  18.639  1.00  0.00    -0.031 C 
HETATM   27  C   UNL     1      27.334  52.262  19.064  1.00  0.00     0.011 C 
HETATM   28  C   UNL     1      26.296  52.251  18.113  1.00  0.00     0.004 C 
HETATM   29  C   UNL     1      26.505  51.723  16.833  1.00  0.00     0.036 C 
HETATM   30  C   UNL     1      27.794  51.290  16.513  1.00  0.00     0.066 C 
HETATM   31  C   UNL     1      28.877  51.749  17.273  1.00  0.00     0.048 C 
BRANCH  30  32
HETATM   32  O   UNL     1      28.010  50.271  15.643  1.00  0.00    -0.361 OA
ATOM     33  HO  UNL     1      28.887  49.977  15.425  1.00  0.00     0.217 HD
ENDBRANCH  30  32
ENDBRANCH   8  26
BRANCH   5  34
HETATM   34  C   UNL     1      30.547  53.611  24.569  1.00  0.00     0.018 C 
HETATM   35  C   UNL     1      31.567  53.558  25.661  1.00  0.00     0.046 C 
HETATM   36  C   UNL     1      31.449  54.565  26.789  1.00  0.00     0.024 C 
HETATM   37  C   UNL     1      29.981  54.839  27.135  1.00  0.00     0.123 C 
HETATM   38  N   UNL     1      29.220  55.198  25.913  1.00  0.00    -0.357 N 
HETATM   39  C   UNL     1      29.544  54.746  24.651  1.00  0.00     0.248 C 
ATOM     40  HN  UNL     1      28.412  55.813  26.012  1.00  0.00     0.162 HD
HETATM   41  O   UNL     1      29.076  55.258  23.646  1.00  0.00    -0.268 OA
ENDBRANCH   5  34
TORSDOF 6
