MODEL 1
REMARK VINA RESULT:      -8.1      0.000      0.000
REMARK  4 active torsions:
REMARK  status: ('A' for Active; 'I' for Inactive)
REMARK       I    between atoms: N_5  and  C_11 
REMARK    1  A    between atoms: O_8  and  C_18 
REMARK    2  A    between atoms: O_12  and  C_18 
REMARK    3  A    between atoms: C_15  and  C_18 
REMARK    4  A    between atoms: C_18  and  O_20 
ROOT
HETATM    1  C   UNL     1      16.318  40.084  36.057  1.00  0.00     0.134 C 
HETATM    2  C   UNL     1      19.387  39.434  37.946  1.00  0.00     0.045 C 
HETATM    3  C   UNL     1      19.023  35.928  36.389  1.00  0.00     0.023 C 
HETATM    4  C   UNL     1      19.159  34.914  38.546  1.00  0.00     0.015 C 
HETATM    5  N   UNL     1      16.669  41.423  36.518  1.00  0.00    -0.326 N 
HETATM    6  C   UNL     1      17.481  39.225  36.494  1.00  0.00     0.014 C 
HETATM    7  O   UNL     1      16.081  43.617  36.649  1.00  0.00    -0.630 OA
HETATM    8  C   UNL     1      18.027  38.068  35.680  1.00  0.00     0.046 C 
HETATM    9  C   UNL     1      16.053  42.546  36.014  1.00  0.00     0.285 C 
HETATM   10  O   UNL     1      15.451  42.442  34.922  1.00  0.00    -0.630 OA
HETATM   11  C   UNL     1      18.616  34.960  37.289  1.00  0.00     0.034 C 
HETATM   12  C   UNL     1      19.469  37.945  37.729  1.00  0.00    -0.051 C 
HETATM   13  C   UNL     1      20.100  37.219  38.715  1.00  0.00     0.007 C 
HETATM   14  C   UNL     1      17.743  41.315  37.517  1.00  0.00     0.134 C 
HETATM   15  C   UNL     1      19.907  35.926  39.097  1.00  0.00     0.001 C 
HETATM   16  C   UNL     1      18.909  37.289  36.636  1.00  0.00    -0.051 C 
HETATM   17  C   UNL     1      18.575  40.182  36.897  1.00  0.00     0.014 C 
ENDROOT
BRANCH  11  18
HETATM   18  C   UNL     1      17.718  33.859  36.798  1.00  0.00     0.307 C 
BRANCH  18  19
HETATM   19  O   UNL     1      18.453  32.653  36.824  1.00  0.00    -0.340 OA
ATOM     20  HO  UNL     1      18.678  32.379  37.706  1.00  0.00     0.216 HD
ENDBRANCH  18  19
BRANCH  18  21
HETATM   21  O   UNL     1      17.318  34.207  35.539  1.00  0.00    -0.340 OA
ATOM     22  HO  UNL     1      17.826  33.776  34.861  1.00  0.00     0.216 HD
ENDBRANCH  18  21
BRANCH  18  23
HETATM   23  O   UNL     1      16.682  33.656  37.657  1.00  0.00    -0.340 OA
ATOM     24  HO  UNL     1      15.912  33.602  37.103  1.00  0.00     0.216 HD
ENDBRANCH  18  23
ENDBRANCH  11  18
TORSDOF 4
ENDMDL
MODEL 2
REMARK VINA RESULT:      -7.1      3.060      6.879
REMARK  4 active torsions:
REMARK  status: ('A' for Active; 'I' for Inactive)
REMARK       I    between atoms: N_5  and  C_11 
REMARK    1  A    between atoms: O_8  and  C_18 
REMARK    2  A    between atoms: O_12  and  C_18 
REMARK    3  A    between atoms: C_15  and  C_18 
REMARK    4  A    between atoms: C_18  and  O_20 
ROOT
HETATM    1  C   UNL     1      18.984  36.834  36.413  1.00  0.00     0.134 C 
HETATM    2  C   UNL     1      19.546  38.120  39.795  1.00  0.00     0.045 C 
HETATM    3  C   UNL     1      19.606  41.513  37.969  1.00  0.00     0.023 C 
HETATM    4  C   UNL     1      21.723  42.040  38.939  1.00  0.00     0.015 C 
HETATM    5  N   UNL     1      18.761  35.640  37.222  1.00  0.00    -0.326 N 
HETATM    6  C   UNL     1      19.176  37.938  37.425  1.00  0.00     0.014 C 
HETATM    7  O   UNL     1      18.347  33.404  37.260  1.00  0.00    -0.630 OA
HETATM    8  C   UNL     1      18.670  39.354  37.234  1.00  0.00     0.046 C 
HETATM    9  C   UNL     1      18.196  34.503  36.692  1.00  0.00     0.285 C 
HETATM   10  O   UNL     1      17.559  34.611  35.621  1.00  0.00    -0.630 OA
HETATM   11  C   UNL     1      20.869  42.067  37.868  1.00  0.00     0.034 C 
HETATM   12  C   UNL     1      19.849  39.552  39.439  1.00  0.00    -0.051 C 
HETATM   13  C   UNL     1      20.675  40.234  40.306  1.00  0.00     0.007 C 
HETATM   14  C   UNL     1      19.200  35.912  38.599  1.00  0.00     0.134 C 
HETATM   15  C   UNL     1      21.527  41.267  40.057  1.00  0.00     0.001 C 
HETATM   16  C   UNL     1      19.386  40.179  38.285  1.00  0.00    -0.051 C 
HETATM   17  C   UNL     1      18.733  37.367  38.750  1.00  0.00     0.014 C 
ENDROOT
BRANCH  11  18
HETATM   18  C   UNL     1      21.207  42.856  36.633  1.00  0.00     0.307 C 
BRANCH  18  19
HETATM   19  O   UNL     1      20.034  42.968  35.854  1.00  0.00    -0.340 OA
ATOM     20  HO  UNL     1      19.598  42.133  35.723  1.00  0.00     0.216 HD
ENDBRANCH  18  19
BRANCH  18  21
HETATM   21  O   UNL     1      22.204  42.178  35.991  1.00  0.00    -0.340 OA
ATOM     22  HO  UNL     1      22.201  42.323  35.053  1.00  0.00     0.216 HD
ENDBRANCH  18  21
BRANCH  18  23
HETATM   23  O   UNL     1      21.541  44.136  36.950  1.00  0.00    -0.340 OA
ATOM     24  HO  UNL     1      21.453  44.185  37.894  1.00  0.00     0.216 HD
ENDBRANCH  18  23
ENDBRANCH  11  18
TORSDOF 4
ENDMDL
MODEL 3
REMARK VINA RESULT:      -6.8      2.171      6.758
REMARK  4 active torsions:
REMARK  status: ('A' for Active; 'I' for Inactive)
REMARK       I    between atoms: N_5  and  C_11 
REMARK    1  A    between atoms: O_8  and  C_18 
REMARK    2  A    between atoms: O_12  and  C_18 
REMARK    3  A    between atoms: C_15  and  C_18 
REMARK    4  A    between atoms: C_18  and  O_20 
ROOT
HETATM    1  C   UNL     1      17.924  36.767  36.861  1.00  0.00     0.134 C 
HETATM    2  C   UNL     1      19.142  40.008  38.051  1.00  0.00     0.045 C 
HETATM    3  C   UNL     1      16.380  41.352  35.725  1.00  0.00     0.023 C 
HETATM    4  C   UNL     1      17.951  42.759  34.608  1.00  0.00     0.015 C 
HETATM    5  N   UNL     1      18.838  36.364  37.925  1.00  0.00    -0.326 N 
HETATM    6  C   UNL     1      17.891  38.273  36.950  1.00  0.00     0.014 C 
HETATM    7  O   UNL     1      19.863  34.656  39.024  1.00  0.00    -0.630 OA
HETATM    8  C   UNL     1      16.648  39.106  36.705  1.00  0.00     0.046 C 
HETATM    9  C   UNL     1      18.865  35.076  38.407  1.00  0.00     0.285 C 
HETATM   10  O   UNL     1      17.875  34.346  38.180  1.00  0.00    -0.630 OA
HETATM   11  C   UNL     1      16.863  41.929  34.564  1.00  0.00     0.034 C 
HETATM   12  C   UNL     1      18.356  40.895  37.120  1.00  0.00    -0.051 C 
HETATM   13  C   UNL     1      18.924  42.112  36.813  1.00  0.00     0.007 C 
HETATM   14  C   UNL     1      19.621  37.536  38.347  1.00  0.00     0.134 C 
HETATM   15  C   UNL     1      18.787  42.873  35.692  1.00  0.00     0.001 C 
HETATM   16  C   UNL     1      17.146  40.528  36.537  1.00  0.00    -0.051 C 
HETATM   17  C   UNL     1      18.540  38.626  38.266  1.00  0.00     0.014 C 
ENDROOT
BRANCH  11  18
HETATM   18  C   UNL     1      16.060  41.777  33.302  1.00  0.00     0.307 C 
BRANCH  18  19
HETATM   19  O   UNL     1      14.729  41.473  33.667  1.00  0.00    -0.340 OA
ATOM     20  HO  UNL     1      14.088  41.928  33.132  1.00  0.00     0.216 HD
ENDBRANCH  18  19
BRANCH  18  21
HETATM   21  O   UNL     1      16.649  40.781  32.576  1.00  0.00    -0.340 OA
ATOM     22  HO  UNL     1      16.809  39.999  33.090  1.00  0.00     0.216 HD
ENDBRANCH  18  21
BRANCH  18  23
HETATM   23  O   UNL     1      15.978  42.959  32.633  1.00  0.00    -0.340 OA
ATOM     24  HO  UNL     1      16.841  43.347  32.714  1.00  0.00     0.216 HD
ENDBRANCH  18  23
ENDBRANCH  11  18
TORSDOF 4
ENDMDL
MODEL 4
REMARK VINA RESULT:      -6.8      1.372      1.771
REMARK  4 active torsions:
REMARK  status: ('A' for Active; 'I' for Inactive)
REMARK       I    between atoms: N_5  and  C_11 
REMARK    1  A    between atoms: O_8  and  C_18 
REMARK    2  A    between atoms: O_12  and  C_18 
REMARK    3  A    between atoms: C_15  and  C_18 
REMARK    4  A    between atoms: C_18  and  O_20 
ROOT
HETATM    1  C   UNL     1      16.458  40.175  38.009  1.00  0.00     0.134 C 
HETATM    2  C   UNL     1      19.709  38.976  39.192  1.00  0.00     0.045 C 
HETATM    3  C   UNL     1      18.997  36.099  36.730  1.00  0.00     0.023 C 
HETATM    4  C   UNL     1      19.359  34.485  38.452  1.00  0.00     0.015 C 
HETATM    5  N   UNL     1      16.922  41.314  38.794  1.00  0.00    -0.326 N 
HETATM    6  C   UNL     1      17.627  39.220  38.012  1.00  0.00     0.014 C 
HETATM    7  O   UNL     1      16.453  43.370  39.647  1.00  0.00    -0.630 OA
HETATM    8  C   UNL     1      18.014  38.357  36.827  1.00  0.00     0.046 C 
HETATM    9  C   UNL     1      16.298  42.538  38.732  1.00  0.00     0.285 C 
HETATM   10  O   UNL     1      15.559  42.768  37.750  1.00  0.00    -0.630 OA
HETATM   11  C   UNL     1      18.664  34.908  37.349  1.00  0.00     0.034 C 
HETATM   12  C   UNL     1      19.697  37.621  38.535  1.00  0.00    -0.051 C 
HETATM   13  C   UNL     1      20.415  36.629  39.169  1.00  0.00     0.007 C 
HETATM   14  C   UNL     1      18.108  40.907  39.563  1.00  0.00     0.134 C 
HETATM   15  C   UNL     1      20.214  35.283  39.172  1.00  0.00     0.001 C 
HETATM   16  C   UNL     1      18.975  37.324  37.383  1.00  0.00    -0.051 C 
HETATM   17  C   UNL     1      18.805  40.008  38.530  1.00  0.00     0.014 C 
ENDROOT
BRANCH  11  18
HETATM   18  C   UNL     1      17.663  34.008  36.679  1.00  0.00     0.307 C 
BRANCH  18  19
HETATM   19  O   UNL     1      17.323  34.587  35.435  1.00  0.00    -0.340 OA
ATOM     20  HO  UNL     1      16.888  35.428  35.528  1.00  0.00     0.216 HD
ENDBRANCH  18  19
BRANCH  18  21
HETATM   21  O   UNL     1      16.595  33.906  37.524  1.00  0.00    -0.340 OA
ATOM     22  HO  UNL     1      16.745  34.336  38.358  1.00  0.00     0.216 HD
ENDBRANCH  18  21
BRANCH  18  23
HETATM   23  O   UNL     1      18.221  32.808  36.365  1.00  0.00    -0.340 OA
ATOM     24  HO  UNL     1      18.067  32.703  35.433  1.00  0.00     0.216 HD
ENDBRANCH  18  23
ENDBRANCH  11  18
TORSDOF 4
ENDMDL
MODEL 5
REMARK VINA RESULT:      -6.7      5.828      7.187
REMARK  4 active torsions:
REMARK  status: ('A' for Active; 'I' for Inactive)
REMARK       I    between atoms: N_5  and  C_11 
REMARK    1  A    between atoms: O_8  and  C_18 
REMARK    2  A    between atoms: O_12  and  C_18 
REMARK    3  A    between atoms: C_15  and  C_18 
REMARK    4  A    between atoms: C_18  and  O_20 
ROOT
HETATM    1  C   UNL     1      18.664  43.886  38.739  1.00  0.00     0.134 C 
HETATM    2  C   UNL     1      18.344  44.533  35.149  1.00  0.00     0.045 C 
HETATM    3  C   UNL     1      14.837  43.030  35.686  1.00  0.00     0.023 C 
HETATM    4  C   UNL     1      15.203  41.450  33.935  1.00  0.00     0.015 C 
HETATM    5  N   UNL     1      19.870  44.662  38.472  1.00  0.00    -0.326 N 
HETATM    6  C   UNL     1      17.908  43.912  37.432  1.00  0.00     0.014 C 
HETATM    7  O   UNL     1      21.824  45.500  39.280  1.00  0.00    -0.630 OA
HETATM    8  C   UNL     1      16.397  43.993  37.333  1.00  0.00     0.046 C 
HETATM    9  C   UNL     1      20.641  45.174  39.491  1.00  0.00     0.285 C 
HETATM   10  O   UNL     1      20.122  45.271  40.624  1.00  0.00    -0.630 OA
HETATM   11  C   UNL     1      14.693  41.756  35.169  1.00  0.00     0.034 C 
HETATM   12  C   UNL     1      17.035  43.825  34.913  1.00  0.00    -0.051 C 
HETATM   13  C   UNL     1      16.838  43.314  33.648  1.00  0.00     0.007 C 
HETATM   14  C   UNL     1      20.039  44.790  37.017  1.00  0.00     0.134 C 
HETATM   15  C   UNL     1      16.092  42.246  33.253  1.00  0.00     0.001 C 
HETATM   16  C   UNL     1      16.071  43.627  35.898  1.00  0.00    -0.051 C 
HETATM   17  C   UNL     1      18.574  44.972  36.589  1.00  0.00     0.014 C 
ENDROOT
BRANCH  11  18
HETATM   18  C   UNL     1      13.810  40.782  35.899  1.00  0.00     0.307 C 
BRANCH  18  19
HETATM   19  O   UNL     1      13.239  41.456  37.003  1.00  0.00    -0.340 OA
ATOM     20  HO  UNL     1      12.415  41.073  37.281  1.00  0.00     0.216 HD
ENDBRANCH  18  19
BRANCH  18  21
HETATM   21  O   UNL     1      14.602  39.734  36.274  1.00  0.00    -0.340 OA
ATOM     22  HO  UNL     1      15.328  40.001  36.824  1.00  0.00     0.216 HD
ENDBRANCH  18  21
BRANCH  18  23
HETATM   23  O   UNL     1      12.751  40.412  35.129  1.00  0.00    -0.340 OA
ATOM     24  HO  UNL     1      12.614  41.141  34.536  1.00  0.00     0.216 HD
ENDBRANCH  18  23
ENDBRANCH  11  18
TORSDOF 4
ENDMDL
MODEL 6
REMARK VINA RESULT:      -6.6      3.297      4.370
REMARK  4 active torsions:
REMARK  status: ('A' for Active; 'I' for Inactive)
REMARK       I    between atoms: N_5  and  C_11 
REMARK    1  A    between atoms: O_8  and  C_18 
REMARK    2  A    between atoms: O_12  and  C_18 
REMARK    3  A    between atoms: C_15  and  C_18 
REMARK    4  A    between atoms: C_18  and  O_20 
ROOT
HETATM    1  C   UNL     1      21.193  42.394  38.798  1.00  0.00     0.134 C 
HETATM    2  C   UNL     1      18.604  40.979  36.629  1.00  0.00     0.045 C 
HETATM    3  C   UNL     1      19.087  37.894  38.886  1.00  0.00     0.023 C 
HETATM    4  C   UNL     1      19.456  36.508  36.977  1.00  0.00     0.015 C 
HETATM    5  N   UNL     1      20.778  43.566  38.034  1.00  0.00    -0.326 N 
HETATM    6  C   UNL     1      20.233  41.311  38.368  1.00  0.00     0.014 C 
HETATM    7  O   UNL     1      21.122  45.764  37.562  1.00  0.00    -0.630 OA
HETATM    8  C   UNL     1      19.688  40.248  39.301  1.00  0.00     0.046 C 
HETATM    9  C   UNL     1      21.160  44.838  38.394  1.00  0.00     0.285 C 
HETATM   10  O   UNL     1      21.566  45.016  39.563  1.00  0.00    -0.630 OA
HETATM   11  C   UNL     1      19.757  36.853  38.268  1.00  0.00     0.034 C 
HETATM   12  C   UNL     1      18.658  39.556  37.121  1.00  0.00    -0.051 C 
HETATM   13  C   UNL     1      18.300  38.583  36.213  1.00  0.00     0.007 C 
HETATM   14  C   UNL     1      19.917  43.128  36.924  1.00  0.00     0.134 C 
HETATM   15  C   UNL     1      18.706  37.286  36.129  1.00  0.00     0.001 C 
HETATM   16  C   UNL     1      19.086  39.192  38.394  1.00  0.00    -0.051 C 
HETATM   17  C   UNL     1      19.125  42.011  37.620  1.00  0.00     0.014 C 
ENDROOT
BRANCH  11  18
HETATM   18  C   UNL     1      20.674  36.000  39.099  1.00  0.00     0.307 C 
BRANCH  18  19
HETATM   19  O   UNL     1      21.942  35.987  38.473  1.00  0.00    -0.340 OA
ATOM     20  HO  UNL     1      22.053  35.249  37.885  1.00  0.00     0.216 HD
ENDBRANCH  18  19
BRANCH  18  21
HETATM   21  O   UNL     1      20.107  34.759  39.167  1.00  0.00    -0.340 OA
ATOM     22  HO  UNL     1      20.353  34.203  38.438  1.00  0.00     0.216 HD
ENDBRANCH  18  21
BRANCH  18  23
HETATM   23  O   UNL     1      20.892  36.563  40.318  1.00  0.00    -0.340 OA
ATOM     24  HO  UNL     1      21.814  36.419  40.493  1.00  0.00     0.216 HD
ENDBRANCH  18  23
ENDBRANCH  11  18
TORSDOF 4
ENDMDL
MODEL 7
REMARK VINA RESULT:      -6.4      2.976      3.901
REMARK  4 active torsions:
REMARK  status: ('A' for Active; 'I' for Inactive)
REMARK       I    between atoms: N_5  and  C_11 
REMARK    1  A    between atoms: O_8  and  C_18 
REMARK    2  A    between atoms: O_12  and  C_18 
REMARK    3  A    between atoms: C_15  and  C_18 
REMARK    4  A    between atoms: C_18  and  O_20 
ROOT
HETATM    1  C   UNL     1      19.195  42.709  36.762  1.00  0.00     0.134 C 
HETATM    2  C   UNL     1      17.468  39.724  35.533  1.00  0.00     0.045 C 
HETATM    3  C   UNL     1      18.457  38.326  38.985  1.00  0.00     0.023 C 
HETATM    4  C   UNL     1      19.484  36.428  37.965  1.00  0.00     0.015 C 
HETATM    5  N   UNL     1      18.586  43.207  35.533  1.00  0.00    -0.326 N 
HETATM    6  C   UNL     1      18.657  41.306  36.901  1.00  0.00     0.014 C 
HETATM    7  O   UNL     1      18.363  44.936  34.071  1.00  0.00    -0.630 OA
HETATM    8  C   UNL     1      18.300  40.667  38.229  1.00  0.00     0.046 C 
HETATM    9  C   UNL     1      18.535  44.552  35.244  1.00  0.00     0.285 C 
HETATM   10  O   UNL     1      18.694  45.359  36.186  1.00  0.00    -0.630 OA
HETATM   11  C   UNL     1      19.478  37.395  38.936  1.00  0.00     0.034 C 
HETATM   12  C   UNL     1      17.846  38.778  36.643  1.00  0.00    -0.051 C 
HETATM   13  C   UNL     1      17.918  37.443  36.308  1.00  0.00     0.007 C 
HETATM   14  C   UNL     1      18.062  42.066  34.767  1.00  0.00     0.134 C 
HETATM   15  C   UNL     1      18.681  36.454  36.851  1.00  0.00     0.001 C 
HETATM   16  C   UNL     1      18.164  39.186  37.936  1.00  0.00    -0.051 C 
HETATM   17  C   UNL     1      17.521  41.197  35.913  1.00  0.00     0.014 C 
ENDROOT
BRANCH  11  18
HETATM   18  C   UNL     1      20.464  37.353  40.070  1.00  0.00     0.307 C 
BRANCH  18  19
HETATM   19  O   UNL     1      21.219  38.547  40.035  1.00  0.00    -0.340 OA
ATOM     20  HO  UNL     1      20.812  39.223  39.506  1.00  0.00     0.216 HD
ENDBRANCH  18  19
BRANCH  18  21
HETATM   21  O   UNL     1      21.231  36.238  39.886  1.00  0.00    -0.340 OA
ATOM     22  HO  UNL     1      22.150  36.442  39.756  1.00  0.00     0.216 HD
ENDBRANCH  18  21
BRANCH  18  23
HETATM   23  O   UNL     1      19.825  37.378  41.271  1.00  0.00    -0.340 OA
ATOM     24  HO  UNL     1      18.910  37.515  41.059  1.00  0.00     0.216 HD
ENDBRANCH  18  23
ENDBRANCH  11  18
TORSDOF 4
ENDMDL
MODEL 8
REMARK VINA RESULT:      -6.4      2.171      6.818
REMARK  4 active torsions:
REMARK  status: ('A' for Active; 'I' for Inactive)
REMARK       I    between atoms: N_5  and  C_11 
REMARK    1  A    between atoms: O_8  and  C_18 
REMARK    2  A    between atoms: O_12  and  C_18 
REMARK    3  A    between atoms: C_15  and  C_18 
REMARK    4  A    between atoms: C_18  and  O_20 
ROOT
HETATM    1  C   UNL     1      17.959  36.795  36.274  1.00  0.00     0.134 C 
HETATM    2  C   UNL     1      19.501  39.247  38.514  1.00  0.00     0.045 C 
HETATM    3  C   UNL     1      17.430  41.735  36.423  1.00  0.00     0.023 C 
HETATM    4  C   UNL     1      19.382  43.029  35.961  1.00  0.00     0.015 C 
HETATM    5  N   UNL     1      18.603  35.931  37.257  1.00  0.00    -0.326 N 
HETATM    6  C   UNL     1      18.170  38.190  36.811  1.00  0.00     0.014 C 
HETATM    7  O   UNL     1      19.125  33.809  37.889  1.00  0.00    -0.630 OA
HETATM    8  C   UNL     1      17.145  39.302  36.698  1.00  0.00     0.046 C 
HETATM    9  C   UNL     1      18.330  34.584  37.325  1.00  0.00     0.285 C 
HETATM   10  O   UNL     1      17.280  34.172  36.783  1.00  0.00    -0.630 OA
HETATM   11  C   UNL     1      18.189  42.494  35.551  1.00  0.00     0.034 C 
HETATM   12  C   UNL     1      19.042  40.502  37.817  1.00  0.00    -0.051 C 
HETATM   13  C   UNL     1      19.853  41.608  37.956  1.00  0.00     0.007 C 
HETATM   14  C   UNL     1      19.494  36.747  38.095  1.00  0.00     0.134 C 
HETATM   15  C   UNL     1      20.034  42.660  37.112  1.00  0.00     0.001 C 
HETATM   16  C   UNL     1      17.900  40.576  37.024  1.00  0.00    -0.051 C 
HETATM   17  C   UNL     1      18.644  38.019  38.234  1.00  0.00     0.014 C 
ENDROOT
BRANCH  11  18
HETATM   18  C   UNL     1      17.592  42.871  34.224  1.00  0.00     0.307 C 
BRANCH  18  19
HETATM   19  O   UNL     1      18.001  41.908  33.274  1.00  0.00    -0.340 OA
ATOM     20  HO  UNL     1      18.387  41.138  33.674  1.00  0.00     0.216 HD
ENDBRANCH  18  19
BRANCH  18  21
HETATM   21  O   UNL     1      18.041  44.127  33.930  1.00  0.00    -0.340 OA
ATOM     22  HO  UNL     1      17.580  44.520  33.199  1.00  0.00     0.216 HD
ENDBRANCH  18  21
BRANCH  18  23
HETATM   23  O   UNL     1      16.235  42.776  34.256  1.00  0.00    -0.340 OA
ATOM     24  HO  UNL     1      15.931  43.666  34.390  1.00  0.00     0.216 HD
ENDBRANCH  18  23
ENDBRANCH  11  18
TORSDOF 4
ENDMDL
MODEL 9
REMARK VINA RESULT:      -6.4      2.804      3.233
REMARK  4 active torsions:
REMARK  status: ('A' for Active; 'I' for Inactive)
REMARK       I    between atoms: N_5  and  C_11 
REMARK    1  A    between atoms: O_8  and  C_18 
REMARK    2  A    between atoms: O_12  and  C_18 
REMARK    3  A    between atoms: C_15  and  C_18 
REMARK    4  A    between atoms: C_18  and  O_20 
ROOT
HETATM    1  C   UNL     1      15.587  39.847  39.777  1.00  0.00     0.134 C 
HETATM    2  C   UNL     1      19.151  39.448  40.514  1.00  0.00     0.045 C 
HETATM    3  C   UNL     1      19.055  37.228  37.367  1.00  0.00     0.023 C 
HETATM    4  C   UNL     1      20.048  35.418  38.566  1.00  0.00     0.015 C 
HETATM    5  N   UNL     1      15.779  40.831  40.837  1.00  0.00    -0.326 N 
HETATM    6  C   UNL     1      16.977  39.332  39.491  1.00  0.00     0.014 C 
HETATM    7  O   UNL     1      14.824  42.350  42.235  1.00  0.00    -0.630 OA
HETATM    8  C   UNL     1      17.473  38.968  38.106  1.00  0.00     0.046 C 
HETATM    9  C   UNL     1      14.823  41.776  41.130  1.00  0.00     0.285 C 
HETATM   10  O   UNL     1      13.950  42.011  40.265  1.00  0.00    -0.630 OA
HETATM   11  C   UNL     1      19.150  35.875  37.638  1.00  0.00     0.034 C 
HETATM   12  C   UNL     1      19.466  38.372  39.508  1.00  0.00    -0.051 C 
HETATM   13  C   UNL     1      20.503  37.523  39.827  1.00  0.00     0.007 C 
HETATM   14  C   UNL     1      17.106  40.627  41.439  1.00  0.00     0.134 C 
HETATM   15  C   UNL     1      20.705  36.227  39.461  1.00  0.00     0.001 C 
HETATM   16  C   UNL     1      18.745  38.174  38.333  1.00  0.00    -0.051 C 
HETATM   17  C   UNL     1      17.922  40.284  40.183  1.00  0.00     0.014 C 
ENDROOT
BRANCH  11  18
HETATM   18  C   UNL     1      18.390  34.915  36.766  1.00  0.00     0.307 C 
BRANCH  18  19
HETATM   19  O   UNL     1      17.057  35.375  36.671  1.00  0.00    -0.340 OA
ATOM     20  HO  UNL     1      16.984  36.196  36.198  1.00  0.00     0.216 HD
ENDBRANCH  18  19
BRANCH  18  21
HETATM   21  O   UNL     1      18.484  33.686  37.354  1.00  0.00    -0.340 OA
ATOM     22  HO  UNL     1      19.035  33.087  36.865  1.00  0.00     0.216 HD
ENDBRANCH  18  21
BRANCH  18  23
HETATM   23  O   UNL     1      18.860  34.941  35.489  1.00  0.00    -0.340 OA
ATOM     24  HO  UNL     1      18.381  34.255  35.038  1.00  0.00     0.216 HD
ENDBRANCH  18  23
ENDBRANCH  11  18
TORSDOF 4
ENDMDL
