MODEL 1
REMARK VINA RESULT:      -8.1      0.000      0.000
REMARK  13 active torsions:
REMARK  status: ('A' for Active; 'I' for Inactive)
REMARK    1  A    between atoms: O_2  and  C_25 
REMARK    2  A    between atoms: O_2  and  P_26 
REMARK    3  A    between atoms: O_5  and  C_14 
REMARK    4  A    between atoms: C_12  and  C_13 
REMARK    5  A    between atoms: C_13  and  N_38 
REMARK    6  A    between atoms: O_21  and  C_35 
REMARK    7  A    between atoms: C_23  and  C_29 
REMARK    8  A    between atoms: C_24  and  O_33 
REMARK    9  A    between atoms: P_26  and  O_27 
REMARK   10  A    between atoms: P_26  and  O_31 
REMARK   11  A    between atoms: P_26  and  O_36 
REMARK   12  A    between atoms: P_26  and  O_41 
REMARK   13  A    between atoms: C_29  and  N_38 
ROOT
HETATM    1  C   UNL     1      20.441 -17.192  -9.065  1.00  0.00     0.011 C 
HETATM    2  C   UNL     1      20.114 -15.586 -12.251  1.00  0.00     0.102 C 
HETATM    3  C   UNL     1      18.635 -17.168 -11.181  1.00  0.00     0.014 C 
HETATM    4  C   UNL     1      18.251 -17.669  -9.927  1.00  0.00     0.027 C 
HETATM    5  C   UNL     1      19.060 -17.329  -8.827  1.00  0.00    -0.021 C 
HETATM    6  C   UNL     1      19.400 -16.171  -6.746  1.00  0.00     0.004 C 
HETATM    7  C   UNL     1      17.705 -16.896 -12.192  1.00  0.00     0.128 C 
HETATM    8  C   UNL     1      20.893 -16.932 -10.365  1.00  0.00     0.029 C 
HETATM    9  N   UNL     1      19.081 -15.080 -12.954  1.00  0.00    -0.343 N 
ATOM     10  HN  UNL     1      19.189 -14.208 -13.472  1.00  0.00     0.167 HD
HETATM   11  C   UNL     1      19.935 -16.630 -11.344  1.00  0.00    -0.007 C 
HETATM   12  C   UNL     1      21.285 -17.038  -7.953  1.00  0.00     0.110 C 
HETATM   13  C   UNL     1      17.908 -15.734 -12.967  1.00  0.00     0.188 C 
HETATM   14  C   UNL     1      18.524 -16.766  -7.649  1.00  0.00     0.024 C 
HETATM   15  C   UNL     1      20.739 -16.631  -6.749  1.00  0.00     0.107 C 
ENDROOT
BRANCH   6  16
HETATM   16  C   UNL     1      19.059 -14.984  -5.898  1.00  0.00     0.274 C 
BRANCH  16  17
HETATM   17  N   UNL     1      20.059 -13.913  -5.741  1.00  0.00    -0.067 N 
ATOM     18  HN2 UNL     1      20.229 -13.679  -4.763  1.00  0.00     0.277 HD
ATOM     19  HN1 UNL     1      21.002 -14.222  -5.977  1.00  0.00     0.277 HD
BRANCH  17  20
HETATM   20  C   UNL     1      19.628 -12.740  -6.540  1.00  0.00     0.272 C 
BRANCH  20  21
HETATM   21  C   UNL     1      20.648 -12.370  -7.602  1.00  0.00    -0.017 C 
HETATM   22  C   UNL     1      20.846 -11.054  -7.992  1.00  0.00     0.096 C 
HETATM   23  N   UNL     1      21.914 -10.674  -8.729  1.00  0.00    -0.375 N 
HETATM   24  C   UNL     1      22.617 -11.637  -9.375  1.00  0.00     0.087 C 
ATOM     25  HN  UNL     1      22.183  -9.693  -8.798  1.00  0.00     0.164 HD
HETATM   26  C   UNL     1      22.246 -12.976  -9.299  1.00  0.00     0.018 C 
HETATM   27  C   UNL     1      21.300 -13.350  -8.356  1.00  0.00     0.011 C 
ENDBRANCH  20  21
ENDBRANCH  17  20
ENDBRANCH  16  17
ENDBRANCH   6  16
BRANCH  15  28
HETATM   28  O   UNL     1      21.491 -16.513  -5.624  1.00  0.00    -0.357 OA
ATOM     29  HO  UNL     1      22.330 -16.069  -5.666  1.00  0.00     0.217 HD
ENDBRANCH  15  28
BRANCH  12  30
HETATM   30  O   UNL     1      22.620 -17.300  -8.054  1.00  0.00    -0.357 OA
ATOM     31  HO  UNL     1      23.025 -17.962  -7.506  1.00  0.00     0.217 HD
ENDBRANCH  12  30
BRANCH   7  32
HETATM   32  O   UNL     1      16.604 -17.615 -12.404  1.00  0.00    -0.356 OA
ATOM     33  HO  UNL     1      16.607 -18.542 -12.613  1.00  0.00     0.218 HD
ENDBRANCH   7  32
BRANCH  13  34
HETATM   34  O   UNL     1      16.875 -15.319 -13.765  1.00  0.00    -0.229 OA
BRANCH  34  35
HETATM   35  P   UNL     1      16.800 -13.787 -14.331  1.00  0.00     0.405 P 
BRANCH  35  36
HETATM   36  O   UNL     1      17.797 -13.739 -15.452  1.00  0.00    -0.302 OA
ATOM     37  HO  UNL     1      18.490 -13.170 -15.139  1.00  0.00     0.223 HD
ENDBRANCH  35  36
BRANCH  35  38
HETATM   38  O   UNL     1      15.458 -13.502 -14.922  1.00  0.00    -0.302 OA
ATOM     39  HO  UNL     1      15.522 -13.370 -15.860  1.00  0.00     0.223 HD
ENDBRANCH  35  38
BRANCH  35  40
HETATM   40  O   UNL     1      16.614 -13.130 -12.966  1.00  0.00    -0.302 OA
ATOM     41  HO  UNL     1      17.430 -12.644 -12.983  1.00  0.00     0.223 HD
ENDBRANCH  35  40
BRANCH  35  42
HETATM   42  O   UNL     1      17.120 -12.164 -14.427  1.00  0.00    -0.302 OA
ATOM     43  HO  UNL     1      17.278 -11.318 -14.828  1.00  0.00     0.223 HD
ENDBRANCH  35  42
ENDBRANCH  34  35
ENDBRANCH  13  34
TORSDOF 13
ENDMDL
MODEL 2
REMARK VINA RESULT:      -8.1      2.813      3.968
REMARK  13 active torsions:
REMARK  status: ('A' for Active; 'I' for Inactive)
REMARK    1  A    between atoms: O_2  and  C_25 
REMARK    2  A    between atoms: O_2  and  P_26 
REMARK    3  A    between atoms: O_5  and  C_14 
REMARK    4  A    between atoms: C_12  and  C_13 
REMARK    5  A    between atoms: C_13  and  N_38 
REMARK    6  A    between atoms: O_21  and  C_35 
REMARK    7  A    between atoms: C_23  and  C_29 
REMARK    8  A    between atoms: C_24  and  O_33 
REMARK    9  A    between atoms: P_26  and  O_27 
REMARK   10  A    between atoms: P_26  and  O_31 
REMARK   11  A    between atoms: P_26  and  O_36 
REMARK   12  A    between atoms: P_26  and  O_41 
REMARK   13  A    between atoms: C_29  and  N_38 
ROOT
HETATM    1  C   UNL     1      19.744 -20.294  -8.050  1.00  0.00     0.011 C 
HETATM    2  C   UNL     1      19.634 -17.307 -10.026  1.00  0.00     0.102 C 
HETATM    3  C   UNL     1      18.118 -19.188 -10.018  1.00  0.00     0.014 C 
HETATM    4  C   UNL     1      17.647 -20.241  -9.218  1.00  0.00     0.027 C 
HETATM    5  C   UNL     1      18.353 -20.509  -8.031  1.00  0.00    -0.021 C 
HETATM    6  C   UNL     1      18.488 -20.549  -5.629  1.00  0.00     0.004 C 
HETATM    7  C   UNL     1      17.266 -18.433 -10.834  1.00  0.00     0.128 C 
HETATM    8  C   UNL     1      20.294 -19.427  -9.003  1.00  0.00     0.029 C 
HETATM    9  N   UNL     1      18.648 -16.501 -10.469  1.00  0.00    -0.343 N 
ATOM     10  HN  UNL     1      18.773 -15.489 -10.473  1.00  0.00     0.167 HD
HETATM   11  C   UNL     1      19.411 -18.661  -9.779  1.00  0.00    -0.007 C 
HETATM   12  C   UNL     1      20.489 -20.728  -6.942  1.00  0.00     0.110 C 
HETATM   13  C   UNL     1      17.499 -17.042 -10.906  1.00  0.00     0.188 C 
HETATM   14  C   UNL     1      17.705 -20.599  -6.780  1.00  0.00     0.024 C 
HETATM   15  C   UNL     1      19.834 -20.968  -5.746  1.00  0.00     0.107 C 
ENDROOT
BRANCH   6  16
HETATM   16  C   UNL     1      18.043 -19.938  -4.335  1.00  0.00     0.274 C 
BRANCH  16  17
HETATM   17  N   UNL     1      18.849 -18.851  -3.751  1.00  0.00    -0.067 N 
ATOM     18  HN2 UNL     1      18.985 -18.963  -2.746  1.00  0.00     0.277 HD
ATOM     19  HN1 UNL     1      19.829 -18.897  -4.031  1.00  0.00     0.277 HD
BRANCH  17  20
HETATM   20  C   UNL     1      18.219 -17.554  -4.098  1.00  0.00     0.272 C 
BRANCH  20  21
HETATM   21  C   UNL     1      18.966 -16.838  -5.209  1.00  0.00    -0.017 C 
HETATM   22  C   UNL     1      18.369 -15.835  -5.957  1.00  0.00     0.096 C 
HETATM   23  N   UNL     1      19.083 -15.013  -6.760  1.00  0.00    -0.375 N 
HETATM   24  C   UNL     1      20.342 -15.385  -7.093  1.00  0.00     0.087 C 
ATOM     25  HN  UNL     1      18.685 -14.139  -7.104  1.00  0.00     0.164 HD
HETATM   26  C   UNL     1      20.886 -16.584  -6.642  1.00  0.00     0.018 C 
HETATM   27  C   UNL     1      20.220 -17.278  -5.642  1.00  0.00     0.011 C 
ENDBRANCH  20  21
ENDBRANCH  17  20
ENDBRANCH  16  17
ENDBRANCH   6  16
BRANCH  15  28
HETATM   28  O   UNL     1      20.488 -21.439  -4.653  1.00  0.00    -0.357 OA
ATOM     29  HO  UNL     1      20.421 -22.359  -4.427  1.00  0.00     0.217 HD
ENDBRANCH  15  28
BRANCH  12  30
HETATM   30  O   UNL     1      21.834 -20.927  -7.045  1.00  0.00    -0.357 OA
ATOM     31  HO  UNL     1      22.182 -21.789  -7.247  1.00  0.00     0.217 HD
ENDBRANCH  12  30
BRANCH   7  32
HETATM   32  O   UNL     1      16.207 -18.932 -11.469  1.00  0.00    -0.356 OA
ATOM     33  HO  UNL     1      15.489 -19.378 -11.035  1.00  0.00     0.218 HD
ENDBRANCH   7  32
BRANCH  13  34
HETATM   34  O   UNL     1      16.524 -16.268 -11.476  1.00  0.00    -0.229 OA
BRANCH  34  35
HETATM   35  P   UNL     1      16.801 -15.426 -12.850  1.00  0.00     0.405 P 
BRANCH  35  36
HETATM   36  O   UNL     1      15.865 -14.255 -12.782  1.00  0.00    -0.302 OA
ATOM     37  HO  UNL     1      15.025 -14.596 -13.065  1.00  0.00     0.223 HD
ENDBRANCH  35  36
BRANCH  35  38
HETATM   38  O   UNL     1      18.191 -14.880 -12.869  1.00  0.00    -0.302 OA
ATOM     39  HO  UNL     1      18.272 -14.182 -13.508  1.00  0.00     0.223 HD
ENDBRANCH  35  38
BRANCH  35  40
HETATM   40  O   UNL     1      17.004 -16.650 -13.739  1.00  0.00    -0.302 OA
ATOM     41  HO  UNL     1      16.499 -17.246 -13.198  1.00  0.00     0.223 HD
ENDBRANCH  35  40
BRANCH  35  42
HETATM   42  O   UNL     1      16.677 -15.003 -14.447  1.00  0.00    -0.302 OA
ATOM     43  HO  UNL     1      16.895 -14.970 -15.371  1.00  0.00     0.223 HD
ENDBRANCH  35  42
ENDBRANCH  34  35
ENDBRANCH  13  34
TORSDOF 13
ENDMDL
MODEL 3
REMARK VINA RESULT:      -7.6      2.907      4.855
REMARK  13 active torsions:
REMARK  status: ('A' for Active; 'I' for Inactive)
REMARK    1  A    between atoms: O_2  and  C_25 
REMARK    2  A    between atoms: O_2  and  P_26 
REMARK    3  A    between atoms: O_5  and  C_14 
REMARK    4  A    between atoms: C_12  and  C_13 
REMARK    5  A    between atoms: C_13  and  N_38 
REMARK    6  A    between atoms: O_21  and  C_35 
REMARK    7  A    between atoms: C_23  and  C_29 
REMARK    8  A    between atoms: C_24  and  O_33 
REMARK    9  A    between atoms: P_26  and  O_27 
REMARK   10  A    between atoms: P_26  and  O_31 
REMARK   11  A    between atoms: P_26  and  O_36 
REMARK   12  A    between atoms: P_26  and  O_41 
REMARK   13  A    between atoms: C_29  and  N_38 
ROOT
HETATM    1  C   UNL     1      20.544 -18.503  -9.419  1.00  0.00     0.011 C 
HETATM    2  C   UNL     1      19.930 -16.280 -12.161  1.00  0.00     0.102 C 
HETATM    3  C   UNL     1      18.439 -17.875 -11.126  1.00  0.00     0.014 C 
HETATM    4  C   UNL     1      18.198 -18.567  -9.930  1.00  0.00     0.027 C 
HETATM    5  C   UNL     1      19.215 -18.537  -8.956  1.00  0.00    -0.021 C 
HETATM    6  C   UNL     1      20.045 -17.850  -6.806  1.00  0.00     0.004 C 
HETATM    7  C   UNL     1      17.404 -17.313 -11.885  1.00  0.00     0.128 C 
HETATM    8  C   UNL     1      20.811 -18.043 -10.715  1.00  0.00     0.029 C 
HETATM    9  N   UNL     1      18.876 -15.539 -12.562  1.00  0.00    -0.343 N 
ATOM     10  HN  UNL     1      19.019 -14.600 -12.932  1.00  0.00     0.167 HD
HETATM   11  C   UNL     1      19.757 -17.456 -11.432  1.00  0.00    -0.007 C 
HETATM   12  C   UNL     1      21.570 -18.659  -8.473  1.00  0.00     0.110 C 
HETATM   13  C   UNL     1      17.637 -16.050 -12.470  1.00  0.00     0.188 C 
HETATM   14  C   UNL     1      18.960 -18.160  -7.620  1.00  0.00     0.024 C 
HETATM   15  C   UNL     1      21.289 -18.440  -7.136  1.00  0.00     0.107 C 
ENDROOT
BRANCH   6  16
HETATM   16  C   UNL     1      20.014 -16.822  -5.716  1.00  0.00     0.274 C 
BRANCH  16  17
HETATM   17  N   UNL     1      20.100 -17.272  -4.315  1.00  0.00    -0.067 N 
ATOM     18  HN2 UNL     1      20.526 -18.194  -4.227  1.00  0.00     0.277 HD
ATOM     19  HN1 UNL     1      20.790 -16.746  -3.778  1.00  0.00     0.277 HD
BRANCH  17  20
HETATM   20  C   UNL     1      18.746 -17.211  -3.712  1.00  0.00     0.272 C 
BRANCH  20  21
HETATM   21  C   UNL     1      18.286 -18.568  -3.210  1.00  0.00    -0.017 C 
HETATM   22  C   UNL     1      17.826 -18.746  -1.913  1.00  0.00     0.096 C 
HETATM   23  N   UNL     1      17.173 -19.865  -1.528  1.00  0.00    -0.375 N 
HETATM   24  C   UNL     1      17.263 -20.960  -2.321  1.00  0.00     0.087 C 
ATOM     25  HN  UNL     1      16.629 -19.885  -0.665  1.00  0.00     0.164 HD
HETATM   26  C   UNL     1      18.016 -20.946  -3.491  1.00  0.00     0.018 C 
HETATM   27  C   UNL     1      18.473 -19.727  -3.970  1.00  0.00     0.011 C 
ENDBRANCH  20  21
ENDBRANCH  17  20
ENDBRANCH  16  17
ENDBRANCH   6  16
BRANCH  15  28
HETATM   28  O   UNL     1      22.222 -18.624  -6.168  1.00  0.00    -0.357 OA
ATOM     29  HO  UNL     1      22.214 -19.423  -5.655  1.00  0.00     0.217 HD
ENDBRANCH  15  28
BRANCH  12  30
HETATM   30  O   UNL     1      22.821 -19.037  -8.863  1.00  0.00    -0.357 OA
ATOM     31  HO  UNL     1      23.006 -19.942  -9.085  1.00  0.00     0.217 HD
ENDBRANCH  12  30
BRANCH   7  32
HETATM   32  O   UNL     1      16.194 -17.856 -12.010  1.00  0.00    -0.356 OA
ATOM     33  HO  UNL     1      15.635 -18.083 -11.276  1.00  0.00     0.218 HD
ENDBRANCH   7  32
BRANCH  13  34
HETATM   34  O   UNL     1      16.557 -15.380 -12.979  1.00  0.00    -0.229 OA
BRANCH  34  35
HETATM   35  P   UNL     1      16.738 -14.002 -13.838  1.00  0.00     0.405 P 
BRANCH  35  36
HETATM   36  O   UNL     1      17.805 -14.312 -14.847  1.00  0.00    -0.302 OA
ATOM     37  HO  UNL     1      18.482 -14.765 -14.356  1.00  0.00     0.223 HD
ENDBRANCH  35  36
BRANCH  35  38
HETATM   38  O   UNL     1      15.493 -13.680 -14.598  1.00  0.00    -0.302 OA
ATOM     39  HO  UNL     1      14.985 -14.466 -14.764  1.00  0.00     0.223 HD
ENDBRANCH  35  38
BRANCH  35  40
HETATM   40  O   UNL     1      16.555 -13.058 -12.653  1.00  0.00    -0.302 OA
ATOM     41  HO  UNL     1      17.191 -12.415 -12.944  1.00  0.00     0.223 HD
ENDBRANCH  35  40
BRANCH  35  42
HETATM   42  O   UNL     1      17.291 -12.487 -14.219  1.00  0.00    -0.302 OA
ATOM     43  HO  UNL     1      17.826 -11.822 -14.636  1.00  0.00     0.223 HD
ENDBRANCH  35  42
ENDBRANCH  34  35
ENDBRANCH  13  34
TORSDOF 13
ENDMDL
MODEL 4
REMARK VINA RESULT:      -7.5      5.047      7.020
REMARK  13 active torsions:
REMARK  status: ('A' for Active; 'I' for Inactive)
REMARK    1  A    between atoms: O_2  and  C_25 
REMARK    2  A    between atoms: O_2  and  P_26 
REMARK    3  A    between atoms: O_5  and  C_14 
REMARK    4  A    between atoms: C_12  and  C_13 
REMARK    5  A    between atoms: C_13  and  N_38 
REMARK    6  A    between atoms: O_21  and  C_35 
REMARK    7  A    between atoms: C_23  and  C_29 
REMARK    8  A    between atoms: C_24  and  O_33 
REMARK    9  A    between atoms: P_26  and  O_27 
REMARK   10  A    between atoms: P_26  and  O_31 
REMARK   11  A    between atoms: P_26  and  O_36 
REMARK   12  A    between atoms: P_26  and  O_41 
REMARK   13  A    between atoms: C_29  and  N_38 
ROOT
HETATM    1  C   UNL     1      20.159 -20.218  -7.710  1.00  0.00     0.011 C 
HETATM    2  C   UNL     1      20.330 -17.386  -9.899  1.00  0.00     0.102 C 
HETATM    3  C   UNL     1      18.613 -19.077  -9.722  1.00  0.00     0.014 C 
HETATM    4  C   UNL     1      18.049 -20.010  -8.838  1.00  0.00     0.027 C 
HETATM    5  C   UNL     1      18.754 -20.271  -7.647  1.00  0.00    -0.021 C 
HETATM    6  C   UNL     1      18.950 -20.155  -5.253  1.00  0.00     0.004 C 
HETATM    7  C   UNL     1      17.830 -18.290 -10.575  1.00  0.00     0.128 C 
HETATM    8  C   UNL     1      20.776 -19.490  -8.735  1.00  0.00     0.029 C 
HETATM    9  N   UNL     1      19.428 -16.507 -10.381  1.00  0.00    -0.343 N 
ATOM     10  HN  UNL     1      19.666 -15.519 -10.462  1.00  0.00     0.167 HD
HETATM   11  C   UNL     1      19.964 -18.686  -9.548  1.00  0.00    -0.007 C 
HETATM   12  C   UNL     1      20.881 -20.654  -6.587  1.00  0.00     0.110 C 
HETATM   13  C   UNL     1      18.214 -16.944 -10.754  1.00  0.00     0.188 C 
HETATM   14  C   UNL     1      18.135 -20.198  -6.381  1.00  0.00     0.024 C 
HETATM   15  C   UNL     1      20.237 -20.732  -5.365  1.00  0.00     0.107 C 
ENDROOT
BRANCH   6  16
HETATM   16  C   UNL     1      18.613 -19.407  -3.999  1.00  0.00     0.274 C 
BRANCH  16  17
HETATM   17  N   UNL     1      18.763 -20.092  -2.703  1.00  0.00    -0.067 N 
ATOM     18  HN2 UNL     1      19.595 -20.681  -2.667  1.00  0.00     0.277 HD
ATOM     19  HN1 UNL     1      19.011 -19.451  -1.949  1.00  0.00     0.277 HD
BRANCH  17  20
HETATM   20  C   UNL     1      17.519 -20.850  -2.419  1.00  0.00     0.272 C 
BRANCH  20  21
HETATM   21  C   UNL     1      17.795 -22.321  -2.165  1.00  0.00    -0.017 C 
HETATM   22  C   UNL     1      18.276 -23.153  -3.164  1.00  0.00     0.096 C 
HETATM   23  N   UNL     1      18.774 -24.383  -2.900  1.00  0.00    -0.375 N 
HETATM   24  C   UNL     1      18.493 -24.938  -1.696  1.00  0.00     0.087 C 
ATOM     25  HN  UNL     1      19.343 -24.877  -3.587  1.00  0.00     0.164 HD
HETATM   26  C   UNL     1      17.704 -24.276  -0.760  1.00  0.00     0.018 C 
HETATM   27  C   UNL     1      17.411 -22.936  -0.970  1.00  0.00     0.011 C 
ENDBRANCH  20  21
ENDBRANCH  17  20
ENDBRANCH  16  17
ENDBRANCH   6  16
BRANCH  15  28
HETATM   28  O   UNL     1      20.864 -21.195  -4.253  1.00  0.00    -0.357 OA
ATOM     29  HO  UNL     1      20.389 -21.240  -3.432  1.00  0.00     0.217 HD
ENDBRANCH  15  28
BRANCH  12  30
HETATM   30  O   UNL     1      22.192 -21.012  -6.702  1.00  0.00    -0.357 OA
ATOM     31  HO  UNL     1      22.834 -20.707  -6.071  1.00  0.00     0.217 HD
ENDBRANCH  12  30
BRANCH   7  32
HETATM   32  O   UNL     1      16.704 -18.709 -11.151  1.00  0.00    -0.356 OA
ATOM     33  HO  UNL     1      16.390 -18.399 -11.992  1.00  0.00     0.218 HD
ENDBRANCH   7  32
BRANCH  13  34
HETATM   34  O   UNL     1      17.317 -16.105 -11.361  1.00  0.00    -0.229 OA
BRANCH  34  35
HETATM   35  P   UNL     1      17.376 -15.816 -12.969  1.00  0.00     0.405 P 
BRANCH  35  36
HETATM   36  O   UNL     1      18.838 -15.694 -13.286  1.00  0.00    -0.302 OA
ATOM     37  HO  UNL     1      19.285 -15.997 -12.504  1.00  0.00     0.223 HD
ENDBRANCH  35  36
BRANCH  35  38
HETATM   38  O   UNL     1      16.853 -16.983 -13.740  1.00  0.00    -0.302 OA
ATOM     39  HO  UNL     1      15.944 -17.153 -13.521  1.00  0.00     0.223 HD
ENDBRANCH  35  38
BRANCH  35  40
HETATM   40  O   UNL     1      16.141 -14.920 -13.008  1.00  0.00    -0.302 OA
ATOM     41  HO  UNL     1      15.816 -15.169 -12.150  1.00  0.00     0.223 HD
ENDBRANCH  35  40
BRANCH  35  42
HETATM   42  O   UNL     1      17.342 -14.946 -14.378  1.00  0.00    -0.302 OA
ATOM     43  HO  UNL     1      17.604 -14.661 -15.246  1.00  0.00     0.223 HD
ENDBRANCH  35  42
ENDBRANCH  34  35
ENDBRANCH  13  34
TORSDOF 13
ENDMDL
MODEL 5
REMARK VINA RESULT:      -7.4      2.342      3.207
REMARK  13 active torsions:
REMARK  status: ('A' for Active; 'I' for Inactive)
REMARK    1  A    between atoms: O_2  and  C_25 
REMARK    2  A    between atoms: O_2  and  P_26 
REMARK    3  A    between atoms: O_5  and  C_14 
REMARK    4  A    between atoms: C_12  and  C_13 
REMARK    5  A    between atoms: C_13  and  N_38 
REMARK    6  A    between atoms: O_21  and  C_35 
REMARK    7  A    between atoms: C_23  and  C_29 
REMARK    8  A    between atoms: C_24  and  O_33 
REMARK    9  A    between atoms: P_26  and  O_27 
REMARK   10  A    between atoms: P_26  and  O_31 
REMARK   11  A    between atoms: P_26  and  O_36 
REMARK   12  A    between atoms: P_26  and  O_41 
REMARK   13  A    between atoms: C_29  and  N_38 
ROOT
HETATM    1  C   UNL     1      20.467 -19.523  -6.762  1.00  0.00     0.011 C 
HETATM    2  C   UNL     1      20.498 -18.362 -10.152  1.00  0.00     0.102 C 
HETATM    3  C   UNL     1      18.828 -19.677  -9.004  1.00  0.00     0.014 C 
HETATM    4  C   UNL     1      18.316 -19.970  -7.731  1.00  0.00     0.027 C 
HETATM    5  C   UNL     1      19.067 -19.533  -6.623  1.00  0.00    -0.021 C 
HETATM    6  C   UNL     1      19.342 -18.119  -4.697  1.00  0.00     0.004 C 
HETATM    7  C   UNL     1      17.998 -19.488 -10.117  1.00  0.00     0.128 C 
HETATM    8  C   UNL     1      21.032 -19.479  -8.044  1.00  0.00     0.029 C 
HETATM    9  N   UNL     1      19.561 -17.893 -11.001  1.00  0.00    -0.343 N 
ATOM     10  HN  UNL     1      19.774 -17.112 -11.621  1.00  0.00     0.167 HD
HETATM   11  C   UNL     1      20.174 -19.254  -9.130  1.00  0.00    -0.007 C 
HETATM   12  C   UNL     1      21.237 -19.270  -5.616  1.00  0.00     0.110 C 
HETATM   13  C   UNL     1      18.345 -18.463 -11.022  1.00  0.00     0.188 C 
HETATM   14  C   UNL     1      18.490 -18.775  -5.581  1.00  0.00     0.024 C 
HETATM   15  C   UNL     1      20.638 -18.662  -4.526  1.00  0.00     0.107 C 
ENDROOT
BRANCH   6  16
HETATM   16  C   UNL     1      19.032 -16.804  -4.048  1.00  0.00     0.274 C 
BRANCH  16  17
HETATM   17  N   UNL     1      19.621 -15.578  -4.613  1.00  0.00    -0.067 N 
ATOM     18  HN2 UNL     1      19.655 -14.814  -3.938  1.00  0.00     0.277 HD
ATOM     19  HN1 UNL     1      20.625 -15.666  -4.776  1.00  0.00     0.277 HD
BRANCH  17  20
HETATM   20  C   UNL     1      18.875 -15.215  -5.843  1.00  0.00     0.272 C 
BRANCH  20  21
HETATM   21  C   UNL     1      19.789 -14.651  -6.916  1.00  0.00    -0.017 C 
HETATM   22  C   UNL     1      20.013 -13.288  -7.036  1.00  0.00     0.096 C 
HETATM   23  N   UNL     1      21.011 -12.786  -7.799  1.00  0.00    -0.375 N 
HETATM   24  C   UNL     1      21.585 -13.604  -8.715  1.00  0.00     0.087 C 
ATOM     25  HN  UNL     1      21.323 -11.821  -7.687  1.00  0.00     0.164 HD
HETATM   26  C   UNL     1      21.154 -14.916  -8.884  1.00  0.00     0.018 C 
HETATM   27  C   UNL     1      20.300 -15.460  -7.936  1.00  0.00     0.011 C 
ENDBRANCH  20  21
ENDBRANCH  17  20
ENDBRANCH  16  17
ENDBRANCH   6  16
BRANCH  15  28
HETATM   28  O   UNL     1      21.312 -18.438  -3.370  1.00  0.00    -0.357 OA
ATOM     29  HO  UNL     1      21.217 -17.603  -2.926  1.00  0.00     0.217 HD
ENDBRANCH  15  28
BRANCH  12  30
HETATM   30  O   UNL     1      22.552 -19.632  -5.568  1.00  0.00    -0.357 OA
ATOM     31  HO  UNL     1      22.806 -20.543  -5.661  1.00  0.00     0.217 HD
ENDBRANCH  12  30
BRANCH   7  32
HETATM   32  O   UNL     1      16.863 -20.155 -10.320  1.00  0.00    -0.356 OA
ATOM     33  HO  UNL     1      16.022 -19.739 -10.474  1.00  0.00     0.218 HD
ENDBRANCH   7  32
BRANCH  13  34
HETATM   34  O   UNL     1      17.409 -18.097 -11.952  1.00  0.00    -0.229 OA
BRANCH  34  35
HETATM   35  P   UNL     1      17.067 -16.525 -12.242  1.00  0.00     0.405 P 
BRANCH  35  36
HETATM   36  O   UNL     1      16.210 -16.096 -11.088  1.00  0.00    -0.302 OA
ATOM     37  HO  UNL     1      15.377 -15.856 -11.477  1.00  0.00     0.223 HD
ENDBRANCH  35  36
BRANCH  35  38
HETATM   38  O   UNL     1      18.308 -15.694 -12.203  1.00  0.00    -0.302 OA
ATOM     39  HO  UNL     1      18.100 -14.770 -12.285  1.00  0.00     0.223 HD
ENDBRANCH  35  38
BRANCH  35  40
HETATM   40  O   UNL     1      16.920 -16.678 -13.754  1.00  0.00    -0.302 OA
ATOM     41  HO  UNL     1      16.709 -17.604 -13.735  1.00  0.00     0.223 HD
ENDBRANCH  35  40
BRANCH  35  42
HETATM   42  O   UNL     1      16.281 -15.213 -12.878  1.00  0.00    -0.302 OA
ATOM     43  HO  UNL     1      15.693 -14.724 -13.442  1.00  0.00     0.223 HD
ENDBRANCH  35  42
ENDBRANCH  34  35
ENDBRANCH  13  34
TORSDOF 13
ENDMDL
MODEL 6
REMARK VINA RESULT:      -7.1      3.777      6.335
REMARK  13 active torsions:
REMARK  status: ('A' for Active; 'I' for Inactive)
REMARK    1  A    between atoms: O_2  and  C_25 
REMARK    2  A    between atoms: O_2  and  P_26 
REMARK    3  A    between atoms: O_5  and  C_14 
REMARK    4  A    between atoms: C_12  and  C_13 
REMARK    5  A    between atoms: C_13  and  N_38 
REMARK    6  A    between atoms: O_21  and  C_35 
REMARK    7  A    between atoms: C_23  and  C_29 
REMARK    8  A    between atoms: C_24  and  O_33 
REMARK    9  A    between atoms: P_26  and  O_27 
REMARK   10  A    between atoms: P_26  and  O_31 
REMARK   11  A    between atoms: P_26  and  O_36 
REMARK   12  A    between atoms: P_26  and  O_41 
REMARK   13  A    between atoms: C_29  and  N_38 
ROOT
HETATM    1  C   UNL     1      19.033 -17.317  -4.844  1.00  0.00     0.011 C 
HETATM    2  C   UNL     1      18.724 -16.188  -8.230  1.00  0.00     0.102 C 
HETATM    3  C   UNL     1      20.718 -16.508  -6.905  1.00  0.00     0.014 C 
HETATM    4  C   UNL     1      21.230 -17.220  -5.809  1.00  0.00     0.027 C 
HETATM    5  C   UNL     1      20.303 -17.905  -5.001  1.00  0.00    -0.021 C 
HETATM    6  C   UNL     1      19.358 -19.948  -4.155  1.00  0.00     0.004 C 
HETATM    7  C   UNL     1      21.460 -16.306  -8.076  1.00  0.00     0.128 C 
HETATM    8  C   UNL     1      18.576 -16.400  -5.800  1.00  0.00     0.029 C 
HETATM    9  N   UNL     1      19.432 -16.382  -9.362  1.00  0.00    -0.343 N 
ATOM     10  HN  UNL     1      18.953 -16.513 -10.252  1.00  0.00     0.167 HD
HETATM   11  C   UNL     1      19.327 -16.249  -6.975  1.00  0.00    -0.007 C 
HETATM   12  C   UNL     1      18.162 -17.883  -3.899  1.00  0.00     0.110 C 
HETATM   13  C   UNL     1      20.774 -16.401  -9.305  1.00  0.00     0.188 C 
HETATM   14  C   UNL     1      20.454 -19.271  -4.682  1.00  0.00     0.024 C 
HETATM   15  C   UNL     1      18.393 -19.176  -3.464  1.00  0.00     0.107 C 
ENDROOT
BRANCH   6  16
HETATM   16  C   UNL     1      19.060 -21.395  -4.408  1.00  0.00     0.274 C 
BRANCH  16  17
HETATM   17  N   UNL     1      18.821 -21.837  -5.793  1.00  0.00    -0.067 N 
ATOM     18  HN2 UNL     1      19.678 -21.867  -6.347  1.00  0.00     0.277 HD
ATOM     19  HN1 UNL     1      18.582 -22.827  -5.851  1.00  0.00     0.277 HD
BRANCH  17  20
HETATM   20  C   UNL     1      17.784 -20.966  -6.399  1.00  0.00     0.272 C 
BRANCH  20  21
HETATM   21  C   UNL     1      18.168 -20.513  -7.796  1.00  0.00    -0.017 C 
HETATM   22  C   UNL     1      19.422 -19.988  -8.071  1.00  0.00     0.096 C 
HETATM   23  N   UNL     1      19.873 -19.827  -9.336  1.00  0.00    -0.375 N 
HETATM   24  C   UNL     1      18.969 -19.865 -10.345  1.00  0.00     0.087 C 
ATOM     25  HN  UNL     1      20.865 -19.681  -9.524  1.00  0.00     0.164 HD
HETATM   26  C   UNL     1      17.613 -20.046 -10.094  1.00  0.00     0.018 C 
HETATM   27  C   UNL     1      17.221 -20.439  -8.822  1.00  0.00     0.011 C 
ENDBRANCH  20  21
ENDBRANCH  17  20
ENDBRANCH  16  17
ENDBRANCH   6  16
BRANCH  15  28
HETATM   28  O   UNL     1      17.620 -19.762  -2.515  1.00  0.00    -0.357 OA
ATOM     29  HO  UNL     1      17.574 -19.380  -1.646  1.00  0.00     0.217 HD
ENDBRANCH  15  28
BRANCH  12  30
HETATM   30  O   UNL     1      17.113 -17.164  -3.405  1.00  0.00    -0.357 OA
ATOM     31  HO  UNL     1      16.223 -17.484  -3.494  1.00  0.00     0.217 HD
ENDBRANCH  12  30
BRANCH   7  32
HETATM   32  O   UNL     1      22.779 -16.119  -8.098  1.00  0.00    -0.356 OA
ATOM     33  HO  UNL     1      23.205 -15.308  -7.845  1.00  0.00     0.218 HD
ENDBRANCH   7  32
BRANCH  13  34
HETATM   34  O   UNL     1      21.529 -16.472 -10.446  1.00  0.00    -0.229 OA
BRANCH  34  35
HETATM   35  P   UNL     1      21.080 -15.695 -11.813  1.00  0.00     0.405 P 
BRANCH  35  36
HETATM   36  O   UNL     1      21.084 -14.240 -11.449  1.00  0.00    -0.302 OA
ATOM     37  HO  UNL     1      20.901 -14.219 -10.517  1.00  0.00     0.223 HD
ENDBRANCH  35  36
BRANCH  35  38
HETATM   38  O   UNL     1      22.097 -15.884 -12.891  1.00  0.00    -0.302 OA
ATOM     39  HO  UNL     1      21.942 -15.283 -13.611  1.00  0.00     0.223 HD
ENDBRANCH  35  38
BRANCH  35  40
HETATM   40  O   UNL     1      20.057 -16.740 -12.252  1.00  0.00    -0.302 OA
ATOM     41  HO  UNL     1      19.623 -16.184 -12.889  1.00  0.00     0.223 HD
ENDBRANCH  35  40
BRANCH  35  42
HETATM   42  O   UNL     1      20.068 -15.060 -12.960  1.00  0.00    -0.302 OA
ATOM     43  HO  UNL     1      19.383 -15.038 -13.618  1.00  0.00     0.223 HD
ENDBRANCH  35  42
ENDBRANCH  34  35
ENDBRANCH  13  34
TORSDOF 13
ENDMDL
MODEL 7
REMARK VINA RESULT:      -7.0      3.722      5.124
REMARK  13 active torsions:
REMARK  status: ('A' for Active; 'I' for Inactive)
REMARK    1  A    between atoms: O_2  and  C_25 
REMARK    2  A    between atoms: O_2  and  P_26 
REMARK    3  A    between atoms: O_5  and  C_14 
REMARK    4  A    between atoms: C_12  and  C_13 
REMARK    5  A    between atoms: C_13  and  N_38 
REMARK    6  A    between atoms: O_21  and  C_35 
REMARK    7  A    between atoms: C_23  and  C_29 
REMARK    8  A    between atoms: C_24  and  O_33 
REMARK    9  A    between atoms: P_26  and  O_27 
REMARK   10  A    between atoms: P_26  and  O_31 
REMARK   11  A    between atoms: P_26  and  O_36 
REMARK   12  A    between atoms: P_26  and  O_41 
REMARK   13  A    between atoms: C_29  and  N_38 
ROOT
HETATM    1  C   UNL     1      18.953 -20.795  -7.246  1.00  0.00     0.011 C 
HETATM    2  C   UNL     1      18.345 -19.902 -10.663  1.00  0.00     0.102 C 
HETATM    3  C   UNL     1      18.330 -18.502  -8.694  1.00  0.00     0.014 C 
HETATM    4  C   UNL     1      18.840 -18.400  -7.390  1.00  0.00     0.027 C 
HETATM    5  C   UNL     1      19.465 -19.543  -6.857  1.00  0.00    -0.021 C 
HETATM    6  C   UNL     1      21.429 -20.694  -6.079  1.00  0.00     0.004 C 
HETATM    7  C   UNL     1      18.245 -17.397  -9.550  1.00  0.00     0.128 C 
HETATM    8  C   UNL     1      18.217 -20.898  -8.434  1.00  0.00     0.029 C 
HETATM    9  N   UNL     1      18.648 -18.836 -11.431  1.00  0.00    -0.343 N 
ATOM     10  HN  UNL     1      18.939 -18.966 -12.400  1.00  0.00     0.167 HD
HETATM   11  C   UNL     1      18.183 -19.782  -9.283  1.00  0.00    -0.007 C 
HETATM   12  C   UNL     1      19.438 -21.935  -6.586  1.00  0.00     0.110 C 
HETATM   13  C   UNL     1      18.563 -17.601 -10.910  1.00  0.00     0.188 C 
HETATM   14  C   UNL     1      20.758 -19.493  -6.292  1.00  0.00     0.024 C 
HETATM   15  C   UNL     1      20.636 -21.853  -5.898  1.00  0.00     0.107 C 
ENDROOT
BRANCH   6  16
HETATM   16  C   UNL     1      22.914 -20.860  -6.186  1.00  0.00     0.274 C 
BRANCH  16  17
HETATM   17  N   UNL     1      23.752 -19.657  -6.341  1.00  0.00    -0.067 N 
ATOM     18  HN2 UNL     1      23.230 -18.795  -6.186  1.00  0.00     0.277 HD
ATOM     19  HN1 UNL     1      24.426 -19.551  -5.583  1.00  0.00     0.277 HD
BRANCH  17  20
HETATM   20  C   UNL     1      24.400 -19.697  -7.675  1.00  0.00     0.272 C 
BRANCH  20  21
HETATM   21  C   UNL     1      23.570 -18.989  -8.731  1.00  0.00    -0.017 C 
HETATM   22  C   UNL     1      23.475 -17.606  -8.773  1.00  0.00     0.096 C 
HETATM   23  N   UNL     1      22.969 -16.950  -9.842  1.00  0.00    -0.375 N 
HETATM   24  C   UNL     1      22.242 -17.661 -10.738  1.00  0.00     0.087 C 
ATOM     25  HN  UNL     1      23.129 -15.951  -9.969  1.00  0.00     0.164 HD
HETATM   26  C   UNL     1      22.005 -19.020 -10.562  1.00  0.00     0.018 C 
HETATM   27  C   UNL     1      22.728 -19.699  -9.592  1.00  0.00     0.011 C 
ENDBRANCH  20  21
ENDBRANCH  17  20
ENDBRANCH  16  17
ENDBRANCH   6  16
BRANCH  15  28
HETATM   28  O   UNL     1      21.133 -22.903  -5.196  1.00  0.00    -0.357 OA
ATOM     29  HO  UNL     1      20.806 -23.778  -5.367  1.00  0.00     0.217 HD
ENDBRANCH  15  28
BRANCH  12  30
HETATM   30  O   UNL     1      18.733 -23.102  -6.608  1.00  0.00    -0.357 OA
ATOM     31  HO  UNL     1      19.135 -23.905  -6.917  1.00  0.00     0.217 HD
ENDBRANCH  12  30
BRANCH   7  32
HETATM   32  O   UNL     1      17.971 -16.159  -9.143  1.00  0.00    -0.356 OA
ATOM     33  HO  UNL     1      18.620 -15.556  -8.799  1.00  0.00     0.218 HD
ENDBRANCH   7  32
BRANCH  13  34
HETATM   34  O   UNL     1      18.744 -16.490 -11.691  1.00  0.00    -0.229 OA
BRANCH  34  35
HETATM   35  P   UNL     1      17.620 -16.027 -12.783  1.00  0.00     0.405 P 
BRANCH  35  36
HETATM   36  O   UNL     1      18.397 -15.354 -13.876  1.00  0.00    -0.302 OA
ATOM     37  HO  UNL     1      17.739 -15.008 -14.468  1.00  0.00     0.223 HD
ENDBRANCH  35  36
BRANCH  35  38
HETATM   38  O   UNL     1      16.944 -17.214 -13.389  1.00  0.00    -0.302 OA
ATOM     39  HO  UNL     1      16.319 -17.593 -12.782  1.00  0.00     0.223 HD
ENDBRANCH  35  38
BRANCH  35  40
HETATM   40  O   UNL     1      16.561 -15.637 -11.756  1.00  0.00    -0.302 OA
ATOM     41  HO  UNL     1      17.170 -15.272 -11.125  1.00  0.00     0.223 HD
ENDBRANCH  35  40
BRANCH  35  42
HETATM   42  O   UNL     1      16.457 -15.081 -13.488  1.00  0.00    -0.302 OA
ATOM     43  HO  UNL     1      15.685 -14.530 -13.550  1.00  0.00     0.223 HD
ENDBRANCH  35  42
ENDBRANCH  34  35
ENDBRANCH  13  34
TORSDOF 13
ENDMDL
MODEL 8
REMARK VINA RESULT:      -6.9      4.393      5.880
REMARK  13 active torsions:
REMARK  status: ('A' for Active; 'I' for Inactive)
REMARK    1  A    between atoms: O_2  and  C_25 
REMARK    2  A    between atoms: O_2  and  P_26 
REMARK    3  A    between atoms: O_5  and  C_14 
REMARK    4  A    between atoms: C_12  and  C_13 
REMARK    5  A    between atoms: C_13  and  N_38 
REMARK    6  A    between atoms: O_21  and  C_35 
REMARK    7  A    between atoms: C_23  and  C_29 
REMARK    8  A    between atoms: C_24  and  O_33 
REMARK    9  A    between atoms: P_26  and  O_27 
REMARK   10  A    between atoms: P_26  and  O_31 
REMARK   11  A    between atoms: P_26  and  O_36 
REMARK   12  A    between atoms: P_26  and  O_41 
REMARK   13  A    between atoms: C_29  and  N_38 
ROOT
HETATM    1  C   UNL     1      19.521 -21.498  -5.081  1.00  0.00     0.011 C 
HETATM    2  C   UNL     1      20.718 -19.177  -7.535  1.00  0.00     0.102 C 
HETATM    3  C   UNL     1      18.710 -20.521  -7.556  1.00  0.00     0.014 C 
HETATM    4  C   UNL     1      17.795 -21.177  -6.719  1.00  0.00     0.027 C 
HETATM    5  C   UNL     1      18.154 -21.321  -5.366  1.00  0.00    -0.021 C 
HETATM    6  C   UNL     1      17.834 -20.800  -3.040  1.00  0.00     0.004 C 
HETATM    7  C   UNL     1      18.303 -19.792  -8.681  1.00  0.00     0.128 C 
HETATM    8  C   UNL     1      20.479 -21.074  -6.011  1.00  0.00     0.029 C 
HETATM    9  N   UNL     1      20.134 -18.272  -8.346  1.00  0.00    -0.343 N 
ATOM     10  HN  UNL     1      20.570 -17.365  -8.504  1.00  0.00     0.167 HD
HETATM   11  C   UNL     1      20.038 -20.317  -7.107  1.00  0.00    -0.007 C 
HETATM   12  C   UNL     1      19.879 -21.827  -3.764  1.00  0.00     0.110 C 
HETATM   13  C   UNL     1      18.971 -18.578  -8.946  1.00  0.00     0.188 C 
HETATM   14  C   UNL     1      17.297 -20.922  -4.318  1.00  0.00     0.024 C 
HETATM   15  C   UNL     1      18.978 -21.579  -2.743  1.00  0.00     0.107 C 
ENDROOT
BRANCH   6  16
HETATM   16  C   UNL     1      17.380 -19.791  -2.029  1.00  0.00     0.274 C 
BRANCH  16  17
HETATM   17  N   UNL     1      17.607 -18.361  -2.301  1.00  0.00    -0.067 N 
ATOM     18  HN2 UNL     1      16.935 -17.979  -2.967  1.00  0.00     0.277 HD
ATOM     19  HN1 UNL     1      17.369 -17.769  -1.506  1.00  0.00     0.277 HD
BRANCH  17  20
HETATM   20  C   UNL     1      19.012 -18.180  -2.745  1.00  0.00     0.272 C 
BRANCH  20  21
HETATM   21  C   UNL     1      19.133 -17.128  -3.833  1.00  0.00    -0.017 C 
HETATM   22  C   UNL     1      19.948 -16.017  -3.683  1.00  0.00     0.096 C 
HETATM   23  N   UNL     1      20.275 -15.216  -4.723  1.00  0.00    -0.375 N 
HETATM   24  C   UNL     1      19.531 -15.306  -5.852  1.00  0.00     0.087 C 
ATOM     25  HN  UNL     1      21.057 -14.565  -4.658  1.00  0.00     0.164 HD
HETATM   26  C   UNL     1      18.453 -16.180  -5.941  1.00  0.00     0.018 C 
HETATM   27  C   UNL     1      18.296 -17.142  -4.953  1.00  0.00     0.011 C 
ENDBRANCH  20  21
ENDBRANCH  17  20
ENDBRANCH  16  17
ENDBRANCH   6  16
BRANCH  15  28
HETATM   28  O   UNL     1      19.240 -21.921  -1.456  1.00  0.00    -0.357 OA
ATOM     29  HO  UNL     1      19.122 -21.279  -0.766  1.00  0.00     0.217 HD
ENDBRANCH  15  28
BRANCH  12  30
HETATM   30  O   UNL     1      21.088 -22.398  -3.494  1.00  0.00    -0.357 OA
ATOM     31  HO  UNL     1      21.531 -22.226  -2.672  1.00  0.00     0.217 HD
ENDBRANCH  12  30
BRANCH   7  32
HETATM   32  O   UNL     1      17.273 -20.131  -9.455  1.00  0.00    -0.356 OA
ATOM     33  HO  UNL     1      17.316 -20.793 -10.135  1.00  0.00     0.218 HD
ENDBRANCH   7  32
BRANCH  13  34
HETATM   34  O   UNL     1      18.410 -17.737  -9.871  1.00  0.00    -0.229 OA
BRANCH  34  35
HETATM   35  P   UNL     1      19.269 -17.179 -11.145  1.00  0.00     0.405 P 
BRANCH  35  36
HETATM   36  O   UNL     1      19.884 -15.897 -10.665  1.00  0.00    -0.302 OA
ATOM     37  HO  UNL     1      19.725 -15.884  -9.728  1.00  0.00     0.223 HD
ENDBRANCH  35  36
BRANCH  35  38
HETATM   38  O   UNL     1      20.390 -18.108 -11.480  1.00  0.00    -0.302 OA
ATOM     39  HO  UNL     1      20.193 -18.606 -12.264  1.00  0.00     0.223 HD
ENDBRANCH  35  38
BRANCH  35  40
HETATM   40  O   UNL     1      18.263 -17.611 -12.207  1.00  0.00    -0.302 OA
ATOM     41  HO  UNL     1      18.242 -16.778 -12.663  1.00  0.00     0.223 HD
ENDBRANCH  35  40
BRANCH  35  42
HETATM   42  O   UNL     1      19.571 -16.396 -12.573  1.00  0.00    -0.302 OA
ATOM     43  HO  UNL     1      20.076 -15.987 -13.266  1.00  0.00     0.223 HD
ENDBRANCH  35  42
ENDBRANCH  34  35
ENDBRANCH  13  34
TORSDOF 13
ENDMDL
MODEL 9
REMARK VINA RESULT:      -6.9      2.841      4.496
REMARK  13 active torsions:
REMARK  status: ('A' for Active; 'I' for Inactive)
REMARK    1  A    between atoms: O_2  and  C_25 
REMARK    2  A    between atoms: O_2  and  P_26 
REMARK    3  A    between atoms: O_5  and  C_14 
REMARK    4  A    between atoms: C_12  and  C_13 
REMARK    5  A    between atoms: C_13  and  N_38 
REMARK    6  A    between atoms: O_21  and  C_35 
REMARK    7  A    between atoms: C_23  and  C_29 
REMARK    8  A    between atoms: C_24  and  O_33 
REMARK    9  A    between atoms: P_26  and  O_27 
REMARK   10  A    between atoms: P_26  and  O_31 
REMARK   11  A    between atoms: P_26  and  O_36 
REMARK   12  A    between atoms: P_26  and  O_41 
REMARK   13  A    between atoms: C_29  and  N_38 
ROOT
HETATM    1  C   UNL     1      22.079 -18.154  -6.780  1.00  0.00     0.011 C 
HETATM    2  C   UNL     1      20.103 -16.139  -8.988  1.00  0.00     0.102 C 
HETATM    3  C   UNL     1      21.049 -18.331  -9.358  1.00  0.00     0.014 C 
HETATM    4  C   UNL     1      21.495 -19.483  -8.693  1.00  0.00     0.027 C 
HETATM    5  C   UNL     1      21.659 -19.394  -7.298  1.00  0.00    -0.021 C 
HETATM    6  C   UNL     1      21.011 -20.002  -5.063  1.00  0.00     0.004 C 
HETATM    7  C   UNL     1      20.294 -18.395 -10.536  1.00  0.00     0.128 C 
HETATM    8  C   UNL     1      21.872 -16.989  -7.530  1.00  0.00     0.029 C 
HETATM    9  N   UNL     1      19.132 -16.394  -9.888  1.00  0.00    -0.343 N 
ATOM     10  HN  UNL     1      18.328 -15.773  -9.967  1.00  0.00     0.167 HD
HETATM   11  C   UNL     1      21.082 -17.085  -8.685  1.00  0.00    -0.007 C 
HETATM   12  C   UNL     1      22.426 -18.096  -5.421  1.00  0.00     0.110 C 
HETATM   13  C   UNL     1      19.235 -17.474 -10.681  1.00  0.00     0.188 C 
HETATM   14  C   UNL     1      21.073 -20.326  -6.415  1.00  0.00     0.024 C 
HETATM   15  C   UNL     1      21.980 -19.094  -4.572  1.00  0.00     0.107 C 
ENDROOT
BRANCH   6  16
HETATM   16  C   UNL     1      19.904 -20.423  -4.146  1.00  0.00     0.274 C 
BRANCH  16  17
HETATM   17  N   UNL     1      19.438 -19.477  -3.115  1.00  0.00    -0.067 N 
ATOM     18  HN2 UNL     1      19.163 -19.946  -2.252  1.00  0.00     0.277 HD
ATOM     19  HN1 UNL     1      20.197 -18.912  -2.733  1.00  0.00     0.277 HD
BRANCH  17  20
HETATM   20  C   UNL     1      18.346 -18.651  -3.687  1.00  0.00     0.272 C 
BRANCH  20  21
HETATM   21  C   UNL     1      18.851 -17.309  -4.186  1.00  0.00    -0.017 C 
HETATM   22  C   UNL     1      19.767 -16.562  -3.462  1.00  0.00     0.096 C 
HETATM   23  N   UNL     1      20.423 -15.508  -3.999  1.00  0.00    -0.375 N 
HETATM   24  C   UNL     1      19.937 -14.973  -5.146  1.00  0.00     0.087 C 
ATOM     25  HN  UNL     1      21.259 -15.128  -3.554  1.00  0.00     0.164 HD
HETATM   26  C   UNL     1      18.789 -15.476  -5.748  1.00  0.00     0.018 C 
HETATM   27  C   UNL     1      18.284 -16.690  -5.304  1.00  0.00     0.011 C 
ENDBRANCH  20  21
ENDBRANCH  17  20
ENDBRANCH  16  17
ENDBRANCH   6  16
BRANCH  15  28
HETATM   28  O   UNL     1      22.323 -19.125  -3.259  1.00  0.00    -0.357 OA
ATOM     29  HO  UNL     1      21.648 -19.046  -2.596  1.00  0.00     0.217 HD
ENDBRANCH  15  28
BRANCH  12  30
HETATM   30  O   UNL     1      23.203 -17.081  -4.946  1.00  0.00    -0.357 OA
ATOM     31  HO  UNL     1      23.859 -17.246  -4.278  1.00  0.00     0.217 HD
ENDBRANCH  12  30
BRANCH   7  32
HETATM   32  O   UNL     1      20.460 -19.323 -11.478  1.00  0.00    -0.356 OA
ATOM     33  HO  UNL     1      20.560 -20.251 -11.297  1.00  0.00     0.218 HD
ENDBRANCH   7  32
BRANCH  13  34
HETATM   34  O   UNL     1      18.334 -17.699 -11.689  1.00  0.00    -0.229 OA
BRANCH  34  35
HETATM   35  P   UNL     1      17.905 -16.511 -12.727  1.00  0.00     0.405 P 
BRANCH  35  36
HETATM   36  O   UNL     1      16.880 -17.136 -13.627  1.00  0.00    -0.302 OA
ATOM     37  HO  UNL     1      16.046 -16.801 -13.320  1.00  0.00     0.223 HD
ENDBRANCH  35  36
BRANCH  35  38
HETATM   38  O   UNL     1      17.233 -15.390 -12.005  1.00  0.00    -0.302 OA
ATOM     39  HO  UNL     1      16.454 -15.696 -11.554  1.00  0.00     0.223 HD
ENDBRANCH  35  38
BRANCH  35  40
HETATM   40  O   UNL     1      19.303 -15.915 -12.862  1.00  0.00    -0.302 OA
ATOM     41  HO  UNL     1      19.668 -16.356 -12.104  1.00  0.00     0.223 HD
ENDBRANCH  35  40
BRANCH  35  42
HETATM   42  O   UNL     1      17.983 -15.528 -14.058  1.00  0.00    -0.302 OA
ATOM     43  HO  UNL     1      17.690 -14.911 -14.718  1.00  0.00     0.223 HD
ENDBRANCH  35  42
ENDBRANCH  34  35
ENDBRANCH  13  34
TORSDOF 13
ENDMDL
