REMARK  8 active torsions:
REMARK  status: ('A' for Active; 'I' for Inactive)
REMARK    1  A    between atoms: O_3  and  C_11 
REMARK    2  A    between atoms: C_6  and  N_33 
REMARK    3  A    between atoms: C_8  and  O_9 
REMARK    4  A    between atoms: C_8  and  C_22 
REMARK    5  A    between atoms: C_8  and  N_33 
REMARK    6  A    between atoms: C_8  and  O_35 
REMARK    7  A    between atoms: C_20  and  O_31 
REMARK    8  A    between atoms: C_21  and  N_33 
ROOT
HETATM    1  N   UNL     1      17.672 -18.681 -10.459  1.00  0.00    -0.369 N 
ATOM      2  HN  UNL     1      16.724 -18.327 -10.330  1.00  0.00     0.161 HD
HETATM    3  C   UNL     1      18.386 -21.297  -4.508  1.00  0.00     0.134 C 
HETATM    4  C   UNL     1      16.850 -20.347  -7.728  1.00  0.00     0.186 C 
HETATM    5  N   UNL     1      18.066 -21.757  -3.283  1.00  0.00    -0.349 N 
ATOM      6  HN  UNL     1      18.410 -22.654  -2.940  1.00  0.00     0.167 HD
HETATM    7  C   UNL     1      17.545 -20.556  -6.415  1.00  0.00     0.047 C 
HETATM    8  N   UNL     1      19.152 -20.779  -7.922  1.00  0.00    -0.349 N 
HETATM    9  C   UNL     1      20.260 -20.075  -8.560  1.00  0.00     0.162 C 
HETATM   10  C   UNL     1      18.630 -18.242 -11.485  1.00  0.00     0.195 C 
HETATM   11  C   UNL     1      17.927 -20.710  -8.754  1.00  0.00     0.169 C 
HETATM   12  N   UNL     1      17.130 -19.325  -4.237  1.00  0.00    -0.361 N 
ATOM     13  HN  UNL     1      17.054 -18.352  -4.534  1.00  0.00     0.165 HD
HETATM   14  N   UNL     1      19.250 -21.675  -5.511  1.00  0.00    -0.326 N 
ATOM     15  HN  UNL     1      20.036 -22.321  -5.433  1.00  0.00     0.169 HD
HETATM   16  C   UNL     1      16.851 -19.742  -2.993  1.00  0.00     0.105 C 
HETATM   17  C   UNL     1      18.275 -19.642  -9.715  1.00  0.00     0.037 C 
HETATM   18  C   UNL     1      17.519 -20.316  -5.049  1.00  0.00     0.089 C 
HETATM   19  C   UNL     1      19.631 -19.448  -9.737  1.00  0.00    -0.034 C 
HETATM   20  C   UNL     1      18.844 -21.015  -6.623  1.00  0.00     0.117 C 
HETATM   21  C   UNL     1      17.277 -20.981  -2.542  1.00  0.00     0.106 C 
HETATM   22  C   UNL     1      19.984 -18.556 -10.855  1.00  0.00     0.085 C 
ENDROOT
BRANCH  10  23
HETATM   23  N   UNL     1      18.393 -16.809 -11.709  1.00  0.00    -0.278 N 
BRANCH  23  24
HETATM   24  C   UNL     1      19.199 -15.912 -11.172  1.00  0.00     0.357 C 
HETATM   25  O   UNL     1      20.147 -15.282 -11.181  1.00  0.00    -0.283 OA
ENDBRANCH  23  24
BRANCH  23  26
HETATM   26  C   UNL     1      17.138 -16.551 -12.363  1.00  0.00     0.283 C 
BRANCH  26  27
HETATM   27  O   UNL     1      16.897 -17.519 -13.313  1.00  0.00    -0.344 OA
ATOM     28  HO  UNL     1      16.983 -18.374 -12.908  1.00  0.00     0.215 HD
ENDBRANCH  26  27
BRANCH  26  29
HETATM   29  C   UNL     1      17.001 -15.187 -13.009  1.00  0.00     0.059 C 
HETATM   30  C   UNL     1      15.869 -14.433 -12.762  1.00  0.00     0.017 C 
HETATM   31  C   UNL     1      15.402 -13.577 -13.752  1.00  0.00     0.001 C 
HETATM   32  C   UNL     1      16.098 -13.449 -14.938  1.00  0.00     0.003 C 
HETATM   33  C   UNL     1      17.360 -14.007 -15.057  1.00  0.00     0.037 C 
HETATM   34  C   UNL     1      17.880 -14.700 -13.982  1.00  0.00     0.079 C 
BRANCH  34  35
HETATM   35  O   UNL     1      19.218 -14.798 -13.822  1.00  0.00    -0.360 OA
ATOM     36  HO  UNL     1      19.576 -15.275 -13.082  1.00  0.00     0.217 HD
ENDBRANCH  34  35
ENDBRANCH  26  29
BRANCH  26  37
HETATM   37  O   UNL     1      16.160 -16.717 -11.427  1.00  0.00    -0.344 OA
ATOM     38  HO  UNL     1      16.326 -16.049 -10.772  1.00  0.00     0.215 HD
ENDBRANCH  26  37
ENDBRANCH  23  26
ENDBRANCH  10  23
BRANCH   4  39
HETATM   39  O   UNL     1      15.832 -21.341  -7.809  1.00  0.00    -0.388 OA
ATOM     40  HO  UNL     1      15.392 -21.209  -8.640  1.00  0.00     0.210 HD
ENDBRANCH   4  39
TORSDOF 8
