REMARK  4 active torsions:
REMARK  status: ('A' for Active; 'I' for Inactive)
REMARK    1  A    between atoms: O_4  and  C_15 
REMARK    2  A    between atoms: C_6  and  N_28 
REMARK    3  A    between atoms: N_9  and  C_18 
REMARK    4  A    between atoms: C_22  and  C_30 
ROOT
HETATM    1  C   UNL     1      34.773  -7.275  15.444  1.00  0.00     0.031 C 
HETATM    2  C   UNL     1      31.259  -5.406   9.898  1.00  0.00    -0.001 C 
HETATM    3  C   UNL     1      35.948  -5.877  13.809  1.00  0.00     0.029 C 
HETATM    4  C   UNL     1      33.607  -7.364  14.745  1.00  0.00     0.033 C 
HETATM    5  C   UNL     1      35.321  -6.053  12.588  1.00  0.00     0.015 C 
HETATM    6  C   UNL     1      33.048  -6.607  11.179  1.00  0.00     0.130 C 
HETATM    7  C   UNL     1      32.819  -6.507   8.307  1.00  0.00     0.009 C 
HETATM    8  C   UNL     1      35.863  -6.500  15.042  1.00  0.00     0.025 C 
HETATM    9  C   UNL     1      32.658  -6.026   9.764  1.00  0.00     0.035 C 
HETATM   10  C   UNL     1      31.912  -5.969  11.990  1.00  0.00     0.035 C 
HETATM   11  C   UNL     1      30.878  -4.330   8.893  1.00  0.00     0.010 C 
HETATM   12  C   UNL     1      31.236  -4.830  11.317  1.00  0.00     0.061 C 
HETATM   13  C   UNL     1      33.218  -6.763  13.555  1.00  0.00     0.049 C 
HETATM   14  N   UNL     1      32.009  -6.246  13.275  1.00  0.00    -0.315 N 
HETATM   15  C   UNL     1      34.036  -6.569  12.424  1.00  0.00     0.009 C 
HETATM   16  C   UNL     1      31.535  -4.457   7.529  1.00  0.00    -0.014 C 
HETATM   17  C   UNL     1      31.849  -5.931   7.251  1.00  0.00     0.005 C 
ENDROOT
BRANCH  14  18
HETATM   18  C   UNL     1      31.027  -6.069  14.173  1.00  0.00     0.039 C 
HETATM   19  C   UNL     1      31.287  -5.724  15.513  1.00  0.00     0.030 C 
HETATM   20  C   UNL     1      30.451  -5.102  16.419  1.00  0.00     0.002 C 
HETATM   21  C   UNL     1      29.164  -4.627  16.381  1.00  0.00     0.000 C 
HETATM   22  C   UNL     1      28.307  -4.698  15.288  1.00  0.00     0.000 C 
HETATM   23  C   UNL     1      28.599  -5.414  14.141  1.00  0.00     0.002 C 
HETATM   24  C   UNL     1      29.689  -6.156  13.778  1.00  0.00     0.030 C 
ENDBRANCH  14  18
BRANCH   6  25
HETATM   25  O   UNL     1      32.873  -8.048  10.987  1.00  0.00    -0.378 OA
ATOM     26  HO  UNL     1      33.108  -8.398  11.839  1.00  0.00     0.211 HD
ENDBRANCH   6  25
BRANCH   8  27
HETATM   27  N   UNL     1      36.918  -6.442  15.898  1.00  0.00    -0.399 N 
ATOM     28  HN2 UNL     1      36.855  -6.901  16.807  1.00  0.00     0.156 HD
ATOM     29  HN1 UNL     1      37.714  -5.876  15.604  1.00  0.00     0.156 HD
ENDBRANCH   8  27
BRANCH  16  30
HETATM   30  C   UNL     1      30.635  -3.798   6.491  1.00  0.00     0.000 C 
HETATM   31  C   UNL     1      31.420  -2.906   5.560  1.00  0.00     0.005 C 
ENDBRANCH  16  30
TORSDOF 4
