REMARK  4 active torsions:
REMARK  status: ('A' for Active; 'I' for Inactive)
REMARK    1  A    between atoms: C_6  and  C_19 
REMARK    2  A    between atoms: O_7  and  C_16 
REMARK    3  A    between atoms: O_17  and  C_20 
REMARK    4  A    between atoms: O_26  and  C_29 
ROOT
HETATM    1  C   UNL     1      31.317  -6.944  10.626  1.00  0.00     0.030 C 
HETATM    2  C   UNL     1      31.486  -5.822   6.806  1.00  0.00     0.020 C 
HETATM    3  C   UNL     1      29.754  -4.088  12.319  1.00  0.00    -0.014 C 
HETATM    4  C   UNL     1      30.897  -6.747   9.313  1.00  0.00     0.009 C 
HETATM    5  C   UNL     1      30.616  -5.069   7.610  1.00  0.00     0.040 C 
HETATM    6  C   UNL     1      35.107  -5.730  16.029  1.00  0.00     0.037 C 
HETATM    7  C   UNL     1      31.333  -4.345  14.322  1.00  0.00     0.054 C 
HETATM    8  C   UNL     1      35.554  -6.293  13.722  1.00  0.00     0.074 C 
HETATM    9  C   UNL     1      31.279  -5.848  11.486  1.00  0.00     0.008 C 
HETATM   10  C   UNL     1      34.190  -6.224  13.484  1.00  0.00     0.088 A 
HETATM   11  C   UNL     1      30.288  -4.863  11.263  1.00  0.00    -0.026 C 
HETATM   12  O   UNL     1      33.564  -6.092  12.251  1.00  0.00    -0.310 OA
HETATM   13  C   UNL     1      35.999  -5.899  14.975  1.00  0.00     0.068 C 
HETATM   14  C   UNL     1      31.274  -7.654   8.326  1.00  0.00     0.076 C 
HETATM   15  C   UNL     1      31.589  -7.186   7.058  1.00  0.00     0.038 C 
HETATM   16  C   UNL     1      29.915  -4.239  13.774  1.00  0.00     0.032 C 
HETATM   17  C   UNL     1      33.292  -5.956  14.503  1.00  0.00     0.017 A 
HETATM   18  C   UNL     1      33.731  -5.786  15.812  1.00  0.00     0.016 C 
HETATM   19  C   UNL     1      29.849  -4.680   9.942  1.00  0.00     0.025 C 
HETATM   20  C   UNL     1      30.392  -5.493   8.932  1.00  0.00    -0.007 C 
HETATM   21  C   UNL     1      31.937  -5.689  13.956  1.00  0.00     0.137 A 
HETATM   22  C   UNL     1      32.247  -5.731  12.501  1.00  0.00     0.104 A 
ENDROOT
BRANCH   5  23
HETATM   23  C   UNL     1      30.121  -3.806   7.048  1.00  0.00     0.265 C 
HETATM   24  N   UNL     1      30.412  -3.621   5.696  1.00  0.00    -0.057 NA
HETATM   25  O   UNL     1      29.353  -3.070   7.654  1.00  0.00    -0.271 OA
ENDBRANCH   5  23
BRANCH  14  26
HETATM   26  O   UNL     1      31.445  -8.950   8.656  1.00  0.00    -0.360 OA
ATOM     27  HO  UNL     1      31.702  -9.569   7.983  1.00  0.00     0.217 HD
ENDBRANCH  14  26
BRANCH  21  28
HETATM   28  O   UNL     1      31.024  -6.722  14.304  1.00  0.00    -0.378 OA
ATOM     29  HO  UNL     1      31.402  -7.563  14.075  1.00  0.00     0.211 HD
ENDBRANCH  21  28
BRANCH  13  30
HETATM   30  O   UNL     1      37.186  -5.209  15.050  1.00  0.00    -0.361 OA
ATOM     31  HO  UNL     1      37.795  -5.324  14.330  1.00  0.00     0.217 HD
ENDBRANCH  13  30
TORSDOF 4
