REMARK  4 active torsions:
REMARK  status: ('A' for Active; 'I' for Inactive)
REMARK    1  A    between atoms: C_1  and  C_15 
REMARK    2  A    between atoms: C_8  and  C_11 
REMARK    3  A    between atoms: C_12  and  C_18 
REMARK    4  A    between atoms: C_20  and  C_21 
ROOT
HETATM    1  C   UNL     1       9.609  39.754   4.237  1.00  0.00     0.011 C 
HETATM    2  C   UNL     1       8.268  37.172   4.823  1.00  0.00     0.013 C 
HETATM    3  C   UNL     1       7.219  37.908   4.290  1.00  0.00    -0.026 C 
HETATM    4  C   UNL     1       8.280  40.088   4.148  1.00  0.00     0.002 C 
HETATM    5  C   UNL     1       9.539  37.536   5.214  1.00  0.00     0.012 C 
HETATM    6  C   UNL     1       7.177  39.292   4.465  1.00  0.00     0.012 C 
HETATM    7  C   UNL     1      10.179  38.760   5.008  1.00  0.00    -0.036 C 
ENDROOT
BRANCH   7   8
HETATM    8  C   UNL     1      11.505  38.990   5.535  1.00  0.00     0.007 C 
HETATM    9  C   UNL     1      12.643  38.980   4.792  1.00  0.00    -0.021 C 
BRANCH   9  10
HETATM   10  C   UNL     1      13.589  37.889   4.751  1.00  0.00     0.009 C 
HETATM   11  C   UNL     1      13.934  37.240   6.071  1.00  0.00     0.009 C 
HETATM   12  C   UNL     1      15.292  36.588   5.881  1.00  0.00     0.016 C 
HETATM   13  C   UNL     1      15.705  36.870   4.463  1.00  0.00     0.087 C 
HETATM   14  C   UNL     1      14.894  38.059   3.984  1.00  0.00     0.023 C 
BRANCH  13  15
HETATM   15  C   UNL     1      17.162  36.804   4.054  1.00  0.00     0.177 C 
HETATM   16  O   UNL     1      17.908  36.144   4.863  1.00  0.00    -0.648 OA
HETATM   17  O   UNL     1      17.454  37.105   2.893  1.00  0.00    -0.648 OA
ENDBRANCH  13  15
ENDBRANCH   9  10
ENDBRANCH   7   8
BRANCH   3  18
HETATM   18  C   UNL     1       6.186  37.282   3.551  1.00  0.00    -0.025 C 
HETATM   19  C   UNL     1       6.493  36.664   2.326  1.00  0.00     0.019 C 
HETATM   20  C   UNL     1       5.820  37.181   1.212  1.00  0.00    -0.061 C 
HETATM   21  C   UNL     1       4.611  37.839   1.383  1.00  0.00     0.007 C 
HETATM   22  C   UNL     1       6.419  37.071  -0.159  1.00  0.00     0.048 C 
HETATM   23  C   UNL     1       4.035  37.883   2.653  1.00  0.00     0.001 C 
HETATM   24  C   UNL     1       4.821  37.531   3.758  1.00  0.00     0.012 C 
ENDBRANCH   3  18
TORSDOF 4
