MODEL 1
REMARK VINA RESULT:      -3.9      0.000      0.000
REMARK  4 active torsions:
REMARK  status: ('A' for Active; 'I' for Inactive)
REMARK    1  A    between atoms: C_1  and  O_8 
REMARK    2  A    between atoms: C_1  and  O_12 
REMARK    3  A    between atoms: O_3  and  C_5 
REMARK    4  A    between atoms: C_5  and  O_6 
ROOT
HETATM    1  C   UNL     1      20.993  21.672   0.644  1.00  0.00     0.164 C 
HETATM    2  C   UNL     1      22.444  21.603   1.120  1.00  0.00     0.073 C 
HETATM    3  C   UNL     1      21.036  20.297   2.691  1.00  0.00     0.164 C 
HETATM    4  C   UNL     1      22.423  20.868   2.450  1.00  0.00     0.073 C 
HETATM    5  C   UNL     1      20.125  21.047   1.730  1.00  0.00     0.136 C 
ENDROOT
BRANCH   1   6
HETATM    6  O   UNL     1      20.642  23.031   0.462  1.00  0.00    -0.365 OA
ATOM      7  HO  UNL     1      21.166  23.386  -0.246  1.00  0.00     0.213 HD
ENDBRANCH   1   6
BRANCH   1   8
HETATM    8  O   UNL     1      20.842  20.960  -0.577  1.00  0.00    -0.365 OA
ATOM      9  HO  UNL     1      21.203  21.464  -1.297  1.00  0.00     0.213 HD
ENDBRANCH   1   8
BRANCH   3  10
HETATM   10  O   UNL     1      21.006  18.901   2.471  1.00  0.00    -0.365 OA
ATOM     11  HO  UNL     1      21.043  18.753   1.534  1.00  0.00     0.213 HD
ENDBRANCH   3  10
BRANCH   3  12
HETATM   12  O   UNL     1      20.625  20.535   4.021  1.00  0.00    -0.365 OA
ATOM     13  HO  UNL     1      19.680  20.633   4.021  1.00  0.00     0.213 HD
ENDBRANCH   3  12
TORSDOF 4
ENDMDL
MODEL 2
REMARK VINA RESULT:      -3.8      1.497      3.378
REMARK  4 active torsions:
REMARK  status: ('A' for Active; 'I' for Inactive)
REMARK    1  A    between atoms: C_1  and  O_8 
REMARK    2  A    between atoms: C_1  and  O_12 
REMARK    3  A    between atoms: O_3  and  C_5 
REMARK    4  A    between atoms: C_5  and  O_6 
ROOT
HETATM    1  C   UNL     1      20.028  19.589   1.684  1.00  0.00     0.164 C 
HETATM    2  C   UNL     1      20.437  20.580   2.774  1.00  0.00     0.073 C 
HETATM    3  C   UNL     1      21.004  21.559   0.565  1.00  0.00     0.164 C 
HETATM    4  C   UNL     1      21.155  21.718   2.067  1.00  0.00     0.073 C 
HETATM    5  C   UNL     1      20.573  20.113   0.361  1.00  0.00     0.136 C 
ENDROOT
BRANCH   1   6
HETATM    6  O   UNL     1      20.598  18.329   1.982  1.00  0.00    -0.365 OA
ATOM      7  HO  UNL     1      21.283  18.150   1.349  1.00  0.00     0.213 HD
ENDBRANCH   1   6
BRANCH   1   8
HETATM    8  O   UNL     1      18.611  19.482   1.625  1.00  0.00    -0.365 OA
ATOM      9  HO  UNL     1      18.296  18.921   2.323  1.00  0.00     0.213 HD
ENDBRANCH   1   8
BRANCH   3  10
HETATM   10  O   UNL     1      20.062  22.472   0.040  1.00  0.00    -0.365 OA
ATOM     11  HO  UNL     1      19.952  23.173   0.672  1.00  0.00     0.213 HD
ENDBRANCH   3  10
BRANCH   3  12
HETATM   12  O   UNL     1      22.236  21.784  -0.086  1.00  0.00    -0.365 OA
ATOM     13  HO  UNL     1      22.050  22.118  -0.956  1.00  0.00     0.213 HD
ENDBRANCH   3  12
TORSDOF 4
ENDMDL
MODEL 3
REMARK VINA RESULT:      -3.8      2.149      3.539
REMARK  4 active torsions:
REMARK  status: ('A' for Active; 'I' for Inactive)
REMARK    1  A    between atoms: C_1  and  O_8 
REMARK    2  A    between atoms: C_1  and  O_12 
REMARK    3  A    between atoms: O_3  and  C_5 
REMARK    4  A    between atoms: C_5  and  O_6 
ROOT
HETATM    1  C   UNL     1      21.387  19.724   3.579  1.00  0.00     0.164 C 
HETATM    2  C   UNL     1      21.387  18.261   3.135  1.00  0.00     0.073 C 
HETATM    3  C   UNL     1      19.771  19.513   1.727  1.00  0.00     0.164 C 
HETATM    4  C   UNL     1      20.290  18.133   2.090  1.00  0.00     0.073 C 
HETATM    5  C   UNL     1      20.245  20.424   2.852  1.00  0.00     0.136 C 
ENDROOT
BRANCH   1   6
HETATM    6  O   UNL     1      21.175  19.771   4.978  1.00  0.00    -0.365 OA
ATOM      7  HO  UNL     1      20.442  19.206   5.192  1.00  0.00     0.213 HD
ENDBRANCH   1   6
BRANCH   1   8
HETATM    8  O   UNL     1      22.628  20.336   3.252  1.00  0.00    -0.365 OA
ATOM      9  HO  UNL     1      23.204  20.332   4.007  1.00  0.00     0.213 HD
ENDBRANCH   1   8
BRANCH   3  10
HETATM   10  O   UNL     1      20.253  19.932   0.467  1.00  0.00    -0.365 OA
ATOM     11  HO  UNL     1      20.056  19.249  -0.163  1.00  0.00     0.213 HD
ENDBRANCH   3  10
BRANCH   3  12
HETATM   12  O   UNL     1      18.361  19.517   1.675  1.00  0.00    -0.365 OA
ATOM     13  HO  UNL     1      18.047  20.157   2.303  1.00  0.00     0.213 HD
ENDBRANCH   3  12
TORSDOF 4
ENDMDL
MODEL 4
REMARK VINA RESULT:      -3.7      2.124      2.932
REMARK  4 active torsions:
REMARK  status: ('A' for Active; 'I' for Inactive)
REMARK    1  A    between atoms: C_1  and  O_8 
REMARK    2  A    between atoms: C_1  and  O_12 
REMARK    3  A    between atoms: O_3  and  C_5 
REMARK    4  A    between atoms: C_5  and  O_6 
ROOT
HETATM    1  C   UNL     1      19.831  19.179   1.375  1.00  0.00     0.164 C 
HETATM    2  C   UNL     1      20.239  17.977   2.227  1.00  0.00     0.073 C 
HETATM    3  C   UNL     1      21.314  20.007   3.164  1.00  0.00     0.164 C 
HETATM    4  C   UNL     1      21.255  18.491   3.233  1.00  0.00     0.073 C 
HETATM    5  C   UNL     1      20.663  20.369   1.836  1.00  0.00     0.136 C 
ENDROOT
BRANCH   1   6
HETATM    6  O   UNL     1      20.108  18.885   0.019  1.00  0.00    -0.365 OA
ATOM      7  HO  UNL     1      19.289  18.882  -0.463  1.00  0.00     0.213 HD
ENDBRANCH   1   6
BRANCH   1   8
HETATM    8  O   UNL     1      18.446  19.452   1.544  1.00  0.00    -0.365 OA
ATOM      9  HO  UNL     1      18.171  19.219   2.423  1.00  0.00     0.213 HD
ENDBRANCH   1   8
BRANCH   3  10
HETATM   10  O   UNL     1      20.650  20.602   4.260  1.00  0.00    -0.365 OA
ATOM     11  HO  UNL     1      21.282  20.709   4.961  1.00  0.00     0.213 HD
ENDBRANCH   3  10
BRANCH   3  12
HETATM   12  O   UNL     1      22.654  20.454   3.174  1.00  0.00    -0.365 OA
ATOM     13  HO  UNL     1      22.741  21.132   2.514  1.00  0.00     0.213 HD
ENDBRANCH   3  12
TORSDOF 4
ENDMDL
MODEL 5
REMARK VINA RESULT:      -3.7      5.228      6.350
REMARK  4 active torsions:
REMARK  status: ('A' for Active; 'I' for Inactive)
REMARK    1  A    between atoms: C_1  and  O_8 
REMARK    2  A    between atoms: C_1  and  O_12 
REMARK    3  A    between atoms: O_3  and  C_5 
REMARK    4  A    between atoms: C_5  and  O_6 
ROOT
HETATM    1  C   UNL     1      27.497  20.222   3.438  1.00  0.00     0.164 C 
HETATM    2  C   UNL     1      26.621  21.146   2.591  1.00  0.00     0.073 C 
HETATM    3  C   UNL     1      25.402  20.604   4.684  1.00  0.00     0.164 C 
HETATM    4  C   UNL     1      25.290  21.255   3.316  1.00  0.00     0.073 C 
HETATM    5  C   UNL     1      26.651  19.736   4.609  1.00  0.00     0.136 C 
ENDROOT
BRANCH   1   6
HETATM    6  O   UNL     1      27.899  19.125   2.639  1.00  0.00    -0.365 OA
ATOM      7  HO  UNL     1      28.263  18.455   3.206  1.00  0.00     0.213 HD
ENDBRANCH   1   6
BRANCH   1   8
HETATM    8  O   UNL     1      28.637  20.926   3.912  1.00  0.00    -0.365 OA
ATOM      9  HO  UNL     1      29.314  20.314   4.175  1.00  0.00     0.213 HD
ENDBRANCH   1   8
BRANCH   3  10
HETATM   10  O   UNL     1      25.489  21.571   5.711  1.00  0.00    -0.365 OA
ATOM     11  HO  UNL     1      26.397  21.841   5.782  1.00  0.00     0.213 HD
ENDBRANCH   3  10
BRANCH   3  12
HETATM   12  O   UNL     1      24.275  19.795   4.944  1.00  0.00    -0.365 OA
ATOM     13  HO  UNL     1      24.381  19.417   5.810  1.00  0.00     0.213 HD
ENDBRANCH   3  12
TORSDOF 4
ENDMDL
MODEL 6
REMARK VINA RESULT:      -3.6      4.720      6.027
REMARK  4 active torsions:
REMARK  status: ('A' for Active; 'I' for Inactive)
REMARK    1  A    between atoms: C_1  and  O_8 
REMARK    2  A    between atoms: C_1  and  O_12 
REMARK    3  A    between atoms: O_3  and  C_5 
REMARK    4  A    between atoms: C_5  and  O_6 
ROOT
HETATM    1  C   UNL     1      25.186  20.328   4.630  1.00  0.00     0.164 C 
HETATM    2  C   UNL     1      25.144  21.290   3.443  1.00  0.00     0.073 C 
HETATM    3  C   UNL     1      26.762  19.479   2.933  1.00  0.00     0.164 C 
HETATM    4  C   UNL     1      26.218  20.821   2.475  1.00  0.00     0.073 C 
HETATM    5  C   UNL     1      26.330  19.351   4.387  1.00  0.00     0.136 C 
ENDROOT
BRANCH   1   6
HETATM    6  O   UNL     1      25.424  21.074   5.808  1.00  0.00    -0.365 OA
ATOM      7  HO  UNL     1      26.363  21.160   5.927  1.00  0.00     0.213 HD
ENDBRANCH   1   6
BRANCH   1   8
HETATM    8  O   UNL     1      23.954  19.626   4.737  1.00  0.00    -0.365 OA
ATOM      9  HO  UNL     1      24.102  18.691   4.663  1.00  0.00     0.213 HD
ENDBRANCH   1   8
BRANCH   3  10
HETATM   10  O   UNL     1      26.267  18.421   2.137  1.00  0.00    -0.365 OA
ATOM     11  HO  UNL     1      26.290  17.628   2.659  1.00  0.00     0.213 HD
ENDBRANCH   3  10
BRANCH   3  12
HETATM   12  O   UNL     1      28.171  19.460   2.852  1.00  0.00    -0.365 OA
ATOM     13  HO  UNL     1      28.438  20.136   2.239  1.00  0.00     0.213 HD
ENDBRANCH   3  12
TORSDOF 4
ENDMDL
MODEL 7
REMARK VINA RESULT:      -3.6      5.101      6.535
REMARK  4 active torsions:
REMARK  status: ('A' for Active; 'I' for Inactive)
REMARK    1  A    between atoms: C_1  and  O_8 
REMARK    2  A    between atoms: C_1  and  O_12 
REMARK    3  A    between atoms: O_3  and  C_5 
REMARK    4  A    between atoms: C_5  and  O_6 
ROOT
HETATM    1  C   UNL     1      26.332  21.013   5.400  1.00  0.00     0.164 C 
HETATM    2  C   UNL     1      27.656  21.310   4.695  1.00  0.00     0.073 C 
HETATM    3  C   UNL     1      26.048  20.433   3.020  1.00  0.00     0.164 C 
HETATM    4  C   UNL     1      27.497  20.819   3.265  1.00  0.00     0.073 C 
HETATM    5  C   UNL     1      25.437  20.284   4.406  1.00  0.00     0.136 C 
ENDROOT
BRANCH   1   6
HETATM    6  O   UNL     1      26.593  20.187   6.519  1.00  0.00    -0.365 OA
ATOM      7  HO  UNL     1      25.764  19.897   6.881  1.00  0.00     0.213 HD
ENDBRANCH   1   6
BRANCH   1   8
HETATM    8  O   UNL     1      25.718  22.225   5.820  1.00  0.00    -0.365 OA
ATOM      9  HO  UNL     1      26.334  22.945   5.751  1.00  0.00     0.213 HD
ENDBRANCH   1   8
BRANCH   3  10
HETATM   10  O   UNL     1      25.378  21.407   2.246  1.00  0.00    -0.365 OA
ATOM     11  HO  UNL     1      26.033  21.908   1.776  1.00  0.00     0.213 HD
ENDBRANCH   3  10
BRANCH   3  12
HETATM   12  O   UNL     1      25.971  19.203   2.331  1.00  0.00    -0.365 OA
ATOM     13  HO  UNL     1      26.753  19.117   1.797  1.00  0.00     0.213 HD
ENDBRANCH   3  12
TORSDOF 4
ENDMDL
MODEL 8
REMARK VINA RESULT:      -3.5      2.079      3.504
REMARK  4 active torsions:
REMARK  status: ('A' for Active; 'I' for Inactive)
REMARK    1  A    between atoms: C_1  and  O_8 
REMARK    2  A    between atoms: C_1  and  O_12 
REMARK    3  A    between atoms: O_3  and  C_5 
REMARK    4  A    between atoms: C_5  and  O_6 
ROOT
HETATM    1  C   UNL     1      21.323  19.767   3.310  1.00  0.00     0.164 C 
HETATM    2  C   UNL     1      21.376  20.954   2.347  1.00  0.00     0.073 C 
HETATM    3  C   UNL     1      19.748  19.298   1.470  1.00  0.00     0.164 C 
HETATM    4  C   UNL     1      20.503  20.580   1.160  1.00  0.00     0.073 C 
HETATM    5  C   UNL     1      20.485  18.679   2.649  1.00  0.00     0.136 C 
ENDROOT
BRANCH   1   6
HETATM    6  O   UNL     1      22.642  19.303   3.527  1.00  0.00    -0.365 OA
ATOM      7  HO  UNL     1      23.238  20.040   3.453  1.00  0.00     0.213 HD
ENDBRANCH   1   6
BRANCH   1   8
HETATM    8  O   UNL     1      20.735  20.162   4.543  1.00  0.00    -0.365 OA
ATOM      9  HO  UNL     1      21.371  20.097   5.245  1.00  0.00     0.213 HD
ENDBRANCH   1   8
BRANCH   3  10
HETATM   10  O   UNL     1      18.392  19.556   1.767  1.00  0.00    -0.365 OA
ATOM     11  HO  UNL     1      18.335  20.429   2.136  1.00  0.00     0.213 HD
ENDBRANCH   3  10
BRANCH   3  12
HETATM   12  O   UNL     1      19.791  18.418   0.367  1.00  0.00    -0.365 OA
ATOM     13  HO  UNL     1      19.375  18.851  -0.369  1.00  0.00     0.213 HD
ENDBRANCH   3  12
TORSDOF 4
ENDMDL
MODEL 9
REMARK VINA RESULT:      -3.5      5.721      6.765
REMARK  4 active torsions:
REMARK  status: ('A' for Active; 'I' for Inactive)
REMARK    1  A    between atoms: C_1  and  O_8 
REMARK    2  A    between atoms: C_1  and  O_12 
REMARK    3  A    between atoms: O_3  and  C_5 
REMARK    4  A    between atoms: C_5  and  O_6 
ROOT
HETATM    1  C   UNL     1      25.491  20.680   4.491  1.00  0.00     0.164 C 
HETATM    2  C   UNL     1      26.160  21.681   5.432  1.00  0.00     0.073 C 
HETATM    3  C   UNL     1      27.885  20.098   4.612  1.00  0.00     0.164 C 
HETATM    4  C   UNL     1      27.599  21.220   5.594  1.00  0.00     0.073 C 
HETATM    5  C   UNL     1      26.516  19.599   4.169  1.00  0.00     0.136 C 
ENDROOT
BRANCH   1   6
HETATM    6  O   UNL     1      24.376  20.113   5.153  1.00  0.00    -0.365 OA
ATOM      7  HO  UNL     1      23.914  20.803   5.613  1.00  0.00     0.213 HD
ENDBRANCH   1   6
BRANCH   1   8
HETATM    8  O   UNL     1      25.072  21.332   3.299  1.00  0.00    -0.365 OA
ATOM      9  HO  UNL     1      24.178  21.641   3.392  1.00  0.00     0.213 HD
ENDBRANCH   1   8
BRANCH   3  10
HETATM   10  O   UNL     1      28.663  20.550   3.522  1.00  0.00    -0.365 OA
ATOM     11  HO  UNL     1      28.071  20.776   2.815  1.00  0.00     0.213 HD
ENDBRANCH   3  10
BRANCH   3  12
HETATM   12  O   UNL     1      28.591  19.051   5.244  1.00  0.00    -0.365 OA
ATOM     13  HO  UNL     1      29.513  19.155   5.039  1.00  0.00     0.213 HD
ENDBRANCH   3  12
TORSDOF 4
ENDMDL
