REMARK  6 active torsions:
REMARK  status: ('A' for Active; 'I' for Inactive)
REMARK    1  A    between atoms: O_1  and  C_17 
REMARK    2  A    between atoms: O_4  and  C_30 
REMARK    3  A    between atoms: C_6  and  O_15 
REMARK    4  A    between atoms: O_7  and  C_14 
REMARK    5  A    between atoms: N_10  and  O_22 
REMARK    6  A    between atoms: O_19  and  C_28 
ROOT
HETATM    1  C   UNL     1      18.034   3.589  11.259  1.00  0.00     0.025 C 
HETATM    2  C   UNL     1      19.730   0.878   9.400  1.00  0.00     0.142 C 
HETATM    3  C   UNL     1      18.217   2.577  12.422  1.00  0.00     0.050 C 
HETATM    4  N   UNL     1      18.376   1.161   7.424  1.00  0.00    -0.158 NA
HETATM    5  C   UNL     1      16.591   4.756  15.227  1.00  0.00     0.008 C 
HETATM    6  C   UNL     1      16.802   4.441  11.572  1.00  0.00     0.028 C 
HETATM    7  C   UNL     1      19.696   1.473   7.996  1.00  0.00     0.159 C 
HETATM    8  C   UNL     1      19.446   1.801  11.927  1.00  0.00     0.133 C 
HETATM    9  C   UNL     1      15.857   5.419  10.884  1.00  0.00     0.152 C 
HETATM   10  C   UNL     1      15.694   5.833  13.238  1.00  0.00     0.022 C 
HETATM   11  C   UNL     1      17.319   2.094   7.803  1.00  0.00     0.174 C 
HETATM   12  C   UNL     1      17.127   4.051  13.986  1.00  0.00     0.020 C 
HETATM   13  N   UNL     1      17.650   3.011   8.874  1.00  0.00    -0.383 N 
ATOM     14  HN  UNL     1      17.793   4.005   8.693  1.00  0.00     0.160 HD
HETATM   15  C   UNL     1      17.013   5.138  12.915  1.00  0.00     0.006 C 
HETATM   16  C   UNL     1      14.811   5.666  11.988  1.00  0.00     0.151 C 
HETATM   17  C   UNL     1      15.311   5.384  14.646  1.00  0.00     0.008 C 
HETATM   18  C   UNL     1      18.472   3.392  13.693  1.00  0.00     0.129 C 
HETATM   19  C   UNL     1      18.994   1.593  10.489  1.00  0.00     0.068 C 
HETATM   20  C   UNL     1      17.773   2.461  10.228  1.00  0.00     0.096 C 
ENDROOT
BRANCH   2  21
HETATM   21  O   UNL     1      21.036   0.493   9.753  1.00  0.00    -0.394 OA
ATOM     22  HO  UNL     1      21.057   0.122  10.627  1.00  0.00     0.210 HD
ENDBRANCH   2  21
BRANCH   4  23
HETATM   23  O   UNL     1      18.369   0.895   6.067  1.00  0.00    -0.308 OA
ATOM     24  HO  UNL     1      17.517   0.694   5.698  1.00  0.00     0.237 HD
ENDBRANCH   4  23
BRANCH   8  25
HETATM   25  O   UNL     1      19.554   0.557  12.616  1.00  0.00    -0.395 OA
ATOM     26  HO  UNL     1      20.314   0.077  12.310  1.00  0.00     0.210 HD
ENDBRANCH   8  25
BRANCH  18  27
HETATM   27  O   UNL     1      18.985   2.627  14.765  1.00  0.00    -0.395 OA
ATOM     28  HO  UNL     1      19.143   3.133  15.554  1.00  0.00     0.210 HD
ENDBRANCH  18  27
BRANCH   9  29
HETATM   29  O   UNL     1      15.288   4.975   9.682  1.00  0.00    -0.393 OA
ATOM     30  HO  UNL     1      14.699   5.585   9.253  1.00  0.00     0.210 HD
ENDBRANCH   9  29
BRANCH  16  31
HETATM   31  O   UNL     1      14.183   6.894  11.648  1.00  0.00    -0.393 OA
ATOM     32  HO  UNL     1      13.538   7.046  12.329  1.00  0.00     0.210 HD
ENDBRANCH  16  31
TORSDOF 6
