REMARK  3 active torsions:
REMARK  status: ('A' for Active; 'I' for Inactive)
REMARK    1  A    between atoms: N_1  and  C_5 
REMARK    2  A    between atoms: N_1  and  C_39 
REMARK    3  A    between atoms: N_29  and  C_40 
ROOT
HETATM    1  C   UNL     1     -48.550   1.323   9.288  1.00  0.00     0.172 C 
HETATM    2  C   UNL     1     -43.900   1.482   7.596  1.00  0.00     0.050 C 
HETATM    3  C   UNL     1     -43.599   3.437   4.430  1.00  0.00     0.091 C 
HETATM    4  O   UNL     1     -49.416   2.161   9.484  1.00  0.00    -0.291 OA
HETATM    5  C   UNL     1     -45.871   1.021   6.131  1.00  0.00     0.050 C 
HETATM    6  C   UNL     1     -46.840   3.155   8.632  1.00  0.00     0.278 C 
HETATM    7  N   UNL     1     -45.944  -0.385   8.834  1.00  0.00    -0.357 N 
ATOM      8  HN  UNL     1     -45.126  -0.809   8.396  1.00  0.00     0.166 HD
HETATM    9  C   UNL     1     -46.667  -1.181   9.601  1.00  0.00     0.156 C 
HETATM   10  C   UNL     1     -47.176   1.739   8.987  1.00  0.00     0.040 C 
HETATM   11  N   UNL     1     -45.838   3.019   7.580  1.00  0.00    -0.057 N 
ATOM     12  HN1 UNL     1     -45.049   3.648   7.729  1.00  0.00     0.278 HD
ATOM     13  HN2 UNL     1     -46.172   3.395   6.692  1.00  0.00     0.278 HD
HETATM   14  C   UNL     1     -45.403   1.636   7.447  1.00  0.00     0.169 C 
HETATM   15  C   UNL     1     -45.178   1.559   4.880  1.00  0.00     0.038 C 
HETATM   16  C   UNL     1     -48.866  -0.150   9.445  1.00  0.00     0.186 C 
HETATM   17  N   UNL     1     -47.857  -0.830  10.301  1.00  0.00    -0.238 NA
HETATM   18  C   UNL     1     -43.086   1.915   6.382  1.00  0.00     0.038 C 
HETATM   19  C   UNL     1     -43.928   2.344   5.209  1.00  0.00    -0.064 C 
HETATM   20  C   UNL     1     -46.154   0.924   8.557  1.00  0.00     0.058 C 
ENDROOT
BRANCH   3  21
HETATM   21  N   UNL     1     -43.263   3.347   3.132  1.00  0.00    -0.363 N 
ATOM     22  HN  UNL     1     -42.801   4.204   2.827  1.00  0.00     0.165 HD
BRANCH  21  23
HETATM   23  C   UNL     1     -43.349   2.468   2.103  1.00  0.00     0.078 C 
HETATM   24  C   UNL     1     -42.705   1.228   1.811  1.00  0.00     0.120 C 
HETATM   25  N   UNL     1     -42.764   0.996   0.463  1.00  0.00    -0.357 N 
HETATM   26  C   UNL     1     -43.528   1.973  -0.091  1.00  0.00     0.133 C 
ATOM     27  HN  UNL     1     -42.315   0.228  -0.036  1.00  0.00     0.165 HD
HETATM   28  C   UNL     1     -43.786   2.699  -1.267  1.00  0.00     0.289 C 
HETATM   29  C   UNL     1     -44.095   2.775   0.940  1.00  0.00     0.108 C 
HETATM   30  N   UNL     1     -44.626   3.732  -0.930  1.00  0.00    -0.264 N 
HETATM   31  O   UNL     1     -43.240   2.627  -2.368  1.00  0.00    -0.264 OA
HETATM   32  N   UNL     1     -44.799   3.800   0.428  1.00  0.00    -0.293 N 
ATOM     33  HN  UNL     1     -45.063   4.364  -1.601  1.00  0.00     0.190 HD
ATOM     34  HN  UNL     1     -45.349   4.487   0.944  1.00  0.00     0.187 HD
ENDBRANCH  21  23
ENDBRANCH   3  21
BRANCH  17  35
HETATM   35  C   UNL     1     -48.399  -1.986  10.936  1.00  0.00     0.016 C 
HETATM   36  C   UNL     1     -48.332  -2.098  12.324  1.00  0.00     0.024 C 
HETATM   37  C   UNL     1     -48.865  -3.066  13.142  1.00  0.00     0.002 C 
HETATM   38  C   UNL     1     -49.322  -4.352  12.991  1.00  0.00     0.000 C 
HETATM   39  C   UNL     1     -49.581  -4.946  11.750  1.00  0.00     0.000 C 
HETATM   40  C   UNL     1     -49.345  -4.300  10.556  1.00  0.00     0.002 C 
HETATM   41  C   UNL     1     -48.950  -3.040  10.205  1.00  0.00     0.024 C 
ENDBRANCH  17  35
TORSDOF 3
