MODEL 1
REMARK VINA RESULT:      -9.0      0.000      0.000
REMARK  6 active torsions:
REMARK  status: ('A' for Active; 'I' for Inactive)
REMARK    1  A    between atoms: P_1  and  C_23 
REMARK    2  A    between atoms: N_2  and  C_5 
REMARK    3  A    between atoms: N_11  and  C_18 
REMARK    4  A    between atoms: N_11  and  C_36 
REMARK    5  A    between atoms: C_15  and  O_24 
REMARK    6  A    between atoms: C_27  and  C_36 
ROOT
HETATM    1  N   UNL     1     -44.122  -3.740  10.912  1.00  0.00    -0.385 N 
ATOM      2  HN  UNL     1     -43.316  -3.447  11.464  1.00  0.00     0.160 HD
HETATM    3  C   UNL     1     -48.404   2.441   8.472  1.00  0.00     0.001 C 
HETATM    4  C   UNL     1     -47.923  -0.653  10.363  1.00  0.00     0.050 C 
HETATM    5  C   UNL     1     -47.085   2.669   8.060  1.00  0.00     0.001 C 
HETATM    6  C   UNL     1     -46.548   0.404   8.647  1.00  0.00    -0.026 C 
HETATM    7  C   UNL     1     -48.707   1.289   9.185  1.00  0.00     0.012 C 
HETATM    8  C   UNL     1     -45.953  -3.780  12.555  1.00  0.00     0.211 C 
HETATM    9  C   UNL     1     -46.055  -2.253  10.482  1.00  0.00     0.022 C 
HETATM   10  C   UNL     1     -45.323  -3.276  11.272  1.00  0.00     0.051 C 
HETATM   11  C   UNL     1     -45.727  -0.700   8.517  1.00  0.00     0.013 C 
HETATM   12  C   UNL     1     -47.365  -3.263  12.790  1.00  0.00     0.292 C 
HETATM   13  C   UNL     1     -45.499  -1.787   9.305  1.00  0.00     0.017 C 
HETATM   14  O   UNL     1     -48.023  -2.465  11.823  1.00  0.00    -0.328 OA
HETATM   15  C   UNL     1     -47.320  -1.787  10.859  1.00  0.00     0.083 C 
HETATM   16  C   UNL     1     -47.732   0.321   9.395  1.00  0.00    -0.023 C 
HETATM   17  C   UNL     1     -46.214   1.585   7.998  1.00  0.00     0.012 C 
ENDROOT
BRANCH   1  18
HETATM   18  C   UNL     1     -43.882  -4.644   9.771  1.00  0.00     0.086 C 
HETATM   19  C   UNL     1     -42.907  -4.079   8.728  1.00  0.00     0.010 C 
HETATM   20  C   UNL     1     -41.649  -4.934   8.881  1.00  0.00     0.011 C 
HETATM   21  C   UNL     1     -43.495  -4.389   7.344  1.00  0.00     0.031 C 
HETATM   22  C   UNL     1     -42.221  -6.311   9.170  1.00  0.00    -0.010 C 
HETATM   23  C   UNL     1     -43.329  -6.001  10.201  1.00  0.00     0.030 C 
HETATM   24  C   UNL     1     -42.909  -6.859   7.903  1.00  0.00     0.029 C 
HETATM   25  C   UNL     1     -43.128  -5.789   6.830  1.00  0.00     0.077 C 
BRANCH  25  26
HETATM   26  N   UNL     1     -43.959  -6.202   5.689  1.00  0.00    -0.408 N 
ATOM     27  HN  UNL     1     -43.698  -6.000   4.724  1.00  0.00     0.154 HD
BRANCH  26  28
HETATM   28  C   UNL     1     -45.187  -6.923   6.031  1.00  0.00     0.228 C 
BRANCH  28  29
HETATM   29  C   UNL     1     -46.497  -6.138   5.985  1.00  0.00     0.190 C 
HETATM   30  O   UNL     1     -47.462  -6.611   6.615  1.00  0.00    -0.647 OA
HETATM   31  O   UNL     1     -46.503  -5.061   5.360  1.00  0.00    -0.647 OA
ENDBRANCH  28  29
ENDBRANCH  26  28
ENDBRANCH  25  26
ENDBRANCH   1  18
BRANCH   8  32
HETATM   32  O   UNL     1     -45.090  -3.558  13.657  1.00  0.00    -0.386 OA
ATOM     33  HO  UNL     1     -44.252  -3.220  13.365  1.00  0.00     0.210 HD
ENDBRANCH   8  32
BRANCH  12  34
HETATM   34  P   UNL     1     -48.505  -4.650  12.876  1.00  0.00     0.293 P 
HETATM   35  O   UNL     1     -49.860  -4.010  12.867  1.00  0.00    -0.638 OA
HETATM   36  O   UNL     1     -48.171  -5.517  11.712  1.00  0.00    -0.638 OA
HETATM   37  O   UNL     1     -48.225  -5.359  14.164  1.00  0.00    -0.638 OA
ENDBRANCH  12  34
TORSDOF 6
ENDMDL
MODEL 2
REMARK VINA RESULT:      -8.9      1.941      2.829
REMARK  6 active torsions:
REMARK  status: ('A' for Active; 'I' for Inactive)
REMARK    1  A    between atoms: P_1  and  C_23 
REMARK    2  A    between atoms: N_2  and  C_5 
REMARK    3  A    between atoms: N_11  and  C_18 
REMARK    4  A    between atoms: N_11  and  C_36 
REMARK    5  A    between atoms: C_15  and  O_24 
REMARK    6  A    between atoms: C_27  and  C_36 
ROOT
HETATM    1  N   UNL     1     -44.079  -3.117  10.762  1.00  0.00    -0.385 N 
ATOM      2  HN  UNL     1     -43.324  -2.739  11.334  1.00  0.00     0.160 HD
HETATM    3  C   UNL     1     -49.336   2.446   8.784  1.00  0.00     0.001 C 
HETATM    4  C   UNL     1     -48.337  -0.658  10.441  1.00  0.00     0.050 C 
HETATM    5  C   UNL     1     -48.077   2.915   8.390  1.00  0.00     0.001 C 
HETATM    6  C   UNL     1     -47.172   0.730   8.809  1.00  0.00    -0.026 C 
HETATM    7  C   UNL     1     -49.439   1.211   9.411  1.00  0.00     0.012 C 
HETATM    8  C   UNL     1     -45.859  -3.574  12.397  1.00  0.00     0.211 C 
HETATM    9  C   UNL     1     -46.233  -1.937  10.443  1.00  0.00     0.022 C 
HETATM   10  C   UNL     1     -45.335  -2.883  11.155  1.00  0.00     0.051 C 
HETATM   11  C   UNL     1     -46.185  -0.213   8.597  1.00  0.00     0.013 C 
HETATM   12  C   UNL     1     -47.334  -3.312  12.670  1.00  0.00     0.292 C 
HETATM   13  C   UNL     1     -45.774  -1.303   9.303  1.00  0.00     0.017 C 
HETATM   14  O   UNL     1     -48.124  -2.564  11.764  1.00  0.00    -0.328 OA
HETATM   15  C   UNL     1     -47.552  -1.712  10.852  1.00  0.00     0.083 C 
HETATM   16  C   UNL     1     -48.318   0.402   9.548  1.00  0.00    -0.023 C 
HETATM   17  C   UNL     1     -47.041   1.994   8.248  1.00  0.00     0.012 C 
ENDROOT
BRANCH   1  18
HETATM   18  C   UNL     1     -43.709  -3.886   9.558  1.00  0.00     0.086 C 
HETATM   19  C   UNL     1     -44.322  -5.293   9.510  1.00  0.00     0.010 C 
HETATM   20  C   UNL     1     -45.363  -5.216   8.392  1.00  0.00     0.011 C 
HETATM   21  C   UNL     1     -43.221  -6.251   9.032  1.00  0.00     0.031 C 
HETATM   22  C   UNL     1     -44.687  -4.312   7.376  1.00  0.00    -0.010 C 
HETATM   23  C   UNL     1     -44.113  -3.185   8.263  1.00  0.00     0.030 C 
HETATM   24  C   UNL     1     -43.493  -5.053   6.740  1.00  0.00     0.029 C 
HETATM   25  C   UNL     1     -43.102  -6.322   7.502  1.00  0.00     0.077 C 
BRANCH  25  26
HETATM   26  N   UNL     1     -41.849  -6.957   7.067  1.00  0.00    -0.408 N 
ATOM     27  HN  UNL     1     -41.820  -7.643   6.312  1.00  0.00     0.154 HD
BRANCH  26  28
HETATM   28  C   UNL     1     -40.646  -6.540   7.789  1.00  0.00     0.228 C 
BRANCH  28  29
HETATM   29  C   UNL     1     -40.216  -5.080   7.653  1.00  0.00     0.190 C 
HETATM   30  O   UNL     1     -39.930  -4.680   6.509  1.00  0.00    -0.647 OA
HETATM   31  O   UNL     1     -40.221  -4.379   8.682  1.00  0.00    -0.647 OA
ENDBRANCH  28  29
ENDBRANCH  26  28
ENDBRANCH  25  26
ENDBRANCH   1  18
BRANCH   8  32
HETATM   32  O   UNL     1     -45.031  -3.296  13.513  1.00  0.00    -0.386 OA
ATOM     33  HO  UNL     1     -44.321  -3.925  13.570  1.00  0.00     0.210 HD
ENDBRANCH   8  32
BRANCH  12  34
HETATM   34  P   UNL     1     -48.232  -4.869  12.653  1.00  0.00     0.293 P 
HETATM   35  O   UNL     1     -47.346  -5.794  11.875  1.00  0.00    -0.638 OA
HETATM   36  O   UNL     1     -48.461  -5.215  14.084  1.00  0.00    -0.638 OA
HETATM   37  O   UNL     1     -49.530  -4.611  11.955  1.00  0.00    -0.638 OA
ENDBRANCH  12  34
TORSDOF 6
ENDMDL
MODEL 3
REMARK VINA RESULT:      -8.3      4.135      6.465
REMARK  6 active torsions:
REMARK  status: ('A' for Active; 'I' for Inactive)
REMARK    1  A    between atoms: P_1  and  C_23 
REMARK    2  A    between atoms: N_2  and  C_5 
REMARK    3  A    between atoms: N_11  and  C_18 
REMARK    4  A    between atoms: N_11  and  C_36 
REMARK    5  A    between atoms: C_15  and  O_24 
REMARK    6  A    between atoms: C_27  and  C_36 
ROOT
HETATM    1  N   UNL     1     -45.544  -0.129  10.955  1.00  0.00    -0.385 N 
ATOM      2  HN  UNL     1     -44.916   0.310  11.628  1.00  0.00     0.160 HD
HETATM    3  C   UNL     1     -43.095   0.955   3.518  1.00  0.00     0.001 C 
HETATM    4  C   UNL     1     -45.480   1.364   6.260  1.00  0.00     0.050 C 
HETATM    5  C   UNL     1     -42.023   0.395   4.223  1.00  0.00     0.001 C 
HETATM    6  C   UNL     1     -43.512  -0.061   6.051  1.00  0.00    -0.026 C 
HETATM    7  C   UNL     1     -44.287   1.217   4.180  1.00  0.00     0.012 C 
HETATM    8  C   UNL     1     -47.013   1.718  10.259  1.00  0.00     0.211 C 
HETATM    9  C   UNL     1     -45.548   0.463   8.551  1.00  0.00     0.022 C 
HETATM   10  C   UNL     1     -46.008   0.625   9.954  1.00  0.00     0.051 C 
HETATM   11  C   UNL     1     -43.814  -0.776   7.195  1.00  0.00     0.013 C 
HETATM   12  C   UNL     1     -47.546   2.425   9.021  1.00  0.00     0.292 C 
HETATM   13  C   UNL     1     -44.636  -0.533   8.252  1.00  0.00     0.017 C 
HETATM   14  O   UNL     1     -47.179   2.001   7.721  1.00  0.00    -0.328 OA
HETATM   15  C   UNL     1     -46.053   1.247   7.506  1.00  0.00     0.083 C 
HETATM   16  C   UNL     1     -44.448   0.828   5.504  1.00  0.00    -0.023 C 
HETATM   17  C   UNL     1     -42.290  -0.261   5.422  1.00  0.00     0.012 C 
ENDROOT
BRANCH   1  18
HETATM   18  C   UNL     1     -45.878  -1.553  11.154  1.00  0.00     0.086 C 
HETATM   19  C   UNL     1     -46.098  -1.937  12.624  1.00  0.00     0.010 C 
HETATM   20  C   UNL     1     -47.601  -2.204  12.725  1.00  0.00     0.011 C 
HETATM   21  C   UNL     1     -45.388  -3.278  12.854  1.00  0.00     0.031 C 
HETATM   22  C   UNL     1     -47.907  -2.866  11.393  1.00  0.00    -0.010 C 
HETATM   23  C   UNL     1     -47.133  -1.976  10.395  1.00  0.00     0.030 C 
HETATM   24  C   UNL     1     -47.267  -4.268  11.355  1.00  0.00     0.029 C 
HETATM   25  C   UNL     1     -46.249  -4.493  12.476  1.00  0.00     0.077 C 
BRANCH  25  26
HETATM   26  N   UNL     1     -45.459  -5.729  12.371  1.00  0.00    -0.408 N 
ATOM     27  HN  UNL     1     -45.295  -6.196  11.480  1.00  0.00     0.154 HD
BRANCH  26  28
HETATM   28  C   UNL     1     -44.926  -6.246  13.633  1.00  0.00     0.228 C 
BRANCH  28  29
HETATM   29  C   UNL     1     -45.933  -6.615  14.721  1.00  0.00     0.190 C 
HETATM   30  O   UNL     1     -45.951  -5.899  15.741  1.00  0.00    -0.647 OA
HETATM   31  O   UNL     1     -46.693  -7.576  14.502  1.00  0.00    -0.647 OA
ENDBRANCH  28  29
ENDBRANCH  26  28
ENDBRANCH  25  26
ENDBRANCH   1  18
BRANCH   8  32
HETATM   32  O   UNL     1     -46.501   2.612  11.232  1.00  0.00    -0.386 OA
ATOM     33  HO  UNL     1     -45.663   2.964  10.957  1.00  0.00     0.210 HD
ENDBRANCH   8  32
BRANCH  12  34
HETATM   34  P   UNL     1     -49.328   2.209   8.928  1.00  0.00     0.293 P 
HETATM   35  O   UNL     1     -49.700   1.663  10.273  1.00  0.00    -0.638 OA
HETATM   36  O   UNL     1     -49.877   3.549   8.579  1.00  0.00    -0.638 OA
HETATM   37  O   UNL     1     -49.586   1.227   7.829  1.00  0.00    -0.638 OA
ENDBRANCH  12  34
TORSDOF 6
ENDMDL
MODEL 4
REMARK VINA RESULT:      -8.2      4.051      7.263
REMARK  6 active torsions:
REMARK  status: ('A' for Active; 'I' for Inactive)
REMARK    1  A    between atoms: P_1  and  C_23 
REMARK    2  A    between atoms: N_2  and  C_5 
REMARK    3  A    between atoms: N_11  and  C_18 
REMARK    4  A    between atoms: N_11  and  C_36 
REMARK    5  A    between atoms: C_15  and  O_24 
REMARK    6  A    between atoms: C_27  and  C_36 
ROOT
HETATM    1  N   UNL     1     -45.440  -3.393   9.393  1.00  0.00    -0.385 N 
ATOM      2  HN  UNL     1     -46.290  -3.885   9.119  1.00  0.00     0.160 HD
HETATM    3  C   UNL     1     -43.035   1.640   3.791  1.00  0.00     0.001 C 
HETATM    4  C   UNL     1     -42.633  -1.305   5.922  1.00  0.00     0.050 C 
HETATM    5  C   UNL     1     -44.369   1.953   4.076  1.00  0.00     0.001 C 
HETATM    6  C   UNL     1     -44.261   0.510   5.992  1.00  0.00    -0.026 C 
HETATM    7  C   UNL     1     -42.421   0.590   4.461  1.00  0.00     0.012 C 
HETATM    8  C   UNL     1     -43.652  -4.712   8.336  1.00  0.00     0.211 C 
HETATM    9  C   UNL     1     -43.991  -2.223   7.760  1.00  0.00     0.022 C 
HETATM   10  C   UNL     1     -44.408  -3.415   8.544  1.00  0.00     0.051 C 
HETATM   11  C   UNL     1     -44.750   0.126   7.227  1.00  0.00     0.013 C 
HETATM   12  C   UNL     1     -42.433  -4.575   7.436  1.00  0.00     0.292 C 
HETATM   13  C   UNL     1     -44.664  -1.030   7.941  1.00  0.00     0.017 C 
HETATM   14  O   UNL     1     -42.028  -3.312   6.939  1.00  0.00    -0.328 OA
HETATM   15  C   UNL     1     -42.898  -2.252   6.886  1.00  0.00     0.083 C 
HETATM   16  C   UNL     1     -43.092  -0.074   5.481  1.00  0.00    -0.023 C 
HETATM   17  C   UNL     1     -44.912   1.508   5.279  1.00  0.00     0.012 C 
ENDROOT
BRANCH   1  18
HETATM   18  C   UNL     1     -45.434  -2.705  10.698  1.00  0.00     0.086 C 
HETATM   19  C   UNL     1     -46.277  -1.421  10.724  1.00  0.00     0.010 C 
HETATM   20  C   UNL     1     -47.477  -1.773  11.605  1.00  0.00     0.011 C 
HETATM   21  C   UNL     1     -45.463  -0.359  11.477  1.00  0.00     0.031 C 
HETATM   22  C   UNL     1     -46.854  -2.661  12.668  1.00  0.00    -0.010 C 
HETATM   23  C   UNL     1     -45.943  -3.589  11.834  1.00  0.00     0.030 C 
HETATM   24  C   UNL     1     -45.942  -1.814  13.578  1.00  0.00     0.029 C 
HETATM   25  C   UNL     1     -45.641  -0.428  13.002  1.00  0.00     0.077 C 
BRANCH  25  26
HETATM   26  N   UNL     1     -44.617   0.344  13.721  1.00  0.00    -0.408 N 
ATOM     27  HN  UNL     1     -44.851   0.984  14.479  1.00  0.00     0.154 HD
BRANCH  26  28
HETATM   28  C   UNL     1     -43.239   0.134  13.274  1.00  0.00     0.228 C 
BRANCH  28  29
HETATM   29  C   UNL     1     -42.131   0.826  14.067  1.00  0.00     0.190 C 
HETATM   30  O   UNL     1     -40.957   0.547  13.760  1.00  0.00    -0.647 OA
HETATM   31  O   UNL     1     -42.472   1.651  14.935  1.00  0.00    -0.647 OA
ENDBRANCH  28  29
ENDBRANCH  26  28
ENDBRANCH  25  26
ENDBRANCH   1  18
BRANCH   8  32
HETATM   32  O   UNL     1     -44.532  -5.744   7.926  1.00  0.00    -0.386 OA
ATOM     33  HO  UNL     1     -45.410  -5.406   7.796  1.00  0.00     0.210 HD
ENDBRANCH   8  32
BRANCH  12  34
HETATM   34  P   UNL     1     -40.957  -5.038   8.350  1.00  0.00     0.293 P 
HETATM   35  O   UNL     1     -41.442  -5.225   9.756  1.00  0.00    -0.638 OA
HETATM   36  O   UNL     1     -40.423  -6.248   7.664  1.00  0.00    -0.638 OA
HETATM   37  O   UNL     1     -39.999  -3.895   8.231  1.00  0.00    -0.638 OA
ENDBRANCH  12  34
TORSDOF 6
ENDMDL
MODEL 5
REMARK VINA RESULT:      -8.0      3.545      7.289
REMARK  6 active torsions:
REMARK  status: ('A' for Active; 'I' for Inactive)
REMARK    1  A    between atoms: P_1  and  C_23 
REMARK    2  A    between atoms: N_2  and  C_5 
REMARK    3  A    between atoms: N_11  and  C_18 
REMARK    4  A    between atoms: N_11  and  C_36 
REMARK    5  A    between atoms: C_15  and  O_24 
REMARK    6  A    between atoms: C_27  and  C_36 
ROOT
HETATM    1  N   UNL     1     -45.637  -1.922  11.534  1.00  0.00    -0.385 N 
ATOM      2  HN  UNL     1     -45.240  -1.535  12.390  1.00  0.00     0.160 HD
HETATM    3  C   UNL     1     -40.019  -4.109   6.420  1.00  0.00     0.001 C 
HETATM    4  C   UNL     1     -42.885  -2.083   7.449  1.00  0.00     0.050 C 
HETATM    5  C   UNL     1     -39.739  -4.749   7.633  1.00  0.00     0.001 C 
HETATM    6  C   UNL     1     -41.898  -4.080   8.443  1.00  0.00    -0.026 C 
HETATM    7  C   UNL     1     -41.119  -3.266   6.330  1.00  0.00     0.012 C 
HETATM    8  C   UNL     1     -45.653  -0.003   9.995  1.00  0.00     0.211 C 
HETATM    9  C   UNL     1     -44.334  -2.145   9.440  1.00  0.00     0.022 C 
HETATM   10  C   UNL     1     -45.227  -1.408  10.370  1.00  0.00     0.051 C 
HETATM   11  C   UNL     1     -42.950  -4.255   9.322  1.00  0.00     0.013 C 
HETATM   12  C   UNL     1     -45.216   0.420   8.599  1.00  0.00     0.292 C 
HETATM   13  C   UNL     1     -43.941  -3.431   9.762  1.00  0.00     0.017 C 
HETATM   14  O   UNL     1     -44.558  -0.487   7.733  1.00  0.00    -0.328 OA
HETATM   15  C   UNL     1     -43.925  -1.604   8.215  1.00  0.00     0.083 C 
HETATM   16  C   UNL     1     -41.994  -3.143   7.403  1.00  0.00    -0.023 C 
HETATM   17  C   UNL     1     -40.761  -4.867   8.571  1.00  0.00     0.012 C 
ENDROOT
BRANCH   1  18
HETATM   18  C   UNL     1     -46.624  -3.011  11.665  1.00  0.00     0.086 C 
HETATM   19  C   UNL     1     -47.190  -3.165  13.085  1.00  0.00     0.010 C 
HETATM   20  C   UNL     1     -48.640  -2.693  12.969  1.00  0.00     0.011 C 
HETATM   21  C   UNL     1     -47.231  -4.668  13.396  1.00  0.00     0.031 C 
HETATM   22  C   UNL     1     -49.044  -3.208  11.599  1.00  0.00    -0.010 C 
HETATM   23  C   UNL     1     -47.819  -2.841  10.731  1.00  0.00     0.030 C 
HETATM   24  C   UNL     1     -49.141  -4.746  11.634  1.00  0.00     0.029 C 
HETATM   25  C   UNL     1     -48.505  -5.358  12.886  1.00  0.00     0.077 C 
BRANCH  25  26
HETATM   26  N   UNL     1     -48.384  -6.823  12.879  1.00  0.00    -0.408 N 
ATOM     27  HN  UNL     1     -48.794  -7.400  12.144  1.00  0.00     0.154 HD
BRANCH  26  28
HETATM   28  C   UNL     1     -47.636  -7.400  13.997  1.00  0.00     0.228 C 
BRANCH  28  29
HETATM   29  C   UNL     1     -48.389  -7.609  15.310  1.00  0.00     0.190 C 
HETATM   30  O   UNL     1     -48.424  -6.648  16.101  1.00  0.00    -0.647 OA
HETATM   31  O   UNL     1     -48.950  -8.707  15.485  1.00  0.00    -0.647 OA
ENDBRANCH  28  29
ENDBRANCH  26  28
ENDBRANCH  25  26
ENDBRANCH   1  18
BRANCH   8  32
HETATM   32  O   UNL     1     -45.272   0.922  10.999  1.00  0.00    -0.386 OA
ATOM     33  HO  UNL     1     -44.391   0.740  11.306  1.00  0.00     0.210 HD
ENDBRANCH   8  32
BRANCH  12  34
HETATM   34  P   UNL     1     -46.665   0.802   7.607  1.00  0.00     0.293 P 
HETATM   35  O   UNL     1     -46.411   0.105   6.305  1.00  0.00    -0.638 OA
HETATM   36  O   UNL     1     -47.832   0.324   8.400  1.00  0.00    -0.638 OA
HETATM   37  O   UNL     1     -46.702   2.290   7.453  1.00  0.00    -0.638 OA
ENDBRANCH  12  34
TORSDOF 6
ENDMDL
MODEL 6
REMARK VINA RESULT:      -7.9      3.379      6.815
REMARK  6 active torsions:
REMARK  status: ('A' for Active; 'I' for Inactive)
REMARK    1  A    between atoms: P_1  and  C_23 
REMARK    2  A    between atoms: N_2  and  C_5 
REMARK    3  A    between atoms: N_11  and  C_18 
REMARK    4  A    between atoms: N_11  and  C_36 
REMARK    5  A    between atoms: C_15  and  O_24 
REMARK    6  A    between atoms: C_27  and  C_36 
ROOT
HETATM    1  N   UNL     1     -45.956  -1.538  11.429  1.00  0.00    -0.385 N 
ATOM      2  HN  UNL     1     -45.588  -1.185  12.313  1.00  0.00     0.160 HD
HETATM    3  C   UNL     1     -40.197  -4.205   6.714  1.00  0.00     0.001 C 
HETATM    4  C   UNL     1     -42.946  -1.940   7.548  1.00  0.00     0.050 C 
HETATM    5  C   UNL     1     -40.059  -4.864   7.942  1.00  0.00     0.001 C 
HETATM    6  C   UNL     1     -42.205  -4.012   8.601  1.00  0.00    -0.026 C 
HETATM    7  C   UNL     1     -41.213  -3.271   6.551  1.00  0.00     0.012 C 
HETATM    8  C   UNL     1     -45.699   0.373   9.901  1.00  0.00     0.211 C 
HETATM    9  C   UNL     1     -44.531  -1.875   9.431  1.00  0.00     0.022 C 
HETATM   10  C   UNL     1     -45.422  -1.063  10.299  1.00  0.00     0.051 C 
HETATM   11  C   UNL     1     -43.327  -4.096   9.403  1.00  0.00     0.013 C 
HETATM   12  C   UNL     1     -45.131   0.754   8.542  1.00  0.00     0.292 C 
HETATM   13  C   UNL     1     -44.273  -3.189   9.775  1.00  0.00     0.017 C 
HETATM   14  O   UNL     1     -44.493  -0.207   7.720  1.00  0.00    -0.328 OA
HETATM   15  C   UNL     1     -43.992  -1.373   8.241  1.00  0.00     0.083 C 
HETATM   16  C   UNL     1     -42.147  -3.073   7.561  1.00  0.00    -0.023 C 
HETATM   17  C   UNL     1     -41.151  -4.893   8.805  1.00  0.00     0.012 C 
ENDROOT
BRANCH   1  18
HETATM   18  C   UNL     1     -47.038  -2.539  11.487  1.00  0.00     0.086 C 
HETATM   19  C   UNL     1     -47.304  -3.083  12.898  1.00  0.00     0.010 C 
HETATM   20  C   UNL     1     -48.661  -2.492  13.283  1.00  0.00     0.011 C 
HETATM   21  C   UNL     1     -47.494  -4.601  12.771  1.00  0.00     0.031 C 
HETATM   22  C   UNL     1     -49.419  -2.527  11.967  1.00  0.00    -0.010 C 
HETATM   23  C   UNL     1     -48.368  -2.000  10.965  1.00  0.00     0.030 C 
HETATM   24  C   UNL     1     -49.727  -3.990  11.588  1.00  0.00     0.029 C 
HETATM   25  C   UNL     1     -48.934  -5.003  12.417  1.00  0.00     0.077 C 
BRANCH  25  26
HETATM   26  N   UNL     1     -49.030  -6.399  11.965  1.00  0.00    -0.408 N 
ATOM     27  HN  UNL     1     -49.219  -7.168  12.609  1.00  0.00     0.154 HD
BRANCH  26  28
HETATM   28  C   UNL     1     -48.836  -6.613  10.530  1.00  0.00     0.228 C 
BRANCH  28  29
HETATM   29  C   UNL     1     -47.512  -7.231  10.086  1.00  0.00     0.190 C 
HETATM   30  O   UNL     1     -47.271  -7.236   8.863  1.00  0.00    -0.647 OA
HETATM   31  O   UNL     1     -46.744  -7.650  10.972  1.00  0.00    -0.647 OA
ENDBRANCH  28  29
ENDBRANCH  26  28
ENDBRANCH  25  26
ENDBRANCH   1  18
BRANCH   8  32
HETATM   32  O   UNL     1     -45.312   1.263  10.933  1.00  0.00    -0.386 OA
ATOM     33  HO  UNL     1     -44.852   0.799  11.623  1.00  0.00     0.210 HD
ENDBRANCH   8  32
BRANCH  12  34
HETATM   34  P   UNL     1     -46.469   1.256   7.452  1.00  0.00     0.293 P 
HETATM   35  O   UNL     1     -45.905   1.075   6.074  1.00  0.00    -0.638 OA
HETATM   36  O   UNL     1     -47.628   0.394   7.814  1.00  0.00    -0.638 OA
HETATM   37  O   UNL     1     -46.758   2.692   7.758  1.00  0.00    -0.638 OA
ENDBRANCH  12  34
TORSDOF 6
ENDMDL
MODEL 7
REMARK VINA RESULT:      -7.8      3.455      6.224
REMARK  6 active torsions:
REMARK  status: ('A' for Active; 'I' for Inactive)
REMARK    1  A    between atoms: P_1  and  C_23 
REMARK    2  A    between atoms: N_2  and  C_5 
REMARK    3  A    between atoms: N_11  and  C_18 
REMARK    4  A    between atoms: N_11  and  C_36 
REMARK    5  A    between atoms: C_15  and  O_24 
REMARK    6  A    between atoms: C_27  and  C_36 
ROOT
HETATM    1  N   UNL     1     -45.915  -4.668   8.585  1.00  0.00    -0.385 N 
ATOM      2  HN  UNL     1     -46.527  -5.124   7.908  1.00  0.00     0.160 HD
HETATM    3  C   UNL     1     -43.336   2.329   5.962  1.00  0.00     0.001 C 
HETATM    4  C   UNL     1     -42.847  -1.123   7.067  1.00  0.00     0.050 C 
HETATM    5  C   UNL     1     -44.733   2.350   5.877  1.00  0.00     0.001 C 
HETATM    6  C   UNL     1     -44.807   0.326   7.166  1.00  0.00    -0.026 C 
HETATM    7  C   UNL     1     -42.698   1.188   6.430  1.00  0.00     0.012 C 
HETATM    8  C   UNL     1     -43.659  -5.276   7.815  1.00  0.00     0.211 C 
HETATM    9  C   UNL     1     -44.395  -2.812   7.972  1.00  0.00     0.022 C 
HETATM   10  C   UNL     1     -44.719  -4.250   8.160  1.00  0.00     0.051 C 
HETATM   11  C   UNL     1     -45.503  -0.542   7.986  1.00  0.00     0.013 C 
HETATM   12  C   UNL     1     -42.311  -4.670   7.455  1.00  0.00     0.292 C 
HETATM   13  C   UNL     1     -45.347  -1.861   8.288  1.00  0.00     0.017 C 
HETATM   14  O   UNL     1     -42.089  -3.274   7.542  1.00  0.00    -0.328 OA
HETATM   15  C   UNL     1     -43.133  -2.384   7.542  1.00  0.00     0.083 C 
HETATM   16  C   UNL     1     -43.444   0.119   6.910  1.00  0.00    -0.023 C 
HETATM   17  C   UNL     1     -45.457   1.431   6.631  1.00  0.00     0.012 C 
ENDROOT
BRANCH   1  18
HETATM   18  C   UNL     1     -46.412  -4.515   9.966  1.00  0.00     0.086 C 
HETATM   19  C   UNL     1     -47.244  -5.708  10.459  1.00  0.00     0.010 C 
HETATM   20  C   UNL     1     -46.357  -6.384  11.506  1.00  0.00     0.011 C 
HETATM   21  C   UNL     1     -48.460  -5.136  11.203  1.00  0.00     0.031 C 
HETATM   22  C   UNL     1     -45.686  -5.200  12.181  1.00  0.00    -0.010 C 
HETATM   23  C   UNL     1     -45.287  -4.314  10.979  1.00  0.00     0.030 C 
HETATM   24  C   UNL     1     -46.729  -4.418  13.005  1.00  0.00     0.029 C 
HETATM   25  C   UNL     1     -48.171  -4.813  12.678  1.00  0.00     0.077 C 
BRANCH  25  26
HETATM   26  N   UNL     1     -49.209  -3.963  13.278  1.00  0.00    -0.408 N 
ATOM     27  HN  UNL     1     -49.994  -4.350  13.802  1.00  0.00     0.154 HD
BRANCH  26  28
HETATM   28  C   UNL     1     -49.042  -2.523  13.074  1.00  0.00     0.228 C 
BRANCH  28  29
HETATM   29  C   UNL     1     -49.570  -1.934  11.767  1.00  0.00     0.190 C 
HETATM   30  O   UNL     1     -50.804  -1.808  11.660  1.00  0.00    -0.647 OA
HETATM   31  O   UNL     1     -48.734  -1.583  10.913  1.00  0.00    -0.647 OA
ENDBRANCH  28  29
ENDBRANCH  26  28
ENDBRANCH  25  26
ENDBRANCH   1  18
BRANCH   8  32
HETATM   32  O   UNL     1     -44.139  -6.183   6.837  1.00  0.00    -0.386 OA
ATOM     33  HO  UNL     1     -43.804  -5.958   5.977  1.00  0.00     0.210 HD
ENDBRANCH   8  32
BRANCH  12  34
HETATM   34  P   UNL     1     -41.063  -5.256   8.607  1.00  0.00     0.293 P 
HETATM   35  O   UNL     1     -40.709  -6.621   8.100  1.00  0.00    -0.638 OA
HETATM   36  O   UNL     1     -39.979  -4.234   8.579  1.00  0.00    -0.638 OA
HETATM   37  O   UNL     1     -41.710  -5.306   9.955  1.00  0.00    -0.638 OA
ENDBRANCH  12  34
TORSDOF 6
ENDMDL
MODEL 8
REMARK VINA RESULT:      -7.8      5.146      7.922
REMARK  6 active torsions:
REMARK  status: ('A' for Active; 'I' for Inactive)
REMARK    1  A    between atoms: P_1  and  C_23 
REMARK    2  A    between atoms: N_2  and  C_5 
REMARK    3  A    between atoms: N_11  and  C_18 
REMARK    4  A    between atoms: N_11  and  C_36 
REMARK    5  A    between atoms: C_15  and  O_24 
REMARK    6  A    between atoms: C_27  and  C_36 
ROOT
HETATM    1  N   UNL     1     -45.877   0.405   6.055  1.00  0.00    -0.385 N 
ATOM      2  HN  UNL     1     -46.728   0.252   5.514  1.00  0.00     0.160 HD
HETATM    3  C   UNL     1     -43.760  -6.065  10.074  1.00  0.00     0.001 C 
HETATM    4  C   UNL     1     -44.852  -2.582   9.838  1.00  0.00     0.050 C 
HETATM    5  C   UNL     1     -43.900  -6.444   8.733  1.00  0.00     0.001 C 
HETATM    6  C   UNL     1     -44.043  -4.125   8.130  1.00  0.00    -0.026 C 
HETATM    7  C   UNL     1     -44.009  -4.749  10.441  1.00  0.00     0.012 C 
HETATM    8  C   UNL     1     -46.722   0.967   8.297  1.00  0.00     0.211 C 
HETATM    9  C   UNL     1     -45.199  -1.077   7.920  1.00  0.00     0.022 C 
HETATM   10  C   UNL     1     -45.906   0.102   7.357  1.00  0.00     0.051 C 
HETATM   11  C   UNL     1     -43.928  -3.130   7.177  1.00  0.00     0.013 C 
HETATM   12  C   UNL     1     -46.578   0.585   9.763  1.00  0.00     0.292 C 
HETATM   13  C   UNL     1     -44.444  -1.874   7.079  1.00  0.00     0.017 C 
HETATM   14  O   UNL     1     -45.679  -0.430  10.170  1.00  0.00    -0.328 OA
HETATM   15  C   UNL     1     -45.221  -1.376   9.287  1.00  0.00     0.083 C 
HETATM   16  C   UNL     1     -44.290  -3.795   9.471  1.00  0.00    -0.023 C 
HETATM   17  C   UNL     1     -43.870  -5.452   7.758  1.00  0.00     0.012 C 
ENDROOT
BRANCH   1  18
HETATM   18  C   UNL     1     -44.700   0.943   5.348  1.00  0.00     0.086 C 
HETATM   19  C   UNL     1     -45.037   1.608   4.004  1.00  0.00     0.010 C 
HETATM   20  C   UNL     1     -44.805   3.100   4.250  1.00  0.00     0.011 C 
HETATM   21  C   UNL     1     -43.975   1.150   2.994  1.00  0.00     0.031 C 
HETATM   22  C   UNL     1     -43.593   3.097   5.165  1.00  0.00    -0.010 C 
HETATM   23  C   UNL     1     -43.938   1.978   6.172  1.00  0.00     0.030 C 
HETATM   24  C   UNL     1     -42.351   2.640   4.373  1.00  0.00     0.029 C 
HETATM   25  C   UNL     1     -42.701   2.007   3.023  1.00  0.00     0.077 C 
BRANCH  25  26
HETATM   26  N   UNL     1     -41.580   1.369   2.317  1.00  0.00    -0.408 N 
ATOM     27  HN  UNL     1     -40.791   0.953   2.813  1.00  0.00     0.154 HD
BRANCH  26  28
HETATM   28  C   UNL     1     -41.671   1.370   0.857  1.00  0.00     0.228 C 
BRANCH  28  29
HETATM   29  C   UNL     1     -41.494   2.710   0.144  1.00  0.00     0.190 C 
HETATM   30  O   UNL     1     -40.327   3.102  -0.043  1.00  0.00    -0.647 OA
HETATM   31  O   UNL     1     -42.522   3.301  -0.237  1.00  0.00    -0.647 OA
ENDBRANCH  28  29
ENDBRANCH  26  28
ENDBRANCH  25  26
ENDBRANCH   1  18
BRANCH   8  32
HETATM   32  O   UNL     1     -48.071   1.035   7.871  1.00  0.00    -0.386 OA
ATOM     33  HO  UNL     1     -48.626   0.495   8.422  1.00  0.00     0.210 HD
ENDBRANCH   8  32
BRANCH  12  34
HETATM   34  P   UNL     1     -45.913   1.978  10.683  1.00  0.00     0.293 P 
HETATM   35  O   UNL     1     -45.257   1.348  11.875  1.00  0.00    -0.638 OA
HETATM   36  O   UNL     1     -45.017   2.695   9.734  1.00  0.00    -0.638 OA
HETATM   37  O   UNL     1     -47.076   2.836  11.068  1.00  0.00    -0.638 OA
ENDBRANCH  12  34
TORSDOF 6
ENDMDL
MODEL 9
REMARK VINA RESULT:      -7.7      9.016     13.072
REMARK  6 active torsions:
REMARK  status: ('A' for Active; 'I' for Inactive)
REMARK    1  A    between atoms: P_1  and  C_23 
REMARK    2  A    between atoms: N_2  and  C_5 
REMARK    3  A    between atoms: N_11  and  C_18 
REMARK    4  A    between atoms: N_11  and  C_36 
REMARK    5  A    between atoms: C_15  and  O_24 
REMARK    6  A    between atoms: C_27  and  C_36 
ROOT
HETATM    1  N   UNL     1     -44.441   4.014  -0.513  1.00  0.00    -0.385 N 
ATOM      2  HN  UNL     1     -43.595   4.453  -0.874  1.00  0.00     0.160 HD
HETATM    3  C   UNL     1     -43.182   0.503   6.458  1.00  0.00     0.001 C 
HETATM    4  C   UNL     1     -44.065   0.487   2.908  1.00  0.00     0.050 C 
HETATM    5  C   UNL     1     -42.750   1.829   6.584  1.00  0.00     0.001 C 
HETATM    6  C   UNL     1     -43.795   2.332   4.481  1.00  0.00    -0.026 C 
HETATM    7  C   UNL     1     -43.693   0.064   5.244  1.00  0.00     0.012 C 
HETATM    8  C   UNL     1     -44.213   1.669  -1.221  1.00  0.00     0.211 C 
HETATM    9  C   UNL     1     -44.397   2.297   1.271  1.00  0.00     0.022 C 
HETATM   10  C   UNL     1     -44.369   2.729  -0.150  1.00  0.00     0.051 C 
HETATM   11  C   UNL     1     -44.333   3.257   3.607  1.00  0.00     0.013 C 
HETATM   12  C   UNL     1     -44.259   0.244  -0.686  1.00  0.00     0.292 C 
HETATM   13  C   UNL     1     -44.546   3.249   2.262  1.00  0.00     0.017 C 
HETATM   14  O   UNL     1     -44.523  -0.016   0.680  1.00  0.00    -0.328 OA
HETATM   15  C   UNL     1     -44.339   0.947   1.640  1.00  0.00     0.083 C 
HETATM   16  C   UNL     1     -43.873   0.961   4.197  1.00  0.00    -0.023 C 
HETATM   17  C   UNL     1     -43.213   2.767   5.665  1.00  0.00     0.012 C 
ENDROOT
BRANCH   1  18
HETATM   18  C   UNL     1     -45.661   4.840  -0.427  1.00  0.00     0.086 C 
HETATM   19  C   UNL     1     -45.400   6.345  -0.582  1.00  0.00     0.010 C 
HETATM   20  C   UNL     1     -45.998   6.696  -1.945  1.00  0.00     0.011 C 
HETATM   21  C   UNL     1     -46.247   7.064   0.478  1.00  0.00     0.031 C 
HETATM   22  C   UNL     1     -47.236   5.817  -1.996  1.00  0.00    -0.010 C 
HETATM   23  C   UNL     1     -46.704   4.463  -1.475  1.00  0.00     0.030 C 
HETATM   24  C   UNL     1     -48.273   6.330  -0.976  1.00  0.00     0.029 C 
HETATM   25  C   UNL     1     -47.689   7.334   0.020  1.00  0.00     0.077 C 
BRANCH  25  26
HETATM   26  N   UNL     1     -48.572   7.700   1.138  1.00  0.00    -0.408 N 
ATOM     27  HN  UNL     1     -49.478   8.145   0.992  1.00  0.00     0.154 HD
BRANCH  26  28
HETATM   28  C   UNL     1     -48.063   7.384   2.474  1.00  0.00     0.228 C 
BRANCH  28  29
HETATM   29  C   UNL     1     -47.630   8.556   3.354  1.00  0.00     0.190 C 
HETATM   30  O   UNL     1     -46.728   9.292   2.912  1.00  0.00    -0.647 OA
HETATM   31  O   UNL     1     -48.232   8.721   4.432  1.00  0.00    -0.647 OA
ENDBRANCH  28  29
ENDBRANCH  26  28
ENDBRANCH  25  26
ENDBRANCH   1  18
BRANCH   8  32
HETATM   32  O   UNL     1     -43.069   1.925  -2.017  1.00  0.00    -0.386 OA
ATOM     33  HO  UNL     1     -43.323   2.187  -2.895  1.00  0.00     0.210 HD
ENDBRANCH   8  32
BRANCH  12  34
HETATM   34  P   UNL     1     -45.633  -0.635  -1.441  1.00  0.00     0.293 P 
HETATM   35  O   UNL     1     -45.976   0.189  -2.645  1.00  0.00    -0.638 OA
HETATM   36  O   UNL     1     -45.133  -2.014  -1.700  1.00  0.00    -0.638 OA
HETATM   37  O   UNL     1     -46.740  -0.652  -0.435  1.00  0.00    -0.638 OA
ENDBRANCH  12  34
TORSDOF 6
ENDMDL
