MODEL 1
REMARK VINA RESULT:      -7.2      0.000      0.000
REMARK  4 active torsions:
REMARK  status: ('A' for Active; 'I' for Inactive)
REMARK    1  A    between atoms: C_4  and  C_21 
REMARK    2  A    between atoms: C_6  and  C_21 
REMARK    3  A    between atoms: C_11  and  O_27 
REMARK    4  A    between atoms: C_12  and  N_24 
ROOT
HETATM    1  O   UNL     1      21.176  63.241  20.148  1.00  0.00    -0.292 OA
HETATM    2  C   UNL     1      20.786  63.126  21.300  1.00  0.00     0.168 C 
ENDROOT
BRANCH   2   3
HETATM    3  C   UNL     1      19.895  64.198  21.911  1.00  0.00     0.095 C 
HETATM    4  C   UNL     1      18.498  64.056  21.248  1.00  0.00    -0.001 C 
HETATM    5  C   UNL     1      17.369  64.310  22.248  1.00  0.00     0.005 C 
HETATM    6  C   UNL     1      18.388  65.040  20.077  1.00  0.00     0.010 C 
HETATM    7  C   UNL     1      16.364  65.371  21.820  1.00  0.00     0.001 C 
HETATM    8  C   UNL     1      17.009  66.662  21.367  1.00  0.00     0.005 C 
HETATM    9  C   UNL     1      18.336  66.453  20.634  1.00  0.00    -0.012 C 
HETATM   10  C   UNL     1      19.471  66.735  21.613  1.00  0.00     0.038 C 
HETATM   11  C   UNL     1      20.484  65.622  21.892  1.00  0.00     0.197 C 
BRANCH  11  12
HETATM   12  N   UNL     1      21.598  65.743  20.947  1.00  0.00    -0.074 N 
HETATM   13  C   UNL     1      22.750  66.497  21.451  1.00  0.00     0.267 C 
ATOM     14  HN2 UNL     1      21.892  64.820  20.626  1.00  0.00     0.277 HD
ATOM     15  HN1 UNL     1      21.273  66.141  20.066  1.00  0.00     0.277 HD
ENDBRANCH  11  12
ENDBRANCH   2   3
BRANCH   2  16
HETATM   16  C   UNL     1      21.203  61.923  22.083  1.00  0.00     0.036 C 
HETATM   17  C   UNL     1      22.634  61.583  22.085  1.00  0.00     0.052 C 
HETATM   18  N   UNL     1      23.524  62.334  21.395  1.00  0.00    -0.365 N 
HETATM   19  C   UNL     1      23.046  60.430  22.784  1.00  0.00    -0.027 C 
HETATM   20  C   UNL     1      24.836  62.077  21.515  1.00  0.00     0.088 C 
ATOM     21  HN  UNL     1      23.200  63.089  20.789  1.00  0.00     0.165 HD
HETATM   22  C   UNL     1      25.318  60.982  22.220  1.00  0.00     0.018 C 
HETATM   23  C   UNL     1      24.408  60.159  22.862  1.00  0.00     0.011 C 
HETATM   24  C   UNL     1      22.056  59.578  23.538  1.00  0.00     0.082 C 
HETATM   25  C   UNL     1      20.703  60.267  23.818  1.00  0.00     0.077 C 
HETATM   26  C   UNL     1      20.825  61.197  25.023  1.00  0.00     0.051 C 
HETATM   27  C   UNL     1      20.262  61.081  22.595  1.00  0.00     0.028 C 
BRANCH  25  28
HETATM   28  O   UNL     1      19.742  59.227  23.994  1.00  0.00    -0.386 OA
ATOM     29  HO  UNL     1      19.154  59.371  24.725  1.00  0.00     0.211 HD
ENDBRANCH  25  28
ENDBRANCH   2  16
TORSDOF 4
ENDMDL
MODEL 2
REMARK VINA RESULT:      -7.1      2.872      6.938
REMARK  4 active torsions:
REMARK  status: ('A' for Active; 'I' for Inactive)
REMARK    1  A    between atoms: C_4  and  C_21 
REMARK    2  A    between atoms: C_6  and  C_21 
REMARK    3  A    between atoms: C_11  and  O_27 
REMARK    4  A    between atoms: C_12  and  N_24 
ROOT
HETATM    1  O   UNL     1      23.426  63.705  18.948  1.00  0.00    -0.292 OA
HETATM    2  C   UNL     1      23.562  64.217  20.049  1.00  0.00     0.168 C 
ENDROOT
BRANCH   2   3
HETATM    3  C   UNL     1      23.544  63.347  21.298  1.00  0.00     0.095 C 
HETATM    4  C   UNL     1      24.379  62.078  20.976  1.00  0.00    -0.001 C 
HETATM    5  C   UNL     1      25.203  61.622  22.182  1.00  0.00     0.005 C 
HETATM    6  C   UNL     1      23.442  60.951  20.528  1.00  0.00     0.010 C 
HETATM    7  C   UNL     1      24.991  60.168  22.586  1.00  0.00     0.001 C 
HETATM    8  C   UNL     1      23.534  59.790  22.728  1.00  0.00     0.005 C 
HETATM    9  C   UNL     1      22.621  60.500  21.725  1.00  0.00    -0.012 C 
HETATM   10  C   UNL     1      21.941  61.663  22.438  1.00  0.00     0.038 C 
HETATM   11  C   UNL     1      22.145  63.075  21.882  1.00  0.00     0.197 C 
BRANCH  11  12
HETATM   12  N   UNL     1      21.081  63.365  20.917  1.00  0.00    -0.074 N 
HETATM   13  C   UNL     1      19.720  63.183  21.431  1.00  0.00     0.267 C 
ATOM     14  HN2 UNL     1      21.193  64.307  20.539  1.00  0.00     0.277 HD
ATOM     15  HN1 UNL     1      21.214  62.817  20.068  1.00  0.00     0.277 HD
ENDBRANCH  11  12
ENDBRANCH   2   3
BRANCH   2  16
HETATM   16  C   UNL     1      23.738  65.699  20.136  1.00  0.00     0.036 C 
HETATM   17  C   UNL     1      24.990  66.261  19.607  1.00  0.00     0.052 C 
HETATM   18  N   UNL     1      25.937  65.456  19.072  1.00  0.00    -0.365 N 
HETATM   19  C   UNL     1      25.196  67.652  19.715  1.00  0.00    -0.027 C 
HETATM   20  C   UNL     1      27.012  66.004  18.484  1.00  0.00     0.088 C 
ATOM     21  HN  UNL     1      25.835  64.442  19.116  1.00  0.00     0.165 HD
HETATM   22  C   UNL     1      27.261  67.370  18.516  1.00  0.00     0.018 C 
HETATM   23  C   UNL     1      26.336  68.194  19.134  1.00  0.00     0.011 C 
HETATM   24  C   UNL     1      24.151  68.551  20.328  1.00  0.00     0.082 C 
HETATM   25  C   UNL     1      22.747  67.920  20.434  1.00  0.00     0.077 C 
HETATM   26  C   UNL     1      22.030  68.000  19.088  1.00  0.00     0.051 C 
HETATM   27  C   UNL     1      22.859  66.450  20.858  1.00  0.00     0.028 C 
BRANCH  25  28
HETATM   28  O   UNL     1      22.068  68.605  21.485  1.00  0.00    -0.386 OA
ATOM     29  HO  UNL     1      21.125  68.493  21.466  1.00  0.00     0.211 HD
ENDBRANCH  25  28
ENDBRANCH   2  16
TORSDOF 4
ENDMDL
MODEL 3
REMARK VINA RESULT:      -7.1      3.031      7.382
REMARK  4 active torsions:
REMARK  status: ('A' for Active; 'I' for Inactive)
REMARK    1  A    between atoms: C_4  and  C_21 
REMARK    2  A    between atoms: C_6  and  C_21 
REMARK    3  A    between atoms: C_11  and  O_27 
REMARK    4  A    between atoms: C_12  and  N_24 
ROOT
HETATM    1  O   UNL     1      23.347  63.402  18.590  1.00  0.00    -0.292 OA
HETATM    2  C   UNL     1      23.924  63.935  19.526  1.00  0.00     0.168 C 
ENDROOT
BRANCH   2   3
HETATM    3  C   UNL     1      23.891  63.292  20.905  1.00  0.00     0.095 C 
HETATM    4  C   UNL     1      24.508  61.874  20.755  1.00  0.00    -0.001 C 
HETATM    5  C   UNL     1      25.359  61.497  21.969  1.00  0.00     0.005 C 
HETATM    6  C   UNL     1      23.385  60.847  20.566  1.00  0.00     0.010 C 
HETATM    7  C   UNL     1      24.979  60.177  22.630  1.00  0.00     0.001 C 
HETATM    8  C   UNL     1      23.501  60.056  22.924  1.00  0.00     0.005 C 
HETATM    9  C   UNL     1      22.615  60.726  21.871  1.00  0.00    -0.012 C 
HETATM   10  C   UNL     1      22.170  62.080  22.414  1.00  0.00     0.038 C 
HETATM   11  C   UNL     1      22.523  63.335  21.611  1.00  0.00     0.197 C 
BRANCH  11  12
HETATM   12  N   UNL     1      21.431  63.627  20.678  1.00  0.00    -0.074 N 
HETATM   13  C   UNL     1      20.086  63.455  21.235  1.00  0.00     0.267 C 
ATOM     14  HN2 UNL     1      21.537  64.566  20.292  1.00  0.00     0.277 HD
ATOM     15  HN1 UNL     1      21.536  63.074  19.828  1.00  0.00     0.277 HD
ENDBRANCH  11  12
ENDBRANCH   2   3
BRANCH   2  16
HETATM   16  C   UNL     1      24.649  65.221  19.285  1.00  0.00     0.036 C 
HETATM   17  C   UNL     1      23.833  66.433  19.117  1.00  0.00     0.052 C 
HETATM   18  N   UNL     1      22.482  66.371  19.174  1.00  0.00    -0.365 N 
HETATM   19  C   UNL     1      24.493  67.650  18.849  1.00  0.00    -0.027 C 
HETATM   20  C   UNL     1      21.769  67.507  19.143  1.00  0.00     0.088 C 
ATOM     21  HN  UNL     1      22.011  65.468  19.239  1.00  0.00     0.165 HD
HETATM   22  C   UNL     1      22.354  68.747  18.922  1.00  0.00     0.018 C 
HETATM   23  C   UNL     1      23.730  68.810  18.781  1.00  0.00     0.011 C 
HETATM   24  C   UNL     1      25.997  67.721  18.765  1.00  0.00     0.082 C 
HETATM   25  C   UNL     1      26.730  66.510  19.381  1.00  0.00     0.077 C 
HETATM   26  C   UNL     1      26.804  66.656  20.899  1.00  0.00     0.051 C 
HETATM   27  C   UNL     1      25.988  65.213  19.035  1.00  0.00     0.028 C 
BRANCH  25  28
HETATM   28  O   UNL     1      28.007  66.440  18.750  1.00  0.00    -0.386 OA
ATOM     29  HO  UNL     1      28.721  66.270  19.354  1.00  0.00     0.211 HD
ENDBRANCH  25  28
ENDBRANCH   2  16
TORSDOF 4
ENDMDL
MODEL 4
REMARK VINA RESULT:      -7.1      1.755      3.073
REMARK  4 active torsions:
REMARK  status: ('A' for Active; 'I' for Inactive)
REMARK    1  A    between atoms: C_4  and  C_21 
REMARK    2  A    between atoms: C_6  and  C_21 
REMARK    3  A    between atoms: C_11  and  O_27 
REMARK    4  A    between atoms: C_12  and  N_24 
ROOT
HETATM    1  O   UNL     1      19.869  63.035  20.379  1.00  0.00    -0.292 OA
HETATM    2  C   UNL     1      20.591  63.421  21.286  1.00  0.00     0.168 C 
ENDROOT
BRANCH   2   3
HETATM    3  C   UNL     1      20.436  64.832  21.833  1.00  0.00     0.095 C 
HETATM    4  C   UNL     1      18.965  65.257  21.574  1.00  0.00    -0.001 C 
HETATM    5  C   UNL     1      18.403  66.084  22.731  1.00  0.00     0.005 C 
HETATM    6  C   UNL     1      18.889  66.063  20.272  1.00  0.00     0.010 C 
HETATM    7  C   UNL     1      17.818  67.432  22.328  1.00  0.00     0.001 C 
HETATM    8  C   UNL     1      18.741  68.250  21.453  1.00  0.00     0.005 C 
HETATM    9  C   UNL     1      19.575  67.401  20.490  1.00  0.00    -0.012 C 
HETATM   10  C   UNL     1      20.974  67.250  21.078  1.00  0.00     0.038 C 
HETATM   11  C   UNL     1      21.499  65.838  21.351  1.00  0.00     0.197 C 
BRANCH  11  12
HETATM   12  N   UNL     1      22.212  65.357  20.164  1.00  0.00    -0.074 N 
HETATM   13  C   UNL     1      23.113  66.338  19.551  1.00  0.00     0.267 C 
ATOM     14  HN2 UNL     1      22.719  64.498  20.380  1.00  0.00     0.277 HD
ATOM     15  HN1 UNL     1      21.551  65.003  19.473  1.00  0.00     0.277 HD
ENDBRANCH  11  12
ENDBRANCH   2   3
BRANCH   2  16
HETATM   16  C   UNL     1      21.621  62.484  21.832  1.00  0.00     0.036 C 
HETATM   17  C   UNL     1      21.186  61.533  22.866  1.00  0.00     0.052 C 
HETATM   18  N   UNL     1      19.905  61.523  23.300  1.00  0.00    -0.365 N 
HETATM   19  C   UNL     1      22.149  60.668  23.425  1.00  0.00    -0.027 C 
HETATM   20  C   UNL     1      19.505  60.565  24.151  1.00  0.00     0.088 C 
ATOM     21  HN  UNL     1      19.248  62.237  22.984  1.00  0.00     0.165 HD
HETATM   22  C   UNL     1      20.389  59.653  24.712  1.00  0.00     0.018 C 
HETATM   23  C   UNL     1      21.721  59.708  24.335  1.00  0.00     0.011 C 
HETATM   24  C   UNL     1      23.583  60.689  22.958  1.00  0.00     0.082 C 
HETATM   25  C   UNL     1      23.804  61.396  21.604  1.00  0.00     0.077 C 
HETATM   26  C   UNL     1      23.441  60.459  20.455  1.00  0.00     0.051 C 
HETATM   27  C   UNL     1      22.936  62.658  21.519  1.00  0.00     0.028 C 
BRANCH  25  28
HETATM   28  O   UNL     1      25.165  61.826  21.583  1.00  0.00    -0.386 OA
ATOM     29  HO  UNL     1      25.737  61.302  22.132  1.00  0.00     0.211 HD
ENDBRANCH  25  28
ENDBRANCH   2  16
TORSDOF 4
ENDMDL
MODEL 5
REMARK VINA RESULT:      -7.0      1.624      6.154
REMARK  4 active torsions:
REMARK  status: ('A' for Active; 'I' for Inactive)
REMARK    1  A    between atoms: C_4  and  C_21 
REMARK    2  A    between atoms: C_6  and  C_21 
REMARK    3  A    between atoms: C_11  and  O_27 
REMARK    4  A    between atoms: C_12  and  N_24 
ROOT
HETATM    1  O   UNL     1      22.301  64.338  21.243  1.00  0.00    -0.292 OA
HETATM    2  C   UNL     1      21.884  63.196  21.367  1.00  0.00     0.168 C 
ENDROOT
BRANCH   2   3
HETATM    3  C   UNL     1      22.779  62.017  21.011  1.00  0.00     0.095 C 
HETATM    4  C   UNL     1      23.778  61.839  22.187  1.00  0.00    -0.001 C 
HETATM    5  C   UNL     1      24.058  60.363  22.473  1.00  0.00     0.005 C 
HETATM    6  C   UNL     1      25.088  62.564  21.858  1.00  0.00     0.010 C 
HETATM    7  C   UNL     1      25.532  59.980  22.470  1.00  0.00     0.001 C 
HETATM    8  C   UNL     1      26.276  60.463  21.245  1.00  0.00     0.005 C 
HETATM    9  C   UNL     1      25.784  61.818  20.731  1.00  0.00    -0.012 C 
HETATM   10  C   UNL     1      24.863  61.570  19.541  1.00  0.00     0.038 C 
HETATM   11  C   UNL     1      23.425  62.089  19.614  1.00  0.00     0.197 C 
BRANCH  11  12
HETATM   12  N   UNL     1      23.377  63.443  19.055  1.00  0.00    -0.074 N 
HETATM   13  C   UNL     1      24.413  63.732  18.058  1.00  0.00     0.267 C 
ATOM     14  HN2 UNL     1      22.452  63.634  18.669  1.00  0.00     0.277 HD
ATOM     15  HN1 UNL     1      23.403  64.136  19.803  1.00  0.00     0.277 HD
ENDBRANCH  11  12
ENDBRANCH   2   3
BRANCH   2  16
HETATM   16  C   UNL     1      20.490  62.990  21.865  1.00  0.00     0.036 C 
HETATM   17  C   UNL     1      19.505  64.041  21.568  1.00  0.00     0.052 C 
HETATM   18  N   UNL     1      19.864  65.148  20.877  1.00  0.00    -0.365 N 
HETATM   19  C   UNL     1      18.194  63.888  22.063  1.00  0.00    -0.027 C 
HETATM   20  C   UNL     1      18.921  66.031  20.512  1.00  0.00     0.088 C 
ATOM     21  HN  UNL     1      20.842  65.310  20.636  1.00  0.00     0.165 HD
HETATM   22  C   UNL     1      17.600  65.923  20.928  1.00  0.00     0.018 C 
HETATM   23  C   UNL     1      17.241  64.836  21.706  1.00  0.00     0.011 C 
HETATM   24  C   UNL     1      17.794  62.665  22.852  1.00  0.00     0.082 C 
HETATM   25  C   UNL     1      18.765  61.472  22.716  1.00  0.00     0.077 C 
HETATM   26  C   UNL     1      18.498  60.723  21.412  1.00  0.00     0.051 C 
HETATM   27  C   UNL     1      20.216  61.968  22.725  1.00  0.00     0.028 C 
BRANCH  25  28
HETATM   28  O   UNL     1      18.592  60.670  23.883  1.00  0.00    -0.386 OA
ATOM     29  HO  UNL     1      17.781  60.841  24.346  1.00  0.00     0.211 HD
ENDBRANCH  25  28
ENDBRANCH   2  16
TORSDOF 4
ENDMDL
MODEL 6
REMARK VINA RESULT:      -6.9      1.791      7.054
REMARK  4 active torsions:
REMARK  status: ('A' for Active; 'I' for Inactive)
REMARK    1  A    between atoms: C_4  and  C_21 
REMARK    2  A    between atoms: C_6  and  C_21 
REMARK    3  A    between atoms: C_11  and  O_27 
REMARK    4  A    between atoms: C_12  and  N_24 
ROOT
HETATM    1  O   UNL     1      20.209  62.692  21.063  1.00  0.00    -0.292 OA
HETATM    2  C   UNL     1      21.158  63.372  21.421  1.00  0.00     0.168 C 
ENDROOT
BRANCH   2   3
HETATM    3  C   UNL     1      22.289  62.739  22.219  1.00  0.00     0.095 C 
HETATM    4  C   UNL     1      23.348  62.254  21.191  1.00  0.00    -0.001 C 
HETATM    5  C   UNL     1      24.773  62.464  21.706  1.00  0.00     0.005 C 
HETATM    6  C   UNL     1      23.119  60.769  20.884  1.00  0.00     0.010 C 
HETATM    7  C   UNL     1      25.646  61.216  21.698  1.00  0.00     0.001 C 
HETATM    8  C   UNL     1      24.987  60.018  22.347  1.00  0.00     0.005 C 
HETATM    9  C   UNL     1      23.475  59.959  22.119  1.00  0.00    -0.012 C 
HETATM   10  C   UNL     1      22.783  60.475  23.376  1.00  0.00     0.038 C 
HETATM   11  C   UNL     1      21.846  61.679  23.246  1.00  0.00     0.197 C 
BRANCH  11  12
HETATM   12  N   UNL     1      20.485  61.200  22.990  1.00  0.00    -0.074 N 
HETATM   13  C   UNL     1      19.935  60.329  24.034  1.00  0.00     0.267 C 
ATOM     14  HN2 UNL     1      19.859  61.987  22.820  1.00  0.00     0.277 HD
ATOM     15  HN1 UNL     1      20.438  60.737  22.083  1.00  0.00     0.277 HD
ENDBRANCH  11  12
ENDBRANCH   2   3
BRANCH   2  16
HETATM   16  C   UNL     1      21.177  64.825  21.065  1.00  0.00     0.036 C 
HETATM   17  C   UNL     1      19.988  65.618  21.407  1.00  0.00     0.052 C 
HETATM   18  N   UNL     1      18.923  65.042  22.013  1.00  0.00    -0.365 N 
HETATM   19  C   UNL     1      19.966  66.981  21.045  1.00  0.00    -0.027 C 
HETATM   20  C   UNL     1      17.904  65.812  22.427  1.00  0.00     0.088 C 
ATOM     21  HN  UNL     1      18.896  64.032  22.155  1.00  0.00     0.165 HD
HETATM   22  C   UNL     1      17.834  67.169  22.141  1.00  0.00     0.018 C 
HETATM   23  C   UNL     1      18.882  67.752  21.448  1.00  0.00     0.011 C 
HETATM   24  C   UNL     1      21.142  67.623  20.351  1.00  0.00     0.082 C 
HETATM   25  C   UNL     1      22.457  66.820  20.447  1.00  0.00     0.077 C 
HETATM   26  C   UNL     1      23.122  67.058  21.801  1.00  0.00     0.051 C 
HETATM   27  C   UNL     1      22.174  65.322  20.280  1.00  0.00     0.028 C 
BRANCH  25  28
HETATM   28  O   UNL     1      23.261  67.217  19.337  1.00  0.00    -0.386 OA
ATOM     29  HO  UNL     1      23.442  68.150  19.313  1.00  0.00     0.211 HD
ENDBRANCH  25  28
ENDBRANCH   2  16
TORSDOF 4
ENDMDL
MODEL 7
REMARK VINA RESULT:      -6.9      2.718      4.843
REMARK  4 active torsions:
REMARK  status: ('A' for Active; 'I' for Inactive)
REMARK    1  A    between atoms: C_4  and  C_21 
REMARK    2  A    between atoms: C_6  and  C_21 
REMARK    3  A    between atoms: C_11  and  O_27 
REMARK    4  A    between atoms: C_12  and  N_24 
ROOT
HETATM    1  O   UNL     1      22.324  66.568  22.107  1.00  0.00    -0.292 OA
HETATM    2  C   UNL     1      22.262  65.992  21.032  1.00  0.00     0.168 C 
ENDROOT
BRANCH   2   3
HETATM    3  C   UNL     1      21.204  66.392  20.014  1.00  0.00     0.095 C 
HETATM    4  C   UNL     1      21.649  67.753  19.413  1.00  0.00    -0.001 C 
HETATM    5  C   UNL     1      21.335  67.842  17.919  1.00  0.00     0.005 C 
HETATM    6  C   UNL     1      20.948  68.894  20.161  1.00  0.00     0.010 C 
HETATM    7  C   UNL     1      20.515  69.059  17.509  1.00  0.00     0.001 C 
HETATM    8  C   UNL     1      19.277  69.260  18.353  1.00  0.00     0.005 C 
HETATM    9  C   UNL     1      19.468  68.860  19.818  1.00  0.00    -0.012 C 
HETATM   10  C   UNL     1      18.854  67.479  20.020  1.00  0.00     0.038 C 
HETATM   11  C   UNL     1      19.754  66.352  20.532  1.00  0.00     0.197 C 
BRANCH  11  12
HETATM   12  N   UNL     1      19.694  66.322  21.996  1.00  0.00    -0.074 N 
HETATM   13  C   UNL     1      18.346  66.455  22.558  1.00  0.00     0.267 C 
ATOM     14  HN2 UNL     1      20.143  65.477  22.352  1.00  0.00     0.277 HD
ATOM     15  HN1 UNL     1      20.313  67.030  22.390  1.00  0.00     0.277 HD
ENDBRANCH  11  12
ENDBRANCH   2   3
BRANCH   2  16
HETATM   16  C   UNL     1      23.237  64.894  20.748  1.00  0.00     0.036 C 
HETATM   17  C   UNL     1      22.889  63.545  21.219  1.00  0.00     0.052 C 
HETATM   18  N   UNL     1      21.733  63.323  21.887  1.00  0.00    -0.365 N 
HETATM   19  C   UNL     1      23.811  62.501  20.999  1.00  0.00    -0.027 C 
HETATM   20  C   UNL     1      21.381  62.064  22.194  1.00  0.00     0.088 C 
ATOM     21  HN  UNL     1      21.134  64.105  22.154  1.00  0.00     0.165 HD
HETATM   22  C   UNL     1      22.221  60.982  21.971  1.00  0.00     0.018 C 
HETATM   23  C   UNL     1      23.443  61.211  21.362  1.00  0.00     0.011 C 
HETATM   24  C   UNL     1      25.111  62.747  20.273  1.00  0.00     0.082 C 
HETATM   25  C   UNL     1      25.153  64.063  19.466  1.00  0.00     0.077 C 
HETATM   26  C   UNL     1      24.436  63.885  18.130  1.00  0.00     0.051 C 
HETATM   27  C   UNL     1      24.474  65.189  20.257  1.00  0.00     0.028 C 
BRANCH  25  28
HETATM   28  O   UNL     1      26.528  64.419  19.335  1.00  0.00    -0.386 OA
ATOM     29  HO  UNL     1      27.124  63.692  19.470  1.00  0.00     0.211 HD
ENDBRANCH  25  28
ENDBRANCH   2  16
TORSDOF 4
ENDMDL
MODEL 8
REMARK VINA RESULT:      -6.8      2.648      5.493
REMARK  4 active torsions:
REMARK  status: ('A' for Active; 'I' for Inactive)
REMARK    1  A    between atoms: C_4  and  C_21 
REMARK    2  A    between atoms: C_6  and  C_21 
REMARK    3  A    between atoms: C_11  and  O_27 
REMARK    4  A    between atoms: C_12  and  N_24 
ROOT
HETATM    1  O   UNL     1      21.844  64.940  20.666  1.00  0.00    -0.292 OA
HETATM    2  C   UNL     1      22.793  64.237  20.977  1.00  0.00     0.168 C 
ENDROOT
BRANCH   2   3
HETATM    3  C   UNL     1      24.213  64.713  20.702  1.00  0.00     0.095 C 
HETATM    4  C   UNL     1      24.207  66.259  20.848  1.00  0.00    -0.001 C 
HETATM    5  C   UNL     1      25.493  66.770  21.499  1.00  0.00     0.005 C 
HETATM    6  C   UNL     1      24.031  66.901  19.467  1.00  0.00     0.010 C 
HETATM    7  C   UNL     1      26.228  67.842  20.705  1.00  0.00     0.001 C 
HETATM    8  C   UNL     1      26.444  67.474  19.254  1.00  0.00     0.005 C 
HETATM    9  C   UNL     1      25.294  66.660  18.657  1.00  0.00    -0.012 C 
HETATM   10  C   UNL     1      25.706  65.192  18.641  1.00  0.00     0.038 C 
HETATM   11  C   UNL     1      24.833  64.185  19.394  1.00  0.00     0.197 C 
BRANCH  11  12
HETATM   12  N   UNL     1      23.818  63.655  18.478  1.00  0.00    -0.074 N 
HETATM   13  C   UNL     1      24.017  62.257  18.083  1.00  0.00     0.267 C 
ATOM     14  HN2 UNL     1      22.885  63.782  18.873  1.00  0.00     0.277 HD
ATOM     15  HN1 UNL     1      23.742  64.249  17.653  1.00  0.00     0.277 HD
ENDBRANCH  11  12
ENDBRANCH   2   3
BRANCH   2  16
HETATM   16  C   UNL     1      22.528  62.915  21.623  1.00  0.00     0.036 C 
HETATM   17  C   UNL     1      21.129  62.586  21.936  1.00  0.00     0.052 C 
HETATM   18  N   UNL     1      20.134  63.458  21.651  1.00  0.00    -0.365 N 
HETATM   19  C   UNL     1      20.859  61.362  22.582  1.00  0.00    -0.027 C 
HETATM   20  C   UNL     1      18.858  63.082  21.830  1.00  0.00     0.088 C 
ATOM     21  HN  UNL     1      20.352  64.392  21.303  1.00  0.00     0.165 HD
HETATM   22  C   UNL     1      18.515  61.874  22.424  1.00  0.00     0.018 C 
HETATM   23  C   UNL     1      19.531  61.010  22.795  1.00  0.00     0.011 C 
HETATM   24  C   UNL     1      21.967  60.395  22.919  1.00  0.00     0.082 C 
HETATM   25  C   UNL     1      23.290  60.650  22.164  1.00  0.00     0.077 C 
HETATM   26  C   UNL     1      23.210  60.071  20.754  1.00  0.00     0.051 C 
HETATM   27  C   UNL     1      23.566  62.156  22.076  1.00  0.00     0.028 C 
BRANCH  25  28
HETATM   28  O   UNL     1      24.330  60.082  22.958  1.00  0.00    -0.386 OA
ATOM     29  HO  UNL     1      25.031  59.696  22.447  1.00  0.00     0.211 HD
ENDBRANCH  25  28
ENDBRANCH   2  16
TORSDOF 4
ENDMDL
MODEL 9
REMARK VINA RESULT:      -6.8      2.419      5.153
REMARK  4 active torsions:
REMARK  status: ('A' for Active; 'I' for Inactive)
REMARK    1  A    between atoms: C_4  and  C_21 
REMARK    2  A    between atoms: C_6  and  C_21 
REMARK    3  A    between atoms: C_11  and  O_27 
REMARK    4  A    between atoms: C_12  and  N_24 
ROOT
HETATM    1  O   UNL     1      21.523  65.205  22.168  1.00  0.00    -0.292 OA
HETATM    2  C   UNL     1      22.115  64.397  21.469  1.00  0.00     0.168 C 
ENDROOT
BRANCH   2   3
HETATM    3  C   UNL     1      22.897  64.873  20.252  1.00  0.00     0.095 C 
HETATM    4  C   UNL     1      24.369  65.060  20.708  1.00  0.00    -0.001 C 
HETATM    5  C   UNL     1      25.356  64.630  19.621  1.00  0.00     0.005 C 
HETATM    6  C   UNL     1      24.607  66.529  21.076  1.00  0.00     0.010 C 
HETATM    7  C   UNL     1      26.384  65.686  19.238  1.00  0.00     0.001 C 
HETATM    8  C   UNL     1      25.774  67.037  18.937  1.00  0.00     0.005 C 
HETATM    9  C   UNL     1      24.556  67.361  19.805  1.00  0.00    -0.012 C 
HETATM   10  C   UNL     1      23.300  67.094  18.983  1.00  0.00     0.038 C 
HETATM   11  C   UNL     1      22.284  66.081  19.517  1.00  0.00     0.197 C 
BRANCH  11  12
HETATM   12  N   UNL     1      21.298  66.784  20.342  1.00  0.00    -0.074 N 
HETATM   13  C   UNL     1      20.121  67.266  19.613  1.00  0.00     0.267 C 
ATOM     14  HN2 UNL     1      21.012  66.199  21.128  1.00  0.00     0.277 HD
ATOM     15  HN1 UNL     1      21.741  67.552  20.846  1.00  0.00     0.277 HD
ENDBRANCH  11  12
ENDBRANCH   2   3
BRANCH   2  16
HETATM   16  C   UNL     1      22.050  62.948  21.833  1.00  0.00     0.036 C 
HETATM   17  C   UNL     1      20.718  62.376  22.082  1.00  0.00     0.052 C 
HETATM   18  N   UNL     1      19.607  63.143  21.989  1.00  0.00    -0.365 N 
HETATM   19  C   UNL     1      20.634  61.021  22.466  1.00  0.00    -0.027 C 
HETATM   20  C   UNL     1      18.399  62.569  22.098  1.00  0.00     0.088 C 
ATOM     21  HN  UNL     1      19.688  64.149  21.838  1.00  0.00     0.165 HD
HETATM   22  C   UNL     1      18.239  61.231  22.435  1.00  0.00     0.018 C 
HETATM   23  C   UNL     1      19.373  60.456  22.613  1.00  0.00     0.011 C 
HETATM   24  C   UNL     1      21.871  60.167  22.590  1.00  0.00     0.082 C 
HETATM   25  C   UNL     1      23.121  60.746  21.892  1.00  0.00     0.077 C 
HETATM   26  C   UNL     1      23.068  60.458  20.394  1.00  0.00     0.051 C 
HETATM   27  C   UNL     1      23.193  62.262  22.112  1.00  0.00     0.028 C 
BRANCH  25  28
HETATM   28  O   UNL     1      24.255  60.176  22.545  1.00  0.00    -0.386 OA
ATOM     29  HO  UNL     1      25.005  60.757  22.580  1.00  0.00     0.211 HD
ENDBRANCH  25  28
ENDBRANCH   2  16
TORSDOF 4
ENDMDL
