REMARK  5 active torsions:
REMARK  status: ('A' for Active; 'I' for Inactive)
REMARK       I    between atoms: C_3  and  N_24 
REMARK       I    between atoms: C_3  and  N_28 
REMARK    1  A    between atoms: C_4  and  N_12 
REMARK    2  A    between atoms: C_5  and  C_17 
REMARK    3  A    between atoms: C_6  and  N_18 
REMARK    4  A    between atoms: C_11  and  N_24 
REMARK    5  A    between atoms: C_11  and  C_30 
ROOT
HETATM    1  C   UNL     1     -16.839 -19.695 -23.961  1.00  0.00     0.051 C 
HETATM    2  O   UNL     1     -15.837 -21.758 -20.385  1.00  0.00    -0.246 OA
HETATM    3  C   UNL     1     -15.130 -20.797 -20.661  1.00  0.00     0.344 C 
HETATM    4  C   UNL     1     -16.027 -18.915 -21.966  1.00  0.00     0.689 C 
HETATM    5  C   UNL     1     -20.012 -19.615 -25.923  1.00  0.00     0.065 C 
HETATM    6  N   UNL     1     -16.834 -18.729 -23.025  1.00  0.00    -0.193 N 
ATOM      7  HN  UNL     1     -17.415 -17.895 -23.114  1.00  0.00     0.184 HD
HETATM    8  C   UNL     1     -18.990 -22.399 -24.898  1.00  0.00     0.011 C 
HETATM    9  C   UNL     1     -20.566 -20.882 -26.119  1.00  0.00     0.142 C 
HETATM   10  C   UNL     1     -20.167 -22.035 -25.497  1.00  0.00     0.045 C 
HETATM   11  C   UNL     1     -14.749 -20.492 -23.049  1.00  0.00     0.258 C 
HETATM   12  C   UNL     1     -15.755 -20.700 -24.159  1.00  0.00     0.135 C 
HETATM   13  N   UNL     1     -14.140 -20.266 -19.852  1.00  0.00    -0.338 N 
ATOM     14  HN  UNL     1     -13.601 -19.467 -20.186  1.00  0.00     0.164 HD
HETATM   15  C   UNL     1     -18.994 -19.399 -25.023  1.00  0.00     0.046 C 
HETATM   16  N   UNL     1     -15.331 -20.101 -21.846  1.00  0.00    -0.063 N 
HETATM   17  C   UNL     1     -17.902 -21.595 -24.630  1.00  0.00    -0.045 C 
HETATM   18  O   UNL     1     -13.548 -20.533 -23.219  1.00  0.00    -0.271 OA
HETATM   19  F   UNL     1     -21.485 -21.010 -27.097  1.00  0.00    -0.204 F 
HETATM   20  C   UNL     1     -18.033 -20.217 -24.507  1.00  0.00    -0.004 C 
HETATM   21  C   UNL     1     -16.492 -22.048 -24.322  1.00  0.00     0.060 C 
ENDROOT
BRANCH   4  22
HETATM   22  N   UNL     1     -15.925 -17.991 -21.002  1.00  0.00    -0.234 N 
ATOM     23  HN2 UNL     1     -16.439 -17.115 -21.091  1.00  0.00     0.174 HD
ATOM     24  HN1 UNL     1     -15.313 -18.132 -20.199  1.00  0.00     0.174 HD
ENDBRANCH   4  22
BRANCH  13  25
HETATM   25  C   UNL     1     -13.850 -20.815 -18.545  1.00  0.00     0.163 C 
BRANCH  25  26
HETATM   26  C   UNL     1     -12.531 -20.464 -17.922  1.00  0.00    -0.034 C 
HETATM   27  C   UNL     1     -11.367 -20.013 -18.663  1.00  0.00    -0.051 C 
HETATM   28  C   UNL     1     -10.213 -20.813 -18.508  1.00  0.00     0.007 C 
HETATM   29  C   UNL     1     -10.015 -21.447 -17.255  1.00  0.00     0.001 C 
HETATM   30  C   UNL     1     -10.993 -21.268 -16.231  1.00  0.00     0.001 C 
HETATM   31  C   UNL     1     -12.281 -20.810 -16.578  1.00  0.00     0.009 C 
BRANCH  27  32
HETATM   32  C   UNL     1     -11.353 -18.703 -19.402  1.00  0.00     0.034 C 
HETATM   33  C   UNL     1      -9.915 -18.298 -19.644  1.00  0.00     0.010 C 
ENDBRANCH  27  32
ENDBRANCH  25  26
ENDBRANCH  13  25
BRANCH   5  34
HETATM   34  N   UNL     1     -20.491 -18.592 -26.642  1.00  0.00    -0.397 N 
ATOM     35  HN2 UNL     1     -21.246 -18.752 -27.309  1.00  0.00     0.156 HD
ATOM     36  HN1 UNL     1     -20.086 -17.667 -26.499  1.00  0.00     0.156 HD
ENDBRANCH   5  34
TORSDOF 5
