MODEL 1
REMARK VINA RESULT:      -7.9      0.000      0.000
REMARK  4 active torsions:
REMARK  status: ('A' for Active; 'I' for Inactive)
REMARK    1  A    between atoms: C_2  and  C_4 
REMARK    2  A    between atoms: C_2  and  C_7 
REMARK    3  A    between atoms: C_7  and  C_8 
REMARK    4  A    between atoms: C_8  and  C_16 
ROOT
HETATM    1  C   UNL     1      16.222   9.001  12.856  1.00  0.00     0.009 C 
ENDROOT
BRANCH   1   2
HETATM    2  C   UNL     1      17.144   9.568  13.908  1.00  0.00     0.039 C 
BRANCH   2   3
HETATM    3  C   UNL     1      18.612   9.435  13.603  1.00  0.00    -0.058 C 
HETATM    4  C   UNL     1      19.367  10.497  13.131  1.00  0.00     0.007 C 
HETATM    5  C   UNL     1      20.473  10.236  12.321  1.00  0.00     0.001 C 
HETATM    6  C   UNL     1      20.945   8.936  12.218  1.00  0.00     0.000 C 
HETATM    7  C   UNL     1      20.391   7.938  13.002  1.00  0.00     0.001 C 
HETATM    8  C   UNL     1      19.220   8.189  13.697  1.00  0.00     0.007 C 
ENDBRANCH   2   3
ENDBRANCH   1   2
BRANCH   1   9
HETATM    9  C   UNL     1      15.915   9.952  11.721  1.00  0.00     0.039 C 
BRANCH   9  10
HETATM   10  C   UNL     1      16.347   9.349  10.409  1.00  0.00    -0.058 C 
HETATM   11  C   UNL     1      15.399   8.993   9.466  1.00  0.00     0.007 C 
HETATM   12  C   UNL     1      15.746   8.411   8.259  1.00  0.00     0.001 C 
HETATM   13  C   UNL     1      16.876   7.791   7.827  1.00  0.00     0.000 C 
HETATM   14  C   UNL     1      18.193   8.064   8.100  1.00  0.00     0.000 C 
HETATM   15  C   UNL     1      18.530   8.809   9.238  1.00  0.00     0.001 C 
HETATM   16  C   UNL     1      17.701   9.159  10.247  1.00  0.00     0.007 C 
ENDBRANCH   9  10
ENDBRANCH   1   9
TORSDOF 4
ENDMDL
MODEL 2
REMARK VINA RESULT:      -7.5      0.996      4.706
REMARK  4 active torsions:
REMARK  status: ('A' for Active; 'I' for Inactive)
REMARK    1  A    between atoms: C_2  and  C_4 
REMARK    2  A    between atoms: C_2  and  C_7 
REMARK    3  A    between atoms: C_7  and  C_8 
REMARK    4  A    between atoms: C_8  and  C_16 
ROOT
HETATM    1  C   UNL     1      15.957  10.149  11.825  1.00  0.00     0.009 C 
ENDROOT
BRANCH   1   2
HETATM    2  C   UNL     1      16.103   9.022  10.832  1.00  0.00     0.039 C 
BRANCH   2   3
HETATM    3  C   UNL     1      16.950   9.342   9.630  1.00  0.00    -0.058 C 
HETATM    4  C   UNL     1      16.431   9.964   8.505  1.00  0.00     0.007 C 
HETATM    5  C   UNL     1      17.011   9.710   7.261  1.00  0.00     0.001 C 
HETATM    6  C   UNL     1      18.234   9.059   7.204  1.00  0.00     0.000 C 
HETATM    7  C   UNL     1      18.917   8.773   8.374  1.00  0.00     0.001 C 
HETATM    8  C   UNL     1      18.272   8.915   9.592  1.00  0.00     0.007 C 
ENDBRANCH   2   3
ENDBRANCH   1   2
BRANCH   1   9
HETATM    9  C   UNL     1      16.573   9.868  13.177  1.00  0.00     0.039 C 
BRANCH   9  10
HETATM   10  C   UNL     1      18.051   9.613  13.029  1.00  0.00    -0.058 C 
HETATM   11  C   UNL     1      18.898  10.647  12.668  1.00  0.00     0.007 C 
HETATM   12  C   UNL     1      20.258  10.455  12.494  1.00  0.00     0.001 C 
HETATM   13  C   UNL     1      21.014   9.341  12.306  1.00  0.00     0.000 C 
HETATM   14  C   UNL     1      20.882   8.084  12.840  1.00  0.00     0.000 C 
HETATM   15  C   UNL     1      19.648   7.672  13.362  1.00  0.00     0.001 C 
HETATM   16  C   UNL     1      18.466   8.318  13.240  1.00  0.00     0.007 C 
ENDBRANCH   9  10
ENDBRANCH   1   9
TORSDOF 4
ENDMDL
MODEL 3
REMARK VINA RESULT:      -7.4      8.717     11.798
REMARK  4 active torsions:
REMARK  status: ('A' for Active; 'I' for Inactive)
REMARK    1  A    between atoms: C_2  and  C_4 
REMARK    2  A    between atoms: C_2  and  C_7 
REMARK    3  A    between atoms: C_7  and  C_8 
REMARK    4  A    between atoms: C_8  and  C_16 
ROOT
HETATM    1  C   UNL     1      12.802   9.502  22.178  1.00  0.00     0.009 C 
ENDROOT
BRANCH   1   2
HETATM    2  C   UNL     1      11.724   8.990  21.254  1.00  0.00     0.039 C 
BRANCH   2   3
HETATM    3  C   UNL     1      10.656   9.993  20.909  1.00  0.00    -0.058 C 
HETATM    4  C   UNL     1      10.545  10.549  19.644  1.00  0.00     0.007 C 
HETATM    5  C   UNL     1      10.007  11.830  19.511  1.00  0.00     0.001 C 
HETATM    6  C   UNL     1       9.362  12.409  20.594  1.00  0.00     0.000 C 
HETATM    7  C   UNL     1       9.160  11.673  21.749  1.00  0.00     0.001 C 
HETATM    8  C   UNL     1       9.810  10.460  21.908  1.00  0.00     0.007 C 
ENDBRANCH   2   3
ENDBRANCH   1   2
BRANCH   1   9
HETATM    9  C   UNL     1      14.129   9.762  21.500  1.00  0.00     0.039 C 
BRANCH   9  10
HETATM   10  C   UNL     1      14.031  10.984  20.623  1.00  0.00    -0.058 C 
HETATM   11  C   UNL     1      13.680  12.205  21.174  1.00  0.00     0.007 C 
HETATM   12  C   UNL     1      13.551  13.347  20.403  1.00  0.00     0.001 C 
HETATM   13  C   UNL     1      13.404  13.545  19.067  1.00  0.00     0.000 C 
HETATM   14  C   UNL     1      13.953  12.867  18.008  1.00  0.00     0.000 C 
HETATM   15  C   UNL     1      14.442  11.566  18.190  1.00  0.00     0.001 C 
HETATM   16  C   UNL     1      14.274  10.787  19.282  1.00  0.00     0.007 C 
ENDBRANCH   9  10
ENDBRANCH   1   9
TORSDOF 4
ENDMDL
MODEL 4
REMARK VINA RESULT:      -7.0      1.357      2.324
REMARK  4 active torsions:
REMARK  status: ('A' for Active; 'I' for Inactive)
REMARK    1  A    between atoms: C_2  and  C_4 
REMARK    2  A    between atoms: C_2  and  C_7 
REMARK    3  A    between atoms: C_7  and  C_8 
REMARK    4  A    between atoms: C_8  and  C_16 
ROOT
HETATM    1  C   UNL     1      16.109   9.819  11.503  1.00  0.00     0.009 C 
ENDROOT
BRANCH   1   2
HETATM    2  C   UNL     1      16.768  10.333  12.760  1.00  0.00     0.039 C 
BRANCH   2   3
HETATM    3  C   UNL     1      18.164   9.823  12.999  1.00  0.00    -0.058 C 
HETATM    4  C   UNL     1      19.287  10.583  12.710  1.00  0.00     0.007 C 
HETATM    5  C   UNL     1      20.474   9.935  12.366  1.00  0.00     0.001 C 
HETATM    6  C   UNL     1      20.582   8.567  12.568  1.00  0.00     0.000 C 
HETATM    7  C   UNL     1      19.563   7.883  13.210  1.00  0.00     0.001 C 
HETATM    8  C   UNL     1      18.349   8.514  13.426  1.00  0.00     0.007 C 
ENDBRANCH   2   3
ENDBRANCH   1   2
BRANCH   1   9
HETATM    9  C   UNL     1      16.981   9.892  10.270  1.00  0.00     0.039 C 
BRANCH   9  10
HETATM   10  C   UNL     1      16.159   9.617   9.038  1.00  0.00    -0.058 C 
HETATM   11  C   UNL     1      16.736   9.723   7.783  1.00  0.00     0.007 C 
HETATM   12  C   UNL     1      16.013   9.507   6.623  1.00  0.00     0.001 C 
HETATM   13  C   UNL     1      14.680   9.474   6.361  1.00  0.00     0.000 C 
HETATM   14  C   UNL     1      13.641   9.000   7.122  1.00  0.00     0.000 C 
HETATM   15  C   UNL     1      13.802   8.848   8.505  1.00  0.00     0.001 C 
HETATM   16  C   UNL     1      14.837   9.298   9.251  1.00  0.00     0.007 C 
ENDBRANCH   9  10
ENDBRANCH   1   9
TORSDOF 4
ENDMDL
MODEL 5
REMARK VINA RESULT:      -7.0      1.067      2.230
REMARK  4 active torsions:
REMARK  status: ('A' for Active; 'I' for Inactive)
REMARK    1  A    between atoms: C_2  and  C_4 
REMARK    2  A    between atoms: C_2  and  C_7 
REMARK    3  A    between atoms: C_7  and  C_8 
REMARK    4  A    between atoms: C_8  and  C_16 
ROOT
HETATM    1  C   UNL     1      16.384   8.860  12.830  1.00  0.00     0.009 C 
ENDROOT
BRANCH   1   2
HETATM    2  C   UNL     1      17.584   9.265  13.649  1.00  0.00     0.039 C 
BRANCH   2   3
HETATM    3  C   UNL     1      18.912   9.080  12.963  1.00  0.00    -0.058 C 
HETATM    4  C   UNL     1      19.575   7.862  12.956  1.00  0.00     0.007 C 
HETATM    5  C   UNL     1      20.968   7.850  12.877  1.00  0.00     0.001 C 
HETATM    6  C   UNL     1      21.639   9.019  12.550  1.00  0.00     0.000 C 
HETATM    7  C   UNL     1      20.920  10.148  12.195  1.00  0.00     0.001 C 
HETATM    8  C   UNL     1      19.551  10.179  12.403  1.00  0.00     0.007 C 
ENDBRANCH   2   3
ENDBRANCH   1   2
BRANCH   1   9
HETATM    9  C   UNL     1      15.730   9.999  12.081  1.00  0.00     0.039 C 
BRANCH   9  10
HETATM   10  C   UNL     1      15.803   9.752  10.596  1.00  0.00    -0.058 C 
HETATM   11  C   UNL     1      17.035   9.690   9.965  1.00  0.00     0.007 C 
HETATM   12  C   UNL     1      17.151   9.492   8.600  1.00  0.00     0.001 C 
HETATM   13  C   UNL     1      16.271   9.623   7.573  1.00  0.00     0.000 C 
HETATM   14  C   UNL     1      14.928   9.349   7.520  1.00  0.00     0.000 C 
HETATM   15  C   UNL     1      14.183   9.275   8.705  1.00  0.00     0.001 C 
HETATM   16  C   UNL     1      14.598   9.632   9.941  1.00  0.00     0.007 C 
ENDBRANCH   9  10
ENDBRANCH   1   9
TORSDOF 4
ENDMDL
MODEL 6
REMARK VINA RESULT:      -6.9      9.159     11.837
REMARK  4 active torsions:
REMARK  status: ('A' for Active; 'I' for Inactive)
REMARK    1  A    between atoms: C_2  and  C_4 
REMARK    2  A    between atoms: C_2  and  C_7 
REMARK    3  A    between atoms: C_7  and  C_8 
REMARK    4  A    between atoms: C_8  and  C_16 
ROOT
HETATM    1  C   UNL     1      13.372   9.757  22.458  1.00  0.00     0.009 C 
ENDROOT
BRANCH   1   2
HETATM    2  C   UNL     1      14.389   9.938  21.358  1.00  0.00     0.039 C 
BRANCH   2   3
HETATM    3  C   UNL     1      14.298  11.246  20.619  1.00  0.00    -0.058 C 
HETATM    4  C   UNL     1      13.660  12.354  21.155  1.00  0.00     0.007 C 
HETATM    5  C   UNL     1      13.075  13.283  20.293  1.00  0.00     0.001 C 
HETATM    6  C   UNL     1      13.362  13.223  18.937  1.00  0.00     0.000 C 
HETATM    7  C   UNL     1      14.306  12.323  18.473  1.00  0.00     0.001 C 
HETATM    8  C   UNL     1      14.776  11.331  19.317  1.00  0.00     0.007 C 
ENDBRANCH   2   3
ENDBRANCH   1   2
BRANCH   1   9
HETATM    9  C   UNL     1      12.156   8.955  22.053  1.00  0.00     0.039 C 
BRANCH   9  10
HETATM   10  C   UNL     1      11.130   9.856  21.415  1.00  0.00    -0.058 C 
HETATM   11  C   UNL     1      10.991   9.879  20.037  1.00  0.00     0.007 C 
HETATM   12  C   UNL     1      10.082  10.710  19.405  1.00  0.00     0.001 C 
HETATM   13  C   UNL     1       9.408  11.817  19.814  1.00  0.00     0.000 C 
HETATM   14  C   UNL     1       8.868  12.121  21.038  1.00  0.00     0.000 C 
HETATM   15  C   UNL     1       9.321  11.457  22.186  1.00  0.00     0.001 C 
HETATM   16  C   UNL     1      10.399  10.645  22.274  1.00  0.00     0.007 C 
ENDBRANCH   9  10
ENDBRANCH   1   9
TORSDOF 4
ENDMDL
MODEL 7
REMARK VINA RESULT:      -6.7      1.200      1.779
REMARK  4 active torsions:
REMARK  status: ('A' for Active; 'I' for Inactive)
REMARK    1  A    between atoms: C_2  and  C_4 
REMARK    2  A    between atoms: C_2  and  C_7 
REMARK    3  A    between atoms: C_7  and  C_8 
REMARK    4  A    between atoms: C_8  and  C_16 
ROOT
HETATM    1  C   UNL     1      16.063   9.842  11.775  1.00  0.00     0.009 C 
ENDROOT
BRANCH   1   2
HETATM    2  C   UNL     1      16.787  10.245  13.037  1.00  0.00     0.039 C 
BRANCH   2   3
HETATM    3  C   UNL     1      18.220   9.792  13.118  1.00  0.00    -0.058 C 
HETATM    4  C   UNL     1      19.278  10.631  12.801  1.00  0.00     0.007 C 
HETATM    5  C   UNL     1      20.460  10.075  12.309  1.00  0.00     0.001 C 
HETATM    6  C   UNL     1      20.648   8.704  12.389  1.00  0.00     0.000 C 
HETATM    7  C   UNL     1      19.721   7.919  13.056  1.00  0.00     0.001 C 
HETATM    8  C   UNL     1      18.503   8.466  13.421  1.00  0.00     0.007 C 
ENDBRANCH   2   3
ENDBRANCH   1   2
BRANCH   1   9
HETATM    9  C   UNL     1      16.926   9.857  10.533  1.00  0.00     0.039 C 
BRANCH   9  10
HETATM   10  C   UNL     1      16.089   9.550   9.318  1.00  0.00    -0.058 C 
HETATM   11  C   UNL     1      14.758   9.198   9.466  1.00  0.00     0.007 C 
HETATM   12  C   UNL     1      13.958   8.882   8.382  1.00  0.00     0.001 C 
HETATM   13  C   UNL     1      14.240   8.533   7.099  1.00  0.00     0.000 C 
HETATM   14  C   UNL     1      15.236   8.972   6.264  1.00  0.00     0.000 C 
HETATM   15  C   UNL     1      16.384   9.571   6.800  1.00  0.00     0.001 C 
HETATM   16  C   UNL     1      16.736   9.614   8.105  1.00  0.00     0.007 C 
ENDBRANCH   9  10
ENDBRANCH   1   9
TORSDOF 4
ENDMDL
MODEL 8
REMARK VINA RESULT:      -6.6      1.269      3.265
REMARK  4 active torsions:
REMARK  status: ('A' for Active; 'I' for Inactive)
REMARK    1  A    between atoms: C_2  and  C_4 
REMARK    2  A    between atoms: C_2  and  C_7 
REMARK    3  A    between atoms: C_7  and  C_8 
REMARK    4  A    between atoms: C_8  and  C_16 
ROOT
HETATM    1  C   UNL     1      19.043   9.389  10.138  1.00  0.00     0.009 C 
ENDROOT
BRANCH   1   2
HETATM    2  C   UNL     1      19.396   8.698  11.433  1.00  0.00     0.039 C 
BRANCH   2   3
HETATM    3  C   UNL     1      18.526   9.065  12.605  1.00  0.00    -0.058 C 
HETATM    4  C   UNL     1      17.316   8.433  12.853  1.00  0.00     0.007 C 
HETATM    5  C   UNL     1      16.305   9.138  13.508  1.00  0.00     0.001 C 
HETATM    6  C   UNL     1      16.608  10.345  14.120  1.00  0.00     0.000 C 
HETATM    7  C   UNL     1      17.922  10.779  14.175  1.00  0.00     0.001 C 
HETATM    8  C   UNL     1      18.884  10.136  13.414  1.00  0.00     0.007 C 
ENDBRANCH   2   3
ENDBRANCH   1   2
BRANCH   1   9
HETATM    9  C   UNL     1      18.710   8.448   9.002  1.00  0.00     0.039 C 
BRANCH   9  10
HETATM   10  C   UNL     1      17.227   8.458   8.739  1.00  0.00    -0.058 C 
HETATM   11  C   UNL     1      16.694   7.649   7.750  1.00  0.00     0.007 C 
HETATM   12  C   UNL     1      15.342   7.645   7.455  1.00  0.00     0.001 C 
HETATM   13  C   UNL     1      14.336   8.516   7.732  1.00  0.00     0.000 C 
HETATM   14  C   UNL     1      14.111   9.278   8.850  1.00  0.00     0.000 C 
HETATM   15  C   UNL     1      15.168   9.564   9.725  1.00  0.00     0.001 C 
HETATM   16  C   UNL     1      16.481   9.325   9.506  1.00  0.00     0.007 C 
ENDBRANCH   9  10
ENDBRANCH   1   9
TORSDOF 4
ENDMDL
MODEL 9
REMARK VINA RESULT:      -6.5      1.353      6.087
REMARK  4 active torsions:
REMARK  status: ('A' for Active; 'I' for Inactive)
REMARK    1  A    between atoms: C_2  and  C_4 
REMARK    2  A    between atoms: C_2  and  C_7 
REMARK    3  A    between atoms: C_7  and  C_8 
REMARK    4  A    between atoms: C_8  and  C_16 
ROOT
HETATM    1  C   UNL     1      18.214   9.017   8.304  1.00  0.00     0.009 C 
ENDROOT
BRANCH   1   2
HETATM    2  C   UNL     1      17.484   7.972   7.496  1.00  0.00     0.039 C 
BRANCH   2   3
HETATM    3  C   UNL     1      15.984   8.102   7.499  1.00  0.00    -0.058 C 
HETATM    4  C   UNL     1      15.342   9.227   7.994  1.00  0.00     0.007 C 
HETATM    5  C   UNL     1      14.061   9.095   8.532  1.00  0.00     0.001 C 
HETATM    6  C   UNL     1      13.360   7.915   8.329  1.00  0.00     0.000 C 
HETATM    7  C   UNL     1      13.886   6.934   7.506  1.00  0.00     0.001 C 
HETATM    8  C   UNL     1      15.204   7.028   7.090  1.00  0.00     0.007 C 
ENDBRANCH   2   3
ENDBRANCH   1   2
BRANCH   1   9
HETATM    9  C   UNL     1      18.959   8.469   9.501  1.00  0.00     0.039 C 
BRANCH   9  10
HETATM   10  C   UNL     1      18.605   9.258  10.735  1.00  0.00    -0.058 C 
HETATM   11  C   UNL     1      19.606   9.709  11.578  1.00  0.00     0.007 C 
HETATM   12  C   UNL     1      19.327  10.413  12.737  1.00  0.00     0.001 C 
HETATM   13  C   UNL     1      18.196  10.560  13.476  1.00  0.00     0.000 C 
HETATM   14  C   UNL     1      16.887  10.657  13.076  1.00  0.00     0.000 C 
HETATM   15  C   UNL     1      16.506  10.188  11.812  1.00  0.00     0.001 C 
HETATM   16  C   UNL     1      17.261   9.455  10.963  1.00  0.00     0.007 C 
ENDBRANCH   9  10
ENDBRANCH   1   9
TORSDOF 4
ENDMDL
