REMARK  5 active torsions:
REMARK  status: ('A' for Active; 'I' for Inactive)
REMARK    1  A    between atoms: N_2  and  C_7 
REMARK    2  A    between atoms: N_2  and  C_23 
REMARK    3  A    between atoms: C_4  and  C_16 
REMARK    4  A    between atoms: O_9  and  C_16 
REMARK    5  A    between atoms: O_12  and  C_19 
ROOT
HETATM    1  C   UNL     1     -20.744  -1.019  -2.819  1.00  0.00     0.062 C 
HETATM    2  C   UNL     1     -21.707   0.730  -5.217  1.00  0.00     0.028 C 
HETATM    3  C   UNL     1     -19.622  -0.976  -3.639  1.00  0.00     0.020 C 
HETATM    4  C   UNL     1     -20.327   0.879  -5.141  1.00  0.00     0.029 C 
HETATM    5  C   UNL     1     -21.870  -0.233  -2.989  1.00  0.00     0.022 C 
HETATM    6  C   UNL     1     -22.441   0.390  -4.065  1.00  0.00     0.030 C 
HETATM    7  C   UNL     1     -19.442  -0.073  -4.679  1.00  0.00     0.003 C 
ENDROOT
BRANCH   2   8
HETATM    8  N   UNL     1     -22.329   0.909  -6.471  1.00  0.00    -0.385 N 
ATOM      9  HN  UNL     1     -23.183   1.452  -6.603  1.00  0.00     0.160 HD
BRANCH   8  10
HETATM   10  C   UNL     1     -21.625   0.237  -7.562  1.00  0.00     0.091 C 
HETATM   11  C   UNL     1     -21.089   1.117  -8.695  1.00  0.00     0.040 C 
HETATM   12  C   UNL     1     -20.527  -0.003  -9.580  1.00  0.00     0.052 C 
HETATM   13  C   UNL     1     -22.274   1.658  -9.539  1.00  0.00     0.127 C 
HETATM   14  C   UNL     1     -21.877  -0.705  -9.666  1.00  0.00     0.108 C 
HETATM   15  C   UNL     1     -22.763   0.397 -10.262  1.00  0.00     0.075 C 
HETATM   16  C   UNL     1     -22.362  -0.914  -8.229  1.00  0.00     0.069 C 
HETATM   17  F   UNL     1     -21.835  -1.882 -10.368  1.00  0.00    -0.243 F 
BRANCH  13  18
HETATM   18  O   UNL     1     -21.803   2.567 -10.545  1.00  0.00    -0.395 OA
ATOM     19  HO  UNL     1     -21.500   3.348 -10.097  1.00  0.00     0.210 HD
ENDBRANCH  13  18
ENDBRANCH   8  10
ENDBRANCH   2   8
BRANCH   1  20
HETATM   20  C   UNL     1     -20.753  -1.933  -1.625  1.00  0.00     0.359 C 
HETATM   21  F   UNL     1     -20.887  -1.143  -0.534  1.00  0.00    -0.142 F 
HETATM   22  O   UNL     1     -21.629  -2.875  -1.669  1.00  0.00    -0.233 OA
BRANCH  20  23
HETATM   23  O   UNL     1     -19.577  -2.617  -1.473  1.00  0.00    -0.311 OA
ATOM     24  HO  UNL     1     -19.583  -3.194  -0.719  1.00  0.00     0.223 HD
ENDBRANCH  20  23
ENDBRANCH   1  20
TORSDOF 5
