MODEL 1
REMARK VINA RESULT:      -8.4      0.000      0.000
REMARK  4 active torsions:
REMARK  status: ('A' for Active; 'I' for Inactive)
REMARK    1  A    between atoms: O_2  and  C_23 
REMARK    2  A    between atoms: N_5  and  C_7 
REMARK    3  A    between atoms: C_13  and  C_23 
REMARK    4  A    between atoms: O_18  and  C_20 
ROOT
HETATM    1  C   UNL     1       6.258  56.434   0.356  1.00  0.00     0.073 C 
HETATM    2  N   UNL     1       7.275  55.574   0.736  1.00  0.00    -0.284 N 
HETATM    3  C   UNL     1       6.163  57.400  -0.632  1.00  0.00     0.033 C 
HETATM    4  C   UNL     1       4.512  57.483   1.645  1.00  0.00     0.039 C 
HETATM    5  C   UNL     1       5.311  56.388   1.365  1.00  0.00     0.101 C 
HETATM    6  O   UNL     1       5.540  55.301   2.123  1.00  0.00    -0.289 OA
HETATM    7  C   UNL     1       4.521  58.543   0.737  1.00  0.00     0.003 C 
HETATM    8  C   UNL     1       5.252  58.435  -0.455  1.00  0.00     0.002 C 
HETATM    9  C   UNL     1       6.833  54.828   1.899  1.00  0.00     0.289 C 
ENDROOT
BRANCH   9  10
HETATM   10  O   UNL     1       7.625  55.135   2.890  1.00  0.00    -0.344 OA
ATOM     11  HO  UNL     1       7.261  55.897   3.324  1.00  0.00     0.215 HD
ENDBRANCH   9  10
BRANCH   9  12
HETATM   12  C   UNL     1       6.773  53.335   1.765  1.00  0.00     0.028 C 
HETATM   13  C   UNL     1       7.777  52.593   2.374  1.00  0.00     0.031 C 
HETATM   14  C   UNL     1       7.657  51.263   2.695  1.00  0.00     0.088 C 
HETATM   15  N   UNL     1       6.560  50.519   2.744  1.00  0.00    -0.375 N 
HETATM   16  C   UNL     1       5.390  50.767   2.208  1.00  0.00     0.087 C 
ATOM     17  HN  UNL     1       6.638  49.644   3.264  1.00  0.00     0.164 HD
HETATM   18  C   UNL     1       5.092  51.614   1.171  1.00  0.00     0.018 C 
HETATM   19  C   UNL     1       5.806  52.778   0.945  1.00  0.00     0.016 C 
ENDBRANCH   9  12
BRANCH   2  20
HETATM   20  C   UNL     1       8.572  55.566   0.191  1.00  0.00     0.043 C 
HETATM   21  C   UNL     1       9.250  56.742  -0.137  1.00  0.00     0.030 C 
HETATM   22  C   UNL     1      10.389  56.688  -0.931  1.00  0.00     0.005 C 
HETATM   23  C   UNL     1      10.940  55.455  -1.268  1.00  0.00     0.036 C 
HETATM   24  C   UNL     1      10.457  54.311  -0.647  1.00  0.00     0.067 C 
HETATM   25  C   UNL     1       9.212  54.345  -0.028  1.00  0.00     0.066 C 
BRANCH  24  26
HETATM   26  O   UNL     1      11.266  53.226  -0.549  1.00  0.00    -0.361 OA
ATOM     27  HO  UNL     1      11.980  53.128  -1.169  1.00  0.00     0.217 HD
ENDBRANCH  24  26
ENDBRANCH   2  20
TORSDOF 4
ENDMDL
MODEL 2
REMARK VINA RESULT:      -8.3      1.561      5.463
REMARK  4 active torsions:
REMARK  status: ('A' for Active; 'I' for Inactive)
REMARK    1  A    between atoms: O_2  and  C_23 
REMARK    2  A    between atoms: N_5  and  C_7 
REMARK    3  A    between atoms: C_13  and  C_23 
REMARK    4  A    between atoms: O_18  and  C_20 
ROOT
HETATM    1  C   UNL     1       6.615  52.939   1.126  1.00  0.00     0.073 C 
HETATM    2  N   UNL     1       7.214  54.186   1.059  1.00  0.00    -0.284 N 
HETATM    3  C   UNL     1       5.353  52.481   0.788  1.00  0.00     0.033 C 
HETATM    4  C   UNL     1       6.939  51.114   2.667  1.00  0.00     0.039 C 
HETATM    5  C   UNL     1       7.447  52.150   1.903  1.00  0.00     0.101 C 
HETATM    6  O   UNL     1       8.650  52.745   1.990  1.00  0.00    -0.289 OA
HETATM    7  C   UNL     1       5.612  50.738   2.453  1.00  0.00     0.003 C 
HETATM    8  C   UNL     1       4.872  51.344   1.428  1.00  0.00     0.002 C 
HETATM    9  C   UNL     1       8.544  54.088   1.629  1.00  0.00     0.289 C 
ENDROOT
BRANCH   9  10
HETATM   10  O   UNL     1       8.582  54.863   2.679  1.00  0.00    -0.344 OA
ATOM     11  HO  UNL     1       7.980  54.507   3.321  1.00  0.00     0.215 HD
ENDBRANCH   9  10
BRANCH   9  12
HETATM   12  C   UNL     1       9.695  54.427   0.728  1.00  0.00     0.028 C 
HETATM   13  C   UNL     1      10.420  53.374   0.187  1.00  0.00     0.031 C 
HETATM   14  C   UNL     1      11.204  53.482  -0.935  1.00  0.00     0.088 C 
HETATM   15  N   UNL     1      11.229  54.455  -1.837  1.00  0.00    -0.375 N 
HETATM   16  C   UNL     1      10.759  55.674  -1.724  1.00  0.00     0.087 C 
ATOM     17  HN  UNL     1      11.669  54.226  -2.728  1.00  0.00     0.164 HD
HETATM   18  C   UNL     1      10.486  56.378  -0.579  1.00  0.00     0.018 C 
HETATM   19  C   UNL     1      10.055  55.756   0.580  1.00  0.00     0.016 C 
ENDBRANCH   9  12
BRANCH   2  20
HETATM   20  C   UNL     1       6.566  55.373   0.669  1.00  0.00     0.043 C 
HETATM   21  C   UNL     1       6.832  56.000  -0.551  1.00  0.00     0.030 C 
HETATM   22  C   UNL     1       6.400  57.302  -0.771  1.00  0.00     0.005 C 
HETATM   23  C   UNL     1       5.571  57.923   0.160  1.00  0.00     0.036 C 
HETATM   24  C   UNL     1       5.036  57.165   1.194  1.00  0.00     0.067 C 
HETATM   25  C   UNL     1       5.622  55.947   1.521  1.00  0.00     0.066 C 
BRANCH  24  26
HETATM   26  O   UNL     1       3.878  57.572   1.774  1.00  0.00    -0.361 OA
ATOM     27  HO  UNL     1       3.254  56.917   2.062  1.00  0.00     0.217 HD
ENDBRANCH  24  26
ENDBRANCH   2  20
TORSDOF 4
ENDMDL
MODEL 3
REMARK VINA RESULT:      -7.9      2.272      6.320
REMARK  4 active torsions:
REMARK  status: ('A' for Active; 'I' for Inactive)
REMARK    1  A    between atoms: O_2  and  C_23 
REMARK    2  A    between atoms: N_5  and  C_7 
REMARK    3  A    between atoms: C_13  and  C_23 
REMARK    4  A    between atoms: O_18  and  C_20 
ROOT
HETATM    1  C   UNL     1       9.183  52.239   0.804  1.00  0.00     0.073 C 
HETATM    2  N   UNL     1       7.974  52.700   1.298  1.00  0.00    -0.284 N 
HETATM    3  C   UNL     1       9.624  50.985   0.415  1.00  0.00     0.033 C 
HETATM    4  C   UNL     1      11.440  52.984   1.205  1.00  0.00     0.039 C 
HETATM    5  C   UNL     1      10.099  53.259   1.002  1.00  0.00     0.101 C 
HETATM    6  O   UNL     1       9.429  54.399   1.247  1.00  0.00    -0.289 OA
HETATM    7  C   UNL     1      11.880  51.680   0.971  1.00  0.00     0.003 C 
HETATM    8  C   UNL     1      10.990  50.726   0.458  1.00  0.00     0.002 C 
HETATM    9  C   UNL     1       8.113  54.110   1.606  1.00  0.00     0.289 C 
ENDROOT
BRANCH   9  10
HETATM   10  O   UNL     1       7.932  54.253   2.891  1.00  0.00    -0.344 OA
ATOM     11  HO  UNL     1       8.703  53.912   3.330  1.00  0.00     0.215 HD
ENDBRANCH   9  10
BRANCH   9  12
HETATM   12  C   UNL     1       7.206  55.057   0.877  1.00  0.00     0.028 C 
HETATM   13  C   UNL     1       5.982  55.354   1.461  1.00  0.00     0.031 C 
HETATM   14  C   UNL     1       5.240  56.469   1.158  1.00  0.00     0.088 C 
HETATM   15  N   UNL     1       5.615  57.560   0.501  1.00  0.00    -0.375 N 
HETATM   16  C   UNL     1       6.658  57.715  -0.278  1.00  0.00     0.087 C 
ATOM     17  HN  UNL     1       5.018  58.378   0.618  1.00  0.00     0.164 HD
HETATM   18  C   UNL     1       7.389  56.750  -0.923  1.00  0.00     0.018 C 
HETATM   19  C   UNL     1       7.571  55.486  -0.388  1.00  0.00     0.016 C 
ENDBRANCH   9  12
BRANCH   2  20
HETATM   20  C   UNL     1       6.868  51.889   1.610  1.00  0.00     0.043 C 
HETATM   21  C   UNL     1       5.728  51.842   0.804  1.00  0.00     0.030 C 
HETATM   22  C   UNL     1       4.559  51.268   1.288  1.00  0.00     0.005 C 
HETATM   23  C   UNL     1       4.569  50.603   2.511  1.00  0.00     0.036 C 
HETATM   24  C   UNL     1       5.786  50.359   3.133  1.00  0.00     0.067 C 
HETATM   25  C   UNL     1       6.904  51.099   2.760  1.00  0.00     0.066 C 
BRANCH  24  26
HETATM   26  O   UNL     1       5.884  49.318   3.999  1.00  0.00    -0.361 OA
ATOM     27  HO  UNL     1       6.643  49.263   4.568  1.00  0.00     0.217 HD
ENDBRANCH  24  26
ENDBRANCH   2  20
TORSDOF 4
ENDMDL
MODEL 4
REMARK VINA RESULT:      -7.8      2.089      4.872
REMARK  4 active torsions:
REMARK  status: ('A' for Active; 'I' for Inactive)
REMARK    1  A    between atoms: O_2  and  C_23 
REMARK    2  A    between atoms: N_5  and  C_7 
REMARK    3  A    between atoms: C_13  and  C_23 
REMARK    4  A    between atoms: O_18  and  C_20 
ROOT
HETATM    1  C   UNL     1       5.729  56.841   1.155  1.00  0.00     0.073 C 
HETATM    2  N   UNL     1       6.443  55.718   0.774  1.00  0.00    -0.284 N 
HETATM    3  C   UNL     1       4.876  57.100   2.214  1.00  0.00     0.033 C 
HETATM    4  C   UNL     1       4.742  58.604  -0.159  1.00  0.00     0.039 C 
HETATM    5  C   UNL     1       5.773  57.713   0.080  1.00  0.00     0.101 C 
HETATM    6  O   UNL     1       6.755  57.323  -0.753  1.00  0.00    -0.289 OA
HETATM    7  C   UNL     1       3.777  58.765   0.836  1.00  0.00     0.003 C 
HETATM    8  C   UNL     1       3.924  58.103   2.064  1.00  0.00     0.002 C 
HETATM    9  C   UNL     1       7.115  56.004  -0.479  1.00  0.00     0.289 C 
ENDROOT
BRANCH   9  10
HETATM   10  O   UNL     1       6.638  55.188  -1.379  1.00  0.00    -0.344 OA
ATOM     11  HO  UNL     1       6.874  55.532  -2.232  1.00  0.00     0.215 HD
ENDBRANCH   9  10
BRANCH   9  12
HETATM   12  C   UNL     1       8.613  55.914  -0.481  1.00  0.00     0.028 C 
HETATM   13  C   UNL     1       9.185  54.700  -0.124  1.00  0.00     0.031 C 
HETATM   14  C   UNL     1      10.464  54.329  -0.460  1.00  0.00     0.088 C 
HETATM   15  N   UNL     1      11.277  54.876  -1.354  1.00  0.00    -0.375 N 
HETATM   16  C   UNL     1      11.195  56.065  -1.900  1.00  0.00     0.087 C 
ATOM     17  HN  UNL     1      12.064  54.300  -1.653  1.00  0.00     0.164 HD
HETATM   18  C   UNL     1      10.523  57.169  -1.438  1.00  0.00     0.018 C 
HETATM   19  C   UNL     1       9.349  57.063  -0.713  1.00  0.00     0.016 C 
ENDBRANCH   9  12
BRANCH   2  20
HETATM   20  C   UNL     1       6.374  54.464   1.409  1.00  0.00     0.043 C 
HETATM   21  C   UNL     1       6.996  54.214   2.634  1.00  0.00     0.030 C 
HETATM   22  C   UNL     1       7.152  52.907   3.080  1.00  0.00     0.005 C 
HETATM   23  C   UNL     1       6.552  51.862   2.383  1.00  0.00     0.036 C 
HETATM   24  C   UNL     1       5.652  52.160   1.368  1.00  0.00     0.067 C 
HETATM   25  C   UNL     1       5.658  53.431   0.802  1.00  0.00     0.066 C 
BRANCH  24  26
HETATM   26  O   UNL     1       4.703  51.245   1.043  1.00  0.00    -0.361 OA
ATOM     27  HO  UNL     1       4.694  50.411   1.498  1.00  0.00     0.217 HD
ENDBRANCH  24  26
ENDBRANCH   2  20
TORSDOF 4
ENDMDL
MODEL 5
REMARK VINA RESULT:      -6.8      1.829      2.357
REMARK  4 active torsions:
REMARK  status: ('A' for Active; 'I' for Inactive)
REMARK    1  A    between atoms: O_2  and  C_23 
REMARK    2  A    between atoms: N_5  and  C_7 
REMARK    3  A    between atoms: C_13  and  C_23 
REMARK    4  A    between atoms: O_18  and  C_20 
ROOT
HETATM    1  C   UNL     1       6.957  55.983   0.287  1.00  0.00     0.073 C 
HETATM    2  N   UNL     1       8.296  55.629   0.304  1.00  0.00    -0.284 N 
HETATM    3  C   UNL     1       6.221  56.841  -0.513  1.00  0.00     0.033 C 
HETATM    4  C   UNL     1       5.345  56.153   2.071  1.00  0.00     0.039 C 
HETATM    5  C   UNL     1       6.414  55.511   1.470  1.00  0.00     0.101 C 
HETATM    6  O   UNL     1       7.255  54.606   2.000  1.00  0.00    -0.289 OA
HETATM    7  C   UNL     1       4.684  57.140   1.338  1.00  0.00     0.003 C 
HETATM    8  C   UNL     1       5.052  57.385   0.007  1.00  0.00     0.002 C 
HETATM    9  C   UNL     1       8.519  54.735   1.425  1.00  0.00     0.289 C 
ENDROOT
BRANCH   9  10
HETATM   10  O   UNL     1       9.350  55.324   2.241  1.00  0.00    -0.344 OA
ATOM     11  HO  UNL     1       8.844  55.668   2.968  1.00  0.00     0.215 HD
ENDBRANCH   9  10
BRANCH   9  12
HETATM   12  C   UNL     1       9.035  53.363   1.107  1.00  0.00     0.028 C 
HETATM   13  C   UNL     1      10.359  53.251   0.703  1.00  0.00     0.031 C 
HETATM   14  C   UNL     1      11.084  52.087   0.773  1.00  0.00     0.088 C 
HETATM   15  N   UNL     1      10.801  50.974   1.436  1.00  0.00    -0.375 N 
HETATM   16  C   UNL     1       9.643  50.593   1.918  1.00  0.00     0.087 C 
ATOM     17  HN  UNL     1      11.581  50.335   1.589  1.00  0.00     0.164 HD
HETATM   18  C   UNL     1       8.389  51.012   1.552  1.00  0.00     0.018 C 
HETATM   19  C   UNL     1       8.147  52.301   1.107  1.00  0.00     0.016 C 
ENDBRANCH   9  12
BRANCH   2  20
HETATM   20  C   UNL     1       9.290  56.188  -0.519  1.00  0.00     0.043 C 
HETATM   21  C   UNL     1       9.441  57.568  -0.671  1.00  0.00     0.030 C 
HETATM   22  C   UNL     1      10.228  58.071  -1.701  1.00  0.00     0.005 C 
HETATM   23  C   UNL     1      10.986  57.201  -2.480  1.00  0.00     0.036 C 
HETATM   24  C   UNL     1      11.094  55.872  -2.092  1.00  0.00     0.067 C 
HETATM   25  C   UNL     1      10.162  55.342  -1.206  1.00  0.00     0.066 C 
BRANCH  24  26
HETATM   26  O   UNL     1      12.178  55.159  -2.489  1.00  0.00    -0.361 OA
ATOM     27  HO  UNL     1      12.398  55.132  -3.413  1.00  0.00     0.217 HD
ENDBRANCH  24  26
ENDBRANCH   2  20
TORSDOF 4
ENDMDL
MODEL 6
REMARK VINA RESULT:      -6.7      2.079      4.863
REMARK  4 active torsions:
REMARK  status: ('A' for Active; 'I' for Inactive)
REMARK    1  A    between atoms: O_2  and  C_23 
REMARK    2  A    between atoms: N_5  and  C_7 
REMARK    3  A    between atoms: C_13  and  C_23 
REMARK    4  A    between atoms: O_18  and  C_20 
ROOT
HETATM    1  C   UNL     1       9.002  57.171  -0.752  1.00  0.00     0.073 C 
HETATM    2  N   UNL     1       7.852  56.634  -0.199  1.00  0.00    -0.284 N 
HETATM    3  C   UNL     1       9.397  58.470  -1.025  1.00  0.00     0.033 C 
HETATM    4  C   UNL     1      10.522  56.289  -2.401  1.00  0.00     0.039 C 
HETATM    5  C   UNL     1       9.702  56.110  -1.301  1.00  0.00     0.101 C 
HETATM    6  O   UNL     1       9.215  54.963  -0.795  1.00  0.00    -0.289 OA
HETATM    7  C   UNL     1      10.807  57.598  -2.794  1.00  0.00     0.003 C 
HETATM    8  C   UNL     1      10.342  58.674  -2.025  1.00  0.00     0.002 C 
HETATM    9  C   UNL     1       7.962  55.188  -0.226  1.00  0.00     0.289 C 
ENDROOT
BRANCH   9  10
HETATM   10  O   UNL     1       7.008  54.733  -0.991  1.00  0.00    -0.344 OA
ATOM     11  HO  UNL     1       6.372  54.302  -0.433  1.00  0.00     0.215 HD
ENDBRANCH   9  10
BRANCH   9  12
HETATM   12  C   UNL     1       7.909  54.479   1.095  1.00  0.00     0.028 C 
HETATM   13  C   UNL     1       8.135  55.233   2.240  1.00  0.00     0.031 C 
HETATM   14  C   UNL     1       7.730  54.855   3.496  1.00  0.00     0.088 C 
HETATM   15  N   UNL     1       6.870  53.905   3.839  1.00  0.00    -0.375 N 
HETATM   16  C   UNL     1       6.440  52.903   3.110  1.00  0.00     0.087 C 
ATOM     17  HN  UNL     1       6.496  53.962   4.786  1.00  0.00     0.164 HD
HETATM   18  C   UNL     1       7.021  52.349   1.998  1.00  0.00     0.018 C 
HETATM   19  C   UNL     1       7.766  53.102   1.107  1.00  0.00     0.016 C 
ENDBRANCH   9  12
BRANCH   2  20
HETATM   20  C   UNL     1       6.706  57.370   0.157  1.00  0.00     0.043 C 
HETATM   21  C   UNL     1       5.624  56.789   0.821  1.00  0.00     0.030 C 
HETATM   22  C   UNL     1       4.411  57.462   0.893  1.00  0.00     0.005 C 
HETATM   23  C   UNL     1       4.320  58.776   0.441  1.00  0.00     0.036 C 
HETATM   24  C   UNL     1       5.486  59.453   0.106  1.00  0.00     0.067 C 
HETATM   25  C   UNL     1       6.644  58.729  -0.157  1.00  0.00     0.066 C 
BRANCH  24  26
HETATM   26  O   UNL     1       5.498  60.809   0.169  1.00  0.00    -0.361 OA
ATOM     27  HO  UNL     1       4.914  61.246   0.777  1.00  0.00     0.217 HD
ENDBRANCH  24  26
ENDBRANCH   2  20
TORSDOF 4
ENDMDL
MODEL 7
REMARK VINA RESULT:      -6.5      2.192      5.204
REMARK  4 active torsions:
REMARK  status: ('A' for Active; 'I' for Inactive)
REMARK    1  A    between atoms: O_2  and  C_23 
REMARK    2  A    between atoms: N_5  and  C_7 
REMARK    3  A    between atoms: C_13  and  C_23 
REMARK    4  A    between atoms: O_18  and  C_20 
ROOT
HETATM    1  C   UNL     1       8.854  54.232   0.670  1.00  0.00     0.073 C 
HETATM    2  N   UNL     1       8.436  55.293  -0.116  1.00  0.00    -0.284 N 
HETATM    3  C   UNL     1      10.105  53.720   0.972  1.00  0.00     0.033 C 
HETATM    4  C   UNL     1       7.795  52.126   1.173  1.00  0.00     0.039 C 
HETATM    5  C   UNL     1       7.721  53.491   0.959  1.00  0.00     0.101 C 
HETATM    6  O   UNL     1       6.636  54.241   0.696  1.00  0.00    -0.289 OA
HETATM    7  C   UNL     1       9.062  51.560   1.323  1.00  0.00     0.003 C 
HETATM    8  C   UNL     1      10.197  52.384   1.345  1.00  0.00     0.002 C 
HETATM    9  C   UNL     1       6.986  55.314  -0.124  1.00  0.00     0.289 C 
ENDROOT
BRANCH   9  10
HETATM   10  O   UNL     1       6.595  55.114  -1.354  1.00  0.00    -0.344 OA
ATOM     11  HO  UNL     1       5.940  54.426  -1.339  1.00  0.00     0.215 HD
ENDBRANCH   9  10
BRANCH   9  12
HETATM   12  C   UNL     1       6.322  56.550   0.406  1.00  0.00     0.028 C 
HETATM   13  C   UNL     1       6.614  57.755  -0.218  1.00  0.00     0.031 C 
HETATM   14  C   UNL     1       5.815  58.870  -0.141  1.00  0.00     0.088 C 
HETATM   15  N   UNL     1       4.561  58.962   0.282  1.00  0.00    -0.375 N 
HETATM   16  C   UNL     1       3.888  58.104   1.009  1.00  0.00     0.087 C 
ATOM     17  HN  UNL     1       4.059  59.806   0.007  1.00  0.00     0.164 HD
HETATM   18  C   UNL     1       4.374  57.118   1.829  1.00  0.00     0.018 C 
HETATM   19  C   UNL     1       5.558  56.454   1.557  1.00  0.00     0.016 C 
ENDBRANCH   9  12
BRANCH   2  20
HETATM   20  C   UNL     1       9.280  56.092  -0.909  1.00  0.00     0.043 C 
HETATM   21  C   UNL     1      10.307  55.550  -1.685  1.00  0.00     0.030 C 
HETATM   22  C   UNL     1      11.288  56.379  -2.214  1.00  0.00     0.005 C 
HETATM   23  C   UNL     1      11.162  57.761  -2.102  1.00  0.00     0.036 C 
HETATM   24  C   UNL     1       9.966  58.290  -1.636  1.00  0.00     0.067 C 
HETATM   25  C   UNL     1       9.088  57.474  -0.929  1.00  0.00     0.066 C 
BRANCH  24  26
HETATM   26  O   UNL     1       9.625  59.556  -1.990  1.00  0.00    -0.361 OA
ATOM     27  HO  UNL     1       9.923  59.894  -2.826  1.00  0.00     0.217 HD
ENDBRANCH  24  26
ENDBRANCH   2  20
TORSDOF 4
ENDMDL
MODEL 8
REMARK VINA RESULT:      -6.3      1.703      5.987
REMARK  4 active torsions:
REMARK  status: ('A' for Active; 'I' for Inactive)
REMARK    1  A    between atoms: O_2  and  C_23 
REMARK    2  A    between atoms: N_5  and  C_7 
REMARK    3  A    between atoms: C_13  and  C_23 
REMARK    4  A    between atoms: O_18  and  C_20 
ROOT
HETATM    1  C   UNL     1       6.851  53.429   1.048  1.00  0.00     0.073 C 
HETATM    2  N   UNL     1       7.165  54.773   0.935  1.00  0.00    -0.284 N 
HETATM    3  C   UNL     1       5.650  52.750   1.159  1.00  0.00     0.033 C 
HETATM    4  C   UNL     1       8.055  51.608   2.068  1.00  0.00     0.039 C 
HETATM    5  C   UNL     1       8.039  52.774   1.324  1.00  0.00     0.101 C 
HETATM    6  O   UNL     1       9.063  53.593   1.026  1.00  0.00    -0.289 OA
HETATM    7  C   UNL     1       6.832  50.986   2.330  1.00  0.00     0.003 C 
HETATM    8  C   UNL     1       5.655  51.498   1.765  1.00  0.00     0.002 C 
HETATM    9  C   UNL     1       8.609  54.908   0.929  1.00  0.00     0.289 C 
ENDROOT
BRANCH   9  10
HETATM   10  O   UNL     1       8.946  55.602   1.982  1.00  0.00    -0.344 OA
ATOM     11  HO  UNL     1       9.112  54.989   2.689  1.00  0.00     0.215 HD
ENDBRANCH   9  10
BRANCH   9  12
HETATM   12  C   UNL     1       9.228  55.533  -0.286  1.00  0.00     0.028 C 
HETATM   13  C   UNL     1       8.767  56.785  -0.672  1.00  0.00     0.031 C 
HETATM   14  C   UNL     1       9.475  57.648  -1.471  1.00  0.00     0.088 C 
HETATM   15  N   UNL     1      10.758  57.604  -1.804  1.00  0.00    -0.375 N 
HETATM   16  C   UNL     1      11.581  56.587  -1.720  1.00  0.00     0.087 C 
ATOM     17  HN  UNL     1      11.154  58.470  -2.170  1.00  0.00     0.164 HD
HETATM   18  C   UNL     1      11.277  55.251  -1.651  1.00  0.00     0.018 C 
HETATM   19  C   UNL     1      10.127  54.790  -1.032  1.00  0.00     0.016 C 
ENDBRANCH   9  12
BRANCH   2  20
HETATM   20  C   UNL     1       6.236  55.828   0.997  1.00  0.00     0.043 C 
HETATM   21  C   UNL     1       5.207  55.859   1.942  1.00  0.00     0.030 C 
HETATM   22  C   UNL     1       4.152  56.750   1.789  1.00  0.00     0.005 C 
HETATM   23  C   UNL     1       4.198  57.713   0.785  1.00  0.00     0.036 C 
HETATM   24  C   UNL     1       5.381  57.891   0.080  1.00  0.00     0.067 C 
HETATM   25  C   UNL     1       6.341  56.884   0.092  1.00  0.00     0.066 C 
BRANCH  24  26
HETATM   26  O   UNL     1       5.625  59.094  -0.500  1.00  0.00    -0.361 OA
ATOM     27  HO  UNL     1       5.681  59.145  -1.447  1.00  0.00     0.217 HD
ENDBRANCH  24  26
ENDBRANCH   2  20
TORSDOF 4
ENDMDL
MODEL 9
REMARK VINA RESULT:      -6.3      2.044      6.625
REMARK  4 active torsions:
REMARK  status: ('A' for Active; 'I' for Inactive)
REMARK    1  A    between atoms: O_2  and  C_23 
REMARK    2  A    between atoms: N_5  and  C_7 
REMARK    3  A    between atoms: C_13  and  C_23 
REMARK    4  A    between atoms: O_18  and  C_20 
ROOT
HETATM    1  C   UNL     1       9.481  52.199   0.673  1.00  0.00     0.073 C 
HETATM    2  N   UNL     1       8.552  53.198   0.912  1.00  0.00    -0.284 N 
HETATM    3  C   UNL     1       9.380  50.821   0.586  1.00  0.00     0.033 C 
HETATM    4  C   UNL     1      11.825  52.062   1.215  1.00  0.00     0.039 C 
HETATM    5  C   UNL     1      10.727  52.790   0.793  1.00  0.00     0.101 C 
HETATM    6  O   UNL     1      10.580  54.126   0.732  1.00  0.00    -0.289 OA
HETATM    7  C   UNL     1      11.695  50.673   1.288  1.00  0.00     0.003 C 
HETATM    8  C   UNL     1      10.512  50.060   0.852  1.00  0.00     0.002 C 
HETATM    9  C   UNL     1       9.248  54.469   0.966  1.00  0.00     0.289 C 
ENDROOT
BRANCH   9  10
HETATM   10  O   UNL     1       9.091  54.955   2.168  1.00  0.00    -0.344 OA
ATOM     11  HO  UNL     1       9.846  55.498   2.360  1.00  0.00     0.215 HD
ENDBRANCH   9  10
BRANCH   9  12
HETATM   12  C   UNL     1       8.845  55.508  -0.038  1.00  0.00     0.028 C 
HETATM   13  C   UNL     1       7.549  56.001   0.031  1.00  0.00     0.031 C 
HETATM   14  C   UNL     1       7.156  57.199  -0.512  1.00  0.00     0.088 C 
HETATM   15  N   UNL     1       7.912  58.198  -0.949  1.00  0.00    -0.375 N 
HETATM   16  C   UNL     1       9.186  58.171  -1.260  1.00  0.00     0.087 C 
ATOM     17  HN  UNL     1       7.445  59.098  -1.056  1.00  0.00     0.164 HD
HETATM   18  C   UNL     1       9.958  57.086  -1.590  1.00  0.00     0.018 C 
HETATM   19  C   UNL     1       9.729  55.831  -1.053  1.00  0.00     0.016 C 
ENDBRANCH   9  12
BRANCH   2  20
HETATM   20  C   UNL     1       7.197  52.983   1.225  1.00  0.00     0.043 C 
HETATM   21  C   UNL     1       6.616  51.713   1.184  1.00  0.00     0.030 C 
HETATM   22  C   UNL     1       5.233  51.582   1.212  1.00  0.00     0.005 C 
HETATM   23  C   UNL     1       4.435  52.701   1.437  1.00  0.00     0.036 C 
HETATM   24  C   UNL     1       5.040  53.890   1.821  1.00  0.00     0.067 C 
HETATM   25  C   UNL     1       6.401  54.068   1.594  1.00  0.00     0.066 C 
BRANCH  24  26
HETATM   26  O   UNL     1       4.316  54.798   2.523  1.00  0.00    -0.361 OA
ATOM     27  HO  UNL     1       3.406  54.607   2.719  1.00  0.00     0.217 HD
ENDBRANCH  24  26
ENDBRANCH   2  20
TORSDOF 4
ENDMDL
