REMARK  1 active torsions:
REMARK  status: ('A' for Active; 'I' for Inactive)
REMARK    1  A    between atoms: C_3  and  O_8 
ROOT
HETATM    1  C   UNL     1      15.189  38.739   3.940  1.00  0.00     0.041 C 
HETATM    2  C   UNL     1      14.258  42.172   4.778  1.00  0.00     0.095 C 
HETATM    3  C   UNL     1      16.911  40.426   4.975  1.00  0.00     0.122 C 
HETATM    4  C   UNL     1      15.804  40.663   6.022  1.00  0.00     0.072 C 
HETATM    5  N   UNL     1      13.136  42.555   4.180  1.00  0.00    -0.375 N 
ATOM      6  HN  UNL     1      13.091  43.519   3.850  1.00  0.00     0.164 HD
HETATM    7  C   UNL     1      14.156  39.740   4.381  1.00  0.00    -0.050 C 
HETATM    8  C   UNL     1      12.850  39.466   4.001  1.00  0.00     0.009 C 
HETATM    9  C   UNL     1      12.058  41.789   3.971  1.00  0.00     0.087 C 
HETATM   10  C   UNL     1      16.634  39.135   4.202  1.00  0.00     0.036 C 
HETATM   11  C   UNL     1      11.881  40.457   3.803  1.00  0.00     0.018 C 
HETATM   12  C   UNL     1      14.563  40.864   5.160  1.00  0.00    -0.034 C 
ENDROOT
BRANCH   3  13
HETATM   13  O   UNL     1      16.892  41.502   4.053  1.00  0.00    -0.395 OA
ATOM     14  HO  UNL     1      17.574  41.356   3.408  1.00  0.00     0.210 HD
ENDBRANCH   3  13
TORSDOF 1
