REMARK  3 active torsions:
REMARK  status: ('A' for Active; 'I' for Inactive)
REMARK    1  A    between atoms: C_1  and  N_15 
REMARK    2  A    between atoms: C_7  and  O_17 
REMARK    3  A    between atoms: C_9  and  N_15 
ROOT
HETATM    1  O   UNL     1      14.341   7.043  38.649  1.00  0.00    -0.348 OA
HETATM    2  C   UNL     1      15.774   7.139  38.766  1.00  0.00     0.212 C 
HETATM    3  C   UNL     1      12.646   3.785  38.106  1.00  0.00     0.032 C 
HETATM    4  C   UNL     1      16.312   5.921  38.029  1.00  0.00     0.178 C 
HETATM    5  C   UNL     1      14.990   3.731  37.514  1.00  0.00     0.041 C 
HETATM    6  C   UNL     1      13.766   3.074  37.659  1.00  0.00     0.029 C 
HETATM    7  C   UNL     1      15.121   5.024  37.987  1.00  0.00     0.008 C 
HETATM    8  C   UNL     1      12.782   5.090  38.549  1.00  0.00     0.039 C 
HETATM    9  C   UNL     1      14.003   5.722  38.410  1.00  0.00     0.077 C 
ENDROOT
BRANCH   6  10
HETATM   10  N   UNL     1      13.673   1.702  37.352  1.00  0.00    -0.385 N 
ATOM     11  HN  UNL     1      13.953   1.257  38.226  1.00  0.00     0.160 HD
BRANCH  10  12
HETATM   12  C   UNL     1      13.400   0.558  36.483  1.00  0.00     0.081 C 
HETATM   13  C   UNL     1      14.056   0.474  35.131  1.00  0.00     0.025 C 
HETATM   14  C   UNL     1      14.512  -0.959  34.940  1.00  0.00     0.002 C 
HETATM   15  C   UNL     1      13.868  -1.744  36.057  1.00  0.00     0.002 C 
HETATM   16  C   UNL     1      13.714  -0.743  37.198  1.00  0.00     0.025 C 
ENDBRANCH  10  12
ENDBRANCH   6  10
BRANCH   4  17
HETATM   17  O   UNL     1      16.776   6.255  36.722  1.00  0.00    -0.389 OA
ATOM     18  HO  UNL     1      17.112   5.495  36.262  1.00  0.00     0.210 HD
ENDBRANCH   4  17
TORSDOF 3
