MODEL 1
REMARK VINA RESULT:      -5.0      0.000      0.000
REMARK  5 active torsions:
REMARK  status: ('A' for Active; 'I' for Inactive)
REMARK    1  A    between atoms: C_1  and  CA_5 
REMARK    2  A    between atoms: C_1  and  C_6 
REMARK    3  A    between atoms: CA_5  and  C_10 
REMARK    4  A    between atoms: CA_5  and  N_12 
REMARK    5  A    between atoms: C_11  and  N_12 
ROOT
HETATM    1  CA  UNL     1      13.466 -50.003  51.587  1.00  0.00     0.124 C 
ENDROOT
BRANCH   1   2
HETATM    2  C   UNL     1      12.305 -50.942  51.433  1.00  0.00     0.216 C 
HETATM    3  O   UNL     1      11.810 -51.133  50.286  1.00  0.00    -0.284 OA
BRANCH   2   4
HETATM    4  C   UNL     1      12.033 -51.997  52.420  1.00  0.00     0.138 C 
HETATM    5  N   UNL     1      12.103 -52.028  53.640  1.00  0.00    -0.405 N 
ATOM      6  HN2 UNL     1      12.411 -51.139  54.034  1.00  0.00     0.155 HD
ATOM      7  HN1 UNL     1      11.914 -52.760  54.325  1.00  0.00     0.155 HD
ENDBRANCH   2   4
ENDBRANCH   1   2
BRANCH   1   8
HETATM    8  C   UNL     1      14.622 -50.197  50.724  1.00  0.00     0.292 C 
HETATM    9  O   UNL     1      15.635 -50.738  50.986  1.00  0.00    -0.300 OA
ENDBRANCH   1   8
BRANCH   1  10
HETATM   10  N   UNL     1      13.101 -48.714  52.011  1.00  0.00    -0.329 N 
ATOM     11  HN  UNL     1      13.327 -47.920  51.412  1.00  0.00     0.168 HD
BRANCH  10  12
HETATM   12  C   UNL     1      12.489 -48.493  53.133  1.00  0.00     0.353 C 
HETATM   13  O   UNL     1      12.535 -48.886  54.217  1.00  0.00    -0.283 OA
ENDBRANCH  10  12
ENDBRANCH   1  10
TORSDOF 5
ENDMDL
MODEL 2
REMARK VINA RESULT:      -4.8      1.218      2.927
REMARK  5 active torsions:
REMARK  status: ('A' for Active; 'I' for Inactive)
REMARK    1  A    between atoms: C_1  and  CA_5 
REMARK    2  A    between atoms: C_1  and  C_6 
REMARK    3  A    between atoms: CA_5  and  C_10 
REMARK    4  A    between atoms: CA_5  and  N_12 
REMARK    5  A    between atoms: C_11  and  N_12 
ROOT
HETATM    1  CA  UNL     1      12.635 -49.511  51.497  1.00  0.00     0.124 C 
ENDROOT
BRANCH   1   2
HETATM    2  C   UNL     1      11.907 -50.821  51.411  1.00  0.00     0.216 C 
HETATM    3  O   UNL     1      11.415 -51.187  50.306  1.00  0.00    -0.284 OA
BRANCH   2   4
HETATM    4  C   UNL     1      12.149 -51.899  52.381  1.00  0.00     0.138 C 
HETATM    5  N   UNL     1      11.990 -51.977  53.590  1.00  0.00    -0.405 N 
ATOM      6  HN2 UNL     1      11.615 -51.117  53.988  1.00  0.00     0.155 HD
ATOM      7  HN1 UNL     1      12.158 -52.726  54.262  1.00  0.00     0.155 HD
ENDBRANCH   2   4
ENDBRANCH   1   2
BRANCH   1   8
HETATM    8  C   UNL     1      12.195 -48.549  52.496  1.00  0.00     0.292 C 
HETATM    9  O   UNL     1      12.044 -48.727  53.651  1.00  0.00    -0.300 OA
ENDBRANCH   1   8
BRANCH   1  10
HETATM   10  N   UNL     1      13.989 -49.588  51.129  1.00  0.00    -0.329 N 
ATOM     11  HN  UNL     1      14.684 -49.768  51.854  1.00  0.00     0.168 HD
BRANCH  10  12
HETATM   12  C   UNL     1      14.392 -49.440  49.905  1.00  0.00     0.353 C 
HETATM   13  O   UNL     1      13.949 -49.557  48.846  1.00  0.00    -0.283 OA
ENDBRANCH  10  12
ENDBRANCH   1  10
TORSDOF 5
ENDMDL
MODEL 3
REMARK VINA RESULT:      -4.7      1.886      3.286
REMARK  5 active torsions:
REMARK  status: ('A' for Active; 'I' for Inactive)
REMARK    1  A    between atoms: C_1  and  CA_5 
REMARK    2  A    between atoms: C_1  and  C_6 
REMARK    3  A    between atoms: CA_5  and  C_10 
REMARK    4  A    between atoms: CA_5  and  N_12 
REMARK    5  A    between atoms: C_11  and  N_12 
ROOT
HETATM    1  CA  UNL     1      12.450 -50.353  53.201  1.00  0.00     0.124 C 
ENDROOT
BRANCH   1   2
HETATM    2  C   UNL     1      13.159 -50.948  52.019  1.00  0.00     0.216 C 
HETATM    3  O   UNL     1      12.687 -51.982  51.467  1.00  0.00    -0.284 OA
BRANCH   2   4
HETATM    4  C   UNL     1      14.066 -50.146  51.184  1.00  0.00     0.138 C 
HETATM    5  N   UNL     1      15.283 -50.108  51.084  1.00  0.00    -0.405 N 
ATOM      6  HN2 UNL     1      15.745 -50.767  51.709  1.00  0.00     0.155 HD
ATOM      7  HN1 UNL     1      15.912 -49.551  50.504  1.00  0.00     0.155 HD
ENDBRANCH   2   4
ENDBRANCH   1   2
BRANCH   1   8
HETATM    8  C   UNL     1      12.396 -48.903  53.307  1.00  0.00     0.292 C 
HETATM    9  O   UNL     1      12.743 -48.233  54.212  1.00  0.00    -0.300 OA
ENDBRANCH   1   8
BRANCH   1  10
HETATM   10  N   UNL     1      11.392 -51.143  53.684  1.00  0.00    -0.329 N 
ATOM     11  HN  UNL     1      11.522 -52.152  53.744  1.00  0.00     0.168 HD
BRANCH  10  12
HETATM   12  C   UNL     1      10.257 -50.638  54.059  1.00  0.00     0.353 C 
HETATM   13  O   UNL     1       9.759 -50.308  55.045  1.00  0.00    -0.283 OA
ENDBRANCH  10  12
ENDBRANCH   1  10
TORSDOF 5
ENDMDL
MODEL 4
REMARK VINA RESULT:      -4.7      2.358      3.411
REMARK  5 active torsions:
REMARK  status: ('A' for Active; 'I' for Inactive)
REMARK    1  A    between atoms: C_1  and  CA_5 
REMARK    2  A    between atoms: C_1  and  C_6 
REMARK    3  A    between atoms: CA_5  and  C_10 
REMARK    4  A    between atoms: CA_5  and  N_12 
REMARK    5  A    between atoms: C_11  and  N_12 
ROOT
HETATM    1  CA  UNL     1      11.501 -50.650  53.171  1.00  0.00     0.124 C 
ENDROOT
BRANCH   1   2
HETATM    2  C   UNL     1      10.106 -50.140  53.390  1.00  0.00     0.216 C 
HETATM    3  O   UNL     1       9.605 -50.181  54.549  1.00  0.00    -0.284 OA
BRANCH   2   4
HETATM    4  C   UNL     1       9.488 -49.175  52.470  1.00  0.00     0.138 C 
HETATM    5  N   UNL     1       9.037 -48.050  52.629  1.00  0.00    -0.405 N 
ATOM      6  HN2 UNL     1       9.113 -47.735  53.596  1.00  0.00     0.155 HD
ATOM      7  HN1 UNL     1       8.608 -47.380  51.990  1.00  0.00     0.155 HD
ENDBRANCH   2   4
ENDBRANCH   1   2
BRANCH   1   8
HETATM    8  C   UNL     1      11.961 -50.815  51.801  1.00  0.00     0.292 C 
HETATM    9  O   UNL     1      11.669 -51.666  51.039  1.00  0.00    -0.300 OA
ENDBRANCH   1   8
BRANCH   1  10
HETATM   10  N   UNL     1      12.403 -50.290  54.188  1.00  0.00    -0.329 N 
ATOM     11  HN  UNL     1      12.580 -50.953  54.942  1.00  0.00     0.168 HD
BRANCH  10  12
HETATM   12  C   UNL     1      13.019 -49.149  54.204  1.00  0.00     0.353 C 
HETATM   13  O   UNL     1      12.744 -48.034  54.093  1.00  0.00    -0.283 OA
ENDBRANCH  10  12
ENDBRANCH   1  10
TORSDOF 5
ENDMDL
MODEL 5
REMARK VINA RESULT:      -4.7      2.262      4.004
REMARK  5 active torsions:
REMARK  status: ('A' for Active; 'I' for Inactive)
REMARK    1  A    between atoms: C_1  and  CA_5 
REMARK    2  A    between atoms: C_1  and  C_6 
REMARK    3  A    between atoms: CA_5  and  C_10 
REMARK    4  A    between atoms: CA_5  and  N_12 
REMARK    5  A    between atoms: C_11  and  N_12 
ROOT
HETATM    1  CA  UNL     1      11.763 -50.069  53.030  1.00  0.00     0.124 C 
ENDROOT
BRANCH   1   2
HETATM    2  C   UNL     1      10.288 -49.946  53.286  1.00  0.00     0.216 C 
HETATM    3  O   UNL     1       9.839 -50.168  54.446  1.00  0.00    -0.284 OA
BRANCH   2   4
HETATM    4  C   UNL     1       9.424 -49.130  52.421  1.00  0.00     0.138 C 
HETATM    5  N   UNL     1       9.002 -47.987  52.512  1.00  0.00    -0.405 N 
ATOM      6  HN2 UNL     1       9.324 -47.522  53.361  1.00  0.00     0.155 HD
ATOM      7  HN1 UNL     1       8.402 -47.421  51.912  1.00  0.00     0.155 HD
ENDBRANCH   2   4
ENDBRANCH   1   2
BRANCH   1   8
HETATM    8  C   UNL     1      12.672 -49.374  53.929  1.00  0.00     0.292 C 
HETATM    9  O   UNL     1      12.725 -48.217  54.150  1.00  0.00    -0.300 OA
ENDBRANCH   1   8
BRANCH   1  10
HETATM   10  N   UNL     1      12.137 -51.287  52.439  1.00  0.00    -0.329 N 
ATOM     11  HN  UNL     1      12.308 -52.092  53.042  1.00  0.00     0.168 HD
BRANCH  10  12
HETATM   12  C   UNL     1      12.274 -51.430  51.156  1.00  0.00     0.353 C 
HETATM   13  O   UNL     1      11.631 -51.272  50.212  1.00  0.00    -0.283 OA
ENDBRANCH  10  12
ENDBRANCH   1  10
TORSDOF 5
ENDMDL
MODEL 6
REMARK VINA RESULT:      -4.7      2.727      4.042
REMARK  5 active torsions:
REMARK  status: ('A' for Active; 'I' for Inactive)
REMARK    1  A    between atoms: C_1  and  CA_5 
REMARK    2  A    between atoms: C_1  and  C_6 
REMARK    3  A    between atoms: CA_5  and  C_10 
REMARK    4  A    between atoms: CA_5  and  N_12 
REMARK    5  A    between atoms: C_11  and  N_12 
ROOT
HETATM    1  CA  UNL     1      10.713 -49.813  52.987  1.00  0.00     0.124 C 
ENDROOT
BRANCH   1   2
HETATM    2  C   UNL     1      10.267 -49.677  51.560  1.00  0.00     0.216 C 
HETATM    3  O   UNL     1      10.736 -50.459  50.686  1.00  0.00    -0.284 OA
BRANCH   2   4
HETATM    4  C   UNL     1       8.991 -49.035  51.212  1.00  0.00     0.138 C 
HETATM    5  N   UNL     1       8.714 -48.041  50.558  1.00  0.00    -0.405 N 
ATOM      6  HN2 UNL     1       9.544 -47.578  50.187  1.00  0.00     0.155 HD
ATOM      7  HN1 UNL     1       7.829 -47.596  50.316  1.00  0.00     0.155 HD
ENDBRANCH   2   4
ENDBRANCH   1   2
BRANCH   1   8
HETATM    8  C   UNL     1       9.802 -50.443  53.931  1.00  0.00     0.292 C 
HETATM    9  O   UNL     1       9.816 -50.368  55.107  1.00  0.00    -0.300 OA
ENDBRANCH   1   8
BRANCH   1  10
HETATM   10  N   UNL     1      12.104 -49.953  53.137  1.00  0.00    -0.329 N 
ATOM     11  HN  UNL     1      12.543 -50.825  52.842  1.00  0.00     0.168 HD
BRANCH  10  12
HETATM   12  C   UNL     1      12.852 -49.017  53.635  1.00  0.00     0.353 C 
HETATM   13  O   UNL     1      12.708 -47.961  54.077  1.00  0.00    -0.283 OA
ENDBRANCH  10  12
ENDBRANCH   1  10
TORSDOF 5
ENDMDL
MODEL 7
REMARK VINA RESULT:      -4.7      2.152      3.228
REMARK  5 active torsions:
REMARK  status: ('A' for Active; 'I' for Inactive)
REMARK    1  A    between atoms: C_1  and  CA_5 
REMARK    2  A    between atoms: C_1  and  C_6 
REMARK    3  A    between atoms: CA_5  and  C_10 
REMARK    4  A    between atoms: CA_5  and  N_12 
REMARK    5  A    between atoms: C_11  and  N_12 
ROOT
HETATM    1  CA  UNL     1      11.759 -50.727  52.482  1.00  0.00     0.124 C 
ENDROOT
BRANCH   1   2
HETATM    2  C   UNL     1      12.668 -49.632  52.959  1.00  0.00     0.216 C 
HETATM    3  O   UNL     1      12.327 -48.426  52.797  1.00  0.00    -0.284 OA
BRANCH   2   4
HETATM    4  C   UNL     1      13.667 -49.868  54.012  1.00  0.00     0.138 C 
HETATM    5  N   UNL     1      13.646 -49.713  55.224  1.00  0.00    -0.405 N 
ATOM      6  HN2 UNL     1      12.752 -49.349  55.553  1.00  0.00     0.155 HD
ATOM      7  HN1 UNL     1      14.339 -49.877  55.954  1.00  0.00     0.155 HD
ENDBRANCH   2   4
ENDBRANCH   1   2
BRANCH   1   8
HETATM    8  C   UNL     1      12.140 -51.458  51.283  1.00  0.00     0.292 C 
HETATM    9  O   UNL     1      11.666 -51.376  50.207  1.00  0.00    -0.300 OA
ENDBRANCH   1   8
BRANCH   1  10
HETATM   10  N   UNL     1      11.052 -51.369  53.514  1.00  0.00    -0.329 N 
ATOM     11  HN  UNL     1      11.361 -52.292  53.818  1.00  0.00     0.168 HD
BRANCH  10  12
HETATM   12  C   UNL     1      10.023 -50.834  54.095  1.00  0.00     0.353 C 
HETATM   13  O   UNL     1       9.746 -50.453  55.148  1.00  0.00    -0.283 OA
ENDBRANCH  10  12
ENDBRANCH   1  10
TORSDOF 5
ENDMDL
MODEL 8
REMARK VINA RESULT:      -4.7      2.468      3.821
REMARK  5 active torsions:
REMARK  status: ('A' for Active; 'I' for Inactive)
REMARK    1  A    between atoms: C_1  and  CA_5 
REMARK    2  A    between atoms: C_1  and  C_6 
REMARK    3  A    between atoms: CA_5  and  C_10 
REMARK    4  A    between atoms: CA_5  and  N_12 
REMARK    5  A    between atoms: C_11  and  N_12 
ROOT
HETATM    1  CA  UNL     1      12.279 -49.248  51.413  1.00  0.00     0.124 C 
ENDROOT
BRANCH   1   2
HETATM    2  C   UNL     1      11.286 -48.122  51.376  1.00  0.00     0.216 C 
HETATM    3  O   UNL     1      11.085 -47.508  50.290  1.00  0.00    -0.284 OA
BRANCH   2   4
HETATM    4  C   UNL     1      10.208 -48.015  52.369  1.00  0.00     0.138 C 
HETATM    5  N   UNL     1       8.993 -48.118  52.289  1.00  0.00    -0.405 N 
ATOM      6  HN2 UNL     1       8.684 -48.319  51.338  1.00  0.00     0.155 HD
ATOM      7  HN1 UNL     1       8.246 -48.044  52.979  1.00  0.00     0.155 HD
ENDBRANCH   2   4
ENDBRANCH   1   2
BRANCH   1   8
HETATM    8  C   UNL     1      11.788 -50.599  51.186  1.00  0.00     0.292 C 
HETATM    9  O   UNL     1      11.166 -50.995  50.266  1.00  0.00    -0.300 OA
ENDBRANCH   1   8
BRANCH   1  10
HETATM   10  N   UNL     1      13.571 -48.880  51.001  1.00  0.00    -0.329 N 
ATOM     11  HN  UNL     1      14.094 -48.212  51.567  1.00  0.00     0.168 HD
BRANCH  10  12
HETATM   12  C   UNL     1      14.126 -49.357  49.929  1.00  0.00     0.353 C 
HETATM   13  O   UNL     1      13.887 -49.410  48.802  1.00  0.00    -0.283 OA
ENDBRANCH  10  12
ENDBRANCH   1  10
TORSDOF 5
ENDMDL
MODEL 9
REMARK VINA RESULT:      -4.6      1.323      3.171
REMARK  5 active torsions:
REMARK  status: ('A' for Active; 'I' for Inactive)
REMARK    1  A    between atoms: C_1  and  CA_5 
REMARK    2  A    between atoms: C_1  and  C_6 
REMARK    3  A    between atoms: CA_5  and  C_10 
REMARK    4  A    between atoms: CA_5  and  N_12 
REMARK    5  A    between atoms: C_11  and  N_12 
ROOT
HETATM    1  CA  UNL     1      13.178 -50.721  51.892  1.00  0.00     0.124 C 
ENDROOT
BRANCH   1   2
HETATM    2  C   UNL     1      12.743 -50.473  53.307  1.00  0.00     0.216 C 
HETATM    3  O   UNL     1      13.526 -49.880  54.102  1.00  0.00    -0.284 OA
BRANCH   2   4
HETATM    4  C   UNL     1      11.321 -50.438  53.679  1.00  0.00     0.138 C 
HETATM    5  N   UNL     1      10.597 -51.232  54.262  1.00  0.00    -0.405 N 
ATOM      6  HN2 UNL     1      11.093 -52.079  54.537  1.00  0.00     0.155 HD
ATOM      7  HN1 UNL     1       9.611 -51.207  54.520  1.00  0.00     0.155 HD
ENDBRANCH   2   4
ENDBRANCH   1   2
BRANCH   1   8
HETATM    8  C   UNL     1      12.358 -51.597  51.068  1.00  0.00     0.292 C 
HETATM    9  O   UNL     1      11.575 -51.287  50.244  1.00  0.00    -0.300 OA
ENDBRANCH   1   8
BRANCH   1  10
HETATM   10  N   UNL     1      13.873 -49.644  51.315  1.00  0.00    -0.329 N 
ATOM     11  HN  UNL     1      13.629 -48.696  51.598  1.00  0.00     0.168 HD
BRANCH  10  12
HETATM   12  C   UNL     1      14.813 -49.809  50.435  1.00  0.00     0.353 C 
HETATM   13  O   UNL     1      15.738 -50.483  50.299  1.00  0.00    -0.283 OA
ENDBRANCH  10  12
ENDBRANCH   1  10
TORSDOF 5
ENDMDL
