REMARK  1 active torsions:
REMARK  status: ('A' for Active; 'I' for Inactive)
REMARK    1  A    between atoms: C_5  and  N_7 
ROOT
HETATM    1  C   UNL     1      -4.007 -22.333  -8.161  1.00  0.00     0.005 C 
HETATM    2  C   UNL     1      -3.597 -21.663  -4.499  1.00  0.00     0.037 C 
HETATM    3  C   UNL     1      -2.485 -24.144  -7.330  1.00  0.00     0.000 C 
HETATM    4  C   UNL     1      -3.610 -23.807  -8.285  1.00  0.00     0.000 C 
HETATM    5  C   UNL     1      -4.793 -20.778  -4.837  1.00  0.00     0.184 C 
HETATM    6  C   UNL     1      -2.866 -23.828  -5.884  1.00  0.00     0.005 C 
HETATM    7  C   UNL     1      -3.293 -22.379  -5.793  1.00  0.00    -0.008 C 
HETATM    8  C   UNL     1      -4.452 -22.065  -6.726  1.00  0.00    -0.008 C 
HETATM    9  C   UNL     1      -4.744 -20.621  -6.367  1.00  0.00     0.037 C 
ENDROOT
BRANCH   5  10
HETATM   10  N   UNL     1      -4.722 -19.476  -4.197  1.00  0.00    -0.075 N 
ATOM     11  HN3 UNL     1      -4.609 -19.569  -3.188  1.00  0.00     0.274 HD
ATOM     12  HN2 UNL     1      -3.844 -19.006  -4.418  1.00  0.00     0.274 HD
ATOM     13  HN1 UNL     1      -5.522 -18.884  -4.423  1.00  0.00     0.274 HD
ENDBRANCH   5  10
TORSDOF 1
