MODEL 1
REMARK VINA RESULT:      -7.7      0.000      0.000
REMARK  5 active torsions:
REMARK  status: ('A' for Active; 'I' for Inactive)
REMARK    1  A    between atoms: C_1  and  C_34 
REMARK    2  A    between atoms: C_2  and  N_5 
REMARK    3  A    between atoms: O_9  and  C_21 
REMARK    4  A    between atoms: O_18  and  P_29 
REMARK    5  A    between atoms: O_18  and  C_31 
ROOT
HETATM    1  C   UNL     1      13.787   1.948 116.141  1.00  0.00     0.120 C 
HETATM    2  C   UNL     1      18.210   9.185 114.383  1.00  0.00     0.104 C 
HETATM    3  O   UNL     1      18.755   7.127 111.622  1.00  0.00    -0.246 OA
HETATM    4  C   UNL     1      18.415   6.936 115.091  1.00  0.00     0.050 C 
HETATM    5  N   UNL     1      17.124   4.652 112.673  1.00  0.00    -0.338 N 
ATOM      6  HN  UNL     1      17.669   4.536 111.819  1.00  0.00     0.168 HD
HETATM    7  C   UNL     1      18.120   8.288 115.434  1.00  0.00     0.078 C 
HETATM    8  N   UNL     1      18.172   6.586 113.762  1.00  0.00    -0.249 N 
HETATM    9  C   UNL     1      17.650   5.306 113.732  1.00  0.00     0.123 C 
HETATM   10  N   UNL     1      15.218   3.742 113.773  1.00  0.00    -0.371 N 
ATOM     11  HN  UNL     1      14.211   3.887 113.695  1.00  0.00     0.161 HD
HETATM   12  C   UNL     1      14.448   3.286 115.993  1.00  0.00     0.163 C 
HETATM   13  C   UNL     1      16.926   3.632 115.622  1.00  0.00     0.079 C 
HETATM   14  C   UNL     1      18.490   7.486 112.763  1.00  0.00     0.334 C 
HETATM   15  C   UNL     1      15.882   4.157 112.755  1.00  0.00     0.178 C 
HETATM   16  N   UNL     1      18.458   8.801 113.094  1.00  0.00    -0.294 N 
ATOM     17  HN  UNL     1      18.620   9.508 112.377  1.00  0.00     0.172 HD
HETATM   18  C   UNL     1      18.138   5.820 115.877  1.00  0.00     0.041 C 
HETATM   19  C   UNL     1      15.762   1.583 114.806  1.00  0.00     0.167 C 
HETATM   20  C   UNL     1      17.553   4.856 115.058  1.00  0.00    -0.009 C 
HETATM   21  C   UNL     1      15.629   3.101 115.021  1.00  0.00     0.088 C 
HETATM   22  C   UNL     1      14.672   0.859 115.575  1.00  0.00     0.053 C 
ENDROOT
BRANCH  12  23
HETATM   23  O   UNL     1      14.824   3.907 117.210  1.00  0.00    -0.392 OA
ATOM     24  HO  UNL     1      14.819   4.857 117.196  1.00  0.00     0.210 HD
ENDBRANCH  12  23
BRANCH  19  25
HETATM   25  O   UNL     1      17.001   0.889 114.912  1.00  0.00    -0.275 OA
BRANCH  25  26
HETATM   26  P   UNL     1      17.912   0.385 113.697  1.00  0.00     0.422 P 
HETATM   27  O   UNL     1      17.458  -0.843 113.025  1.00  0.00    -0.617 OA
HETATM   28  O   UNL     1      19.256   0.002 114.228  1.00  0.00    -0.617 OA
HETATM   29  O   UNL     1      17.833   1.499 112.732  1.00  0.00    -0.617 OA
ENDBRANCH  25  26
ENDBRANCH  19  25
BRANCH   1  30
HETATM   30  C   UNL     1      13.080   1.460 117.373  1.00  0.00     0.179 C 
HETATM   31  O   UNL     1      13.713   1.116 118.388  1.00  0.00    -0.648 OA
HETATM   32  O   UNL     1      11.776   1.426 117.293  1.00  0.00    -0.648 OA
ENDBRANCH   1  30
BRANCH   2  33
HETATM   33  N   UNL     1      17.989  10.493 114.586  1.00  0.00    -0.385 N 
ATOM     34  HN2 UNL     1      18.814  11.092 114.633  1.00  0.00     0.157 HD
ATOM     35  HN1 UNL     1      17.036  10.854 114.638  1.00  0.00     0.157 HD
ENDBRANCH   2  33
TORSDOF 5
ENDMDL
MODEL 2
REMARK VINA RESULT:      -7.5      3.721      7.816
REMARK  5 active torsions:
REMARK  status: ('A' for Active; 'I' for Inactive)
REMARK    1  A    between atoms: C_1  and  C_34 
REMARK    2  A    between atoms: C_2  and  N_5 
REMARK    3  A    between atoms: O_9  and  C_21 
REMARK    4  A    between atoms: O_18  and  P_29 
REMARK    5  A    between atoms: O_18  and  C_31 
ROOT
HETATM    1  C   UNL     1      15.289   4.916 113.295  1.00  0.00     0.120 C 
HETATM    2  C   UNL     1      15.270  -3.569 115.036  1.00  0.00     0.104 C 
HETATM    3  O   UNL     1      14.465  -2.046 118.067  1.00  0.00    -0.246 OA
HETATM    4  C   UNL     1      16.505  -1.564 115.275  1.00  0.00     0.050 C 
HETATM    5  N   UNL     1      14.676   0.925 117.060  1.00  0.00    -0.338 N 
ATOM      6  HN  UNL     1      14.548   0.769 118.060  1.00  0.00     0.168 HD
HETATM    7  C   UNL     1      16.134  -2.662 114.445  1.00  0.00     0.078 C 
HETATM    8  N   UNL     1      15.577  -1.211 116.256  1.00  0.00    -0.249 N 
HETATM    9  C   UNL     1      15.546   0.167 116.358  1.00  0.00     0.123 C 
HETATM   10  N   UNL     1      14.281   2.583 115.396  1.00  0.00    -0.371 N 
ATOM     11  HN  UNL     1      13.473   2.855 114.836  1.00  0.00     0.161 HD
HETATM   12  C   UNL     1      15.288   3.420 113.392  1.00  0.00     0.163 C 
HETATM   13  C   UNL     1      16.717   2.081 114.993  1.00  0.00     0.079 C 
HETATM   14  C   UNL     1      14.907  -2.211 116.937  1.00  0.00     0.334 C 
HETATM   15  C   UNL     1      13.983   1.885 116.432  1.00  0.00     0.178 C 
HETATM   16  N   UNL     1      14.726  -3.382 116.277  1.00  0.00    -0.294 N 
ATOM     17  HN  UNL     1      14.181  -4.128 116.710  1.00  0.00     0.172 HD
HETATM   18  C   UNL     1      17.127  -0.395 114.845  1.00  0.00     0.041 C 
HETATM   19  C   UNL     1      15.942   4.383 115.555  1.00  0.00     0.167 C 
HETATM   20  C   UNL     1      16.456   0.682 115.422  1.00  0.00    -0.009 C 
HETATM   21  C   UNL     1      15.557   3.063 114.865  1.00  0.00     0.088 C 
HETATM   22  C   UNL     1      15.863   5.524 114.556  1.00  0.00     0.053 C 
ENDROOT
BRANCH  12  23
HETATM   23  O   UNL     1      16.162   2.759 112.493  1.00  0.00    -0.392 OA
ATOM     24  HO  UNL     1      17.077   2.761 112.747  1.00  0.00     0.210 HD
ENDBRANCH  12  23
BRANCH  19  25
HETATM   25  O   UNL     1      17.088   4.520 116.388  1.00  0.00    -0.275 OA
BRANCH  25  26
HETATM   26  P   UNL     1      17.118   4.418 117.985  1.00  0.00     0.422 P 
HETATM   27  O   UNL     1      18.408   4.032 118.577  1.00  0.00    -0.617 OA
HETATM   28  O   UNL     1      16.205   3.316 118.415  1.00  0.00    -0.617 OA
HETATM   29  O   UNL     1      16.803   5.795 118.415  1.00  0.00    -0.617 OA
ENDBRANCH  25  26
ENDBRANCH  19  25
BRANCH   1  30
HETATM   30  C   UNL     1      15.714   5.708 112.092  1.00  0.00     0.179 C 
HETATM   31  O   UNL     1      16.501   5.235 111.252  1.00  0.00    -0.648 OA
HETATM   32  O   UNL     1      15.203   6.907 112.002  1.00  0.00    -0.648 OA
ENDBRANCH   1  30
BRANCH   2  33
HETATM   33  N   UNL     1      14.873  -4.664 114.368  1.00  0.00    -0.385 N 
ATOM     34  HN2 UNL     1      14.441  -4.510 113.457  1.00  0.00     0.157 HD
ATOM     35  HN1 UNL     1      15.050  -5.593 114.750  1.00  0.00     0.157 HD
ENDBRANCH   2  33
TORSDOF 5
ENDMDL
MODEL 3
REMARK VINA RESULT:      -7.5      2.287      4.486
REMARK  5 active torsions:
REMARK  status: ('A' for Active; 'I' for Inactive)
REMARK    1  A    between atoms: C_1  and  C_34 
REMARK    2  A    between atoms: C_2  and  N_5 
REMARK    3  A    between atoms: O_9  and  C_21 
REMARK    4  A    between atoms: O_18  and  P_29 
REMARK    5  A    between atoms: O_18  and  C_31 
ROOT
HETATM    1  C   UNL     1      17.845  -0.636 114.777  1.00  0.00     0.120 C 
HETATM    2  C   UNL     1      17.870   7.451 111.677  1.00  0.00     0.104 C 
HETATM    3  O   UNL     1      16.841   7.782 114.992  1.00  0.00    -0.246 OA
HETATM    4  C   UNL     1      16.482   5.628 112.268  1.00  0.00     0.050 C 
HETATM    5  N   UNL     1      16.861   4.717 115.696  1.00  0.00    -0.338 N 
ATOM      6  HN  UNL     1      16.474   5.362 116.385  1.00  0.00     0.168 HD
HETATM    7  C   UNL     1      17.341   6.228 111.301  1.00  0.00     0.078 C 
HETATM    8  N   UNL     1      16.733   5.978 113.596  1.00  0.00    -0.249 N 
HETATM    9  C   UNL     1      16.560   4.859 114.387  1.00  0.00     0.123 C 
HETATM   10  N   UNL     1      17.874   2.566 115.562  1.00  0.00    -0.371 N 
ATOM     11  HN  UNL     1      18.821   2.212 115.700  1.00  0.00     0.161 HD
HETATM   12  C   UNL     1      17.955   0.687 114.081  1.00  0.00     0.163 C 
HETATM   13  C   UNL     1      16.059   2.342 113.829  1.00  0.00     0.079 C 
HETATM   14  C   UNL     1      17.060   7.289 113.893  1.00  0.00     0.334 C 
HETATM   15  C   UNL     1      17.671   3.722 116.082  1.00  0.00     0.178 C 
HETATM   16  N   UNL     1      17.677   7.999 112.916  1.00  0.00    -0.294 N 
ATOM     17  HN  UNL     1      17.999   8.948 113.106  1.00  0.00     0.172 HD
HETATM   18  C   UNL     1      16.048   4.305 112.258  1.00  0.00     0.041 C 
HETATM   19  C   UNL     1      16.187   0.798 115.783  1.00  0.00     0.167 C 
HETATM   20  C   UNL     1      16.210   3.793 113.544  1.00  0.00    -0.009 C 
HETATM   21  C   UNL     1      17.009   1.660 114.808  1.00  0.00     0.088 C 
HETATM   22  C   UNL     1      16.645  -0.647 115.699  1.00  0.00     0.053 C 
ENDROOT
BRANCH  12  23
HETATM   23  O   UNL     1      17.741   0.648 112.680  1.00  0.00    -0.392 OA
ATOM     24  HO  UNL     1      18.142   1.357 112.192  1.00  0.00     0.210 HD
ENDBRANCH  12  23
BRANCH  19  25
HETATM   25  O   UNL     1      14.768   0.874 115.881  1.00  0.00    -0.275 OA
BRANCH  25  26
HETATM   26  P   UNL     1      13.935   1.627 117.021  1.00  0.00     0.422 P 
HETATM   27  O   UNL     1      13.934   0.981 118.343  1.00  0.00    -0.617 OA
HETATM   28  O   UNL     1      12.490   1.626 116.642  1.00  0.00    -0.617 OA
HETATM   29  O   UNL     1      14.627   2.926 117.140  1.00  0.00    -0.617 OA
ENDBRANCH  25  26
ENDBRANCH  19  25
BRANCH   1  30
HETATM   30  C   UNL     1      18.015  -1.978 114.125  1.00  0.00     0.179 C 
HETATM   31  O   UNL     1      18.898  -2.772 114.500  1.00  0.00    -0.648 OA
HETATM   32  O   UNL     1      17.182  -2.238 113.153  1.00  0.00    -0.648 OA
ENDBRANCH   1  30
BRANCH   2  33
HETATM   33  N   UNL     1      18.666   8.134 110.839  1.00  0.00    -0.385 N 
ATOM     34  HN2 UNL     1      18.574   7.918 109.846  1.00  0.00     0.157 HD
ATOM     35  HN1 UNL     1      19.289   8.859 111.194  1.00  0.00     0.157 HD
ENDBRANCH   2  33
TORSDOF 5
ENDMDL
MODEL 4
REMARK VINA RESULT:      -7.3      3.089      6.754
REMARK  5 active torsions:
REMARK  status: ('A' for Active; 'I' for Inactive)
REMARK    1  A    between atoms: C_1  and  C_34 
REMARK    2  A    between atoms: C_2  and  N_5 
REMARK    3  A    between atoms: O_9  and  C_21 
REMARK    4  A    between atoms: O_18  and  P_29 
REMARK    5  A    between atoms: O_18  and  C_31 
ROOT
HETATM    1  C   UNL     1      17.014   7.789 116.411  1.00  0.00     0.120 C 
HETATM    2  C   UNL     1      15.278  -0.688 116.810  1.00  0.00     0.104 C 
HETATM    3  O   UNL     1      17.256  -0.327 113.962  1.00  0.00    -0.246 OA
HETATM    4  C   UNL     1      14.729   1.333 115.707  1.00  0.00     0.050 C 
HETATM    5  N   UNL     1      17.565   2.799 114.115  1.00  0.00    -0.338 N 
ATOM      6  HN  UNL     1      17.917   2.325 113.283  1.00  0.00     0.168 HD
HETATM    7  C   UNL     1      14.556   0.493 116.846  1.00  0.00     0.078 C 
HETATM    8  N   UNL     1      15.950   1.202 115.043  1.00  0.00    -0.249 N 
HETATM    9  C   UNL     1      16.369   2.455 114.639  1.00  0.00     0.123 C 
HETATM   10  N   UNL     1      17.910   4.788 115.379  1.00  0.00    -0.371 N 
ATOM     11  HN  UNL     1      18.575   5.071 116.099  1.00  0.00     0.161 HD
HETATM   12  C   UNL     1      16.649   6.358 116.672  1.00  0.00     0.163 C 
HETATM   13  C   UNL     1      15.414   4.869 115.043  1.00  0.00     0.079 C 
HETATM   14  C   UNL     1      16.493  -0.059 114.881  1.00  0.00     0.334 C 
HETATM   15  C   UNL     1      18.286   3.766 114.698  1.00  0.00     0.178 C 
HETATM   16  N   UNL     1      16.171  -0.986 115.818  1.00  0.00    -0.294 N 
ATOM     17  HN  UNL     1      16.598  -1.912 115.781  1.00  0.00     0.172 HD
HETATM   18  C   UNL     1      14.343   2.668 115.616  1.00  0.00     0.041 C 
HETATM   19  C   UNL     1      16.891   6.717 114.254  1.00  0.00     0.167 C 
HETATM   20  C   UNL     1      15.405   3.383 115.066  1.00  0.00    -0.009 C 
HETATM   21  C   UNL     1      16.711   5.623 115.321  1.00  0.00     0.088 C 
HETATM   22  C   UNL     1      16.990   8.075 114.925  1.00  0.00     0.053 C 
ENDROOT
BRANCH  12  23
HETATM   23  O   UNL     1      15.419   6.168 117.352  1.00  0.00    -0.392 OA
ATOM     24  HO  UNL     1      14.964   6.966 117.592  1.00  0.00     0.210 HD
ENDBRANCH  12  23
BRANCH  19  25
HETATM   25  O   UNL     1      16.096   6.792 113.076  1.00  0.00    -0.275 OA
BRANCH  25  26
HETATM   26  P   UNL     1      16.308   5.948 111.733  1.00  0.00     0.422 P 
HETATM   27  O   UNL     1      16.932   4.626 111.901  1.00  0.00    -0.617 OA
HETATM   28  O   UNL     1      17.278   6.671 110.856  1.00  0.00    -0.617 OA
HETATM   29  O   UNL     1      14.931   5.751 111.238  1.00  0.00    -0.617 OA
ENDBRANCH  25  26
ENDBRANCH  19  25
BRANCH   1  30
HETATM   30  C   UNL     1      16.499   8.972 117.180  1.00  0.00     0.179 C 
HETATM   31  O   UNL     1      17.181   9.508 118.074  1.00  0.00    -0.648 OA
HETATM   32  O   UNL     1      15.306   9.382 116.843  1.00  0.00    -0.648 OA
ENDBRANCH   1  30
BRANCH   2  33
HETATM   33  N   UNL     1      15.173  -1.579 117.809  1.00  0.00    -0.385 N 
ATOM     34  HN2 UNL     1      14.545  -1.333 118.574  1.00  0.00     0.157 HD
ATOM     35  HN1 UNL     1      15.668  -2.470 117.759  1.00  0.00     0.157 HD
ENDBRANCH   2  33
TORSDOF 5
ENDMDL
MODEL 5
REMARK VINA RESULT:      -7.3      2.709      4.969
REMARK  5 active torsions:
REMARK  status: ('A' for Active; 'I' for Inactive)
REMARK    1  A    between atoms: C_1  and  C_34 
REMARK    2  A    between atoms: C_2  and  N_5 
REMARK    3  A    between atoms: O_9  and  C_21 
REMARK    4  A    between atoms: O_18  and  P_29 
REMARK    5  A    between atoms: O_18  and  C_31 
ROOT
HETATM    1  C   UNL     1      18.468  -0.728 114.154  1.00  0.00     0.120 C 
HETATM    2  C   UNL     1      15.960   7.561 114.282  1.00  0.00     0.104 C 
HETATM    3  O   UNL     1      15.681   6.505 117.593  1.00  0.00    -0.246 OA
HETATM    4  C   UNL     1      15.192   5.323 114.345  1.00  0.00     0.050 C 
HETATM    5  N   UNL     1      16.550   3.522 117.108  1.00  0.00    -0.338 N 
ATOM      6  HN  UNL     1      16.200   3.773 118.033  1.00  0.00     0.168 HD
HETATM    7  C   UNL     1      15.646   6.423 113.559  1.00  0.00     0.078 C 
HETATM    8  N   UNL     1      15.659   5.291 115.660  1.00  0.00    -0.249 N 
HETATM    9  C   UNL     1      15.930   3.979 115.999  1.00  0.00     0.123 C 
HETATM   10  N   UNL     1      17.960   1.920 116.052  1.00  0.00    -0.371 N 
ATOM     11  HN  UNL     1      18.968   1.833 115.918  1.00  0.00     0.161 HD
HETATM   12  C   UNL     1      18.115   0.719 113.987  1.00  0.00     0.163 C 
HETATM   13  C   UNL     1      15.890   1.740 114.627  1.00  0.00     0.079 C 
HETATM   14  C   UNL     1      15.744   6.474 116.370  1.00  0.00     0.334 C 
HETATM   15  C   UNL     1      17.630   2.738 116.985  1.00  0.00     0.178 C 
HETATM   16  N   UNL     1      15.942   7.605 115.649  1.00  0.00    -0.294 N 
ATOM     17  HN  UNL     1      16.078   8.495 116.129  1.00  0.00     0.172 HD
HETATM   18  C   UNL     1      15.075   4.006 113.908  1.00  0.00     0.041 C 
HETATM   19  C   UNL     1      16.811  -0.238 115.836  1.00  0.00     0.167 C 
HETATM   20  C   UNL     1      15.642   3.183 114.879  1.00  0.00    -0.009 C 
HETATM   21  C   UNL     1      17.169   1.089 115.145  1.00  0.00     0.088 C 
HETATM   22  C   UNL     1      17.548  -1.381 115.163  1.00  0.00     0.053 C 
ENDROOT
BRANCH  12  23
HETATM   23  O   UNL     1      17.595   1.066 112.714  1.00  0.00    -0.392 OA
ATOM     24  HO  UNL     1      17.274   0.337 112.198  1.00  0.00     0.210 HD
ENDBRANCH  12  23
BRANCH  19  25
HETATM   25  O   UNL     1      15.474  -0.614 116.150  1.00  0.00    -0.275 OA
BRANCH  25  26
HETATM   26  P   UNL     1      14.887  -0.900 117.611  1.00  0.00     0.422 P 
HETATM   27  O   UNL     1      15.883  -1.202 118.652  1.00  0.00    -0.617 OA
HETATM   28  O   UNL     1      14.060  -2.144 117.564  1.00  0.00    -0.617 OA
HETATM   29  O   UNL     1      14.221   0.370 117.961  1.00  0.00    -0.617 OA
ENDBRANCH  25  26
ENDBRANCH  19  25
BRANCH   1  30
HETATM   30  C   UNL     1      18.779  -1.682 113.036  1.00  0.00     0.179 C 
HETATM   31  O   UNL     1      19.948  -2.038 112.797  1.00  0.00    -0.648 OA
HETATM   32  O   UNL     1      17.747  -2.097 112.352  1.00  0.00    -0.648 OA
ENDBRANCH   1  30
BRANCH   2  33
HETATM   33  N   UNL     1      16.367   8.675 113.653  1.00  0.00    -0.385 N 
ATOM     34  HN2 UNL     1      16.729   9.425 114.242  1.00  0.00     0.157 HD
ATOM     35  HN1 UNL     1      16.350   8.728 112.634  1.00  0.00     0.157 HD
ENDBRANCH   2  33
TORSDOF 5
ENDMDL
MODEL 6
REMARK VINA RESULT:      -7.2      3.987      6.834
REMARK  5 active torsions:
REMARK  status: ('A' for Active; 'I' for Inactive)
REMARK    1  A    between atoms: C_1  and  C_34 
REMARK    2  A    between atoms: C_2  and  N_5 
REMARK    3  A    between atoms: O_9  and  C_21 
REMARK    4  A    between atoms: O_18  and  P_29 
REMARK    5  A    between atoms: O_18  and  C_31 
ROOT
HETATM    1  C   UNL     1      21.566  -1.698 114.848  1.00  0.00     0.120 C 
HETATM    2  C   UNL     1      15.363   4.117 116.501  1.00  0.00     0.104 C 
HETATM    3  O   UNL     1      13.717   1.044 116.516  1.00  0.00    -0.246 OA
HETATM    4  C   UNL     1      16.279   2.711 114.831  1.00  0.00     0.050 C 
HETATM    5  N   UNL     1      16.216  -0.723 115.795  1.00  0.00    -0.338 N 
ATOM      6  HN  UNL     1      15.302  -1.175 115.814  1.00  0.00     0.168 HD
HETATM    7  C   UNL     1      16.353   3.941 115.549  1.00  0.00     0.078 C 
HETATM    8  N   UNL     1      15.674   1.653 115.511  1.00  0.00    -0.249 N 
HETATM    9  C   UNL     1      16.363   0.491 115.222  1.00  0.00     0.123 C 
HETATM   10  N   UNL     1      18.527  -1.244 116.042  1.00  0.00    -0.371 N 
ATOM     11  HN  UNL     1      19.150  -1.368 116.840  1.00  0.00     0.161 HD
HETATM   12  C   UNL     1      20.646  -0.558 115.166  1.00  0.00     0.163 C 
HETATM   13  C   UNL     1      18.557   0.014 113.859  1.00  0.00     0.079 C 
HETATM   14  C   UNL     1      14.555   1.905 116.283  1.00  0.00     0.334 C 
HETATM   15  C   UNL     1      17.280  -1.328 116.340  1.00  0.00     0.178 C 
HETATM   16  N   UNL     1      14.446   3.151 116.810  1.00  0.00    -0.294 N 
ATOM     17  HN  UNL     1      13.673   3.368 117.440  1.00  0.00     0.172 HD
HETATM   18  C   UNL     1      17.286   2.175 114.032  1.00  0.00     0.041 C 
HETATM   19  C   UNL     1      19.391  -2.331 114.019  1.00  0.00     0.167 C 
HETATM   20  C   UNL     1      17.420   0.828 114.360  1.00  0.00    -0.009 C 
HETATM   21  C   UNL     1      19.224  -1.004 114.779  1.00  0.00     0.088 C 
HETATM   22  C   UNL     1      20.859  -2.718 113.982  1.00  0.00     0.053 C 
ENDROOT
BRANCH  12  23
HETATM   23  O   UNL     1      21.012   0.687 114.594  1.00  0.00    -0.392 OA
ATOM     24  HO  UNL     1      20.400   1.031 113.955  1.00  0.00     0.210 HD
ENDBRANCH  12  23
BRANCH  19  25
HETATM   25  O   UNL     1      18.768  -2.593 112.766  1.00  0.00    -0.275 OA
BRANCH  25  26
HETATM   26  P   UNL     1      17.319  -3.233 112.543  1.00  0.00     0.422 P 
HETATM   27  O   UNL     1      16.363  -3.051 113.647  1.00  0.00    -0.617 OA
HETATM   28  O   UNL     1      17.456  -4.719 112.456  1.00  0.00    -0.617 OA
HETATM   29  O   UNL     1      16.808  -2.508 111.363  1.00  0.00    -0.617 OA
ENDBRANCH  25  26
ENDBRANCH  19  25
BRANCH   1  30
HETATM   30  C   UNL     1      23.003  -1.564 114.430  1.00  0.00     0.179 C 
HETATM   31  O   UNL     1      23.635  -0.508 114.618  1.00  0.00    -0.648 OA
HETATM   32  O   UNL     1      23.523  -2.622 113.866  1.00  0.00    -0.648 OA
ENDBRANCH   1  30
BRANCH   2  33
HETATM   33  N   UNL     1      15.304   5.250 117.219  1.00  0.00    -0.385 N 
ATOM     34  HN2 UNL     1      14.376   5.555 117.513  1.00  0.00     0.157 HD
ATOM     35  HN1 UNL     1      16.161   5.736 117.485  1.00  0.00     0.157 HD
ENDBRANCH   2  33
TORSDOF 5
ENDMDL
MODEL 7
REMARK VINA RESULT:      -7.0      3.075      4.233
REMARK  5 active torsions:
REMARK  status: ('A' for Active; 'I' for Inactive)
REMARK    1  A    between atoms: C_1  and  C_34 
REMARK    2  A    between atoms: C_2  and  N_5 
REMARK    3  A    between atoms: O_9  and  C_21 
REMARK    4  A    between atoms: O_18  and  P_29 
REMARK    5  A    between atoms: O_18  and  C_31 
ROOT
HETATM    1  C   UNL     1      16.705   2.742 119.970  1.00  0.00     0.120 C 
HETATM    2  C   UNL     1      16.606   6.334 112.089  1.00  0.00     0.104 C 
HETATM    3  O   UNL     1      14.135   3.877 111.969  1.00  0.00    -0.246 OA
HETATM    4  C   UNL     1      17.303   4.439 113.325  1.00  0.00     0.050 C 
HETATM    5  N   UNL     1      14.556   2.780 114.885  1.00  0.00    -0.338 N 
ATOM      6  HN  UNL     1      13.923   2.269 114.270  1.00  0.00     0.168 HD
HETATM    7  C   UNL     1      17.555   5.787 112.937  1.00  0.00     0.078 C 
HETATM    8  N   UNL     1      15.960   4.056 113.329  1.00  0.00    -0.249 N 
HETATM    9  C   UNL     1      15.739   3.234 114.418  1.00  0.00     0.123 C 
HETATM   10  N   UNL     1      14.961   3.155 117.202  1.00  0.00    -0.371 N 
ATOM     11  HN  UNL     1      14.564   3.778 117.905  1.00  0.00     0.161 HD
HETATM   12  C   UNL     1      16.803   3.514 118.688  1.00  0.00     0.163 C 
HETATM   13  C   UNL     1      17.262   2.486 116.423  1.00  0.00     0.079 C 
HETATM   14  C   UNL     1      15.134   4.497 112.311  1.00  0.00     0.334 C 
HETATM   15  C   UNL     1      14.222   3.007 116.163  1.00  0.00     0.178 C 
HETATM   16  N   UNL     1      15.461   5.678 111.730  1.00  0.00    -0.294 N 
ATOM     17  HN  UNL     1      14.847   6.080 111.021  1.00  0.00     0.172 HD
HETATM   18  C   UNL     1      17.936   3.761 114.363  1.00  0.00     0.041 C 
HETATM   19  C   UNL     1      16.077   1.216 118.212  1.00  0.00     0.167 C 
HETATM   20  C   UNL     1      16.954   3.113 115.111  1.00  0.00    -0.009 C 
HETATM   21  C   UNL     1      16.264   2.602 117.570  1.00  0.00     0.088 C 
HETATM   22  C   UNL     1      16.437   1.280 119.685  1.00  0.00     0.053 C 
ENDROOT
BRANCH  12  23
HETATM   23  O   UNL     1      18.088   4.041 118.403  1.00  0.00    -0.392 OA
ATOM     24  HO  UNL     1      18.131   4.988 118.352  1.00  0.00     0.210 HD
ENDBRANCH  12  23
BRANCH  19  25
HETATM   25  O   UNL     1      16.566   0.015 117.624  1.00  0.00    -0.275 OA
BRANCH  25  26
HETATM   26  P   UNL     1      15.733  -1.005 116.715  1.00  0.00     0.422 P 
HETATM   27  O   UNL     1      16.481  -2.165 116.205  1.00  0.00    -0.617 OA
HETATM   28  O   UNL     1      15.306  -0.302 115.467  1.00  0.00    -0.617 OA
HETATM   29  O   UNL     1      14.687  -1.496 117.634  1.00  0.00    -0.617 OA
ENDBRANCH  25  26
ENDBRANCH  19  25
BRANCH   1  30
HETATM   30  C   UNL     1      17.632   2.885 121.143  1.00  0.00     0.179 C 
HETATM   31  O   UNL     1      18.861   2.738 121.017  1.00  0.00    -0.648 OA
HETATM   32  O   UNL     1      17.055   3.168 122.281  1.00  0.00    -0.648 OA
ENDBRANCH   1  30
BRANCH   2  33
HETATM   33  N   UNL     1      16.750   7.585 111.625  1.00  0.00    -0.385 N 
ATOM     34  HN2 UNL     1      15.897   8.063 111.333  1.00  0.00     0.157 HD
ATOM     35  HN1 UNL     1      17.667   8.031 111.620  1.00  0.00     0.157 HD
ENDBRANCH   2  33
TORSDOF 5
ENDMDL
MODEL 8
REMARK VINA RESULT:      -6.9      2.992      6.953
REMARK  5 active torsions:
REMARK  status: ('A' for Active; 'I' for Inactive)
REMARK    1  A    between atoms: C_1  and  C_34 
REMARK    2  A    between atoms: C_2  and  N_5 
REMARK    3  A    between atoms: O_9  and  C_21 
REMARK    4  A    between atoms: O_18  and  P_29 
REMARK    5  A    between atoms: O_18  and  C_31 
ROOT
HETATM    1  C   UNL     1      16.970   9.269 116.151  1.00  0.00     0.120 C 
HETATM    2  C   UNL     1      14.811   0.881 116.100  1.00  0.00     0.104 C 
HETATM    3  O   UNL     1      17.703   1.058 114.161  1.00  0.00    -0.246 OA
HETATM    4  C   UNL     1      14.795   2.874 114.822  1.00  0.00     0.050 C 
HETATM    5  N   UNL     1      18.082   4.175 114.339  1.00  0.00    -0.338 N 
ATOM      6  HN  UNL     1      18.689   3.656 113.705  1.00  0.00     0.168 HD
HETATM    7  C   UNL     1      14.181   2.087 115.840  1.00  0.00     0.078 C 
HETATM    8  N   UNL     1      16.167   2.673 114.653  1.00  0.00    -0.249 N 
HETATM    9  C   UNL     1      16.762   3.894 114.398  1.00  0.00     0.123 C 
HETATM   10  N   UNL     1      18.037   6.200 115.591  1.00  0.00    -0.371 N 
ATOM     11  HN  UNL     1      18.408   6.488 116.497  1.00  0.00     0.161 HD
HETATM   12  C   UNL     1      16.467   7.864 116.296  1.00  0.00     0.163 C 
HETATM   13  C   UNL     1      15.841   6.353 114.366  1.00  0.00     0.079 C 
HETATM   14  C   UNL     1      16.671   1.389 114.732  1.00  0.00     0.334 C 
HETATM   15  C   UNL     1      18.587   5.139 115.120  1.00  0.00     0.178 C 
HETATM   16  N   UNL     1      15.988   0.512 115.509  1.00  0.00    -0.294 N 
ATOM     17  HN  UNL     1      16.355  -0.429 115.654  1.00  0.00     0.172 HD
HETATM   18  C   UNL     1      14.532   4.216 114.564  1.00  0.00     0.041 C 
HETATM   19  C   UNL     1      17.589   8.116 114.125  1.00  0.00     0.167 C 
HETATM   20  C   UNL     1      15.754   4.871 114.421  1.00  0.00    -0.009 C 
HETATM   21  C   UNL     1      16.981   7.073 115.079  1.00  0.00     0.088 C 
HETATM   22  C   UNL     1      17.500   9.496 114.752  1.00  0.00     0.053 C 
ENDROOT
BRANCH  12  23
HETATM   23  O   UNL     1      15.067   7.744 116.485  1.00  0.00    -0.392 OA
ATOM     24  HO  UNL     1      14.688   6.929 116.178  1.00  0.00     0.210 HD
ENDBRANCH  12  23
BRANCH  19  25
HETATM   25  O   UNL     1      17.280   8.171 112.736  1.00  0.00    -0.275 OA
BRANCH  25  26
HETATM   26  P   UNL     1      17.932   7.273 111.583  1.00  0.00     0.422 P 
HETATM   27  O   UNL     1      18.395   8.001 110.391  1.00  0.00    -0.617 OA
HETATM   28  O   UNL     1      16.886   6.357 111.035  1.00  0.00    -0.617 OA
HETATM   29  O   UNL     1      19.107   6.675 112.247  1.00  0.00    -0.617 OA
ENDBRANCH  25  26
ENDBRANCH  19  25
BRANCH   1  30
HETATM   30  C   UNL     1      16.267  10.499 116.649  1.00  0.00     0.179 C 
HETATM   31  O   UNL     1      15.037  10.506 116.843  1.00  0.00    -0.648 OA
HETATM   32  O   UNL     1      17.033  11.536 116.857  1.00  0.00    -0.648 OA
ENDBRANCH   1  30
BRANCH   2  33
HETATM   33  N   UNL     1      14.308   0.035 117.013  1.00  0.00    -0.385 N 
ATOM     34  HN2 UNL     1      14.461  -0.960 116.844  1.00  0.00     0.157 HD
ATOM     35  HN1 UNL     1      13.844   0.393 117.848  1.00  0.00     0.157 HD
ENDBRANCH   2  33
TORSDOF 5
ENDMDL
MODEL 9
REMARK VINA RESULT:      -6.9      2.756      5.153
REMARK  5 active torsions:
REMARK  status: ('A' for Active; 'I' for Inactive)
REMARK    1  A    between atoms: C_1  and  C_34 
REMARK    2  A    between atoms: C_2  and  N_5 
REMARK    3  A    between atoms: O_9  and  C_21 
REMARK    4  A    between atoms: O_18  and  P_29 
REMARK    5  A    between atoms: O_18  and  C_31 
ROOT
HETATM    1  C   UNL     1      19.044  -1.042 114.772  1.00  0.00     0.120 C 
HETATM    2  C   UNL     1      16.155   6.698 112.169  1.00  0.00     0.104 C 
HETATM    3  O   UNL     1      15.394   6.571 115.569  1.00  0.00    -0.246 OA
HETATM    4  C   UNL     1      15.495   4.502 112.758  1.00  0.00     0.050 C 
HETATM    5  N   UNL     1      16.472   3.662 116.085  1.00  0.00    -0.338 N 
ATOM      6  HN  UNL     1      15.965   4.124 116.840  1.00  0.00     0.168 HD
HETATM    7  C   UNL     1      16.017   5.380 111.764  1.00  0.00     0.078 C 
HETATM    8  N   UNL     1      15.743   4.875 114.081  1.00  0.00    -0.249 N 
HETATM    9  C   UNL     1      16.019   3.738 114.815  1.00  0.00     0.123 C 
HETATM   10  N   UNL     1      18.110   1.968 115.742  1.00  0.00    -0.371 N 
ATOM     11  HN  UNL     1      19.129   1.940 115.783  1.00  0.00     0.161 HD
HETATM   12  C   UNL     1      18.654   0.265 114.150  1.00  0.00     0.163 C 
HETATM   13  C   UNL     1      16.309   1.214 114.149  1.00  0.00     0.079 C 
HETATM   14  C   UNL     1      15.656   6.211 114.428  1.00  0.00     0.334 C 
HETATM   15  C   UNL     1      17.594   2.977 116.345  1.00  0.00     0.178 C 
HETATM   16  N   UNL     1      15.914   7.114 113.449  1.00  0.00    -0.294 N 
ATOM     17  HN  UNL     1      15.928   8.110 113.670  1.00  0.00     0.172 HD
HETATM   18  C   UNL     1      15.514   3.111 112.704  1.00  0.00     0.041 C 
HETATM   19  C   UNL     1      17.115  -0.262 115.991  1.00  0.00     0.167 C 
HETATM   20  C   UNL     1      15.954   2.642 113.940  1.00  0.00    -0.009 C 
HETATM   21  C   UNL     1      17.517   0.851 115.007  1.00  0.00     0.088 C 
HETATM   22  C   UNL     1      18.006  -1.474 115.784  1.00  0.00     0.053 C 
ENDROOT
BRANCH  12  23
HETATM   23  O   UNL     1      18.332   0.200 112.771  1.00  0.00    -0.392 OA
ATOM     24  HO  UNL     1      19.073   0.265 112.181  1.00  0.00     0.210 HD
ENDBRANCH  12  23
BRANCH  19  25
HETATM   25  O   UNL     1      15.764  -0.658 116.206  1.00  0.00    -0.275 OA
BRANCH  25  26
HETATM   26  P   UNL     1      15.028  -0.788 117.621  1.00  0.00     0.422 P 
HETATM   27  O   UNL     1      14.546  -2.134 117.970  1.00  0.00    -0.617 OA
HETATM   28  O   UNL     1      13.772   0.022 117.587  1.00  0.00    -0.617 OA
HETATM   29  O   UNL     1      16.080  -0.408 118.584  1.00  0.00    -0.617 OA
ENDBRANCH  25  26
ENDBRANCH  19  25
BRANCH   1  30
HETATM   30  C   UNL     1      19.577  -2.233 114.029  1.00  0.00     0.179 C 
HETATM   31  O   UNL     1      18.957  -2.725 113.068  1.00  0.00    -0.648 OA
HETATM   32  O   UNL     1      20.717  -2.701 114.464  1.00  0.00    -0.648 OA
ENDBRANCH   1  30
BRANCH   2  33
HETATM   33  N   UNL     1      16.604   7.628 111.312  1.00  0.00    -0.385 N 
ATOM     34  HN2 UNL     1      15.897   8.137 110.781  1.00  0.00     0.157 HD
ATOM     35  HN1 UNL     1      17.602   7.832 111.248  1.00  0.00     0.157 HD
ENDBRANCH   2  33
TORSDOF 5
ENDMDL
