MODEL 1
REMARK VINA RESULT:      -6.1      0.000      0.000
REMARK  17 active torsions:
REMARK  status: ('A' for Active; 'I' for Inactive)
REMARK    1  A    between atoms: C_1  and  C_15 
REMARK    2  A    between atoms: C_1  and  C_29 
REMARK    3  A    between atoms: O_2  and  C_32 
REMARK    4  A    between atoms: O_5  and  C_15 
REMARK    5  A    between atoms: O_5  and  C_34 
REMARK    6  A    between atoms: O_6  and  C_16 
REMARK    7  A    between atoms: O_6  and  C_34 
REMARK    8  A    between atoms: C_7  and  C_10 
REMARK    9  A    between atoms: C_7  and  C_39 
REMARK   10  A    between atoms: C_10  and  C_27 
REMARK   11  A    between atoms: O_11  and  C_28 
REMARK   12  A    between atoms: C_16  and  C_30 
REMARK   13  A    between atoms: N_17  and  CA_33 
REMARK   14  A    between atoms: O_21  and  C_32 
REMARK   15  A    between atoms: C_28  and  CA_33 
REMARK   16  A    between atoms: C_30  and  CA_33 
REMARK   17  A    between atoms: C_34  and  O_35 
ROOT
HETATM    1  C   UNL     1      19.807  -0.340 115.386  1.00  0.00     0.026 C 
HETATM    2  C   UNL     1      18.495   0.137 115.303  1.00  0.00    -0.024 C 
HETATM    3  C   UNL     1      19.829  -1.280 116.404  1.00  0.00     0.089 C 
HETATM    4  N   UNL     1      18.580  -1.477 116.867  1.00  0.00    -0.362 N 
ATOM      5  HN  UNL     1      18.319  -2.094 117.636  1.00  0.00     0.165 HD
HETATM    6  C   UNL     1      17.720  -0.711 116.132  1.00  0.00     0.093 C 
ENDROOT
BRANCH   2   7
HETATM    7  C   UNL     1      18.042   1.320 114.478  1.00  0.00     0.067 C 
BRANCH   7   8
HETATM    8  C   UNL     1      17.555   0.948 113.086  1.00  0.00     0.178 C 
BRANCH   8   9
HETATM    9  O   UNL     1      16.215   1.440 112.953  1.00  0.00    -0.339 OA
BRANCH   9  10
HETATM   10  C   UNL     1      15.819   2.861 112.928  1.00  0.00     0.410 C 
BRANCH  10  11
HETATM   11  O   UNL     1      16.808   3.828 112.378  1.00  0.00    -0.339 OA
BRANCH  11  12
HETATM   12  C   UNL     1      17.436   4.852 113.157  1.00  0.00     0.175 C 
BRANCH  12  13
HETATM   13  C   UNL     1      17.183   6.212 112.506  1.00  0.00     0.061 C 
BRANCH  13  14
HETATM   14  CA  UNL     1      15.791   6.763 112.822  1.00  0.00     0.209 C 
BRANCH  14  15
HETATM   15  N   UNL     1      14.754   6.037 112.075  1.00  0.00    -0.073 N 
ATOM     16  HN3 UNL     1      13.828   6.130 112.492  1.00  0.00     0.274 HD
ATOM     17  HN2 UNL     1      14.541   6.466 111.174  1.00  0.00     0.274 HD
ATOM     18  HN1 UNL     1      15.055   5.066 111.989  1.00  0.00     0.274 HD
ENDBRANCH  14  15
BRANCH  14  19
HETATM   19  C   UNL     1      15.508   6.574 114.314  1.00  0.00     0.197 C 
BRANCH  19  20
HETATM   20  O   UNL     1      14.401   5.722 114.563  1.00  0.00    -0.399 OA
ATOM     21  HO  UNL     1      13.575   6.099 114.286  1.00  0.00     0.209 HD
ENDBRANCH  19  20
ENDBRANCH  14  19
ENDBRANCH  13  14
ENDBRANCH  12  13
ENDBRANCH  11  12
ENDBRANCH  10  11
BRANCH  10  22
HETATM   22  O   UNL     1      14.645   3.209 113.468  1.00  0.00    -0.349 OA
ATOM     23  HO  UNL     1      14.094   2.528 113.838  1.00  0.00     0.215 HD
ENDBRANCH  10  22
ENDBRANCH   9  10
ENDBRANCH   8   9
ENDBRANCH   7   8
ENDBRANCH   2   7
BRANCH   6  24
HETATM   24  C   UNL     1      16.221  -0.882 116.201  1.00  0.00     0.250 C 
HETATM   25  O   UNL     1      15.610  -1.258 115.228  1.00  0.00    -0.282 OA
BRANCH  24  26
HETATM   26  C   UNL     1      15.459  -0.419 117.445  1.00  0.00     0.247 C 
HETATM   27  O   UNL     1      15.358  -1.197 118.368  1.00  0.00    -0.282 OA
BRANCH  26  28
HETATM   28  C   UNL     1      14.862   0.944 117.612  1.00  0.00     0.077 C 
HETATM   29  C   UNL     1      14.023   1.585 116.592  1.00  0.00     0.180 C 
HETATM   30  N   UNL     1      14.206   2.989 116.488  1.00  0.00    -0.362 N 
HETATM   31  C   UNL     1      15.393   3.668 117.063  1.00  0.00     0.257 C 
ATOM     32  HN  UNL     1      13.502   3.547 116.005  1.00  0.00     0.159 HD
HETATM   33  C   UNL     1      15.979   2.946 118.303  1.00  0.00     0.213 C 
HETATM   34  N   UNL     1      15.204   1.747 118.615  1.00  0.00    -0.381 N 
ATOM     35  HN  UNL     1      14.934   1.532 119.575  1.00  0.00     0.159 HD
BRANCH  31  36
HETATM   36  O   UNL     1      15.029   4.923 117.464  1.00  0.00    -0.348 OA
ATOM     37  HO  UNL     1      15.081   4.937 118.413  1.00  0.00     0.215 HD
ENDBRANCH  31  36
BRANCH  31  38
HETATM   38  O   UNL     1      16.359   3.699 116.068  1.00  0.00    -0.348 OA
ATOM     39  HO  UNL     1      16.505   2.842 115.686  1.00  0.00     0.215 HD
ENDBRANCH  31  38
ENDBRANCH  26  28
ENDBRANCH  24  26
ENDBRANCH   6  24
TORSDOF 17
ENDMDL
MODEL 2
REMARK VINA RESULT:      -6.0      2.244      4.918
REMARK  17 active torsions:
REMARK  status: ('A' for Active; 'I' for Inactive)
REMARK    1  A    between atoms: C_1  and  C_15 
REMARK    2  A    between atoms: C_1  and  C_29 
REMARK    3  A    between atoms: O_2  and  C_32 
REMARK    4  A    between atoms: O_5  and  C_15 
REMARK    5  A    between atoms: O_5  and  C_34 
REMARK    6  A    between atoms: O_6  and  C_16 
REMARK    7  A    between atoms: O_6  and  C_34 
REMARK    8  A    between atoms: C_7  and  C_10 
REMARK    9  A    between atoms: C_7  and  C_39 
REMARK   10  A    between atoms: C_10  and  C_27 
REMARK   11  A    between atoms: O_11  and  C_28 
REMARK   12  A    between atoms: C_16  and  C_30 
REMARK   13  A    between atoms: N_17  and  CA_33 
REMARK   14  A    between atoms: O_21  and  C_32 
REMARK   15  A    between atoms: C_28  and  CA_33 
REMARK   16  A    between atoms: C_30  and  CA_33 
REMARK   17  A    between atoms: C_34  and  O_35 
ROOT
HETATM    1  C   UNL     1      16.735   3.079 118.741  1.00  0.00     0.026 C 
HETATM    2  C   UNL     1      16.050   3.357 117.553  1.00  0.00    -0.024 C 
HETATM    3  C   UNL     1      16.024   2.084 119.391  1.00  0.00     0.089 C 
HETATM    4  N   UNL     1      15.010   1.666 118.610  1.00  0.00    -0.362 N 
ATOM      5  HN  UNL     1      14.314   0.963 118.861  1.00  0.00     0.165 HD
HETATM    6  C   UNL     1      15.068   2.343 117.425  1.00  0.00     0.093 C 
ENDROOT
BRANCH   2   7
HETATM    7  C   UNL     1      16.339   4.513 116.623  1.00  0.00     0.067 C 
BRANCH   7   8
HETATM    8  C   UNL     1      15.818   5.851 117.127  1.00  0.00     0.178 C 
BRANCH   8   9
HETATM    9  O   UNL     1      16.424   6.876 116.330  1.00  0.00    -0.339 OA
BRANCH   9  10
HETATM   10  C   UNL     1      15.791   8.151 115.941  1.00  0.00     0.410 C 
BRANCH  10  11
HETATM   11  O   UNL     1      16.119   8.684 114.591  1.00  0.00    -0.339 OA
BRANCH  11  12
HETATM   12  C   UNL     1      16.594   7.873 113.510  1.00  0.00     0.175 C 
BRANCH  12  13
HETATM   13  C   UNL     1      15.405   7.211 112.813  1.00  0.00     0.061 C 
BRANCH  13  14
HETATM   14  CA  UNL     1      15.146   5.791 113.320  1.00  0.00     0.209 C 
BRANCH  14  15
HETATM   15  N   UNL     1      13.809   5.680 113.919  1.00  0.00    -0.073 N 
ATOM     16  HN3 UNL     1      13.833   5.337 114.879  1.00  0.00     0.274 HD
ATOM     17  HN2 UNL     1      13.383   6.587 114.108  1.00  0.00     0.274 HD
ATOM     18  HN1 UNL     1      13.240   5.097 113.304  1.00  0.00     0.274 HD
ENDBRANCH  14  15
BRANCH  14  19
HETATM   19  C   UNL     1      15.211   4.821 112.138  1.00  0.00     0.197 C 
BRANCH  19  20
HETATM   20  O   UNL     1      14.042   4.027 112.011  1.00  0.00    -0.399 OA
ATOM     21  HO  UNL     1      13.246   4.544 111.971  1.00  0.00     0.209 HD
ENDBRANCH  19  20
ENDBRANCH  14  19
ENDBRANCH  13  14
ENDBRANCH  12  13
ENDBRANCH  11  12
ENDBRANCH  10  11
BRANCH  10  22
HETATM   22  O   UNL     1      15.032   8.790 116.839  1.00  0.00    -0.349 OA
ATOM     23  HO  UNL     1      14.130   8.514 116.953  1.00  0.00     0.215 HD
ENDBRANCH  10  22
ENDBRANCH   9  10
ENDBRANCH   8   9
ENDBRANCH   7   8
ENDBRANCH   2   7
BRANCH   6  24
HETATM   24  C   UNL     1      14.250   1.942 116.221  1.00  0.00     0.250 C 
HETATM   25  O   UNL     1      13.071   1.703 116.343  1.00  0.00    -0.282 OA
BRANCH  24  26
HETATM   26  C   UNL     1      14.945   1.674 114.885  1.00  0.00     0.247 C 
HETATM   27  O   UNL     1      14.301   1.835 113.871  1.00  0.00    -0.282 OA
BRANCH  26  28
HETATM   28  C   UNL     1      16.378   1.263 114.745  1.00  0.00     0.077 C 
HETATM   29  C   UNL     1      17.214   1.636 113.597  1.00  0.00     0.180 C 
HETATM   30  N   UNL     1      18.134   0.630 113.199  1.00  0.00    -0.362 N 
HETATM   31  C   UNL     1      17.989  -0.780 113.635  1.00  0.00     0.257 C 
ATOM     32  HN  UNL     1      18.916   0.884 112.595  1.00  0.00     0.159 HD
HETATM   33  C   UNL     1      17.293  -0.933 115.011  1.00  0.00     0.213 C 
HETATM   34  N   UNL     1      16.940   0.374 115.559  1.00  0.00    -0.381 N 
ATOM     35  HN  UNL     1      17.120   0.599 116.538  1.00  0.00     0.159 HD
BRANCH  31  36
HETATM   36  O   UNL     1      19.234  -1.332 113.752  1.00  0.00    -0.348 OA
ATOM     37  HO  UNL     1      19.540  -1.517 112.872  1.00  0.00     0.215 HD
ENDBRANCH  31  36
BRANCH  31  38
HETATM   38  O   UNL     1      17.224  -1.422 112.673  1.00  0.00    -0.348 OA
ATOM     39  HO  UNL     1      16.740  -0.807 112.135  1.00  0.00     0.215 HD
ENDBRANCH  31  38
ENDBRANCH  26  28
ENDBRANCH  24  26
ENDBRANCH   6  24
TORSDOF 17
ENDMDL
MODEL 3
REMARK VINA RESULT:      -5.9      2.239      5.486
REMARK  17 active torsions:
REMARK  status: ('A' for Active; 'I' for Inactive)
REMARK    1  A    between atoms: C_1  and  C_15 
REMARK    2  A    between atoms: C_1  and  C_29 
REMARK    3  A    between atoms: O_2  and  C_32 
REMARK    4  A    between atoms: O_5  and  C_15 
REMARK    5  A    between atoms: O_5  and  C_34 
REMARK    6  A    between atoms: O_6  and  C_16 
REMARK    7  A    between atoms: O_6  and  C_34 
REMARK    8  A    between atoms: C_7  and  C_10 
REMARK    9  A    between atoms: C_7  and  C_39 
REMARK   10  A    between atoms: C_10  and  C_27 
REMARK   11  A    between atoms: O_11  and  C_28 
REMARK   12  A    between atoms: C_16  and  C_30 
REMARK   13  A    between atoms: N_17  and  CA_33 
REMARK   14  A    between atoms: O_21  and  C_32 
REMARK   15  A    between atoms: C_28  and  CA_33 
REMARK   16  A    between atoms: C_30  and  CA_33 
REMARK   17  A    between atoms: C_34  and  O_35 
ROOT
HETATM    1  C   UNL     1      18.860   2.827 115.062  1.00  0.00     0.026 C 
HETATM    2  C   UNL     1      18.004   2.726 113.961  1.00  0.00    -0.024 C 
HETATM    3  C   UNL     1      19.257   4.152 115.141  1.00  0.00     0.089 C 
HETATM    4  N   UNL     1      18.601   4.879 114.217  1.00  0.00    -0.362 N 
ATOM      5  HN  UNL     1      18.729   5.875 114.040  1.00  0.00     0.165 HD
HETATM    6  C   UNL     1      17.736   4.056 113.554  1.00  0.00     0.093 C 
ENDROOT
BRANCH   2   7
HETATM    7  C   UNL     1      17.490   1.435 113.364  1.00  0.00     0.067 C 
BRANCH   7   8
HETATM    8  C   UNL     1      17.352   0.305 114.372  1.00  0.00     0.178 C 
BRANCH   8   9
HETATM    9  O   UNL     1      15.957   0.159 114.666  1.00  0.00    -0.339 OA
BRANCH   9  10
HETATM   10  C   UNL     1      15.030   1.255 115.008  1.00  0.00     0.410 C 
BRANCH  10  11
HETATM   11  O   UNL     1      15.040   1.732 116.417  1.00  0.00    -0.339 OA
BRANCH  11  12
HETATM   12  C   UNL     1      14.773   0.889 117.544  1.00  0.00     0.175 C 
BRANCH  12  13
HETATM   13  C   UNL     1      15.364   1.523 118.803  1.00  0.00     0.061 C 
BRANCH  13  14
HETATM   14  CA  UNL     1      16.740   0.952 119.156  1.00  0.00     0.209 C 
BRANCH  14  15
HETATM   15  N   UNL     1      17.697   1.169 118.063  1.00  0.00    -0.073 N 
ATOM     16  HN3 UNL     1      18.652   0.916 118.317  1.00  0.00     0.274 HD
ATOM     17  HN2 UNL     1      17.581   0.506 117.296  1.00  0.00     0.274 HD
ATOM     18  HN1 UNL     1      17.612   2.140 117.762  1.00  0.00     0.274 HD
ENDBRANCH  14  15
BRANCH  14  19
HETATM   19  C   UNL     1      17.275   1.672 120.395  1.00  0.00     0.197 C 
BRANCH  19  20
HETATM   20  O   UNL     1      16.369   2.636 120.908  1.00  0.00    -0.399 OA
ATOM     21  HO  UNL     1      16.356   3.439 120.399  1.00  0.00     0.209 HD
ENDBRANCH  19  20
ENDBRANCH  14  19
ENDBRANCH  13  14
ENDBRANCH  12  13
ENDBRANCH  11  12
ENDBRANCH  10  11
BRANCH  10  22
HETATM   22  O   UNL     1      14.186   1.698 114.068  1.00  0.00    -0.349 OA
ATOM     23  HO  UNL     1      13.256   1.719 114.265  1.00  0.00     0.215 HD
ENDBRANCH  10  22
ENDBRANCH   9  10
ENDBRANCH   8   9
ENDBRANCH   7   8
ENDBRANCH   2   7
BRANCH   6  24
HETATM   24  C   UNL     1      16.657   4.584 112.637  1.00  0.00     0.250 C 
HETATM   25  O   UNL     1      16.951   5.037 111.556  1.00  0.00    -0.282 OA
BRANCH  24  26
HETATM   26  C   UNL     1      15.218   4.700 113.144  1.00  0.00     0.247 C 
HETATM   27  O   UNL     1      14.339   4.216 112.465  1.00  0.00    -0.282 OA
BRANCH  26  28
HETATM   28  C   UNL     1      14.828   5.339 114.441  1.00  0.00     0.077 C 
HETATM   29  C   UNL     1      14.714   6.791 114.620  1.00  0.00     0.180 C 
HETATM   30  N   UNL     1      15.132   7.253 115.897  1.00  0.00    -0.362 N 
HETATM   31  C   UNL     1      15.960   6.417 116.798  1.00  0.00     0.257 C 
ATOM     32  HN  UNL     1      14.854   8.186 116.202  1.00  0.00     0.159 HD
HETATM   33  C   UNL     1      15.735   4.894 116.612  1.00  0.00     0.213 C 
HETATM   34  N   UNL     1      14.740   4.645 115.572  1.00  0.00    -0.381 N 
ATOM     35  HN  UNL     1      13.999   3.957 115.710  1.00  0.00     0.159 HD
BRANCH  31  36
HETATM   36  O   UNL     1      15.636   6.714 118.093  1.00  0.00    -0.348 OA
ATOM     37  HO  UNL     1      15.331   7.613 118.104  1.00  0.00     0.215 HD
ENDBRANCH  31  36
BRANCH  31  38
HETATM   38  O   UNL     1      17.285   6.710 116.514  1.00  0.00    -0.348 OA
ATOM     39  HO  UNL     1      17.390   7.590 116.172  1.00  0.00     0.215 HD
ENDBRANCH  31  38
ENDBRANCH  26  28
ENDBRANCH  24  26
ENDBRANCH   6  24
TORSDOF 17
ENDMDL
MODEL 4
REMARK VINA RESULT:      -5.7      3.029      6.878
REMARK  17 active torsions:
REMARK  status: ('A' for Active; 'I' for Inactive)
REMARK    1  A    between atoms: C_1  and  C_15 
REMARK    2  A    between atoms: C_1  and  C_29 
REMARK    3  A    between atoms: O_2  and  C_32 
REMARK    4  A    between atoms: O_5  and  C_15 
REMARK    5  A    between atoms: O_5  and  C_34 
REMARK    6  A    between atoms: O_6  and  C_16 
REMARK    7  A    between atoms: O_6  and  C_34 
REMARK    8  A    between atoms: C_7  and  C_10 
REMARK    9  A    between atoms: C_7  and  C_39 
REMARK   10  A    between atoms: C_10  and  C_27 
REMARK   11  A    between atoms: O_11  and  C_28 
REMARK   12  A    between atoms: C_16  and  C_30 
REMARK   13  A    between atoms: N_17  and  CA_33 
REMARK   14  A    between atoms: O_21  and  C_32 
REMARK   15  A    between atoms: C_28  and  CA_33 
REMARK   16  A    between atoms: C_30  and  CA_33 
REMARK   17  A    between atoms: C_34  and  O_35 
ROOT
HETATM    1  C   UNL     1      18.705   7.369 110.749  1.00  0.00     0.026 C 
HETATM    2  C   UNL     1      17.821   6.884 111.719  1.00  0.00    -0.024 C 
HETATM    3  C   UNL     1      19.273   8.523 111.266  1.00  0.00     0.089 C 
HETATM    4  N   UNL     1      18.865   8.700 112.537  1.00  0.00    -0.362 N 
ATOM      5  HN  UNL     1      19.111   9.488 113.137  1.00  0.00     0.165 HD
HETATM    6  C   UNL     1      18.067   7.649 112.887  1.00  0.00     0.093 C 
ENDROOT
BRANCH   2   7
HETATM    7  C   UNL     1      16.825   5.764 111.518  1.00  0.00     0.067 C 
BRANCH   7   8
HETATM    8  C   UNL     1      15.406   6.123 111.930  1.00  0.00     0.178 C 
BRANCH   8   9
HETATM    9  O   UNL     1      14.844   4.976 112.580  1.00  0.00    -0.339 OA
BRANCH   9  10
HETATM   10  C   UNL     1      15.117   4.553 113.967  1.00  0.00     0.410 C 
BRANCH  10  11
HETATM   11  O   UNL     1      15.914   3.310 114.150  1.00  0.00    -0.339 OA
BRANCH  11  12
HETATM   12  C   UNL     1      15.334   2.012 114.326  1.00  0.00     0.175 C 
BRANCH  12  13
HETATM   13  C   UNL     1      15.664   1.495 115.726  1.00  0.00     0.061 C 
BRANCH  13  14
HETATM   14  CA  UNL     1      14.918   2.258 116.823  1.00  0.00     0.209 C 
BRANCH  14  15
HETATM   15  N   UNL     1      13.563   2.621 116.385  1.00  0.00    -0.073 N 
ATOM     16  HN3 UNL     1      13.408   3.629 116.371  1.00  0.00     0.274 HD
ATOM     17  HN2 UNL     1      13.407   2.446 115.392  1.00  0.00     0.274 HD
ATOM     18  HN1 UNL     1      12.900   2.126 116.982  1.00  0.00     0.274 HD
ENDBRANCH  14  15
BRANCH  14  19
HETATM   19  C   UNL     1      14.786   1.359 118.054  1.00  0.00     0.197 C 
BRANCH  19  20
HETATM   20  O   UNL     1      13.436   1.064 118.380  1.00  0.00    -0.399 OA
ATOM     21  HO  UNL     1      13.236   0.137 118.322  1.00  0.00     0.209 HD
ENDBRANCH  19  20
ENDBRANCH  14  19
ENDBRANCH  13  14
ENDBRANCH  12  13
ENDBRANCH  11  12
ENDBRANCH  10  11
BRANCH  10  22
HETATM   22  O   UNL     1      14.571   5.252 114.969  1.00  0.00    -0.349 OA
ATOM     23  HO  UNL     1      15.055   5.335 115.783  1.00  0.00     0.215 HD
ENDBRANCH  10  22
ENDBRANCH   9  10
ENDBRANCH   8   9
ENDBRANCH   7   8
ENDBRANCH   2   7
BRANCH   6  24
HETATM   24  C   UNL     1      17.651   7.386 114.315  1.00  0.00     0.250 C 
HETATM   25  O   UNL     1      17.947   6.343 114.849  1.00  0.00    -0.282 OA
BRANCH  24  26
HETATM   26  C   UNL     1      16.714   8.365 115.025  1.00  0.00     0.247 C 
HETATM   27  O   UNL     1      16.196   9.235 114.360  1.00  0.00    -0.282 OA
BRANCH  26  28
HETATM   28  C   UNL     1      16.365   8.296 116.480  1.00  0.00     0.077 C 
HETATM   29  C   UNL     1      16.933   9.201 117.487  1.00  0.00     0.180 C 
HETATM   30  N   UNL     1      17.177   8.590 118.745  1.00  0.00    -0.362 N 
HETATM   31  C   UNL     1      17.227   7.116 118.902  1.00  0.00     0.257 C 
ATOM     32  HN  UNL     1      17.321   9.181 119.564  1.00  0.00     0.159 HD
HETATM   33  C   UNL     1      16.345   6.355 117.880  1.00  0.00     0.213 C 
HETATM   34  N   UNL     1      15.661   7.291 116.991  1.00  0.00    -0.381 N 
ATOM     35  HN  UNL     1      14.673   7.175 116.768  1.00  0.00     0.159 HD
BRANCH  31  36
HETATM   36  O   UNL     1      16.768   6.792 120.148  1.00  0.00    -0.348 OA
ATOM     37  HO  UNL     1      15.931   6.357 120.031  1.00  0.00     0.215 HD
ENDBRANCH  31  36
BRANCH  31  38
HETATM   38  O   UNL     1      18.549   6.738 118.720  1.00  0.00    -0.348 OA
ATOM     39  HO  UNL     1      19.111   7.065 119.412  1.00  0.00     0.215 HD
ENDBRANCH  31  38
ENDBRANCH  26  28
ENDBRANCH  24  26
ENDBRANCH   6  24
TORSDOF 17
ENDMDL
MODEL 5
REMARK VINA RESULT:      -5.7      2.355      4.530
REMARK  17 active torsions:
REMARK  status: ('A' for Active; 'I' for Inactive)
REMARK    1  A    between atoms: C_1  and  C_15 
REMARK    2  A    between atoms: C_1  and  C_29 
REMARK    3  A    between atoms: O_2  and  C_32 
REMARK    4  A    between atoms: O_5  and  C_15 
REMARK    5  A    between atoms: O_5  and  C_34 
REMARK    6  A    between atoms: O_6  and  C_16 
REMARK    7  A    between atoms: O_6  and  C_34 
REMARK    8  A    between atoms: C_7  and  C_10 
REMARK    9  A    between atoms: C_7  and  C_39 
REMARK   10  A    between atoms: C_10  and  C_27 
REMARK   11  A    between atoms: O_11  and  C_28 
REMARK   12  A    between atoms: C_16  and  C_30 
REMARK   13  A    between atoms: N_17  and  CA_33 
REMARK   14  A    between atoms: O_21  and  C_32 
REMARK   15  A    between atoms: C_28  and  CA_33 
REMARK   16  A    between atoms: C_30  and  CA_33 
REMARK   17  A    between atoms: C_34  and  O_35 
ROOT
HETATM    1  C   UNL     1      16.759   3.718 118.417  1.00  0.00     0.026 C 
HETATM    2  C   UNL     1      15.802   3.745 117.397  1.00  0.00    -0.024 C 
HETATM    3  C   UNL     1      16.545   2.555 119.138  1.00  0.00     0.089 C 
HETATM    4  N   UNL     1      15.583   1.822 118.544  1.00  0.00    -0.362 N 
ATOM      5  HN  UNL     1      15.212   0.936 118.885  1.00  0.00     0.165 HD
HETATM    6  C   UNL     1      15.189   2.467 117.406  1.00  0.00     0.093 C 
ENDROOT
BRANCH   2   7
HETATM    7  C   UNL     1      15.517   4.921 116.490  1.00  0.00     0.067 C 
BRANCH   7   8
HETATM    8  C   UNL     1      16.062   4.755 115.080  1.00  0.00     0.178 C 
BRANCH   8   9
HETATM    9  O   UNL     1      15.032   5.163 114.171  1.00  0.00    -0.339 OA
BRANCH   9  10
HETATM   10  C   UNL     1      14.954   4.804 112.741  1.00  0.00     0.410 C 
BRANCH  10  11
HETATM   11  O   UNL     1      15.421   5.824 111.763  1.00  0.00    -0.339 OA
BRANCH  11  12
HETATM   12  C   UNL     1      16.749   5.864 111.229  1.00  0.00     0.175 C 
BRANCH  12  13
HETATM   13  C   UNL     1      17.683   6.529 112.239  1.00  0.00     0.061 C 
BRANCH  13  14
HETATM   14  CA  UNL     1      17.322   7.995 112.492  1.00  0.00     0.209 C 
BRANCH  14  15
HETATM   15  N   UNL     1      16.273   8.111 113.514  1.00  0.00    -0.073 N 
ATOM     16  HN3 UNL     1      15.779   9.003 113.475  1.00  0.00     0.274 HD
ATOM     17  HN2 UNL     1      15.473   7.505 113.332  1.00  0.00     0.274 HD
ATOM     18  HN1 UNL     1      16.703   7.936 114.423  1.00  0.00     0.274 HD
ENDBRANCH  14  15
BRANCH  14  19
HETATM   19  C   UNL     1      18.560   8.731 113.009  1.00  0.00     0.197 C 
BRANCH  19  20
HETATM   20  O   UNL     1      18.245   9.947 113.669  1.00  0.00    -0.399 OA
ATOM     21  HO  UNL     1      18.623  10.707 113.243  1.00  0.00     0.209 HD
ENDBRANCH  19  20
ENDBRANCH  14  19
ENDBRANCH  13  14
ENDBRANCH  12  13
ENDBRANCH  11  12
ENDBRANCH  10  11
BRANCH  10  22
HETATM   22  O   UNL     1      14.401   3.634 112.403  1.00  0.00    -0.349 OA
ATOM     23  HO  UNL     1      13.453   3.564 112.394  1.00  0.00     0.215 HD
ENDBRANCH  10  22
ENDBRANCH   9  10
ENDBRANCH   8   9
ENDBRANCH   7   8
ENDBRANCH   2   7
BRANCH   6  24
HETATM   24  C   UNL     1      14.321   1.809 116.360  1.00  0.00     0.250 C 
HETATM   25  O   UNL     1      13.188   1.484 116.631  1.00  0.00    -0.282 OA
BRANCH  24  26
HETATM   26  C   UNL     1      14.927   1.400 115.016  1.00  0.00     0.247 C 
HETATM   27  O   UNL     1      14.205   1.408 114.044  1.00  0.00    -0.282 OA
BRANCH  26  28
HETATM   28  C   UNL     1      16.364   1.025 114.816  1.00  0.00     0.077 C 
HETATM   29  C   UNL     1      17.151   1.449 113.653  1.00  0.00     0.180 C 
HETATM   30  N   UNL     1      18.078   0.476 113.194  1.00  0.00    -0.362 N 
HETATM   31  C   UNL     1      17.980  -0.948 113.594  1.00  0.00     0.257 C 
ATOM     32  HN  UNL     1      18.833   0.765 112.572  1.00  0.00     0.159 HD
HETATM   33  C   UNL     1      17.335  -1.156 114.988  1.00  0.00     0.213 C 
HETATM   34  N   UNL     1      16.973   0.127 115.585  1.00  0.00    -0.381 N 
ATOM     35  HN  UNL     1      17.181   0.327 116.563  1.00  0.00     0.159 HD
BRANCH  31  36
HETATM   36  O   UNL     1      19.239  -1.475 113.653  1.00  0.00    -0.348 OA
ATOM     37  HO  UNL     1      19.699  -1.186 112.873  1.00  0.00     0.215 HD
ENDBRANCH  31  36
BRANCH  31  38
HETATM   38  O   UNL     1      17.195  -1.580 112.640  1.00  0.00    -0.348 OA
ATOM     39  HO  UNL     1      17.529  -2.441 112.418  1.00  0.00     0.215 HD
ENDBRANCH  31  38
ENDBRANCH  26  28
ENDBRANCH  24  26
ENDBRANCH   6  24
TORSDOF 17
ENDMDL
MODEL 6
REMARK VINA RESULT:      -5.6      2.713      4.952
REMARK  17 active torsions:
REMARK  status: ('A' for Active; 'I' for Inactive)
REMARK    1  A    between atoms: C_1  and  C_15 
REMARK    2  A    between atoms: C_1  and  C_29 
REMARK    3  A    between atoms: O_2  and  C_32 
REMARK    4  A    between atoms: O_5  and  C_15 
REMARK    5  A    between atoms: O_5  and  C_34 
REMARK    6  A    between atoms: O_6  and  C_16 
REMARK    7  A    between atoms: O_6  and  C_34 
REMARK    8  A    between atoms: C_7  and  C_10 
REMARK    9  A    between atoms: C_7  and  C_39 
REMARK   10  A    between atoms: C_10  and  C_27 
REMARK   11  A    between atoms: O_11  and  C_28 
REMARK   12  A    between atoms: C_16  and  C_30 
REMARK   13  A    between atoms: N_17  and  CA_33 
REMARK   14  A    between atoms: O_21  and  C_32 
REMARK   15  A    between atoms: C_28  and  CA_33 
REMARK   16  A    between atoms: C_30  and  CA_33 
REMARK   17  A    between atoms: C_34  and  O_35 
ROOT
HETATM    1  C   UNL     1      17.839   0.450 117.038  1.00  0.00     0.026 C 
HETATM    2  C   UNL     1      17.104   1.531 116.540  1.00  0.00    -0.024 C 
HETATM    3  C   UNL     1      17.276  -0.698 116.504  1.00  0.00     0.089 C 
HETATM    4  N   UNL     1      16.312  -0.364 115.625  1.00  0.00    -0.362 N 
ATOM      5  HN  UNL     1      15.720  -1.018 115.113  1.00  0.00     0.165 HD
HETATM    6  C   UNL     1      16.262   0.997 115.533  1.00  0.00     0.093 C 
ENDROOT
BRANCH   2   7
HETATM    7  C   UNL     1      17.223   2.964 117.010  1.00  0.00     0.067 C 
BRANCH   7   8
HETATM    8  C   UNL     1      15.930   3.535 117.571  1.00  0.00     0.178 C 
BRANCH   8   9
HETATM    9  O   UNL     1      15.572   4.663 116.763  1.00  0.00    -0.339 OA
BRANCH   9  10
HETATM   10  C   UNL     1      15.756   6.079 117.133  1.00  0.00     0.410 C 
BRANCH  10  11
HETATM   11  O   UNL     1      15.583   7.088 116.052  1.00  0.00    -0.339 OA
BRANCH  11  12
HETATM   12  C   UNL     1      15.881   8.480 116.209  1.00  0.00     0.175 C 
BRANCH  12  13
HETATM   13  C   UNL     1      16.318   9.059 114.864  1.00  0.00     0.061 C 
BRANCH  13  14
HETATM   14  CA  UNL     1      17.838   9.206 114.755  1.00  0.00     0.209 C 
BRANCH  14  15
HETATM   15  N   UNL     1      18.252   9.385 113.357  1.00  0.00    -0.073 N 
ATOM     16  HN3 UNL     1      17.491   9.702 112.756  1.00  0.00     0.274 HD
ATOM     17  HN2 UNL     1      18.871  10.185 113.226  1.00  0.00     0.274 HD
ATOM     18  HN1 UNL     1      18.667   8.508 113.041  1.00  0.00     0.274 HD
ENDBRANCH  14  15
BRANCH  14  19
HETATM   19  C   UNL     1      18.275  10.449 115.534  1.00  0.00     0.197 C 
BRANCH  19  20
HETATM   20  O   UNL     1      18.164  11.643 114.775  1.00  0.00    -0.399 OA
ATOM     21  HO  UNL     1      18.121  11.483 113.840  1.00  0.00     0.209 HD
ENDBRANCH  19  20
ENDBRANCH  14  19
ENDBRANCH  13  14
ENDBRANCH  12  13
ENDBRANCH  11  12
ENDBRANCH  10  11
BRANCH  10  22
HETATM   22  O   UNL     1      16.143   6.371 118.380  1.00  0.00    -0.349 OA
ATOM     23  HO  UNL     1      16.692   5.749 118.844  1.00  0.00     0.215 HD
ENDBRANCH  10  22
ENDBRANCH   9  10
ENDBRANCH   8   9
ENDBRANCH   7   8
ENDBRANCH   2   7
BRANCH   6  24
HETATM   24  C   UNL     1      15.484   1.709 114.452  1.00  0.00     0.250 C 
HETATM   25  O   UNL     1      14.331   1.414 114.243  1.00  0.00    -0.282 OA
BRANCH  24  26
HETATM   26  C   UNL     1      16.202   2.681 113.513  1.00  0.00     0.247 C 
HETATM   27  O   UNL     1      17.138   2.258 112.871  1.00  0.00    -0.282 OA
BRANCH  26  28
HETATM   28  C   UNL     1      15.802   4.110 113.308  1.00  0.00     0.077 C 
HETATM   29  C   UNL     1      14.714   4.519 112.411  1.00  0.00     0.180 C 
HETATM   30  N   UNL     1      14.955   5.739 111.727  1.00  0.00    -0.362 N 
HETATM   31  C   UNL     1      16.314   6.324 111.625  1.00  0.00     0.257 C 
ATOM     32  HN  UNL     1      14.171   6.228 111.293  1.00  0.00     0.159 HD
HETATM   33  C   UNL     1      17.233   5.965 112.820  1.00  0.00     0.213 C 
HETATM   34  N   UNL     1      16.526   5.120 113.779  1.00  0.00    -0.381 N 
ATOM     35  HN  UNL     1      16.586   5.301 114.781  1.00  0.00     0.159 HD
BRANCH  31  36
HETATM   36  O   UNL     1      16.204   7.687 111.599  1.00  0.00    -0.348 OA
ATOM     37  HO  UNL     1      16.870   8.008 111.002  1.00  0.00     0.215 HD
ENDBRANCH  31  36
BRANCH  31  38
HETATM   38  O   UNL     1      16.879   5.826 110.461  1.00  0.00    -0.348 OA
ATOM     39  HO  UNL     1      17.483   6.444 110.065  1.00  0.00     0.215 HD
ENDBRANCH  31  38
ENDBRANCH  26  28
ENDBRANCH  24  26
ENDBRANCH   6  24
TORSDOF 17
ENDMDL
MODEL 7
REMARK VINA RESULT:      -5.5      2.924      5.812
REMARK  17 active torsions:
REMARK  status: ('A' for Active; 'I' for Inactive)
REMARK    1  A    between atoms: C_1  and  C_15 
REMARK    2  A    between atoms: C_1  and  C_29 
REMARK    3  A    between atoms: O_2  and  C_32 
REMARK    4  A    between atoms: O_5  and  C_15 
REMARK    5  A    between atoms: O_5  and  C_34 
REMARK    6  A    between atoms: O_6  and  C_16 
REMARK    7  A    between atoms: O_6  and  C_34 
REMARK    8  A    between atoms: C_7  and  C_10 
REMARK    9  A    between atoms: C_7  and  C_39 
REMARK   10  A    between atoms: C_10  and  C_27 
REMARK   11  A    between atoms: O_11  and  C_28 
REMARK   12  A    between atoms: C_16  and  C_30 
REMARK   13  A    between atoms: N_17  and  CA_33 
REMARK   14  A    between atoms: O_21  and  C_32 
REMARK   15  A    between atoms: C_28  and  CA_33 
REMARK   16  A    between atoms: C_30  and  CA_33 
REMARK   17  A    between atoms: C_34  and  O_35 
ROOT
HETATM    1  C   UNL     1      15.867   7.341 112.435  1.00  0.00     0.026 C 
HETATM    2  C   UNL     1      15.430   6.324 113.291  1.00  0.00    -0.024 C 
HETATM    3  C   UNL     1      16.740   6.757 111.532  1.00  0.00     0.089 C 
HETATM    4  N   UNL     1      16.769   5.424 111.724  1.00  0.00    -0.362 N 
ATOM      5  HN  UNL     1      17.352   4.760 111.215  1.00  0.00     0.165 HD
HETATM    6  C   UNL     1      15.886   5.111 112.718  1.00  0.00     0.093 C 
ENDROOT
BRANCH   2   7
HETATM    7  C   UNL     1      14.630   6.528 114.558  1.00  0.00     0.067 C 
BRANCH   7   8
HETATM    8  C   UNL     1      15.470   6.951 115.753  1.00  0.00     0.178 C 
BRANCH   8   9
HETATM    9  O   UNL     1      16.408   5.898 116.013  1.00  0.00    -0.339 OA
BRANCH   9  10
HETATM   10  C   UNL     1      17.872   5.993 115.861  1.00  0.00     0.410 C 
BRANCH  10  11
HETATM   11  O   UNL     1      18.450   7.357 115.718  1.00  0.00    -0.339 OA
BRANCH  11  12
HETATM   12  C   UNL     1      19.193   8.017 116.748  1.00  0.00     0.175 C 
BRANCH  12  13
HETATM   13  C   UNL     1      19.203   7.146 118.004  1.00  0.00     0.061 C 
BRANCH  13  14
HETATM   14  CA  UNL     1      18.230   7.649 119.073  1.00  0.00     0.209 C 
BRANCH  14  15
HETATM   15  N   UNL     1      17.195   8.507 118.482  1.00  0.00    -0.073 N 
ATOM     16  HN3 UNL     1      16.502   8.819 119.163  1.00  0.00     0.274 HD
ATOM     17  HN2 UNL     1      17.547   9.427 118.215  1.00  0.00     0.274 HD
ATOM     18  HN1 UNL     1      16.780   8.001 117.699  1.00  0.00     0.274 HD
ENDBRANCH  14  15
BRANCH  14  19
HETATM   19  C   UNL     1      17.532   6.449 119.716  1.00  0.00     0.197 C 
BRANCH  19  20
HETATM   20  O   UNL     1      16.425   6.822 120.523  1.00  0.00    -0.399 OA
ATOM     21  HO  UNL     1      16.492   6.498 121.414  1.00  0.00     0.209 HD
ENDBRANCH  19  20
ENDBRANCH  14  19
ENDBRANCH  13  14
ENDBRANCH  12  13
ENDBRANCH  11  12
ENDBRANCH  10  11
BRANCH  10  22
HETATM   22  O   UNL     1      18.583   4.862 115.777  1.00  0.00    -0.349 OA
ATOM     23  HO  UNL     1      19.524   4.923 115.662  1.00  0.00     0.215 HD
ENDBRANCH  10  22
ENDBRANCH   9  10
ENDBRANCH   8   9
ENDBRANCH   7   8
ENDBRANCH   2   7
BRANCH   6  24
HETATM   24  C   UNL     1      15.468   3.690 113.013  1.00  0.00     0.250 C 
HETATM   25  O   UNL     1      14.323   3.347 112.833  1.00  0.00    -0.282 OA
BRANCH  24  26
HETATM   26  C   UNL     1      16.448   2.736 113.699  1.00  0.00     0.247 C 
HETATM   27  O   UNL     1      17.501   2.512 113.143  1.00  0.00    -0.282 OA
BRANCH  26  28
HETATM   28  C   UNL     1      16.208   2.090 115.029  1.00  0.00     0.077 C 
HETATM   29  C   UNL     1      15.703   0.720 115.177  1.00  0.00     0.180 C 
HETATM   30  N   UNL     1      14.822   0.542 116.276  1.00  0.00    -0.362 N 
HETATM   31  C   UNL     1      14.174   1.691 116.953  1.00  0.00     0.257 C 
ATOM     32  HN  UNL     1      14.629  -0.403 116.610  1.00  0.00     0.159 HD
HETATM   33  C   UNL     1      15.008   2.996 116.891  1.00  0.00     0.213 C 
HETATM   34  N   UNL     1      16.257   2.776 116.167  1.00  0.00    -0.381 N 
ATOM     35  HN  UNL     1      17.141   3.138 116.524  1.00  0.00     0.159 HD
BRANCH  31  36
HETATM   36  O   UNL     1      14.008   1.385 118.275  1.00  0.00    -0.348 OA
ATOM     37  HO  UNL     1      13.573   0.541 118.312  1.00  0.00     0.215 HD
ENDBRANCH  31  36
BRANCH  31  38
HETATM   38  O   UNL     1      12.963   1.904 116.312  1.00  0.00    -0.348 OA
ATOM     39  HO  UNL     1      12.990   1.636 115.401  1.00  0.00     0.215 HD
ENDBRANCH  31  38
ENDBRANCH  26  28
ENDBRANCH  24  26
ENDBRANCH   6  24
TORSDOF 17
ENDMDL
MODEL 8
REMARK VINA RESULT:      -5.4      2.558      5.660
REMARK  17 active torsions:
REMARK  status: ('A' for Active; 'I' for Inactive)
REMARK    1  A    between atoms: C_1  and  C_15 
REMARK    2  A    between atoms: C_1  and  C_29 
REMARK    3  A    between atoms: O_2  and  C_32 
REMARK    4  A    between atoms: O_5  and  C_15 
REMARK    5  A    between atoms: O_5  and  C_34 
REMARK    6  A    between atoms: O_6  and  C_16 
REMARK    7  A    between atoms: O_6  and  C_34 
REMARK    8  A    between atoms: C_7  and  C_10 
REMARK    9  A    between atoms: C_7  and  C_39 
REMARK   10  A    between atoms: C_10  and  C_27 
REMARK   11  A    between atoms: O_11  and  C_28 
REMARK   12  A    between atoms: C_16  and  C_30 
REMARK   13  A    between atoms: N_17  and  CA_33 
REMARK   14  A    between atoms: O_21  and  C_32 
REMARK   15  A    between atoms: C_28  and  CA_33 
REMARK   16  A    between atoms: C_30  and  CA_33 
REMARK   17  A    between atoms: C_34  and  O_35 
ROOT
HETATM    1  C   UNL     1      15.947   7.312 112.375  1.00  0.00     0.026 C 
HETATM    2  C   UNL     1      15.388   6.298 113.162  1.00  0.00    -0.024 C 
HETATM    3  C   UNL     1      16.886   6.710 111.553  1.00  0.00     0.089 C 
HETATM    4  N   UNL     1      16.847   5.374 111.721  1.00  0.00    -0.362 N 
ATOM      5  HN  UNL     1      17.455   4.697 111.260  1.00  0.00     0.165 HD
HETATM    6  C   UNL     1      15.857   5.078 112.614  1.00  0.00     0.093 C 
ENDROOT
BRANCH   2   7
HETATM    7  C   UNL     1      14.472   6.510 114.345  1.00  0.00     0.067 C 
BRANCH   7   8
HETATM    8  C   UNL     1      15.112   7.287 115.486  1.00  0.00     0.178 C 
BRANCH   8   9
HETATM    9  O   UNL     1      16.357   6.649 115.795  1.00  0.00    -0.339 OA
BRANCH   9  10
HETATM   10  C   UNL     1      16.818   6.268 117.144  1.00  0.00     0.410 C 
BRANCH  10  11
HETATM   11  O   UNL     1      17.740   5.105 117.240  1.00  0.00    -0.339 OA
BRANCH  11  12
HETATM   12  C   UNL     1      19.123   5.214 117.593  1.00  0.00     0.175 C 
BRANCH  12  13
HETATM   13  C   UNL     1      19.965   4.410 116.601  1.00  0.00     0.061 C 
BRANCH  13  14
HETATM   14  CA  UNL     1      19.980   5.036 115.205  1.00  0.00     0.209 C 
BRANCH  14  15
HETATM   15  N   UNL     1      18.703   4.816 114.514  1.00  0.00    -0.073 N 
ATOM     16  HN3 UNL     1      17.907   4.784 115.153  1.00  0.00     0.274 HD
ATOM     17  HN2 UNL     1      18.404   5.622 113.965  1.00  0.00     0.274 HD
ATOM     18  HN1 UNL     1      18.793   3.968 113.954  1.00  0.00     0.274 HD
ENDBRANCH  14  15
BRANCH  14  19
HETATM   19  C   UNL     1      20.184   6.547 115.339  1.00  0.00     0.197 C 
BRANCH  19  20
HETATM   20  O   UNL     1      19.117   7.299 114.781  1.00  0.00    -0.399 OA
ATOM     21  HO  UNL     1      18.449   7.522 115.419  1.00  0.00     0.209 HD
ENDBRANCH  19  20
ENDBRANCH  14  19
ENDBRANCH  13  14
ENDBRANCH  12  13
ENDBRANCH  11  12
ENDBRANCH  10  11
BRANCH  10  22
HETATM   22  O   UNL     1      16.325   6.928 118.199  1.00  0.00    -0.349 OA
ATOM     23  HO  UNL     1      15.964   7.797 118.066  1.00  0.00     0.215 HD
ENDBRANCH  10  22
ENDBRANCH   9  10
ENDBRANCH   8   9
ENDBRANCH   7   8
ENDBRANCH   2   7
BRANCH   6  24
HETATM   24  C   UNL     1      15.360   3.670 112.837  1.00  0.00     0.250 C 
HETATM   25  O   UNL     1      14.203   3.396 112.624  1.00  0.00    -0.282 OA
BRANCH  24  26
HETATM   26  C   UNL     1      16.278   2.635 113.491  1.00  0.00     0.247 C 
HETATM   27  O   UNL     1      17.257   2.276 112.873  1.00  0.00    -0.282 OA
BRANCH  26  28
HETATM   28  C   UNL     1      16.067   2.063 114.859  1.00  0.00     0.077 C 
HETATM   29  C   UNL     1      15.558   0.707 115.094  1.00  0.00     0.180 C 
HETATM   30  N   UNL     1      14.704   0.595 116.223  1.00  0.00    -0.362 N 
HETATM   31  C   UNL     1      14.079   1.784 116.851  1.00  0.00     0.257 C 
ATOM     32  HN  UNL     1      14.514  -0.329 116.612  1.00  0.00     0.159 HD
HETATM   33  C   UNL     1      14.918   3.078 116.698  1.00  0.00     0.213 C 
HETATM   34  N   UNL     1      16.148   2.810 115.956  1.00  0.00    -0.381 N 
ATOM     35  HN  UNL     1      17.043   3.185 116.272  1.00  0.00     0.159 HD
BRANCH  31  36
HETATM   36  O   UNL     1      13.943   1.551 118.192  1.00  0.00    -0.348 OA
ATOM     37  HO  UNL     1      13.169   1.012 118.303  1.00  0.00     0.215 HD
ENDBRANCH  31  36
BRANCH  31  38
HETATM   38  O   UNL     1      12.853   1.970 116.229  1.00  0.00    -0.348 OA
ATOM     39  HO  UNL     1      12.152   1.514 116.679  1.00  0.00     0.215 HD
ENDBRANCH  31  38
ENDBRANCH  26  28
ENDBRANCH  24  26
ENDBRANCH   6  24
TORSDOF 17
ENDMDL
MODEL 9
REMARK VINA RESULT:      -5.4      3.243      6.806
REMARK  17 active torsions:
REMARK  status: ('A' for Active; 'I' for Inactive)
REMARK    1  A    between atoms: C_1  and  C_15 
REMARK    2  A    between atoms: C_1  and  C_29 
REMARK    3  A    between atoms: O_2  and  C_32 
REMARK    4  A    between atoms: O_5  and  C_15 
REMARK    5  A    between atoms: O_5  and  C_34 
REMARK    6  A    between atoms: O_6  and  C_16 
REMARK    7  A    between atoms: O_6  and  C_34 
REMARK    8  A    between atoms: C_7  and  C_10 
REMARK    9  A    between atoms: C_7  and  C_39 
REMARK   10  A    between atoms: C_10  and  C_27 
REMARK   11  A    between atoms: O_11  and  C_28 
REMARK   12  A    between atoms: C_16  and  C_30 
REMARK   13  A    between atoms: N_17  and  CA_33 
REMARK   14  A    between atoms: O_21  and  C_32 
REMARK   15  A    between atoms: C_28  and  CA_33 
REMARK   16  A    between atoms: C_30  and  CA_33 
REMARK   17  A    between atoms: C_34  and  O_35 
ROOT
HETATM    1  C   UNL     1      18.736   7.488 110.680  1.00  0.00     0.026 C 
HETATM    2  C   UNL     1      17.830   6.953 111.603  1.00  0.00    -0.024 C 
HETATM    3  C   UNL     1      19.235   8.655 111.237  1.00  0.00     0.089 C 
HETATM    4  N   UNL     1      18.765   8.796 112.492  1.00  0.00    -0.362 N 
ATOM      5  HN  UNL     1      18.952   9.583 113.113  1.00  0.00     0.165 HD
HETATM    6  C   UNL     1      17.994   7.709 112.791  1.00  0.00     0.093 C 
ENDROOT
BRANCH   2   7
HETATM    7  C   UNL     1      16.889   5.799 111.341  1.00  0.00     0.067 C 
BRANCH   7   8
HETATM    8  C   UNL     1      15.453   6.070 111.762  1.00  0.00     0.178 C 
BRANCH   8   9
HETATM    9  O   UNL     1      15.039   4.985 112.601  1.00  0.00    -0.339 OA
BRANCH   9  10
HETATM   10  C   UNL     1      14.762   5.073 114.048  1.00  0.00     0.410 C 
BRANCH  10  11
HETATM   11  O   UNL     1      15.264   3.962 114.900  1.00  0.00    -0.339 OA
BRANCH  11  12
HETATM   12  C   UNL     1      14.779   2.617 114.819  1.00  0.00     0.175 C 
BRANCH  12  13
HETATM   13  C   UNL     1      15.886   1.652 115.245  1.00  0.00     0.061 C 
BRANCH  13  14
HETATM   14  CA  UNL     1      16.934   1.444 114.150  1.00  0.00     0.209 C 
BRANCH  14  15
HETATM   15  N   UNL     1      16.503   2.052 112.884  1.00  0.00    -0.073 N 
ATOM     16  HN3 UNL     1      16.354   3.059 112.959  1.00  0.00     0.274 HD
ATOM     17  HN2 UNL     1      17.244   2.077 112.183  1.00  0.00     0.274 HD
ATOM     18  HN1 UNL     1      15.673   1.552 112.565  1.00  0.00     0.274 HD
ENDBRANCH  14  15
BRANCH  14  19
HETATM   19  C   UNL     1      18.238   2.123 114.574  1.00  0.00     0.197 C 
BRANCH  19  20
HETATM   20  O   UNL     1      18.144   3.539 114.589  1.00  0.00    -0.399 OA
ATOM     21  HO  UNL     1      18.992   3.966 114.616  1.00  0.00     0.209 HD
ENDBRANCH  19  20
ENDBRANCH  14  19
ENDBRANCH  13  14
ENDBRANCH  12  13
ENDBRANCH  11  12
ENDBRANCH  10  11
BRANCH  10  22
HETATM   22  O   UNL     1      14.016   6.089 114.497  1.00  0.00    -0.349 OA
ATOM     23  HO  UNL     1      14.221   6.464 115.346  1.00  0.00     0.215 HD
ENDBRANCH  10  22
ENDBRANCH   9  10
ENDBRANCH   8   9
ENDBRANCH   7   8
ENDBRANCH   2   7
BRANCH   6  24
HETATM   24  C   UNL     1      17.526   7.408 114.195  1.00  0.00     0.250 C 
HETATM   25  O   UNL     1      17.776   6.339 114.699  1.00  0.00    -0.282 OA
BRANCH  24  26
HETATM   26  C   UNL     1      16.594   8.387 114.912  1.00  0.00     0.247 C 
HETATM   27  O   UNL     1      16.054   9.244 114.246  1.00  0.00    -0.282 OA
BRANCH  26  28
HETATM   28  C   UNL     1      16.277   8.335 116.374  1.00  0.00     0.077 C 
HETATM   29  C   UNL     1      16.849   9.265 117.355  1.00  0.00     0.180 C 
HETATM   30  N   UNL     1      17.129   8.678 118.617  1.00  0.00    -0.362 N 
HETATM   31  C   UNL     1      17.208   7.208 118.795  1.00  0.00     0.257 C 
ATOM     32  HN  UNL     1      17.280   9.284 119.424  1.00  0.00     0.159 HD
HETATM   33  C   UNL     1      16.318   6.415 117.804  1.00  0.00     0.213 C 
HETATM   34  N   UNL     1      15.601   7.326 116.914  1.00  0.00    -0.381 N 
ATOM     35  HN  UNL     1      14.610   7.190 116.714  1.00  0.00     0.159 HD
BRANCH  31  36
HETATM   36  O   UNL     1      16.780   6.895 120.055  1.00  0.00    -0.348 OA
ATOM     37  HO  UNL     1      17.432   6.318 120.435  1.00  0.00     0.215 HD
ENDBRANCH  31  36
BRANCH  31  38
HETATM   38  O   UNL     1      18.532   6.849 118.592  1.00  0.00    -0.348 OA
ATOM     39  HO  UNL     1      18.910   7.293 117.843  1.00  0.00     0.215 HD
ENDBRANCH  31  38
ENDBRANCH  26  28
ENDBRANCH  24  26
ENDBRANCH   6  24
TORSDOF 17
ENDMDL
