REMARK  2 active torsions:
REMARK  status: ('A' for Active; 'I' for Inactive)
REMARK    1  A    between atoms: O_4  and  C_13 
REMARK    2  A    between atoms: C_8  and  C_19 
ROOT
HETATM    1  C   UNL     1       9.339  -0.037  30.657  1.00  0.00     0.037 C 
HETATM    2  C   UNL     1       7.507   1.550  29.278  1.00  0.00     0.015 C 
HETATM    3  C   UNL     1       8.079   0.219  31.204  1.00  0.00     0.043 C 
HETATM    4  C   UNL     1       6.201   1.714  31.397  1.00  0.00     0.032 C 
HETATM    5  O   UNL     1       4.250   0.443  31.157  1.00  0.00    -0.286 OA
HETATM    6  C   UNL     1       6.139  -0.537  32.234  1.00  0.00     0.144 C 
HETATM    7  C   UNL     1      10.890   0.050  28.661  1.00  0.00     0.048 C 
HETATM    8  C   UNL     1       8.572   0.975  28.601  1.00  0.00     0.007 C 
HETATM    9  C   UNL     1       7.340   1.305  30.643  1.00  0.00     0.005 C 
HETATM   10  N   UNL     1       7.478  -0.537  32.173  1.00  0.00    -0.361 N 
ATOM     11  HN  UNL     1       8.033  -1.085  32.830  1.00  0.00     0.165 HD
HETATM   12  C   UNL     1       9.560   0.301  29.327  1.00  0.00    -0.060 C 
HETATM   13  C   UNL     1       5.427   0.539  31.605  1.00  0.00     0.198 C 
ENDROOT
BRANCH   4  14
HETATM   14  C   UNL     1       5.812   3.084  31.832  1.00  0.00    -0.030 C 
HETATM   15  C   UNL     1       4.388   3.529  31.423  1.00  0.00     0.219 C 
HETATM   16  N   UNL     1       3.706   3.722  32.720  1.00  0.00    -0.035 N 
HETATM   17  C   UNL     1       4.663   4.973  30.940  1.00  0.00     0.042 C 
HETATM   18  C   UNL     1       4.733   4.599  33.285  1.00  0.00     0.228 C 
ATOM     19  HN2 UNL     1       2.745   4.064  32.705  1.00  0.00     0.281 HD
ATOM     20  HN1 UNL     1       3.449   2.889  33.250  1.00  0.00     0.281 HD
HETATM   21  C   UNL     1       4.870   5.729  32.272  1.00  0.00     0.071 C 
HETATM   22  C   UNL     1       6.008   3.710  33.212  1.00  0.00     0.106 C 
BRANCH  18  23
HETATM   23  O   UNL     1       4.456   5.041  34.589  1.00  0.00    -0.365 OA
ATOM     24  HO  UNL     1       4.371   4.336  35.221  1.00  0.00     0.212 HD
ENDBRANCH  18  23
ENDBRANCH   4  14
TORSDOF 2
