MODEL 1
REMARK VINA RESULT:      -7.1      0.000      0.000
REMARK  1 active torsions:
REMARK  status: ('A' for Active; 'I' for Inactive)
REMARK    1  A    between atoms: N_5  and  N_7 
ROOT
HETATM    1  C   UNL     1       1.916  -4.248  13.000  1.00  0.00     0.097 C 
HETATM    2  C   UNL     1       1.339  -5.376  13.534  1.00  0.00    -0.028 C 
HETATM    3  N   UNL     1       1.544  -3.016  13.361  1.00  0.00    -0.362 N 
ATOM      4  HN  UNL     1       2.284  -2.320  13.286  1.00  0.00     0.166 HD
HETATM    5  N   UNL     1      -1.454  -4.931  15.715  1.00  0.00    -0.256 N 
HETATM    6  C   UNL     1      -0.390  -6.558  14.553  1.00  0.00    -0.026 C 
HETATM    7  C   UNL     1      -1.453  -6.364  15.448  1.00  0.00     0.126 C 
HETATM    8  C   UNL     1       0.483  -7.582  13.931  1.00  0.00     0.045 C 
HETATM    9  C   UNL     1       0.138  -5.294  14.241  1.00  0.00     0.025 C 
HETATM   10  C   UNL     1       0.405  -2.539  13.792  1.00  0.00     0.181 C 
HETATM   11  C   UNL     1       1.454  -6.795  13.010  1.00  0.00     0.045 C 
HETATM   12  C   UNL     1      -0.681  -4.316  14.760  1.00  0.00     0.138 C 
HETATM   13  N   UNL     1      -0.554  -2.984  14.602  1.00  0.00    -0.336 N 
ATOM     14  HN  UNL     1      -1.174  -2.336  15.087  1.00  0.00     0.168 HD
ENDROOT
BRANCH   5  15
HETATM   15  N   UNL     1      -2.669  -4.410  16.237  1.00  0.00    -0.337 N 
ATOM     16  HN2 UNL     1      -3.587  -4.839  16.119  1.00  0.00     0.177 HD
ATOM     17  HN1 UNL     1      -2.612  -4.036  17.184  1.00  0.00     0.177 HD
ENDBRANCH   5  15
TORSDOF 1
ENDMDL
MODEL 2
REMARK VINA RESULT:      -6.7      1.511      3.094
REMARK  1 active torsions:
REMARK  status: ('A' for Active; 'I' for Inactive)
REMARK    1  A    between atoms: N_5  and  N_7 
ROOT
HETATM    1  C   UNL     1       1.051  -6.493  13.411  1.00  0.00     0.097 C 
HETATM    2  C   UNL     1       0.822  -5.140  13.487  1.00  0.00    -0.028 C 
HETATM    3  N   UNL     1       0.204  -7.391  13.926  1.00  0.00    -0.362 N 
ATOM      4  HN  UNL     1       0.208  -8.289  13.443  1.00  0.00     0.166 HD
HETATM    5  N   UNL     1      -1.981  -4.041  15.408  1.00  0.00    -0.256 N 
HETATM    6  C   UNL     1      -0.105  -3.226  14.436  1.00  0.00    -0.026 C 
HETATM    7  C   UNL     1      -1.238  -2.813  15.151  1.00  0.00     0.126 C 
HETATM    8  C   UNL     1       1.026  -2.752  13.603  1.00  0.00     0.045 C 
HETATM    9  C   UNL     1      -0.136  -4.628  14.363  1.00  0.00     0.025 C 
HETATM   10  C   UNL     1      -0.626  -7.330  14.933  1.00  0.00     0.181 C 
HETATM   11  C   UNL     1       1.819  -4.030  13.215  1.00  0.00     0.045 C 
HETATM   12  C   UNL     1      -1.144  -5.106  15.171  1.00  0.00     0.138 C 
HETATM   13  N   UNL     1      -1.435  -6.395  15.429  1.00  0.00    -0.336 N 
ATOM     14  HN  UNL     1      -2.251  -6.648  15.988  1.00  0.00     0.168 HD
ENDROOT
BRANCH   5  15
HETATM   15  N   UNL     1      -2.928  -3.970  16.465  1.00  0.00    -0.337 N 
ATOM     16  HN2 UNL     1      -3.937  -3.892  16.340  1.00  0.00     0.177 HD
ATOM     17  HN1 UNL     1      -2.752  -4.595  17.252  1.00  0.00     0.177 HD
ENDBRANCH   5  15
TORSDOF 1
ENDMDL
MODEL 3
REMARK VINA RESULT:      -6.5      0.782      3.261
REMARK  1 active torsions:
REMARK  status: ('A' for Active; 'I' for Inactive)
REMARK    1  A    between atoms: N_5  and  N_7 
ROOT
HETATM    1  C   UNL     1      -1.405  -6.646  15.359  1.00  0.00     0.097 C 
HETATM    2  C   UNL     1      -0.399  -6.578  14.425  1.00  0.00    -0.028 C 
HETATM    3  N   UNL     1      -2.044  -5.558  15.802  1.00  0.00    -0.362 N 
ATOM      4  HN  UNL     1      -3.005  -5.732  16.095  1.00  0.00     0.166 HD
HETATM    5  N   UNL     1       0.711  -3.335  13.423  1.00  0.00    -0.256 N 
HETATM    6  C   UNL     1       1.330  -5.509  13.288  1.00  0.00    -0.026 C 
HETATM    7  C   UNL     1       1.719  -4.229  12.867  1.00  0.00     0.126 C 
HETATM    8  C   UNL     1       1.547  -6.960  13.074  1.00  0.00     0.045 C 
HETATM    9  C   UNL     1       0.211  -5.359  14.123  1.00  0.00     0.025 C 
HETATM   10  C   UNL     1      -1.664  -4.314  15.928  1.00  0.00     0.181 C 
HETATM   11  C   UNL     1       0.587  -7.673  14.064  1.00  0.00     0.045 C 
HETATM   12  C   UNL     1       0.013  -4.022  14.387  1.00  0.00     0.138 C 
HETATM   13  N   UNL     1      -0.907  -3.485  15.211  1.00  0.00    -0.336 N 
ATOM     14  HN  UNL     1      -1.020  -2.474  15.285  1.00  0.00     0.168 HD
ENDROOT
BRANCH   5  15
HETATM   15  N   UNL     1       1.093  -1.969  13.513  1.00  0.00    -0.337 N 
ATOM     16  HN2 UNL     1       1.942  -1.628  13.963  1.00  0.00     0.177 HD
ATOM     17  HN1 UNL     1       0.933  -1.415  12.672  1.00  0.00     0.177 HD
ENDBRANCH   5  15
TORSDOF 1
ENDMDL
MODEL 4
REMARK VINA RESULT:      -6.2      1.249      2.083
REMARK  1 active torsions:
REMARK  status: ('A' for Active; 'I' for Inactive)
REMARK    1  A    between atoms: N_5  and  N_7 
ROOT
HETATM    1  C   UNL     1       1.697  -5.637  13.341  1.00  0.00     0.097 C 
HETATM    2  C   UNL     1       0.598  -5.716  14.163  1.00  0.00    -0.028 C 
HETATM    3  N   UNL     1       2.278  -4.472  13.035  1.00  0.00    -0.362 N 
ATOM      4  HN  UNL     1       3.276  -4.545  12.838  1.00  0.00     0.166 HD
HETATM    5  N   UNL     1      -0.895  -2.653  15.230  1.00  0.00    -0.256 N 
HETATM    6  C   UNL     1      -1.327  -4.875  15.167  1.00  0.00    -0.026 C 
HETATM    7  C   UNL     1      -1.871  -3.664  15.619  1.00  0.00     0.126 C 
HETATM    8  C   UNL     1      -1.435  -6.351  15.269  1.00  0.00     0.045 C 
HETATM    9  C   UNL     1      -0.146  -4.576  14.468  1.00  0.00     0.025 C 
HETATM   10  C   UNL     1       1.804  -3.258  12.943  1.00  0.00     0.181 C 
HETATM   11  C   UNL     1      -0.318  -6.912  14.348  1.00  0.00     0.045 C 
HETATM   12  C   UNL     1      -0.043  -3.212  14.308  1.00  0.00     0.138 C 
HETATM   13  N   UNL     1       0.905  -2.545  13.622  1.00  0.00    -0.336 N 
ATOM     14  HN  UNL     1       0.935  -1.526  13.622  1.00  0.00     0.168 HD
ENDROOT
BRANCH   5  15
HETATM   15  N   UNL     1      -1.386  -1.320  15.181  1.00  0.00    -0.337 N 
ATOM     16  HN2 UNL     1      -1.189  -0.600  15.876  1.00  0.00     0.177 HD
ATOM     17  HN1 UNL     1      -1.376  -0.885  14.259  1.00  0.00     0.177 HD
ENDBRANCH   5  15
TORSDOF 1
ENDMDL
MODEL 5
REMARK VINA RESULT:      -6.2      1.743      3.555
REMARK  1 active torsions:
REMARK  status: ('A' for Active; 'I' for Inactive)
REMARK    1  A    between atoms: N_5  and  N_7 
ROOT
HETATM    1  C   UNL     1      -0.789  -2.881  15.167  1.00  0.00     0.097 C 
HETATM    2  C   UNL     1       0.293  -3.343  14.456  1.00  0.00    -0.028 C 
HETATM    3  N   UNL     1      -1.626  -3.703  15.808  1.00  0.00    -0.362 N 
ATOM      4  HN  UNL     1      -2.068  -3.289  16.628  1.00  0.00     0.166 HD
HETATM    5  N   UNL     1       0.643  -6.877  14.084  1.00  0.00    -0.256 N 
HETATM    6  C   UNL     1       1.466  -4.945  13.239  1.00  0.00    -0.026 C 
HETATM    7  C   UNL     1       1.617  -6.336  13.145  1.00  0.00     0.126 C 
HETATM    8  C   UNL     1       2.089  -3.644  12.893  1.00  0.00     0.045 C 
HETATM    9  C   UNL     1       0.396  -4.692  14.112  1.00  0.00     0.025 C 
HETATM   10  C   UNL     1      -1.983  -4.939  15.577  1.00  0.00     0.181 C 
HETATM   11  C   UNL     1       1.131  -2.562  13.460  1.00  0.00     0.045 C 
HETATM   12  C   UNL     1      -0.240  -5.876  14.411  1.00  0.00     0.138 C 
HETATM   13  N   UNL     1      -1.356  -6.034  15.149  1.00  0.00    -0.336 N 
ATOM     14  HN  UNL     1      -1.711  -6.964  15.373  1.00  0.00     0.168 HD
ENDROOT
BRANCH   5  15
HETATM   15  N   UNL     1       0.289  -8.238  13.878  1.00  0.00    -0.337 N 
ATOM     16  HN2 UNL     1       0.705  -8.849  13.175  1.00  0.00     0.177 HD
ATOM     17  HN1 UNL     1       0.140  -8.784  14.726  1.00  0.00     0.177 HD
ENDBRANCH   5  15
TORSDOF 1
ENDMDL
MODEL 6
REMARK VINA RESULT:      -6.0      1.125      3.275
REMARK  1 active torsions:
REMARK  status: ('A' for Active; 'I' for Inactive)
REMARK    1  A    between atoms: N_5  and  N_7 
ROOT
HETATM    1  C   UNL     1      -0.469  -6.621  14.702  1.00  0.00     0.097 C 
HETATM    2  C   UNL     1       0.252  -5.670  14.020  1.00  0.00    -0.028 C 
HETATM    3  N   UNL     1      -1.581  -6.324  15.381  1.00  0.00    -0.362 N 
ATOM      4  HN  UNL     1      -2.249  -7.092  15.441  1.00  0.00     0.166 HD
HETATM    5  N   UNL     1      -0.757  -2.263  14.370  1.00  0.00    -0.256 N 
HETATM    6  C   UNL     1       0.980  -3.497  13.605  1.00  0.00    -0.026 C 
HETATM    7  C   UNL     1       0.539  -2.170  13.712  1.00  0.00     0.126 C 
HETATM    8  C   UNL     1       1.971  -4.383  12.948  1.00  0.00     0.045 C 
HETATM    9  C   UNL     1       0.036  -4.311  14.252  1.00  0.00     0.025 C 
HETATM   10  C   UNL     1      -1.972  -5.230  15.981  1.00  0.00     0.181 C 
HETATM   11  C   UNL     1       1.659  -5.812  13.470  1.00  0.00     0.045 C 
HETATM   12  C   UNL     1      -0.871  -3.518  14.919  1.00  0.00     0.138 C 
HETATM   13  N   UNL     1      -1.874  -3.928  15.719  1.00  0.00    -0.336 N 
ATOM     14  HN  UNL     1      -2.538  -3.262  16.113  1.00  0.00     0.168 HD
ENDROOT
BRANCH   5  15
HETATM   15  N   UNL     1      -1.218  -1.064  14.979  1.00  0.00    -0.337 N 
ATOM     16  HN2 UNL     1      -1.071  -0.126  14.606  1.00  0.00     0.177 HD
ATOM     17  HN1 UNL     1      -2.159  -1.107  15.371  1.00  0.00     0.177 HD
ENDBRANCH   5  15
TORSDOF 1
ENDMDL
MODEL 7
REMARK VINA RESULT:      -5.9      1.767      3.145
REMARK  1 active torsions:
REMARK  status: ('A' for Active; 'I' for Inactive)
REMARK    1  A    between atoms: N_5  and  N_7 
ROOT
HETATM    1  C   UNL     1       0.824  -2.413  13.588  1.00  0.00     0.097 C 
HETATM    2  C   UNL     1      -0.240  -3.032  14.199  1.00  0.00    -0.028 C 
HETATM    3  N   UNL     1       1.759  -3.094  12.918  1.00  0.00    -0.362 N 
ATOM      4  HN  UNL     1       2.196  -2.567  12.163  1.00  0.00     0.166 HD
HETATM    5  N   UNL     1      -0.285  -6.602  14.227  1.00  0.00    -0.256 N 
HETATM    6  C   UNL     1      -1.314  -4.838  15.204  1.00  0.00    -0.026 C 
HETATM    7  C   UNL     1      -1.343  -6.239  15.161  1.00  0.00     0.126 C 
HETATM    8  C   UNL     1      -2.066  -3.634  15.635  1.00  0.00     0.045 C 
HETATM    9  C   UNL     1      -0.236  -4.411  14.412  1.00  0.00     0.025 C 
HETATM   10  C   UNL     1       2.216  -4.312  13.052  1.00  0.00     0.181 C 
HETATM   11  C   UNL     1      -1.186  -2.425  15.218  1.00  0.00     0.045 C 
HETATM   12  C   UNL     1       0.517  -5.502  14.038  1.00  0.00     0.138 C 
HETATM   13  N   UNL     1       1.673  -5.493  13.346  1.00  0.00    -0.336 N 
ATOM     14  HN  UNL     1       2.119  -6.363  13.056  1.00  0.00     0.168 HD
ENDROOT
BRANCH   5  15
HETATM   15  N   UNL     1       0.181  -7.941  14.325  1.00  0.00    -0.337 N 
ATOM     16  HN2 UNL     1      -0.378  -8.770  14.122  1.00  0.00     0.177 HD
ATOM     17  HN1 UNL     1       1.126  -8.101  13.979  1.00  0.00     0.177 HD
ENDBRANCH   5  15
TORSDOF 1
ENDMDL
MODEL 8
REMARK VINA RESULT:      -5.8      1.687      4.271
REMARK  1 active torsions:
REMARK  status: ('A' for Active; 'I' for Inactive)
REMARK    1  A    between atoms: N_5  and  N_7 
ROOT
HETATM    1  C   UNL     1      -1.255  -6.576  15.308  1.00  0.00     0.097 C 
HETATM    2  C   UNL     1      -1.223  -5.203  15.371  1.00  0.00    -0.028 C 
HETATM    3  N   UNL     1      -0.289  -7.287  14.716  1.00  0.00    -0.362 N 
ATOM      4  HN  UNL     1      -0.162  -8.220  15.106  1.00  0.00     0.166 HD
HETATM    5  N   UNL     1       1.390  -3.525  13.608  1.00  0.00    -0.256 N 
HETATM    6  C   UNL     1      -0.582  -3.090  14.632  1.00  0.00    -0.026 C 
HETATM    7  C   UNL     1       0.479  -2.449  13.977  1.00  0.00     0.126 C 
HETATM    8  C   UNL     1      -1.769  -2.870  15.493  1.00  0.00     0.045 C 
HETATM    9  C   UNL     1      -0.350  -4.473  14.563  1.00  0.00     0.025 C 
HETATM   10  C   UNL     1       0.523  -7.005  13.731  1.00  0.00     0.181 C 
HETATM   11  C   UNL     1      -2.370  -4.280  15.740  1.00  0.00     0.045 C 
HETATM   12  C   UNL     1       0.716  -4.717  13.725  1.00  0.00     0.138 C 
HETATM   13  N   UNL     1       1.189  -5.919  13.343  1.00  0.00    -0.336 N 
ATOM     14  HN  UNL     1       2.031  -5.995  12.773  1.00  0.00     0.168 HD
ENDROOT
BRANCH   5  15
HETATM   15  N   UNL     1       2.316  -3.213  12.576  1.00  0.00    -0.337 N 
ATOM     16  HN2 UNL     1       3.243  -2.815  12.725  1.00  0.00     0.177 HD
ATOM     17  HN1 UNL     1       2.381  -3.899  11.825  1.00  0.00     0.177 HD
ENDBRANCH   5  15
TORSDOF 1
ENDMDL
MODEL 9
REMARK VINA RESULT:      -5.8      1.512      2.918
REMARK  1 active torsions:
REMARK  status: ('A' for Active; 'I' for Inactive)
REMARK    1  A    between atoms: N_5  and  N_7 
ROOT
HETATM    1  C   UNL     1      -0.728  -2.008  14.807  1.00  0.00     0.097 C 
HETATM    2  C   UNL     1       0.070  -3.025  14.340  1.00  0.00    -0.028 C 
HETATM    3  N   UNL     1      -1.752  -2.227  15.638  1.00  0.00    -0.362 N 
ATOM      4  HN  UNL     1      -1.961  -1.443  16.255  1.00  0.00     0.166 HD
HETATM    5  N   UNL     1      -0.870  -6.372  15.157  1.00  0.00    -0.256 N 
HETATM    6  C   UNL     1       0.516  -5.239  13.771  1.00  0.00    -0.026 C 
HETATM    7  C   UNL     1       0.163  -6.544  14.143  1.00  0.00     0.126 C 
HETATM    8  C   UNL     1       1.530  -4.429  13.052  1.00  0.00     0.045 C 
HETATM    9  C   UNL     1      -0.332  -4.357  14.460  1.00  0.00     0.025 C 
HETATM   10  C   UNL     1      -2.535  -3.260  15.805  1.00  0.00     0.181 C 
HETATM   11  C   UNL     1       1.055  -2.957  13.188  1.00  0.00     0.045 C 
HETATM   12  C   UNL     1      -1.320  -5.075  15.096  1.00  0.00     0.138 C 
HETATM   13  N   UNL     1      -2.364  -4.581  15.788  1.00  0.00    -0.336 N 
ATOM     14  HN  UNL     1      -3.006  -5.200  16.284  1.00  0.00     0.168 HD
ENDROOT
BRANCH   5  15
HETATM   15  N   UNL     1      -1.692  -7.508  15.387  1.00  0.00    -0.337 N 
ATOM     16  HN2 UNL     1      -2.707  -7.524  15.290  1.00  0.00     0.177 HD
ATOM     17  HN1 UNL     1      -1.324  -8.392  15.035  1.00  0.00     0.177 HD
ENDBRANCH   5  15
TORSDOF 1
ENDMDL
