REMARK  3 active torsions:
REMARK  status: ('A' for Active; 'I' for Inactive)
REMARK    1  A    between atoms: C_1  and  C_15 
REMARK    2  A    between atoms: C_7  and  C_21 
REMARK    3  A    between atoms: C_15  and  C_21 
ROOT
HETATM    1  C   UNL     1     -21.928 -19.688  14.745  1.00  0.00     0.049 C 
HETATM    2  C   UNL     1     -19.755 -21.559  14.231  1.00  0.00     0.038 C 
HETATM    3  C   UNL     1     -21.108 -21.759  13.583  1.00  0.00    -0.051 C 
HETATM    4  C   UNL     1     -26.962 -18.374   9.595  1.00  0.00     0.015 A 
HETATM    5  C   UNL     1     -25.899 -19.223  11.579  1.00  0.00    -0.047 A 
HETATM    6  C   UNL     1     -23.814 -22.499  12.750  1.00  0.00     0.042 C 
HETATM    7  C   UNL     1     -22.145 -20.886  13.844  1.00  0.00    -0.051 C 
HETATM    8  C   UNL     1     -21.378 -22.920  12.638  1.00  0.00     0.106 C 
HETATM    9  C   UNL     1     -25.796 -17.674   9.268  1.00  0.00     0.016 A 
HETATM   10  N   UNL     1     -20.402 -24.008  12.840  1.00  0.00    -0.413 N 
ATOM     11  HN  UNL     1     -20.663 -24.966  12.607  1.00  0.00     0.153 HD
HETATM   12  C   UNL     1     -24.201 -20.022  12.928  1.00  0.00    -0.065 C 
HETATM   13  C   UNL     1     -24.767 -18.491  11.286  1.00  0.00    -0.048 A 
HETATM   14  C   UNL     1     -26.991 -19.202  10.727  1.00  0.00     0.023 A 
HETATM   15  C   UNL     1     -22.738 -23.531  13.069  1.00  0.00     0.034 C 
HETATM   16  C   UNL     1     -19.198 -22.923  14.650  1.00  0.00     0.023 C 
HETATM   17  C   UNL     1     -25.687 -20.125  12.759  1.00  0.00     0.074 C 
HETATM   18  C   UNL     1     -23.408 -21.111  13.219  1.00  0.00    -0.049 C 
HETATM   19  C   UNL     1     -19.070 -23.735  13.367  1.00  0.00     0.114 C 
HETATM   20  C   UNL     1     -23.677 -18.777  12.275  1.00  0.00     0.074 C 
HETATM   21  C   UNL     1     -24.702 -17.720  10.136  1.00  0.00     0.009 A 
ENDROOT
BRANCH   4  22
HETATM   22  C   UNL     1     -28.225 -18.267   8.794  1.00  0.00     0.189 C 
HETATM   23  O   UNL     1     -28.886 -17.256   8.806  1.00  0.00    -0.287 OA
BRANCH  22  24
HETATM   24  C   UNL     1     -28.772 -19.493   8.051  1.00  0.00    -0.001 C 
HETATM   25  C   UNL     1     -29.300 -20.557   9.011  1.00  0.00     0.053 C 
BRANCH  24  26
HETATM   26  C   UNL     1     -27.990 -20.110   6.879  1.00  0.00    -0.026 C 
HETATM   27  C   UNL     1     -28.616 -21.213   6.280  1.00  0.00     0.012 C 
HETATM   28  C   UNL     1     -28.169 -22.154   5.368  1.00  0.00     0.001 C 
HETATM   29  C   UNL     1     -27.090 -22.074   4.476  1.00  0.00     0.000 C 
HETATM   30  C   UNL     1     -26.131 -21.066   4.422  1.00  0.00     0.000 C 
HETATM   31  C   UNL     1     -26.026 -19.968   5.291  1.00  0.00     0.001 C 
HETATM   32  C   UNL     1     -26.717 -19.668   6.471  1.00  0.00     0.012 C 
ENDBRANCH  24  26
ENDBRANCH  22  24
ENDBRANCH   4  22
TORSDOF 3
