MODEL 1
REMARK VINA RESULT:      -5.6      0.000      0.000
REMARK  5 active torsions:
REMARK  status: ('A' for Active; 'I' for Inactive)
REMARK    1  A    between atoms: C_1  and  O_15 
REMARK    2  A    between atoms: C_2  and  C_3 
REMARK    3  A    between atoms: C_2  and  C_6 
REMARK    4  A    between atoms: C_3  and  C_4 
REMARK    5  A    between atoms: C_5  and  C_6 
ROOT
HETATM    1  C   UNL     1      12.273  -4.796   4.766  1.00  0.00     0.231 C 
HETATM    2  C   UNL     1      11.801  -3.400   5.182  1.00  0.00     0.119 C 
HETATM    3  C   UNL     1       9.963  -4.753   4.454  1.00  0.00     0.237 C 
HETATM    4  C   UNL     1      10.289  -3.379   5.004  1.00  0.00     0.045 C 
HETATM    5  C   UNL     1      12.383  -5.720   5.970  1.00  0.00     0.079 C 
HETATM    6  N   UNL     1      11.198  -5.299   3.910  1.00  0.00    -0.043 N 
ATOM      7  HN1 UNL     1      11.189  -6.315   3.822  1.00  0.00     0.280 HD
ATOM      8  HN2 UNL     1      11.334  -5.090   2.921  1.00  0.00     0.280 HD
ENDROOT
BRANCH   2   9
HETATM    9  C   UNL     1      12.484  -2.180   4.616  1.00  0.00     0.135 C 
HETATM   10  O   UNL     1      12.424  -1.898   3.450  1.00  0.00    -0.297 OA
BRANCH   9  11
HETATM   11  C   UNL     1      13.284  -1.317   5.580  1.00  0.00     0.079 C 
BRANCH  11  12
HETATM   12  C   UNL     1      14.580  -1.946   6.027  1.00  0.00     0.007 C 
BRANCH  12  13
HETATM   13  C   UNL     1      15.528  -1.023   6.769  1.00  0.00    -0.004 C 
HETATM   14  C   UNL     1      14.787   0.117   7.445  1.00  0.00     0.005 C 
ENDBRANCH  12  13
ENDBRANCH  11  12
ENDBRANCH   9  11
ENDBRANCH   2   9
BRANCH   1  15
HETATM   15  O   UNL     1      13.472  -4.780   4.012  1.00  0.00    -0.364 OA
ATOM     16  HO  UNL     1      13.330  -4.639   3.083  1.00  0.00     0.212 HD
ENDBRANCH   1  15
TORSDOF 5
ENDMDL
MODEL 2
REMARK VINA RESULT:      -5.4      2.903      3.754
REMARK  5 active torsions:
REMARK  status: ('A' for Active; 'I' for Inactive)
REMARK    1  A    between atoms: C_1  and  O_15 
REMARK    2  A    between atoms: C_2  and  C_3 
REMARK    3  A    between atoms: C_2  and  C_6 
REMARK    4  A    between atoms: C_3  and  C_4 
REMARK    5  A    between atoms: C_5  and  C_6 
ROOT
HETATM    1  C   UNL     1      12.620  -5.218   4.685  1.00  0.00     0.231 C 
HETATM    2  C   UNL     1      11.194  -4.754   4.997  1.00  0.00     0.119 C 
HETATM    3  C   UNL     1      11.206  -6.982   4.117  1.00  0.00     0.237 C 
HETATM    4  C   UNL     1      10.272  -5.915   4.652  1.00  0.00     0.045 C 
HETATM    5  C   UNL     1      13.298  -5.781   5.926  1.00  0.00     0.079 C 
HETATM    6  N   UNL     1      12.441  -6.314   3.733  1.00  0.00    -0.043 N 
ATOM      7  HN1 UNL     1      13.243  -6.942   3.680  1.00  0.00     0.280 HD
ATOM      8  HN2 UNL     1      12.455  -6.013   2.759  1.00  0.00     0.280 HD
ENDROOT
BRANCH   2   9
HETATM    9  C   UNL     1      10.706  -3.428   4.469  1.00  0.00     0.135 C 
HETATM   10  O   UNL     1      11.449  -2.502   4.287  1.00  0.00    -0.297 OA
BRANCH   9  11
HETATM   11  C   UNL     1       9.217  -3.291   4.193  1.00  0.00     0.079 C 
BRANCH  11  12
HETATM   12  C   UNL     1       8.450  -2.632   5.312  1.00  0.00     0.007 C 
BRANCH  12  13
HETATM   13  C   UNL     1       9.110  -2.695   6.677  1.00  0.00    -0.004 C 
HETATM   14  C   UNL     1       8.096  -2.547   7.798  1.00  0.00     0.005 C 
ENDBRANCH  12  13
ENDBRANCH  11  12
ENDBRANCH   9  11
ENDBRANCH   2   9
BRANCH   1  15
HETATM   15  O   UNL     1      13.412  -4.217   4.069  1.00  0.00    -0.364 OA
ATOM     16  HO  UNL     1      13.714  -4.459   3.201  1.00  0.00     0.212 HD
ENDBRANCH   1  15
TORSDOF 5
ENDMDL
MODEL 3
REMARK VINA RESULT:      -5.3      2.916      4.374
REMARK  5 active torsions:
REMARK  status: ('A' for Active; 'I' for Inactive)
REMARK    1  A    between atoms: C_1  and  O_15 
REMARK    2  A    between atoms: C_2  and  C_3 
REMARK    3  A    between atoms: C_2  and  C_6 
REMARK    4  A    between atoms: C_3  and  C_4 
REMARK    5  A    between atoms: C_5  and  C_6 
ROOT
HETATM    1  C   UNL     1      12.597  -5.113   4.730  1.00  0.00     0.231 C 
HETATM    2  C   UNL     1      11.133  -4.778   5.031  1.00  0.00     0.119 C 
HETATM    3  C   UNL     1      11.331  -6.917   3.972  1.00  0.00     0.237 C 
HETATM    4  C   UNL     1      10.307  -5.967   4.560  1.00  0.00     0.045 C 
HETATM    5  C   UNL     1      13.280  -5.730   5.943  1.00  0.00     0.079 C 
HETATM    6  N   UNL     1      12.525  -6.135   3.686  1.00  0.00    -0.043 N 
ATOM      7  HN1 UNL     1      13.371  -6.699   3.609  1.00  0.00     0.280 HD
ATOM      8  HN2 UNL     1      12.544  -5.753   2.741  1.00  0.00     0.280 HD
ENDROOT
BRANCH   2   9
HETATM    9  C   UNL     1      10.566  -3.450   4.597  1.00  0.00     0.135 C 
HETATM   10  O   UNL     1      11.227  -2.632   4.017  1.00  0.00    -0.297 OA
BRANCH   9  11
HETATM   11  C   UNL     1       9.113  -3.163   4.944  1.00  0.00     0.079 C 
BRANCH  11  12
HETATM   12  C   UNL     1       8.205  -3.083   3.743  1.00  0.00     0.007 C 
BRANCH  12  13
HETATM   13  C   UNL     1       6.950  -2.250   3.931  1.00  0.00    -0.004 C 
HETATM   14  C   UNL     1       6.922  -1.579   5.293  1.00  0.00     0.005 C 
ENDBRANCH  12  13
ENDBRANCH  11  12
ENDBRANCH   9  11
ENDBRANCH   2   9
BRANCH   1  15
HETATM   15  O   UNL     1      13.332  -4.011   4.226  1.00  0.00    -0.364 OA
ATOM     16  HO  UNL     1      12.936  -3.617   3.457  1.00  0.00     0.212 HD
ENDBRANCH   1  15
TORSDOF 5
ENDMDL
MODEL 4
REMARK VINA RESULT:      -5.1      3.879      5.470
REMARK  5 active torsions:
REMARK  status: ('A' for Active; 'I' for Inactive)
REMARK    1  A    between atoms: C_1  and  O_15 
REMARK    2  A    between atoms: C_2  and  C_3 
REMARK    3  A    between atoms: C_2  and  C_6 
REMARK    4  A    between atoms: C_3  and  C_4 
REMARK    5  A    between atoms: C_5  and  C_6 
ROOT
HETATM    1  C   UNL     1       6.792  -1.741   5.266  1.00  0.00     0.231 C 
HETATM    2  C   UNL     1       7.812  -2.857   5.515  1.00  0.00     0.119 C 
HETATM    3  C   UNL     1       7.959  -1.158   7.198  1.00  0.00     0.237 C 
HETATM    4  C   UNL     1       8.557  -2.490   6.792  1.00  0.00     0.045 C 
HETATM    5  C   UNL     1       5.433  -2.100   5.849  1.00  0.00     0.079 C 
HETATM    6  N   UNL     1       7.317  -0.601   6.017  1.00  0.00    -0.043 N 
ATOM      7  HN1 UNL     1       6.612   0.104   6.232  1.00  0.00     0.280 HD
ATOM      8  HN2 UNL     1       7.929   0.001   5.467  1.00  0.00     0.280 HD
ENDROOT
BRANCH   2   9
HETATM    9  C   UNL     1       8.725  -3.298   4.399  1.00  0.00     0.135 C 
HETATM   10  O   UNL     1       8.304  -3.628   3.323  1.00  0.00    -0.297 OA
BRANCH   9  11
HETATM   11  C   UNL     1      10.217  -3.338   4.690  1.00  0.00     0.079 C 
BRANCH  11  12
HETATM   12  C   UNL     1      10.845  -4.691   4.465  1.00  0.00     0.007 C 
BRANCH  12  13
HETATM   13  C   UNL     1      12.362  -4.703   4.416  1.00  0.00    -0.004 C 
HETATM   14  C   UNL     1      12.955  -5.485   5.575  1.00  0.00     0.005 C 
ENDBRANCH  12  13
ENDBRANCH  11  12
ENDBRANCH   9  11
ENDBRANCH   2   9
BRANCH   1  15
HETATM   15  O   UNL     1       6.691  -1.369   3.903  1.00  0.00    -0.364 OA
ATOM     16  HO  UNL     1       6.528  -2.106   3.324  1.00  0.00     0.212 HD
ENDBRANCH   1  15
TORSDOF 5
ENDMDL
MODEL 5
REMARK VINA RESULT:      -5.0      1.605      2.432
REMARK  5 active torsions:
REMARK  status: ('A' for Active; 'I' for Inactive)
REMARK    1  A    between atoms: C_1  and  O_15 
REMARK    2  A    between atoms: C_2  and  C_3 
REMARK    3  A    between atoms: C_2  and  C_6 
REMARK    4  A    between atoms: C_3  and  C_4 
REMARK    5  A    between atoms: C_5  and  C_6 
ROOT
HETATM    1  C   UNL     1      10.672  -4.546   5.073  1.00  0.00     0.231 C 
HETATM    2  C   UNL     1      11.996  -4.604   4.304  1.00  0.00     0.119 C 
HETATM    3  C   UNL     1      10.992  -6.773   4.466  1.00  0.00     0.237 C 
HETATM    4  C   UNL     1      12.193  -6.054   3.884  1.00  0.00     0.045 C 
HETATM    5  C   UNL     1       9.521  -4.160   4.156  1.00  0.00     0.079 C 
HETATM    6  N   UNL     1      10.453  -5.922   5.517  1.00  0.00    -0.043 N 
ATOM      7  HN1 UNL     1       9.480  -6.126   5.746  1.00  0.00     0.280 HD
ATOM      8  HN2 UNL     1      10.841  -6.119   6.439  1.00  0.00     0.280 HD
ENDROOT
BRANCH   2   9
HETATM    9  C   UNL     1      13.235  -3.983   4.899  1.00  0.00     0.135 C 
HETATM   10  O   UNL     1      13.897  -4.548   5.727  1.00  0.00    -0.297 OA
BRANCH   9  11
HETATM   11  C   UNL     1      13.611  -2.586   4.429  1.00  0.00     0.079 C 
BRANCH  11  12
HETATM   12  C   UNL     1      13.569  -1.546   5.520  1.00  0.00     0.007 C 
BRANCH  12  13
HETATM   13  C   UNL     1      14.834  -1.420   6.348  1.00  0.00    -0.004 C 
HETATM   14  C   UNL     1      14.889  -0.098   7.093  1.00  0.00     0.005 C 
ENDBRANCH  12  13
ENDBRANCH  11  12
ENDBRANCH   9  11
ENDBRANCH   2   9
BRANCH   1  15
HETATM   15  O   UNL     1      10.726  -3.712   6.218  1.00  0.00    -0.364 OA
ATOM     16  HO  UNL     1      10.475  -4.157   7.019  1.00  0.00     0.212 HD
ENDBRANCH   1  15
TORSDOF 5
ENDMDL
MODEL 6
REMARK VINA RESULT:      -4.9      3.558      5.164
REMARK  5 active torsions:
REMARK  status: ('A' for Active; 'I' for Inactive)
REMARK    1  A    between atoms: C_1  and  O_15 
REMARK    2  A    between atoms: C_2  and  C_3 
REMARK    3  A    between atoms: C_2  and  C_6 
REMARK    4  A    between atoms: C_3  and  C_4 
REMARK    5  A    between atoms: C_5  and  C_6 
ROOT
HETATM    1  C   UNL     1       7.688  -1.850   6.873  1.00  0.00     0.231 C 
HETATM    2  C   UNL     1       8.261  -2.414   5.569  1.00  0.00     0.119 C 
HETATM    3  C   UNL     1       5.980  -3.080   5.871  1.00  0.00     0.237 C 
HETATM    4  C   UNL     1       7.139  -3.195   4.900  1.00  0.00     0.045 C 
HETATM    5  C   UNL     1       7.173  -0.431   6.678  1.00  0.00     0.079 C 
HETATM    6  N   UNL     1       6.540  -2.710   7.162  1.00  0.00    -0.043 N 
ATOM      7  HN1 UNL     1       5.861  -2.284   7.793  1.00  0.00     0.280 HD
ATOM      8  HN2 UNL     1       6.770  -3.510   7.750  1.00  0.00     0.280 HD
ENDROOT
BRANCH   2   9
HETATM    9  C   UNL     1       9.574  -3.156   5.589  1.00  0.00     0.135 C 
HETATM   10  O   UNL     1       9.935  -3.789   6.543  1.00  0.00    -0.297 OA
BRANCH   9  11
HETATM   11  C   UNL     1      10.452  -3.055   4.351  1.00  0.00     0.079 C 
BRANCH  11  12
HETATM   12  C   UNL     1      11.885  -3.465   4.587  1.00  0.00     0.007 C 
BRANCH  12  13
HETATM   13  C   UNL     1      12.200  -4.920   4.297  1.00  0.00    -0.004 C 
HETATM   14  C   UNL     1      12.937  -5.575   5.452  1.00  0.00     0.005 C 
ENDBRANCH  12  13
ENDBRANCH  11  12
ENDBRANCH   9  11
ENDBRANCH   2   9
BRANCH   1  15
HETATM   15  O   UNL     1       8.591  -1.930   7.962  1.00  0.00    -0.364 OA
ATOM     16  HO  UNL     1       8.787  -2.823   8.222  1.00  0.00     0.212 HD
ENDBRANCH   1  15
TORSDOF 5
ENDMDL
MODEL 7
REMARK VINA RESULT:      -4.9      1.618      2.337
REMARK  5 active torsions:
REMARK  status: ('A' for Active; 'I' for Inactive)
REMARK    1  A    between atoms: C_1  and  O_15 
REMARK    2  A    between atoms: C_2  and  C_3 
REMARK    3  A    between atoms: C_2  and  C_6 
REMARK    4  A    between atoms: C_3  and  C_4 
REMARK    5  A    between atoms: C_5  and  C_6 
ROOT
HETATM    1  C   UNL     1      11.349  -5.641   4.535  1.00  0.00     0.231 C 
HETATM    2  C   UNL     1      12.425  -4.563   4.369  1.00  0.00     0.119 C 
HETATM    3  C   UNL     1      12.943  -6.031   6.190  1.00  0.00     0.237 C 
HETATM    4  C   UNL     1      13.480  -4.833   5.433  1.00  0.00     0.045 C 
HETATM    5  C   UNL     1      11.605  -6.819   3.606  1.00  0.00     0.079 C 
HETATM    6  N   UNL     1      11.517  -6.108   5.911  1.00  0.00    -0.043 N 
ATOM      7  HN1 UNL     1      11.119  -7.032   6.079  1.00  0.00     0.280 HD
ATOM      8  HN2 UNL     1      10.943  -5.602   6.585  1.00  0.00     0.280 HD
ENDROOT
BRANCH   2   9
HETATM    9  C   UNL     1      12.023  -3.112   4.283  1.00  0.00     0.135 C 
HETATM   10  O   UNL     1      10.883  -2.775   4.110  1.00  0.00    -0.297 OA
BRANCH   9  11
HETATM   11  C   UNL     1      13.127  -2.073   4.400  1.00  0.00     0.079 C 
BRANCH  11  12
HETATM   12  C   UNL     1      13.157  -1.363   5.730  1.00  0.00     0.007 C 
BRANCH  12  13
HETATM   13  C   UNL     1      14.536  -0.969   6.226  1.00  0.00    -0.004 C 
HETATM   14  C   UNL     1      15.342  -2.179   6.662  1.00  0.00     0.005 C 
ENDBRANCH  12  13
ENDBRANCH  11  12
ENDBRANCH   9  11
ENDBRANCH   2   9
BRANCH   1  15
HETATM   15  O   UNL     1      10.030  -5.143   4.391  1.00  0.00    -0.364 OA
ATOM     16  HO  UNL     1       9.973  -4.396   3.806  1.00  0.00     0.212 HD
ENDBRANCH   1  15
TORSDOF 5
ENDMDL
MODEL 8
REMARK VINA RESULT:      -4.8      2.580      5.203
REMARK  5 active torsions:
REMARK  status: ('A' for Active; 'I' for Inactive)
REMARK    1  A    between atoms: C_1  and  O_15 
REMARK    2  A    between atoms: C_2  and  C_3 
REMARK    3  A    between atoms: C_2  and  C_6 
REMARK    4  A    between atoms: C_3  and  C_4 
REMARK    5  A    between atoms: C_5  and  C_6 
ROOT
HETATM    1  C   UNL     1      11.755  -5.063   5.037  1.00  0.00     0.231 C 
HETATM    2  C   UNL     1      11.050  -3.812   4.505  1.00  0.00     0.119 C 
HETATM    3  C   UNL     1      13.395  -3.423   4.803  1.00  0.00     0.237 C 
HETATM    4  C   UNL     1      12.124  -2.748   4.326  1.00  0.00     0.045 C 
HETATM    5  C   UNL     1      12.129  -6.007   3.903  1.00  0.00     0.079 C 
HETATM    6  N   UNL     1      12.994  -4.554   5.626  1.00  0.00    -0.043 N 
ATOM      7  HN1 UNL     1      13.720  -5.264   5.723  1.00  0.00     0.280 HD
ATOM      8  HN2 UNL     1      12.909  -4.327   6.617  1.00  0.00     0.280 HD
ENDROOT
BRANCH   2   9
HETATM    9  C   UNL     1       9.813  -3.299   5.198  1.00  0.00     0.135 C 
HETATM   10  O   UNL     1       9.787  -3.080   6.378  1.00  0.00    -0.297 OA
BRANCH   9  11
HETATM   11  C   UNL     1       8.571  -3.088   4.345  1.00  0.00     0.079 C 
BRANCH  11  12
HETATM   12  C   UNL     1       8.098  -4.334   3.640  1.00  0.00     0.007 C 
BRANCH  12  13
HETATM   13  C   UNL     1       6.886  -4.154   2.745  1.00  0.00    -0.004 C 
HETATM   14  C   UNL     1       6.093  -2.914   3.117  1.00  0.00     0.005 C 
ENDBRANCH  12  13
ENDBRANCH  11  12
ENDBRANCH   9  11
ENDBRANCH   2   9
BRANCH   1  15
HETATM   15  O   UNL     1      11.022  -5.732   6.048  1.00  0.00    -0.364 OA
ATOM     16  HO  UNL     1      10.088  -5.766   5.874  1.00  0.00     0.212 HD
ENDBRANCH   1  15
TORSDOF 5
ENDMDL
MODEL 9
REMARK VINA RESULT:      -4.8      2.340      5.050
REMARK  5 active torsions:
REMARK  status: ('A' for Active; 'I' for Inactive)
REMARK    1  A    between atoms: C_1  and  O_15 
REMARK    2  A    between atoms: C_2  and  C_3 
REMARK    3  A    between atoms: C_2  and  C_6 
REMARK    4  A    between atoms: C_3  and  C_4 
REMARK    5  A    between atoms: C_5  and  C_6 
ROOT
HETATM    1  C   UNL     1      13.116  -2.750   4.755  1.00  0.00     0.231 C 
HETATM    2  C   UNL     1      12.377  -4.070   4.518  1.00  0.00     0.119 C 
HETATM    3  C   UNL     1      10.870  -2.352   5.237  1.00  0.00     0.237 C 
HETATM    4  C   UNL     1      10.905  -3.805   4.806  1.00  0.00     0.045 C 
HETATM    5  C   UNL     1      13.275  -1.968   3.459  1.00  0.00     0.079 C 
HETATM    6  N   UNL     1      12.223  -1.991   5.632  1.00  0.00    -0.043 N 
ATOM      7  HN1 UNL     1      12.396  -0.986   5.617  1.00  0.00     0.280 HD
ATOM      8  HN2 UNL     1      12.409  -2.135   6.624  1.00  0.00     0.280 HD
ENDROOT
BRANCH   2   9
HETATM    9  C   UNL     1      12.889  -5.339   5.153  1.00  0.00     0.135 C 
HETATM   10  O   UNL     1      13.986  -5.413   5.635  1.00  0.00    -0.297 OA
BRANCH   9  11
HETATM   11  C   UNL     1      11.967  -6.548   5.140  1.00  0.00     0.079 C 
BRANCH  11  12
HETATM   12  C   UNL     1      11.635  -7.046   3.756  1.00  0.00     0.007 C 
BRANCH  12  13
HETATM   13  C   UNL     1      10.305  -7.765   3.625  1.00  0.00    -0.004 C 
HETATM   14  C   UNL     1       9.134  -6.809   3.761  1.00  0.00     0.005 C 
ENDBRANCH  12  13
ENDBRANCH  11  12
ENDBRANCH   9  11
ENDBRANCH   2   9
BRANCH   1  15
HETATM   15  O   UNL     1      14.357  -2.914   5.418  1.00  0.00    -0.364 OA
ATOM     16  HO  UNL     1      14.498  -3.799   5.737  1.00  0.00     0.212 HD
ENDBRANCH   1  15
TORSDOF 5
ENDMDL
