MODEL 1
REMARK VINA RESULT:      -8.8      0.000      0.000
REMARK  10 active torsions:
REMARK  status: ('A' for Active; 'I' for Inactive)
REMARK    1  A    between atoms: C_1  and  C_31 
REMARK    2  A    between atoms: C_2  and  C_5 
REMARK    3  A    between atoms: C_3  and  N_28 
REMARK    4  A    between atoms: C_3  and  C_31 
REMARK    5  A    between atoms: C_4  and  N_12 
REMARK    6  A    between atoms: C_6  and  C_10 
REMARK    7  A    between atoms: C_16  and  C_23 
REMARK    8  A    between atoms: C_16  and  C_24 
REMARK    9  A    between atoms: C_21  and  N_28 
REMARK   10  A    between atoms: C_25  and  O_32 
ROOT
HETATM    1  C   UNL     1     -45.893   2.021  10.925  1.00  0.00    -0.025 C 
HETATM    2  C   UNL     1     -45.543   1.359  11.992  1.00  0.00    -0.004 C 
ENDROOT
BRANCH   1   3
HETATM    3  C   UNL     1     -45.588   3.257  10.111  1.00  0.00     0.054 C 
BRANCH   3   4
HETATM    4  C   UNL     1     -45.600   2.851   8.638  1.00  0.00     0.236 C 
BRANCH   4   5
HETATM    5  N   UNL     1     -44.268   2.465   8.176  1.00  0.00    -0.066 N 
ATOM      6  HN2 UNL     1     -43.603   3.224   8.326  1.00  0.00     0.277 HD
ATOM      7  HN1 UNL     1     -43.866   1.758   8.793  1.00  0.00     0.277 HD
BRANCH   5   8
HETATM    8  C   UNL     1     -44.225   2.022   6.809  1.00  0.00     0.244 C 
HETATM    9  C   UNL     1     -43.929   0.597   6.382  1.00  0.00     0.216 C 
HETATM   10  C   UNL     1     -43.540   0.693   4.909  1.00  0.00     0.037 C 
HETATM   11  C   UNL     1     -43.900   2.101   4.435  1.00  0.00     0.036 C 
HETATM   12  C   UNL     1     -43.833   2.956   5.679  1.00  0.00     0.151 C 
BRANCH   9  13
HETATM   13  N   UNL     1     -42.863   0.034   7.227  1.00  0.00    -0.073 N 
ATOM     14  HN3 UNL     1     -42.301   0.776   7.643  1.00  0.00     0.274 HD
ATOM     15  HN2 UNL     1     -43.252  -0.377   8.075  1.00  0.00     0.274 HD
ATOM     16  HN1 UNL     1     -42.273  -0.636   6.735  1.00  0.00     0.274 HD
ENDBRANCH   9  13
BRANCH  12  17
HETATM   17  O   UNL     1     -42.560   3.537   5.903  1.00  0.00    -0.393 OA
ATOM     18  HO  UNL     1     -42.599   4.434   6.213  1.00  0.00     0.210 HD
ENDBRANCH  12  17
ENDBRANCH   5   8
ENDBRANCH   4   5
ENDBRANCH   3   4
ENDBRANCH   1   3
BRANCH   2  19
HETATM   19  C   UNL     1     -45.119  -0.051  12.246  1.00  0.00     0.004 C 
HETATM   20  C   UNL     1     -45.596  -0.864  13.161  1.00  0.00     0.055 C 
BRANCH  20  21
HETATM   21  C   UNL     1     -45.841  -2.373  12.971  1.00  0.00     0.178 C 
HETATM   22  O   UNL     1     -45.162  -3.210  13.545  1.00  0.00    -0.288 OA
BRANCH  21  23
HETATM   23  C   UNL     1     -46.972  -2.911  12.097  1.00  0.00    -0.001 C 
HETATM   24  C   UNL     1     -48.047  -1.996  11.537  1.00  0.00    -0.038 C 
HETATM   25  C   UNL     1     -49.455  -2.160  12.114  1.00  0.00     0.040 C 
HETATM   26  C   UNL     1     -49.817  -3.548  12.660  1.00  0.00     0.005 C 
HETATM   27  C   UNL     1     -48.891  -4.664  12.130  1.00  0.00     0.005 C 
HETATM   28  C   UNL     1     -47.409  -4.344  12.394  1.00  0.00     0.043 C 
BRANCH  24  29
HETATM   29  C   UNL     1     -47.860  -1.308  10.200  1.00  0.00    -0.029 C 
HETATM   30  C   UNL     1     -46.698  -1.456   9.414  1.00  0.00     0.012 C 
HETATM   31  C   UNL     1     -46.550  -0.759   8.210  1.00  0.00     0.001 C 
HETATM   32  C   UNL     1     -47.484   0.220   7.851  1.00  0.00     0.000 C 
HETATM   33  C   UNL     1     -48.578   0.477   8.673  1.00  0.00     0.001 C 
HETATM   34  C   UNL     1     -48.816  -0.356   9.769  1.00  0.00     0.012 C 
ENDBRANCH  24  29
ENDBRANCH  21  23
ENDBRANCH  20  21
ENDBRANCH   2  19
TORSDOF 10
ENDMDL
MODEL 2
REMARK VINA RESULT:      -8.2      1.594      3.285
REMARK  10 active torsions:
REMARK  status: ('A' for Active; 'I' for Inactive)
REMARK    1  A    between atoms: C_1  and  C_31 
REMARK    2  A    between atoms: C_2  and  C_5 
REMARK    3  A    between atoms: C_3  and  N_28 
REMARK    4  A    between atoms: C_3  and  C_31 
REMARK    5  A    between atoms: C_4  and  N_12 
REMARK    6  A    between atoms: C_6  and  C_10 
REMARK    7  A    between atoms: C_16  and  C_23 
REMARK    8  A    between atoms: C_16  and  C_24 
REMARK    9  A    between atoms: C_21  and  N_28 
REMARK   10  A    between atoms: C_25  and  O_32 
ROOT
HETATM    1  C   UNL     1     -47.517   2.426   8.545  1.00  0.00    -0.025 C 
HETATM    2  C   UNL     1     -48.462   1.966   9.316  1.00  0.00    -0.004 C 
ENDROOT
BRANCH   1   3
HETATM    3  C   UNL     1     -46.190   3.148   8.553  1.00  0.00     0.054 C 
BRANCH   3   4
HETATM    4  C   UNL     1     -45.100   2.102   8.781  1.00  0.00     0.236 C 
BRANCH   4   5
HETATM    5  N   UNL     1     -43.903   2.393   7.993  1.00  0.00    -0.066 N 
ATOM      6  HN2 UNL     1     -43.631   3.370   8.103  1.00  0.00     0.277 HD
ATOM      7  HN1 UNL     1     -43.087   1.937   8.402  1.00  0.00     0.277 HD
BRANCH   5   8
HETATM    8  C   UNL     1     -44.021   2.058   6.599  1.00  0.00     0.244 C 
HETATM    9  C   UNL     1     -43.800   0.668   6.034  1.00  0.00     0.216 C 
HETATM   10  C   UNL     1     -43.575   0.875   4.538  1.00  0.00     0.037 C 
HETATM   11  C   UNL     1     -43.960   2.320   4.218  1.00  0.00     0.036 C 
HETATM   12  C   UNL     1     -43.740   3.074   5.508  1.00  0.00     0.151 C 
BRANCH   9  13
HETATM   13  N   UNL     1     -42.657   0.031   6.708  1.00  0.00    -0.073 N 
ATOM     14  HN3 UNL     1     -41.791   0.207   6.199  1.00  0.00     0.274 HD
ATOM     15  HN2 UNL     1     -42.438   0.510   7.581  1.00  0.00     0.274 HD
ATOM     16  HN1 UNL     1     -42.790  -0.968   6.865  1.00  0.00     0.274 HD
ENDBRANCH   9  13
BRANCH  12  17
HETATM   17  O   UNL     1     -42.439   3.623   5.631  1.00  0.00    -0.393 OA
ATOM     18  HO  UNL     1     -41.780   2.989   5.887  1.00  0.00     0.210 HD
ENDBRANCH  12  17
ENDBRANCH   5   8
ENDBRANCH   4   5
ENDBRANCH   3   4
ENDBRANCH   1   3
BRANCH   2  19
HETATM   19  C   UNL     1     -49.106   0.628   9.482  1.00  0.00     0.004 C 
HETATM   20  C   UNL     1     -48.531  -0.477   9.899  1.00  0.00     0.055 C 
BRANCH  20  21
HETATM   21  C   UNL     1     -49.183  -1.526  10.821  1.00  0.00     0.178 C 
HETATM   22  O   UNL     1     -50.331  -1.907  10.648  1.00  0.00    -0.288 OA
BRANCH  21  23
HETATM   23  C   UNL     1     -48.423  -2.187  11.969  1.00  0.00    -0.001 C 
HETATM   24  C   UNL     1     -46.917  -2.380  11.917  1.00  0.00    -0.038 C 
HETATM   25  C   UNL     1     -46.415  -3.819  11.782  1.00  0.00     0.040 C 
HETATM   26  C   UNL     1     -47.326  -4.920  12.343  1.00  0.00     0.005 C 
HETATM   27  C   UNL     1     -48.365  -4.386  13.352  1.00  0.00     0.005 C 
HETATM   28  C   UNL     1     -49.201  -3.242  12.754  1.00  0.00     0.043 C 
BRANCH  24  29
HETATM   29  C   UNL     1     -45.979  -1.304  12.427  1.00  0.00    -0.029 C 
HETATM   30  C   UNL     1     -45.289  -1.401  13.653  1.00  0.00     0.012 C 
HETATM   31  C   UNL     1     -44.474  -0.358  14.105  1.00  0.00     0.001 C 
HETATM   32  C   UNL     1     -44.462   0.864  13.423  1.00  0.00     0.000 C 
HETATM   33  C   UNL     1     -45.233   1.031  12.276  1.00  0.00     0.001 C 
HETATM   34  C   UNL     1     -45.889  -0.075  11.729  1.00  0.00     0.012 C 
ENDBRANCH  24  29
ENDBRANCH  21  23
ENDBRANCH  20  21
ENDBRANCH   2  19
TORSDOF 10
ENDMDL
MODEL 3
REMARK VINA RESULT:      -8.2      1.810      2.940
REMARK  10 active torsions:
REMARK  status: ('A' for Active; 'I' for Inactive)
REMARK    1  A    between atoms: C_1  and  C_31 
REMARK    2  A    between atoms: C_2  and  C_5 
REMARK    3  A    between atoms: C_3  and  N_28 
REMARK    4  A    between atoms: C_3  and  C_31 
REMARK    5  A    between atoms: C_4  and  N_12 
REMARK    6  A    between atoms: C_6  and  C_10 
REMARK    7  A    between atoms: C_16  and  C_23 
REMARK    8  A    between atoms: C_16  and  C_24 
REMARK    9  A    between atoms: C_21  and  N_28 
REMARK   10  A    between atoms: C_25  and  O_32 
ROOT
HETATM    1  C   UNL     1     -47.128   1.461   9.798  1.00  0.00    -0.025 C 
HETATM    2  C   UNL     1     -46.367   1.058  10.777  1.00  0.00    -0.004 C 
ENDROOT
BRANCH   1   3
HETATM    3  C   UNL     1     -47.218   2.452   8.661  1.00  0.00     0.054 C 
BRANCH   3   4
HETATM    4  C   UNL     1     -46.010   3.380   8.764  1.00  0.00     0.236 C 
BRANCH   4   5
HETATM    5  N   UNL     1     -44.757   2.656   8.556  1.00  0.00    -0.066 N 
ATOM      6  HN2 UNL     1     -43.959   3.284   8.657  1.00  0.00     0.277 HD
ATOM      7  HN1 UNL     1     -44.577   2.021   9.335  1.00  0.00     0.277 HD
BRANCH   5   8
HETATM    8  C   UNL     1     -44.686   1.950   7.305  1.00  0.00     0.244 C 
HETATM    9  C   UNL     1     -44.567   0.443   7.180  1.00  0.00     0.216 C 
HETATM   10  C   UNL     1     -44.070   0.198   5.758  1.00  0.00     0.037 C 
HETATM   11  C   UNL     1     -44.194   1.519   4.999  1.00  0.00     0.036 C 
HETATM   12  C   UNL     1     -44.090   2.587   6.063  1.00  0.00     0.151 C 
BRANCH   9  13
HETATM   13  N   UNL     1     -43.651  -0.072   8.211  1.00  0.00    -0.073 N 
ATOM     14  HN3 UNL     1     -44.171  -0.494   8.979  1.00  0.00     0.274 HD
ATOM     15  HN2 UNL     1     -43.152  -0.895   7.874  1.00  0.00     0.274 HD
ATOM     16  HN1 UNL     1     -43.000   0.632   8.556  1.00  0.00     0.274 HD
ENDBRANCH   9  13
BRANCH  12  17
HETATM   17  O   UNL     1     -42.765   3.035   6.293  1.00  0.00    -0.393 OA
ATOM     18  HO  UNL     1     -42.101   2.394   6.067  1.00  0.00     0.210 HD
ENDBRANCH  12  17
ENDBRANCH   5   8
ENDBRANCH   4   5
ENDBRANCH   3   4
ENDBRANCH   1   3
BRANCH   2  19
HETATM   19  C   UNL     1     -45.807  -0.267  11.178  1.00  0.00     0.004 C 
HETATM   20  C   UNL     1     -45.698  -0.739  12.399  1.00  0.00     0.055 C 
BRANCH  20  21
HETATM   21  C   UNL     1     -45.934  -2.205  12.811  1.00  0.00     0.178 C 
HETATM   22  O   UNL     1     -45.134  -2.813  13.505  1.00  0.00    -0.288 OA
BRANCH  21  23
HETATM   23  C   UNL     1     -47.198  -2.968  12.421  1.00  0.00    -0.001 C 
HETATM   24  C   UNL     1     -47.545  -3.240  10.967  1.00  0.00    -0.038 C 
HETATM   25  C   UNL     1     -48.751  -2.490  10.398  1.00  0.00     0.040 C 
HETATM   26  C   UNL     1     -49.842  -2.085  11.398  1.00  0.00     0.005 C 
HETATM   27  C   UNL     1     -49.779  -2.885  12.717  1.00  0.00     0.005 C 
HETATM   28  C   UNL     1     -48.387  -2.800  13.366  1.00  0.00     0.043 C 
BRANCH  24  29
HETATM   29  C   UNL     1     -47.041  -4.489  10.271  1.00  0.00    -0.029 C 
HETATM   30  C   UNL     1     -47.886  -5.554   9.896  1.00  0.00     0.012 C 
HETATM   31  C   UNL     1     -47.366  -6.709   9.301  1.00  0.00     0.001 C 
HETATM   32  C   UNL     1     -45.980  -6.890   9.220  1.00  0.00     0.000 C 
HETATM   33  C   UNL     1     -45.119  -5.906   9.699  1.00  0.00     0.001 C 
HETATM   34  C   UNL     1     -45.647  -4.680  10.111  1.00  0.00     0.012 C 
ENDBRANCH  24  29
ENDBRANCH  21  23
ENDBRANCH  20  21
ENDBRANCH   2  19
TORSDOF 10
ENDMDL
MODEL 4
REMARK VINA RESULT:      -8.1      2.246      4.260
REMARK  10 active torsions:
REMARK  status: ('A' for Active; 'I' for Inactive)
REMARK    1  A    between atoms: C_1  and  C_31 
REMARK    2  A    between atoms: C_2  and  C_5 
REMARK    3  A    between atoms: C_3  and  N_28 
REMARK    4  A    between atoms: C_3  and  C_31 
REMARK    5  A    between atoms: C_4  and  N_12 
REMARK    6  A    between atoms: C_6  and  C_10 
REMARK    7  A    between atoms: C_16  and  C_23 
REMARK    8  A    between atoms: C_16  and  C_24 
REMARK    9  A    between atoms: C_21  and  N_28 
REMARK   10  A    between atoms: C_25  and  O_32 
ROOT
HETATM    1  C   UNL     1     -43.511  -0.213   6.703  1.00  0.00    -0.025 C 
HETATM    2  C   UNL     1     -43.897  -1.444   6.885  1.00  0.00    -0.004 C 
ENDROOT
BRANCH   1   3
HETATM    3  C   UNL     1     -43.887   1.089   6.036  1.00  0.00     0.054 C 
BRANCH   3   4
HETATM    4  C   UNL     1     -43.993   2.151   7.129  1.00  0.00     0.236 C 
BRANCH   4   5
HETATM    5  N   UNL     1     -44.461   1.579   8.391  1.00  0.00    -0.066 N 
ATOM      6  HN2 UNL     1     -44.312   0.569   8.402  1.00  0.00     0.277 HD
ATOM      7  HN1 UNL     1     -43.846   1.854   9.157  1.00  0.00     0.277 HD
BRANCH   5   8
HETATM    8  C   UNL     1     -45.829   1.890   8.706  1.00  0.00     0.244 C 
HETATM    9  C   UNL     1     -46.349   2.127  10.111  1.00  0.00     0.216 C 
HETATM   10  C   UNL     1     -47.863   1.960  10.011  1.00  0.00     0.037 C 
HETATM   11  C   UNL     1     -48.219   1.927   8.524  1.00  0.00     0.036 C 
HETATM   12  C   UNL     1     -46.978   1.403   7.841  1.00  0.00     0.151 C 
BRANCH   9  13
HETATM   13  N   UNL     1     -45.722   1.175  11.042  1.00  0.00    -0.073 N 
ATOM     14  HN3 UNL     1     -44.706   1.257  11.013  1.00  0.00     0.274 HD
ATOM     15  HN2 UNL     1     -45.885   1.453  12.009  1.00  0.00     0.274 HD
ATOM     16  HN1 UNL     1     -46.013   0.211  10.887  1.00  0.00     0.274 HD
ENDBRANCH   9  13
BRANCH  12  17
HETATM   17  O   UNL     1     -46.959  -0.007   7.697  1.00  0.00    -0.393 OA
ATOM     18  HO  UNL     1     -46.556  -0.459   8.429  1.00  0.00     0.210 HD
ENDBRANCH  12  17
ENDBRANCH   5   8
ENDBRANCH   4   5
ENDBRANCH   3   4
ENDBRANCH   1   3
BRANCH   2  19
HETATM   19  C   UNL     1     -44.132  -2.290   8.094  1.00  0.00     0.004 C 
HETATM   20  C   UNL     1     -43.526  -2.189   9.256  1.00  0.00     0.055 C 
BRANCH  20  21
HETATM   21  C   UNL     1     -44.199  -2.374  10.630  1.00  0.00     0.178 C 
HETATM   22  O   UNL     1     -44.044  -1.567  11.534  1.00  0.00    -0.288 OA
BRANCH  21  23
HETATM   23  C   UNL     1     -45.135  -3.544  10.928  1.00  0.00    -0.001 C 
HETATM   24  C   UNL     1     -46.215  -3.447  11.992  1.00  0.00    -0.038 C 
HETATM   25  C   UNL     1     -46.014  -4.292  13.251  1.00  0.00     0.040 C 
HETATM   26  C   UNL     1     -45.186  -5.575  13.093  1.00  0.00     0.005 C 
HETATM   27  C   UNL     1     -45.079  -6.046  11.628  1.00  0.00     0.005 C 
HETATM   28  C   UNL     1     -44.540  -4.935  10.711  1.00  0.00     0.043 C 
BRANCH  24  29
HETATM   29  C   UNL     1     -47.597  -2.930  11.648  1.00  0.00    -0.029 C 
HETATM   30  C   UNL     1     -47.839  -2.014  10.603  1.00  0.00     0.012 C 
HETATM   31  C   UNL     1     -49.127  -1.526  10.356  1.00  0.00     0.001 C 
HETATM   32  C   UNL     1     -50.166  -1.817  11.248  1.00  0.00     0.000 C 
HETATM   33  C   UNL     1     -49.926  -2.619  12.361  1.00  0.00     0.001 C 
HETATM   34  C   UNL     1     -48.688  -3.254  12.489  1.00  0.00     0.012 C 
ENDBRANCH  24  29
ENDBRANCH  21  23
ENDBRANCH  20  21
ENDBRANCH   2  19
TORSDOF 10
ENDMDL
MODEL 5
REMARK VINA RESULT:      -8.1      3.076      7.205
REMARK  10 active torsions:
REMARK  status: ('A' for Active; 'I' for Inactive)
REMARK    1  A    between atoms: C_1  and  C_31 
REMARK    2  A    between atoms: C_2  and  C_5 
REMARK    3  A    between atoms: C_3  and  N_28 
REMARK    4  A    between atoms: C_3  and  C_31 
REMARK    5  A    between atoms: C_4  and  N_12 
REMARK    6  A    between atoms: C_6  and  C_10 
REMARK    7  A    between atoms: C_16  and  C_23 
REMARK    8  A    between atoms: C_16  and  C_24 
REMARK    9  A    between atoms: C_21  and  N_28 
REMARK   10  A    between atoms: C_25  and  O_32 
ROOT
HETATM    1  C   UNL     1     -49.333  -2.406  12.549  1.00  0.00    -0.025 C 
HETATM    2  C   UNL     1     -49.905  -2.343  11.380  1.00  0.00    -0.004 C 
ENDROOT
BRANCH   1   3
HETATM    3  C   UNL     1     -48.718  -3.358  13.548  1.00  0.00     0.054 C 
BRANCH   3   4
HETATM    4  C   UNL     1     -48.431  -4.668  12.817  1.00  0.00     0.236 C 
BRANCH   4   5
HETATM    5  N   UNL     1     -46.994  -4.919  12.709  1.00  0.00    -0.066 N 
ATOM      6  HN2 UNL     1     -46.475  -4.041  12.740  1.00  0.00     0.277 HD
ATOM      7  HN1 UNL     1     -46.643  -5.359  13.560  1.00  0.00     0.277 HD
BRANCH   5   8
HETATM    8  C   UNL     1     -46.616  -5.687  11.553  1.00  0.00     0.244 C 
HETATM    9  C   UNL     1     -45.197  -6.122  11.243  1.00  0.00     0.216 C 
HETATM   10  C   UNL     1     -45.203  -6.480   9.760  1.00  0.00     0.037 C 
HETATM   11  C   UNL     1     -46.663  -6.534   9.311  1.00  0.00     0.036 C 
HETATM   12  C   UNL     1     -47.391  -5.601  10.250  1.00  0.00     0.151 C 
BRANCH   9  13
HETATM   13  N   UNL     1     -44.259  -5.036  11.574  1.00  0.00    -0.073 N 
ATOM     14  HN3 UNL     1     -43.903  -5.142  12.524  1.00  0.00     0.274 HD
ATOM     15  HN2 UNL     1     -43.387  -5.140  11.055  1.00  0.00     0.274 HD
ATOM     16  HN1 UNL     1     -44.656  -4.108  11.436  1.00  0.00     0.274 HD
ENDBRANCH   9  13
BRANCH  12  17
HETATM   17  O   UNL     1     -47.469  -4.266   9.780  1.00  0.00    -0.393 OA
ATOM     18  HO  UNL     1     -48.027  -4.162   9.018  1.00  0.00     0.210 HD
ENDBRANCH  12  17
ENDBRANCH   5   8
ENDBRANCH   4   5
ENDBRANCH   3   4
ENDBRANCH   1   3
BRANCH   2  19
HETATM   19  C   UNL     1     -49.634  -1.565  10.133  1.00  0.00     0.004 C 
HETATM   20  C   UNL     1     -49.015  -0.409  10.045  1.00  0.00     0.055 C 
BRANCH  20  21
HETATM   21  C   UNL     1     -48.039  -0.006   8.923  1.00  0.00     0.178 C 
HETATM   22  O   UNL     1     -48.328  -0.136   7.743  1.00  0.00    -0.288 OA
BRANCH  21  23
HETATM   23  C   UNL     1     -46.678   0.622   9.215  1.00  0.00    -0.001 C 
HETATM   24  C   UNL     1     -46.350   1.210  10.576  1.00  0.00    -0.038 C 
HETATM   25  C   UNL     1     -46.203   2.731  10.649  1.00  0.00     0.040 C 
HETATM   26  C   UNL     1     -45.756   3.441   9.363  1.00  0.00     0.005 C 
HETATM   27  C   UNL     1     -45.088   2.487   8.350  1.00  0.00     0.005 C 
HETATM   28  C   UNL     1     -45.989   1.284   8.023  1.00  0.00     0.043 C 
BRANCH  24  29
HETATM   29  C   UNL     1     -45.754   0.346  11.670  1.00  0.00    -0.029 C 
HETATM   30  C   UNL     1     -46.025  -1.032  11.796  1.00  0.00     0.012 C 
HETATM   31  C   UNL     1     -45.492  -1.777  12.853  1.00  0.00     0.001 C 
HETATM   32  C   UNL     1     -44.815  -1.128  13.893  1.00  0.00     0.000 C 
HETATM   33  C   UNL     1     -44.643   0.253  13.858  1.00  0.00     0.001 C 
HETATM   34  C   UNL     1     -45.008   0.956  12.707  1.00  0.00     0.012 C 
ENDBRANCH  24  29
ENDBRANCH  21  23
ENDBRANCH  20  21
ENDBRANCH   2  19
TORSDOF 10
ENDMDL
MODEL 6
REMARK VINA RESULT:      -8.1      2.000      3.149
REMARK  10 active torsions:
REMARK  status: ('A' for Active; 'I' for Inactive)
REMARK    1  A    between atoms: C_1  and  C_31 
REMARK    2  A    between atoms: C_2  and  C_5 
REMARK    3  A    between atoms: C_3  and  N_28 
REMARK    4  A    between atoms: C_3  and  C_31 
REMARK    5  A    between atoms: C_4  and  N_12 
REMARK    6  A    between atoms: C_6  and  C_10 
REMARK    7  A    between atoms: C_16  and  C_23 
REMARK    8  A    between atoms: C_16  and  C_24 
REMARK    9  A    between atoms: C_21  and  N_28 
REMARK   10  A    between atoms: C_25  and  O_32 
ROOT
HETATM    1  C   UNL     1     -47.496   2.578   8.676  1.00  0.00    -0.025 C 
HETATM    2  C   UNL     1     -48.341   2.009   9.488  1.00  0.00    -0.004 C 
ENDROOT
BRANCH   1   3
HETATM    3  C   UNL     1     -46.157   3.276   8.613  1.00  0.00     0.054 C 
BRANCH   3   4
HETATM    4  C   UNL     1     -45.078   2.221   8.849  1.00  0.00     0.236 C 
BRANCH   4   5
HETATM    5  N   UNL     1     -43.887   2.480   8.041  1.00  0.00    -0.066 N 
ATOM      6  HN2 UNL     1     -43.596   3.454   8.136  1.00  0.00     0.277 HD
ATOM      7  HN1 UNL     1     -43.073   2.016   8.446  1.00  0.00     0.277 HD
BRANCH   5   8
HETATM    8  C   UNL     1     -44.028   2.129   6.654  1.00  0.00     0.244 C 
HETATM    9  C   UNL     1     -43.875   0.722   6.109  1.00  0.00     0.216 C 
HETATM   10  C   UNL     1     -43.651   0.896   4.609  1.00  0.00     0.037 C 
HETATM   11  C   UNL     1     -43.971   2.351   4.268  1.00  0.00     0.036 C 
HETATM   12  C   UNL     1     -43.709   3.115   5.545  1.00  0.00     0.151 C 
BRANCH   9  13
HETATM   13  N   UNL     1     -42.758   0.044   6.787  1.00  0.00    -0.073 N 
ATOM     14  HN3 UNL     1     -41.927   0.634   6.795  1.00  0.00     0.274 HD
ATOM     15  HN2 UNL     1     -42.928  -0.019   7.791  1.00  0.00     0.274 HD
ATOM     16  HN1 UNL     1     -42.549  -0.874   6.396  1.00  0.00     0.274 HD
ENDBRANCH   9  13
BRANCH  12  17
HETATM   17  O   UNL     1     -42.383   3.605   5.653  1.00  0.00    -0.393 OA
ATOM     18  HO  UNL     1     -42.176   4.286   5.024  1.00  0.00     0.210 HD
ENDBRANCH  12  17
ENDBRANCH   5   8
ENDBRANCH   4   5
ENDBRANCH   3   4
ENDBRANCH   1   3
BRANCH   2  19
HETATM   19  C   UNL     1     -49.000   0.669   9.528  1.00  0.00     0.004 C 
HETATM   20  C   UNL     1     -48.420  -0.487   9.760  1.00  0.00     0.055 C 
BRANCH  20  21
HETATM   21  C   UNL     1     -49.027  -1.639  10.585  1.00  0.00     0.178 C 
HETATM   22  O   UNL     1     -50.217  -1.910  10.528  1.00  0.00    -0.288 OA
BRANCH  21  23
HETATM   23  C   UNL     1     -48.176  -2.536  11.481  1.00  0.00    -0.001 C 
HETATM   24  C   UNL     1     -47.335  -3.663  10.907  1.00  0.00    -0.038 C 
HETATM   25  C   UNL     1     -47.791  -5.088  11.224  1.00  0.00     0.040 C 
HETATM   26  C   UNL     1     -48.573  -5.285  12.530  1.00  0.00     0.005 C 
HETATM   27  C   UNL     1     -48.382  -4.124  13.528  1.00  0.00     0.005 C 
HETATM   28  C   UNL     1     -48.719  -2.765  12.890  1.00  0.00     0.043 C 
BRANCH  24  29
HETATM   29  C   UNL     1     -45.909  -3.414  10.457  1.00  0.00    -0.029 C 
HETATM   30  C   UNL     1     -45.298  -2.143  10.503  1.00  0.00     0.012 C 
HETATM   31  C   UNL     1     -43.996  -1.953  10.028  1.00  0.00     0.001 C 
HETATM   32  C   UNL     1     -43.342  -2.988   9.350  1.00  0.00     0.000 C 
HETATM   33  C   UNL     1     -43.973  -4.218   9.178  1.00  0.00     0.001 C 
HETATM   34  C   UNL     1     -45.190  -4.455   9.823  1.00  0.00     0.012 C 
ENDBRANCH  24  29
ENDBRANCH  21  23
ENDBRANCH  20  21
ENDBRANCH   2  19
TORSDOF 10
ENDMDL
MODEL 7
REMARK VINA RESULT:      -8.1      2.682      6.686
REMARK  10 active torsions:
REMARK  status: ('A' for Active; 'I' for Inactive)
REMARK    1  A    between atoms: C_1  and  C_31 
REMARK    2  A    between atoms: C_2  and  C_5 
REMARK    3  A    between atoms: C_3  and  N_28 
REMARK    4  A    between atoms: C_3  and  C_31 
REMARK    5  A    between atoms: C_4  and  N_12 
REMARK    6  A    between atoms: C_6  and  C_10 
REMARK    7  A    between atoms: C_16  and  C_23 
REMARK    8  A    between atoms: C_16  and  C_24 
REMARK    9  A    between atoms: C_21  and  N_28 
REMARK   10  A    between atoms: C_25  and  O_32 
ROOT
HETATM    1  C   UNL     1     -49.489  -3.123  12.542  1.00  0.00    -0.025 C 
HETATM    2  C   UNL     1     -49.578  -2.822  11.277  1.00  0.00    -0.004 C 
ENDROOT
BRANCH   1   3
HETATM    3  C   UNL     1     -48.664  -3.888  13.550  1.00  0.00     0.054 C 
BRANCH   3   4
HETATM    4  C   UNL     1     -47.657  -4.733  12.773  1.00  0.00     0.236 C 
BRANCH   4   5
HETATM    5  N   UNL     1     -46.291  -4.243  12.953  1.00  0.00    -0.066 N 
ATOM      6  HN2 UNL     1     -46.087  -4.110  13.944  1.00  0.00     0.277 HD
ATOM      7  HN1 UNL     1     -45.616  -4.977  12.734  1.00  0.00     0.277 HD
BRANCH   5   8
HETATM    8  C   UNL     1     -45.993  -3.047  12.213  1.00  0.00     0.244 C 
HETATM    9  C   UNL     1     -45.329  -3.030  10.849  1.00  0.00     0.216 C 
HETATM   10  C   UNL     1     -44.809  -1.606  10.674  1.00  0.00     0.037 C 
HETATM   11  C   UNL     1     -45.428  -0.757  11.785  1.00  0.00     0.036 C 
HETATM   12  C   UNL     1     -45.702  -1.730  12.908  1.00  0.00     0.151 C 
BRANCH   9  13
HETATM   13  N   UNL     1     -44.266  -4.046  10.799  1.00  0.00    -0.073 N 
ATOM     14  HN3 UNL     1     -43.869  -4.110   9.862  1.00  0.00     0.274 HD
ATOM     15  HN2 UNL     1     -43.440  -3.732  11.309  1.00  0.00     0.274 HD
ATOM     16  HN1 UNL     1     -44.570  -4.962  11.129  1.00  0.00     0.274 HD
ENDBRANCH   9  13
BRANCH  12  17
HETATM   17  O   UNL     1     -44.630  -1.853  13.828  1.00  0.00    -0.393 OA
ATOM     18  HO  UNL     1     -43.844  -1.393  13.561  1.00  0.00     0.210 HD
ENDBRANCH  12  17
ENDBRANCH   5   8
ENDBRANCH   4   5
ENDBRANCH   3   4
ENDBRANCH   1   3
BRANCH   2  19
HETATM   19  C   UNL     1     -49.667  -1.537  10.520  1.00  0.00     0.004 C 
HETATM   20  C   UNL     1     -48.671  -0.869   9.983  1.00  0.00     0.055 C 
BRANCH  20  21
HETATM   21  C   UNL     1     -48.720  -0.131   8.631  1.00  0.00     0.178 C 
HETATM   22  O   UNL     1     -49.465  -0.489   7.732  1.00  0.00    -0.288 OA
BRANCH  21  23
HETATM   23  C   UNL     1     -47.882   1.115   8.352  1.00  0.00    -0.001 C 
HETATM   24  C   UNL     1     -46.374   1.115   8.535  1.00  0.00    -0.038 C 
HETATM   25  C   UNL     1     -45.825   1.949   9.693  1.00  0.00     0.040 C 
HETATM   26  C   UNL     1     -46.665   3.158  10.129  1.00  0.00     0.005 C 
HETATM   27  C   UNL     1     -47.675   3.609   9.052  1.00  0.00     0.005 C 
HETATM   28  C   UNL     1     -48.581   2.449   8.603  1.00  0.00     0.043 C 
BRANCH  24  29
HETATM   29  C   UNL     1     -45.455   0.712   7.398  1.00  0.00    -0.029 C 
HETATM   30  C   UNL     1     -45.181  -0.632   7.069  1.00  0.00     0.012 C 
HETATM   31  C   UNL     1     -44.285  -0.953   6.044  1.00  0.00     0.001 C 
HETATM   32  C   UNL     1     -43.524   0.055   5.440  1.00  0.00     0.000 C 
HETATM   33  C   UNL     1     -43.684   1.381   5.834  1.00  0.00     0.001 C 
HETATM   34  C   UNL     1     -44.715   1.709   6.718  1.00  0.00     0.012 C 
ENDBRANCH  24  29
ENDBRANCH  21  23
ENDBRANCH  20  21
ENDBRANCH   2  19
TORSDOF 10
ENDMDL
MODEL 8
REMARK VINA RESULT:      -8.1      2.482      6.612
REMARK  10 active torsions:
REMARK  status: ('A' for Active; 'I' for Inactive)
REMARK    1  A    between atoms: C_1  and  C_31 
REMARK    2  A    between atoms: C_2  and  C_5 
REMARK    3  A    between atoms: C_3  and  N_28 
REMARK    4  A    between atoms: C_3  and  C_31 
REMARK    5  A    between atoms: C_4  and  N_12 
REMARK    6  A    between atoms: C_6  and  C_10 
REMARK    7  A    between atoms: C_16  and  C_23 
REMARK    8  A    between atoms: C_16  and  C_24 
REMARK    9  A    between atoms: C_21  and  N_28 
REMARK   10  A    between atoms: C_25  and  O_32 
ROOT
HETATM    1  C   UNL     1     -49.416  -2.223  12.230  1.00  0.00    -0.025 C 
HETATM    2  C   UNL     1     -49.970  -1.894  11.098  1.00  0.00    -0.004 C 
ENDROOT
BRANCH   1   3
HETATM    3  C   UNL     1     -49.062  -3.399  13.110  1.00  0.00     0.054 C 
BRANCH   3   4
HETATM    4  C   UNL     1     -47.549  -3.375  13.321  1.00  0.00     0.236 C 
BRANCH   4   5
HETATM    5  N   UNL     1     -46.930  -2.237  12.643  1.00  0.00    -0.066 N 
ATOM      6  HN2 UNL     1     -47.625  -1.721  12.104  1.00  0.00     0.277 HD
ATOM      7  HN1 UNL     1     -46.665  -1.519  13.318  1.00  0.00     0.277 HD
BRANCH   5   8
HETATM    8  C   UNL     1     -45.808  -2.586  11.813  1.00  0.00     0.244 C 
HETATM    9  C   UNL     1     -44.678  -1.638  11.462  1.00  0.00     0.216 C 
HETATM   10  C   UNL     1     -44.000  -2.257  10.242  1.00  0.00     0.037 C 
HETATM   11  C   UNL     1     -44.546  -3.677  10.092  1.00  0.00     0.036 C 
HETATM   12  C   UNL     1     -45.920  -3.632  10.719  1.00  0.00     0.151 C 
BRANCH   9  13
HETATM   13  N   UNL     1     -45.218  -0.293  11.204  1.00  0.00    -0.073 N 
ATOM     14  HN3 UNL     1     -45.702   0.067  12.025  1.00  0.00     0.274 HD
ATOM     15  HN2 UNL     1     -44.467   0.393  11.138  1.00  0.00     0.274 HD
ATOM     16  HN1 UNL     1     -45.819  -0.253  10.381  1.00  0.00     0.274 HD
ENDBRANCH   9  13
BRANCH  12  17
HETATM   17  O   UNL     1     -46.954  -3.316   9.802  1.00  0.00    -0.393 OA
ATOM     18  HO  UNL     1     -47.818  -3.575  10.098  1.00  0.00     0.210 HD
ENDBRANCH  12  17
ENDBRANCH   5   8
ENDBRANCH   4   5
ENDBRANCH   3   4
ENDBRANCH   1   3
BRANCH   2  19
HETATM   19  C   UNL     1     -49.524  -1.096   9.916  1.00  0.00     0.004 C 
HETATM   20  C   UNL     1     -48.525  -0.243   9.875  1.00  0.00     0.055 C 
BRANCH  20  21
HETATM   21  C   UNL     1     -47.556  -0.063   8.690  1.00  0.00     0.178 C 
HETATM   22  O   UNL     1     -47.169  -1.015   8.029  1.00  0.00    -0.288 OA
BRANCH  21  23
HETATM   23  C   UNL     1     -47.063   1.311   8.241  1.00  0.00    -0.001 C 
HETATM   24  C   UNL     1     -45.582   1.634   8.155  1.00  0.00    -0.038 C 
HETATM   25  C   UNL     1     -45.038   2.630   9.181  1.00  0.00     0.040 C 
HETATM   26  C   UNL     1     -46.032   3.661   9.732  1.00  0.00     0.005 C 
HETATM   27  C   UNL     1     -47.281   3.829   8.842  1.00  0.00     0.005 C 
HETATM   28  C   UNL     1     -47.980   2.483   8.583  1.00  0.00     0.043 C 
BRANCH  24  29
HETATM   29  C   UNL     1     -44.802   1.366   6.884  1.00  0.00    -0.029 C 
HETATM   30  C   UNL     1     -44.332   0.085   6.524  1.00  0.00     0.012 C 
HETATM   31  C   UNL     1     -43.572  -0.104   5.365  1.00  0.00     0.001 C 
HETATM   32  C   UNL     1     -43.129   1.004   4.633  1.00  0.00     0.000 C 
HETATM   33  C   UNL     1     -43.473   2.291   5.038  1.00  0.00     0.001 C 
HETATM   34  C   UNL     1     -44.389   2.455   6.080  1.00  0.00     0.012 C 
ENDBRANCH  24  29
ENDBRANCH  21  23
ENDBRANCH  20  21
ENDBRANCH   2  19
TORSDOF 10
ENDMDL
MODEL 9
REMARK VINA RESULT:      -7.9      2.193      3.115
REMARK  10 active torsions:
REMARK  status: ('A' for Active; 'I' for Inactive)
REMARK    1  A    between atoms: C_1  and  C_31 
REMARK    2  A    between atoms: C_2  and  C_5 
REMARK    3  A    between atoms: C_3  and  N_28 
REMARK    4  A    between atoms: C_3  and  C_31 
REMARK    5  A    between atoms: C_4  and  N_12 
REMARK    6  A    between atoms: C_6  and  C_10 
REMARK    7  A    between atoms: C_16  and  C_23 
REMARK    8  A    between atoms: C_16  and  C_24 
REMARK    9  A    between atoms: C_21  and  N_28 
REMARK   10  A    between atoms: C_25  and  O_32 
ROOT
HETATM    1  C   UNL     1     -44.299   0.679   7.390  1.00  0.00    -0.025 C 
HETATM    2  C   UNL     1     -43.654  -0.422   7.654  1.00  0.00    -0.004 C 
ENDROOT
BRANCH   1   3
HETATM    3  C   UNL     1     -44.589   1.682   6.297  1.00  0.00     0.054 C 
BRANCH   3   4
HETATM    4  C   UNL     1     -43.508   2.758   6.362  1.00  0.00     0.236 C 
BRANCH   4   5
HETATM    5  N   UNL     1     -43.521   3.605   5.170  1.00  0.00    -0.066 N 
ATOM      6  HN2 UNL     1     -44.250   4.315   5.243  1.00  0.00     0.277 HD
ATOM      7  HN1 UNL     1     -42.696   4.206   5.150  1.00  0.00     0.277 HD
BRANCH   5   8
HETATM    8  C   UNL     1     -43.646   2.880   3.934  1.00  0.00     0.244 C 
HETATM    9  C   UNL     1     -42.518   2.105   3.281  1.00  0.00     0.216 C 
HETATM   10  C   UNL     1     -42.955   1.909   1.831  1.00  0.00     0.037 C 
HETATM   11  C   UNL     1     -44.430   2.301   1.744  1.00  0.00     0.036 C 
HETATM   12  C   UNL     1     -44.630   3.302   2.858  1.00  0.00     0.151 C 
BRANCH   9  13
HETATM   13  N   UNL     1     -41.258   2.855   3.410  1.00  0.00    -0.073 N 
ATOM     14  HN3 UNL     1     -40.857   3.052   2.493  1.00  0.00     0.274 HD
ATOM     15  HN2 UNL     1     -41.434   3.809   3.724  1.00  0.00     0.274 HD
ATOM     16  HN1 UNL     1     -40.577   2.394   4.013  1.00  0.00     0.274 HD
ENDBRANCH   9  13
BRANCH  12  17
HETATM   17  O   UNL     1     -44.421   4.646   2.461  1.00  0.00    -0.393 OA
ATOM     18  HO  UNL     1     -44.943   4.908   1.712  1.00  0.00     0.210 HD
ENDBRANCH  12  17
ENDBRANCH   5   8
ENDBRANCH   4   5
ENDBRANCH   3   4
ENDBRANCH   1   3
BRANCH   2  19
HETATM   19  C   UNL     1     -44.054  -1.751   8.207  1.00  0.00     0.004 C 
HETATM   20  C   UNL     1     -43.885  -2.174   9.440  1.00  0.00     0.055 C 
BRANCH  20  21
HETATM   21  C   UNL     1     -44.894  -3.027  10.234  1.00  0.00     0.178 C 
HETATM   22  O   UNL     1     -44.529  -3.927  10.975  1.00  0.00    -0.288 OA
BRANCH  21  23
HETATM   23  C   UNL     1     -46.398  -2.769  10.182  1.00  0.00    -0.001 C 
HETATM   24  C   UNL     1     -47.015  -1.535  10.817  1.00  0.00    -0.038 C 
HETATM   25  C   UNL     1     -47.879  -1.763  12.059  1.00  0.00     0.040 C 
HETATM   26  C   UNL     1     -48.569  -3.129  12.175  1.00  0.00     0.005 C 
HETATM   27  C   UNL     1     -48.660  -3.875  10.826  1.00  0.00     0.005 C 
HETATM   28  C   UNL     1     -47.280  -4.017  10.162  1.00  0.00     0.043 C 
BRANCH  24  29
HETATM   29  C   UNL     1     -47.157  -0.247  10.030  1.00  0.00    -0.029 C 
HETATM   30  C   UNL     1     -46.551   0.965  10.422  1.00  0.00     0.012 C 
HETATM   31  C   UNL     1     -46.754   2.140   9.691  1.00  0.00     0.001 C 
HETATM   32  C   UNL     1     -47.693   2.163   8.653  1.00  0.00     0.000 C 
HETATM   33  C   UNL     1     -48.400   1.009   8.326  1.00  0.00     0.001 C 
HETATM   34  C   UNL     1     -48.049  -0.200   8.932  1.00  0.00     0.012 C 
ENDBRANCH  24  29
ENDBRANCH  21  23
ENDBRANCH  20  21
ENDBRANCH   2  19
TORSDOF 10
ENDMDL
