MODEL 1
REMARK VINA RESULT:      -8.7      0.000      0.000
REMARK  7 active torsions:
REMARK  status: ('A' for Active; 'I' for Inactive)
REMARK    1  A    between atoms: O_1  and  C_12 
REMARK    2  A    between atoms: C_3  and  O_23 
REMARK    3  A    between atoms: C_4  and  O_5 
REMARK    4  A    between atoms: O_5  and  C_27 
REMARK    5  A    between atoms: O_6  and  C_13 
REMARK    6  A    between atoms: C_9  and  N_28 
REMARK    7  A    between atoms: C_20  and  N_28 
ROOT
HETATM    1  C   UNL     1       2.411 -15.079  59.318  1.00  0.00     0.149 A 
HETATM    2  C   UNL     1       3.666 -11.199  58.436  1.00  0.00     0.035 A 
HETATM    3  N   UNL     1       3.506 -14.790  58.554  1.00  0.00    -0.336 N 
ATOM      4  HN  UNL     1       4.100 -15.442  58.043  1.00  0.00     0.168 HD
HETATM    5  C   UNL     1       1.790 -13.963  59.856  1.00  0.00     0.070 A 
HETATM    6  C   UNL     1       3.625 -13.427  58.628  1.00  0.00     0.046 A 
HETATM    7  C   UNL     1       2.549 -11.487  59.270  1.00  0.00     0.043 A 
HETATM    8  C   UNL     1       4.406 -12.377  58.081  1.00  0.00     0.059 A 
HETATM    9  C   UNL     1       2.541 -12.897  59.352  1.00  0.00    -0.003 A 
ENDROOT
BRANCH   2  10
HETATM   10  N   UNL     1       3.930  -9.968  57.887  1.00  0.00    -0.356 N 
ATOM     11  HN  UNL     1       3.369  -9.628  57.106  1.00  0.00     0.166 HD
BRANCH  10  12
HETATM   12  C   UNL     1       4.968  -9.180  58.394  1.00  0.00     0.035 C 
HETATM   13  C   UNL     1       5.642  -8.286  57.576  1.00  0.00     0.032 C 
HETATM   14  C   UNL     1       6.873  -7.794  57.971  1.00  0.00     0.041 C 
HETATM   15  C   UNL     1       7.434  -8.300  59.135  1.00  0.00     0.098 C 
HETATM   16  C   UNL     1       6.596  -8.867  60.108  1.00  0.00     0.100 C 
HETATM   17  C   UNL     1       5.320  -9.280  59.736  1.00  0.00     0.069 C 
BRANCH  15  18
HETATM   18  O   UNL     1       8.704  -8.807  59.059  1.00  0.00    -0.358 OA
ATOM     19  HO  UNL     1       9.262  -8.657  59.814  1.00  0.00     0.217 HD
ENDBRANCH  15  18
BRANCH  16  20
HETATM   20  O   UNL     1       6.946  -8.687  61.418  1.00  0.00    -0.358 OA
ATOM     21  HO  UNL     1       7.430  -9.388  61.839  1.00  0.00     0.217 HD
ENDBRANCH  16  20
ENDBRANCH  10  12
ENDBRANCH   2  10
BRANCH   1  22
HETATM   22  O   UNL     1       1.976 -16.360  59.498  1.00  0.00    -0.294 OA
BRANCH  22  23
HETATM   23  C   UNL     1       1.837 -17.059  60.673  1.00  0.00     0.080 C 
HETATM   24  C   UNL     1       2.959 -17.081  61.482  1.00  0.00     0.037 C 
HETATM   25  C   UNL     1       3.017 -17.603  62.747  1.00  0.00     0.003 C 
HETATM   26  C   UNL     1       2.237 -18.558  63.312  1.00  0.00     0.003 C 
HETATM   27  C   UNL     1       1.055 -19.082  62.873  1.00  0.00     0.036 C 
HETATM   28  C   UNL     1       0.227 -18.520  61.920  1.00  0.00     0.068 C 
HETATM   29  C   UNL     1       0.603 -17.491  61.090  1.00  0.00     0.073 C 
BRANCH  28  30
HETATM   30  O   UNL     1      -1.018 -19.068  61.800  1.00  0.00    -0.361 OA
ATOM     31  HO  UNL     1      -1.615 -18.745  61.135  1.00  0.00     0.217 HD
ENDBRANCH  28  30
ENDBRANCH  22  23
ENDBRANCH   1  22
TORSDOF 7
ENDMDL
MODEL 2
REMARK VINA RESULT:      -8.5      1.647      9.163
REMARK  7 active torsions:
REMARK  status: ('A' for Active; 'I' for Inactive)
REMARK    1  A    between atoms: O_1  and  C_12 
REMARK    2  A    between atoms: C_3  and  O_23 
REMARK    3  A    between atoms: C_4  and  O_5 
REMARK    4  A    between atoms: O_5  and  C_27 
REMARK    5  A    between atoms: O_6  and  C_13 
REMARK    6  A    between atoms: C_9  and  N_28 
REMARK    7  A    between atoms: C_20  and  N_28 
ROOT
HETATM    1  C   UNL     1       3.312 -11.267  58.858  1.00  0.00     0.149 A 
HETATM    2  C   UNL     1       2.842 -15.381  59.371  1.00  0.00     0.035 A 
HETATM    3  N   UNL     1       4.157 -12.200  58.328  1.00  0.00    -0.336 N 
ATOM      4  HN  UNL     1       5.029 -12.038  57.825  1.00  0.00     0.168 HD
HETATM    5  C   UNL     1       2.221 -11.807  59.520  1.00  0.00     0.070 A 
HETATM    6  C   UNL     1       3.571 -13.402  58.625  1.00  0.00     0.046 A 
HETATM    7  C   UNL     1       1.931 -14.420  59.892  1.00  0.00     0.043 A 
HETATM    8  C   UNL     1       3.831 -14.791  58.513  1.00  0.00     0.059 A 
HETATM    9  C   UNL     1       2.430 -13.186  59.422  1.00  0.00    -0.003 A 
ENDROOT
BRANCH   2  10
HETATM   10  N   UNL     1       2.892 -16.698  59.759  1.00  0.00    -0.356 N 
ATOM     11  HN  UNL     1       3.372 -17.382  59.175  1.00  0.00     0.166 HD
BRANCH  10  12
HETATM   12  C   UNL     1       2.287 -17.102  60.953  1.00  0.00     0.035 C 
HETATM   13  C   UNL     1       3.019 -17.168  62.129  1.00  0.00     0.032 C 
HETATM   14  C   UNL     1       2.531 -17.900  63.196  1.00  0.00     0.041 C 
HETATM   15  C   UNL     1       1.366 -18.630  63.007  1.00  0.00     0.098 C 
HETATM   16  C   UNL     1       0.472 -18.243  61.997  1.00  0.00     0.100 C 
HETATM   17  C   UNL     1       0.935 -17.428  60.968  1.00  0.00     0.069 C 
BRANCH  15  18
HETATM   18  O   UNL     1       1.398 -19.967  63.308  1.00  0.00    -0.358 OA
ATOM     19  HO  UNL     1       1.150 -20.204  64.194  1.00  0.00     0.217 HD
ENDBRANCH  15  18
BRANCH  16  20
HETATM   20  O   UNL     1      -0.862 -18.410  62.244  1.00  0.00    -0.358 OA
ATOM     21  HO  UNL     1      -1.447 -17.717  61.962  1.00  0.00     0.217 HD
ENDBRANCH  16  20
ENDBRANCH  10  12
ENDBRANCH   2  10
BRANCH   1  22
HETATM   22  O   UNL     1       3.559  -9.928  58.753  1.00  0.00    -0.294 OA
BRANCH  22  23
HETATM   23  C   UNL     1       4.609  -9.209  59.271  1.00  0.00     0.080 C 
HETATM   24  C   UNL     1       5.519  -8.742  58.340  1.00  0.00     0.037 C 
HETATM   25  C   UNL     1       6.568  -7.902  58.606  1.00  0.00     0.003 C 
HETATM   26  C   UNL     1       7.224  -7.702  59.775  1.00  0.00     0.003 C 
HETATM   27  C   UNL     1       6.881  -8.090  61.039  1.00  0.00     0.036 C 
HETATM   28  C   UNL     1       5.623  -8.489  61.447  1.00  0.00     0.068 C 
HETATM   29  C   UNL     1       4.602  -8.805  60.582  1.00  0.00     0.073 C 
BRANCH  28  30
HETATM   30  O   UNL     1       5.430  -8.601  62.794  1.00  0.00    -0.361 OA
ATOM     31  HO  UNL     1       4.729  -9.149  63.128  1.00  0.00     0.217 HD
ENDBRANCH  28  30
ENDBRANCH  22  23
ENDBRANCH   1  22
TORSDOF 7
ENDMDL
MODEL 3
REMARK VINA RESULT:      -8.1      1.664      9.193
REMARK  7 active torsions:
REMARK  status: ('A' for Active; 'I' for Inactive)
REMARK    1  A    between atoms: O_1  and  C_12 
REMARK    2  A    between atoms: C_3  and  O_23 
REMARK    3  A    between atoms: C_4  and  O_5 
REMARK    4  A    between atoms: O_5  and  C_27 
REMARK    5  A    between atoms: O_6  and  C_13 
REMARK    6  A    between atoms: C_9  and  N_28 
REMARK    7  A    between atoms: C_20  and  N_28 
ROOT
HETATM    1  C   UNL     1       2.974 -11.451  58.787  1.00  0.00     0.149 A 
HETATM    2  C   UNL     1       2.142 -15.532  59.034  1.00  0.00     0.035 A 
HETATM    3  N   UNL     1       3.879 -12.430  58.489  1.00  0.00    -0.336 N 
ATOM      4  HN  UNL     1       4.865 -12.319  58.255  1.00  0.00     0.168 HD
HETATM    5  C   UNL     1       1.711 -11.928  59.101  1.00  0.00     0.070 A 
HETATM    6  C   UNL     1       3.164 -13.596  58.577  1.00  0.00     0.046 A 
HETATM    7  C   UNL     1       1.178 -14.521  59.305  1.00  0.00     0.043 A 
HETATM    8  C   UNL     1       3.364 -14.998  58.504  1.00  0.00     0.059 A 
HETATM    9  C   UNL     1       1.860 -13.316  59.028  1.00  0.00    -0.003 A 
ENDROOT
BRANCH   2  10
HETATM   10  N   UNL     1       2.004 -16.853  59.385  1.00  0.00    -0.356 N 
ATOM     11  HN  UNL     1       2.147 -17.582  58.686  1.00  0.00     0.166 HD
BRANCH  10  12
HETATM   12  C   UNL     1       1.669 -17.201  60.697  1.00  0.00     0.035 C 
HETATM   13  C   UNL     1       2.605 -17.103  61.714  1.00  0.00     0.032 C 
HETATM   14  C   UNL     1       2.394 -17.779  62.903  1.00  0.00     0.041 C 
HETATM   15  C   UNL     1       1.291 -18.617  62.990  1.00  0.00     0.098 C 
HETATM   16  C   UNL     1       0.195 -18.395  62.142  1.00  0.00     0.100 C 
HETATM   17  C   UNL     1       0.381 -17.637  60.990  1.00  0.00     0.069 C 
BRANCH  15  18
HETATM   18  O   UNL     1       1.509 -19.915  63.371  1.00  0.00    -0.358 OA
ATOM     19  HO  UNL     1       0.734 -20.447  63.509  1.00  0.00     0.217 HD
ENDBRANCH  15  18
BRANCH  16  20
HETATM   20  O   UNL     1      -1.049 -18.650  62.648  1.00  0.00    -0.358 OA
ATOM     21  HO  UNL     1      -1.601 -19.252  62.162  1.00  0.00     0.217 HD
ENDBRANCH  16  20
ENDBRANCH  10  12
ENDBRANCH   2  10
BRANCH   1  22
HETATM   22  O   UNL     1       3.317 -10.130  58.791  1.00  0.00    -0.294 OA
BRANCH  22  23
HETATM   23  C   UNL     1       4.444  -9.541  59.312  1.00  0.00     0.080 C 
HETATM   24  C   UNL     1       4.291  -8.980  60.567  1.00  0.00     0.037 C 
HETATM   25  C   UNL     1       5.298  -8.454  61.331  1.00  0.00     0.003 C 
HETATM   26  C   UNL     1       6.495  -7.952  60.937  1.00  0.00     0.003 C 
HETATM   27  C   UNL     1       7.116  -8.047  59.724  1.00  0.00     0.036 C 
HETATM   28  C   UNL     1       6.811  -8.956  58.729  1.00  0.00     0.068 C 
HETATM   29  C   UNL     1       5.667  -9.717  58.713  1.00  0.00     0.073 C 
BRANCH  28  30
HETATM   30  O   UNL     1       7.702  -9.049  57.699  1.00  0.00    -0.361 OA
ATOM     31  HO  UNL     1       8.217  -9.840  57.589  1.00  0.00     0.217 HD
ENDBRANCH  28  30
ENDBRANCH  22  23
ENDBRANCH   1  22
TORSDOF 7
ENDMDL
MODEL 4
REMARK VINA RESULT:      -7.9      3.224      9.563
REMARK  7 active torsions:
REMARK  status: ('A' for Active; 'I' for Inactive)
REMARK    1  A    between atoms: O_1  and  C_12 
REMARK    2  A    between atoms: C_3  and  O_23 
REMARK    3  A    between atoms: C_4  and  O_5 
REMARK    4  A    between atoms: O_5  and  C_27 
REMARK    5  A    between atoms: O_6  and  C_13 
REMARK    6  A    between atoms: C_9  and  N_28 
REMARK    7  A    between atoms: C_20  and  N_28 
ROOT
HETATM    1  C   UNL     1       4.017 -14.210  56.323  1.00  0.00     0.149 A 
HETATM    2  C   UNL     1       1.650 -15.759  59.391  1.00  0.00     0.035 A 
HETATM    3  N   UNL     1       4.516 -14.675  57.507  1.00  0.00    -0.336 N 
ATOM      4  HN  UNL     1       5.481 -14.639  57.835  1.00  0.00     0.168 HD
HETATM    5  C   UNL     1       2.647 -14.375  56.186  1.00  0.00     0.070 A 
HETATM    6  C   UNL     1       3.429 -15.200  58.154  1.00  0.00     0.046 A 
HETATM    7  C   UNL     1       1.123 -15.318  58.145  1.00  0.00     0.043 A 
HETATM    8  C   UNL     1       3.086 -15.774  59.406  1.00  0.00     0.059 A 
HETATM    9  C   UNL     1       2.266 -14.955  57.400  1.00  0.00    -0.003 A 
ENDROOT
BRANCH   2  10
HETATM   10  N   UNL     1       0.899 -15.992  60.517  1.00  0.00    -0.356 N 
ATOM     11  HN  UNL     1       0.266 -15.271  60.864  1.00  0.00     0.166 HD
BRANCH  10  12
HETATM   12  C   UNL     1       0.998 -17.214  61.188  1.00  0.00     0.035 C 
HETATM   13  C   UNL     1       0.011 -18.178  61.051  1.00  0.00     0.032 C 
HETATM   14  C   UNL     1      -0.075 -19.203  61.976  1.00  0.00     0.041 C 
HETATM   15  C   UNL     1       0.776 -19.166  63.072  1.00  0.00     0.098 C 
HETATM   16  C   UNL     1       1.977 -18.445  62.981  1.00  0.00     0.100 C 
HETATM   17  C   UNL     1       2.104 -17.475  61.991  1.00  0.00     0.069 C 
BRANCH  15  18
HETATM   18  O   UNL     1       0.211 -19.247  64.317  1.00  0.00    -0.358 OA
ATOM     19  HO  UNL     1       0.787 -19.068  65.051  1.00  0.00     0.217 HD
ENDBRANCH  15  18
BRANCH  16  20
HETATM   20  O   UNL     1       3.061 -18.950  63.643  1.00  0.00    -0.358 OA
ATOM     21  HO  UNL     1       3.796 -18.365  63.785  1.00  0.00     0.217 HD
ENDBRANCH  16  20
ENDBRANCH  10  12
ENDBRANCH   2  10
BRANCH   1  22
HETATM   22  O   UNL     1       4.814 -13.617  55.388  1.00  0.00    -0.294 OA
BRANCH  22  23
HETATM   23  C   UNL     1       5.343 -12.349  55.394  1.00  0.00     0.080 C 
HETATM   24  C   UNL     1       4.576 -11.394  56.038  1.00  0.00     0.037 C 
HETATM   25  C   UNL     1       4.955 -10.100  56.279  1.00  0.00     0.003 C 
HETATM   26  C   UNL     1       5.865  -9.341  55.619  1.00  0.00     0.003 C 
HETATM   27  C   UNL     1       6.807  -9.718  54.705  1.00  0.00     0.036 C 
HETATM   28  C   UNL     1       7.259 -11.007  54.495  1.00  0.00     0.068 C 
HETATM   29  C   UNL     1       6.635 -12.126  54.991  1.00  0.00     0.073 C 
BRANCH  28  30
HETATM   30  O   UNL     1       8.371 -11.139  53.713  1.00  0.00    -0.361 OA
ATOM     31  HO  UNL     1       9.131 -10.593  53.876  1.00  0.00     0.217 HD
ENDBRANCH  28  30
ENDBRANCH  22  23
ENDBRANCH   1  22
TORSDOF 7
ENDMDL
MODEL 5
REMARK VINA RESULT:      -7.9      1.979      9.269
REMARK  7 active torsions:
REMARK  status: ('A' for Active; 'I' for Inactive)
REMARK    1  A    between atoms: O_1  and  C_12 
REMARK    2  A    between atoms: C_3  and  O_23 
REMARK    3  A    between atoms: C_4  and  O_5 
REMARK    4  A    between atoms: O_5  and  C_27 
REMARK    5  A    between atoms: O_6  and  C_13 
REMARK    6  A    between atoms: C_9  and  N_28 
REMARK    7  A    between atoms: C_20  and  N_28 
ROOT
HETATM    1  C   UNL     1       3.939 -12.735  57.647  1.00  0.00     0.149 A 
HETATM    2  C   UNL     1       1.299 -15.313  59.594  1.00  0.00     0.035 A 
HETATM    3  N   UNL     1       4.277 -13.490  58.734  1.00  0.00    -0.336 N 
ATOM      4  HN  UNL     1       5.153 -13.475  59.256  1.00  0.00     0.168 HD
HETATM    5  C   UNL     1       2.653 -12.962  57.183  1.00  0.00     0.070 A 
HETATM    6  C   UNL     1       3.175 -14.270  58.966  1.00  0.00     0.046 A 
HETATM    7  C   UNL     1       0.947 -14.565  58.435  1.00  0.00     0.043 A 
HETATM    8  C   UNL     1       2.697 -15.216  59.908  1.00  0.00     0.059 A 
HETATM    9  C   UNL     1       2.144 -13.905  58.080  1.00  0.00    -0.003 A 
ENDROOT
BRANCH   2  10
HETATM   10  N   UNL     1       0.397 -15.931  60.426  1.00  0.00    -0.356 N 
ATOM     11  HN  UNL     1      -0.516 -15.506  60.591  1.00  0.00     0.166 HD
BRANCH  10  12
HETATM   12  C   UNL     1       0.727 -17.139  61.048  1.00  0.00     0.035 C 
HETATM   13  C   UNL     1      -0.132 -18.225  60.980  1.00  0.00     0.032 C 
HETATM   14  C   UNL     1       0.015 -19.267  61.878  1.00  0.00     0.041 C 
HETATM   15  C   UNL     1       0.961 -19.133  62.884  1.00  0.00     0.098 C 
HETATM   16  C   UNL     1       2.039 -18.255  62.697  1.00  0.00     0.100 C 
HETATM   17  C   UNL     1       1.934 -17.260  61.728  1.00  0.00     0.069 C 
BRANCH  15  18
HETATM   18  O   UNL     1       0.542 -19.310  64.177  1.00  0.00    -0.358 OA
ATOM     19  HO  UNL     1      -0.071 -20.020  64.326  1.00  0.00     0.217 HD
ENDBRANCH  15  18
BRANCH  16  20
HETATM   20  O   UNL     1       3.243 -18.618  63.233  1.00  0.00    -0.358 OA
ATOM     21  HO  UNL     1       3.684 -19.366  62.846  1.00  0.00     0.217 HD
ENDBRANCH  16  20
ENDBRANCH  10  12
ENDBRANCH   2  10
BRANCH   1  22
HETATM   22  O   UNL     1       4.802 -11.828  57.102  1.00  0.00    -0.294 OA
BRANCH  22  23
HETATM   23  C   UNL     1       5.037 -10.531  57.491  1.00  0.00     0.080 C 
HETATM   24  C   UNL     1       4.966  -9.591  56.479  1.00  0.00     0.037 C 
HETATM   25  C   UNL     1       5.038  -8.233  56.649  1.00  0.00     0.003 C 
HETATM   26  C   UNL     1       5.613  -7.530  57.656  1.00  0.00     0.003 C 
HETATM   27  C   UNL     1       6.057  -7.964  58.873  1.00  0.00     0.036 C 
HETATM   28  C   UNL     1       5.721  -9.162  59.475  1.00  0.00     0.068 C 
HETATM   29  C   UNL     1       5.102 -10.200  58.821  1.00  0.00     0.073 C 
BRANCH  28  30
HETATM   30  O   UNL     1       6.072  -9.299  60.787  1.00  0.00    -0.361 OA
ATOM     31  HO  UNL     1       5.609  -9.920  61.338  1.00  0.00     0.217 HD
ENDBRANCH  28  30
ENDBRANCH  22  23
ENDBRANCH   1  22
TORSDOF 7
ENDMDL
MODEL 6
REMARK VINA RESULT:      -7.8      1.654      2.562
REMARK  7 active torsions:
REMARK  status: ('A' for Active; 'I' for Inactive)
REMARK    1  A    between atoms: O_1  and  C_12 
REMARK    2  A    between atoms: C_3  and  O_23 
REMARK    3  A    between atoms: C_4  and  O_5 
REMARK    4  A    between atoms: O_5  and  C_27 
REMARK    5  A    between atoms: O_6  and  C_13 
REMARK    6  A    between atoms: C_9  and  N_28 
REMARK    7  A    between atoms: C_20  and  N_28 
ROOT
HETATM    1  C   UNL     1       3.753 -13.821  58.136  1.00  0.00     0.149 A 
HETATM    2  C   UNL     1       4.227  -9.720  57.533  1.00  0.00     0.035 A 
HETATM    3  N   UNL     1       3.323 -12.869  59.016  1.00  0.00    -0.336 N 
ATOM      4  HN  UNL     1       2.918 -13.011  59.941  1.00  0.00     0.168 HD
HETATM    5  C   UNL     1       4.292 -13.305  56.968  1.00  0.00     0.070 A 
HETATM    6  C   UNL     1       3.558 -11.680  58.377  1.00  0.00     0.046 A 
HETATM    7  C   UNL     1       4.640 -10.700  56.588  1.00  0.00     0.043 A 
HETATM    8  C   UNL     1       3.481 -10.285  58.622  1.00  0.00     0.059 A 
HETATM    9  C   UNL     1       4.223 -11.922  57.160  1.00  0.00    -0.003 A 
ENDROOT
BRANCH   2  10
HETATM   10  N   UNL     1       4.623  -8.404  57.514  1.00  0.00    -0.356 N 
ATOM     11  HN  UNL     1       4.235  -7.766  56.820  1.00  0.00     0.166 HD
BRANCH  10  12
HETATM   12  C   UNL     1       5.557  -7.939  58.445  1.00  0.00     0.035 C 
HETATM   13  C   UNL     1       6.589  -7.101  58.051  1.00  0.00     0.032 C 
HETATM   14  C   UNL     1       7.692  -6.946  58.871  1.00  0.00     0.041 C 
HETATM   15  C   UNL     1       7.766  -7.723  60.018  1.00  0.00     0.098 C 
HETATM   16  C   UNL     1       6.584  -8.234  60.577  1.00  0.00     0.100 C 
HETATM   17  C   UNL     1       5.444  -8.305  59.782  1.00  0.00     0.069 C 
BRANCH  15  18
HETATM   18  O   UNL     1       8.897  -8.474  60.204  1.00  0.00    -0.358 OA
ATOM     19  HO  UNL     1       9.725  -8.023  60.086  1.00  0.00     0.217 HD
ENDBRANCH  15  18
BRANCH  16  20
HETATM   20  O   UNL     1       6.524  -8.324  61.939  1.00  0.00    -0.358 OA
ATOM     21  HO  UNL     1       6.867  -7.593  62.439  1.00  0.00     0.217 HD
ENDBRANCH  16  20
ENDBRANCH  10  12
ENDBRANCH   2  10
BRANCH   1  22
HETATM   22  O   UNL     1       3.670 -15.154  58.419  1.00  0.00    -0.294 OA
BRANCH  22  23
HETATM   23  C   UNL     1       2.710 -15.816  59.145  1.00  0.00     0.080 C 
HETATM   24  C   UNL     1       1.414 -15.661  58.688  1.00  0.00     0.037 C 
HETATM   25  C   UNL     1       0.316 -16.323  59.171  1.00  0.00     0.003 C 
HETATM   26  C   UNL     1       0.125 -16.878  60.393  1.00  0.00     0.003 C 
HETATM   27  C   UNL     1       1.035 -17.140  61.377  1.00  0.00     0.036 C 
HETATM   28  C   UNL     1       2.406 -17.196  61.215  1.00  0.00     0.068 C 
HETATM   29  C   UNL     1       3.064 -16.736  60.100  1.00  0.00     0.073 C 
BRANCH  28  30
HETATM   30  O   UNL     1       3.120 -17.710  62.260  1.00  0.00    -0.361 OA
ATOM     31  HO  UNL     1       2.796 -17.609  63.148  1.00  0.00     0.217 HD
ENDBRANCH  28  30
ENDBRANCH  22  23
ENDBRANCH   1  22
TORSDOF 7
ENDMDL
MODEL 7
REMARK VINA RESULT:      -7.7      1.393      9.340
REMARK  7 active torsions:
REMARK  status: ('A' for Active; 'I' for Inactive)
REMARK    1  A    between atoms: O_1  and  C_12 
REMARK    2  A    between atoms: C_3  and  O_23 
REMARK    3  A    between atoms: C_4  and  O_5 
REMARK    4  A    between atoms: O_5  and  C_27 
REMARK    5  A    between atoms: O_6  and  C_13 
REMARK    6  A    between atoms: C_9  and  N_28 
REMARK    7  A    between atoms: C_20  and  N_28 
ROOT
HETATM    1  C   UNL     1       3.809 -10.610  58.062  1.00  0.00     0.149 A 
HETATM    2  C   UNL     1       3.259 -14.653  58.937  1.00  0.00     0.035 A 
HETATM    3  N   UNL     1       4.461 -11.622  57.417  1.00  0.00    -0.336 N 
ATOM      4  HN  UNL     1       5.202 -11.544  56.721  1.00  0.00     0.168 HD
HETATM    5  C   UNL     1       2.871 -11.043  58.986  1.00  0.00     0.070 A 
HETATM    6  C   UNL     1       3.897 -12.767  57.917  1.00  0.00     0.046 A 
HETATM    7  C   UNL     1       2.541 -13.609  59.585  1.00  0.00     0.043 A 
HETATM    8  C   UNL     1       4.054 -14.174  57.841  1.00  0.00     0.059 A 
HETATM    9  C   UNL     1       2.982 -12.436  58.934  1.00  0.00    -0.003 A 
ENDROOT
BRANCH   2  10
HETATM   10  N   UNL     1       3.329 -15.948  59.389  1.00  0.00    -0.356 N 
ATOM     11  HN  UNL     1       4.046 -16.576  59.025  1.00  0.00     0.166 HD
BRANCH  10  12
HETATM   12  C   UNL     1       2.421 -16.408  60.347  1.00  0.00     0.035 C 
HETATM   13  C   UNL     1       2.867 -17.020  61.508  1.00  0.00     0.032 C 
HETATM   14  C   UNL     1       1.991 -17.785  62.257  1.00  0.00     0.041 C 
HETATM   15  C   UNL     1       0.714 -17.992  61.755  1.00  0.00     0.098 C 
HETATM   16  C   UNL     1       0.184 -17.075  60.834  1.00  0.00     0.100 C 
HETATM   17  C   UNL     1       1.055 -16.238  60.144  1.00  0.00     0.069 C 
BRANCH  15  18
HETATM   18  O   UNL     1       0.280 -19.286  61.640  1.00  0.00    -0.358 OA
ATOM     19  HO  UNL     1      -0.400 -19.556  62.246  1.00  0.00     0.217 HD
ENDBRANCH  15  18
BRANCH  16  20
HETATM   20  O   UNL     1      -1.159 -16.827  60.901  1.00  0.00    -0.358 OA
ATOM     21  HO  UNL     1      -1.729 -17.370  60.369  1.00  0.00     0.217 HD
ENDBRANCH  16  20
ENDBRANCH  10  12
ENDBRANCH   2  10
BRANCH   1  22
HETATM   22  O   UNL     1       4.092  -9.298  57.816  1.00  0.00    -0.294 OA
BRANCH  22  23
HETATM   23  C   UNL     1       5.142  -8.547  58.288  1.00  0.00     0.080 C 
HETATM   24  C   UNL     1       5.626  -7.593  57.411  1.00  0.00     0.037 C 
HETATM   25  C   UNL     1       6.576  -6.651  57.706  1.00  0.00     0.003 C 
HETATM   26  C   UNL     1       7.542  -6.683  58.657  1.00  0.00     0.003 C 
HETATM   27  C   UNL     1       7.684  -7.532  59.718  1.00  0.00     0.036 C 
HETATM   28  C   UNL     1       6.695  -8.341  60.244  1.00  0.00     0.068 C 
HETATM   29  C   UNL     1       5.505  -8.604  59.610  1.00  0.00     0.073 C 
BRANCH  28  30
HETATM   30  O   UNL     1       6.968  -8.927  61.447  1.00  0.00    -0.361 OA
ATOM     31  HO  UNL     1       7.166  -8.385  62.202  1.00  0.00     0.217 HD
ENDBRANCH  28  30
ENDBRANCH  22  23
ENDBRANCH   1  22
TORSDOF 7
ENDMDL
MODEL 8
REMARK VINA RESULT:      -7.6      4.523      9.842
REMARK  7 active torsions:
REMARK  status: ('A' for Active; 'I' for Inactive)
REMARK    1  A    between atoms: O_1  and  C_12 
REMARK    2  A    between atoms: C_3  and  O_23 
REMARK    3  A    between atoms: C_4  and  O_5 
REMARK    4  A    between atoms: O_5  and  C_27 
REMARK    5  A    between atoms: O_6  and  C_13 
REMARK    6  A    between atoms: C_9  and  N_28 
REMARK    7  A    between atoms: C_20  and  N_28 
ROOT
HETATM    1  C   UNL     1       5.682  -8.589  55.838  1.00  0.00     0.149 A 
HETATM    2  C   UNL     1       6.349 -12.633  55.057  1.00  0.00     0.035 A 
HETATM    3  N   UNL     1       6.837  -9.078  55.297  1.00  0.00    -0.336 N 
ATOM      4  HN  UNL     1       7.695  -8.567  55.091  1.00  0.00     0.168 HD
HETATM    5  C   UNL     1       4.701  -9.549  56.032  1.00  0.00     0.070 A 
HETATM    6  C   UNL     1       6.584 -10.409  55.094  1.00  0.00     0.046 A 
HETATM    7  C   UNL     1       5.125 -12.131  55.581  1.00  0.00     0.043 A 
HETATM    8  C   UNL     1       7.252 -11.586  54.670  1.00  0.00     0.059 A 
HETATM    9  C   UNL     1       5.315 -10.732  55.610  1.00  0.00    -0.003 A 
ENDROOT
BRANCH   2  10
HETATM   10  N   UNL     1       6.715 -13.957  55.065  1.00  0.00    -0.356 N 
ATOM     11  HN  UNL     1       7.700 -14.214  55.002  1.00  0.00     0.166 HD
BRANCH  10  12
HETATM   12  C   UNL     1       5.739 -14.955  55.158  1.00  0.00     0.035 C 
HETATM   13  C   UNL     1       5.115 -15.440  54.020  1.00  0.00     0.032 C 
HETATM   14  C   UNL     1       3.925 -16.136  54.139  1.00  0.00     0.041 C 
HETATM   15  C   UNL     1       3.348 -16.232  55.397  1.00  0.00     0.098 C 
HETATM   16  C   UNL     1       4.160 -16.095  56.534  1.00  0.00     0.100 C 
HETATM   17  C   UNL     1       5.401 -15.478  56.402  1.00  0.00     0.069 C 
BRANCH  15  18
HETATM   18  O   UNL     1       2.046 -15.828  55.531  1.00  0.00    -0.358 OA
ATOM     19  HO  UNL     1       1.461 -16.054  54.818  1.00  0.00     0.217 HD
ENDBRANCH  15  18
BRANCH  16  20
HETATM   20  O   UNL     1       3.842 -16.855  57.625  1.00  0.00    -0.358 OA
ATOM     21  HO  UNL     1       4.562 -17.230  58.119  1.00  0.00     0.217 HD
ENDBRANCH  16  20
ENDBRANCH  10  12
ENDBRANCH   2  10
BRANCH   1  22
HETATM   22  O   UNL     1       5.543  -7.273  56.173  1.00  0.00    -0.294 OA
BRANCH  22  23
HETATM   23  C   UNL     1       6.080  -6.602  57.245  1.00  0.00     0.080 C 
HETATM   24  C   UNL     1       6.927  -5.557  56.924  1.00  0.00     0.037 C 
HETATM   25  C   UNL     1       7.474  -4.673  57.816  1.00  0.00     0.003 C 
HETATM   26  C   UNL     1       7.709  -4.836  59.141  1.00  0.00     0.003 C 
HETATM   27  C   UNL     1       7.260  -5.809  59.988  1.00  0.00     0.036 C 
HETATM   28  C   UNL     1       6.198  -6.660  59.748  1.00  0.00     0.068 C 
HETATM   29  C   UNL     1       5.612  -6.825  58.516  1.00  0.00     0.073 C 
BRANCH  28  30
HETATM   30  O   UNL     1       5.756  -7.392  60.813  1.00  0.00    -0.361 OA
ATOM     31  HO  UNL     1       6.317  -7.512  61.570  1.00  0.00     0.217 HD
ENDBRANCH  28  30
ENDBRANCH  22  23
ENDBRANCH   1  22
TORSDOF 7
ENDMDL
MODEL 9
REMARK VINA RESULT:      -7.6      1.754      9.421
REMARK  7 active torsions:
REMARK  status: ('A' for Active; 'I' for Inactive)
REMARK    1  A    between atoms: O_1  and  C_12 
REMARK    2  A    between atoms: C_3  and  O_23 
REMARK    3  A    between atoms: C_4  and  O_5 
REMARK    4  A    between atoms: O_5  and  C_27 
REMARK    5  A    between atoms: O_6  and  C_13 
REMARK    6  A    between atoms: C_9  and  N_28 
REMARK    7  A    between atoms: C_20  and  N_28 
ROOT
HETATM    1  C   UNL     1       4.030 -10.132  57.535  1.00  0.00     0.149 A 
HETATM    2  C   UNL     1       3.581 -14.097  58.757  1.00  0.00     0.035 A 
HETATM    3  N   UNL     1       4.719 -11.178  56.990  1.00  0.00    -0.336 N 
ATOM      4  HN  UNL     1       5.467 -11.140  56.298  1.00  0.00     0.168 HD
HETATM    5  C   UNL     1       3.092 -10.510  58.484  1.00  0.00     0.070 A 
HETATM    6  C   UNL     1       4.181 -12.290  57.583  1.00  0.00     0.046 A 
HETATM    7  C   UNL     1       2.825 -13.021  59.303  1.00  0.00     0.043 A 
HETATM    8  C   UNL     1       4.378 -13.693  57.633  1.00  0.00     0.059 A 
HETATM    9  C   UNL     1       3.242 -11.898  58.556  1.00  0.00    -0.003 A 
ENDROOT
BRANCH   2  10
HETATM   10  N   UNL     1       3.681 -15.344  59.323  1.00  0.00    -0.356 N 
ATOM     11  HN  UNL     1       4.594 -15.707  59.598  1.00  0.00     0.166 HD
BRANCH  10  12
HETATM   12  C   UNL     1       2.534 -16.119  59.524  1.00  0.00     0.035 C 
HETATM   13  C   UNL     1       1.583 -16.244  58.524  1.00  0.00     0.032 C 
HETATM   14  C   UNL     1       0.312 -16.689  58.842  1.00  0.00     0.041 C 
HETATM   15  C   UNL     1       0.011 -16.897  60.181  1.00  0.00     0.098 C 
HETATM   16  C   UNL     1       1.054 -17.146  61.086  1.00  0.00     0.100 C 
HETATM   17  C   UNL     1       2.351 -16.784  60.731  1.00  0.00     0.069 C 
BRANCH  15  18
HETATM   18  O   UNL     1      -1.094 -16.266  60.689  1.00  0.00    -0.358 OA
ATOM     19  HO  UNL     1      -1.701 -15.907  60.053  1.00  0.00     0.217 HD
ENDBRANCH  15  18
BRANCH  16  20
HETATM   20  O   UNL     1       0.800 -18.014  62.111  1.00  0.00    -0.358 OA
ATOM     21  HO  UNL     1       0.705 -17.644  62.981  1.00  0.00     0.217 HD
ENDBRANCH  16  20
ENDBRANCH  10  12
ENDBRANCH   2  10
BRANCH   1  22
HETATM   22  O   UNL     1       4.280  -8.839  57.178  1.00  0.00    -0.294 OA
BRANCH  22  23
HETATM   23  C   UNL     1       5.175  -7.957  57.733  1.00  0.00     0.080 C 
HETATM   24  C   UNL     1       5.890  -7.194  56.827  1.00  0.00     0.037 C 
HETATM   25  C   UNL     1       6.740  -6.168  57.147  1.00  0.00     0.003 C 
HETATM   26  C   UNL     1       7.414  -5.949  58.302  1.00  0.00     0.003 C 
HETATM   27  C   UNL     1       7.256  -6.541  59.523  1.00  0.00     0.036 C 
HETATM   28  C   UNL     1       6.151  -7.262  59.934  1.00  0.00     0.068 C 
HETATM   29  C   UNL     1       5.170  -7.710  59.083  1.00  0.00     0.073 C 
BRANCH  28  30
HETATM   30  O   UNL     1       6.083  -7.560  61.265  1.00  0.00    -0.361 OA
ATOM     31  HO  UNL     1       5.617  -8.336  61.552  1.00  0.00     0.217 HD
ENDBRANCH  28  30
ENDBRANCH  22  23
ENDBRANCH   1  22
TORSDOF 7
ENDMDL
