REMARK  1 active torsions:
REMARK  status: ('A' for Active; 'I' for Inactive)
REMARK    1  A    between atoms: N_10  and  C_16 
ROOT
HETATM    1  C   UNL     1     -17.040  13.725  40.753  1.00  0.00     0.045 C 
HETATM    2  C   UNL     1     -13.926  12.268  40.895  1.00  0.00     0.020 C 
HETATM    3  C   UNL     1     -14.998  11.264  38.962  1.00  0.00     0.024 C 
HETATM    4  C   UNL     1     -16.135  11.232  41.146  1.00  0.00     0.001 C 
HETATM    5  C   UNL     1     -15.293  12.071  40.232  1.00  0.00     0.017 C 
HETATM    6  C   UNL     1     -14.713   9.274  40.374  1.00  0.00     0.010 C 
HETATM    7  C   UNL     1     -15.949   9.752  41.105  1.00  0.00     0.054 C 
HETATM    8  N   UNL     1     -16.827  11.794  42.167  1.00  0.00    -0.349 N 
ATOM      9  HN  UNL     1     -16.918  11.332  43.072  1.00  0.00     0.167 HD
HETATM   10  C   UNL     1     -16.010  13.350  39.968  1.00  0.00    -0.008 C 
HETATM   11  C   UNL     1     -13.956  10.282  39.511  1.00  0.00    -0.013 C 
HETATM   12  C   UNL     1     -13.042  11.137  40.382  1.00  0.00     0.006 C 
HETATM   13  C   UNL     1     -17.387  12.992  41.925  1.00  0.00     0.098 C 
ENDROOT
BRANCH  13  14
HETATM   14  N   UNL     1     -18.304  13.522  42.720  1.00  0.00    -0.385 N 
ATOM     15  HN2 UNL     1     -18.729  14.431  42.536  1.00  0.00     0.157 HD
ATOM     16  HN1 UNL     1     -18.552  12.997  43.559  1.00  0.00     0.157 HD
ENDBRANCH  13  14
TORSDOF 1
