REMARK  5 active torsions:
REMARK  status: ('A' for Active; 'I' for Inactive)
REMARK    1  A    between atoms: O_2  and  C_14 
REMARK    2  A    between atoms: C_11  and  N_20 
REMARK    3  A    between atoms: C_12  and  C_13 
REMARK    4  A    between atoms: C_13  and  C_25 
REMARK    5  A    between atoms: O_16  and  C_23 
ROOT
HETATM    1  N   UNL     1      76.061 186.543 -27.150  1.00  0.00    -0.288 N 
ATOM      2  HN  UNL     1      76.470 187.241 -27.771  1.00  0.00     0.172 HD
HETATM    3  C   UNL     1      74.909 185.895 -27.462  1.00  0.00     0.252 C 
HETATM    4  C   UNL     1      76.637 186.214 -25.973  1.00  0.00     0.275 C 
HETATM    5  O   UNL     1      77.210 187.064 -25.291  1.00  0.00    -0.266 OA
HETATM    6  O   UNL     1      73.847 186.455 -27.112  1.00  0.00    -0.268 OA
HETATM    7  C   UNL     1      76.460 184.873 -25.490  1.00  0.00     0.105 C 
HETATM    8  C   UNL     1      76.599 183.808 -26.360  1.00  0.00     0.028 C 
HETATM    9  C   UNL     1      76.060 183.819 -27.631  1.00  0.00     0.186 C 
HETATM   10  O   UNL     1      76.584 183.089 -28.547  1.00  0.00    -0.288 OA
HETATM   11  C   UNL     1      74.970 184.613 -27.948  1.00  0.00     0.129 C 
ENDROOT
BRANCH   8  12
HETATM   12  C   UNL     1      77.126 182.461 -25.898  1.00  0.00     0.086 C 
BRANCH  12  13
HETATM   13  C   UNL     1      78.544 182.420 -25.396  1.00  0.00    -0.018 C 
HETATM   14  C   UNL     1      78.807 182.408 -24.028  1.00  0.00     0.046 C 
HETATM   15  C   UNL     1      80.110 182.215 -23.580  1.00  0.00     0.066 C 
HETATM   16  C   UNL     1      81.161 182.138 -24.492  1.00  0.00     0.039 C 
HETATM   17  C   UNL     1      80.880 182.077 -25.848  1.00  0.00     0.040 C 
HETATM   18  C   UNL     1      79.608 182.410 -26.294  1.00  0.00     0.072 C 
BRANCH  15  19
HETATM   19  O   UNL     1      80.323 181.995 -22.249  1.00  0.00    -0.361 OA
ATOM     20  HO  UNL     1      79.607 182.047 -21.627  1.00  0.00     0.217 HD
ENDBRANCH  15  19
BRANCH  18  21
HETATM   21  O   UNL     1      79.389 182.714 -27.592  1.00  0.00    -0.360 OA
ATOM     22  HO  UNL     1      78.519 182.942 -27.897  1.00  0.00     0.217 HD
ENDBRANCH  18  21
ENDBRANCH  12  13
ENDBRANCH   8  12
BRANCH   7  23
HETATM   23  N   UNL     1      76.071 184.671 -24.243  1.00  0.00    -0.394 N 
ATOM     24  HN2 UNL     1      75.968 185.457 -23.601  1.00  0.00     0.156 HD
ATOM     25  HN1 UNL     1      75.945 183.719 -23.900  1.00  0.00     0.156 HD
ENDBRANCH   7  23
TORSDOF 5
